G4.5Ocore-PETIM in water
131126
    1aaa     O1    1   3.494   9.585   7.660  0.9704  0.2202 -0.0501
    1aaa     C1    2   3.498   9.495   7.773  0.0920  0.2122 -0.7080
    1aaa     H1    3   3.525   9.394   7.744 -0.0833 -0.6347  1.8975
    1aaa     H2    4   3.396   9.486   7.814  0.5594 -0.5153  0.3014
    1aaa     C2    5   3.438   9.524   7.537  0.7600 -0.1514 -1.0824
    1aaa     H3    6   3.330   9.514   7.547  0.7266  0.7640 -0.5783
    1aaa     H4    7   3.474   9.420   7.535  1.4380  0.0643 -0.1400
    1aaa     C3    8   3.586   9.564   7.882 -0.2162  0.3156  0.5501
    1aaa     H5    9   3.687   9.524   7.867 -0.8419 -1.1345  0.0600
    1aaa     H6   10   3.557   9.538   7.985 -0.0312  1.9863  1.0337
    1aaa     C4   11   3.482   9.611   7.417 -0.6446  0.6445  0.2594
    1aaa     H7   12   3.456   9.566   7.321 -1.0277  1.2490  0.0769
    1aaa     H8   13   3.592   9.606   7.416 -0.6944 -1.8821  2.0245
    1aaa     C5   14   3.603   9.721   7.860 -0.5468  0.7196  0.0976
    1aaa     H9   15   3.675   9.722   7.777 -0.0553  0.4323  0.5127
    1aaa    H10   16   3.507   9.765   7.834 -1.7524 -2.1663 -0.4873
    1aaa     C6   17   3.424   9.757   7.430 -0.4693  0.2917 -0.2678
    1aaa    H11   18   3.453   9.805   7.525 -1.4107 -0.3816  0.3678
    1aaa    H12   19   3.315   9.746   7.424 -0.5468  1.1319 -0.3981
    1aaa     N1   20   3.657   9.802   7.981 -0.5864  0.2519  0.6180
    1aaa     N2   21   3.484   9.837   7.324  0.1505  0.2641  0.2086
    1aaa     C7   22   3.468   9.794   7.182  0.3423  0.6429 -0.6910
    1aaa    H13   23   3.493   9.878   7.117 -0.0572  0.2548 -1.3511
    1aaa    H14   24   3.523   9.702   7.158 -0.0373  0.4703 -0.9030
    1aaa     C8   25   3.631   9.869   7.357  0.4702 -0.5200 -0.2711
    1aaa    H15   26   3.642   9.887   7.465  2.3021 -0.3141 -0.4661
    1aaa    H16   27   3.694   9.780   7.340  1.4673 -0.0302  0.7602
    1aaa     C9   28   3.581   9.787   8.106 -0.5779  0.0228 -0.1811
    1aaa    H17   29   3.569   9.881   8.160 -0.0044  0.0084 -0.0240
    1aaa    H18   30   3.484   9.752   8.069 -0.5374 -0.8061  0.4652
    1aaa    C10   31   3.670   9.948   7.942  0.0669 -0.0180  0.3754
    1aaa    H19   32   3.568   9.988   7.936  0.7048  1.3960 -1.6466
    1aaa    H20   33   3.709  10.006   8.027 -0.4942 -0.8182  1.1857
    1aaa    C11   34   3.319   9.764   7.144 -0.5358 -0.3188  0.0800
    1aaa    H21   35   3.293   9.683   7.214  0.3985 -0.6916  0.0100
    1aaa    H22   36   3.257   9.850   7.171 -1.8161 -1.4976  1.0047
    1aaa    C12   37   3.685  10.000   7.287  0.1408  0.1449  0.2878
    1aaa    H23   38   3.677   9.999   7.178  0.2075 -0.4140  0.2858
    1aaa    H24   39   3.619  10.081   7.321  0.9680  0.3877  1.3304
    1aaa    C13   40   3.641   9.678   8.203  0.6384 -0.3712  0.2307
    1aaa    H25   41   3.674   9.593   8.142  0.0501  0.4712 -1.2750
    1aaa    H26   42   3.729   9.717   8.254  1.4712  0.4471 -1.7768
    1aaa    C14   43   3.743   9.985   7.811 -0.6498  0.1691  0.0527
    1aaa    H27   44   3.690   9.953   7.721  0.4476  0.4689 -0.7064
    1aaa    H28   45   3.750  10.095   7.816  1.6473  0.0107  1.1191
    1aaa    C15   46   3.883   9.931   7.797 -0.7179 -0.1216 -0.0819
    1aaa    H29   47   3.941   9.981   7.876 -0.2310  2.0356 -1.7515
    1aaa    H30   48   3.879   9.822   7.805 -0.2663 -0.0796  0.7943
    1aaa    C16   49   3.531   9.634   8.306 -0.1741  1.1234  0.0799
    1aaa    H31   50   3.430   9.644   8.264 -0.5191 -0.4289  0.5263
    1aaa    H32   51   3.540   9.527   8.328  0.0832  1.0523 -0.3794
    1aaa    C17   52   3.831  10.038   7.325 -0.3657 -0.8089 -0.2884
    1aaa    H33   53   3.857  10.035   7.432 -0.6413  1.1054 -0.1451
    1aaa    H34   54   3.911   9.979   7.280  1.3732 -0.4500  2.2397
    1aaa    C18   55   3.289   9.734   6.995  0.2212  0.4590  0.1080
    1aaa    H35   56   3.348   9.798   6.929  0.6060  0.1987  0.1980
    1aaa    H36   57   3.319   9.631   6.969 -1.4359  0.1226 -0.5425
    2bbb     N1   58   3.920   9.575   7.465  0.2266 -0.3786 -0.0021
    2bbb     C1   59   3.906   9.488   7.586  0.1996 -0.1361 -0.0652
    2bbb     H1   60   3.844   9.543   7.658 -2.0857  0.5140 -2.4679
    2bbb     H2   61   4.003   9.463   7.631  0.5811  2.1190  0.4202
    2bbb     C2   62   4.033   9.537   7.375  0.1528  0.2697 -0.2111
    2bbb     H3   63   4.032   9.430   7.353 -0.4605  0.0371  0.8881
    2bbb     H4   64   4.128   9.570   7.418  2.0087 -2.1937 -2.2843
    2bbb     C3   65   3.910   9.722   7.498 -0.4980 -0.1558 -0.3234
    2bbb     H5   66   3.819   9.753   7.550  0.0100 -0.8857  1.0393
    2bbb     H6   67   3.910   9.781   7.405  4.6846  1.7065  0.6446
    2bbb     C4   68   4.030   9.768   7.580  0.0303  0.4350 -0.0817
    2bbb     H7   69   4.122   9.746   7.524  0.1601  0.8184 -0.0179
    2bbb     H8   70   4.039   9.709   7.672  0.6818 -0.5138 -0.7381
    2bbb     C5   71   3.824   9.359   7.561  0.1928 -0.3930 -0.1086
    2bbb     H9   72   3.857   9.297   7.477  2.6167  3.6590 -2.2739
    2bbb    H10   73   3.719   9.382   7.537  0.6557 -0.8728 -2.6611
    2bbb     C6   74   4.021   9.606   7.236 -0.7280  0.2251 -0.0646
    2bbb    H11   75   4.116   9.597   7.182 -0.6969  0.5940 -0.0718
    2bbb    H12   76   4.016   9.714   7.247 -0.6518  0.2423 -0.1939
    2bbb     C7   77   4.048   9.914   7.620 -0.2858 -0.0071 -0.2530
    2bbb    H13   78   4.079   9.972   7.532 -1.1025  0.1995 -0.4006
    2bbb    H14   79   4.133   9.917   7.690  1.5920 -2.9593 -2.2992
    2bbb     C8   80   3.891   9.556   7.162 -0.1133 -0.2387 -0.6706
    2bbb    H15   81   3.808   9.561   7.234 -0.4755 -0.5637 -1.0611
    2bbb    H16   82   3.905   9.449   7.141  1.0821 -0.3121  0.4584
    2bbb     C9   83   3.815   9.274   7.682 -0.3694 -0.4371 -1.1132
    2bbb    H17   84   3.741   9.193   7.672  0.7625 -1.7688  0.9276
    2bbb    H18   85   3.775   9.335   7.764 -0.2837  0.0775 -1.4529
    2bbb     O1   86   3.924   9.970   7.667  0.0560  0.0261 -0.5475
    3bbb     N1   87   3.423  10.053   8.687  0.1890 -0.4029  0.6463
    3bbb     C1   88   3.393  10.184   8.618  0.7617  0.0908  0.3277
    3bbb     H1   89   3.457  10.192   8.529 -0.7219  0.2226 -0.7466
    3bbb     H2   90   3.415  10.268   8.684 -0.1226  1.9528 -1.6749
    3bbb     C2   91   3.354  10.025   8.815 -0.4643  0.5427 -0.3331
    3bbb     H3   92   3.417   9.943   8.853  1.9393  2.3363 -0.3302
    3bbb     H4   93   3.249   9.996   8.802 -0.3963 -0.2546  0.7794
    3bbb     C3   94   3.421   9.942   8.588  0.6538  0.6703 -0.0263
    3bbb     H5   95   3.484   9.960   8.501 -0.8092 -2.1309 -1.7480
    3bbb     H6   96   3.321   9.932   8.544  1.0469  0.6931 -0.9346
    3bbb     C4   97   3.478   9.809   8.637  0.2098  1.3743  0.3861
    3bbb     H7   98   3.433   9.780   8.732  0.5301 -2.7662 -0.6304
    3bbb     H8   99   3.586   9.819   8.654  0.8927  1.1310 -3.2674
    3bbb     C5  100   3.246  10.209   8.579  0.2090  0.7290  0.5604
    3bbb     H9  101   3.180  10.205   8.666  2.3304 -0.2159  2.1841
    3bbb    H10  102   3.211  10.133   8.508  1.0511  1.2528 -0.4279
    3bbb     C6  103   3.356  10.144   8.925 -1.2557 -0.0806 -0.8697
    3bbb    H11  104   3.295  10.131   9.015 -1.6065  1.3927 -0.8847
    3bbb    H12  105   3.305  10.227   8.875 -0.8711 -0.3606 -1.7350
    3bbb     C7  106   3.470   9.688   8.536 -0.1252  0.1734  0.0885
    3bbb    H13  107   3.371   9.683   8.488  0.5856  0.5076 -1.4275
    3bbb    H14  108   3.501   9.594   8.582 -0.4682  0.7905  1.6300
    3bbb     C8  109   3.502  10.184   8.956  0.3733 -0.1112 -0.5330
    3bbb    H15  110   3.518  10.266   9.028 -1.4340  0.8038 -1.1269
    3bbb    H16  111   3.543  10.216   8.860 -2.0453  0.5864 -1.3806
    3bbb     C9  112   3.221  10.345   8.504 -0.3046  0.0649  0.1274
    3bbb    H17  113   3.295  10.362   8.425 -0.7654 -1.7349 -0.7202
    3bbb    H18  114   3.232  10.428   8.575  0.6207  0.2617 -0.2327
    3bbb     O1  115   3.556   9.713   8.423 -0.3163 -0.3970  0.6914
    4bbb     N1  116   4.130  10.573   7.205  0.0768  0.2102  0.2289
    4bbb     C1  117   4.236  10.591   7.104 -0.1793 -0.1114 -0.3661
    4bbb     H1  118   4.337  10.559   7.130  0.2415  3.0413  2.1293
    4bbb     H2  119   4.252  10.697   7.080 -3.2746  0.9201  1.8361
    4bbb     C2  120   4.130  10.691   7.299  1.0791  0.3118 -0.1353
    4bbb     H3  121   4.128  10.783   7.239  1.9230  0.0153 -0.6217
    4bbb     H4  122   4.221  10.685   7.361 -0.3011 -0.8607  1.8224
    4bbb     C3  123   4.130  10.433   7.263  0.1663 -0.6649 -0.2253
    4bbb     H5  124   4.170  10.434   7.365 -1.7793 -1.3597  0.5667
    4bbb     H6  125   4.186  10.364   7.199  1.5689 -1.1726  1.5045
    4bbb     C4  126   3.986  10.374   7.276 -0.1458  0.1868  0.0913
    4bbb     H7  127   3.917  10.416   7.201 -0.4316 -1.7228 -0.7333
    4bbb     H8  128   3.947  10.402   7.375  0.0470 -1.0992  0.5359
    4bbb     C5  129   4.201  10.514   6.969  0.1719 -0.1343 -0.6206
    4bbb     H9  130   4.093  10.501   6.965  0.1770 -1.2466  1.6701
    4bbb    H10  131   4.232  10.410   6.981  0.5529  0.2150  1.8284
    4bbb     C6  132   4.000  10.708   7.379  0.0638 -0.1888  0.8919
    4bbb    H11  133   3.993  10.634   7.459 -0.4501 -0.9588  0.1548
    4bbb    H12  134   3.925  10.671   7.308  3.0955 -0.0512 -2.5653
    4bbb     C7  135   3.990  10.220   7.270  0.6232  0.4623 -0.4567
    4bbb    H13  136   4.054  10.182   7.351  1.8402 -2.9347 -2.8973
    4bbb    H14  137   4.022  10.180   7.173 -0.9784 -0.6190 -0.5673
    4bbb     C8  138   3.962  10.851   7.426 -0.0628  0.1566  0.5735
    4bbb    H15  139   3.966  10.922   7.342  2.0839  1.8199  1.9961
    4bbb    H16  140   4.051  10.884   7.482  0.4332  0.6092 -0.4742
    4bbb     C9  141   4.270  10.575   6.843  0.3206  0.6329  0.4665
    4bbb    H17  142   4.231  10.514   6.761 -2.0375  1.3115  1.0616
    4bbb    H18  143   4.380  10.570   6.840  0.3252  1.5492 -1.5301
    4bbb     O1  144   3.856  10.177   7.290 -0.0563 -0.6545  0.8581
    5bbb     N1  145   2.744   9.774   7.143  0.7061 -0.3729 -0.5458
    5bbb     C1  146   2.745   9.842   7.274  0.5246 -0.1601 -0.2614
    5bbb     H1  147   2.786   9.944   7.265 -0.4984  0.2529 -0.3233
    5bbb     H2  148   2.806   9.794   7.351  0.1164  0.2065  0.2972
    5bbb     C2  149   2.638   9.675   7.129 -0.9898 -1.0965 -0.3986
    5bbb     H3  150   2.631   9.658   7.021  0.7563  0.7378 -0.8378
    5bbb     H4  151   2.536   9.710   7.145  0.1372  1.2020  2.2543
    5bbb     C3  152   2.882   9.729   7.125 -0.0695 -0.3238  0.1254
    5bbb     H5  153   2.898   9.638   7.184  0.0027  0.0587  0.7051
    5bbb     H6  154   2.953   9.803   7.162 -0.0940  0.3085 -1.0616
    5bbb     C4  155   2.917   9.686   6.981  0.3359 -0.2573  0.8455
    5bbb     H7  156   2.888   9.759   6.904  1.6810 -2.0217 -1.4023
    5bbb     H8  157   2.854   9.604   6.946 -0.0367  0.4383 -0.1438
    5bbb     C5  158   2.600   9.877   7.326 -0.4030 -0.0420  0.3673
    5bbb     H9  159   2.556   9.783   7.360 -0.0429  0.2828  1.7718
    5bbb    H10  160   2.547   9.913   7.237  1.9904  0.7567 -0.7909
    5bbb     C6  161   2.658   9.528   7.189  0.3758 -0.0934  0.3092
    5bbb    H11  162   2.750   9.481   7.153  0.2375 -0.4311  0.3941
    5bbb    H12  163   2.584   9.452   7.162  1.4677 -0.4274 -1.8184
    5bbb     C7  164   3.063   9.638   6.970 -0.1104 -0.8681 -0.0079
    5bbb    H13  165   3.086   9.580   6.880 -0.1091 -2.9308  1.2872
    5bbb    H14  166   3.080   9.576   7.058 -1.0365 -2.2190 -0.7536
    5bbb     C8  167   2.669   9.530   7.343  0.1369 -0.4463  0.1790
    5bbb    H15  168   2.572   9.574   7.371  1.2376  1.7282  0.6936
    5bbb    H16  169   2.746   9.590   7.394  0.1308  0.2042 -0.5656
    5bbb     C9  170   2.590   9.974   7.449 -0.1105 -0.3019 -0.1337
    5bbb    H17  171   2.646   9.931   7.533 -0.4921 -1.0029 -0.2409
    5bbb    H18  172   2.483   9.976   7.473  0.2443 -1.6864  1.6249
    5bbb     O1  173   3.149   9.751   6.975 -0.6888  0.4326  0.4414
    6bbb     N1  174   4.039   9.858   6.820 -0.5929  1.1771 -0.3027
    6bbb     C1  175   4.143   9.815   6.712  0.1142  0.1528  0.0140
    6bbb     H1  176   4.244   9.849   6.736  0.6693 -0.7047 -1.0847
    6bbb     H2  177   4.115   9.868   6.621  1.5963  1.9239  0.5684
    6bbb     C2  178   4.042  10.006   6.841 -0.2179  0.0403  0.0512
    6bbb     H3  179   3.975  10.025   6.926  0.2001  2.5459 -0.1513
    6bbb     H4  180   4.007  10.062   6.754 -1.7937 -1.5928 -0.3824
    6bbb     C3  181   3.900   9.813   6.784 -0.5174 -0.2777 -0.1477
    6bbb     H5  182   3.892   9.709   6.751 -1.2880  0.1547 -1.3558
    6bbb     H6  183   3.868   9.873   6.698 -0.7743  0.3497  0.3812
    6bbb     C4  184   3.789   9.819   6.896 -0.3601  0.5307 -0.2215
    6bbb     H7  185   3.699   9.765   6.866 -0.0051  0.6161 -1.4425
    6bbb     H8  186   3.769   9.925   6.916  1.8195  1.1895 -1.3290
    6bbb     C5  187   4.162   9.669   6.694  0.0355  0.4491  0.1189
    6bbb     H9  188   4.245   9.651   6.624 -1.1439 -1.3089 -0.8801
    6bbb    H10  189   4.075   9.623   6.645  0.6399 -2.3404  1.5660
    6bbb     C6  190   4.184  10.061   6.872 -0.0610 -1.0381 -0.1147
    6bbb    H11  191   4.177  10.170   6.886 -1.6399 -0.7554 -2.7522
    6bbb    H12  192   4.248  10.052   6.783  0.5700  4.7749 -0.4398
    6bbb     C7  193   3.838   9.760   7.035 -0.3315 -0.2180  0.1669
    6bbb    H13  194   3.765   9.792   7.111 -0.5908  3.4947 -1.5430
    6bbb    H14  195   3.930   9.812   7.064 -0.3330  0.0583 -0.3159
    6bbb     C8  196   4.256   9.988   6.993  0.3870 -0.0461  0.4748
    6bbb    H15  197   4.251   9.879   6.979 -1.3842 -0.1543  1.7114
    6bbb    H16  198   4.193   9.998   7.082 -0.2009 -0.2740  0.0951
    6bbb     C9  199   4.189   9.592   6.830 -0.0070  0.0045 -0.2543
    6bbb    H17  200   4.111   9.619   6.903  0.5159 -1.7031  0.9597
    6bbb    H18  201   4.282   9.619   6.881  1.4620 -2.2922 -1.6755
    6bbb     O1  202   3.860   9.618   7.035  0.1745 -0.0091  0.0120
    7bbb     N1  203   4.302   8.962   7.778  0.0345 -0.2297  0.4281
    7bbb     C1  204   4.387   8.949   7.653  0.0226  0.7550  0.9346
    7bbb     H1  205   4.481   8.895   7.667  0.3594  0.9921 -0.2830
    7bbb     H2  206   4.421   9.046   7.614 -0.4230  0.6901  0.3664
    7bbb     C2  207   4.371   9.033   7.893 -0.0401 -0.0846 -0.2757
    7bbb     H3  208   4.311   9.028   7.985 -0.7953 -2.0206 -0.8470
    7bbb     H4  209   4.374   9.139   7.865  1.4922  0.0364  0.2609
    7bbb     C3  210   4.177   9.029   7.743  0.6269 -0.4462  0.6616
    7bbb     H5  211   4.116   8.970   7.674  0.0403 -2.9248  3.1866
    7bbb     H6  212   4.203   9.118   7.685 -0.0875 -0.8783 -0.3191
    7bbb     C4  213   4.079   9.068   7.850  0.9871 -0.0501 -0.0699
    7bbb     H7  214   4.114   9.159   7.901 -2.0037  0.4287  1.2523
    7bbb     H8  215   4.057   8.988   7.922 -0.4135  0.2071 -0.2021
    7bbb     C5  216   4.332   8.869   7.528 -0.2957 -0.1565 -0.1037
    7bbb     H9  217   4.271   8.787   7.567  1.3868 -1.6611 -0.5743
    7bbb    H10  218   4.413   8.817   7.476 -1.1198 -1.3835 -0.1802
    7bbb     C6  219   4.520   8.988   7.929  0.2848  0.0771  0.1037
    7bbb    H11  220   4.585   9.008   7.843  0.7203  1.6426  0.7847
    7bbb    H12  221   4.525   8.880   7.947 -0.8559 -0.0117 -0.0451
    7bbb     C7  222   3.934   9.097   7.793  0.1187  0.7448 -1.1049
    7bbb    H13  223   3.867   9.102   7.879  0.2669 -1.6845 -0.7962
    7bbb    H14  224   3.905   9.016   7.724 -0.0476  0.1854 -0.3845
    7bbb     C8  225   4.571   9.074   8.049  0.0644  0.2846 -0.6475
    7bbb    H15  226   4.518   9.048   8.142 -1.5927  0.8548 -1.4128
    7bbb    H16  227   4.553   9.181   8.031  2.4666  1.0378  1.1838
    7bbb     C9  228   4.258   8.953   7.421 -0.4358  0.5762  1.0040
    7bbb    H17  229   4.320   9.029   7.371  0.8278 -0.8441  0.3926
    7bbb    H18  230   4.182   9.013   7.473 -0.0131  1.7967  0.2484
    7bbb     O1  231   3.941   9.216   7.720 -0.1049  0.2092 -0.2250
    8bbb     N1  232   3.821   9.727   8.906 -1.1242  0.1408  0.0582
    8bbb     C1  233   3.784   9.623   9.005  0.0780 -0.4060  0.0736
    8bbb     H1  234   3.811   9.648   9.109 -0.4825  1.7191 -0.2750
    8bbb     H2  235   3.833   9.526   8.986 -0.1984 -0.5824  0.2597
    8bbb     C2  236   3.858   9.685   8.767  0.4749 -0.0820  0.1483
    8bbb     H3  237   3.847   9.757   8.685  0.4495 -0.9746 -0.6421
    8bbb     H4  238   3.796   9.604   8.727  0.7069 -0.3107  0.2514
    8bbb     C3  239   3.760   9.865   8.909  0.1600  0.0133 -0.3923
    8bbb     H5  240   3.658   9.865   8.871  0.3039 -2.1320 -0.8436
    8bbb     H6  241   3.811   9.936   8.842  2.4714 -1.2048 -0.0014
    8bbb     C4  242   3.755   9.927   9.056  0.2649  0.5894 -0.0842
    8bbb     H7  243   3.857   9.935   9.096  0.3758  1.2006 -0.4850
    8bbb     H8  244   3.694   9.868   9.126 -1.6201  1.9443 -0.5433
    8bbb     C5  245   3.635   9.594   9.004 -0.2726 -0.2361  0.1341
    8bbb     H9  246   3.580   9.688   9.018  1.3175  0.3505  2.7345
    8bbb    H10  247   3.604   9.534   9.091  0.3436  1.1287  1.3153
    8bbb     C6  248   3.998   9.636   8.759  0.4521 -0.3012  0.2001
    8bbb    H11  249   4.000   9.545   8.820  2.3818  0.5532  1.4649
    8bbb    H12  250   4.057   9.710   8.814  1.0629  0.8302 -1.9086
    8bbb     C7  251   3.697  10.068   9.055 -0.1839 -0.5159 -0.5133
    8bbb    H13  252   3.762  10.132   8.993  0.0880 -0.3450 -0.0551
    8bbb    H14  253   3.692  10.109   9.157  0.1965 -1.4197 -0.1204
    8bbb     C8  254   4.041   9.612   8.616  0.1907  0.0456 -0.2821
    8bbb    H15  255   4.025   9.707   8.564  1.6686 -0.1572 -1.1386
    8bbb    H16  256   3.974   9.535   8.575  0.3774 -1.6135  2.4469
    8bbb     C9  257   3.588   9.525   8.874  0.1342 -0.2044  0.3677
    8bbb    H17  258   3.587   9.594   8.789  3.4556 -1.1342 -0.4851
    8bbb    H18  259   3.482   9.497   8.881 -0.8535  3.0806 -0.3712
    8bbb     O1  260   3.566  10.063   9.002  0.1195 -0.1585 -0.0053
    9bbb     N1  261   3.259  10.179   8.092 -0.4866  0.5149  0.1403
    9bbb     C1  262   3.287  10.055   8.000  0.1373 -0.7990  0.1202
    9bbb     H1  263   3.358   9.991   8.053  0.9174 -0.7994 -0.9147
    9bbb     H2  264   3.347  10.088   7.915 -1.1070  0.0065 -0.4622
    9bbb     C2  265   3.382  10.260   8.118  0.9298  0.3408  0.1954
    9bbb     H3  266   3.352  10.360   8.152  1.8055  0.9961 -0.9203
    9bbb     H4  267   3.445  10.271   8.029 -0.0988  0.3651 -0.5360
    9bbb     C3  268   3.138  10.257   8.068 -0.7699  0.1982 -0.0084
    9bbb     H5  269   3.046  10.203   8.039 -1.2145  1.2611 -0.5873
    9bbb     H6  270   3.145  10.324   7.982  1.1434  0.0182 -0.0012
    9bbb     C4  271   3.105  10.340   8.192  0.5078 -0.3366 -0.0583
    9bbb     H7  272   3.012  10.395   8.172  1.4448  1.5068  0.5722
    9bbb     H8  273   3.178  10.418   8.214  0.0497  0.2197 -0.5068
    9bbb     C5  274   3.157   9.977   7.951  0.9920 -0.0923  0.0795
    9bbb     H9  275   3.190   9.894   7.887  0.0316 -1.3634  1.2038
    9bbb    H10  276   3.090  10.039   7.891  0.9790  1.8398  2.0395
    9bbb     C6  277   3.477  10.193   8.222 -0.4030  0.7641 -0.4487
    9bbb    H11  278   3.503  10.092   8.186  1.0419  1.3629 -1.1151
    9bbb    H12  279   3.421  10.178   8.315 -0.3670 -2.8887 -0.9486
    9bbb     C7  280   3.084  10.258   8.323  0.4278  0.5610 -0.3227
    9bbb    H13  281   3.164  10.183   8.322  2.1642  2.3251  1.8521
    9bbb    H14  282   2.987  10.207   8.328 -0.9185  2.6645 -3.4463
    9bbb     C8  283   3.599  10.277   8.263  0.3645 -0.1303  0.2042
    9bbb    H15  284   3.647  10.237   8.353 -0.8908 -0.4370  0.7479
    9bbb    H16  285   3.564  10.379   8.282 -0.7751 -0.3292 -0.7792
    9bbb     C9  286   3.090   9.898   8.069 -0.1883  0.3667  0.2828
    9bbb    H17  287   2.998   9.852   8.029  0.1020  1.2084 -1.4292
    9bbb    H18  288   3.069   9.976   8.143 -0.2621 -0.3240  0.9972
    9bbb     O1  289   3.088  10.348   8.442 -0.4883  0.4883 -0.5326
   10bbb     N1  290   3.384  10.904   7.603  0.3889  0.0057 -0.3519
   10bbb     C1  291   3.368  11.056   7.603 -0.5998  0.2966  0.7114
   10bbb     H1  292   3.291  11.087   7.531 -0.3376 -1.7804 -0.5211
   10bbb     H2  293   3.458  11.108   7.569 -0.9105  1.7346  2.0429
   10bbb     C2  294   3.253  10.837   7.628 -0.0510  0.2949  0.0613
   10bbb     H3  295   3.187  10.865   7.545 -2.3212 -2.6194  0.8258
   10bbb     H4  296   3.216  10.860   7.728  2.8471  0.7846  1.0770
   10bbb     C3  297   3.481  10.851   7.503  0.0038  0.6386  0.4070
   10bbb     H5  298   3.462  10.879   7.398  1.6561 -1.5571 -0.5123
   10bbb     H6  299   3.469  10.742   7.501 -2.2864  0.8463  1.6140
   10bbb     C4  300   3.621  10.900   7.541  0.1045 -0.1295  0.3072
   10bbb     H7  301   3.639  10.855   7.640 -0.4982  1.0454  0.9603
   10bbb     H8  302   3.633  11.008   7.551  2.1576 -0.3972  1.1603
   10bbb     C5  303   3.350  11.123   7.733 -0.0688 -0.2174 -0.4895
   10bbb     H9  304   3.262  11.079   7.781 -0.6534 -0.2375 -1.5644
   10bbb    H10  305   3.337  11.229   7.709  1.9719 -0.3893 -2.5807
   10bbb     C6  306   3.257  10.680   7.620  0.4685 -0.4146  0.2078
   10bbb    H11  307   3.275  10.658   7.514  0.4843 -0.6602  0.2594
   10bbb    H12  308   3.159  10.632   7.633 -0.0306  0.2817 -0.9189
   10bbb     C7  309   3.727  10.844   7.445 -0.1217  0.3832 -0.6410
   10bbb    H13  310   3.717  10.896   7.349 -1.1399 -0.6946 -1.1429
   10bbb    H14  311   3.715  10.737   7.422  0.0509  0.3144 -0.4080
   10bbb     C8  312   3.336  10.606   7.730 -0.4354  0.0487 -0.0592
   10bbb    H15  313   3.441  10.637   7.726 -0.6428  0.7639 -0.0318
   10bbb    H16  314   3.325  10.499   7.707  0.8082 -0.0087 -0.4596
   10bbb     C9  315   3.474  11.112   7.827 -0.3222 -0.0641 -0.3230
   10bbb    H17  316   3.504  11.010   7.855 -1.4637 -0.4893 -0.6113
   10bbb    H18  317   3.430  11.159   7.916 -2.2235 -0.3084 -1.0963
   10bbb     O1  318   3.852  10.873   7.513  0.0443 -0.2238  0.3707
   11bbb     N1  319   4.554  10.979   6.930  0.3264  0.3067  0.9570
   11bbb     C1  320   4.612  11.075   6.835 -0.0689  0.0365  0.1085
   11bbb     H1  321   4.549  11.164   6.846 -0.4723 -0.4205  1.5916
   11bbb     H2  322   4.622  11.045   6.730 -2.0209  1.1445 -0.4243
   11bbb     C2  323   4.649  10.874   6.967  0.1256  0.4242  0.5584
   11bbb     H3  324   4.744  10.925   6.989 -0.1790  1.5507 -0.6596
   11bbb     H4  325   4.665  10.806   6.882  0.8082  0.1747  0.8789
   11bbb     C3  326   4.422  10.934   6.878  0.3772 -0.3592 -0.6030
   11bbb     H5  327   4.372  11.029   6.855  0.6135 -0.3698 -1.1751
   11bbb     H6  328   4.370  10.894   6.966  1.2953  0.3771  0.2763
   11bbb     C4  329   4.410  10.836   6.755 -0.3376 -0.1587  0.4322
   11bbb     H7  330   4.475  10.748   6.769  1.5083  0.8862 -1.2361
   11bbb     H8  331   4.436  10.891   6.663 -0.4635 -0.0289  0.4748
   11bbb     C5  332   4.750  11.142   6.864 -0.1000 -0.4182  0.3778
   11bbb     H9  333   4.781  11.203   6.778  0.6861  2.5365  2.6322
   11bbb    H10  334   4.833  11.071   6.859  0.0690 -0.1694 -0.4455
   11bbb     C6  335   4.612  10.778   7.086 -0.1641 -0.3115 -0.1720
   11bbb    H11  336   4.697  10.711   7.103 -1.0269 -1.4532 -0.3578
   11bbb    H12  337   4.525  10.718   7.058 -0.2884 -0.0753 -0.2933
   11bbb     C7  338   4.267  10.793   6.725 -0.1184 -0.0986 -0.6732
   11bbb    H13  339   4.260  10.756   6.622 -1.8096  0.0862 -0.6314
   11bbb    H14  340   4.205  10.883   6.719 -0.3370 -0.1546  0.7028
   11bbb     C8  341   4.573  10.862   7.219  0.3334  0.8217  0.3225
   11bbb    H15  342   4.475  10.910   7.208 -0.5547 -0.7026  1.5460
   11bbb    H16  343   4.643  10.946   7.235  0.0716  0.9444  0.8444
   11bbb     C9  344   4.757  11.219   6.997  0.2092  0.4436 -0.5312
   11bbb    H17  345   4.658  11.198   7.040  0.3558  1.1256  0.1270
   11bbb    H18  346   4.771  11.325   6.975 -1.9515  0.8109 -0.2320
   11bbb     O1  347   4.216  10.706   6.827 -0.6595  0.1662  0.5173
   12bbb     N1  348   2.718   8.997   7.552 -0.1538  0.1384  0.2820
   12bbb     C1  349   2.648   8.951   7.429 -0.3431 -0.0587 -0.4064
   12bbb     H1  350   2.545   8.988   7.428 -0.3593 -0.0243  1.4597
   12bbb     H2  351   2.645   8.841   7.428  1.7103 -0.1510  0.4189
   12bbb     C2  352   2.632   8.948   7.669 -0.1463  0.6326  0.3981
   12bbb     H3  353   2.626   8.839   7.675 -1.5806  0.6683 -0.3710
   12bbb     H4  354   2.533   8.993   7.654 -0.9844 -0.8775  1.2863
   12bbb     C3  355   2.745   9.139   7.549  0.0872 -0.4308 -0.1085
   12bbb     H5  356   2.790   9.158   7.451 -0.1389  1.7301  0.1863
   12bbb     H6  357   2.826   9.151   7.622  0.9081  1.1707 -1.2405
   12bbb     C4  358   2.638   9.245   7.575 -0.0113  0.4450 -0.0348
   12bbb     H7  359   2.606   9.235   7.680  0.9722  0.7269  0.2955
   12bbb     H8  360   2.546   9.225   7.519 -0.0414 -1.0741  0.5447
   12bbb     C5  361   2.723   8.988   7.292  0.5772 -0.0505  0.2013
   12bbb     H9  362   2.727   9.096   7.279  1.4979  0.1258  1.8835
   12bbb    H10  363   2.671   8.944   7.206 -1.6261  2.6596  0.0752
   12bbb     C6  364   2.680   8.996   7.813 -0.0922 -0.0142 -0.2848
   12bbb    H11  365   2.631   8.927   7.883  1.2942 -0.1334  0.5918
   12bbb    H12  366   2.644   9.099   7.825 -1.9389 -0.7097  0.1846
   12bbb     C7  367   2.682   9.387   7.537 -0.0827 -0.8795 -0.9111
   12bbb    H13  368   2.787   9.408   7.560  0.2950 -2.1078 -1.4683
   12bbb    H14  369   2.615   9.460   7.585 -0.9338 -1.6415 -0.9308
   12bbb     C8  370   2.826   8.967   7.851  0.3512  0.1781  0.7990
   12bbb    H15  371   2.898   8.998   7.775 -1.1262  0.1466 -0.6380
   12bbb    H16  372   2.825   8.858   7.864 -1.5816  0.1979  0.9860
   12bbb     C9  373   2.868   8.930   7.285 -0.3524  0.1936  0.3321
   12bbb    H17  374   2.863   8.821   7.273 -0.1986  0.1438  0.7122
   12bbb    H18  375   2.931   8.946   7.374  1.7334 -1.2888 -0.8294
   12bbb     O1  376   2.684   9.393   7.391 -0.1764 -0.0712  0.0213
   13bbb     N1  377   2.695  10.574   7.546  0.7843 -0.7832 -0.1323
   13bbb     C1  378   2.647  10.638   7.422 -0.3966 -0.0397 -0.1177
   13bbb     H1  379   2.657  10.561   7.344 -0.3741  0.5172 -0.6632
   13bbb     H2  380   2.711  10.722   7.393 -0.0497 -0.7255 -1.3611
   13bbb     C2  381   2.720  10.664   7.658  0.4285  0.4352  1.7928
   13bbb     H3  382   2.761  10.608   7.743 -0.7843  0.7351  2.5937
   13bbb     H4  383   2.623  10.695   7.699  0.1864  1.7550  0.2761
   13bbb     C3  384   2.636  10.442   7.580  1.1042  0.0384 -0.3732
   13bbb     H5  385   2.528  10.450   7.597  0.9466  0.7348 -1.6147
   13bbb     H6  386   2.678  10.407   7.675 -1.3795  2.2871  1.6394
   13bbb     C4  387   2.668  10.341   7.473  0.6087  0.2783 -0.0059
   13bbb     H7  388   2.778  10.336   7.475  0.6191 -0.3026 -1.2809
   13bbb     H8  389   2.650  10.362   7.366  3.0497 -2.0114 -0.9316
   13bbb     C5  390   2.498  10.678   7.415 -0.5895 -0.2482  0.1478
   13bbb     H9  391   2.482  10.744   7.500  1.7629  1.3759 -0.6044
   13bbb    H10  392   2.431  10.592   7.424 -0.8881 -0.0503 -0.1740
   13bbb     C6  393   2.794  10.800   7.634  0.1416  0.7114 -0.2867
   13bbb    H11  394   2.719  10.856   7.576 -0.5084  0.1930  0.0411
   13bbb    H12  395   2.867  10.782   7.555 -1.5541 -1.8241 -1.3710
   13bbb     C7  396   2.617  10.206   7.516 -0.0930 -0.4478 -0.5511
   13bbb    H13  397   2.508  10.210   7.528  0.1256  1.3779  1.1546
   13bbb    H14  398   2.655  10.185   7.617 -1.9167 -3.2746 -0.4023
   13bbb     C8  399   2.843  10.870   7.766  0.5620  0.5156 -0.0116
   13bbb    H15  400   2.755  10.880   7.831 -0.1292 -0.4583 -0.7903
   13bbb    H16  401   2.883  10.971   7.752  2.5303 -0.2028  0.1446
   13bbb     C9  402   2.473  10.758   7.283  0.1495  0.5004  0.5860
   13bbb    H17  403   2.364  10.766   7.284  0.0561 -0.6856  0.4234
   13bbb    H18  404   2.506  10.697   7.198 -1.7715 -0.2668  0.3685
   13bbb     O1  405   2.642  10.103   7.419 -0.5040  0.1541  0.0171
   14bbb     N1  406   4.726  10.254   7.172  0.1596 -0.0315  0.0046
   14bbb     C1  407   4.768  10.397   7.153 -0.1792 -0.0771 -0.1628
   14bbb     H1  408   4.686  10.467   7.174 -1.7601 -0.7261 -3.7457
   14bbb     H2  409   4.799  10.409   7.048 -1.2755  0.2138 -0.4563
   14bbb     C2  410   4.683  10.221   7.311 -0.1336 -0.1031  0.1675
   14bbb     H3  411   4.769  10.234   7.378  0.8791  0.5454 -1.2232
   14bbb     H4  412   4.644  10.120   7.326 -0.6247  0.0853  0.1642
   14bbb     C3  413   4.637  10.200   7.071  0.1069  0.0584  0.0270
   14bbb     H5  414   4.669  10.228   6.970 -0.9121 -0.3301 -0.4134
   14bbb     H6  415   4.536  10.237   7.094 -0.1040  0.5876 -1.6575
   14bbb     C4  416   4.625  10.042   7.074  0.1395 -0.1209  1.0619
   14bbb     H7  417   4.692  10.002   7.150  0.7670 -0.3951  0.3744
   14bbb     H8  418   4.659  10.006   6.976 -0.6796  2.3263 -0.1804
   14bbb     C5  419   4.891  10.432   7.242  0.0243  0.5831 -0.1294
   14bbb     H9  420   4.973  10.359   7.232  0.6390  1.0357  1.4345
   14bbb    H10  421   4.863  10.423   7.348 -2.0341  1.3722 -0.5778
   14bbb     C6  422   4.574  10.321   7.372 -0.3803 -0.2691 -0.7538
   14bbb    H11  423   4.511  10.357   7.289 -0.4644 -0.0114 -0.5802
   14bbb    H12  424   4.624  10.405   7.422 -1.3074  0.6233 -1.3127
   14bbb     C7  425   4.485   9.979   7.096 -0.2649 -0.2308  0.5568
   14bbb    H13  426   4.451   9.993   7.200 -0.8775 -3.1590  0.7925
   14bbb    H14  427   4.476   9.874   7.067  3.1396 -0.5111  0.4008
   14bbb     C8  428   4.478  10.246   7.468  0.0130  0.1227  0.0142
   14bbb    H15  429   4.445  10.163   7.404 -0.9040 -0.6924  1.5149
   14bbb    H16  430   4.392  10.300   7.509  1.9804  3.4793 -0.0599
   14bbb     C9  431   4.947  10.575   7.219  0.6787  0.2702  0.1923
   14bbb    H17  432   5.030  10.609   7.282  1.3856  0.6681 -0.9445
   14bbb    H18  433   4.862  10.644   7.232  1.1442  1.0304 -0.7549
   14bbb     O1  434   4.390  10.041   7.002 -0.4839 -0.2563  0.1960
   15bbb     N1  435   3.942   9.169   6.764  0.4332  0.0519  0.6729
   15bbb     C1  436   3.883   9.054   6.838  0.1077  0.6554 -0.0051
   15bbb     H1  437   3.941   9.036   6.929 -0.2184 -0.3384  0.0136
   15bbb     H2  438   3.894   8.959   6.784  1.2072  0.5097  0.4538
   15bbb     C2  439   3.891   9.191   6.623  0.8222  0.1246 -0.1965
   15bbb     H3  440   3.785   9.166   6.619  1.1153 -1.2599  0.3777
   15bbb     H4  441   3.941   9.118   6.559 -0.5968 -1.4555  0.4708
   15bbb     C3  442   4.088   9.183   6.767  0.1578 -0.6673 -0.6763
   15bbb     H5  443   4.130   9.248   6.689 -0.7381  0.4511 -0.2281
   15bbb     H6  444   4.130   9.086   6.738  2.0101  0.0435 -0.4595
   15bbb     C4  445   4.144   9.229   6.904 -0.1669  0.0001  0.2520
   15bbb     H7  446   4.252   9.215   6.894 -0.2917 -1.6118  1.0254
   15bbb     H8  447   4.115   9.166   6.989 -0.3154 -0.7992 -0.3865
   15bbb     C5  448   3.745   9.095   6.897 -0.0550 -0.3128 -0.2289
   15bbb     H9  449   3.688   9.143   6.816  0.6338 -0.2204 -0.6624
   15bbb    H10  450   3.771   9.171   6.972  1.1696 -0.3842 -0.5741
   15bbb     C6  451   3.911   9.331   6.563 -0.3455  0.2789 -0.3093
   15bbb    H11  452   4.016   9.333   6.531  0.1904 -2.5956  1.1784
   15bbb    H12  453   3.895   9.409   6.639 -1.2210  0.2308 -0.4421
   15bbb     C7  454   4.107   9.377   6.922 -0.0728  0.5520 -0.6642
   15bbb    H13  455   4.135   9.408   7.024  0.2543 -1.4977 -0.1041
   15bbb    H14  456   3.998   9.381   6.931  0.1800  0.9565  3.4513
   15bbb     C8  457   3.815   9.361   6.449 -0.5678  0.3659  0.5653
   15bbb    H15  458   3.711   9.347   6.481 -0.6193  0.7666  0.5665
   15bbb    H16  459   3.832   9.297   6.362  0.7855  2.8363 -1.0409
   15bbb     C9  460   3.657   8.975   6.939  0.5549  0.0737  0.5484
   15bbb    H17  461   3.652   8.905   6.854 -0.0790  1.2827 -0.4204
   15bbb    H18  462   3.558   9.016   6.962 -0.8048 -2.6976 -0.0638
   15bbb     O1  463   4.176   9.451   6.812 -0.8631  0.2857 -0.5194
   16bbb     N1  464   4.954   9.053   8.414 -0.0936 -0.2164  0.6448
   16bbb     C1  465   4.914   9.126   8.534 -0.3259 -0.1812  0.3940
   16bbb     H1  466   4.992   9.203   8.545  2.0836 -2.3764 -0.6959
   16bbb     H2  467   4.924   9.066   8.625 -0.1648  0.3270  0.7159
   16bbb     C2  468   5.054   8.938   8.425  0.0505 -0.1299 -0.3063
   16bbb     H3  469   5.146   8.983   8.465  0.1483  0.6811 -1.4386
   16bbb     H4  470   5.059   8.890   8.327  0.0536  0.7877 -0.7637
   16bbb     C3  471   4.987   9.143   8.302  0.1951 -0.1236  0.3662
   16bbb     H5  472   5.096   9.144   8.287  0.1814  0.3311  0.2799
   16bbb     H6  473   4.941   9.241   8.319 -2.4417 -1.0598 -1.1731
   16bbb     C4  474   4.928   9.091   8.166  0.2581 -0.5687  0.4289
   16bbb     H7  475   4.930   8.981   8.163 -1.8424 -0.6082 -0.5330
   16bbb     H8  476   4.996   9.117   8.084 -0.2333 -0.9704 -0.1105
   16bbb     C5  477   4.772   9.186   8.533 -0.1253  0.7058  0.0724
   16bbb     H9  478   4.688   9.116   8.539 -0.6899  1.4941  1.4446
   16bbb    H10  479   4.759   9.245   8.441 -1.8484  0.3728  0.0943
   16bbb     C6  480   5.000   8.827   8.516 -0.5079  0.1697 -0.3204
   16bbb    H11  481   5.005   8.863   8.620 -3.0300 -0.4089  0.0345
   16bbb    H12  482   5.068   8.741   8.508  0.8936  1.1450  0.8690
   16bbb     C7  483   4.778   9.139   8.152 -0.5103  0.0526  0.6851
   16bbb    H13  484   4.775   9.242   8.114 -0.9408  0.7493  2.5488
   16bbb    H14  485   4.723   9.131   8.246  0.2551  2.2282  1.3662
   16bbb     C8  486   4.859   8.783   8.481  0.0529  0.7292 -0.1082
   16bbb    H15  487   4.846   8.818   8.378  0.3427  1.9972  0.2747
   16bbb    H16  488   4.789   8.836   8.547 -1.0949  2.1374 -2.3970
   16bbb     C9  489   4.751   9.291   8.645  0.0555 -0.3834 -0.5346
   16bbb    H17  490   4.656   9.346   8.638  1.5603  2.2232 -1.2873
   16bbb    H18  491   4.834   9.362   8.634 -1.3308  0.9992 -2.4497
   16bbb     O1  492   4.714   9.046   8.065 -0.0395 -0.3058 -0.3194
   17bbb     N1  493   4.173   8.721   6.916 -0.0471  0.5622  0.5381
   17bbb     C1  494   4.075   8.755   6.813  0.6279 -0.1369 -0.4875
   17bbb     H1  495   4.089   8.862   6.798  0.8399 -0.2953 -1.4477
   17bbb     H2  496   3.968   8.753   6.839  0.2067  0.7400 -2.1338
   17bbb     C2  497   4.153   8.589   6.973  0.1245  0.5733 -0.5703
   17bbb     H3  498   4.160   8.512   6.895 -2.4420 -1.7467  1.3626
   17bbb     H4  499   4.051   8.581   7.013 -0.2826 -2.0081 -1.9798
   17bbb     C3  500   4.188   8.820   7.019  0.6455  0.5222 -0.3453
   17bbb     H5  501   4.215   8.918   6.978  1.4941 -0.0391 -1.1426
   17bbb     H6  502   4.278   8.798   7.079  0.2904 -0.7704 -0.2811
   17bbb     C4  503   4.074   8.846   7.119  0.2804  0.4975  1.0587
   17bbb     H7  504   4.044   8.751   7.164 -1.3196 -0.6415 -2.2233
   17bbb     H8  505   3.994   8.894   7.060  0.7795 -0.2452 -0.2388
   17bbb     C5  506   4.097   8.689   6.675  0.1552 -0.0651  0.5826
   17bbb     H9  507   4.063   8.585   6.679  0.8831 -0.3595 -0.5304
   17bbb    H10  508   4.205   8.689   6.658  0.1347  0.0089  0.4480
   17bbb     C6  509   4.253   8.547   7.089  0.1908  0.0076  0.0624
   17bbb    H11  510   4.215   8.452   7.126 -1.3600  1.0924  1.3256
   17bbb    H12  511   4.249   8.622   7.169  2.6858 -1.4312  1.5898
   17bbb     C7  512   4.103   8.940   7.235  0.1438 -0.9427 -0.5125
   17bbb    H13  513   4.014   8.965   7.294  1.5259 -1.0634  1.7074
   17bbb    H14  514   4.148   9.032   7.196  1.3999 -0.3583  2.1918
   17bbb     C8  515   4.398   8.539   7.034 -0.1507 -0.0409 -0.5004
   17bbb    H15  516   4.474   8.572   7.106 -0.1880 -2.9638  0.9916
   17bbb    H16  517   4.406   8.615   6.956 -2.3954  0.3341 -0.4054
   17bbb     C9  518   4.031   8.777   6.563 -0.0702  0.2708  0.1878
   17bbb    H17  519   4.042   8.715   6.474  0.7979 -0.3673  0.7300
   17bbb    H18  520   4.083   8.874   6.553  0.4131  0.2123  1.9125
   17bbb     O1  521   4.197   8.872   7.318 -0.5299  0.1915  0.1412
   18bbb     N1  522   4.520   9.549   8.328 -0.5723 -0.4998 -0.4556
   18bbb     C1  523   4.577   9.484   8.210 -0.3492 -0.0414 -0.4255
   18bbb     H1  524   4.614   9.384   8.233 -0.4007 -0.1511 -0.8119
   18bbb     H2  525   4.664   9.535   8.165 -0.7101  2.0651  1.1763
   18bbb     C2  526   4.602   9.653   8.390 -0.3037 -0.4736  0.1770
   18bbb     H3  527   4.547   9.683   8.481  0.6674 -0.0857  0.6495
   18bbb     H4  528   4.611   9.743   8.328  0.0469 -1.3498 -1.0493
   18bbb     C3  529   4.472   9.444   8.417 -0.8112 -0.4960 -0.2012
   18bbb     H5  530   4.549   9.385   8.468 -0.0189  1.4905  0.9259
   18bbb     H6  531   4.410   9.374   8.358 -0.6100 -1.4014  0.6357
   18bbb     C4  532   4.387   9.495   8.533  0.3029 -0.2064  0.3182
   18bbb     H7  533   4.444   9.554   8.606 -2.2851  1.5172  0.9995
   18bbb     H8  534   4.351   9.411   8.595  1.0266  0.8419  2.1816
   18bbb     C5  535   4.458   9.470   8.107 -0.0612  0.2657 -0.2624
   18bbb     H9  536   4.413   9.570   8.103 -2.4961 -0.7572  0.7741
   18bbb    H10  537   4.370   9.419   8.148 -0.3143  1.3517  0.5969
   18bbb     C6  538   4.738   9.600   8.433  0.1724 -0.1238 -0.6006
   18bbb    H11  539   4.808   9.617   8.350  0.7146  0.6149 -0.0054
   18bbb    H12  540   4.744   9.494   8.460  3.9241  0.3372  0.7386
   18bbb     C7  541   4.257   9.573   8.491  0.1349  0.4408  0.5251
   18bbb    H13  542   4.202   9.510   8.419  0.7397  1.7377 -1.1036
   18bbb    H14  543   4.287   9.665   8.439 -3.2514 -0.5082 -3.3664
   18bbb     C8  544   4.782   9.686   8.551 -0.7326 -0.9753 -0.3163
   18bbb    H15  545   4.699   9.710   8.618 -0.8511 -0.0523 -0.7885
   18bbb    H16  546   4.810   9.787   8.520 -0.8999  0.0692  2.8548
   18bbb     C9  547   4.494   9.427   7.963  0.5655  0.1653  0.2580
   18bbb    H17  548   4.448   9.505   7.901  1.1200 -0.5375 -1.0493
   18bbb    H18  549   4.431   9.340   7.938  0.6252 -0.2979  1.6934
   18bbb     O1  550   4.181   9.582   8.616  0.3978  0.3712 -0.0277
   19bbb     N1  551   3.909   9.069   8.745  0.2064  0.0579  0.4161
   19bbb     C1  552   4.043   9.127   8.741 -0.3220 -0.1112 -0.9855
   19bbb     H1  553   4.061   9.195   8.658 -0.1570  0.1834 -0.7089
   19bbb     H2  554   4.105   9.045   8.701 -2.5372 -2.3825  0.1088
   19bbb     C2  555   3.895   8.949   8.837 -0.4820 -0.7193  0.6580
   19bbb     H3  556   3.801   8.896   8.816  0.4939 -1.4261 -2.1232
   19bbb     H4  557   3.885   8.977   8.942  0.3011 -1.0230  0.8192
   19bbb     C3  558   3.804   9.170   8.766 -0.1178  0.3762 -0.0800
   19bbb     H5  559   3.817   9.178   8.875  2.3495  0.9055 -0.3917
   19bbb     H6  560   3.706   9.120   8.759 -1.1238  2.0723  1.3382
   19bbb     C4  561   3.804   9.305   8.681 -0.7044 -0.2817  0.1677
   19bbb     H7  562   3.810   9.281   8.574  0.2161  0.5739  0.0326
   19bbb     H8  563   3.888   9.370   8.707 -0.0999 -1.3381  0.9093
   19bbb     C5  564   4.097   9.200   8.864 -0.3982 -0.3136 -0.0076
   19bbb     H9  565   4.096   9.143   8.958  1.5777 -0.3509  0.0056
   19bbb    H10  566   4.035   9.288   8.881 -1.3002 -0.7217 -1.1139
   19bbb     C6  567   4.002   8.838   8.823  0.3268  0.6589 -0.2106
   19bbb    H11  568   4.105   8.871   8.836 -0.1178  1.0196  2.9228
   19bbb    H12  569   4.003   8.794   8.723  2.0832 -3.0810  1.3508
   19bbb     C7  570   3.672   9.374   8.706  0.0547  0.7524  0.1753
   19bbb    H13  571   3.584   9.313   8.681 -1.1224  1.8369  1.6263
   19bbb    H14  572   3.668   9.456   8.633  1.4753 -0.7247 -1.6203
   19bbb     C8  573   3.973   8.731   8.928 -0.6982  0.0402  0.3695
   19bbb    H15  574   4.028   8.638   8.905  3.2325  2.4945 -0.6463
   19bbb    H16  575   3.869   8.699   8.936 -1.3652  2.3991  1.3698
   19bbb     C9  576   4.250   9.227   8.844 -0.6929  0.5374  0.2827
   19bbb    H17  577   4.294   9.284   8.926 -1.0271 -0.1148  0.9231
   19bbb    H18  578   4.279   9.285   8.756 -2.6244  2.6428  0.9939
   19bbb     O1  579   3.669   9.410   8.843  0.1727  0.4948  0.1682
   20bbb     N1  580   3.847  10.545   7.867 -0.6576 -0.1450  0.7015
   20bbb     C1  581   3.861  10.688   7.831 -0.4216  0.4490  0.1240
   20bbb     H1  582   3.767  10.745   7.835  0.0621  1.3087 -0.7325
   20bbb     H2  583   3.897  10.690   7.728  1.3581  0.9334  0.7510
   20bbb     C2  584   3.759  10.471   7.778  0.2729  0.4295  0.0521
   20bbb     H3  585   3.653  10.497   7.796  0.4235  1.6884 -0.7689
   20bbb     H4  586   3.762  10.367   7.811  0.1890  0.1092 -0.9517
   20bbb     C3  587   3.811  10.514   8.010  0.0022  0.2892  0.4491
   20bbb     H5  588   3.705  10.495   8.032 -0.8441  2.8312 -1.2127
   20bbb     H6  589   3.833  10.600   8.075  2.2892 -0.5156  0.8119
   20bbb     C4  590   3.886  10.389   8.065 -0.7444  0.3958  0.9534
   20bbb     H7  591   3.991  10.411   8.084  0.2784 -1.2187 -2.4167
   20bbb     H8  592   3.892  10.315   7.984 -1.5935  0.4769  0.8016
   20bbb     C5  593   3.966  10.770   7.920 -0.1042 -0.5177  0.6516
   20bbb     H9  594   4.037  10.700   7.966  3.6111  2.2590 -0.5556
   20bbb    H10  595   3.906  10.812   8.002 -0.1670 -0.7954  0.7464
   20bbb     C6  596   3.789  10.456   7.625  0.5102  0.1507  0.1645
   20bbb    H11  597   3.896  10.458   7.603  0.0928  1.1370 -1.9316
   20bbb    H12  598   3.748  10.551   7.591  1.4168  0.5883  0.2792
   20bbb     C7  599   3.828  10.320   8.184  0.5042 -0.2019  0.4292
   20bbb    H13  600   3.837  10.395   8.263  1.6750 -0.9175  0.9804
   20bbb    H14  601   3.880  10.229   8.217  1.1905 -0.1774 -0.5518
   20bbb     C8  602   3.713  10.325   7.574  0.3452 -0.4118 -0.2231
   20bbb    H15  603   3.759  10.237   7.621 -0.7922 -0.7151  0.3530
   20bbb    H16  604   3.730  10.295   7.470  3.7219  0.3152  0.0825
   20bbb     C9  605   4.028  10.880   7.833  0.3763 -0.3653  0.5386
   20bbb    H17  606   3.953  10.943   7.785 -1.0880 -3.0420 -0.7911
   20bbb    H18  607   4.089  10.840   7.751  1.6089 -0.2739  1.3883
   20bbb     O1  608   3.689  10.287   8.155 -0.3809 -0.0861  0.2385
   21bbb     N1  609   2.927   9.803   8.478  0.3814 -0.6608  0.1772
   21bbb     C1  610   2.917   9.941   8.532 -0.4149 -0.4762  0.7305
   21bbb     H1  611   2.979  10.014   8.477  0.2340 -0.4450  1.5014
   21bbb     H2  612   2.954   9.951   8.635  2.5574 -1.2592 -0.2117
   21bbb     C2  613   2.828   9.707   8.527  0.2287 -0.2453  0.4945
   21bbb     H3  614   2.848   9.617   8.466 -0.1560  0.1483 -0.2135
   21bbb     H4  615   2.724   9.729   8.500  0.8386 -0.2766 -2.0881
   21bbb     C3  616   3.067   9.758   8.480 -0.3447  0.3501 -0.0581
   21bbb     H5  617   3.065   9.650   8.466 -0.6738  0.5167 -1.4483
   21bbb     H6  618   3.112   9.784   8.576  0.5866 -1.4662  0.0079
   21bbb     C4  619   3.143   9.821   8.356  0.2666  0.1563 -0.7460
   21bbb     H7  620   3.250   9.833   8.377  0.0136 -0.1233  0.7863
   21bbb     H8  621   3.095   9.917   8.335 -1.3254 -0.8368 -1.7727
   21bbb     C5  622   2.775  10.011   8.504 -0.0068 -0.5027 -0.0597
   21bbb     H9  623   2.771  10.119   8.523 -0.7695 -0.5261 -0.0750
   21bbb    H10  624   2.686   9.972   8.554 -0.0083 -0.7811 -0.2784
   21bbb     C6  625   2.845   9.662   8.674 -0.3909 -0.6684  0.4927
   21bbb    H11  626   2.807   9.750   8.728 -0.9658  0.5564 -1.8403
   21bbb    H12  627   2.951   9.651   8.700 -0.3540  0.0444  0.6562
   21bbb     C7  628   3.126   9.736   8.236  0.1978  0.4298 -0.3387
   21bbb    H13  629   3.017   9.728   8.225  0.2234 -2.3968  1.0851
   21bbb    H14  630   3.170   9.636   8.249  1.8698  0.7710 -3.0679
   21bbb     C8  631   2.754   9.551   8.699 -0.0806  0.1648 -0.2314
   21bbb    H15  632   2.662   9.572   8.643 -0.6054 -0.9407  0.2073
   21bbb    H16  633   2.738   9.554   8.807  1.4940 -1.4895  0.0826
   21bbb     C9  634   2.735  10.002   8.360 -0.0774 -0.2056  0.3791
   21bbb    H17  635   2.761   9.902   8.321 -2.2761 -0.2968 -0.9028
   21bbb    H18  636   2.798  10.074   8.306 -2.0511  0.4115 -1.1905
   21bbb     O1  637   3.180   9.801   8.122  0.0400 -0.0291 -0.2779
   22bbb     N1  638   3.475  10.807   8.220 -1.0454 -0.0194 -0.0614
   22bbb     C1  639   3.521  10.709   8.324  0.3358 -0.0416  0.5522
   22bbb     H1  640   3.572  10.764   8.404 -1.6039  3.4248 -0.5301
   22bbb     H2  641   3.585  10.633   8.277 -1.9201 -1.3303 -0.5185
   22bbb     C2  642   3.587  10.881   8.158  0.2335 -0.5838  0.4497
   22bbb     H3  643   3.541  10.942   8.080  0.9477  1.0291  1.2518
   22bbb     H4  644   3.666  10.818   8.116  1.3626 -0.6422  2.5800
   22bbb     C3  645   3.376  10.763   8.122  0.2257 -0.3160 -0.0851
   22bbb     H5  646   3.351  10.842   8.050  1.7035  0.9437  0.7621
   22bbb     H6  647   3.277  10.741   8.165  0.5716 -1.2374  0.2573
   22bbb     C4  648   3.427  10.641   8.044  0.1171  0.7583 -0.2129
   22bbb     H7  649   3.491  10.571   8.099 -0.2008  0.5573 -0.1002
   22bbb     H8  650   3.498  10.680   7.970  0.2138 -0.4188 -0.7416
   22bbb     C5  651   3.402  10.643   8.400 -0.3371  0.1292 -0.2680
   22bbb     H9  652   3.449  10.568   8.464 -0.9557 -0.6152 -0.6754
   22bbb    H10  653   3.332  10.594   8.330  0.0969  0.3519 -0.8607
   22bbb     C6  654   3.648  10.979   8.251  0.1701  0.1880 -0.7336
   22bbb    H11  655   3.688  10.929   8.340  2.0438 -1.2374 -2.3167
   22bbb    H12  656   3.566  11.042   8.286  1.1828  1.8168 -1.2436
   22bbb     C7  657   3.313  10.564   7.972 -0.2018  0.2000 -0.6193
   22bbb    H13  658   3.230  10.542   8.039 -0.9083 -0.9714 -1.8565
   22bbb    H14  659   3.346  10.468   7.930 -1.9774  0.8655 -3.7295
   22bbb     C8  660   3.752  11.068   8.187 -0.0128 -0.5421  0.0089
   22bbb    H15  661   3.694  11.138   8.125 -0.2537 -1.0608 -0.3577
   22bbb    H16  662   3.826  11.022   8.121 -0.0775  1.0683 -1.2187
   22bbb     C9  663   3.328  10.744   8.487  0.4143 -0.3086 -0.1535
   22bbb    H17  664   3.273  10.813   8.422 -1.8253 -1.1643  0.7749
   22bbb    H18  665   3.398  10.815   8.532 -0.9779  2.4755 -2.2717
   22bbb     O1  666   3.277  10.638   7.855  0.3680  0.1298 -0.3049
   23bbb     N1  667   3.905  11.300   7.480  0.0415 -0.4138 -0.0642
   23bbb     C1  668   3.920  11.243   7.341  0.7003 -0.2715  0.1652
   23bbb     H1  669   3.945  11.138   7.321 -0.7089 -0.3051 -1.5322
   23bbb     H2  670   3.998  11.300   7.288 -0.8598  0.7267 -1.1114
   23bbb     C2  671   4.045  11.317   7.527  0.1227 -0.0670  0.0340
   23bbb     H3  672   4.100  11.223   7.518  1.3247  0.6593 -0.4789
   23bbb     H4  673   4.040  11.342   7.633  2.7600 -3.6344  1.0912
   23bbb     C3  674   3.828  11.214   7.574 -0.4259 -0.0807 -0.0747
   23bbb     H5  675   3.868  11.112   7.561  0.5983  0.1925  0.8689
   23bbb     H6  676   3.723  11.206   7.543 -0.1494 -1.4461 -0.7018
   23bbb     C4  677   3.810  11.261   7.724 -0.2902  0.1191  0.1630
   23bbb     H7  678   3.767  11.361   7.731 -0.2641  0.0500  1.4152
   23bbb     H8  679   3.904  11.264   7.780 -0.4937  2.4538  0.4181
   23bbb     C5  680   3.792  11.270   7.260 -0.4230  0.3976 -0.2218
   23bbb     H9  681   3.754  11.366   7.297  0.2735  0.4267  0.4393
   23bbb    H10  682   3.711  11.202   7.287  0.2460 -0.6176 -0.7358
   23bbb     C6  683   4.138  11.431   7.478  0.4267  0.0246 -0.0344
   23bbb    H11  684   4.171  11.406   7.377  2.3521 -2.1523  1.0940
   23bbb    H12  685   4.227  11.449   7.539 -0.6026 -0.4000  1.6560
   23bbb     C7  686   3.717  11.165   7.799  0.2865 -0.1960  0.8104
   23bbb    H13  687   3.728  11.194   7.905  0.4594  2.7467  0.0414
   23bbb    H14  688   3.748  11.060   7.789 -2.5961 -1.0079 -0.2185
   23bbb     C8  689   4.074  11.572   7.465 -0.2440 -0.9086  0.9894
   23bbb    H15  690   4.058  11.611   7.566 -0.5036  2.8275 -0.3863
   23bbb    H16  691   3.975  11.562   7.417  1.2593 -0.6099 -2.3519
   23bbb     C9  692   3.823  11.265   7.106 -0.7284 -0.3408 -0.3444
   23bbb    H17  693   3.857  11.163   7.087 -0.1121 -0.6549  2.1962
   23bbb    H18  694   3.899  11.339   7.082  0.5644 -1.3735  0.5227
   23bbb     O1  695   3.577  11.185   7.760 -0.2875  0.0067  0.2002
   24bbb     N1  696   4.522  10.724   7.828 -0.1168 -0.2332 -0.0172
   24bbb     C1  697   4.498  10.784   7.961  0.0780 -0.0440  0.1126
   24bbb     H1  698   4.480  10.696   8.023  0.3725  0.2045  0.5505
   24bbb     H2  699   4.413  10.853   7.958  1.3076  1.4656 -1.3403
   24bbb     C2  700   4.444  10.604   7.816 -0.1240  0.1009  0.2558
   24bbb     H3  701   4.453  10.530   7.897  0.1978 -1.6229 -1.3040
   24bbb     H4  702   4.476  10.544   7.730  0.8316 -0.3171  0.9008
   24bbb     C3  703   4.522  10.808   7.706  0.2010  0.4014 -0.6220
   24bbb     H5  704   4.595  10.888   7.722  0.7089 -0.5185  1.8076
   24bbb     H6  705   4.427  10.863   7.701 -0.0862 -0.1169 -0.9391
   24bbb     C4  706   4.552  10.740   7.572  0.0701 -0.3758 -0.0673
   24bbb     H7  707   4.469  10.675   7.540  0.5545 -0.8372 -0.3891
   24bbb     H8  708   4.646  10.684   7.581  0.3038  0.0430  0.0735
   24bbb     C5  709   4.612  10.864   8.021 -0.3300  0.0834  0.3981
   24bbb     H9  710   4.615  10.964   7.975 -1.8147 -0.3566 -0.6907
   24bbb    H10  711   4.709  10.817   8.004 -0.0758  0.7288  0.0740
   24bbb     C6  712   4.292  10.636   7.792 -0.0469  0.3449 -0.0084
   24bbb    H11  713   4.278  10.708   7.710  1.2770  0.3943 -0.1887
   24bbb    H12  714   4.226  10.669   7.874 -0.1173 -0.9664  0.4610
   24bbb     C7  715   4.550  10.841   7.454 -0.1688  0.1622 -0.6356
   24bbb    H13  716   4.631  10.914   7.470 -0.1899  0.0030  0.2080
   24bbb    H14  717   4.454  10.893   7.454 -0.0653  0.3653 -1.5689
   24bbb     C8  718   4.224  10.511   7.737  0.0833  0.8236 -0.1606
   24bbb    H15  719   4.278  10.469   7.651 -0.5149  0.8650 -0.5623
   24bbb    H16  720   4.129  10.542   7.691  1.2526  1.0225 -2.5606
   24bbb     C9  721   4.594  10.886   8.172 -0.2056  0.2801 -0.7824
   24bbb    H17  722   4.675  10.940   8.223  0.6966  0.8343 -2.7493
   24bbb    H18  723   4.606  10.782   8.206  2.2261  0.4511 -1.0312
   24bbb     O1  724   4.565  10.771   7.328 -0.0779 -0.0562 -0.2095
   25bbb     N1  725   5.047  10.949   7.434 -0.0026  0.3062 -0.0100
   25bbb     C1  726   5.146  10.902   7.330  0.2142  0.5738 -0.5689
   25bbb     H1  727   5.156  10.989   7.264  0.5363  1.1842  0.2672
   25bbb     H2  728   5.104  10.817   7.274  2.0533 -1.2430  0.7562
   25bbb     C2  729   5.009  10.853   7.532 -0.1611  0.3641  0.1379
   25bbb     H3  730   5.092  10.782   7.544 -1.3084 -0.8047  1.2301
   25bbb     H4  731   4.925  10.798   7.488 -0.4418  0.5087  0.4863
   25bbb     C3  732   4.924  11.015   7.378 -0.8612  0.4128  0.8226
   25bbb     H5  733   4.853  11.030   7.460 -0.2912 -1.2026  1.6466
   25bbb     H6  734   4.873  10.951   7.305 -0.6069  1.5663 -0.3942
   25bbb     C4  735   4.952  11.160   7.321  0.3029 -0.1372  0.6291
   25bbb     H7  736   5.046  11.166   7.265 -1.0385  3.1590 -1.4193
   25bbb     H8  737   4.971  11.230   7.403 -0.1661 -0.5935  1.1355
   25bbb     C5  738   5.285  10.860   7.387  0.0334 -0.7309 -0.0007
   25bbb     H9  739   5.274  10.764   7.439 -0.5322 -0.9659 -0.5383
   25bbb    H10  740   5.327  10.931   7.458  0.4862 -0.0400 -0.9475
   25bbb     C6  741   4.966  10.909   7.669  0.6331 -0.0838  0.3094
   25bbb    H11  742   4.891  10.988   7.651  1.0702  0.4275  0.7061
   25bbb    H12  743   5.056  10.960   7.706  0.2066  1.0933 -0.2301
   25bbb     C7  744   4.842  11.211   7.216  0.1819  0.2577  0.1788
   25bbb    H13  745   4.843  11.321   7.221  0.5990  0.3183 -1.0499
   25bbb    H14  746   4.742  11.198   7.261  1.1213 -0.9235  1.9803
   25bbb     C8  747   4.906  10.800   7.758 -0.2351 -0.4441  0.0745
   25bbb    H15  748   4.832  10.735   7.709 -0.2540 -1.0215  0.8516
   25bbb    H16  749   4.854  10.834   7.848 -1.2147  1.6247 -1.2413
   25bbb     C9  750   5.377  10.827   7.272 -0.5851 -0.1052  0.4280
   25bbb    H17  751   5.418  10.919   7.230  0.3278 -0.2416  1.0138
   25bbb    H18  752   5.322  10.787   7.185 -1.8602 -0.9344  1.5931
   25bbb     O1  753   4.851  11.160   7.084 -0.4832  0.1000 -0.4080
   26bbb     N1  754   3.082   9.291   8.270  0.1727 -0.5265 -0.4266
   26bbb     C1  755   3.184   9.259   8.375 -0.8541 -0.4054 -0.8163
   26bbb     H1  756   3.284   9.249   8.330 -0.5787  1.2084 -0.6031
   26bbb     H2  757   3.158   9.163   8.421  0.6093 -0.6255 -0.4020
   26bbb     C2  758   2.947   9.330   8.318  1.2257  0.4811  0.0206
   26bbb     H3  759   2.944   9.398   8.404  0.9070  0.1485  0.2759
   26bbb     H4  760   2.904   9.236   8.356 -0.9415  1.9916  1.4113
   26bbb     C3  761   3.077   9.189   8.162  0.1253 -0.6233 -0.7280
   26bbb     H5  762   3.181   9.167   8.136  0.6427  0.4109  0.4622
   26bbb     H6  763   3.032   9.234   8.072 -1.0731 -2.1851 -0.9361
   26bbb     C4  764   3.001   9.064   8.186  0.5172  0.4011  0.0974
   26bbb     H7  765   2.904   9.082   8.234 -0.3700 -2.1402 -0.6694
   26bbb     H8  766   3.068   8.998   8.243  3.0132  2.3312 -0.5311
   26bbb     C5  767   3.197   9.368   8.482  0.3265  1.2001 -0.4489
   26bbb     H9  768   3.099   9.367   8.533  1.2129  0.6052  1.2907
   26bbb    H10  769   3.204   9.462   8.426  1.8891  1.8113  0.7512
   26bbb     C6  770   2.856   9.399   8.211 -0.5029 -0.7048  0.8531
   26bbb    H11  771   2.857   9.348   8.114 -1.0458  1.1181 -0.1170
   26bbb    H12  772   2.904   9.492   8.179 -2.7627  0.5904  1.2154
   26bbb     C7  773   2.975   9.000   8.045  0.2483 -0.3185 -0.0237
   26bbb    H13  774   2.973   8.891   8.050 -1.4020 -0.2687  0.7937
   26bbb    H14  775   3.060   9.023   7.979 -0.8073  1.4064 -0.8129
   26bbb     C8  776   2.713   9.440   8.250  0.0117 -0.2478  0.0585
   26bbb    H15  777   2.722   9.474   8.353  0.5730  0.5477 -0.2442
   26bbb    H16  778   2.660   9.344   8.251 -0.1007 -0.1811  0.4409
   26bbb     C9  779   3.312   9.353   8.590  0.8482 -0.8292  0.7285
   26bbb    H17  780   3.408   9.360   8.538  1.2182 -1.5634  1.3026
   26bbb    H18  781   3.312   9.257   8.642  0.9764 -1.3323 -0.1910
   26bbb     O1  782   2.851   9.049   7.978 -0.8982 -0.0446 -0.9683
   27bbb     N1  783   3.378   9.162   7.298 -0.8307 -0.6817 -0.0928
   27bbb     C1  784   3.522   9.133   7.321 -0.0176  0.2529 -0.5746
   27bbb     H1  785   3.565   9.196   7.400  0.1725 -2.3776  1.5221
   27bbb     H2  786   3.575   9.147   7.226 -0.5922 -2.9520 -1.4219
   27bbb     C2  787   3.348   9.302   7.266 -0.7487  0.7037 -0.6055
   27bbb     H3  788   3.410   9.369   7.327  0.0121  1.6762 -2.3886
   27bbb     H4  789   3.245   9.320   7.300 -1.2168 -1.7411 -0.6524
   27bbb     C3  790   3.304   9.053   7.232 -0.8647 -0.0900 -0.1978
   27bbb     H5  791   3.327   8.952   7.269 -0.3350  0.1552  0.1462
   27bbb     H6  792   3.337   9.055   7.127  3.5535  1.2562  1.0877
   27bbb     C4  793   3.147   9.072   7.238  0.1222  0.0447 -0.3132
   27bbb     H7  794   3.122   9.170   7.197 -1.1168 -0.0313  0.2146
   27bbb     H8  795   3.110   9.059   7.341  1.8751  0.2070  0.3510
   27bbb     C5  796   3.563   8.989   7.365 -0.3323 -0.0021  0.3021
   27bbb     H9  797   3.537   8.909   7.295 -0.6471 -0.3667  0.8401
   27bbb    H10  798   3.511   8.954   7.454 -0.9405 -3.2279 -1.2615
   27bbb     C6  799   3.360   9.344   7.115 -0.2550  0.1122  0.5907
   27bbb    H11  800   3.297   9.434   7.108  1.1496  1.0093 -0.7498
   27bbb    H12  801   3.317   9.268   7.048  0.1729  1.2378 -0.9701
   27bbb     C7  802   3.069   8.964   7.156 -0.4745 -0.0621  0.5617
   27bbb    H13  803   3.106   8.869   7.196  0.2039 -0.5051 -1.1143
   27bbb    H14  804   3.100   8.969   7.051  0.7462  0.5737  0.9439
   27bbb     C8  805   3.506   9.377   7.062  0.6204 -0.3386 -0.1580
   27bbb    H15  806   3.561   9.287   7.091  0.6260  0.0924  1.2203
   27bbb    H16  807   3.545   9.464   7.116  1.1217  0.5642 -1.9240
   27bbb     C9  808   3.710   8.970   7.400  0.7990  0.0744  0.2400
   27bbb    H17  809   3.750   9.042   7.472  1.8888 -0.5756  0.3054
   27bbb    H18  810   3.767   8.989   7.308  2.5025  1.3569  1.5271
   27bbb     O1  811   2.928   8.980   7.165 -0.2608 -0.3028 -0.1905
   28bbb     N1  812   3.041  11.128   8.078 -0.6054 -0.2568 -0.0556
   28bbb     C1  813   3.122  11.145   8.201 -0.0966  0.4019  0.0257
   28bbb     H1  814   3.098  11.061   8.268 -1.3131  3.0162  3.0331
   28bbb     H2  815   3.095  11.236   8.256 -0.5315  0.8996 -1.0029
   28bbb     C2  816   3.039  11.245   7.988 -0.3527 -0.5145  0.5228
   28bbb     H3  817   3.118  11.239   7.912 -2.4507  2.9876 -2.0789
   28bbb     H4  818   3.058  11.339   8.042 -1.0336  0.2065 -0.4694
   28bbb     C3  819   3.052  10.992   8.012 -0.7076 -0.2133  0.2745
   28bbb     H5  820   3.138  10.932   8.043  0.5555  1.4026 -0.0664
   28bbb     H6  821   3.050  11.005   7.903 -0.7399  0.2398  0.3250
   28bbb     C4  822   2.936  10.908   8.047  0.6030  0.0864 -0.1093
   28bbb     H7  823   2.847  10.966   8.020  0.2683 -0.4954 -0.2732
   28bbb     H8  824   2.927  10.899   8.156 -0.3905  2.0618 -0.0106
   28bbb     C5  825   3.271  11.156   8.173 -0.0427 -0.7499 -0.4371
   28bbb     H9  826   3.271  11.207   8.076 -0.5008 -1.7193 -0.9560
   28bbb    H10  827   3.319  11.061   8.144 -0.6087 -1.0284 -0.4788
   28bbb     C6  828   2.909  11.276   7.912 -0.9349  0.3623 -0.2802
   28bbb    H11  829   2.833  11.298   7.989 -0.0200 -0.3929  0.8535
   28bbb    H12  830   2.878  11.186   7.858  0.1922 -1.2278  1.6610
   28bbb     C7  831   2.947  10.771   7.974  0.6659 -0.1340  0.7861
   28bbb    H13  832   2.859  10.712   8.002 -1.0801  0.7724 -2.5066
   28bbb    H14  833   3.034  10.710   8.003  0.2239 -0.1818  2.0444
   28bbb     C8  834   2.928  11.385   7.809 -0.8971  0.1681 -0.2458
   28bbb    H15  835   3.010  11.448   7.845 -0.0158  0.6560 -3.0082
   28bbb    H16  836   2.844  11.452   7.785 -1.4336 -0.7158 -0.8402
   28bbb     C9  837   3.350  11.236   8.287  0.4832 -0.0163 -0.1025
   28bbb    H17  838   3.321  11.339   8.311  1.8261  0.3663 -0.0872
   28bbb    H18  839   3.456  11.240   8.261  0.5107 -2.1308 -0.4276
   28bbb     O1  840   2.947  10.791   7.830  0.3309  0.2368 -0.6484
   29bbb     N1  841   2.776  11.023   7.035 -0.4325 -0.3549 -0.3948
   29bbb     C1  842   2.777  10.873   7.022 -0.2246  0.5376 -0.4332
   29bbb     H1  843   2.783  10.832   6.920  2.1658  1.3618 -0.6620
   29bbb     H2  844   2.688  10.819   7.057  1.3117 -1.0059  1.2374
   29bbb     C2  845   2.721  11.095   6.914 -0.2873  0.3898  0.0649
   29bbb     H3  846   2.613  11.075   6.913 -0.2491  0.2252 -0.7761
   29bbb     H4  847   2.757  11.052   6.820 -0.2410 -1.4149  0.8824
   29bbb     C3  848   2.742  11.074   7.174 -0.7433  0.6182  0.0324
   29bbb     H5  849   2.797  11.168   7.186  0.1302  0.1672 -0.3509
   29bbb     H6  850   2.794  11.013   7.248 -0.8715 -0.4354 -0.7395
   29bbb     C4  851   2.590  11.092   7.198  0.3040 -0.1763  0.2683
   29bbb     H7  852   2.554  11.173   7.132 -0.1445 -0.4407  0.1840
   29bbb     H8  853   2.581  11.132   7.300  1.9905 -0.0845  0.3877
   29bbb     C5  854   2.909  10.820   7.093  0.9361  0.5093  0.4025
   29bbb     H9  855   2.927  10.866   7.191 -0.0189 -0.8937  1.2649
   29bbb    H10  856   2.995  10.839   7.027 -0.1080  3.2266 -0.2643
   29bbb     C6  857   2.743  11.245   6.915  0.9029 -0.9045 -0.3261
   29bbb    H11  858   2.850  11.261   6.934  0.5776  1.9235 -0.7181
   29bbb    H12  859   2.687  11.291   6.998  1.7552 -0.7304  0.1601
   29bbb     C7  860   2.503  10.967   7.184  0.0585 -0.1486  0.0481
   29bbb    H13  861   2.528  10.923   7.087  2.1295 -0.3859  0.6806
   29bbb    H14  862   2.394  10.983   7.182 -0.0575 -1.0040 -0.6547
   29bbb     C8  863   2.715  11.309   6.775  0.3213  0.3882  0.6366
   29bbb    H15  864   2.610  11.281   6.760  1.0568 -1.7937 -0.5768
   29bbb    H16  865   2.777  11.263   6.698  1.2198  1.0753  0.9362
   29bbb     C9  866   2.906  10.670   7.126 -0.1675  0.3827  0.2502
   29bbb    H17  867   2.811  10.649   7.176 -0.0022 -1.2698 -0.1042
   29bbb    H18  868   2.984  10.645   7.200 -1.1210 -1.3915  0.6883
   29bbb     O1  869   2.544  10.878   7.294 -0.3639 -0.1318 -0.6422
   30bbb     N1  870   4.848  10.374   7.784 -0.2769  0.1801  0.1886
   30bbb     C1  871   4.806  10.469   7.898  0.1083  0.7080 -0.1861
   30bbb     H1  872   4.697  10.484   7.902 -0.3173 -0.7997 -4.2693
   30bbb     H2  873   4.848  10.569   7.883 -4.4033  2.7633 -0.0755
   30bbb     C2  874   4.985  10.382   7.740  0.0286 -0.0172 -0.1527
   30bbb     H3  875   5.047  10.302   7.783 -1.3461 -0.3433  1.2477
   30bbb     H4  876   5.024  10.474   7.786  2.7515 -0.4817 -1.3663
   30bbb     C3  877   4.799  10.236   7.790  0.0642  0.0199 -0.2182
   30bbb     H5  878   4.848  10.174   7.867 -2.3093 -1.3824  0.2207
   30bbb     H6  879   4.814  10.181   7.696  0.4027  1.5607 -1.0804
   30bbb     C4  880   4.647  10.233   7.807 -0.2398  0.2883 -0.5156
   30bbb     H7  881   4.611  10.267   7.905 -2.2346 -0.1877 -1.0563
   30bbb     H8  882   4.626  10.126   7.810  0.3574  0.1430 -1.3860
   30bbb     C5  883   4.852  10.428   8.038  0.1931 -0.4204  0.3960
   30bbb     H9  884   4.960  10.443   8.044  0.3787 -1.2743 -0.5573
   30bbb    H10  885   4.839  10.320   8.053  1.5147 -0.3043  2.5197
   30bbb     C6  886   5.002  10.376   7.585 -0.5049  0.0863  0.2359
   30bbb    H11  887   4.926  10.439   7.536 -0.7331 -1.0007 -0.8245
   30bbb    H12  888   4.970  10.275   7.559 -0.5471 -0.2379  1.5248
   30bbb     C7  889   4.567  10.296   7.694 -0.7072  0.2556 -0.6131
   30bbb    H13  890   4.621  10.389   7.669  0.8245 -0.7153 -1.0066
   30bbb    H14  891   4.469  10.322   7.734 -0.0864  0.3954  0.8354
   30bbb     C8  892   5.149  10.408   7.537 -0.4704  0.7530  0.4223
   30bbb    H15  893   5.214  10.346   7.600  1.0359  1.5748 -0.3046
   30bbb    H16  894   5.180  10.511   7.555  0.4017  0.3152  1.4814
   30bbb     C9  895   4.768  10.499   8.149 -0.3686 -0.6587 -0.1834
   30bbb    H17  896   4.660  10.480   8.134 -0.8659  0.7969  1.4395
   30bbb    H18  897   4.785  10.607   8.141 -1.3152 -0.3421  1.6433
   30bbb     O1  898   4.563  10.203   7.582 -0.2536 -0.0981 -0.9305
   31bbb     N1  899   4.779  10.644   6.718 -1.0564  0.5985  0.8827
   31bbb     C1  900   4.871  10.650   6.603  0.3880 -0.9075  0.2201
   31bbb     H1  901   4.931  10.558   6.601 -0.2537 -1.3323  0.6189
   31bbb     H2  902   4.943  10.732   6.620 -1.7246  0.7610  1.4792
   31bbb     C2  903   4.661  10.554   6.719  0.2497 -0.6545 -0.1795
   31bbb     H3  904   4.596  10.589   6.638  1.5437 -0.0802 -0.9894
   31bbb     H4  905   4.602  10.575   6.809  1.5340  0.5500  0.3994
   31bbb     C3  906   4.861  10.616   6.843  0.3906  0.1456 -0.4673
   31bbb     H5  907   4.902  10.514   6.851  0.3769  0.1133 -0.8032
   31bbb     H6  908   4.799  10.631   6.932 -1.5816  3.7038 -2.3526
   31bbb     C4  909   4.979  10.709   6.870 -0.4655 -0.1935  0.3698
   31bbb     H7  910   4.947  10.810   6.843  0.1011  0.1705  1.0499
   31bbb     H8  911   5.063  10.689   6.802 -0.8916 -2.7215  0.5531
   31bbb     C5  912   4.807  10.681   6.475 -0.3542 -0.1108  1.1136
   31bbb     H9  913   4.731  10.606   6.451  2.1096 -1.6103 -2.4939
   31bbb    H10  914   4.885  10.671   6.398  0.5300 -0.4674  2.0366
   31bbb     C6  915   4.688  10.408   6.711 -0.6949 -0.1078  0.0852
   31bbb    H11  916   4.771  10.368   6.772  1.9188  4.6610 -0.0632
   31bbb    H12  917   4.725  10.399   6.608  0.6968 -0.1069  0.5654
   31bbb     C7  918   5.009  10.708   7.022  0.5776  0.6010  0.0226
   31bbb    H13  919   4.934  10.773   7.067 -0.7302 -1.0740  0.3303
   31bbb    H14  920   5.104  10.753   7.052  1.3486 -0.6176 -0.5260
   31bbb     C8  921   4.567  10.318   6.729  0.2528  0.0354 -0.3920
   31bbb    H15  922   4.524  10.325   6.830 -0.7020 -0.6768 -0.7383
   31bbb    H16  923   4.603  10.216   6.710 -0.0217 -0.4949  1.8168
   31bbb     C9  924   4.763  10.828   6.468 -0.4417  0.1665  0.1828
   31bbb    H17  925   4.853  10.888   6.483  1.9462 -3.5798  1.5672
   31bbb    H18  926   4.701  10.855   6.554 -0.2077 -0.0093  0.4044
   31bbb     O1  927   4.987  10.580   7.086  0.1220  0.0831 -0.7020
   32bbb     N1  928   3.997   9.835   6.117 -0.2708 -0.1440 -0.2772
   32bbb     C1  929   4.108   9.905   6.049 -0.1978 -0.5045 -0.0843
   32bbb     H1  930   4.081  10.006   6.015 -1.4585 -0.6976  0.2820
   32bbb     H2  931   4.119   9.855   5.952 -0.6644 -1.7150  0.4772
   32bbb     C2  932   3.871   9.837   6.038  0.4886 -0.0050 -0.3291
   32bbb     H3  933   3.804   9.761   6.081  0.6607 -1.8657 -3.2020
   32bbb     H4  934   3.885   9.809   5.933  0.1899 -1.2243 -0.0511
   32bbb     C3  935   4.032   9.711   6.179  0.2395  0.4222  0.1134
   32bbb     H5  936   4.138   9.707   6.204  0.9305  0.9150 -2.5447
   32bbb     H6  937   4.024   9.636   6.099  1.6626  0.2714  0.1041
   32bbb     C4  938   3.933   9.683   6.298 -0.9123 -0.0521  0.6567
   32bbb     H7  939   3.837   9.732   6.278 -0.7617 -0.8630 -2.2962
   32bbb     H8  940   3.977   9.724   6.390 -1.3941  0.7061  0.5506
   32bbb     C5  941   4.246   9.909   6.116  0.8198 -0.0365  0.4521
   32bbb     H9  942   4.319   9.961   6.053 -1.0836  1.0314 -0.9198
   32bbb    H10  943   4.281   9.805   6.115 -0.4203 -0.4557 -0.5384
   32bbb     C6  944   3.802   9.982   6.029  0.2609  0.4502  0.0551
   32bbb    H11  945   3.883  10.049   5.996  2.0010 -0.2583  2.7425
   32bbb    H12  946   3.766  10.011   6.128 -0.4870  1.5264 -0.5104
   32bbb     C7  947   3.933   9.528   6.317  0.6874 -0.6721 -2.1347
   32bbb    H13  948   4.027   9.493   6.362 -0.3946  0.3375  1.0467
   32bbb    H14  949   3.909   9.470   6.227 -1.0673  0.2803 -2.3056
   32bbb     C8  950   3.681   9.982   5.932  0.3042 -0.2763 -0.4570
   32bbb    H15  951   3.602   9.920   5.977  0.7740  1.6024  3.0451
   32bbb    H16  952   3.715   9.926   5.843  1.0351 -1.1236  0.3425
   32bbb     C9  953   4.249   9.969   6.264  0.5885 -0.5532  0.5902
   32bbb    H17  954   4.176   9.905   6.315 -2.1245 -0.5089 -3.0157
   32bbb    H18  955   4.207  10.070   6.272 -0.1202 -0.7722 -0.2526
   32bbb     O1  956   3.823   9.496   6.407 -0.1824  0.5190 -0.4400
   33bbb     N1  957   3.798   8.436   6.973  0.2813  0.1287  0.2463
   33bbb     C1  958   3.773   8.299   7.008 -0.0776  0.1063  0.0460
   33bbb     H1  959   3.688   8.267   6.946 -0.0919  0.7809 -0.2882
   33bbb     H2  960   3.749   8.291   7.115 -1.0440 -1.3665 -0.2545
   33bbb     C2  961   3.841   8.463   6.834  0.6199  0.0805 -0.4697
   33bbb     H3  962   3.938   8.412   6.822  0.5132 -0.4166  0.7116
   33bbb     H4  963   3.860   8.570   6.822 -2.0441  0.5368 -1.0065
   33bbb     C3  964   3.704   8.539   7.036  0.2055 -0.0504 -0.3554
   33bbb     H5  965   3.700   8.523   7.144  0.7887  1.6086 -0.0571
   33bbb     H6  966   3.604   8.534   6.991  0.0617 -0.6781  0.0286
   33bbb     C4  967   3.752   8.684   7.020  1.0360  0.5986  0.1014
   33bbb     H7  968   3.738   8.710   6.915 -2.6290 -0.7200  0.1782
   33bbb     H8  969   3.859   8.686   7.044  0.6229  0.8320  2.0496
   33bbb     C5  970   3.892   8.200   6.989  0.4441 -0.6796  0.0409
   33bbb     H9  971   3.915   8.188   6.882 -1.3754  0.1594 -0.4545
   33bbb    H10  972   3.855   8.103   7.026 -1.7702 -0.3744 -1.2911
   33bbb     C6  973   3.736   8.423   6.731 -0.0571 -0.3276 -0.1328
   33bbb    H11  974   3.632   8.448   6.750 -1.0744 -3.2532 -1.4814
   33bbb    H12  975   3.737   8.313   6.728 -1.0369 -0.3425 -0.1380
   33bbb     C7  976   3.668   8.796   7.085 -0.8642  0.0460 -0.3291
   33bbb    H13  977   3.685   8.775   7.192 -2.2426  1.7171  0.2351
   33bbb    H14  978   3.560   8.786   7.068 -0.8246  0.5791 -0.9078
   33bbb     C8  979   3.777   8.468   6.586 -0.4261 -0.3026  0.1701
   33bbb    H15  980   3.851   8.402   6.541  0.2104 -0.1984  1.0566
   33bbb    H16  981   3.819   8.569   6.597 -1.3539 -0.1407  2.5316
   33bbb     C9  982   4.025   8.246   7.062  0.8682  0.1055  0.1171
   33bbb    H17  983   4.004   8.274   7.166  0.2586 -0.1589  0.0634
   33bbb    H18  984   4.050   8.341   7.013 -1.6744  0.9215  0.3507
   33bbb     O1  985   3.711   8.924   7.052 -0.4458  0.1788 -0.0727
   34bbb     N1  986   4.501   8.648   8.297 -0.3553 -0.2086 -0.1313
   34bbb     C1  987   4.428   8.778   8.288 -0.0857 -0.3311 -0.5549
   34bbb     H1  988   4.326   8.768   8.328  0.9373  0.0653  2.2727
   34bbb     H2  989   4.420   8.816   8.185 -2.2728  1.4122  0.2288
   34bbb     C2  990   4.435   8.523   8.272 -0.8651  0.2422  0.0101
   34bbb     H3  991   4.363   8.504   8.352 -0.9942  1.5554  0.2119
   34bbb     H4  992   4.509   8.442   8.280  1.8246  2.7579  1.5156
   34bbb     C3  993   4.641   8.658   8.245 -0.2338 -0.1813  0.1369
   34bbb     H5  994   4.681   8.756   8.275  2.0749 -0.6557 -1.2904
   34bbb     H6  995   4.654   8.647   8.137  0.0933 -0.2909  0.1905
   34bbb     C4  996   4.736   8.559   8.315 -0.0179  0.6179  0.0314
   34bbb     H7  997   4.835   8.570   8.268  0.3036 -1.6333  0.1153
   34bbb     H8  998   4.701   8.460   8.282 -0.8886  0.7867  0.4556
   34bbb     C5  999   4.497   8.886   8.385 -0.0515  0.4037 -0.0722
   34bbb     H9 1000   4.563   8.948   8.323  0.0239  1.2185  0.8125
   34bbb    H10 1001   4.549   8.839   8.469 -1.0454 -1.3302 -0.4083
   34bbb     C6 1002   4.364   8.501   8.137  0.0249  0.0309  0.1974
   34bbb    H11 1003   4.436   8.519   8.056  0.9279  1.7496  1.3222
   34bbb    H12 1004   4.285   8.577   8.129 -2.1735 -1.8532  2.9404
   34bbb     C7 1005   4.733   8.570   8.464  0.3308 -0.2205 -0.9188
   34bbb    H13 1006   4.740   8.466   8.499  0.1815 -0.7998 -2.5885
   34bbb    H14 1007   4.640   8.609   8.508  0.1966 -0.6179 -0.8427
   34bbb     C8 1008   4.302   8.364   8.122 -0.4023  0.5763  0.4384
   34bbb    H15 1009   4.376   8.284   8.138 -1.7496 -0.8606 -0.3957
   34bbb    H16 1010   4.282   8.356   8.015  1.6104 -1.4676  0.1632
   34bbb     C9 1011   4.385   8.967   8.454 -0.1463  0.3036  0.6373
   34bbb    H17 1012   4.417   9.048   8.521  3.2026 -0.6078  0.2140
   34bbb    H18 1013   4.319   8.901   8.511 -1.1584 -1.1089 -2.0740
   34bbb     O1 1014   4.849   8.639   8.501  0.4464 -0.4538 -0.6460
   35bbb     N1 1015   4.976   9.203   9.153  0.2468  0.2113  0.2360
   35bbb     C1 1016   5.027   9.332   9.204 -0.4304 -0.7554  0.9291
   35bbb     H1 1017   4.949   9.390   9.256 -0.0458  0.4532  0.1813
   35bbb     H2 1018   5.061   9.400   9.124 -2.1312 -0.1058  0.7372
   35bbb     C2 1019   4.930   9.108   9.256 -0.0097  0.7740  0.5634
   35bbb     H3 1020   4.848   9.154   9.312 -1.8910 -1.3992 -0.3223
   35bbb     H4 1021   5.020   9.091   9.316  1.5287 -2.2709 -2.3781
   35bbb     C3 1022   4.909   9.213   9.023 -1.1798  0.0252 -0.2227
   35bbb     H5 1023   4.896   9.113   8.980  1.0475  1.2009 -3.8685
   35bbb     H6 1024   4.971   9.267   8.950 -0.2914 -1.2657 -0.4317
   35bbb     C4 1025   4.767   9.278   9.020 -0.6897  0.2209 -0.2139
   35bbb     H7 1026   4.773   9.369   9.081  1.2715  0.0391 -0.1211
   35bbb     H8 1027   4.690   9.210   9.058 -0.8837  0.8711  0.5677
   35bbb     C5 1028   5.153   9.318   9.292  0.5656 -0.3134  0.7995
   35bbb     H9 1029   5.128   9.273   9.389 -0.4106  1.4714  1.3959
   35bbb    H10 1030   5.194   9.418   9.311 -0.0667 -0.3038  2.1317
   35bbb     C6 1031   4.880   8.970   9.203  0.5431  0.4392  0.2347
   35bbb    H11 1032   4.794   8.984   9.137  0.3935 -0.9451  0.1121
   35bbb    H12 1033   4.853   8.909   9.291 -0.5033  0.4555 -0.0652
   35bbb     C7 1034   4.739   9.339   8.878 -0.2543  0.3535 -0.0329
   35bbb    H13 1035   4.814   9.416   8.856  1.4509 -0.8015  1.5301
   35bbb    H14 1036   4.636   9.376   8.873 -0.7468 -1.1033 -0.7656
   35bbb     C8 1037   4.992   8.885   9.134 -0.2462 -0.0388 -0.2742
   35bbb    H15 1038   5.043   8.856   9.227 -3.1060  0.2947  1.4770
   35bbb    H16 1039   5.054   8.950   9.071 -0.1612 -0.3434 -0.5028
   35bbb     C9 1040   5.264   9.233   9.228  0.0654 -0.5733 -0.0940
   35bbb    H17 1041   5.277   9.265   9.124 -1.6682  0.7808  0.0921
   35bbb    H18 1042   5.223   9.131   9.227 -0.5121 -0.4673  4.1130
   35bbb     O1 1043   4.756   9.238   8.776 -0.2805  0.3257  0.2760
   36bbb     N1 1044   4.463   8.043   6.765 -0.2867 -0.1307  0.6438
   36bbb     C1 1045   4.575   7.972   6.836 -0.1464 -0.6252  0.3430
   36bbb     H1 1046   4.668   8.030   6.829 -0.2947 -0.4746 -0.4147
   36bbb     H2 1047   4.597   7.872   6.796 -1.8834 -0.9596  0.1779
   36bbb     C2 1048   4.486   8.050   6.618 -0.5013  0.1075 -0.2203
   36bbb     H3 1049   4.578   8.103   6.593 -0.7104  0.5461 -0.0524
   36bbb     H4 1050   4.398   8.096   6.572 -3.7111 -4.3659  1.0117
   36bbb     C3 1051   4.425   8.171   6.825  0.3238 -0.2899 -0.3613
   36bbb     H5 1052   4.371   8.168   6.920 -0.6068  0.2953 -0.8719
   36bbb     H6 1053   4.347   8.208   6.758 -1.1692 -1.9635  0.4097
   36bbb     C4 1054   4.548   8.267   6.835 -0.3850 -0.1936  0.0536
   36bbb     H7 1055   4.612   8.255   6.746 -0.4743  0.2541 -0.0700
   36bbb     H8 1056   4.617   8.225   6.909 -0.1516  0.3455  0.1448
   36bbb     C5 1057   4.545   7.959   6.979  0.6710  0.1491  0.2217
   36bbb     H9 1058   4.438   7.939   6.993  0.4023  0.4463 -1.3775
   36bbb    H10 1059   4.562   8.049   7.039 -1.1477  0.9789 -0.4839
   36bbb     C6 1060   4.502   7.913   6.549 -0.3519 -0.3487  0.4869
   36bbb    H11 1061   4.599   7.866   6.571  1.0875  2.5716  0.6280
   36bbb    H12 1062   4.505   7.925   6.440 -2.2130 -1.8839  0.2425
   36bbb     C7 1063   4.516   8.413   6.871  0.6451  1.1838  0.2069
   36bbb    H13 1064   4.471   8.461   6.784 -0.2250 -0.2148 -0.1324
   36bbb    H14 1065   4.606   8.466   6.904  1.2813  0.0372  0.3455
   36bbb     C8 1066   4.390   7.804   6.584 -0.0779 -0.3053 -0.0422
   36bbb    H15 1067   4.342   7.839   6.677  0.8551  0.5166  0.1377
   36bbb    H16 1068   4.437   7.709   6.611 -1.2946 -1.5961 -2.2895
   36bbb     C9 1069   4.630   7.849   7.051  0.2686  0.6096  0.4211
   36bbb    H17 1070   4.735   7.868   7.027  0.2300  0.4602  0.1295
   36bbb    H18 1071   4.607   7.751   7.007 -0.6917  1.3213 -0.6954
   36bbb     O1 1072   4.428   8.417   6.986  0.5674  0.0691 -0.3835
   37bbb     N1 1073   3.519   9.002   6.426 -0.2512  0.2598  0.0698
   37bbb     C1 1074   3.472   9.082   6.538  0.2794  0.0336 -0.3523
   37bbb     H1 1075   3.552   9.125   6.599 -0.7286  0.8686  0.3961
   37bbb     H2 1076   3.409   9.014   6.597 -0.0803  1.6657  1.1580
   37bbb     C2 1077   3.622   9.065   6.338 -0.7897  0.1392 -0.0631
   37bbb     H3 1078   3.717   9.086   6.388  0.3022 -2.9927 -0.7097
   37bbb     H4 1079   3.586   9.162   6.301 -0.7409 -0.1894 -1.0062
   37bbb     C3 1080   3.553   8.865   6.465 -0.1025 -0.0827 -0.6855
   37bbb     H5 1081   3.579   8.799   6.381  1.7851 -0.4277  0.1400
   37bbb     H6 1082   3.468   8.826   6.522 -0.4118  1.3528 -0.1635
   37bbb     C4 1083   3.664   8.844   6.572 -0.0795  0.2626  0.1294
   37bbb     H7 1084   3.648   8.747   6.622 -0.3756 -1.2929 -2.8819
   37bbb     H8 1085   3.661   8.918   6.653 -0.6679  1.6357 -1.1189
   37bbb     C5 1086   3.386   9.209   6.490  0.4036  0.6266 -0.7110
   37bbb     H9 1087   3.448   9.276   6.428  4.0086 -0.8204  1.1340
   37bbb    H10 1088   3.363   9.269   6.579  1.3730  0.0899 -0.0864
   37bbb     C6 1089   3.655   8.984   6.200  0.3274 -0.7260 -0.3341
   37bbb    H11 1090   3.565   8.996   6.138 -0.7191  1.0778  1.4531
   37bbb    H12 1091   3.668   8.877   6.215  1.4426 -0.7444 -1.3945
   37bbb     C7 1092   3.806   8.836   6.513  0.8445  0.5494  0.2524
   37bbb    H13 1093   3.833   8.935   6.475  0.8299  0.5681  0.2882
   37bbb    H14 1094   3.797   8.773   6.423 -0.9460 -0.1435  0.9068
   37bbb     C8 1095   3.779   9.031   6.118  0.4144 -0.1033  0.6754
   37bbb    H15 1096   3.763   9.128   6.069  0.8667 -0.9854 -1.2634
   37bbb    H16 1097   3.798   8.966   6.032  2.1638  0.9051  0.2782
   37bbb     C9 1098   3.264   9.162   6.401 -0.1939 -0.7788  0.1147
   37bbb    H17 1099   3.225   9.073   6.452  1.9357 -1.9433 -0.2241
   37bbb    H18 1100   3.309   9.130   6.306  2.6425 -2.7129  2.0195
   37bbb     O1 1101   3.899   8.789   6.612 -0.3752  0.3361 -0.5154
   38bbb     N1 1102   5.270   9.388   8.640 -0.3193 -0.3846 -0.6255
   38bbb     C1 1103   5.222   9.313   8.760 -0.1879  0.1121  0.0945
   38bbb     H1 1104   5.150   9.241   8.719  0.6257 -0.9830  0.5645
   38bbb     H2 1105   5.169   9.376   8.831 -0.8844  1.7458 -1.8280
   38bbb     C2 1106   5.404   9.454   8.638 -0.3047  0.1144 -0.1785
   38bbb     H3 1107   5.489   9.394   8.673  0.5345  1.6203  0.4644
   38bbb     H4 1108   5.399   9.543   8.703 -0.3364 -0.4943  0.6612
   38bbb     C3 1109   5.156   9.462   8.573  0.2958  0.5904 -0.4044
   38bbb     H5 1110   5.066   9.403   8.590 -0.5626  2.1368  0.5066
   38bbb     H6 1111   5.165   9.452   8.464  0.3380  1.4974 -0.4899
   38bbb     C4 1112   5.131   9.609   8.624  0.3140 -0.0521  0.0595
   38bbb     H7 1113   5.224   9.664   8.603  0.0312  0.8683  1.2157
   38bbb     H8 1114   5.111   9.607   8.731 -0.5668 -1.5483 -0.1240
   38bbb     C5 1115   5.329   9.230   8.833  0.0021 -1.0736  0.1508
   38bbb     H9 1116   5.376   9.287   8.915 -0.8664 -0.5801  0.3035
   38bbb    H10 1117   5.406   9.193   8.765  1.2220  1.3575  0.1284
   38bbb     C6 1118   5.448   9.505   8.504  0.5553 -0.2781  0.0134
   38bbb    H11 1119   5.555   9.529   8.513  0.2334  1.0347  0.3909
   38bbb    H12 1120   5.412   9.604   8.473 -2.7181 -1.6653 -0.8289
   38bbb     C7 1121   5.013   9.674   8.559 -0.3833  0.0214 -0.3370
   38bbb    H13 1122   5.031   9.651   8.453  5.0559 -1.8902  0.8386
   38bbb    H14 1123   5.033   9.782   8.564  2.1202 -0.4389  0.1823
   38bbb     C8 1124   5.448   9.408   8.385  0.6822 -0.2747  0.7654
   38bbb    H15 1125   5.344   9.373   8.380 -0.2125  2.4500 -0.3805
   38bbb    H16 1126   5.503   9.318   8.415  0.4001 -0.1364  1.7275
   38bbb     C9 1127   5.262   9.105   8.886 -0.5385  0.1295 -0.3351
   38bbb    H17 1128   5.196   9.062   8.809 -0.7319 -2.0442  0.9984
   38bbb    H18 1129   5.202   9.123   8.975 -0.1723  1.0487 -0.2708
   38bbb     O1 1130   4.894   9.628   8.611  0.1560 -0.2540  0.3412
   39bbb     N1 1131   4.829   9.231   7.593 -0.5586  0.0433  0.1728
   39bbb     C1 1132   4.852   9.244   7.450 -0.0699  0.8900 -0.6511
   39bbb     H1 1133   4.820   9.340   7.408 -0.5073  0.6901 -0.7889
   39bbb     H2 1134   4.780   9.180   7.396  0.8656 -1.1888  0.5085
   39bbb     C2 1135   4.838   9.097   7.657 -0.4764 -0.4709 -0.8302
   39bbb     H3 1136   4.769   9.108   7.743 -0.1803  0.7721 -0.7441
   39bbb     H4 1137   4.942   9.086   7.688 -0.7543 -1.6151 -0.2562
   39bbb     C3 1138   4.891   9.347   7.665  0.0995 -0.6628  0.1474
   39bbb     H5 1139   4.888   9.438   7.605  0.3192 -0.4293  0.4852
   39bbb     H6 1140   4.996   9.322   7.681  0.9586  2.1661 -0.7691
   39bbb     C4 1141   4.827   9.362   7.810 -0.2283  0.3135  0.6472
   39bbb     H7 1142   4.880   9.441   7.863 -0.1313  0.3691  0.4652
   39bbb     H8 1143   4.832   9.273   7.873  1.1163 -0.0779  0.0126
   39bbb     C5 1144   4.990   9.204   7.401  0.1579 -0.0989 -0.5219
   39bbb     H9 1145   5.018   9.120   7.466  0.5482 -1.1681 -2.0513
   39bbb    H10 1146   5.066   9.282   7.411 -1.3677  1.3067  0.1946
   39bbb     C6 1147   4.795   8.975   7.574  0.4107  0.2762 -0.6140
   39bbb    H11 1148   4.865   8.968   7.490  0.8599 -1.1384 -0.1212
   39bbb    H12 1149   4.694   8.994   7.535  0.2239  0.7194  0.0739
   39bbb     C7 1150   4.677   9.402   7.802  0.0559  0.5068 -0.1180
   39bbb    H13 1151   4.630   9.327   7.737 -0.7166 -1.2166  2.3838
   39bbb    H14 1152   4.665   9.505   7.765 -1.2151  1.0904  1.8396
   39bbb     C8 1153   4.783   8.844   7.657 -0.6539 -0.7726 -1.4086
   39bbb    H15 1154   4.741   8.757   7.605  0.2881 -1.4687 -1.0055
   39bbb    H16 1155   4.709   8.865   7.736  0.5469 -0.2115 -0.4061
   39bbb     C9 1156   5.004   9.142   7.260  1.0791 -0.7306 -0.3531
   39bbb    H17 1157   4.922   9.078   7.224  1.0412  0.0293 -1.6648
   39bbb    H18 1158   5.085   9.071   7.279  1.9012  0.1269 -0.6249
   39bbb     O1 1159   4.632   9.403   7.938 -0.1450 -0.0553  0.3491
   40bbb     N1 1160   4.299   9.048   9.269  0.3714  0.3950  0.5495
   40bbb     C1 1161   4.217   9.142   9.337 -0.5297  0.1949 -0.3668
   40bbb     H1 1162   4.277   9.165   9.426 -0.1711  0.0787 -0.5823
   40bbb     H2 1163   4.121   9.098   9.367 -0.7849  1.3232  0.5118
   40bbb     C2 1164   4.428   9.101   9.237  0.2253  0.2226  0.3280
   40bbb     H3 1165   4.420   9.187   9.170 -1.1577 -0.7623 -0.8010
   40bbb     H4 1166   4.478   9.026   9.174  0.2743  1.4690 -1.1307
   40bbb     C3 1167   4.229   8.971   9.165 -0.6319 -0.1942  0.1885
   40bbb     H5 1168   4.292   8.964   9.075 -1.5706  0.7909 -0.5594
   40bbb     H6 1169   4.131   9.016   9.146 -0.3535  0.4655  0.3157
   40bbb     C4 1170   4.195   8.829   9.216 -0.5379  0.0465  0.2579
   40bbb     H7 1171   4.130   8.835   9.304 -0.8389 -0.6560  0.0846
   40bbb     H8 1172   4.291   8.783   9.241 -0.3709 -0.9916 -2.1370
   40bbb     C5 1173   4.180   9.278   9.266 -0.2626  0.0955 -0.3556
   40bbb     H9 1174   4.158   9.268   9.159 -2.1681  3.8007 -0.3631
   40bbb    H10 1175   4.266   9.346   9.279 -0.1887 -0.3064  1.2609
   40bbb     C6 1176   4.533   9.132   9.344  0.0426 -0.6076  0.5701
   40bbb    H11 1177   4.495   9.213   9.408 -0.6396  1.0763 -1.9243
   40bbb    H12 1178   4.622   9.168   9.292 -0.7407  0.1853 -0.2391
   40bbb     C7 1179   4.146   8.738   9.096  0.3065 -0.0817  0.2266
   40bbb    H13 1180   4.138   8.632   9.124  0.3391  0.1179  0.9804
   40bbb    H14 1181   4.219   8.737   9.014 -1.0716  1.7879 -1.0718
   40bbb     C8 1182   4.560   8.998   9.416  0.1165  0.4305 -0.4419
   40bbb    H15 1183   4.592   8.923   9.342  0.2915 -0.2576  0.3373
   40bbb    H16 1184   4.462   8.958   9.446  0.9148 -0.2006  1.3231
   40bbb     C9 1185   4.056   9.347   9.327 -0.0594 -1.0909  0.0486
   40bbb    H17 1186   4.026   9.439   9.275  1.4621 -1.9708 -2.5042
   40bbb    H18 1187   4.093   9.375   9.426  0.8421  2.0622 -1.1008
   40bbb     O1 1188   4.017   8.787   9.056 -0.0590  0.2568  0.4376
   41bbb     N1 1189   4.539   8.746   8.895  0.0037 -0.5253  0.5449
   41bbb     C1 1190   4.518   8.665   9.022  0.3668  0.1708  0.5278
   41bbb     H1 1191   4.577   8.573   9.013 -2.4019 -1.6094  0.1670
   41bbb     H2 1192   4.415   8.634   9.043 -0.2033  0.3029 -1.9646
   41bbb     C2 1193   4.524   8.664   8.776 -0.1657  0.2722 -0.0145
   41bbb     H3 1194   4.595   8.581   8.782 -0.3076  0.0336 -1.3766
   41bbb     H4 1195   4.538   8.719   8.682  0.9145 -1.0630 -0.6621
   41bbb     C3 1196   4.475   8.880   8.900 -0.2046  0.6512 -0.3012
   41bbb     H5 1197   4.500   8.930   8.995 -0.4255 -3.2831  1.9457
   41bbb     H6 1198   4.368   8.860   8.892 -0.1196 -0.3513  0.8270
   41bbb     C4 1199   4.515   8.975   8.789 -0.0608 -0.4612  0.1838
   41bbb     H7 1200   4.482   8.922   8.699 -1.2996  0.4551  0.0873
   41bbb     H8 1201   4.624   8.977   8.788  0.0028 -2.4416  0.4752
   41bbb     C5 1202   4.576   8.738   9.144 -0.1731 -0.2236  0.0627
   41bbb     H9 1203   4.500   8.803   9.188  2.2378  1.6305  1.5614
   41bbb    H10 1204   4.656   8.804   9.112 -1.4007  1.4481  0.3815
   41bbb     C6 1205   4.381   8.597   8.760  0.1094 -0.0676  0.4845
   41bbb    H11 1206   4.296   8.666   8.769 -1.0617 -1.6548  1.9865
   41bbb    H12 1207   4.361   8.528   8.843  2.0992 -0.9417  0.2680
   41bbb     C7 1208   4.453   9.111   8.802 -0.0703  0.2339 -0.1046
   41bbb    H13 1209   4.462   9.175   8.714 -1.3987 -0.5530 -0.8215
   41bbb    H14 1210   4.495   9.159   8.891  2.4580  1.3462 -1.8429
   41bbb     C8 1211   4.368   8.525   8.622 -0.5011  0.2164 -0.3366
   41bbb    H15 1212   4.457   8.464   8.605 -1.0013 -0.3054 -1.1274
   41bbb    H16 1213   4.370   8.602   8.544 -0.1313  1.1325  0.5714
   41bbb     C9 1214   4.617   8.636   9.248 -0.6082 -0.6554 -0.2506
   41bbb    H17 1215   4.692   8.680   9.315 -0.7730  4.7553 -3.3293
   41bbb    H18 1216   4.666   8.557   9.189  0.1830 -0.4921  0.1839
   41bbb     O1 1217   4.316   9.102   8.826 -0.4929  0.2676  0.3885
   42bbb     N1 1218   3.151  10.066   7.576 -0.2931 -0.0437  0.0729
   42bbb     C1 1219   3.080  10.177   7.506 -0.8552  0.0617 -0.2857
   42bbb     H1 1220   3.128  10.271   7.537 -1.3342 -0.5570  2.4319
   42bbb     H2 1221   2.977  10.185   7.543 -1.0686 -0.8805 -0.6645
   42bbb     C2 1222   3.088   9.935   7.568 -0.2481 -0.0225  0.0497
   42bbb     H3 1223   3.151   9.870   7.630  1.2123  2.3800  1.1537
   42bbb     H4 1224   3.087   9.891   7.468 -1.9411  1.2589 -0.5275
   42bbb     C3 1225   3.301  10.066   7.562  0.5771 -0.4230 -0.5876
   42bbb     H5 1226   3.336  10.032   7.464 -1.6000  0.7414 -1.8074
   42bbb     H6 1227   3.337   9.996   7.638 -1.3079  0.5852  1.2863
   42bbb     C4 1228   3.370  10.205   7.601 -0.5020  0.5617 -0.5868
   42bbb     H7 1229   3.347  10.229   7.706 -1.8227  1.6690 -1.1109
   42bbb     H8 1230   3.332  10.288   7.540 -0.1682  0.3520 -1.0811
   42bbb     C5 1231   3.061  10.169   7.348 -0.0464 -0.5862 -0.3007
   42bbb     H9 1232   3.002  10.259   7.327  1.6345  0.1917 -1.8028
   42bbb    H10 1233   2.992  10.090   7.315 -1.3971  0.9941 -1.3693
   42bbb     C6 1234   2.949   9.931   7.631 -0.2609  0.0728 -0.0905
   42bbb    H11 1235   2.881   9.937   7.545  2.1910  1.8193 -1.9910
   42bbb    H12 1236   2.930  10.021   7.691  1.5956 -0.0787  0.7594
   42bbb     C7 1237   3.517  10.189   7.590  0.0870  0.1043  0.3482
   42bbb    H13 1238   3.543  10.140   7.495  2.0721  0.8078  0.5206
   42bbb    H14 1239   3.560  10.125   7.668  0.5052 -0.4475 -0.3278
   42bbb     C8 1240   2.930   9.803   7.709 -0.1346  0.2467 -0.1882
   42bbb    H15 1241   2.998   9.790   7.794  1.1577 -1.5072 -1.4348
   42bbb    H16 1242   2.946   9.727   7.632 -2.1337  1.8561 -2.2836
   42bbb     C9 1243   3.192  10.165   7.266  0.9179 -0.3937 -0.4827
   42bbb    H17 1244   3.225  10.061   7.278  0.8522 -0.2532  1.0493
   42bbb    H18 1245   3.266  10.229   7.315  2.6379 -0.7170 -2.5996
   42bbb     O1 1246   3.570  10.321   7.613 -0.6603 -0.4957 -0.2320
   43bbb     N1 1247   4.260  11.360   8.049  0.1455  0.7270 -0.5649
   43bbb     C1 1248   4.328  11.314   8.177  0.0187 -0.3246 -0.7814
   43bbb     H1 1249   4.314  11.208   8.201 -2.1939  0.2800  0.7668
   43bbb     H2 1250   4.289  11.370   8.262  2.1208  1.9545 -1.2526
   43bbb     C2 1251   4.168  11.468   8.077  0.0584  0.1428 -0.3719
   43bbb     H3 1252   4.089  11.420   8.137 -0.6341 -1.1565 -2.2654
   43bbb     H4 1253   4.115  11.498   7.986 -0.8086 -1.1922 -0.3217
   43bbb     C3 1254   4.194  11.255   7.974  0.9073  0.0856 -0.3620
   43bbb     H5 1255   4.142  11.290   7.884  0.8599  2.8584  0.6890
   43bbb     H6 1256   4.121  11.215   8.046 -1.3106  1.8857 -1.5355
   43bbb     C4 1257   4.281  11.132   7.932  0.6213 -1.1089 -0.0640
   43bbb     H7 1258   4.311  11.067   8.016  1.1998 -1.7234 -0.7287
   43bbb     H8 1259   4.365  11.181   7.881 -0.1865  0.9044  0.5356
   43bbb     C5 1260   4.483  11.344   8.169  0.0814  0.3463 -0.2325
   43bbb     H9 1261   4.506  11.449   8.147 -0.7799  0.6372  0.2420
   43bbb    H10 1262   4.530  11.291   8.085  0.7975 -0.1408  0.4631
   43bbb     C6 1263   4.234  11.593   8.144 -0.6395 -0.9390 -0.0152
   43bbb    H11 1264   4.330  11.609   8.094  0.2285 -3.2559  0.8618
   43bbb    H12 1265   4.260  11.579   8.249  2.8928 -0.5744 -0.7669
   43bbb     C7 1266   4.206  11.045   7.834  0.5755 -0.1163  0.2471
   43bbb    H13 1267   4.266  10.975   7.775 -2.3662 -1.6645 -1.0194
   43bbb    H14 1268   4.149  11.107   7.764  3.3226  2.1954  0.0082
   43bbb     C8 1269   4.144  11.713   8.125  1.1171 -0.3119  0.1617
   43bbb    H15 1270   4.095  11.707   8.027  1.3481  0.7224 -0.0255
   43bbb    H16 1271   4.202  11.806   8.136 -0.2646  0.3747  1.9466
   43bbb     C9 1272   4.560  11.306   8.300  0.3651 -0.5614 -0.1633
   43bbb    H17 1273   4.567  11.199   8.323 -0.6789 -0.9160 -1.4334
   43bbb    H18 1274   4.491  11.341   8.376  0.3223  2.5005 -1.5575
   43bbb     O1 1275   4.111  10.961   7.915 -0.1917 -0.1431 -0.1037
   44bbb     N1 1276   3.016   9.059   8.802  0.5157 -0.9095 -0.6456
   44bbb     C1 1277   3.039   8.968   8.688  0.5329  0.0547  0.3976
   44bbb     H1 1278   3.111   9.015   8.620 -1.1940  1.2864 -0.5964
   44bbb     H2 1279   2.948   8.965   8.628  0.6412 -1.3133  0.2842
   44bbb     C2 1280   3.141   9.083   8.878  0.3165  0.5691 -0.2852
   44bbb     H3 1281   3.203   9.143   8.810 -0.7125 -0.4225 -2.1280
   44bbb     H4 1282   3.189   8.993   8.916  0.8504  0.7459 -0.5367
   44bbb     C3 1283   2.958   9.192   8.757  0.1198  0.6699  0.4781
   44bbb     H5 1284   3.027   9.254   8.699 -0.2011  1.5984  1.0913
   44bbb     H6 1285   2.947   9.253   8.847  0.7369 -1.0228  1.7284
   44bbb     C4 1286   2.823   9.191   8.688  0.1442 -0.1962  0.5580
   44bbb     H7 1287   2.756   9.108   8.710  0.3444 -0.4999  0.0429
   44bbb     H8 1288   2.838   9.202   8.579 -1.5578  2.0917  0.5147
   44bbb     C5 1289   3.088   8.824   8.724  0.1108  1.0583 -0.1558
   44bbb     H9 1290   3.022   8.774   8.795  1.0200 -1.4743 -1.0392
   44bbb    H10 1291   3.185   8.825   8.774 -0.0234 -2.4304  0.2885
   44bbb     C6 1292   3.128   9.167   9.005  0.1715  0.8907  0.2862
   44bbb    H11 1293   3.028   9.139   9.039  0.3083 -0.6626 -0.5301
   44bbb    H12 1294   3.120   9.274   8.982  0.8156  0.6166 -1.3034
   44bbb     C7 1295   2.746   9.314   8.711  0.2157 -0.4180  0.2949
   44bbb    H13 1296   2.732   9.325   8.819  1.8611 -0.1051  0.4865
   44bbb    H14 1297   2.651   9.295   8.659  1.3249 -0.3302 -1.8326
   44bbb     C8 1298   3.220   9.121   9.123 -0.7832 -0.4871 -0.3020
   44bbb    H15 1299   3.324   9.133   9.088 -0.0962  0.4944  1.9487
   44bbb    H16 1300   3.208   9.013   9.133 -0.4125 -0.4962  0.0672
   44bbb     C9 1301   3.087   8.726   8.603  0.1857 -0.1980  0.8212
   44bbb    H17 1302   2.984   8.698   8.582  0.3596 -1.0311  1.0523
   44bbb    H18 1303   3.134   8.629   8.626  3.1290  1.0168  0.2110
   44bbb     O1 1304   2.812   9.427   8.656 -0.8448  0.4788 -0.0776
   45bbb     N1 1305   2.200  10.137   8.265 -0.2500 -0.0312 -0.0994
   45bbb     C1 1306   2.151  10.032   8.170 -0.0911  0.3190  0.0267
   45bbb     H1 1307   2.071   9.978   8.223  2.1500 -1.1732  1.9940
   45bbb     H2 1308   2.227   9.962   8.134 -1.7933 -0.6289 -1.7872
   45bbb     C2 1309   2.104  10.194   8.366  0.9364  0.0004 -0.0308
   45bbb     H3 1310   2.029  10.260   8.320  2.0603  0.5016 -1.2002
   45bbb     H4 1311   2.165  10.251   8.436 -0.4334 -0.7918  1.8514
   45bbb     C3 1312   2.327  10.090   8.313 -0.2190 -0.2649  0.2515
   45bbb     H5 1313   2.320   9.982   8.329 -1.1997 -0.3441 -0.6647
   45bbb     H6 1314   2.351  10.133   8.412 -0.0990 -0.0379  0.1258
   45bbb     C4 1315   2.429  10.133   8.205  0.2034 -0.0328 -0.1118
   45bbb     H7 1316   2.455  10.238   8.221 -0.6056  0.2529 -0.6201
   45bbb     H8 1317   2.391  10.134   8.102 -3.1437  3.9811  1.0296
   45bbb     C5 1318   2.087  10.099   8.048 -0.2731 -0.3420 -0.5667
   45bbb     H9 1319   2.168  10.148   7.993 -1.0798 -0.0041 -1.4541
   45bbb    H10 1320   2.026  10.184   8.081 -3.3120 -1.5940 -2.7367
   45bbb     C6 1321   2.028  10.094   8.452  0.2260  0.5048 -0.8241
   45bbb    H11 1322   2.099  10.022   8.496 -1.0677 -0.6288 -0.5650
   45bbb    H12 1323   1.958  10.038   8.389 -1.9481  2.4745 -0.2157
   45bbb     C7 1324   2.566  10.054   8.210 -0.0907 -0.2611 -0.8043
   45bbb    H13 1325   2.644  10.103   8.150 -1.9133  3.1504 -0.4799
   45bbb    H14 1326   2.557   9.955   8.164  1.4064  0.1187 -1.9619
   45bbb     C8 1327   1.952  10.155   8.567  0.1857  0.1730  0.5522
   45bbb    H15 1328   2.000  10.253   8.580  0.0155  0.4520 -0.7825
   45bbb    H16 1329   1.970  10.108   8.664  1.2824  0.6212  0.5661
   45bbb     C9 1330   2.019   9.998   7.960  0.0127 -0.2296  0.6022
   45bbb    H17 1331   1.938   9.940   8.005 -0.4879 -1.5125 -1.8899
   45bbb    H18 1332   2.095   9.925   7.930 -1.1790 -0.9961 -0.5596
   45bbb     O1 1333   2.595  10.033   8.346  0.7626  0.6751  0.1622
   46bbb     N1 1334   3.705  11.472   8.082 -0.1261  0.1077  0.4098
   46bbb     C1 1335   3.778  11.600   8.040 -0.5892 -0.0799  1.1976
   46bbb     H1 1336   3.873  11.603   8.093 -0.4054  0.7770  0.8290
   46bbb     H2 1337   3.717  11.681   8.082 -0.4856  0.4163  0.3994
   46bbb     C2 1338   3.586  11.439   8.002  0.1466 -0.2238 -0.6512
   46bbb     H3 1339   3.544  11.340   8.025 -0.3231  0.0876 -0.1522
   46bbb     H4 1340   3.616  11.442   7.897 -2.4913  2.9011 -1.3911
   46bbb     C3 1341   3.698  11.450   8.229 -0.6896  0.1655  0.1860
   46bbb     H5 1342   3.631  11.364   8.242 -1.0210 -0.0812 -2.7866
   46bbb     H6 1343   3.665  11.539   8.285  0.2451  0.2479  0.6163
   46bbb     C4 1344   3.834  11.398   8.277  0.0699 -0.1515  0.0792
   46bbb     H7 1345   3.816  11.372   8.382  1.2843 -0.5402  0.2008
   46bbb     H8 1346   3.903  11.483   8.271 -1.6661  1.2391 -0.5893
   46bbb     C5 1347   3.804  11.615   7.889 -0.4143  0.2035  0.7935
   46bbb     H9 1348   3.705  11.616   7.840 -0.8863  0.3463  1.7393
   46bbb    H10 1349   3.854  11.522   7.859  1.5410  1.7041 -0.7022
   46bbb     C6 1350   3.475  11.540   8.028 -0.1218 -0.0607  0.0369
   46bbb    H11 1351   3.501  11.639   7.987 -1.7716  0.0981 -0.6797
   46bbb    H12 1352   3.456  11.564   8.134  0.0763  0.8840 -0.1409
   46bbb     C7 1353   3.886  11.268   8.213 -0.5303 -0.4161  0.0958
   46bbb    H13 1354   3.995  11.265   8.224 -0.5124  0.3054  0.1619
   46bbb    H14 1355   3.872  11.265   8.104 -2.0169  2.8601  0.1468
   46bbb     C8 1356   3.344  11.491   7.952  0.2191  0.0416  0.8921
   46bbb    H15 1357   3.306  11.414   8.020  1.2612 -0.6053  0.7518
   46bbb    H16 1358   3.368  11.426   7.866  1.6261  0.3761  1.0167
   46bbb     C9 1359   3.875  11.749   7.838 -0.1067 -0.6062 -0.0896
   46bbb    H17 1360   3.875  11.814   7.927  1.9570  1.2669 -1.4151
   46bbb    H18 1361   3.818  11.801   7.759  0.5251 -1.5540 -1.1749
   46bbb     O1 1362   3.831  11.153   8.280  0.5000 -0.0475  0.3211
   47bbb     N1 1363   2.789  10.772   8.353  0.5928 -0.0476  0.2734
   47bbb     C1 1364   2.751  10.630   8.326  0.0086 -0.1852  0.2830
   47bbb     H1 1365   2.840  10.567   8.315 -0.6359 -1.1307  0.4182
   47bbb     H2 1366   2.701  10.621   8.228  2.4044  0.7551 -1.0596
   47bbb     C2 1367   2.668  10.863   8.368 -0.0247  0.5078  0.7489
   47bbb     H3 1368   2.697  10.965   8.396  3.6889 -0.8496  2.2610
   47bbb     H4 1369   2.597  10.832   8.446 -2.0190  0.1902 -1.1473
   47bbb     C3 1370   2.872  10.792   8.473  0.2287  0.3739 -0.6200
   47bbb     H5 1371   2.822  10.760   8.565  0.1827 -0.5782 -0.9719
   47bbb     H6 1372   2.902  10.897   8.484  3.8611 -0.3183 -3.0545
   47bbb     C4 1373   3.010  10.709   8.477 -0.8549 -0.1681  0.2171
   47bbb     H7 1374   3.051  10.732   8.377 -0.1953 -2.9026 -0.1796
   47bbb     H8 1375   2.994  10.601   8.490  0.0838 -0.2901  0.3952
   47bbb     C5 1376   2.659  10.570   8.428  0.3843 -0.2374  0.2758
   47bbb     H9 1377   2.586  10.641   8.468  1.7919  0.3376  1.9214
   47bbb    H10 1378   2.714  10.540   8.518 -0.1674 -0.4987  0.5235
   47bbb     C6 1379   2.591  10.860   8.236  0.0488 -0.5185  0.4035
   47bbb    H11 1380   2.549  10.763   8.206 -0.2719 -0.3997  0.4792
   47bbb    H12 1381   2.662  10.888   8.157 -1.9564  0.7607 -0.9800
   47bbb     C7 1382   3.105  10.760   8.585  0.4576 -0.0736 -0.5660
   47bbb    H13 1383   3.050  10.734   8.677  1.7339  2.4157  0.9702
   47bbb    H14 1384   3.124  10.867   8.597  2.5242 -0.2228 -2.1233
   47bbb     C8 1385   2.483  10.972   8.229 -0.4625  0.5610 -0.5170
   47bbb    H15 1386   2.516  11.071   8.262  1.1350 -0.3533  0.7055
   47bbb    H16 1387   2.420  10.940   8.313 -0.2282  0.3979 -0.3999
   47bbb     C9 1388   2.582  10.449   8.368 -0.0004 -0.0275 -0.4702
   47bbb    H17 1389   2.532  10.390   8.446 -0.6256 -0.1460 -0.9684
   47bbb    H18 1390   2.652  10.384   8.314 -0.4554  1.5196 -2.9857
   47bbb     O1 1391   3.230  10.678   8.572  0.2514  0.1033 -0.0415
   48bbb     N1 1392   4.482  11.936   7.283  0.1875  0.5260 -0.0557
   48bbb     C1 1393   4.586  12.002   7.364 -0.5423 -0.6418 -0.2625
   48bbb     H1 1394   4.661  12.048   7.298  1.7673 -2.4111  1.0151
   48bbb     H2 1395   4.645  11.925   7.417 -0.1662 -1.6497 -2.1027
   48bbb     C2 1396   4.539  11.837   7.183 -0.3580 -0.1097  0.6357
   48bbb     H3 1397   4.600  11.894   7.111 -1.9636  0.0697 -0.6354
   48bbb     H4 1398   4.461  11.788   7.123  0.3499  1.2870 -1.4930
   48bbb     C3 1399   4.362  11.881   7.353 -0.4036  0.6252  0.1238
   48bbb     H5 1400   4.316  11.967   7.403 -0.0630  2.0693 -1.9900
   48bbb     H6 1401   4.398  11.804   7.422 -0.6683 -2.2826 -2.8334
   48bbb     C4 1402   4.241  11.834   7.258 -0.3462 -0.0734 -0.4068
   48bbb     H7 1403   4.274  11.761   7.182 -1.5046  0.2971 -1.2843
   48bbb     H8 1404   4.219  11.924   7.199  0.3926  0.1303 -0.3765
   48bbb     C5 1405   4.549  12.109   7.469 -0.2684 -0.0628  0.2750
   48bbb     H9 1406   4.638  12.152   7.517 -1.6063  2.7638  0.3771
   48bbb    H10 1407   4.488  12.061   7.547 -0.9200  0.2983 -0.0098
   48bbb     C6 1408   4.625  11.721   7.241 -0.3336  0.6150 -0.0082
   48bbb    H11 1409   4.559  11.662   7.305  1.9412 -0.2134  1.6569
   48bbb    H12 1410   4.706  11.768   7.298 -0.2880  2.9227 -1.8783
   48bbb     C7 1411   4.125  11.780   7.341  0.3998 -0.6614  0.3630
   48bbb    H13 1412   4.030  11.773   7.288  0.5236  2.4934 -0.3953
   48bbb    H14 1413   4.109  11.843   7.428 -2.3070 -0.1748 -0.4581
   48bbb     C8 1414   4.692  11.634   7.121 -0.2311 -0.3223 -0.4810
   48bbb    H15 1415   4.771  11.571   7.161 -0.1918  0.5444  0.8539
   48bbb    H16 1416   4.743  11.687   7.040  0.5999  0.1339  0.3338
   48bbb     C9 1417   4.468  12.231   7.424 -0.0613  0.3051 -0.0942
   48bbb    H17 1418   4.372  12.214   7.374 -0.1306 -0.1690  0.1964
   48bbb    H18 1419   4.522  12.273   7.339  0.3134 -1.3835 -0.7022
   48bbb     O1 1420   4.173  11.656   7.397  0.4101  0.2769 -0.0622
   49bbb     N1 1421   3.372  11.398   6.725 -0.6536  0.0548 -0.3766
   49bbb     C1 1422   3.388  11.546   6.722 -0.2153 -0.2659 -0.3187
   49bbb     H1 1423   3.334  11.581   6.633 -0.3828 -1.6162 -0.7548
   49bbb     H2 1424   3.494  11.569   6.704  0.0825 -2.9860 -2.2513
   49bbb     C2 1425   3.230  11.360   6.743 -0.5154 -1.3156 -0.1852
   49bbb     H3 1426   3.160  11.424   6.687  1.4846  0.7240 -0.4233
   49bbb     H4 1427   3.207  11.375   6.849  1.2309 -2.4811  0.3693
   49bbb     C3 1428   3.459  11.330   6.823 -0.4728  0.0431  0.2852
   49bbb     H5 1429   3.439  11.223   6.806 -3.3507  0.4831  0.6003
   49bbb     H6 1430   3.440  11.361   6.927 -3.2043 -0.1007 -0.1281
   49bbb     C4 1431   3.615  11.351   6.804 -0.2565 -0.2007 -0.3561
   49bbb     H7 1432   3.645  11.456   6.820  2.3223 -0.8728 -0.6093
   49bbb     H8 1433   3.630  11.332   6.697 -1.8198  0.5212 -0.7205
   49bbb     C5 1434   3.353  11.634   6.842  0.6589 -0.8349 -0.6996
   49bbb     H9 1435   3.417  11.609   6.927  1.5325 -3.3649 -2.0442
   49bbb    H10 1436   3.252  11.621   6.882  1.0825  0.1750  0.7246
   49bbb     C6 1437   3.203  11.216   6.699  0.1992  0.7721 -0.8489
   49bbb    H11 1438   3.263  11.140   6.751 -4.2571 -0.5649  2.6648
   49bbb    H12 1439   3.239  11.217   6.596  2.2249  1.0815 -0.1540
   49bbb     C7 1440   3.718  11.270   6.884 -0.4923  0.7211 -1.2422
   49bbb    H13 1441   3.813  11.320   6.860  1.8563 -2.0559  1.7587
   49bbb    H14 1442   3.731  11.169   6.844 -0.8829 -1.0346  2.8274
   49bbb     C8 1443   3.054  11.181   6.715  0.4769  0.5811 -0.6762
   49bbb    H15 1444   2.990  11.250   6.659  1.4995  2.1231  0.0396
   49bbb    H16 1445   3.024  11.193   6.820 -1.5598  0.0434 -1.1707
   49bbb     C9 1446   3.378  11.789   6.809  0.6775 -0.3364 -0.1522
   49bbb    H17 1447   3.292  11.812   6.745  0.1206 -1.3420  0.2189
   49bbb    H18 1448   3.459  11.794   6.736  0.8866 -0.6963  0.0544
   49bbb     O1 1449   3.701  11.280   7.029  0.3502 -0.3230  0.2114
   50bbb     N1 1450   4.338  10.046   8.030  0.6331 -0.3680 -0.9126
   50bbb     C1 1451   4.223   9.960   8.090  0.2813 -0.4057 -0.0182
   50bbb     H1 1452   4.217   9.871   8.028  0.6700 -0.3676 -0.1077
   50bbb     H2 1453   4.121  10.001   8.079  0.6935  0.3994 -0.9301
   50bbb     C2 1454   4.480   9.981   8.048  1.0077 -0.3576 -0.4060
   50bbb     H3 1455   4.511   9.972   8.153 -3.3085  0.0287  1.0395
   50bbb     H4 1456   4.537  10.055   7.990 -1.1026  0.0801 -2.0209
   50bbb     C3 1457   4.307  10.097   7.893  0.2087  0.8413 -0.2997
   50bbb     H5 1458   4.306  10.017   7.818  1.1742  0.9365 -0.4256
   50bbb     H6 1459   4.389  10.164   7.864 -0.2012  1.9888  1.1239
   50bbb     C4 1460   4.174  10.176   7.892  0.5833  0.4200  0.6063
   50bbb     H7 1461   4.155  10.221   7.990 -0.7335 -0.7056  0.8954
   50bbb     H8 1462   4.100  10.098   7.866  0.7315  0.8777 -1.2085
   50bbb     C5 1463   4.228   9.940   8.246 -0.3126  0.5757 -0.9747
   50bbb     H9 1464   4.205  10.032   8.300  2.2853  0.3029  0.6942
   50bbb    H10 1465   4.325   9.908   8.286 -1.3471 -0.1523  1.0242
   50bbb     C6 1466   4.487   9.846   7.992 -0.4523  0.2386 -0.5243
   50bbb    H11 1467   4.438   9.844   7.894 -0.9902  0.6282 -0.2711
   50bbb    H12 1468   4.429   9.778   8.056  0.1748  0.1808 -0.0170
   50bbb     C7 1469   4.164  10.283   7.783 -0.1714 -0.1800 -0.2032
   50bbb    H13 1470   4.057  10.294   7.760 -0.7618 -0.5260  2.2114
   50bbb    H14 1471   4.231  10.250   7.703  1.0743 -0.8571  1.1079
   50bbb     C8 1472   4.631   9.786   7.995  0.1572  0.1163 -0.4355
   50bbb    H15 1473   4.617   9.680   7.971 -0.8110 -0.2099  1.5069
   50bbb    H16 1474   4.665   9.803   8.098 -0.3472 -0.0811 -0.2370
   50bbb     C9 1475   4.121   9.830   8.278  0.2879 -0.8414 -0.3745
   50bbb    H17 1476   4.124   9.811   8.386  1.4353  1.5141  0.0442
   50bbb    H18 1477   4.157   9.748   8.213  1.2173 -0.7758  0.0517
   50bbb     O1 1478   4.215  10.407   7.835  0.3313  0.2775 -0.5595
   51bbb     N1 1479   4.160  11.116   8.523 -0.3812 -0.1182 -0.0464
   51bbb     C1 1480   4.019  11.077   8.491  0.8145  0.7806  0.9956
   51bbb     H1 1481   4.008  11.041   8.388 -0.5040  0.5647  1.1965
   51bbb     H2 1482   3.958  11.168   8.495  3.2162  2.4805  0.1452
   51bbb     C2 1483   4.199  11.245   8.463 -0.2262  0.8765 -0.2814
   51bbb     H3 1484   4.171  11.236   8.358 -0.4448 -3.0652  0.0517
   51bbb     H4 1485   4.306  11.268   8.479  0.2339 -1.2616 -0.2339
   51bbb     C3 1486   4.263  11.016   8.509  0.4911  0.4027 -0.6300
   51bbb     H5 1487   4.241  10.937   8.582 -0.5129 -0.0051 -1.3631
   51bbb     H6 1488   4.358  11.062   8.539  1.8525 -2.5610 -0.2168
   51bbb     C4 1489   4.281  10.960   8.368  0.3861  0.3664  0.2429
   51bbb     H7 1490   4.244  11.028   8.290  0.1830 -1.4830 -1.3186
   51bbb     H8 1491   4.218  10.870   8.357 -1.1735  1.2395  1.6889
   51bbb     C5 1492   3.955  10.972   8.590  0.2906  0.5522  0.1610
   51bbb     H9 1493   4.020  10.884   8.596 -1.4693 -0.7289  0.8976
   51bbb    H10 1494   3.858  10.941   8.549  1.5550 -0.0790 -2.4934
   51bbb     C6 1495   4.136  11.372   8.503  0.5845 -0.1594 -0.6327
   51bbb    H11 1496   4.028  11.355   8.488  0.9408 -1.6915 -1.5290
   51bbb    H12 1497   4.159  11.455   8.436  3.0511  0.2661  0.7175
   51bbb     C7 1498   4.433  10.931   8.348 -0.4150  0.2384  0.9981
   51bbb    H13 1499   4.463  10.839   8.401 -1.2825 -0.4195  0.3723
   51bbb    H14 1500   4.497  11.008   8.392 -0.6399  0.6340  0.6265
   51bbb     C8 1501   4.152  11.434   8.650  0.0304 -0.3663 -0.8887
   51bbb    H15 1502   4.107  11.365   8.722 -0.9070  1.1447  0.0149
   51bbb    H16 1503   4.090  11.525   8.648  1.5506  0.6650 -1.4622
   51bbb     C9 1504   3.938  11.040   8.731  0.7684  0.3736  1.1085
   51bbb    H17 1505   3.914  11.146   8.714 -1.4787 -0.1049  1.1479
   51bbb    H18 1506   4.035  11.041   8.781  1.5760 -1.5325 -0.3515
   51bbb     O1 1507   4.461  10.931   8.209  0.5722 -0.0461  0.4860
   52bbb     N1 1508   5.438  10.665   7.808  0.2390 -0.3178 -0.4010
   52bbb     C1 1509   5.443  10.520   7.795  0.7416  0.7036  0.7492
   52bbb     H1 1510   5.406  10.498   7.695  0.0786  2.0370  0.6961
   52bbb     H2 1511   5.376  10.476   7.870  0.7615 -0.3581  0.1540
   52bbb     C2 1512   5.528  10.723   7.707  0.2178  0.0944  0.0163
   52bbb     H3 1513   5.488  10.699   7.607  0.7704  0.1130 -0.2154
   52bbb     H4 1514   5.631  10.687   7.719 -0.3355 -0.5252  3.1305
   52bbb     C3 1515   5.298  10.719   7.812  0.3163  0.0712  0.0416
   52bbb     H5 1516   5.237  10.702   7.723  0.1619 -3.9033  0.7877
   52bbb     H6 1517   5.311  10.827   7.825 -0.5724  0.2211 -0.3266
   52bbb     C4 1518   5.216  10.682   7.933  0.5904  0.0008 -0.1422
   52bbb     H7 1519   5.269  10.719   8.021 -0.4603 -1.8561  1.3290
   52bbb     H8 1520   5.204  10.573   7.933 -3.4802  0.3668 -0.5416
   52bbb     C5 1521   5.589  10.453   7.809  0.3016  0.2348 -0.1508
   52bbb     H9 1522   5.621  10.477   7.911  0.6790 -0.1883 -0.1680
   52bbb    H10 1523   5.669  10.482   7.740 -0.4659  1.9348 -0.3381
   52bbb     C6 1524   5.531  10.877   7.709 -0.0936  0.6058  0.4407
   52bbb    H11 1525   5.557  10.908   7.811  1.0259 -0.6301  0.5540
   52bbb    H12 1526   5.440  10.927   7.674 -0.7909 -1.6043 -1.0105
   52bbb     C7 1527   5.072  10.747   7.930  0.0966  0.1915 -0.1052
   52bbb    H13 1528   5.070  10.855   7.947 -1.9302  0.3344 -1.1485
   52bbb    H14 1529   5.010  10.706   8.010  0.1170  1.6438  0.6665
   52bbb     C8 1530   5.652  10.922   7.624 -0.2015  0.0736 -0.5711
   52bbb    H15 1531   5.634  10.884   7.522 -3.1863  1.0963 -0.4806
   52bbb    H16 1532   5.741  10.878   7.670 -1.9929 -0.4016  2.5753
   52bbb     C9 1533   5.571  10.298   7.803 -0.0027  0.3824  0.0444
   52bbb    H17 1534   5.516  10.278   7.710  2.0828 -2.1099 -0.7059
   52bbb    H18 1535   5.498  10.269   7.880 -0.2466 -3.0292 -1.3946
   52bbb     O1 1536   5.017  10.722   7.800  0.0089 -0.2110  0.0009
   53bbb     N1 1537   5.799  10.462   7.367  0.6207  0.2310 -0.3112
   53bbb     C1 1538   5.765  10.330   7.409  0.2880  0.2249 -0.2996
   53bbb     H1 1539   5.716  10.329   7.507 -2.4461  0.4926 -1.6156
   53bbb     H2 1540   5.855  10.270   7.428 -0.7144 -1.0215  0.6122
   53bbb     C2 1541   5.912  10.518   7.441  0.1709 -0.0124 -0.5596
   53bbb     H3 1542   5.939  10.612   7.391  1.6960  0.2720  0.7272
   53bbb     H4 1543   6.003  10.460   7.418 -0.9867 -1.8305 -0.6098
   53bbb     C3 1544   5.682  10.553   7.359  0.3377  0.0352 -0.1240
   53bbb     H5 1545   5.629  10.575   7.453 -1.0219 -0.1225 -0.8404
   53bbb     H6 1546   5.607  10.520   7.287  1.8714 -1.3218 -1.1199
   53bbb     C4 1547   5.718  10.686   7.299 -0.2438  0.0952  0.6494
   53bbb     H7 1548   5.796  10.676   7.224 -0.2292 -0.7527  0.7750
   53bbb     H8 1549   5.743  10.761   7.375 -0.1307 -0.4011  1.1096
   53bbb     C5 1550   5.688  10.251   7.294  0.4831 -0.5896  0.0413
   53bbb     H9 1551   5.744  10.264   7.200 -1.9469 -2.2432 -1.7011
   53bbb    H10 1552   5.590  10.301   7.285 -0.5389 -1.7141  3.8708
   53bbb     C6 1553   5.907  10.530   7.602 -0.9694 -0.1439  0.2379
   53bbb    H11 1554   5.879  10.434   7.647  0.9683  0.1567  2.2162
   53bbb    H12 1555   5.833  10.607   7.626 -1.1467 -0.6117  1.2083
   53bbb     C7 1556   5.605  10.755   7.226  0.7162 -0.0734 -0.3356
   53bbb    H13 1557   5.589  10.692   7.137 -0.5005  1.6688 -1.3864
   53bbb    H14 1558   5.631  10.857   7.194  3.1262 -0.5686 -0.0026
   53bbb     C8 1559   6.044  10.589   7.655 -0.2904 -0.4151  0.2315
   53bbb    H15 1560   6.128  10.554   7.594  0.2460  0.6728  0.3315
   53bbb    H16 1561   6.058  10.533   7.749 -0.1279 -0.0758  0.4110
   53bbb     C9 1562   5.667  10.103   7.331 -0.6675 -0.0663 -0.1573
   53bbb    H17 1563   5.591  10.097   7.410 -0.7974  0.9261 -0.2052
   53bbb    H18 1564   5.758  10.074   7.386  0.1472  1.6485 -0.5648
   53bbb     O1 1565   5.489  10.760   7.314  0.3408  0.0110  0.3481
   54bbb     N1 1566   2.264   9.597   8.376 -0.2238  0.1314  0.0329
   54bbb     C1 1567   2.121   9.641   8.407 -0.6126  0.3278 -0.0836
   54bbb     H1 1568   2.088   9.713   8.331 -1.4700 -0.2885 -0.2949
   54bbb     H2 1569   2.123   9.696   8.503 -1.0583 -0.7869  0.5708
   54bbb     C2 1570   2.325   9.500   8.468  0.6233  0.5832 -0.4074
   54bbb     H3 1571   2.423   9.461   8.437  0.8648 -0.5995  1.7572
   54bbb     H4 1572   2.252   9.418   8.472  2.9087 -1.6416 -2.3033
   54bbb     C3 1573   2.357   9.708   8.346  0.2959  0.5651 -0.5261
   54bbb     H5 1574   2.354   9.762   8.442  1.8600  1.5537 -1.0150
   54bbb     H6 1575   2.311   9.772   8.270 -1.4958 -0.8891 -0.6838
   54bbb     C4 1576   2.502   9.675   8.314 -0.1812  0.2253 -0.0574
   54bbb     H7 1577   2.544   9.633   8.407 -1.7374 -0.1616  0.4735
   54bbb     H8 1578   2.564   9.762   8.289 -0.0111  0.0925 -0.0965
   54bbb     C5 1579   2.014   9.528   8.418  0.4883 -0.6440  0.4155
   54bbb     H9 1580   1.929   9.575   8.468  0.8442  2.1777 -1.5034
   54bbb    H10 1581   2.050   9.445   8.480  2.1499  0.1167  0.4963
   54bbb     C6 1582   2.349   9.555   8.609  0.1676 -0.3341 -0.6405
   54bbb    H11 1583   2.262   9.612   8.643  1.1770  0.3672  0.7951
   54bbb    H12 1584   2.428   9.630   8.618 -0.8003  0.4905  1.1520
   54bbb     C7 1585   2.511   9.577   8.198  0.3537 -0.2044  0.5277
   54bbb    H13 1586   2.454   9.628   8.120 -1.8548 -0.6536  1.8087
   54bbb    H14 1587   2.453   9.486   8.215 -2.4179  1.6050  1.1015
   54bbb     C8 1588   2.379   9.442   8.710  0.0234  0.2529 -0.0155
   54bbb    H15 1589   2.466   9.386   8.672  0.8925  1.6815 -0.1659
   54bbb    H16 1590   2.290   9.379   8.698 -0.5203  1.0758 -0.2619
   54bbb     C9 1591   1.965   9.466   8.278 -0.3188 -0.5075 -0.0509
   54bbb    H17 1592   2.001   9.534   8.200 -3.5356 -0.3315 -1.4643
   54bbb    H18 1593   1.856   9.473   8.272 -0.2189  0.4915 -0.7990
   54bbb     O1 1594   2.645   9.534   8.162 -0.0534  0.2192  0.0305
   55bbb     N1 1595   3.098   9.749   9.023  0.1582 -0.5231  0.4565
   55bbb     C1 1596   3.220   9.822   9.055  0.5220  0.0214  0.0443
   55bbb     H1 1597   3.195   9.924   9.088  1.7448  0.6499 -0.8924
   55bbb     H2 1598   3.288   9.835   8.969  0.8760 -0.7942  0.1979
   55bbb     C2 1599   2.995   9.824   8.935  0.0329 -0.2790  0.2894
   55bbb     H3 1600   2.904   9.764   8.925  0.6209 -0.7428 -2.4779
   55bbb     H4 1601   3.039   9.843   8.837  1.4167 -0.6278  0.8330
   55bbb     C3 1602   3.122   9.600   8.976 -0.4290  0.2069  0.3923
   55bbb     H5 1603   3.031   9.544   8.950 -0.7598  0.7272  0.4344
   55bbb     H6 1604   3.154   9.539   9.061 -1.2849  1.9795  2.0318
   55bbb     C4 1605   3.205   9.600   8.851 -0.0656  0.0667  0.3780
   55bbb     H7 1606   3.310   9.614   8.880 -0.2435  0.0770  1.0287
   55bbb     H8 1607   3.178   9.678   8.779 -0.1549  0.4883  0.8622
   55bbb     C5 1608   3.299   9.757   9.174 -0.2888  0.3519  0.0205
   55bbb     H9 1609   3.337   9.658   9.146  0.1629  0.0430  1.7188
   55bbb    H10 1610   3.226   9.731   9.251  0.1305  0.7650  0.5559
   55bbb     C6 1611   2.945   9.964   9.002 -0.6641 -0.2662  0.7526
   55bbb    H11 1612   3.032  10.030   9.011 -0.7625 -0.2923  2.0247
   55bbb    H12 1613   2.911   9.958   9.106 -2.0071  2.2481  0.4918
   55bbb     C7 1614   3.206   9.466   8.774  0.2698  0.3035 -0.8480
   55bbb    H13 1615   3.109   9.463   8.722  0.4923 -0.1242 -1.2387
   55bbb    H14 1616   3.224   9.376   8.833  0.2923  0.0528 -1.2346
   55bbb     C8 1617   2.831  10.035   8.930  0.0454  0.0614 -0.0746
   55bbb    H15 1618   2.861  10.071   8.831 -1.1139 -0.0699 -0.4864
   55bbb    H16 1619   2.799  10.121   8.991 -0.9935 -0.0052 -0.5211
   55bbb     C9 1620   3.397   9.847   9.244  0.0654  0.6762 -0.1481
   55bbb    H17 1621   3.356   9.948   9.257  1.5613  1.3908 -0.9099
   55bbb    H18 1622   3.474   9.864   9.168  0.7596  2.0220  0.8319
   55bbb     O1 1623   3.317   9.463   8.681 -0.1443  0.3593  0.0757
   56bbb     N1 1624   3.436   9.628   6.586 -0.6566 -0.0924  0.2626
   56bbb     C1 1625   3.293   9.664   6.555 -0.3069  0.8506 -0.0456
   56bbb     H1 1626   3.282   9.695   6.451 -3.1090  0.6613  0.1720
   56bbb     H2 1627   3.267   9.753   6.612 -1.5837  0.7561 -0.4736
   56bbb     C2 1628   3.535   9.709   6.505 -0.2583  0.2082 -0.3958
   56bbb     H3 1629   3.638   9.682   6.535 -0.5578  1.4267  1.8195
   56bbb     H4 1630   3.523   9.812   6.541 -1.9716  0.5794 -1.9957
   56bbb     C3 1631   3.470   9.599   6.727 -0.2718 -0.5673  0.5451
   56bbb     H5 1632   3.381   9.555   6.775 -2.2543  1.4329 -1.1996
   56bbb     H6 1633   3.490   9.693   6.780  0.7942 -0.1505 -0.5948
   56bbb     C4 1634   3.587   9.505   6.730 -0.4257 -0.6380 -0.5199
   56bbb     H7 1635   3.682   9.543   6.691  1.1779 -1.3434  2.5931
   56bbb     H8 1636   3.561   9.413   6.677  2.2894  0.5956 -4.2103
   56bbb     C5 1637   3.193   9.555   6.593 -0.7569  0.2544  0.0119
   56bbb     H9 1638   3.220   9.514   6.691 -0.7775 -2.5361 -1.0939
   56bbb    H10 1639   3.198   9.469   6.524 -1.3126 -0.7998  1.2531
   56bbb     C6 1640   3.521   9.687   6.355  0.0089 -0.5353 -0.0837
   56bbb    H11 1641   3.612   9.732   6.315 -0.5500  0.9756  0.2881
   56bbb    H12 1642   3.433   9.739   6.316 -0.0890 -0.0980  0.7046
   56bbb     C7 1643   3.626   9.461   6.872  0.6910  0.2466 -0.7304
   56bbb    H13 1644   3.647   9.552   6.930 -2.6084  0.8758 -0.3746
   56bbb    H14 1645   3.711   9.392   6.870  0.7863  0.3175  0.3420
   56bbb     C8 1646   3.504   9.541   6.296 -0.5885 -0.0291 -0.5686
   56bbb    H15 1647   3.404   9.516   6.333 -0.7559 -0.5525 -1.3726
   56bbb    H16 1648   3.577   9.473   6.342 -0.1756 -0.4494 -1.8228
   56bbb     C9 1649   3.046   9.595   6.613 -0.2167 -0.1886 -1.0761
   56bbb    H17 1650   3.002   9.633   6.521 -2.9452  2.6370  1.2826
   56bbb    H18 1651   3.036   9.681   6.680  2.1667  0.9945 -2.1871
   56bbb     O1 1652   3.506   9.403   6.924 -0.4669 -0.3431  0.0154
   57bbb     N1 1653   3.998   8.430   7.524 -0.3406  0.2982  0.1528
   57bbb     C1 1654   3.877   8.352   7.485  0.1971 -0.1234 -0.2051
   57bbb     H1 1655   3.866   8.355   7.376 -0.0991 -0.7857 -0.1995
   57bbb     H2 1656   3.787   8.398   7.527  2.2151 -0.2595  4.5397
   57bbb     C2 1657   4.123   8.366   7.481 -0.4220 -0.0685  0.4368
   57bbb     H3 1658   4.135   8.353   7.373 -2.6686 -2.6835  0.4618
   57bbb     H4 1659   4.136   8.264   7.518 -1.0570 -0.2262  0.2199
   57bbb     C3 1660   3.988   8.569   7.484  0.2812 -0.1767 -0.0697
   57bbb     H5 1661   4.022   8.581   7.380  1.7982  0.8740  0.5338
   57bbb     H6 1662   4.056   8.638   7.536  1.8219  0.6673 -3.0983
   57bbb     C4 1663   3.845   8.632   7.491 -0.2832  0.6459  0.0474
   57bbb     H7 1664   3.793   8.621   7.587 -0.5682 -2.6818 -0.4170
   57bbb     H8 1665   3.783   8.580   7.416  1.1547 -0.9642 -0.0471
   57bbb     C5 1666   3.882   8.205   7.523  0.5790 -0.3938  0.1531
   57bbb     H9 1667   3.902   8.194   7.630 -0.2957 -0.0292  0.3591
   57bbb    H10 1668   3.970   8.156   7.479  1.2321  0.0553  0.9561
   57bbb     C6 1669   4.253   8.437   7.518 -0.3787  0.2222  0.5614
   57bbb    H11 1670   4.285   8.416   7.621 -1.2979 -0.5191  0.7017
   57bbb    H12 1671   4.239   8.545   7.531 -1.5275  0.0554  0.7089
   57bbb     C7 1672   3.860   8.778   7.440 -0.7787 -0.5378  0.1961
   57bbb    H13 1673   3.899   8.768   7.338 -3.7021 -0.7659 -0.9616
   57bbb    H14 1674   3.927   8.839   7.502 -2.7007  1.4110  0.4046
   57bbb     C8 1675   4.374   8.417   7.418 -0.2380  0.1666  0.1096
   57bbb    H15 1676   4.451   8.494   7.426  1.5726 -1.2502 -2.7704
   57bbb    H16 1677   4.321   8.436   7.323 -0.2029 -0.5188 -0.0479
   57bbb     C9 1678   3.751   8.131   7.478 -0.4325 -0.0192  0.4380
   57bbb    H17 1679   3.662   8.175   7.525  0.7232 -0.1510  2.8388
   57bbb    H18 1680   3.758   8.026   7.508  0.5226 -0.6547 -1.9257
   57bbb     O1 1681   3.727   8.833   7.438 -0.4511 -0.5762 -0.2352
   58bbb     N1 1682   3.160  11.283   7.261  0.6232 -0.6976 -0.0328
   58bbb     C1 1683   3.087  11.170   7.199 -0.3522  0.4454  0.2030
   58bbb     H1 1684   3.008  11.203   7.132 -1.7112 -1.8303  0.6424
   58bbb     H2 1685   3.033  11.113   7.276  1.2328 -1.2574  0.0862
   58bbb     C2 1686   3.236  11.366   7.163 -0.5862  0.5765  0.0366
   58bbb     H3 1687   3.165  11.418   7.098  1.8155  1.0777 -2.2293
   58bbb     H4 1688   3.303  11.301   7.106 -1.5453 -0.5535  0.1671
   58bbb     C3 1689   3.082  11.371   7.350  0.5307 -0.5791 -0.0428
   58bbb     H5 1690   2.993  11.405   7.297  0.0548 -0.5507  0.7654
   58bbb     H6 1691   3.129  11.464   7.384  0.0878  0.2263 -1.6088
   58bbb     C4 1692   3.027  11.293   7.467  0.4981 -0.2631 -0.2099
   58bbb     H7 1693   3.107  11.226   7.500 -0.3571 -0.5406  1.3680
   58bbb     H8 1694   2.942  11.227   7.446  0.3557  0.0992 -0.7799
   58bbb     C5 1695   3.193  11.061   7.134  0.0261 -0.3825  0.4286
   58bbb     H9 1696   3.239  11.116   7.051 -1.3143  1.0071  0.5850
   58bbb    H10 1697   3.142  10.977   7.085  1.5822 -0.3478 -1.3034
   58bbb     C6 1698   3.330  11.476   7.221 -0.5135  0.1107  0.5032
   58bbb    H11 1699   3.267  11.560   7.253 -1.3062  0.0634 -0.8745
   58bbb    H12 1700   3.387  11.514   7.135 -2.3566 -1.4358 -1.4684
   58bbb     C7 1701   2.993  11.390   7.582 -0.2140 -0.4904  0.3515
   58bbb    H13 1702   2.905  11.448   7.552  0.8964  1.5270  0.8457
   58bbb    H14 1703   3.078  11.457   7.602 -1.3864  0.6451  1.6420
   58bbb     C8 1704   3.415  11.426   7.340 -0.4114  0.4387  0.0505
   58bbb    H15 1705   3.471  11.338   7.306  0.5438  0.6860  0.9561
   58bbb    H16 1706   3.347  11.398   7.421  0.7771 -1.9876  0.2712
   58bbb     C9 1707   3.288  10.989   7.228 -0.1674 -0.1384 -0.8757
   58bbb    H17 1708   3.227  10.930   7.297 -1.1803  1.9519  0.0887
   58bbb    H18 1709   3.341  11.065   7.286 -1.2905  0.7066 -0.9285
   58bbb     O1 1710   2.970  11.309   7.692  0.3941  0.7291 -0.0696
   59bbb     N1 1711   3.620  11.358   8.700 -0.2883 -0.4431  0.6033
   59bbb     C1 1712   3.648  11.374   8.845 -0.1715  0.1047  0.0372
   59bbb     H1 1713   3.618  11.286   8.903 -2.2490 -0.4710 -1.8529
   59bbb     H2 1714   3.592  11.462   8.878  2.3372  1.1553  1.6690
   59bbb     C2 1715   3.664  11.475   8.617  0.6090 -0.6965  0.5017
   59bbb     H3 1716   3.644  11.447   8.513  0.4939  0.6304  0.1488
   59bbb     H4 1717   3.772  11.493   8.627  0.6821 -1.3960  1.0222
   59bbb     C3 1718   3.643  11.221   8.650 -0.6627  0.5458  0.5331
   59bbb     H5 1719   3.614  11.151   8.730 -1.0095  0.6896  0.5330
   59bbb     H6 1720   3.748  11.197   8.629 -0.9840 -1.3170  0.9616
   59bbb     C4 1721   3.561  11.192   8.526  0.1251 -1.3034  0.5710
   59bbb     H7 1722   3.574  11.083   8.517 -0.5923 -1.4733  1.4790
   59bbb     H8 1723   3.603  11.227   8.431  2.4072  0.7832  2.2956
   59bbb     C5 1724   3.794  11.411   8.887 -0.0202  0.3943 -0.5601
   59bbb     H9 1725   3.825  11.504   8.838  2.1356  0.7006  1.2906
   59bbb    H10 1726   3.856  11.327   8.854  0.1858  0.6162 -0.7363
   59bbb     C6 1727   3.586  11.609   8.638 -1.2140 -0.3527  0.5812
   59bbb    H11 1728   3.648  11.699   8.628 -2.1798  0.4677  1.9066
   59bbb    H12 1729   3.549  11.607   8.741  0.6472  1.9324  1.3337
   59bbb     C7 1730   3.407  11.222   8.519 -0.1556 -0.6395  0.1830
   59bbb    H13 1731   3.398  11.331   8.507 -0.1432 -0.5658  0.8722
   59bbb    H14 1732   3.363  11.188   8.613 -2.4003 -0.1880 -0.6751
   59bbb     C8 1733   3.473  11.635   8.529  0.2772 -0.3029 -0.1440
   59bbb    H15 1734   3.424  11.540   8.507 -0.2234  0.4111 -2.2765
   59bbb    H16 1735   3.517  11.665   8.433 -0.6184 -1.9830 -1.0900
   59bbb     C9 1736   3.808  11.417   9.043  0.4754  0.0171  0.4609
   59bbb    H17 1737   3.794  11.315   9.083 -1.8813  0.7918  1.7561
   59bbb    H18 1738   3.719  11.470   9.080 -2.0844 -2.4747 -1.9325
   59bbb     O1 1739   3.347  11.157   8.408 -0.1515  0.4283 -0.1852
   60bbb     N1 1740   2.565  11.695   6.458  0.6851  0.2365  0.4572
   60bbb     C1 1741   2.579  11.766   6.324 -0.1445  0.5196  0.1592
   60bbb     H1 1742   2.559  11.873   6.333  1.8679  0.9060  0.4042
   60bbb     H2 1743   2.504  11.719   6.260  0.3877 -0.1589  0.0208
   60bbb     C2 1744   2.421  11.654   6.481  0.0580  0.1309 -0.0751
   60bbb     H3 1745   2.403  11.577   6.558 -0.1150  1.5008  1.2849
   60bbb     H4 1746   2.380  11.610   6.389 -0.1033  0.5130 -0.1873
   60bbb     C3 1747   2.642  11.754   6.571  0.1341  0.0838 -0.8979
   60bbb     H5 1748   2.599  11.849   6.604  0.2714 -0.9601  2.4219
   60bbb     H6 1749   2.743  11.768   6.529 -0.3104 -0.9905 -2.3931
   60bbb     C4 1750   2.655  11.665   6.696  0.5044 -0.8812  0.1120
   60bbb     H7 1751   2.562  11.660   6.753 -0.9683 -2.0754 -2.3101
   60bbb     H8 1752   2.724  11.714   6.766 -0.7178  0.7565  0.2098
   60bbb     C5 1753   2.717  11.749   6.256  0.7136  0.1341 -0.4816
   60bbb     H9 1754   2.795  11.772   6.330  0.9617  1.2210 -1.0655
   60bbb    H10 1755   2.715  11.823   6.175  2.2718  1.5287  0.7139
   60bbb     C6 1756   2.324  11.760   6.539 -0.1542  0.2127  0.0000
   60bbb    H11 1757   2.371  11.810   6.625  2.3098  0.1750 -1.2996
   60bbb    H12 1758   2.236  11.704   6.574  0.1938  0.7958  1.9154
   60bbb     C7 1759   2.714  11.522   6.662  0.3346  0.6124  0.2819
   60bbb    H13 1760   2.805  11.531   6.602 -1.0513  0.2158 -1.9183
   60bbb    H14 1761   2.638  11.472   6.601  1.0051  0.1701 -0.2024
   60bbb     C8 1762   2.275  11.873   6.445  0.0608 -1.0695  0.0282
   60bbb    H15 1763   2.363  11.935   6.428 -1.2788  1.0569  0.6537
   60bbb    H16 1764   2.189  11.922   6.494  0.5921 -0.5130  0.4133
   60bbb     C9 1765   2.761  11.610   6.196  0.1094 -0.2025 -0.6405
   60bbb    H17 1766   2.679  11.590   6.126 -0.3231 -0.5014 -0.0585
   60bbb    H18 1767   2.761  11.529   6.269  0.7291  0.2271 -0.1573
   60bbb     O1 1768   2.745  11.446   6.784  0.4313 -0.1520 -0.0977
   61bbb     N1 1769   2.589  10.424   6.905 -0.7303  0.2493 -0.4557
   61bbb     C1 1770   2.469  10.502   6.856 -0.0134  0.9929 -0.3910
   61bbb     H1 1771   2.386  10.492   6.927  0.1862  2.2379  0.0199
   61bbb     H2 1772   2.436  10.460   6.759 -0.2083  0.9670 -0.3139
   61bbb     C2 1773   2.572  10.280   6.886 -0.6898 -0.7536 -0.4099
   61bbb     H3 1774   2.670  10.235   6.907 -0.8880  0.3477  3.3584
   61bbb     H4 1775   2.542  10.269   6.781  0.3835  1.8674 -1.0326
   61bbb     C3 1776   2.630  10.465   7.043 -0.0565  0.0553  0.0477
   61bbb     H5 1777   2.547  10.453   7.113  0.5193  1.1043  0.9063
   61bbb     H6 1778   2.649  10.573   7.039  1.4082 -0.1617  0.6102
   61bbb     C4 1779   2.757  10.401   7.100 -0.0339  0.5909 -0.0078
   61bbb     H7 1780   2.730  10.297   7.122  0.1726 -0.0369 -2.6248
   61bbb     H8 1781   2.778  10.445   7.199  1.3919 -0.2694  0.0845
   61bbb     C5 1782   2.488  10.650   6.827  0.2868  0.1954  0.0730
   61bbb     H9 1783   2.564  10.674   6.751  0.4930  0.2130  0.2856
   61bbb    H10 1784   2.521  10.704   6.916 -2.2354  1.0307  0.5198
   61bbb     C6 1785   2.464  10.202   6.969  0.5778  0.2928 -0.0952
   61bbb    H11 1786   2.399  10.266   7.031  0.9344  0.7260 -0.1610
   61bbb    H12 1787   2.516  10.140   7.043  3.1848 -1.1987 -3.0558
   61bbb     C7 1788   2.879  10.439   7.015 -0.5717  0.5556 -0.2638
   61bbb    H13 1789   2.871  10.391   6.917 -2.1752  0.9070 -0.3184
   61bbb    H14 1790   2.968  10.391   7.058 -0.3647  2.0182  0.9883
   61bbb     C8 1791   2.373  10.111   6.880 -0.4798 -0.5420  0.6019
   61bbb    H15 1792   2.427  10.016   6.875  1.4979  0.6026 -0.5401
   61bbb    H16 1793   2.370  10.153   6.779  0.9653  1.6710  1.4417
   61bbb     C9 1794   2.347  10.711   6.789 -0.2688  0.2830  0.3140
   61bbb    H17 1795   2.278  10.720   6.874 -1.0836  2.3115 -0.5471
   61bbb    H18 1796   2.296  10.643   6.720 -1.9142  1.4489  0.3323
   61bbb     O1 1797   2.898  10.584   7.006 -0.1837 -0.1127 -0.6085
   62ccc     C1 1798   5.277  10.455   7.332 -0.5443 -0.0102 -0.4752
   62ccc     H1 1799   5.248  10.560   7.314 -3.0445 -0.6204 -0.0963
   62ccc     H2 1800   5.366  10.458   7.396 -1.4463  0.1020  0.7928
   62ccc     C2 1801   5.297  10.390   7.195 -0.8625 -0.0118  0.2308
   62ccc     H3 1802   5.193  10.390   7.160 -0.5595  1.4848 -0.7120
   62ccc     H4 1803   5.355  10.297   7.198  1.6762  1.3469 -3.4088
   62ccc     C3 1804   5.371  10.474   7.092  0.1553  0.1026 -0.9851
   62ccc     H5 1805   5.476  10.478   7.122 -0.3436  1.5945  0.6515
   62ccc     H6 1806   5.325  10.574   7.089  0.2647  0.2525  1.3660
   62ccc     N1 1807   5.363  10.427   6.954  0.1504 -0.0252 -0.1670
   62ccc     C4 1808   5.236  10.458   6.887  0.6432 -0.1397  0.4056
   62ccc     H7 1809   5.249  10.564   6.867  1.3931  0.3293  3.1462
   62ccc     H8 1810   5.150  10.444   6.955 -0.1799  0.3168 -0.5270
   62ccc     C5 1811   5.209  10.388   6.757 -0.2414 -0.1933  0.3611
   62ccc     H9 1812   5.298  10.354   6.703 -0.8034 -1.8694  0.4397
   62ccc    H10 1813   5.151  10.454   6.691  1.8715  0.2273 -1.1348
   62ccc     C6 1814   5.122  10.268   6.780 -0.3706 -0.4962 -0.3323
   62ccc     O1 1815   5.002  10.278   6.802  0.2278 -0.2217 -0.3726
   62ccc     O2 1816   5.185  10.174   6.853 -0.1880 -1.1325  0.6379
   62ccc    H11 1817   5.277  10.180   6.819  0.6811 -0.1205  3.0933
   62ccc     C7 1818   5.485  10.446   6.872  0.2506  0.0277  0.3020
   62ccc    H12 1819   5.539  10.535   6.907  2.7686 -1.5900  0.6623
   62ccc    H13 1820   5.467  10.462   6.765  1.1978  0.4058  0.1939
   62ccc     C8 1821   5.587  10.327   6.879  0.4441  0.3387 -0.6431
   62ccc    H14 1822   5.685  10.359   6.840  0.3872  1.7685  0.3454
   62ccc    H15 1823   5.602  10.301   6.984  0.8263 -0.4508 -0.8924
   62ccc     C9 1824   5.542  10.204   6.801 -0.7765  0.3089 -0.7599
   62ccc     O3 1825   5.427  10.174   6.779 -0.0873 -0.1568 -0.1842
   62ccc     O4 1826   5.637  10.153   6.723  0.2546  0.0051 -0.0799
   62ccc    H16 1827   5.722  10.187   6.756  0.4103 -0.0155 -0.4664
   62ccc     O5 1828   5.170  10.373   7.396  0.4794 -0.4068  0.2345
   63ccc     C1 1829   4.731  10.507   8.386 -0.1751  0.0348 -0.0139
   63ccc     H1 1830   4.730  10.615   8.399 -3.1093  0.1408 -0.8839
   63ccc     H2 1831   4.628  10.475   8.365  0.3188 -0.9558 -1.0434
   63ccc     C2 1832   4.778  10.431   8.513  0.0067  0.3678 -0.3086
   63ccc     H3 1833   4.881  10.464   8.535  0.5723 -2.9479  2.4499
   63ccc     H4 1834   4.786  10.322   8.504  1.5947  0.2791  1.6621
   63ccc     C3 1835   4.691  10.461   8.639  0.4602 -0.7362  0.3641
   63ccc     H5 1836   4.754  10.434   8.725  1.5511  1.3739  0.2620
   63ccc     H6 1837   4.598  10.403   8.634 -0.3283  0.3410  2.1993
   63ccc     N1 1838   4.629  10.599   8.645 -0.0838  0.2560 -0.5442
   63ccc     C4 1839   4.711  10.688   8.736  0.4294  0.2542 -0.3286
   63ccc     H7 1840   4.804  10.633   8.758 -0.0192  0.5924  2.5904
   63ccc     H8 1841   4.664  10.720   8.830 -1.0506 -0.8292 -0.6913
   63ccc     C5 1842   4.737  10.823   8.672  0.1716 -0.4160  0.6901
   63ccc     H9 1843   4.780  10.823   8.571 -1.0885  0.7732  0.1357
   63ccc    H10 1844   4.642  10.876   8.660  0.2623 -0.4276 -0.1180
   63ccc     C6 1845   4.821  10.916   8.768  0.5846 -0.2874 -0.2729
   63ccc     O1 1846   4.936  10.896   8.798 -0.9297 -0.2869  0.5170
   63ccc     O2 1847   4.753  11.005   8.842 -0.2810 -0.1656  1.0326
   63ccc    H11 1848   4.663  11.000   8.803  0.9235  1.4516 -2.1967
   63ccc     C7 1849   4.485  10.629   8.686  0.2600  0.5427 -0.4456
   63ccc    H12 1850   4.473  10.615   8.794 -0.5149  1.7262 -0.3684
   63ccc    H13 1851   4.465  10.735   8.668  4.3550  1.3148 -0.7488
   63ccc     C8 1852   4.378  10.549   8.614  0.0351  0.6022  0.3754
   63ccc    H14 1853   4.360  10.584   8.511 -1.8367 -0.6525  0.2428
   63ccc    H15 1854   4.412  10.446   8.602  3.2855  1.4744  1.6185
   63ccc     C9 1855   4.238  10.558   8.665  0.3500  0.0612 -0.3783
   63ccc     O3 1856   4.158  10.644   8.631 -0.3243  0.5016  0.2311
   63ccc     O4 1857   4.217  10.513   8.788  0.3772 -0.1602  0.2947
   63ccc    H16 1858   4.294  10.454   8.786 -0.5321 -1.4045  1.4620
   63ccc     O5 1859   4.809  10.450   8.276 -0.2623 -0.1835  0.3096
   64ccc     C1 1860   4.332  10.295   6.653  0.2245  0.4280 -0.1354
   64ccc     H1 1861   4.334  10.187   6.638 -0.7156  0.3176  0.4762
   64ccc     H2 1862   4.286  10.317   6.750  1.9123  0.5724  0.6325
   64ccc     C2 1863   4.252  10.354   6.532  0.4424 -0.1717 -0.8039
   64ccc     H3 1864   4.304  10.314   6.445 -0.1398 -0.6177 -0.9532
   64ccc     H4 1865   4.254  10.463   6.527  0.8513  0.1780  4.3648
   64ccc     C3 1866   4.100  10.306   6.530 -0.0368 -0.5250  0.1908
   64ccc     H5 1867   4.034  10.375   6.583  1.4538  1.2148 -0.1477
   64ccc     H6 1868   4.098  10.207   6.575  3.0623 -1.9337 -2.5076
   64ccc     N1 1869   4.046  10.269   6.395  0.0846 -0.4650  0.0390
   64ccc     C4 1870   3.910  10.217   6.404 -0.3855  0.1230 -1.0873
   64ccc     H7 1871   3.864  10.214   6.304  2.1221 -0.6258 -2.2398
   64ccc     H8 1872   3.857  10.289   6.468  0.2566  0.1531 -0.5842
   64ccc     C5 1873   3.882  10.077   6.470  0.8722 -0.6774 -0.0755
   64ccc     H9 1874   3.929  10.000   6.407 -0.4114 -3.5513  2.3583
   64ccc    H10 1875   3.936  10.061   6.565 -0.8095 -2.8359  0.5644
   64ccc     C6 1876   3.730  10.043   6.484 -0.0986  0.0554  0.2791
   64ccc     O1 1877   3.665  10.020   6.387  0.7385 -0.0161 -0.0590
   64ccc     O2 1878   3.677  10.090   6.600  0.0844 -0.2001 -0.2540
   64ccc    H11 1879   3.756  10.122   6.648 -0.4184 -0.3234  0.6687
   64ccc     C7 1880   4.068  10.355   6.279  0.3575  0.2389 -0.2595
   64ccc    H12 1881   4.174  10.383   6.278  0.6875 -0.8280  1.8674
   64ccc    H13 1882   4.052  10.305   6.183  2.2744  1.9779 -1.5062
   64ccc     C8 1883   3.972  10.474   6.278  0.3482  0.9022  0.1675
   64ccc    H14 1884   3.976  10.522   6.376 -0.6814 -0.7343  1.0428
   64ccc    H15 1885   3.870  10.433   6.274  0.3633  0.9432 -1.0909
   64ccc     C9 1886   3.989  10.570   6.166 -0.2606 -0.1191 -0.9359
   64ccc     O3 1887   4.079  10.646   6.150 -0.1933 -0.2676 -0.3100
   64ccc     O4 1888   3.912  10.552   6.058 -0.6113 -0.3373 -0.0048
   64ccc    H16 1889   3.853  10.477   6.078 -1.2520 -0.8122 -3.3322
   64ccc     O5 1890   4.463  10.345   6.631  0.6116  0.0346  0.3041
   65ccc     C1 1891   4.547  10.836   6.343 -0.1829  0.3058  0.1616
   65ccc     H1 1892   4.520  10.733   6.372 -1.1908  1.1320  2.2378
   65ccc     H2 1893   4.502  10.899   6.420  1.2870 -1.4944  2.5815
   65ccc     C2 1894   4.492  10.864   6.202 -0.0377 -0.2481  0.2377
   65ccc     H3 1895   4.383  10.864   6.212  0.0146 -0.7160  0.8534
   65ccc     H4 1896   4.517  10.779   6.136  0.6648  0.1715 -0.0420
   65ccc     C3 1897   4.532  11.003   6.143  0.6728  0.1497  0.1273
   65ccc     H5 1898   4.640  10.993   6.132  0.3161 -3.0911 -0.9186
   65ccc     H6 1899   4.513  11.082   6.217  0.6863 -1.3481  1.7459
   65ccc     N1 1900   4.467  11.046   6.016  0.3441 -0.3669  0.4880
   65ccc     C4 1901   4.491  10.955   5.903  0.2066 -0.3919  0.9188
   65ccc     H7 1902   4.437  10.997   5.818  0.9802 -0.3712  0.4373
   65ccc     H8 1903   4.457  10.851   5.916  1.3856 -1.0667 -1.1545
   65ccc     C5 1904   4.641  10.946   5.864  1.0303 -0.1716 -0.4188
   65ccc     H9 1905   4.663  11.021   5.787 -3.2927 -0.4036 -1.9934
   65ccc    H10 1906   4.699  10.968   5.955 -1.6989  1.0151  1.0939
   65ccc     C6 1907   4.689  10.809   5.810 -0.1246 -0.1387  0.0875
   65ccc     O1 1908   4.613  10.716   5.805 -0.0198 -1.0538 -0.1655
   65ccc     O2 1909   4.815  10.790   5.834 -0.4063  0.1720 -0.2111
   65ccc    H11 1910   4.851  10.876   5.807  0.2338 -0.7651 -2.4350
   65ccc     C7 1911   4.319  11.076   6.025  0.3613  0.0402  0.1871
   65ccc    H12 1912   4.262  10.998   6.078  0.9436  1.2016  2.6281
   65ccc    H13 1913   4.282  11.091   5.923  1.0489 -0.8180 -0.1960
   65ccc     C8 1914   4.290  11.207   6.100 -0.9458  0.3627 -0.7545
   65ccc    H14 1915   4.342  11.202   6.197 -0.0889 -1.5697 -1.2790
   65ccc    H15 1916   4.329  11.298   6.054  0.8606 -1.5133 -3.0505
   65ccc     C9 1917   4.143  11.219   6.124  0.2468 -0.1885  0.1267
   65ccc     O3 1918   4.060  11.145   6.072 -0.1675 -0.2160 -0.7252
   65ccc     O4 1919   4.103  11.318   6.203  0.7236  0.3178  0.3377
   65ccc    H16 1920   4.189  11.362   6.219 -0.7270  3.8070 -0.9991
   65ccc     O5 1921   4.689  10.862   6.344 -0.3308  0.1416  0.4251
   66ccc     C1 1922   3.518  10.138   5.840 -0.1875 -0.2212  0.1759
   66ccc     H1 1923   3.524  10.083   5.746  1.2403  1.5545 -0.8063
   66ccc     H2 1924   3.431  10.104   5.898 -0.5289 -2.1534 -1.4160
   66ccc     C2 1925   3.480  10.282   5.813 -0.7523  0.3537  0.5090
   66ccc     H3 1926   3.460  10.339   5.905 -1.5413  0.2178  0.4285
   66ccc     H4 1927   3.378  10.262   5.777 -1.7496  0.1537  3.2896
   66ccc     C3 1928   3.574  10.359   5.713 -0.2778  0.4317 -0.5805
   66ccc     H5 1929   3.569  10.322   5.610 -1.1350 -2.4518  0.4411
   66ccc     H6 1930   3.677  10.352   5.750 -0.3330 -2.1361 -0.8576
   66ccc     N1 1931   3.536  10.504   5.716  0.4370  0.1734  0.1862
   66ccc     C4 1932   3.651  10.593   5.695  0.5755  0.4485 -0.2525
   66ccc     H7 1933   3.700  10.551   5.606 -1.1962  0.6672 -1.3663
   66ccc     H8 1934   3.609  10.690   5.669  0.5025  0.4995  0.0569
   66ccc     C5 1935   3.759  10.600   5.810  0.0185 -0.2746  0.9028
   66ccc     H9 1936   3.721  10.621   5.911  0.8257 -0.4599  1.2478
   66ccc    H10 1937   3.811  10.503   5.812  2.0702  0.6816 -2.7876
   66ccc     C6 1938   3.864  10.710   5.788 -0.4332 -1.1448  0.0291
   66ccc     O1 1939   3.881  10.767   5.680  0.0473 -0.0617  0.3254
   66ccc     O2 1940   3.983  10.686   5.847 -0.3103 -0.1458  0.4249
   66ccc    H11 1941   3.965  10.639   5.930  0.6253 -2.3511 -0.5613
   66ccc     C7 1942   3.415  10.524   5.626 -0.6026 -1.2782 -0.4696
   66ccc    H12 1943   3.441  10.506   5.521 -0.9628  0.7018 -0.9156
   66ccc    H13 1944   3.345  10.444   5.654 -0.4038 -1.4717 -0.5227
   66ccc     C8 1945   3.341  10.662   5.640  0.2873 -0.3356  0.5717
   66ccc    H14 1946   3.403  10.746   5.608 -0.8145  0.4751  0.5371
   66ccc    H15 1947   3.324  10.683   5.746  0.8644 -1.0943  0.8238
   66ccc     C9 1948   3.202  10.672   5.575 -1.0801 -0.7946 -0.3367
   66ccc     O3 1949   3.129  10.582   5.560  0.4587 -0.0792  0.1675
   66ccc     O4 1950   3.161  10.798   5.551  0.7143 -0.4389 -0.7631
   66ccc    H16 1951   3.247  10.840   5.568  0.5890 -0.5266  0.1338
   66ccc     O5 1952   3.643  10.121   5.917  0.8165  0.0101  0.6854
   67ccc     C1 1953   4.386   9.901   6.458  0.2865 -0.7309 -0.1038
   67ccc     H1 1954   4.339   9.965   6.534  1.0404 -0.6138  0.2645
   67ccc     H2 1955   4.345   9.800   6.470  0.9008 -1.0611 -0.7649
   67ccc     C2 1956   4.538   9.901   6.489  0.2660  0.3551  0.1312
   67ccc     H3 1957   4.581   9.993   6.446 -3.9581  1.1990 -2.5614
   67ccc     H4 1958   4.573   9.815   6.431  1.0639  0.9823 -0.3409
   67ccc     C3 1959   4.583   9.877   6.631  0.5199  0.0403  0.0535
   67ccc     H5 1960   4.512   9.804   6.673  0.3645  0.4048  0.4257
   67ccc     H6 1961   4.579   9.962   6.699 -0.5429  0.0617 -0.0258
   67ccc     N1 1962   4.717   9.810   6.646 -0.6377  0.4124  0.2166
   67ccc     C4 1963   4.757   9.770   6.783 -0.1729  0.6798 -0.1534
   67ccc     H7 1964   4.784   9.854   6.848  2.8797  0.1037 -0.5816
   67ccc     H8 1965   4.846   9.707   6.772  0.1670  1.1697 -0.2116
   67ccc     C5 1966   4.649   9.675   6.845  0.3770  0.3161  0.6325
   67ccc     H9 1967   4.546   9.711   6.851  0.1378 -0.0522 -1.1570
   67ccc    H10 1968   4.643   9.583   6.787 -3.9318  0.3194  0.9503
   67ccc     C6 1969   4.673   9.643   6.991  0.0033 -0.2390 -0.3276
   67ccc     O1 1970   4.716   9.726   7.068  0.2120  0.2984 -0.2725
   67ccc     O2 1971   4.595   9.539   7.034 -0.4056  0.5773  0.4829
   67ccc    H11 1972   4.568   9.500   6.949  1.2810  0.9420 -0.2424
   67ccc     C7 1973   4.830   9.875   6.566 -0.2584 -0.0330 -0.0327
   67ccc    H12 1974   4.926   9.827   6.590 -0.5268  0.2109  1.5980
   67ccc    H13 1975   4.806   9.860   6.460  0.3083 -1.2124 -0.0071
   67ccc     C8 1976   4.843  10.024   6.597 -0.7722  0.5258  0.2862
   67ccc    H14 1977   4.748  10.078   6.583 -1.7667 -0.8962  1.3910
   67ccc    H15 1978   4.886  10.053   6.693  0.8729 -1.3712  0.1575
   67ccc     C9 1979   4.940  10.080   6.501 -0.6213  0.3636 -0.5074
   67ccc     O3 1980   4.907  10.158   6.417  0.2762 -0.2515  0.0664
   67ccc     O4 1981   5.069  10.046   6.505  0.0924  0.4140  0.2536
   67ccc    H16 1982   5.072   9.987   6.583  1.6095  0.9896  0.6524
   67ccc     O5 1983   4.379   9.943   6.316 -0.2322  0.1129 -0.1061
   68ccc     C1 1984   3.683   8.489   6.359  0.5276  0.1528  0.7578
   68ccc     H1 1985   3.746   8.414   6.310  0.1889  0.3553  0.0126
   68ccc     H2 1986   3.739   8.583   6.349  0.9763 -0.4364 -2.8611
   68ccc     C2 1987   3.542   8.507   6.297  0.4818 -0.3620 -0.7076
   68ccc     H3 1988   3.559   8.534   6.192 -2.8634 -1.0106 -1.4739
   68ccc     H4 1989   3.496   8.598   6.336  3.6776  0.5487  1.1073
   68ccc     C3 1990   3.439   8.387   6.308  0.1021  0.0836  0.0914
   68ccc     H5 1991   3.508   8.308   6.340  0.2611 -0.0448 -0.5642
   68ccc     H6 1992   3.372   8.412   6.391  1.4963 -0.0473  1.2871
   68ccc     N1 1993   3.375   8.352   6.180  0.2180  0.3057 -0.2475
   68ccc     C4 1994   3.270   8.453   6.144 -0.2345 -0.2946  0.2720
   68ccc     H7 1995   3.174   8.434   6.195 -0.0635 -0.2262  0.6192
   68ccc     H8 1996   3.303   8.555   6.167  0.8730 -0.2325 -1.5524
   68ccc     C5 1997   3.262   8.453   5.987  1.0721  0.7736 -0.1178
   68ccc     H9 1998   3.331   8.529   5.948 -1.8781  2.7532 -1.6178
   68ccc    H10 1999   3.303   8.361   5.945 -0.2498 -0.4369  1.2101
   68ccc     C6 2000   3.129   8.493   5.929  1.1613 -0.1454 -0.0864
   68ccc     O1 2001   3.031   8.519   6.002  0.4760  0.1076 -0.3983
   68ccc     O2 2002   3.134   8.546   5.806 -0.2017 -0.0282  0.1675
   68ccc    H11 2003   3.200   8.482   5.774  0.1600  0.6858 -0.5206
   68ccc     C7 2004   3.310   8.217   6.193  0.1167  0.8772  0.3549
   68ccc    H12 2005   3.244   8.208   6.280 -0.1875  1.3947  0.1829
   68ccc    H13 2006   3.245   8.202   6.105 -1.0340  0.9660  1.1724
   68ccc     C8 2007   3.410   8.101   6.192  0.0702 -0.5695  0.6009
   68ccc    H14 2008   3.355   8.007   6.178 -2.0463  0.4910  1.5836
   68ccc    H15 2009   3.455   8.090   6.292 -0.2311 -0.6301  0.7321
   68ccc     C9 2010   3.524   8.130   6.105 -0.3993 -0.5788  0.0319
   68ccc     O3 2011   3.632   8.171   6.138  0.8622  0.0505 -0.1374
   68ccc     O4 2012   3.500   8.114   5.973  0.0456 -0.4895 -0.2757
   68ccc    H16 2013   3.409   8.078   5.966 -0.5066  0.8597 -0.1190
   68ccc     O5 2014   3.662   8.463   6.503 -0.0936  0.2727 -0.2963
   69ccc     C1 2015   4.177   8.070   7.166  0.1722 -0.5189 -0.7071
   69ccc     H1 2016   4.275   8.024   7.149 -0.6749 -1.9454 -1.8443
   69ccc     H2 2017   4.185   8.142   7.249  0.4245 -1.3474 -0.0102
   69ccc     C2 2018   4.084   7.956   7.208  0.1818 -0.2136  0.4630
   69ccc     H3 2019   4.049   7.903   7.119  1.2736 -0.5995  0.2619
   69ccc     H4 2020   3.995   8.010   7.242  0.1833  0.5496 -0.7092
   69ccc     C3 2021   4.143   7.847   7.299 -0.1669 -0.1891  0.0521
   69ccc     H5 2022   4.225   7.882   7.363  0.5276 -0.7890 -0.5036
   69ccc     H6 2023   4.207   7.792   7.229  0.7329  1.3688 -0.3752
   69ccc     N1 2024   4.046   7.761   7.379  0.1596  1.1104  0.7983
   69ccc     C4 2025   3.938   7.691   7.306  0.1851  0.0172  0.0734
   69ccc     H7 2026   3.883   7.756   7.236  0.1549  1.2787  1.2408
   69ccc     H8 2027   3.858   7.657   7.373  1.5177 -2.7360  0.3202
   69ccc     C5 2028   3.986   7.559   7.246  0.1967  0.0253  0.3897
   69ccc     H9 2029   3.925   7.542   7.157 -0.2221 -1.2910  0.9175
   69ccc    H10 2030   4.088   7.570   7.207  0.6774  1.3198  1.9725
   69ccc     C6 2031   3.989   7.444   7.335  0.1585  0.7053 -0.5140
   69ccc     O1 2032   3.973   7.451   7.454  0.3588 -0.7543 -0.0021
   69ccc     O2 2033   4.011   7.327   7.275 -0.2326  0.1092  0.1953
   69ccc    H11 2034   3.989   7.341   7.181 -0.6738  0.2069  0.3150
   69ccc     C7 2035   3.996   7.829   7.497 -1.3394  0.4858  0.0621
   69ccc    H12 2036   3.916   7.898   7.467 -2.5002 -0.5993  0.6102
   69ccc    H13 2037   3.942   7.757   7.561 -0.7877 -0.1088 -0.1381
   69ccc     C8 2038   4.101   7.893   7.601  0.0926  0.1557 -0.8296
   69ccc    H14 2039   4.162   7.971   7.552  1.3143 -1.1355 -1.4122
   69ccc    H15 2040   4.039   7.941   7.677  0.9996 -0.5495  0.3760
   69ccc     C9 2041   4.190   7.795   7.672 -0.2406 -0.4616 -0.4006
   69ccc     O3 2042   4.204   7.680   7.644  0.0891 -0.3017  0.2452
   69ccc     O4 2043   4.287   7.856   7.740 -0.1178  0.5792  0.2515
   69ccc    H16 2044   4.252   7.947   7.740  0.9442  1.0016 -0.3914
   69ccc     O5 2045   4.130   8.142   7.046 -0.3529  0.4652 -0.3707
   70ccc     C1 2046   4.119   8.222   8.191  0.1267 -0.4674  0.1233
   70ccc     H1 2047   4.111   8.176   8.092 -0.6408  0.0956 -0.0777
   70ccc     H2 2048   4.173   8.158   8.261 -2.5932 -3.5595 -0.4990
   70ccc     C2 2049   3.982   8.236   8.265  0.1642 -0.5149  0.4720
   70ccc     H3 2050   3.929   8.314   8.208 -0.9717 -0.8317  1.0843
   70ccc     H4 2051   4.004   8.271   8.367 -0.5253 -3.8906  1.8451
   70ccc     C3 2052   3.899   8.103   8.269  0.6135  0.1875 -0.2867
   70ccc     H5 2053   3.809   8.111   8.332  1.5366  2.5141  0.8097
   70ccc     H6 2054   3.970   8.030   8.310  0.4096 -0.5619 -1.2572
   70ccc     N1 2055   3.856   8.044   8.146 -0.5832  0.3003  0.0132
   70ccc     C4 2056   3.766   8.136   8.070  0.8469  0.7026 -0.1935
   70ccc     H7 2057   3.746   8.228   8.125  0.1342 -0.5346  1.6418
   70ccc     H8 2058   3.668   8.090   8.059  1.2451 -0.0792 -0.5233
   70ccc     C5 2059   3.822   8.177   7.928 -0.0397  0.4960 -0.3352
   70ccc     H9 2060   3.903   8.247   7.950  1.8210 -1.4711 -0.7439
   70ccc    H10 2061   3.876   8.090   7.888  0.3953  1.1731 -1.2541
   70ccc     C6 2062   3.707   8.206   7.833 -0.1400 -0.1761 -0.4428
   70ccc     O1 2063   3.613   8.138   7.801  0.2089 -0.2473 -0.0726
   70ccc     O2 2064   3.701   8.332   7.784  0.1267  0.0003  0.6330
   70ccc    H11 2065   3.772   8.379   7.831  0.5584 -0.8828  0.8843
   70ccc     C7 2066   3.807   7.909   8.148 -0.6926  0.3280  0.0269
   70ccc    H12 2067   3.731   7.896   8.227 -1.4881  1.2423 -0.5794
   70ccc    H13 2068   3.751   7.883   8.058  0.3891 -0.9609 -0.2809
   70ccc     C8 2069   3.928   7.814   8.164  0.5995  0.1651 -0.5180
   70ccc    H14 2070   3.968   7.827   8.266 -1.2909  0.3646  0.2069
   70ccc    H15 2071   3.894   7.710   8.152  0.8285 -0.0044  0.2866
   70ccc     C9 2072   4.027   7.839   8.046 -0.6080  0.3581  0.0055
   70ccc     O3 2073   4.004   7.826   7.927 -0.1316  0.5442  0.1839
   70ccc     O4 2074   4.159   7.829   8.075 -0.2710  0.0248 -0.3907
   70ccc    H16 2075   4.167   7.830   8.172 -0.6917  0.5459 -0.3597
   70ccc     O5 2076   4.188   8.343   8.198  0.1156 -0.0525  1.1155
   71ccc     C1 2077   4.193   9.103   8.391 -0.3598  0.1545 -0.3764
   71ccc     H1 2078   4.129   9.048   8.461 -0.8154  0.2052 -0.7530
   71ccc     H2 2079   4.232   9.189   8.448  2.7753 -0.2926 -1.7413
   71ccc     C2 2080   4.112   9.151   8.275  0.5418 -0.1389 -0.1445
   71ccc     H3 2081   4.063   9.058   8.244 -1.7943  0.3035  2.1209
   71ccc     H4 2082   4.181   9.197   8.202  1.1645  1.0905  1.1984
   71ccc     C3 2083   4.015   9.257   8.319 -0.9854 -0.3043  1.0722
   71ccc     H5 2084   4.068   9.339   8.369 -1.4826 -0.2440  1.5026
   71ccc     H6 2085   3.949   9.213   8.394  0.0277 -0.7154  1.7414
   71ccc     N1 2086   3.939   9.313   8.203  0.0649 -0.1737  0.3094
   71ccc     C4 2087   4.013   9.420   8.133  0.0538 -0.0884  0.5257
   71ccc     H7 2088   3.979   9.518   8.169  0.7881  0.4758 -0.2824
   71ccc     H8 2089   4.120   9.413   8.156  0.3153  2.6620  0.3654
   71ccc     C5 2090   3.994   9.418   7.973  0.1859  0.6274  0.3356
   71ccc     H9 2091   3.909   9.482   7.947  0.7921  0.1864 -2.9738
   71ccc    H10 2092   3.964   9.317   7.941  0.3848  1.0388 -1.2107
   71ccc     C6 2093   4.120   9.463   7.904  0.4479  0.7137 -0.2030
   71ccc     O1 2094   4.190   9.390   7.836  0.5042 -0.2631 -0.8391
   71ccc     O2 2095   4.128   9.599   7.888 -0.1973  0.3914  0.0612
   71ccc    H11 2096   4.049   9.630   7.934  1.3003 -0.1908  3.2203
   71ccc     C7 2097   3.794   9.325   8.229 -0.4888  0.5728  0.4455
   71ccc    H12 2098   3.750   9.386   8.149 -2.1601 -1.8608 -0.5348
   71ccc    H13 2099   3.755   9.367   8.323 -1.5400  0.8318 -0.0957
   71ccc     C8 2100   3.734   9.190   8.201 -0.9794  0.7100  0.5984
   71ccc    H14 2101   3.760   9.150   8.103  1.1831  1.7492  0.6994
   71ccc    H15 2102   3.771   9.120   8.278 -0.3799 -1.1176 -1.3192
   71ccc     C9 2103   3.580   9.188   8.191  0.1559 -0.4864 -0.4853
   71ccc     O3 2104   3.530   9.238   8.094 -0.5664  0.1395  0.2913
   71ccc     O4 2105   3.517   9.209   8.301  0.0592  0.3455 -0.5650
   71ccc    H16 2106   3.569   9.158   8.366 -2.8211 -2.9680 -0.7003
   71ccc     O5 2107   4.301   9.024   8.345 -0.9159 -0.7578  0.0733
   72ccc     C1 2108   4.888   8.795   8.925  0.0328 -0.1504 -0.0401
   72ccc     H1 2109   4.807   8.869   8.916 -0.2838 -0.4434  0.3785
   72ccc     H2 2110   4.962   8.834   8.854 -0.7509  4.0800  1.3232
   72ccc     C2 2111   4.852   8.657   8.876 -0.6256  0.1774  0.4678
   72ccc     H3 2112   4.800   8.679   8.782 -1.1395  0.7762  0.8888
   72ccc     H4 2113   4.784   8.600   8.940 -0.4444 -0.2390  0.2971
   72ccc     C3 2114   4.977   8.568   8.835  0.0079  0.8591  0.2230
   72ccc     H5 2115   5.049   8.557   8.917  2.9112 -0.2707 -2.3562
   72ccc     H6 2116   5.031   8.615   8.752 -0.9366  1.2173 -0.1968
   72ccc     N1 2117   4.943   8.436   8.792  0.0254 -0.2017  0.4636
   72ccc     C4 2118   5.048   8.363   8.713  1.0092 -0.0410 -0.8841
   72ccc     H7 2119   5.136   8.354   8.778  0.0028  1.8468  0.8248
   72ccc     H8 2120   5.065   8.435   8.632  0.5378 -0.0292 -0.9752
   72ccc     C5 2121   5.011   8.224   8.650 -0.5912 -0.2033  0.3037
   72ccc     H9 2122   4.910   8.240   8.609 -0.0822 -0.9481 -1.2784
   72ccc    H10 2123   5.013   8.142   8.723 -1.2404  0.6118  1.2473
   72ccc     C6 2124   5.110   8.185   8.543 -0.2347 -0.0152 -0.3512
   72ccc     O1 2125   5.210   8.243   8.513 -0.1627  0.4793 -0.3085
   72ccc     O2 2126   5.085   8.059   8.503  0.3080  0.2925 -0.8074
   72ccc    H11 2127   4.994   8.050   8.537 -0.4034 -0.2237 -2.7326
   72ccc     C7 2128   4.872   8.351   8.892  0.2061 -0.3654 -0.2636
   72ccc    H12 2129   4.818   8.267   8.847  0.6722 -0.6093 -0.3724
   72ccc    H13 2130   4.793   8.405   8.945 -0.6910 -0.0871 -1.8832
   72ccc     C8 2131   4.969   8.300   9.001 -0.8941  0.1551 -0.1410
   72ccc    H14 2132   5.037   8.381   9.032 -1.0252  0.7193 -1.2773
   72ccc    H15 2133   5.031   8.219   8.961 -0.8389  1.1668 -2.2270
   72ccc     C9 2134   4.888   8.226   9.107  0.1790  0.1682 -1.1011
   72ccc     O3 2135   4.822   8.122   9.085 -0.4128 -0.4224 -0.0220
   72ccc     O4 2136   4.848   8.293   9.216  0.2427 -0.0877  0.1846
   72ccc    H16 2137   4.897   8.375   9.197 -1.3159  0.6820 -0.6517
   72ccc     O5 2138   4.944   8.771   9.060 -0.1776 -0.1241 -0.3377
   73ccc     C1 2139   5.409   9.262   9.440 -0.1486  0.4082 -0.4716
   73ccc     H1 2140   5.510   9.305   9.444 -0.3165  0.7803 -0.2271
   73ccc     H2 2141   5.338   9.336   9.478 -0.5723  0.6788 -1.7572
   73ccc     C2 2142   5.412   9.126   9.516 -0.3235 -0.2419 -0.3283
   73ccc     H3 2143   5.440   9.135   9.621 -0.8177  1.4305 -0.3120
   73ccc     H4 2144   5.499   9.076   9.471 -0.0188 -1.1965  1.3121
   73ccc     C3 2145   5.287   9.036   9.511  0.2495 -0.9238 -0.3392
   73ccc     H5 2146   5.259   9.019   9.406 -1.2681 -1.4702  0.1289
   73ccc     H6 2147   5.206   9.092   9.560  1.0750 -0.2018  0.2165
   73ccc     N1 2148   5.311   8.898   9.571 -0.0429  0.3033  0.1655
   73ccc     C4 2149   5.364   8.898   9.709 -0.0289  0.4814 -0.2656
   73ccc     H7 2150   5.467   8.934   9.722 -0.1622  1.2302 -1.2582
   73ccc     H8 2151   5.367   8.794   9.744 -0.1340 -0.4072 -2.8022
   73ccc     C5 2152   5.272   8.984   9.811 -0.0552 -0.3998  0.0136
   73ccc     H9 2153   5.256   9.085   9.771  1.3750  0.0771  0.6253
   73ccc    H10 2154   5.170   8.943   9.817  0.5950 -1.8086  1.7281
   73ccc     C6 2155   5.331   8.979   9.948  0.2437 -0.3112 -0.1520
   73ccc     O1 2156   5.432   9.043   9.976 -0.5801  0.3281  0.2353
   73ccc     O2 2157   5.299   8.868  10.023  0.4089 -0.1728  0.2034
   73ccc    H11 2158   5.221   8.830   9.978  1.7998 -0.7576 -1.7611
   73ccc     C7 2159   5.192   8.813   9.530 -0.0223 -0.4491 -0.6962
   73ccc    H12 2160   5.167   8.826   9.424  0.0868 -1.5246 -0.8563
   73ccc    H13 2161   5.106   8.854   9.586  0.9065  0.8613 -0.2114
   73ccc     C8 2162   5.208   8.661   9.563  0.0362  0.3278  0.0902
   73ccc    H14 2163   5.303   8.638   9.514 -0.7629  0.2971 -1.4837
   73ccc    H15 2164   5.214   8.642   9.671  0.8494  0.9752  0.1593
   73ccc     C9 2165   5.098   8.580   9.504  0.5136  0.0855 -0.7874
   73ccc     O3 2166   5.007   8.620   9.437 -0.1837 -0.1890 -0.1528
   73ccc     O4 2167   5.093   8.449   9.543 -0.3140  0.1090 -0.5824
   73ccc    H16 2168   5.184   8.447   9.576  0.3070  1.0133 -2.1868
   73ccc     O5 2169   5.395   9.249   9.294 -0.2654  0.5573 -0.1852
   74ccc     C1 2170   4.185   7.689   6.514  0.6000 -0.2935  0.1359
   74ccc     H1 2171   4.179   7.609   6.439  1.5294  0.8079 -1.1377
   74ccc     H2 2172   4.205   7.646   6.612  0.2622 -0.3462  0.1795
   74ccc     C2 2173   4.059   7.776   6.518 -0.5622  0.2491 -0.5253
   74ccc     H3 2174   4.085   7.870   6.568 -2.3031  0.7068 -0.4565
   74ccc     H4 2175   3.979   7.725   6.573  0.7426  1.1210  2.2683
   74ccc     C3 2176   4.001   7.791   6.374 -0.1117 -0.3098  1.0096
   74ccc     H5 2177   3.983   7.694   6.325  2.5078 -1.0505  1.4345
   74ccc     H6 2178   4.079   7.841   6.316  3.4232 -2.9798  3.2438
   74ccc     N1 2179   3.872   7.868   6.372 -0.0200 -0.4790  0.7706
   74ccc     C4 2180   3.788   7.856   6.250 -0.1598  0.7905 -0.0973
   74ccc     H7 2181   3.702   7.925   6.248 -2.5866 -2.0889  0.8754
   74ccc     H8 2182   3.853   7.890   6.168 -0.7793  1.3347 -0.3667
   74ccc     C5 2183   3.730   7.711   6.226 -0.0955 -0.0510  0.0765
   74ccc     H9 2184   3.676   7.679   6.316  0.1977 -1.7058 -0.3192
   74ccc    H10 2185   3.807   7.635   6.210  0.6318  0.4533  1.1187
   74ccc     C6 2186   3.624   7.706   6.115  0.7404  0.0974  0.6909
   74ccc     O1 2187   3.597   7.793   6.038  0.5213 -0.6135 -0.3580
   74ccc     O2 2188   3.599   7.578   6.076  0.2496 -0.0534 -0.6135
   74ccc    H11 2189   3.604   7.528   6.159 -1.5151  1.6138  0.5422
   74ccc     C7 2190   3.887   8.018   6.397  0.5461  0.5765  1.1460
   74ccc    H12 2191   3.964   8.036   6.474 -1.1114  0.6001  2.8262
   74ccc    H13 2192   3.922   8.077   6.311 -0.8313  1.4831  1.1944
   74ccc     C8 2193   3.759   8.085   6.448  1.0257  0.4866 -0.5678
   74ccc    H14 2194   3.775   8.194   6.448 -1.9407  0.9558 -0.2605
   74ccc    H15 2195   3.670   8.069   6.386 -0.8127 -2.2289  2.6018
   74ccc     C9 2196   3.720   8.034   6.587 -0.3549 -0.1954 -0.1330
   74ccc     O3 2197   3.611   7.989   6.608 -0.3603 -0.0674 -0.2521
   74ccc     O4 2198   3.812   8.037   6.687  0.0906  0.0949  0.2275
   74ccc    H16 2199   3.882   8.090   6.646  1.2423 -0.6269  1.2461
   74ccc     O5 2200   4.296   7.778   6.475 -0.3551 -0.2044 -0.0101
   75ccc     C1 2201   4.675   7.747   7.267 -0.0983  0.6723 -0.5866
   75ccc     H1 2202   4.781   7.740   7.240 -0.2548  0.1321 -1.0531
   75ccc     H2 2203   4.670   7.776   7.372 -0.0564  2.2394 -0.9992
   75ccc     C2 2204   4.596   7.617   7.243  0.0865 -0.0213  0.0180
   75ccc     H3 2205   4.639   7.546   7.314 -0.8119 -0.3467  0.2431
   75ccc     H4 2206   4.628   7.588   7.142 -1.4599 -0.7659 -0.2726
   75ccc     C3 2207   4.445   7.628   7.254 -0.0336 -0.0603 -0.3254
   75ccc     H5 2208   4.403   7.689   7.173 -2.1126 -0.3313  0.5428
   75ccc     H6 2209   4.424   7.681   7.348  2.1365  0.6385 -0.1975
   75ccc     N1 2210   4.374   7.494   7.255 -0.3925  0.2034  0.1158
   75ccc     C4 2211   4.385   7.420   7.126  0.6182 -0.1224 -0.3601
   75ccc     H7 2212   4.342   7.321   7.148  0.8047 -0.0355  0.4398
   75ccc     H8 2213   4.490   7.407   7.095  1.0299 -0.5276  1.1373
   75ccc     C5 2214   4.298   7.495   7.017  0.2915  0.5464 -0.1567
   75ccc     H9 2215   4.193   7.510   7.042 -0.1091 -0.9898 -0.8304
   75ccc    H10 2216   4.328   7.600   7.006  1.6027 -0.1115 -3.6826
   75ccc     C6 2217   4.324   7.438   6.875  0.3227 -0.6668 -0.2596
   75ccc     O1 2218   4.413   7.362   6.850  0.5098  0.5469  0.0683
   75ccc     O2 2219   4.256   7.483   6.771 -0.5813  0.0219 -0.2850
   75ccc    H11 2220   4.198   7.551   6.810  0.2406  1.5477 -1.5940
   75ccc     C7 2221   4.389   7.406   7.369  0.7080 -0.8444  0.7266
   75ccc    H12 2222   4.344   7.309   7.345  3.3482 -2.2903  1.4288
   75ccc    H13 2223   4.497   7.388   7.372  0.8069 -0.1497  2.0272
   75ccc     C8 2224   4.326   7.475   7.491 -0.2439 -0.4314 -0.1319
   75ccc    H14 2225   4.409   7.519   7.548 -0.4685  0.0721 -0.1868
   75ccc    H15 2226   4.253   7.550   7.458  0.9447  0.0012 -1.8605
   75ccc     C9 2227   4.263   7.381   7.583 -0.6713  0.2503 -0.0343
   75ccc     O3 2228   4.292   7.262   7.594 -0.7241 -0.7033  0.8135
   75ccc     O4 2229   4.218   7.433   7.691  0.6799  0.3439 -0.1515
   75ccc    H16 2230   4.205   7.527   7.670 -1.1725  0.5246  1.6364
   75ccc     O5 2231   4.615   7.853   7.191 -0.9376  0.0013 -0.2260
   76ccc     C1 2232   3.992   9.145   6.165 -0.0421 -0.6405 -0.4457
   76ccc     H1 2233   4.027   9.134   6.062  1.5001 -0.2662  0.0311
   76ccc     H2 2234   3.942   9.241   6.184 -1.1143 -1.4093  0.7085
   76ccc     C2 2235   4.099   9.132   6.274 -0.2123 -0.9685  0.2600
   76ccc     H3 2236   4.051   9.130   6.372 -0.1995 -0.4634  0.2792
   76ccc     H4 2237   4.147   9.231   6.273 -1.6839 -0.2383  0.8473
   76ccc     C3 2238   4.195   9.019   6.245 -0.4878 -0.8587  0.3673
   76ccc     H5 2239   4.257   9.036   6.156  0.0882 -1.6937  0.5916
   76ccc     H6 2240   4.139   8.928   6.219 -1.0028  0.0401 -1.7952
   76ccc     N1 2241   4.281   8.961   6.362  0.3498 -0.5073  0.8651
   76ccc     C4 2242   4.358   9.066   6.438 -0.4883 -0.7222 -0.1033
   76ccc     H7 2243   4.295   9.156   6.444  1.3414  0.8530 -3.1365
   76ccc     H8 2244   4.447   9.095   6.381  0.1396  1.0540  1.6846
   76ccc     C5 2245   4.407   9.018   6.578  0.5778 -0.4638  0.8317
   76ccc     H9 2246   4.325   8.986   6.644 -0.5569 -0.3189 -0.4654
   76ccc    H10 2247   4.466   8.928   6.560  1.2075  0.1313 -0.0961
   76ccc     C6 2248   4.484   9.121   6.646 -1.0013 -0.3967 -0.4868
   76ccc     O1 2249   4.484   9.241   6.616 -0.4725 -0.2525  0.2193
   76ccc     O2 2250   4.501   9.114   6.781  0.5465 -0.0582  0.8153
   76ccc    H11 2251   4.488   9.018   6.793  1.9096 -0.1141  1.9988
   76ccc     C7 2252   4.363   8.838   6.331 -0.1441 -0.3031 -0.1040
   76ccc    H12 2253   4.447   8.858   6.263 -0.6237  0.7662 -0.3997
   76ccc    H13 2254   4.407   8.786   6.416 -1.2419 -1.3728 -0.1682
   76ccc     C8 2255   4.280   8.727   6.260 -0.5980  0.5293  0.1564
   76ccc    H14 2256   4.187   8.711   6.316  0.5216 -2.0921  1.3660
   76ccc    H15 2257   4.253   8.753   6.157  0.1105  0.6301 -0.0025
   76ccc     C9 2258   4.355   8.596   6.248  0.4531 -0.1739 -0.7965
   76ccc     O3 2259   4.474   8.585   6.272  0.3367 -1.2846  0.3328
   76ccc     O4 2260   4.290   8.497   6.312  0.7272  0.1569 -0.6932
   76ccc    H16 2261   4.194   8.508   6.300  1.2006  2.3243 -2.9484
   76ccc     O5 2262   3.898   9.035   6.201  0.5443 -0.3750 -0.0168
   77ccc     C1 2263   3.041   9.227   6.324 -0.3191 -0.2465 -0.2753
   77ccc     H1 2264   3.052   9.166   6.233  1.4926 -0.1971 -0.1014
   77ccc     H2 2265   2.989   9.166   6.399  0.0567 -1.1863 -0.7825
   77ccc     C2 2266   2.950   9.350   6.298 -0.8004 -0.4202 -0.3214
   77ccc     H3 2267   3.008   9.418   6.233 -2.0160 -0.3320 -1.3264
   77ccc     H4 2268   2.932   9.406   6.391 -1.4184 -0.9537 -0.1181
   77ccc     C3 2269   2.814   9.296   6.232  0.2094 -0.7756 -0.3976
   77ccc     H5 2270   2.764   9.230   6.304  1.8107 -0.1551  1.3362
   77ccc     H6 2271   2.850   9.258   6.136  0.9498  0.2304 -0.5376
   77ccc     N1 2272   2.722   9.413   6.207  0.1131 -0.2101  0.0859
   77ccc     C4 2273   2.768   9.509   6.101  0.2762 -0.2689 -0.0679
   77ccc     H7 2274   2.708   9.483   6.012  1.9986 -1.3238 -0.9457
   77ccc     H8 2275   2.874   9.502   6.074  0.7699 -1.1735  2.0324
   77ccc     C5 2276   2.736   9.657   6.145 -0.1743 -0.7378 -0.2612
   77ccc     H9 2277   2.764   9.724   6.063 -0.6762  0.9560  0.9368
   77ccc    H10 2278   2.626   9.659   6.151 -0.1250  2.9655 -0.0011
   77ccc     C6 2279   2.782   9.703   6.282  0.5621  0.3732 -0.1814
   77ccc     O1 2280   2.706   9.720   6.379 -0.6206  0.4373  0.4274
   77ccc     O2 2281   2.911   9.690   6.315  0.3029 -1.1479 -0.4110
   77ccc    H11 2282   2.952   9.677   6.228  0.0384 -0.7503 -0.5992
   77ccc     C7 2283   2.578   9.374   6.205 -0.3793  0.0373  0.6939
   77ccc    H12 2284   2.546   9.334   6.302 -0.2580 -1.8114 -0.0045
   77ccc    H13 2285   2.516   9.461   6.182  1.2451  0.6296 -1.5515
   77ccc     C8 2286   2.544   9.261   6.102 -0.3309 -0.3221  0.2909
   77ccc    H14 2287   2.594   9.293   6.010 -0.1305 -0.1807  0.4490
   77ccc    H15 2288   2.588   9.165   6.132 -1.0989 -0.4376  1.0892
   77ccc     C9 2289   2.397   9.246   6.075  1.1366  0.3648  0.3135
   77ccc     O3 2290   2.305   9.295   6.147 -0.0883  0.0706 -0.5328
   77ccc     O4 2291   2.359   9.151   5.985 -0.7839  0.4170 -0.0297
   77ccc    H16 2292   2.449   9.118   5.966 -0.8552 -0.5170  1.1953
   77ccc     O5 2293   3.163   9.269   6.373 -0.1691 -0.5157 -0.3966
   78ccc     C1 2294   5.526   9.377   8.152 -0.6664 -0.4472  0.5799
   78ccc     H1 2295   5.599   9.300   8.181 -0.2069  0.6769  2.5172
   78ccc     H2 2296   5.437   9.319   8.128 -1.2077  1.2258 -1.5200
   78ccc     C2 2297   5.579   9.459   8.028 -0.2071 -1.0421 -0.0828
   78ccc     H3 2298   5.677   9.501   8.056  0.9193 -4.0088  0.6678
   78ccc     H4 2299   5.512   9.544   8.011  1.5731  0.1199 -1.5150
   78ccc     C3 2300   5.585   9.375   7.901  0.2152  0.5821  0.2038
   78ccc     H5 2301   5.485   9.330   7.890  0.3888 -0.1980  1.7873
   78ccc     H6 2302   5.642   9.285   7.925 -1.5945 -0.3538  1.1107
   78ccc     N1 2303   5.641   9.442   7.778  0.0842 -0.2081 -0.5153
   78ccc     C4 2304   5.555   9.532   7.706 -0.4331 -0.2458  0.4720
   78ccc     H7 2305   5.619   9.575   7.628 -0.4650 -1.0153  0.0183
   78ccc     H8 2306   5.513   9.605   7.776 -0.3460 -0.0003  0.2682
   78ccc     C5 2307   5.450   9.447   7.627 -0.3894  0.6373  0.7869
   78ccc     H9 2308   5.500   9.397   7.543 -1.1002  1.2253  0.0114
   78ccc    H10 2309   5.407   9.372   7.695  3.5920 -1.5627  1.0639
   78ccc     C6 2310   5.347   9.536   7.559 -0.2437  0.0152  0.7604
   78ccc     O1 2311   5.325   9.646   7.591  0.8601  0.2293 -0.0511
   78ccc     O2 2312   5.262   9.473   7.473 -0.0600  0.2284 -0.3905
   78ccc    H11 2313   5.282   9.378   7.479  0.1950  0.1543 -2.0871
   78ccc     C7 2314   5.774   9.507   7.804  0.4304  0.2784 -0.2490
   78ccc    H12 2315   5.819   9.543   7.711 -0.1167 -0.2767 -0.7408
   78ccc    H13 2316   5.754   9.590   7.872 -1.3227 -0.2131 -0.1458
   78ccc     C8 2317   5.883   9.418   7.860 -0.2493  0.4355 -0.2406
   78ccc    H14 2318   5.973   9.479   7.874 -1.9574  2.8671  0.5596
   78ccc    H15 2319   5.858   9.375   7.958 -1.1276  2.5187  0.4941
   78ccc     C9 2320   5.925   9.304   7.765  0.3406  0.7677 -0.2296
   78ccc     O3 2321   5.924   9.185   7.793  0.0192 -0.2467 -0.1835
   78ccc     O4 2322   6.026   9.337   7.685  0.3713  0.5538  0.2105
   78ccc    H16 2323   6.042   9.433   7.691  0.1412  0.8557 -2.9604
   78ccc     O5 2324   5.501   9.468   8.263  0.0276  0.5853  0.3184
   79ccc     C1 2325   5.330   8.891   8.987  0.0471  0.0096 -0.4819
   79ccc     H1 2326   5.272   8.914   9.077  1.5025 -2.4442  1.1551
   79ccc     H2 2327   5.266   8.825   8.929 -0.5501  0.5365 -0.4230
   79ccc     C2 2328   5.460   8.812   9.026  0.4054 -0.1271  1.1943
   79ccc     H3 2329   5.525   8.820   8.938 -1.6861  2.2329 -0.2144
   79ccc     H4 2330   5.443   8.704   9.019  2.5374 -0.3885 -0.8165
   79ccc     C3 2331   5.524   8.863   9.162 -0.1631 -0.8974  0.1151
   79ccc     H5 2332   5.450   8.858   9.243  1.6400  0.9616  1.9400
   79ccc     H6 2333   5.545   8.970   9.156  0.0677 -1.0534 -2.2605
   79ccc     N1 2334   5.638   8.786   9.199 -0.0019 -0.0338 -0.1558
   79ccc     C4 2335   5.765   8.830   9.146 -1.1732 -0.4024  0.0422
   79ccc     H7 2336   5.837   8.748   9.139 -0.0237  0.6961 -1.6468
   79ccc     H8 2337   5.765   8.866   9.043  0.3555  0.7554  0.4183
   79ccc     C5 2338   5.825   8.944   9.228  0.6330  0.5433 -0.2188
   79ccc     H9 2339   5.824   8.919   9.335 -0.2600 -0.4214 -0.4448
   79ccc    H10 2340   5.766   9.035   9.207  0.5711  0.4056 -0.6443
   79ccc     C6 2341   5.969   8.963   9.203  0.2082  0.2642  0.5442
   79ccc     O1 2342   6.052   8.892   9.257  0.3369  0.1206 -0.5350
   79ccc     O2 2343   6.007   9.089   9.179 -0.0083 -0.3422  0.1756
   79ccc    H11 2344   5.930   9.127   9.133  1.2973 -0.6764 -2.3516
   79ccc     C7 2345   5.638   8.715   9.328  0.4407 -0.3817 -0.2202
   79ccc    H12 2346   5.652   8.794   9.403 -0.0867  0.1084 -0.6329
   79ccc    H13 2347   5.541   8.668   9.346  1.1932 -2.1861 -0.7472
   79ccc     C8 2348   5.748   8.607   9.342 -0.3282  0.4019  0.0570
   79ccc    H14 2349   5.734   8.530   9.265 -1.1420 -0.1717  0.7842
   79ccc    H15 2350   5.850   8.649   9.343  0.4128 -1.3956  1.9048
   79ccc     C9 2351   5.738   8.521   9.476 -0.2213 -0.1792 -0.2878
   79ccc     O3 2352   5.678   8.557   9.572 -0.0753 -0.9175 -0.1136
   79ccc     O4 2353   5.843   8.437   9.500  0.4425 -0.5531 -0.1394
   79ccc    H16 2354   5.897   8.434   9.419  1.5097 -1.3701  0.5860
   79ccc     O5 2355   5.368   9.017   8.924  0.3487 -0.3001 -0.5236
   80ccc     C1 2356   4.950   8.843   7.845  0.5526 -0.2627  0.5522
   80ccc     H1 2357   5.057   8.870   7.851  0.7532 -0.2393 -2.4020
   80ccc     H2 2358   4.896   8.934   7.874  2.3676  0.8751  0.4993
   80ccc     C2 2359   4.922   8.718   7.931 -0.3688 -0.1743 -0.5939
   80ccc     H3 2360   4.826   8.688   7.889 -0.6298  0.3659 -0.3911
   80ccc     H4 2361   4.908   8.738   8.037 -0.0128  3.2449 -1.1406
   80ccc     C3 2362   5.028   8.604   7.914 -0.4893  0.1238 -0.6977
   80ccc     H5 2363   5.032   8.563   7.812 -0.3021  0.4606 -0.8271
   80ccc     H6 2364   4.992   8.520   7.975 -0.2435  0.6437  0.1667
   80ccc     N1 2365   5.174   8.632   7.950 -0.8905  0.0013 -0.3108
   80ccc     C4 2366   5.255   8.529   7.893 -0.4190 -0.2107 -0.5349
   80ccc     H7 2367   5.208   8.430   7.905 -0.9016  0.2616  1.6346
   80ccc     H8 2368   5.353   8.512   7.940 -0.8034 -3.2125 -0.7211
   80ccc     C5 2369   5.290   8.563   7.744  0.0160 -0.3410 -0.0915
   80ccc     H9 2370   5.303   8.467   7.692 -0.0702 -1.0412  1.1585
   80ccc    H10 2371   5.213   8.625   7.697  0.2726 -0.9587 -1.3483
   80ccc     C6 2372   5.421   8.647   7.737 -0.4760  0.0026 -0.4773
   80ccc     O1 2373   5.427   8.769   7.745  0.4703  0.3124 -0.1427
   80ccc     O2 2374   5.529   8.568   7.730  0.3653  0.7079 -0.3883
   80ccc    H11 2375   5.491   8.481   7.708  4.7327 -1.3498 -0.3411
   80ccc     C7 2376   5.186   8.646   8.102 -0.6929  0.6030  0.4330
   80ccc    H12 2377   5.123   8.727   8.140 -1.1584 -0.6335  2.3559
   80ccc    H13 2378   5.158   8.557   8.159 -1.3758  1.0608  0.8242
   80ccc     C8 2379   5.332   8.676   8.157 -0.4349  0.0297 -0.1469
   80ccc    H14 2380   5.395   8.586   8.165 -0.3681  0.1939  1.4339
   80ccc    H15 2381   5.386   8.748   8.095 -1.8706 -0.4190 -1.9416
   80ccc     C9 2382   5.338   8.739   8.292  0.3226 -0.1698 -0.2513
   80ccc     O3 2383   5.359   8.862   8.302  0.0728 -0.0940 -0.1225
   80ccc     O4 2384   5.323   8.658   8.391  0.2791 -0.7967 -1.1906
   80ccc    H16 2385   5.319   8.574   8.342 -2.5605 -0.5884 -1.3813
   80ccc     O5 2386   4.911   8.810   7.712  0.2042  0.2779  0.4933
   81ccc     C1 2387   4.973   9.356   7.157  0.1392  0.1604 -0.4951
   81ccc     H1 2388   4.867   9.333   7.176  0.2630 -1.7697 -2.0453
   81ccc     H2 2389   5.004   9.428   7.234 -0.9282 -0.2301  0.3077
   81ccc     C2 2390   4.991   9.411   7.013 -0.4099 -0.5782  0.3115
   81ccc     H3 2391   5.097   9.401   6.987 -0.6641  1.9530 -1.8739
   81ccc     H4 2392   4.972   9.519   7.009 -1.6321 -0.8552 -1.9121
   81ccc     C3 2393   4.900   9.349   6.900 -0.0729  0.3472 -0.5354
   81ccc     H5 2394   4.801   9.338   6.946  0.7159  0.2732  1.1684
   81ccc     H6 2395   4.940   9.249   6.877 -1.2162  0.2685 -2.3174
   81ccc     N1 2396   4.889   9.423   6.769 -0.0976  0.0521  0.2572
   81ccc     C4 2397   5.018   9.474   6.715 -0.4932 -0.0374  0.3621
   81ccc     H7 2398   5.045   9.558   6.780  0.5847 -0.5853  0.6238
   81ccc     H8 2399   4.988   9.527   6.624  1.9927 -1.3060 -1.2088
   81ccc     C5 2400   5.131   9.369   6.676 -0.0274 -0.5821 -0.1941
   81ccc     H9 2401   5.165   9.324   6.771 -0.2877 -0.0079  0.1768
   81ccc    H10 2402   5.097   9.295   6.602 -0.3461 -1.0221  0.3806
   81ccc     C6 2403   5.249   9.456   6.619  0.2214  0.5918 -0.4731
   81ccc     O1 2404   5.250   9.577   6.617  0.1275  0.0640 -0.2879
   81ccc     O2 2405   5.331   9.402   6.525  0.4764 -0.1375 -0.5611
   81ccc    H11 2406   5.292   9.313   6.521  1.2017 -0.4947  0.1301
   81ccc     C7 2407   4.811   9.344   6.672  0.8556 -0.2364 -0.5532
   81ccc    H12 2408   4.867   9.251   6.655  0.3841 -0.7802  0.8609
   81ccc    H13 2409   4.728   9.302   6.730  0.3008 -0.1500 -1.2689
   81ccc     C8 2410   4.763   9.400   6.542 -0.7845  0.3579 -0.1495
   81ccc    H14 2411   4.675   9.465   6.550  2.0443  4.3109  0.7257
   81ccc    H15 2412   4.833   9.477   6.507 -0.2325 -0.3637 -0.6514
   81ccc     C9 2413   4.753   9.293   6.432  0.1973 -0.4456  0.2809
   81ccc     O3 2414   4.731   9.172   6.446 -0.1918 -0.0261  0.1164
   81ccc     O4 2415   4.717   9.342   6.316 -0.1978 -0.1291 -0.1944
   81ccc    H16 2416   4.740   9.437   6.319 -1.5830  0.2910 -1.9158
   81ccc     O5 2417   5.048   9.238   7.163  0.0369 -0.1269 -0.1413
   82ccc     C1 2418   4.687   8.883   9.590  0.0093  0.3305 -0.1730
   82ccc     H1 2419   4.600   8.818   9.602  1.4785 -1.4537  1.0714
   82ccc     H2 2420   4.754   8.835   9.517 -0.9324 -2.4029  0.6949
   82ccc     C2 2421   4.748   8.919   9.722  0.1109 -1.1252  0.3421
   82ccc     H3 2422   4.678   8.986   9.773  0.9480  0.6510 -0.7797
   82ccc     H4 2423   4.840   8.977   9.705 -0.3519 -0.6117 -0.4551
   82ccc     C3 2424   4.800   8.802   9.800  0.1633 -0.1947  0.8012
   82ccc     H5 2425   4.852   8.826   9.894  0.3459  2.2450  0.1076
   82ccc     H6 2426   4.876   8.742   9.748  0.5673 -0.7007  1.9405
   82ccc     N1 2427   4.681   8.722   9.828 -0.2560  0.5625 -0.0284
   82ccc     C4 2428   4.722   8.581   9.862 -0.2712 -0.5998 -0.2578
   82ccc     H7 2429   4.653   8.529   9.929  1.3005 -0.9660  1.1297
   82ccc     H8 2430   4.819   8.588   9.913  0.5224 -0.3046 -1.7607
   82ccc     C5 2431   4.737   8.512   9.729  0.2900  0.8518 -0.6783
   82ccc     H9 2432   4.636   8.507   9.685 -0.1260 -0.3956  0.3875
   82ccc    H10 2433   4.800   8.570   9.660  1.5112 -0.4842 -0.7159
   82ccc     C6 2434   4.792   8.370   9.753  0.3298  0.4458  0.3706
   82ccc     O1 2435   4.861   8.340   9.849  0.0080  0.3938 -0.7708
   82ccc     O2 2436   4.774   8.285   9.653 -1.2962  0.2061 -0.0752
   82ccc    H11 2437   4.732   8.338   9.584 -3.5190  3.6328  3.7458
   82ccc     C7 2438   4.577   8.779   9.910 -0.2077  0.1283 -1.2646
   82ccc    H12 2439   4.544   8.877   9.873 -3.9553  0.7587  3.2324
   82ccc    H13 2440   4.493   8.709   9.923  2.1100 -2.9465 -2.3520
   82ccc     C8 2441   4.620   8.796  10.057  0.1183 -0.8908 -1.0288
   82ccc    H14 2442   4.676   8.712  10.100  1.2671  0.4417  0.1108
   82ccc    H15 2443   4.689   8.880  10.064 -3.3753  2.3243 -3.1782
   82ccc     C9 2444   4.504   8.828  10.146  1.0054  0.1601  0.7256
   82ccc     O3 2445   4.386   8.834  10.110  0.2722  0.1807 -0.1957
   82ccc     O4 2446   4.536   8.829  10.274 -0.2861 -0.3068 -0.0619
   82ccc    H16 2447   4.633   8.823  10.274 -0.2853 -0.3031  0.3252
   82ccc     O5 2448   4.651   9.005   9.531  0.3274  0.6656  0.1586
   83ccc     C1 2449   3.869   9.258   9.203  0.0381  0.0914 -0.4247
   83ccc     H1 2450   3.831   9.360   9.185 -2.5571 -1.0379 -1.5448
   83ccc     H2 2451   3.933   9.225   9.121 -2.9505 -0.3463 -2.6685
   83ccc     C2 2452   3.750   9.169   9.219 -0.1333  0.7500 -0.3816
   83ccc     H3 2453   3.701   9.171   9.121 -0.1760  0.5649 -0.3650
   83ccc     H4 2454   3.676   9.219   9.283  0.0699  0.6062 -0.0332
   83ccc     C3 2455   3.788   9.026   9.261 -0.7622 -0.3045 -0.8608
   83ccc     H5 2456   3.845   9.034   9.354 -0.4211 -0.0559 -1.0881
   83ccc     H6 2457   3.857   8.988   9.184 -0.9741  0.9404 -1.6713
   83ccc     N1 2458   3.677   8.928   9.271  0.0094  0.5758  0.1744
   83ccc     C4 2459   3.686   8.846   9.393  0.3189 -0.4596  0.6600
   83ccc     H7 2460   3.780   8.791   9.398  0.6821 -0.1250 -1.9206
   83ccc     H8 2461   3.604   8.773   9.399 -1.5107  1.6565  2.8496
   83ccc     C5 2462   3.677   8.922   9.525 -0.3282  0.0250 -0.4641
   83ccc     H9 2463   3.770   8.973   9.553  1.3579 -2.7557 -0.8641
   83ccc    H10 2464   3.603   9.003   9.528 -1.3843 -0.9498  0.3796
   83ccc     C6 2465   3.655   8.828   9.646  0.1278  0.5563  0.8111
   83ccc     O1 2466   3.716   8.721   9.659  0.5937 -0.2825  0.4592
   83ccc     O2 2467   3.573   8.871   9.742 -0.2667 -0.0140  0.1686
   83ccc    H11 2468   3.569   8.966   9.719 -1.3026  0.2891  1.5421
   83ccc     C7 2469   3.640   8.857   9.151 -1.0889 -0.6280 -0.4987
   83ccc    H12 2470   3.648   8.933   9.072 -0.1334 -1.6021 -1.3667
   83ccc    H13 2471   3.709   8.777   9.122  0.3070  0.5982 -0.6162
   83ccc     C8 2472   3.503   8.804   9.143 -0.1231 -0.7460  0.2286
   83ccc    H14 2473   3.491   8.719   9.212  1.5682 -1.2396 -0.0479
   83ccc    H15 2474   3.432   8.885   9.162  0.7175  0.4765 -1.7356
   83ccc     C9 2475   3.462   8.738   9.011  0.0521 -0.1136 -0.5354
   83ccc     O3 2476   3.531   8.753   8.913  0.4094 -0.4418  0.1994
   83ccc     O4 2477   3.333   8.744   8.987  0.2387  0.5445 -0.1962
   83ccc    H16 2478   3.290   8.753   9.074 -0.7713 -2.3148 -0.3429
   83ccc     O5 2479   3.944   9.259   9.325  0.6527  0.1580 -0.7041
   84ccc     C1 2480   4.121   8.491   8.592  0.2523 -0.5698 -0.2563
   84ccc     H1 2481   4.047   8.411   8.582 -0.6698  0.2613 -0.1773
   84ccc     H2 2482   4.099   8.547   8.684 -1.6630  1.6790 -2.0095
   84ccc     C2 2483   4.100   8.592   8.475  0.0461 -0.1053  0.4234
   84ccc     H3 2484   4.157   8.560   8.387  0.3509  0.3501  0.4502
   84ccc     H4 2485   4.145   8.689   8.502 -1.1696  0.9254 -1.1389
   84ccc     C3 2486   3.952   8.615   8.440  0.1499  0.4074  0.2019
   84ccc     H5 2487   3.909   8.624   8.540  2.6096  3.1655  1.0771
   84ccc     H6 2488   3.910   8.525   8.394  1.1798 -0.4883  0.9953
   84ccc     N1 2489   3.933   8.734   8.351  0.7596 -0.6862  0.3601
   84ccc     C4 2490   3.805   8.815   8.356 -0.2799 -0.1043  0.0029
   84ccc     H7 2491   3.718   8.748   8.344  1.1870 -1.6000 -2.8843
   84ccc     H8 2492   3.805   8.888   8.273 -1.3542  1.4481  1.3373
   84ccc     C5 2493   3.801   8.887   8.494 -0.7995 -0.0210  0.4842
   84ccc     H9 2494   3.825   8.825   8.581  1.4810  2.5210  1.7218
   84ccc    H10 2495   3.881   8.960   8.510  2.8251 -3.8966  1.2586
   84ccc     C6 2496   3.671   8.950   8.540 -0.0797 -0.3796 -0.7567
   84ccc     O1 2497   3.634   9.053   8.485 -0.2163 -0.5458  0.0987
   84ccc     O2 2498   3.587   8.867   8.611 -0.1510  0.2136  0.5189
   84ccc    H11 2499   3.626   8.779   8.623 -0.4719  0.1103  0.7922
   84ccc     C7 2500   3.969   8.712   8.207  0.1145  0.5167 -0.5003
   84ccc    H12 2501   3.990   8.807   8.156 -1.8713  0.0872 -2.1989
   84ccc    H13 2502   4.066   8.662   8.218 -0.2084 -0.0436 -0.2009
   84ccc     C8 2503   3.871   8.625   8.123  0.1039 -0.6669  0.1999
   84ccc    H14 2504   3.854   8.532   8.178 -0.5118 -1.4613 -1.3126
   84ccc    H15 2505   3.778   8.682   8.112 -1.5438 -3.5192 -1.0303
   84ccc     C9 2506   3.925   8.593   7.983  0.0761  0.4870  0.6270
   84ccc     O3 2507   4.042   8.571   7.958 -0.3851  0.0256 -0.4019
   84ccc     O4 2508   3.839   8.514   7.917  0.2683 -0.1596 -0.1841
   84ccc    H16 2509   3.753   8.547   7.947  1.3247  0.8464  1.9473
   84ccc     O5 2510   4.256   8.436   8.606  0.7827 -0.2263  0.6539
   85ccc     C1 2511   4.457   8.654   9.428  0.0363  0.0203  0.1845
   85ccc     H1 2512   4.536   8.659   9.504  0.1028  0.1292  0.1079
   85ccc     H2 2513   4.413   8.750   9.399  0.0883 -0.0439 -0.1122
   85ccc     C2 2514   4.347   8.566   9.488  0.5949 -0.0462  0.8810
   85ccc     H3 2515   4.393   8.473   9.521  0.0682 -0.8146 -0.5322
   85ccc     H4 2516   4.277   8.529   9.413  2.6811 -1.0782 -0.5786
   85ccc     C3 2517   4.273   8.630   9.607  0.0767  0.0447 -0.1457
   85ccc     H5 2518   4.337   8.707   9.653 -0.6790 -0.4637  1.7877
   85ccc     H6 2519   4.261   8.552   9.683 -0.4156  1.0710  0.8300
   85ccc     N1 2520   4.145   8.699   9.576  0.6049  0.1735  0.0704
   85ccc     C4 2521   4.107   8.802   9.675  0.0061 -0.1129  0.1795
   85ccc     H7 2522   4.122   8.762   9.775  1.8054 -1.4696 -0.6076
   85ccc     H8 2523   3.999   8.808   9.657  0.3914 -1.9116 -3.2018
   85ccc     C5 2524   4.179   8.939   9.651 -0.4366  0.1408 -0.7785
   85ccc     H9 2525   4.272   8.940   9.709  0.6999 -0.7481 -2.5392
   85ccc    H10 2526   4.208   8.952   9.546 -1.3065 -2.7016 -1.4196
   85ccc     C6 2527   4.103   9.064   9.692  0.3040 -0.1494 -0.2777
   85ccc     O1 2528   3.978   9.060   9.704 -0.1332  0.0191  0.2308
   85ccc     O2 2529   4.160   9.183   9.668 -0.3574  0.2329 -0.8358
   85ccc    H11 2530   4.252   9.156   9.651 -0.7518  0.3219 -3.2827
   85ccc     C7 2531   4.035   8.610   9.525  0.6364 -0.8252 -0.1806
   85ccc    H12 2532   3.967   8.668   9.462  0.5239 -0.5807  0.1659
   85ccc    H13 2533   4.070   8.545   9.444  2.1619 -1.7055  1.1620
   85ccc     C8 2534   3.964   8.523   9.635 -0.5299 -0.6621  0.0165
   85ccc    H14 2535   4.031   8.445   9.676  0.8128  0.0581 -0.7816
   85ccc    H15 2536   3.940   8.582   9.724 -0.5461  1.5254 -1.4134
   85ccc     C9 2537   3.838   8.465   9.581  0.4566 -0.3284 -0.3028
   85ccc     O3 2538   3.831   8.433   9.470  0.3269  0.2659 -0.0300
   85ccc     O4 2539   3.748   8.422   9.669 -0.2931  0.1539  0.5272
   85ccc    H16 2540   3.772   8.473   9.748  0.1504 -0.2329  0.6385
   85ccc     O5 2541   4.511   8.580   9.321 -0.0067  0.0862 -0.0065
   86ccc     C1 2542   2.754   9.674   7.824 -0.0040  0.1022  0.1782
   86ccc     H1 2543   2.773   9.588   7.758  0.6508  0.2622  0.1536
   86ccc     H2 2544   2.813   9.669   7.916  2.4248  1.6044 -1.2554
   86ccc     C2 2545   2.603   9.696   7.869  0.5101  0.1596 -0.3770
   86ccc     H3 2546   2.586   9.760   7.956 -1.9152 -0.6826 -0.1874
   86ccc     H4 2547   2.575   9.594   7.899  0.3393  0.4858  0.5807
   86ccc     C3 2548   2.518   9.751   7.755  0.1222 -0.2604 -0.6424
   86ccc     H5 2549   2.543   9.689   7.668 -1.2274  1.0831 -2.0037
   86ccc     H6 2550   2.559   9.849   7.730 -1.4381  0.2800 -1.1228
   86ccc     N1 2551   2.371   9.751   7.775 -0.1943 -0.0286  0.6703
   86ccc     C4 2552   2.302   9.624   7.732  0.0116  0.3802 -0.5024
   86ccc     H7 2553   2.370   9.539   7.743 -0.9536  0.0318  3.4282
   86ccc     H8 2554   2.277   9.642   7.627  1.6074  0.2880 -0.9093
   86ccc     C5 2555   2.168   9.598   7.810 -0.4185 -0.2179 -0.5187
   86ccc     H9 2556   2.094   9.679   7.806 -0.3409 -0.1032  0.2445
   86ccc    H10 2557   2.194   9.588   7.916  0.0912 -0.9985 -0.7171
   86ccc     C6 2558   2.085   9.477   7.773 -0.4169  0.3985  0.6517
   86ccc     O1 2559   2.113   9.385   7.696 -0.5720  0.2664  0.1223
   86ccc     O2 2560   1.961   9.482   7.814 -0.3782 -0.2875 -0.4378
   86ccc    H11 2561   1.959   9.545   7.889  1.8840 -0.8443  0.1055
   86ccc     C7 2562   2.311   9.873   7.717  0.3287 -0.6216  0.1826
   86ccc    H12 2563   2.339   9.883   7.611  2.1313  0.7128  0.7566
   86ccc    H13 2564   2.202   9.862   7.723  0.2098  0.9260  0.9719
   86ccc     C8 2565   2.354  10.004   7.784  1.1793 -0.0205 -0.2454
   86ccc    H14 2566   2.325   9.997   7.889 -2.9367  1.2538 -1.2361
   86ccc    H15 2567   2.460  10.029   7.770  1.2001 -1.5083 -3.0584
   86ccc     C9 2568   2.288  10.120   7.717 -0.6260 -0.0855  0.0893
   86ccc     O3 2569   2.216  10.110   7.625  0.0265  0.0927  0.0168
   86ccc     O4 2570   2.330  10.240   7.754 -0.1191 -0.5313 -0.3795
   86ccc    H16 2571   2.402  10.231   7.819 -1.8067 -0.8488  1.4972
   86ccc     O5 2572   2.795   9.796   7.750 -0.3343  0.6852 -0.0888
   87ccc     C1 2573   3.164  10.103   7.028  0.1431  0.6930  0.0781
   87ccc     H1 2574   3.254  10.041   7.032  1.7874  2.9583 -0.8327
   87ccc     H2 2575   3.075  10.041   7.043 -0.0070  0.9180  0.1248
   87ccc     C2 2576   3.144  10.166   6.882  0.3002 -1.1528  0.4809
   87ccc     H3 2577   3.223  10.240   6.861  0.0143 -0.4410  1.8776
   87ccc     H4 2578   3.056  10.230   6.873  0.3952 -0.7502  2.2324
   87ccc     C3 2579   3.138  10.054   6.778 -0.5970 -0.2734 -0.3159
   87ccc     H5 2580   3.068   9.975   6.808 -1.6511  0.7732  0.0134
   87ccc     H6 2581   3.242  10.016   6.775 -0.3433  0.3971 -0.1093
   87ccc     N1 2582   3.108  10.097   6.648 -0.0117  0.2225  1.1026
   87ccc     C4 2583   3.194  10.195   6.583  0.2035 -0.4207 -0.6621
   87ccc     H7 2584   3.180  10.290   6.637  0.0963 -1.0461  0.4276
   87ccc     H8 2585   3.150  10.222   6.486 -0.8212  1.6044  0.3407
   87ccc     C5 2586   3.339  10.135   6.557  0.3515 -0.8246  0.6649
   87ccc     H9 2587   3.332  10.027   6.537 -0.0053 -0.4650 -1.2364
   87ccc    H10 2588   3.398  10.152   6.648 -1.1986 -0.6000  1.6503
   87ccc     C6 2589   3.396  10.206   6.436 -0.4640 -0.4682  0.1150
   87ccc     O1 2590   3.381  10.181   6.317  0.4003  0.5975 -0.2475
   87ccc     O2 2591   3.459  10.322   6.448  0.8116 -0.6445  0.2236
   87ccc    H11 2592   3.456  10.333   6.545 -1.5461  3.5533 -0.2066
   87ccc     C7 2593   3.070   9.987   6.557 -0.0970 -0.3653  0.6415
   87ccc    H12 2594   3.144   9.908   6.538  0.5781  0.1462  1.1434
   87ccc    H13 2595   3.060  10.034   6.459 -0.8775 -1.2844  0.2638
   87ccc     C8 2596   2.926   9.932   6.577 -0.0232 -0.4835 -0.3991
   87ccc    H14 2597   2.911   9.844   6.513 -0.9732 -1.4534  1.1231
   87ccc    H15 2598   2.905   9.889   6.676 -1.0826  0.7973 -0.0490
   87ccc     C9 2599   2.821  10.031   6.534  0.3139  0.3302 -0.1760
   87ccc     O3 2600   2.818  10.083   6.429  0.4213  0.5132  0.2976
   87ccc     O4 2601   2.763  10.103   6.630  0.3441 -0.2506  0.2623
   87ccc    H16 2602   2.762  10.050   6.712 -0.6361  0.0441  0.4424
   87ccc     O5 2603   3.166  10.206   7.129 -0.4151 -0.7193 -0.2299
   88ccc     C1 2604   3.978  11.849   8.256 -0.2032 -0.3273  0.0267
   88ccc     H1 2605   4.055  11.920   8.290 -0.5793  0.4154 -0.6615
   88ccc     H2 2606   3.937  11.873   8.157 -0.7492 -0.7556  0.1511
   88ccc     C2 2607   3.882  11.829   8.369 -0.3978  0.5677 -0.5064
   88ccc     H3 2608   3.943  11.793   8.453 -0.1046  0.0169 -0.9554
   88ccc     H4 2609   3.800  11.765   8.337 -1.6890  1.3020  1.1943
   88ccc     C3 2610   3.812  11.958   8.420  0.1136  0.6127  0.0054
   88ccc     H5 2611   3.877  12.014   8.488  1.1265  0.4715 -0.8309
   88ccc     H6 2612   3.724  11.933   8.480 -0.5957 -1.1701 -1.7303
   88ccc     N1 2613   3.772  12.046   8.304 -0.4422 -0.4060  0.2285
   88ccc     C4 2614   3.754  12.190   8.330 -0.0667  0.3132  0.4763
   88ccc     H7 2615   3.681  12.198   8.412  1.2847  3.2310  1.4830
   88ccc     H8 2616   3.708  12.240   8.244  0.6079  0.2289  0.0618
   88ccc     C5 2617   3.889  12.259   8.374  0.1219  0.6369 -0.2103
   88ccc     H9 2618   3.947  12.203   8.448  1.8993  1.1252 -1.2086
   88ccc    H10 2619   3.961  12.266   8.291  0.0407  0.7867 -0.2693
   88ccc     C6 2620   3.872  12.404   8.416  0.0828 -0.4878 -0.3591
   88ccc     O1 2621   3.813  12.480   8.348  0.2726 -0.5340  0.3901
   88ccc     O2 2622   3.907  12.438   8.543  0.6374 -0.1178 -0.0638
   88ccc    H11 2623   3.932  12.350   8.575 -3.3315 -0.6068  1.9854
   88ccc     C7 2624   3.657  11.995   8.235  0.5382  0.3575  0.0763
   88ccc    H12 2625   3.643  11.886   8.240  1.3029  0.2761  0.5201
   88ccc    H13 2626   3.568  12.035   8.285  0.3639 -1.4553  1.2626
   88ccc     C8 2627   3.638  12.047   8.088  0.5154 -0.1585  0.1452
   88ccc    H14 2628   3.627  12.155   8.096  2.0536 -0.1351  2.2338
   88ccc    H15 2629   3.728  12.030   8.027 -0.5614  1.5959 -1.9995
   88ccc     C9 2630   3.510  12.004   8.011  0.1209 -0.0091 -0.1624
   88ccc     O3 2631   3.518  11.901   7.948  0.6239  0.2332 -0.1241
   88ccc     O4 2632   3.398  12.032   8.074  0.5702 -0.3917 -0.1093
   88ccc    H16 2633   3.407  12.125   8.101  3.2315 -0.9662  1.1671
   88ccc     O5 2634   4.042  11.723   8.230  0.4001 -0.1624  0.0981
   89ccc     C1 2635   4.796  11.355   8.214 -0.1206 -0.7685  0.3668
   89ccc     H1 2636   4.845  11.260   8.241 -0.8068 -1.1473  0.2778
   89ccc     H2 2637   4.755  11.357   8.112  1.3071 -0.3132 -0.2161
   89ccc     C2 2638   4.893  11.471   8.251  0.0506 -0.1801 -0.4949
   89ccc     H3 2639   4.835  11.560   8.226  0.6225  0.3824  0.1587
   89ccc     H4 2640   4.980  11.470   8.184  1.1015 -0.2603  0.8369
   89ccc     C3 2641   4.941  11.494   8.391  0.2115 -0.8491 -0.4243
   89ccc     H5 2642   4.851  11.502   8.454 -0.5422  0.4205 -1.6250
   89ccc     H6 2643   4.994  11.590   8.400 -0.2900 -0.8034  2.6140
   89ccc     N1 2644   5.022  11.381   8.443  0.2749  0.6834  0.1196
   89ccc     C4 2645   4.990  11.344   8.587 -0.5186  0.3148 -0.1183
   89ccc     H7 2646   5.019  11.428   8.651  0.7678 -1.4164  1.6310
   89ccc     H8 2647   5.052  11.258   8.615 -0.4484 -0.1508 -1.6783
   89ccc     C5 2648   4.847  11.296   8.607 -0.0739  0.6080 -0.1764
   89ccc     H9 2649   4.845  11.255   8.709  2.3023 -0.2986 -0.4689
   89ccc    H10 2650   4.779  11.381   8.603  1.0037  1.5836  1.8748
   89ccc     C6 2651   4.811  11.185   8.509  0.4943  0.0700 -1.0368
   89ccc     O1 2652   4.891  11.102   8.478 -0.1116  0.1348 -0.1278
   89ccc     O2 2653   4.687  11.134   8.523 -0.5468  0.1091 -0.0459
   89ccc    H11 2654   4.651  11.202   8.583  0.3294  0.5769 -0.0435
   89ccc     C7 2655   5.163  11.375   8.392 -0.4698 -0.7061  1.1630
   89ccc    H12 2656   5.195  11.272   8.375 -1.8027 -0.7762 -1.1674
   89ccc    H13 2657   5.158  11.409   8.288 -1.0215  0.2159  1.4811
   89ccc     C8 2658   5.267  11.463   8.470  0.4293 -0.4771  0.5059
   89ccc    H14 2659   5.222  11.558   8.501 -1.7739 -0.5508 -2.2463
   89ccc    H15 2660   5.304  11.413   8.560 -0.1171 -0.3580  0.8016
   89ccc     C9 2661   5.392  11.490   8.387  0.1807  0.1229 -0.1314
   89ccc     O3 2662   5.396  11.513   8.271 -0.1720  0.0914 -0.8500
   89ccc     O4 2663   5.502  11.432   8.429 -0.0729 -0.0384 -1.1098
   89ccc    H16 2664   5.470  11.383   8.507 -0.0751  0.0986 -1.0257
   89ccc     O5 2665   4.686  11.383   8.304 -0.3073 -0.1256  0.2071
   90ccc     C1 2666   3.302   9.149   9.340 -0.3622 -0.8995  0.1255
   90ccc     H1 2667   3.309   9.040   9.345 -0.4648 -0.8452  1.6837
   90ccc     H2 2668   3.399   9.183   9.301 -0.1058 -3.3887 -1.5619
   90ccc     C2 2669   3.267   9.195   9.477 -0.4231 -0.6469  0.2208
   90ccc     H3 2670   3.339   9.155   9.549 -2.1869 -0.1533  2.3071
   90ccc     H4 2671   3.180   9.133   9.499 -3.0485  2.0987 -1.9341
   90ccc     C3 2672   3.235   9.346   9.509 -0.3774  0.6174  0.4938
   90ccc     H5 2673   3.142   9.371   9.456  0.6169 -0.5425 -1.8654
   90ccc     H6 2674   3.316   9.416   9.481 -0.7947  1.0187  0.2796
   90ccc     N1 2675   3.212   9.364   9.654 -0.3838 -0.0926 -0.2483
   90ccc     C4 2676   3.103   9.287   9.710  0.6626  0.4281 -0.0169
   90ccc     H7 2677   3.121   9.179   9.699 -1.1990  0.2089 -1.2485
   90ccc     H8 2678   3.093   9.308   9.817 -0.0345 -1.2051  0.2669
   90ccc     C5 2679   2.969   9.329   9.644 -0.2338  0.0497 -0.3028
   90ccc     H9 2680   2.976   9.306   9.537  0.0151  0.8319 -0.4528
   90ccc    H10 2681   2.956   9.437   9.633 -0.0674  0.0534 -0.4827
   90ccc     C6 2682   2.854   9.245   9.704 -0.5189 -0.4482  0.0767
   90ccc     O1 2683   2.816   9.145   9.645 -0.0496  0.1499  0.4756
   90ccc     O2 2684   2.762   9.310   9.778 -0.9625  0.6013  0.2453
   90ccc    H11 2685   2.818   9.382   9.810  1.2717 -1.7141  1.7251
   90ccc     C7 2686   3.330   9.369   9.739  0.2376 -0.5264  0.2416
   90ccc    H12 2687   3.305   9.327   9.837 -0.0745 -0.3294  0.2472
   90ccc    H13 2688   3.398   9.292   9.699  2.0708  0.9494  0.4485
   90ccc     C8 2689   3.389   9.514   9.753 -0.4699 -0.6138  0.3644
   90ccc    H14 2690   3.481   9.511   9.813 -0.6395  0.6510  0.6871
   90ccc    H15 2691   3.417   9.554   9.655 -0.5444  0.7896  0.9074
   90ccc     C9 2692   3.288   9.607   9.819  0.2513 -0.3240 -0.6119
   90ccc     O3 2693   3.255   9.610   9.938 -0.4096 -0.0474 -0.2569
   90ccc     O4 2694   3.207   9.679   9.743 -0.1696 -0.5352  0.2206
   90ccc    H16 2695   3.224   9.648   9.652  3.9370 -0.0238  0.6920
   90ccc     O5 2696   3.201   9.190   9.247 -0.1048 -0.2603  0.8222
   91ccc     C1 2697   3.290   8.794   8.478 -0.2631 -0.3941 -0.2279
   91ccc     H1 2698   3.327   8.867   8.551 -1.0184  1.3286 -1.5285
   91ccc     H2 2699   3.337   8.698   8.502 -1.8013 -0.8716  0.9878
   91ccc     C2 2700   3.334   8.838   8.339  0.2611 -0.8572  1.0072
   91ccc     H3 2701   3.441   8.861   8.324 -0.8313  3.3002 -1.2174
   91ccc     H4 2702   3.294   8.937   8.316 -1.8421 -2.3321 -2.0453
   91ccc     C3 2703   3.276   8.748   8.232 -0.0783 -0.3625  0.8428
   91ccc     H5 2704   3.178   8.795   8.216 -0.3971 -0.3997  2.6088
   91ccc     H6 2705   3.264   8.649   8.276 -3.9639 -0.1822  0.3467
   91ccc     N1 2706   3.338   8.750   8.093 -0.0219  0.0381 -0.2534
   91ccc     C4 2707   3.289   8.649   8.000  0.0337 -0.3720  0.2875
   91ccc     H7 2708   3.326   8.680   7.902  0.1884  0.0401  0.4768
   91ccc     H8 2709   3.180   8.653   7.986  0.0816 -0.8765 -0.2425
   91ccc     C5 2710   3.351   8.510   8.031 -0.2217 -0.0973  0.7727
   91ccc     H9 2711   3.310   8.470   8.124 -1.2238 -2.4576 -0.6029
   91ccc    H10 2712   3.337   8.446   7.942  0.0858  0.7678  0.0935
   91ccc     C6 2713   3.503   8.505   8.049 -0.2373  0.2081  0.1020
   91ccc     O1 2714   3.585   8.575   7.994 -0.3509 -0.1164 -0.1553
   91ccc     O2 2715   3.542   8.382   8.092 -0.1651 -0.6453  0.5857
   91ccc    H11 2716   3.456   8.338   8.105 -0.1242 -1.1440 -0.7268
   91ccc     C7 2717   3.336   8.884   8.027  0.0244  0.5318 -0.5690
   91ccc    H12 2718   3.252   8.893   7.958 -0.8187 -0.1244  0.3632
   91ccc    H13 2719   3.336   8.965   8.100  0.3321 -1.9678  2.2890
   91ccc     C8 2720   3.460   8.904   7.929 -0.3969  0.1626  0.8610
   91ccc    H14 2721   3.457   8.830   7.848  0.1620  1.6268 -0.5041
   91ccc    H15 2722   3.467   8.997   7.872  2.3323 -0.2644  0.4213
   91ccc     C9 2723   3.589   8.882   8.007 -0.1444  0.1016  0.0920
   91ccc     O3 2724   3.602   8.918   8.121  0.2611 -0.9839  0.0013
   91ccc     O4 2725   3.702   8.883   7.936  0.4045 -0.3132 -0.8829
   91ccc    H16 2726   3.667   8.875   7.845  2.1010 -2.0670 -1.4231
   91ccc     O5 2727   3.144   8.781   8.484  0.0099  0.4835 -0.5729
   92ccc     C1 2728   1.729  10.256   8.620  0.4854  0.7028  0.3935
   92ccc     H1 2729   1.734  10.226   8.726 -1.7896 -0.4392  0.2079
   92ccc     H2 2730   1.750  10.362   8.605  2.6933  0.0130 -1.7315
   92ccc     C2 2731   1.588  10.220   8.569  0.4060  0.8046 -0.0583
   92ccc     H3 2732   1.583  10.110   8.567  1.1193  0.7257  1.4586
   92ccc     H4 2733   1.595  10.247   8.463  0.5773 -1.4088 -0.6331
   92ccc     C3 2734   1.471  10.289   8.651  0.4919 -0.2275 -0.3055
   92ccc     H5 2735   1.373  10.273   8.605 -1.2189 -0.6483  3.3405
   92ccc     H6 2736   1.485  10.397   8.641 -1.4177  0.1003  0.4580
   92ccc     N1 2737   1.462  10.251   8.799  0.4626  0.1672  0.0589
   92ccc     C4 2738   1.365  10.332   8.869 -0.1281 -0.3220 -0.1347
   92ccc     H7 2739   1.366  10.292   8.971 -1.3447 -0.2640 -0.0849
   92ccc     H8 2740   1.270  10.332   8.814 -0.5768  1.7098  0.5941
   92ccc     C5 2741   1.402  10.484   8.884 -0.1124  1.0446 -0.1559
   92ccc     H9 2742   1.507  10.498   8.913  0.0028 -0.4576  0.1745
   92ccc    H10 2743   1.381  10.526   8.785  0.0080  1.8960  0.1697
   92ccc     C6 2744   1.320  10.552   8.990 -0.6045 -0.7028  0.7294
   92ccc     O1 2745   1.227  10.490   9.039 -0.0471 -0.0925  0.1697
   92ccc     O2 2746   1.304  10.682   8.973 -0.1127 -0.4346 -0.4341
   92ccc    H11 2747   1.366  10.714   8.905 -0.6692 -0.7919 -1.1131
   92ccc     C7 2748   1.452  10.100   8.819  0.0470 -0.6276  0.2994
   92ccc    H12 2749   1.448  10.083   8.927  2.8567 -0.6461  0.4531
   92ccc    H13 2750   1.544  10.050   8.785 -0.9109 -0.5986 -2.4665
   92ccc     C8 2751   1.334  10.025   8.761  0.3743  0.6769 -0.0591
   92ccc    H14 2752   1.241  10.066   8.802 -0.4666 -1.2421 -0.0319
   92ccc    H15 2753   1.339  10.038   8.652 -4.4214 -2.3840 -0.7566
   92ccc     C9 2754   1.348   9.875   8.792  0.3360  0.1679  1.1411
   92ccc     O3 2755   1.418   9.834   8.885  0.0759 -0.0432 -0.2817
   92ccc     O4 2756   1.247   9.793   8.752 -0.4769  0.8042 -0.2701
   92ccc    H16 2757   1.215   9.846   8.677 -0.5206 -0.4313 -1.1432
   92ccc     O5 2758   1.812  10.174   8.532 -0.2423  0.2398  0.0451
   93ccc     C1 2759   1.911   9.989   7.736 -0.0322  0.3745 -0.6530
   93ccc     H1 2760   1.974   9.905   7.707  0.0071  0.2005 -0.0743
   93ccc     H2 2761   1.821   9.942   7.780  1.6145 -0.3888  2.0367
   93ccc     C2 2762   1.858  10.065   7.614 -0.1213  0.0604 -0.2209
   93ccc     H3 2763   1.793   9.990   7.567  0.2491  1.2095 -2.6294
   93ccc     H4 2764   1.940  10.088   7.545  0.1396  1.4817  0.5469
   93ccc     C3 2765   1.781  10.193   7.643  0.2221 -0.6506 -0.3054
   93ccc     H5 2766   1.840  10.272   7.692  0.4283 -0.1513 -1.3541
   93ccc     H6 2767   1.704  10.164   7.715 -0.3119 -0.3966 -0.7725
   93ccc     N1 2768   1.730  10.256   7.523  0.2049  0.2342  0.3835
   93ccc     C4 2769   1.623  10.358   7.542 -0.7448 -0.1479 -0.1375
   93ccc     H7 2770   1.576  10.380   7.446 -2.2852  0.5020  0.7464
   93ccc     H8 2771   1.666  10.452   7.579  0.8499 -0.2297 -1.7294
   93ccc     C5 2772   1.516  10.316   7.645 -0.1197  0.4217  0.7899
   93ccc     H9 2773   1.486  10.211   7.631  0.0356  0.3170  1.2187
   93ccc    H10 2774   1.546  10.324   7.750 -1.7389 -0.5508  1.3639
   93ccc     C6 2775   1.390  10.406   7.638 -0.3188 -0.7042  0.6970
   93ccc     O1 2776   1.377  10.500   7.555 -0.0303  0.2394  0.3070
   93ccc     O2 2777   1.326  10.420   7.752 -0.1350  0.4277  0.0806
   93ccc    H11 2778   1.358  10.347   7.807 -0.6322 -0.5248 -0.8752
   93ccc     C7 2779   1.814  10.279   7.405  0.7847 -0.0267 -0.5506
   93ccc    H12 2780   1.759  10.325   7.322 -0.0042 -0.8010 -0.4664
   93ccc    H13 2781   1.844  10.177   7.379  0.2867 -0.7655  1.6519
   93ccc     C8 2782   1.943  10.363   7.423 -0.3681  0.8237 -0.3415
   93ccc    H14 2783   2.016  10.302   7.478 -1.9042 -1.1124 -0.3976
   93ccc    H15 2784   1.993  10.398   7.332  1.9884  3.8989  2.0251
   93ccc     C9 2785   1.925  10.481   7.506  0.2245 -0.2139  0.3692
   93ccc     O3 2786   1.942  10.496   7.627 -0.2196 -0.2725  0.4888
   93ccc     O4 2787   1.918  10.598   7.431 -0.1312 -0.2544 -0.4535
   93ccc    H16 2788   1.902  10.579   7.337 -1.4023 -0.3167 -0.2328
   93ccc     O5 2789   1.977  10.074   7.837 -0.4182 -0.0350  0.0340
   94ccc     C1 2790   3.203  11.685   8.028  0.5770 -0.8458 -0.1221
   94ccc     H1 2791   3.168  11.636   8.120  0.2465 -1.5409 -0.6148
   94ccc     H2 2792   3.294  11.743   8.050  1.1470 -1.3982 -0.9930
   94ccc     C2 2793   3.084  11.769   7.972  0.5655  0.5009  0.4424
   94ccc     H3 2794   3.023  11.817   8.050 -0.6541 -1.6533  0.8591
   94ccc     H4 2795   3.013  11.692   7.937  0.6451  1.1031 -1.0436
   94ccc     C3 2796   3.125  11.869   7.861  0.0568  0.7922  0.0311
   94ccc     H5 2797   3.105  11.820   7.764  0.5138  2.1698 -0.7734
   94ccc     H6 2798   3.231  11.892   7.874 -0.1816  1.1781  1.3875
   94ccc     N1 2799   3.045  11.993   7.859  0.4141  0.4581  0.6727
   94ccc     C4 2800   3.075  12.088   7.746  0.2199 -0.0468  0.8464
   94ccc     H7 2801   3.007  12.175   7.750 -0.4198 -0.3916 -1.7549
   94ccc     H8 2802   3.179  12.122   7.746  0.0525  0.4925 -0.3414
   94ccc     C5 2803   3.054  12.030   7.600 -0.1919  0.0528  0.2155
   94ccc     H9 2804   3.066  12.113   7.529 -0.0197 -0.4191 -0.3031
   94ccc    H10 2805   3.127  11.953   7.572  2.2449  1.3043  2.8199
   94ccc     C6 2806   2.916  11.963   7.583  0.5852  0.4727 -0.0012
   94ccc     O1 2807   2.871  11.865   7.637  0.3447  0.4415 -0.1848
   94ccc     O2 2808   2.857  12.006   7.474 -0.5040  0.8650  0.4530
   94ccc    H11 2809   2.909  12.085   7.451  1.2958 -0.3513  0.2373
   94ccc     C7 2810   3.056  12.076   7.988  0.5703 -0.3007 -0.8608
   94ccc    H12 2811   3.048  12.015   8.078  1.8806  0.4018 -0.2433
   94ccc    H13 2812   3.154  12.126   7.987  1.0447 -1.2122 -0.1105
   94ccc     C8 2813   2.955  12.191   8.004  0.2523 -0.6607  0.3418
   94ccc    H14 2814   2.984  12.265   7.928  0.4725 -0.0886  0.9699
   94ccc    H15 2815   2.853  12.152   7.998  0.5191 -1.2556 -0.3180
   94ccc     C9 2816   2.954  12.263   8.130 -1.0416 -0.0016  0.4553
   94ccc     O3 2817   3.013  12.219   8.227  0.4113 -0.2444 -0.2955
   94ccc     O4 2818   2.876  12.367   8.145 -0.5699 -0.1609  0.2774
   94ccc    H16 2819   2.853  12.378   8.051 -0.1940 -0.5025  0.1441
   94ccc     O5 2820   3.233  11.588   7.927  0.3405 -0.1453  0.3580
   95ccc     C1 2821   4.101  11.817   7.769 -0.0639 -0.5620  0.5051
   95ccc     H1 2822   4.065  11.883   7.689  0.2847 -2.7970 -1.5694
   95ccc     H2 2823   4.124  11.869   7.863  0.0790 -0.3907  0.3761
   95ccc     C2 2824   4.235  11.770   7.718 -0.3537 -0.1291  0.4833
   95ccc     H3 2825   4.296  11.861   7.713 -0.8420  0.2297  0.9585
   95ccc     H4 2826   4.233  11.729   7.616 -0.9875 -0.0310  0.4521
   95ccc     C3 2827   4.308  11.677   7.819  0.0636 -1.0698 -0.7171
   95ccc     H5 2828   4.249  11.586   7.839  1.4541 -1.0025  4.2178
   95ccc     H6 2829   4.324  11.729   7.914 -2.5277 -0.8035 -0.3853
   95ccc     N1 2830   4.438  11.624   7.778 -0.6077 -0.7694 -0.5356
   95ccc     C4 2831   4.530  11.721   7.724  0.4271  0.5900 -0.3568
   95ccc     H7 2832   4.489  11.778   7.639 -0.7903  1.0381  0.5244
   95ccc     H8 2833   4.611  11.663   7.678  0.4767 -0.6409  1.2647
   95ccc     C5 2834   4.583  11.819   7.827  0.4492 -0.2708 -0.2848
   95ccc     H9 2835   4.645  11.902   7.788  1.0814  0.1804  1.6516
   95ccc    H10 2836   4.508  11.876   7.882  1.1346 -1.7109  2.2006
   95ccc     C6 2837   4.668  11.746   7.924 -0.7932 -0.3681  0.4369
   95ccc     O1 2838   4.776  11.694   7.895  0.1602 -0.6931  0.0465
   95ccc     O2 2839   4.610  11.703   8.039  0.1933 -0.3958 -0.2078
   95ccc    H11 2840   4.528  11.756   8.035  0.3566 -0.1173  0.0716
   95ccc     C7 2841   4.436  11.502   7.690  0.2144  0.6622 -0.0988
   95ccc    H12 2842   4.351  11.443   7.728 -0.7328  0.0960 -3.0187
   95ccc    H13 2843   4.423  11.529   7.585 -3.7532 -0.0917  0.1152
   95ccc     C8 2844   4.559  11.408   7.718 -0.2860  0.0238  0.3720
   95ccc    H14 2845   4.652  11.446   7.675 -2.2248  2.1647 -2.1130
   95ccc    H15 2846   4.586  11.398   7.824  1.1215  0.0133  0.0269
   95ccc     C9 2847   4.533  11.263   7.672  0.2950 -0.2753 -0.4299
   95ccc     O3 2848   4.435  11.239   7.605 -0.3505 -0.3288  0.8004
   95ccc     O4 2849   4.644  11.180   7.686 -0.0585 -0.3597  0.1872
   95ccc    H16 2850   4.705  11.230   7.743 -0.8436 -0.1680  0.8575
   95ccc     O5 2851   4.009  11.709   7.797 -0.6522 -0.0603  0.2278
   96ccc     C1 2852   2.302  11.050   8.074 -0.0621  0.1186  0.6634
   96ccc     H1 2853   2.242  11.065   8.165  0.0184  0.1637  0.7101
   96ccc     H2 2854   2.336  11.141   8.022  0.5241 -0.8856 -0.7412
   96ccc     C2 2855   2.219  10.978   7.961 -0.0985  0.2893 -0.5486
   96ccc     H3 2856   2.193  10.883   8.011 -1.0296  1.1005  0.5447
   96ccc     H4 2857   2.280  10.951   7.874 -1.5601  0.0228 -1.5124
   96ccc     C3 2858   2.096  11.055   7.929 -0.0387  0.0158 -0.0408
   96ccc     H5 2859   2.120  11.154   7.889  1.1717 -0.4690 -0.5438
   96ccc     H6 2860   2.039  11.071   8.021 -0.3272  0.0805 -0.2304
   96ccc     N1 2861   2.019  10.984   7.823  0.0370 -0.6304  0.3247
   96ccc     C4 2862   2.053  11.027   7.684  0.3112  0.4801  0.3142
   96ccc     H7 2863   2.112  11.120   7.682  0.8021  0.2539  2.7035
   96ccc     H8 2864   1.964  11.061   7.631 -0.0233  0.2421  0.7187
   96ccc     C5 2865   2.116  10.903   7.622  0.2276 -0.1717 -0.3141
   96ccc     H9 2866   2.219  10.892   7.660  0.2899 -1.5723 -0.8289
   96ccc    H10 2867   2.060  10.810   7.639 -0.0346  0.2960  1.4351
   96ccc     C6 2868   2.126  10.922   7.475  0.5409 -0.2334 -1.1849
   96ccc     O1 2869   2.085  11.013   7.409 -0.1483  0.4307 -0.2435
   96ccc     O2 2870   2.166  10.816   7.404 -0.5539  0.0770  0.3064
   96ccc    H11 2871   2.198  10.752   7.469 -1.8583 -2.4386 -1.4392
   96ccc     C7 2872   1.869  10.990   7.852 -0.4179  0.1948 -0.2032
   96ccc    H12 2873   1.842  11.000   7.957  1.2456  1.0348  0.1685
   96ccc    H13 2874   1.829  11.082   7.808 -0.2973 -0.7002 -2.2518
   96ccc     C8 2875   1.780  10.875   7.802 -0.5345  0.2410  0.4432
   96ccc    H14 2876   1.785  10.876   7.693  2.5860  0.3536  0.5387
   96ccc    H15 2877   1.829  10.784   7.839  2.8223  1.5706 -0.5003
   96ccc     C9 2878   1.640  10.873   7.840  0.1984  0.1177 -0.0261
   96ccc     O3 2879   1.580  10.965   7.893 -0.1307  0.5855 -0.1375
   96ccc     O4 2880   1.587  10.751   7.852 -0.1955 -0.5010  0.3194
   96ccc    H16 2881   1.665  10.695   7.839 -0.2387 -0.6103  0.5290
   96ccc     O5 2882   2.419  10.964   8.099 -0.7011 -0.0256 -0.2383
   97ccc     C1 2883   2.346  10.512   8.338  0.4491  0.3751 -0.1186
   97ccc     H1 2884   2.303  10.419   8.378  1.6656  1.1512  3.0914
   97ccc     H2 2885   2.356  10.589   8.416  2.5548  1.3694 -1.3360
   97ccc     C2 2886   2.256  10.585   8.238  0.1710 -0.3610  0.9792
   97ccc     H3 2887   2.304  10.676   8.200  0.6153 -1.1036 -0.2608
   97ccc     H4 2888   2.163  10.617   8.287  0.5659  2.1388  0.1919
   97ccc     C3 2889   2.229  10.503   8.105 -0.1284 -0.4048 -0.4258
   97ccc     H5 2890   2.178  10.412   8.139  2.7435 -0.8832  2.8950
   97ccc     H6 2891   2.328  10.467   8.074  0.8179  1.7480 -0.0235
   97ccc     N1 2892   2.161  10.565   7.995  0.3979  1.4742 -0.2864
   97ccc     C4 2893   2.029  10.634   8.024  0.8605 -0.7562  0.1689
   97ccc     H7 2894   1.998  10.679   7.929  1.5150  2.0785  1.2369
   97ccc     H8 2895   2.048  10.718   8.092 -0.3990  0.8731 -1.4376
   97ccc     C5 2896   1.937  10.536   8.098 -0.0186  0.7961 -0.8048
   97ccc     H9 2897   1.919  10.449   8.034 -3.0011  1.0192 -0.3708
   97ccc    H10 2898   1.978  10.518   8.198  0.6071 -0.6776 -1.3150
   97ccc     C6 2899   1.795  10.595   8.102  0.1323 -0.1226  0.6438
   97ccc     O1 2900   1.771  10.714   8.107 -0.3377  0.7736  0.0263
   97ccc     O2 2901   1.708  10.513   8.162  0.0996  0.2526 -0.2279
   97ccc    H11 2902   1.758  10.431   8.178 -0.7997 -0.2866 -0.1356
   97ccc     C7 2903   2.163  10.483   7.876 -0.0317 -0.4206 -0.2081
   97ccc    H12 2904   2.175  10.378   7.909  0.9988 -0.6810 -1.3738
   97ccc    H13 2905   2.072  10.483   7.816 -1.2767  1.0225  1.6373
   97ccc     C8 2906   2.273  10.539   7.790  0.0784 -0.7749 -0.0076
   97ccc    H14 2907   2.293  10.641   7.828  0.6103 -0.6000 -0.7438
   97ccc    H15 2908   2.365  10.488   7.821  0.1722  0.3919  1.7834
   97ccc     C9 2909   2.244  10.537   7.648 -0.8215  0.6212  0.3477
   97ccc     O3 2910   2.222  10.633   7.583 -0.3585  0.0504  0.4057
   97ccc     O4 2911   2.287  10.428   7.579 -0.1932 -0.1911 -0.2633
   97ccc    H16 2912   2.297  10.359   7.646 -0.1675 -1.8613 -1.9479
   97ccc     O5 2913   2.477  10.486   8.281 -0.1501  0.0758 -0.0845
   98ccc     C1 2914   4.574  11.510   6.931  0.3451  0.2825  0.0878
   98ccc     H1 2915   4.654  11.564   6.878  0.8808 -0.2443  0.3574
   98ccc     H2 2916   4.590  11.402   6.923  3.0022  0.5912  0.8154
   98ccc     C2 2917   4.442  11.555   6.871  0.2979  0.4017  0.8122
   98ccc     H3 2918   4.442  11.537   6.763 -0.5835  0.0711  0.8663
   98ccc     H4 2919   4.429  11.663   6.873  0.2804  0.4129  0.0369
   98ccc     C3 2920   4.318  11.478   6.927 -0.1738  0.5294  1.0164
   98ccc     H5 2921   4.225  11.535   6.915  0.2137  0.5997 -1.8787
   98ccc     H6 2922   4.336  11.478   7.035  2.1888  1.4729  0.6349
   98ccc     N1 2923   4.292  11.349   6.865 -0.0779  0.0773 -0.4345
   98ccc     C4 2924   4.246  11.378   6.729  0.2166 -0.0975 -0.5207
   98ccc     H7 2925   4.273  11.477   6.692 -0.0750  0.7268  1.4413
   98ccc     H8 2926   4.137  11.369   6.717 -0.0635 -1.0350  2.3371
   98ccc     C5 2927   4.269  11.261   6.634 -0.1162 -0.1587 -0.1162
   98ccc     H9 2928   4.218  11.176   6.682  0.0424 -1.1237 -1.6214
   98ccc    H10 2929   4.227  11.281   6.535 -1.1595  2.4462  0.8267
   98ccc     C6 2930   4.417  11.231   6.607 -0.1858 -0.1803 -0.4886
   98ccc     O1 2931   4.503  11.303   6.655 -0.0101  0.1654 -0.5475
   98ccc     O2 2932   4.432  11.132   6.522 -0.0868  0.1517  0.3778
   98ccc    H11 2933   4.341  11.105   6.504 -0.1967  1.1563 -0.6184
   98ccc     C7 2934   4.208  11.264   6.939 -1.0299  0.0827  0.6675
   98ccc    H12 2935   4.187  11.174   6.881 -1.5783 -1.4704  3.1784
   98ccc    H13 2936   4.109  11.310   6.947 -1.0442  0.1180  0.2826
   98ccc     C8 2937   4.262  11.215   7.078 -0.3557  0.4439 -0.6863
   98ccc    H14 2938   4.264  11.303   7.143  2.0883  0.1452 -0.3271
   98ccc    H15 2939   4.361  11.168   7.078  0.3020  1.7962 -0.0012
   98ccc     C9 2940   4.168  11.111   7.150 -0.1391 -0.8374 -0.1623
   98ccc     O3 2941   4.081  11.047   7.089  0.2191  0.8307 -0.1185
   98ccc     O4 2942   4.216  11.068   7.264 -0.1650  0.1788 -0.7335
   98ccc    H16 2943   4.277  11.137   7.296 -0.2443  0.0775 -0.3605
   98ccc     O5 2944   4.583  11.550   7.074  0.1029 -0.5603  0.0308
   99ccc     C1 2945   4.325  12.306   7.621  0.7603  0.2667 -0.2925
   99ccc     H1 2946   4.247  12.348   7.556  0.1573  0.1878  0.3758
   99ccc     H2 2947   4.295  12.200   7.621 -0.1278  0.5134  0.5991
   99ccc     C2 2948   4.334  12.381   7.758  0.5719 -0.7645  0.0843
   99ccc     H3 2949   4.396  12.323   7.827 -0.5572 -1.9405  0.1309
   99ccc     H4 2950   4.234  12.368   7.799 -0.0578  0.8027 -0.9039
   99ccc     C3 2951   4.367  12.529   7.738 -0.9172 -0.1165 -0.3190
   99ccc     H5 2952   4.283  12.579   7.688 -2.3013  0.2122  2.2577
   99ccc     H6 2953   4.456  12.544   7.675 -1.1400 -0.1907 -0.6541
   99ccc     N1 2954   4.390  12.599   7.869  0.2602  1.0683 -0.1152
   99ccc     C4 2955   4.408  12.746   7.854  0.4243  0.2401 -0.5606
   99ccc     H7 2956   4.411  12.798   7.950  2.3181 -0.9308  0.0361
   99ccc     H8 2957   4.330  12.799   7.798 -1.0417 -0.4166  0.8359
   99ccc     C5 2958   4.544  12.786   7.784 -0.2564 -0.1646 -0.4517
   99ccc     H9 2959   4.629  12.766   7.851 -0.5217 -0.1023 -0.0931
   99ccc    H10 2960   4.554  12.717   7.700  1.0071 -0.4787 -0.0515
   99ccc     C6 2961   4.552  12.935   7.753  0.4758  0.2071 -0.8156
   99ccc     O1 2962   4.465  13.021   7.777 -0.3944  0.5002  0.1017
   99ccc     O2 2963   4.653  12.962   7.668 -0.0277  0.0660  0.3230
   99ccc    H11 2964   4.702  12.878   7.671  1.5997  1.0502  2.0359
   99ccc     C7 2965   4.289  12.558   7.977 -0.3951 -0.4394  0.6871
   99ccc    H12 2966   4.284  12.450   7.990 -1.0395 -0.3324  1.3963
   99ccc    H13 2967   4.189  12.582   7.937  0.6293  2.1703 -0.3957
   99ccc     C8 2968   4.307  12.627   8.110  0.0003  1.2496  0.0331
   99ccc    H14 2969   4.410  12.629   8.147 -0.4813  4.5048  1.3379
   99ccc    H15 2970   4.273  12.729   8.092 -0.3548  1.0454 -0.4604
   99ccc     C9 2971   4.233  12.563   8.218  0.0472  0.1703  0.5704
   99ccc     O3 2972   4.188  12.449   8.214  0.3981  0.5193  0.1639
   99ccc     O4 2973   4.234  12.640   8.331 -0.4837 -0.0012  0.0329
   99ccc    H16 2974   4.282  12.719   8.302 -0.0004 -0.6320 -0.9196
   99ccc     O5 2975   4.449  12.317   7.539 -0.7730 -0.2939 -0.4241
  100ccc     C1 2976   3.065  10.932   6.753  0.0285 -0.3136  0.1954
  100ccc     H1 2977   3.167  10.941   6.792 -0.0986  0.6736  0.3201
  100ccc     H2 2978   2.992  10.919   6.834  0.0711  0.6754  0.4076
  100ccc     C2 2979   3.047  10.804   6.661 -0.4762  0.4643 -0.4892
  100ccc     H3 2980   3.075  10.715   6.719 -0.5882 -0.1018 -1.2909
  100ccc     H4 2981   3.121  10.810   6.580  0.4254  0.0679  0.2980
  100ccc     C3 2982   2.910  10.776   6.614 -0.8509  1.0323  0.5714
  100ccc     H5 2983   2.900  10.836   6.522 -2.7819 -0.6604 -0.3734
  100ccc     H6 2984   2.831  10.815   6.679 -1.0829  1.1602  0.2177
  100ccc     N1 2985   2.891  10.637   6.562 -0.0980  0.6502 -0.3759
  100ccc     C4 2986   2.848  10.539   6.667  0.5459 -0.0803 -0.2325
  100ccc     H7 2987   2.774  10.590   6.730 -1.8812 -0.0729 -2.9614
  100ccc     H8 2988   2.937  10.506   6.722  0.5107 -0.0303 -0.1452
  100ccc     C5 2989   2.797  10.401   6.613  0.4493  0.5837  0.1633
  100ccc     H9 2990   2.860  10.347   6.542  0.7663 -2.5154  2.6858
  100ccc    H10 2991   2.778  10.340   6.702  0.0158  0.1732 -0.2110
  100ccc     C6 2992   2.659  10.402   6.549  0.5513  0.0685  0.1567
  100ccc     O1 2993   2.603  10.503   6.508 -0.4358 -0.7743 -0.6268
  100ccc     O2 2994   2.591  10.290   6.534  0.7639 -0.0440  0.3921
  100ccc    H11 2995   2.658  10.220   6.542 -0.4933 -1.4584 -1.0603
  100ccc     C7 2996   2.991  10.583   6.457  1.5955 -0.2288 -0.7828
  100ccc    H12 2997   3.075  10.551   6.519  0.2459 -0.0130  1.1775
  100ccc    H13 2998   2.951  10.491   6.412 -1.8069  1.8834 -2.2869
  100ccc     C8 2999   3.031  10.678   6.344 -0.1348 -0.4865  0.1797
  100ccc    H14 3000   2.940  10.702   6.288  0.1803 -1.7884 -0.9068
  100ccc    H15 3001   3.064  10.776   6.383 -0.2271 -0.6798  0.7467
  100ccc     C9 3002   3.135  10.613   6.255 -0.1970 -0.6402 -0.6649
  100ccc     O3 3003   3.212  10.530   6.300 -0.8498  0.3409  0.3306
  100ccc     O4 3004   3.162  10.665   6.135  0.0602  0.0085 -0.0752
  100ccc    H16 3005   3.095  10.735   6.139 -2.1294 -1.9589 -1.2130
  100ccc     O5 3006   3.026  11.044   6.671  0.1606  0.0262  0.2199
  101ccc     C1 3007   3.420  12.010   6.907  0.7262  0.1851 -0.6346
  101ccc     H1 3008   3.510  12.037   6.850  1.4026  2.0213  1.2449
  101ccc     H2 3009   3.335  12.058   6.858  0.1695 -0.9524 -0.7946
  101ccc     C2 3010   3.432  12.068   7.055  0.3069 -0.2412  0.0517
  101ccc     H3 3011   3.507  12.008   7.109  0.4006  0.7875  1.0769
  101ccc     H4 3012   3.333  12.043   7.094 -1.2757  2.8668 -1.8572
  101ccc     C3 3013   3.486  12.217   7.049 -0.0679 -0.0277 -0.3024
  101ccc     H5 3014   3.423  12.274   6.980 -0.0585 -0.6545 -0.8479
  101ccc     H6 3015   3.586  12.210   7.004  1.4832 -0.1798  2.9955
  101ccc     N1 3016   3.499  12.274   7.185 -0.1161 -0.0993 -0.5045
  101ccc     C4 3017   3.374  12.317   7.240  0.4847  0.4596 -0.9463
  101ccc     H7 3018   3.287  12.261   7.203 -1.1943  1.8976  0.7105
  101ccc     H8 3019   3.358  12.420   7.205  3.9304  0.0977 -3.9764
  101ccc     C5 3020   3.371  12.286   7.393  0.1985 -0.1629  0.0482
  101ccc     H9 3021   3.345  12.181   7.414 -1.0879  0.4322  1.4675
  101ccc    H10 3022   3.469  12.305   7.438 -0.2285 -0.1054  0.9628
  101ccc     C6 3023   3.270  12.378   7.468 -0.1882  0.1418  0.3151
  101ccc     O1 3024   3.162  12.399   7.419 -0.6754 -0.2261 -0.3644
  101ccc     O2 3025   3.278  12.392   7.605  0.0610 -0.4254  0.1615
  101ccc    H11 3026   3.351  12.328   7.620 -0.5056 -1.0214  0.4216
  101ccc     C7 3027   3.604  12.380   7.206  0.1136  0.0422 -0.1992
  101ccc    H12 3028   3.601  12.451   7.123 -0.8937 -1.6424 -1.6341
  101ccc    H13 3029   3.589  12.417   7.308 -1.2286  0.2447 -0.4594
  101ccc     C8 3030   3.743  12.304   7.196  0.3960  0.0034  1.1124
  101ccc    H14 3031   3.740  12.226   7.274 -1.6806 -1.6788 -0.5855
  101ccc    H15 3032   3.769  12.259   7.100 -2.6476  0.0320  0.2295
  101ccc     C9 3033   3.862  12.387   7.227  1.0195  0.3300 -0.6410
  101ccc     O3 3034   3.858  12.505   7.254  0.0359  0.4093 -0.5661
  101ccc     O4 3035   3.981  12.330   7.208 -0.2209  0.0492 -0.0498
  101ccc    H16 3036   3.956  12.237   7.193  2.5822 -0.5598 -1.2193
  101ccc     O5 3037   3.392  11.869   6.926 -0.0133 -0.6137  0.1784
  102ccc     C1 3038   4.734   9.784   7.776 -0.3441 -0.4810 -0.2862
  102ccc     H1 3039   4.795   9.694   7.793  1.2867  0.2943 -1.8601
  102ccc     H2 3040   4.641   9.764   7.722  1.0668 -0.6985 -2.7072
  102ccc     C2 3041   4.818   9.872   7.680  0.0657 -0.2552  0.2687
  102ccc     H3 3042   4.899   9.923   7.732  0.9183  0.6447 -1.8898
  102ccc     H4 3043   4.752   9.946   7.634 -0.0761 -1.2845 -1.2199
  102ccc     C3 3044   4.886   9.803   7.561  0.0599  0.6013  0.0644
  102ccc     H5 3045   4.809   9.733   7.527 -0.2676  0.2584  1.4595
  102ccc     H6 3046   4.970   9.743   7.600  0.4457  0.7417 -0.5535
  102ccc     N1 3047   4.933   9.888   7.458 -0.2487  0.5673 -0.2774
  102ccc     C4 3048   5.023   9.998   7.510 -0.0459  0.0216  0.4337
  102ccc     H7 3049   4.981  10.057   7.592  0.0982 -0.5980  0.9556
  102ccc     H8 3050   5.036  10.071   7.429 -0.1023 -0.1173  0.2998
  102ccc     C5 3051   5.169   9.954   7.537  0.2023  1.1513  0.0182
  102ccc     H9 3052   5.216   9.907   7.450 -0.4721  0.0486  0.2411
  102ccc    H10 3053   5.171   9.875   7.612 -0.5377 -0.0048 -1.1725
  102ccc     C6 3054   5.249  10.064   7.601  0.2492 -0.4490 -0.5626
  102ccc     O1 3055   5.210  10.117   7.702 -0.7535 -0.3530 -0.3719
  102ccc     O2 3056   5.374  10.074   7.557 -0.5966  0.0155 -0.5716
  102ccc    H11 3057   5.358  10.038   7.468 -0.5821  1.0377 -0.9880
  102ccc     C7 3058   4.981   9.809   7.340  0.1930  0.3311 -0.6606
  102ccc    H12 3059   4.910   9.726   7.329 -0.6607  0.9765 -0.0763
  102ccc    H13 3060   5.079   9.771   7.373 -0.0763  1.6488  1.8038
  102ccc     C8 3061   4.986   9.883   7.205 -0.8899 -0.9312 -0.4278
  102ccc    H14 3062   5.048   9.973   7.219 -0.6263 -1.0505 -0.8036
  102ccc    H15 3063   4.885   9.906   7.169 -0.8324 -0.1891 -0.1181
  102ccc     C9 3064   5.060   9.814   7.098  0.1518 -0.4623 -0.1900
  102ccc     O3 3065   5.130   9.715   7.103 -0.1893 -0.1261 -0.3102
  102ccc     O4 3066   5.060   9.886   6.988  0.0168 -0.0640  0.6691
  102ccc    H16 3067   4.996   9.956   7.012 -1.9852 -0.4867 -3.0819
  102ccc     O5 3068   4.707   9.866   7.895  0.5034 -0.7797 -0.1236
  103ccc     C1 3069   3.903   9.971   8.317  0.4505  0.0775  0.2942
  103ccc     H1 3070   3.965  10.060   8.335  1.0906 -0.1464 -0.7841
  103ccc     H2 3071   3.819  10.001   8.253  0.7970 -1.5399 -0.9458
  103ccc     C2 3072   3.853   9.917   8.451  0.5988 -0.8705  0.4081
  103ccc     H3 3073   3.940   9.896   8.514  1.1957 -0.9453 -0.4397
  103ccc     H4 3074   3.819   9.812   8.458  0.9867 -1.0350 -0.1765
  103ccc     C3 3075   3.774  10.030   8.521 -0.3688 -0.2117  0.3366
  103ccc     H5 3076   3.747   9.990   8.620 -0.3260  2.3451  1.4364
  103ccc     H6 3077   3.687  10.045   8.456 -0.5622 -0.1689  0.6011
  103ccc     N1 3078   3.850  10.159   8.548 -0.7167  0.1132 -0.1204
  103ccc     C4 3079   3.985  10.142   8.607 -0.0366  0.3805 -0.1532
  103ccc     H7 3080   4.035  10.236   8.633  1.2433 -0.8204  1.8923
  103ccc     H8 3081   4.056  10.099   8.536  1.1641  0.0589  1.2203
  103ccc     C5 3082   3.990  10.067   8.740  0.2481 -0.0491 -0.3550
  103ccc     H9 3083   3.921  10.104   8.817  0.7013 -1.1135  0.5643
  103ccc    H10 3084   3.962   9.962   8.722 -0.3609 -0.0369  0.4886
  103ccc     C6 3085   4.135  10.053   8.798  0.3285  0.4744  0.6075
  103ccc     O1 3086   4.216   9.974   8.763  0.3378 -0.1148  0.1253
  103ccc     O2 3087   4.170  10.166   8.857 -0.2228  0.6906 -0.5186
  103ccc    H11 3088   4.088  10.204   8.895  0.1874 -0.1723  1.3142
  103ccc     C7 3089   3.769  10.257   8.620  0.9909 -0.2887  0.2154
  103ccc    H12 3090   3.664  10.237   8.596  0.4421  0.2817  2.0588
  103ccc    H13 3091   3.762  10.230   8.726  1.4129 -0.7526  0.1272
  103ccc     C8 3092   3.811  10.403   8.606 -0.0061  0.5879 -0.7834
  103ccc    H14 3093   3.899  10.420   8.669 -0.0145 -0.4438 -0.4904
  103ccc    H15 3094   3.830  10.423   8.499  0.0680  1.1840 -0.6603
  103ccc     C9 3095   3.707  10.490   8.665  0.6498 -0.6161 -0.3723
  103ccc     O3 3096   3.605  10.456   8.728 -0.4745 -0.5630 -0.0685
  103ccc     O4 3097   3.726  10.621   8.633 -0.0568 -0.3936 -0.6663
  103ccc    H16 3098   3.803  10.612   8.574 -0.2693 -2.9000 -0.5963
  103ccc     O5 3099   3.983   9.871   8.238 -0.2542 -0.0115 -0.6596
  104ccc     C1 3100   4.314  11.597   8.717 -0.0078  0.2028  0.4259
  104ccc     H1 3101   4.251  11.638   8.797  1.3786 -1.5626  2.5040
  104ccc     H2 3102   4.416  11.591   8.757 -0.0293 -1.8340  0.1872
  104ccc     C2 3103   4.305  11.702   8.604 -0.1821  0.4225 -0.1775
  104ccc     H3 3104   4.202  11.701   8.567 -0.6189  1.8980  0.9378
  104ccc     H4 3105   4.353  11.675   8.509 -2.1784 -1.3327 -0.7237
  104ccc     C3 3106   4.361  11.843   8.647  0.3811 -0.1595 -1.2342
  104ccc     H5 3107   4.470  11.846   8.643  0.4487 -1.1006 -0.1622
  104ccc     H6 3108   4.331  11.869   8.749  0.0531 -0.6302 -1.2117
  104ccc     N1 3109   4.307  11.953   8.563 -0.9812  0.0119  0.4019
  104ccc     C4 3110   4.168  12.001   8.581  0.4507  0.1881 -0.2371
  104ccc     H7 3111   4.142  12.076   8.505  1.7782  2.1745  1.2236
  104ccc     H8 3112   4.105  11.911   8.571 -1.2446  1.4629 -1.2788
  104ccc     C5 3113   4.144  12.063   8.722  0.6467  0.0614 -0.3865
  104ccc     H9 3114   4.227  12.126   8.754  0.4800 -0.0168  0.2007
  104ccc    H10 3115   4.136  11.978   8.791  2.3215 -0.3569 -0.6979
  104ccc     C6 3116   4.030  12.148   8.755  0.2552 -0.2766  0.0205
  104ccc     O1 3117   3.979  12.220   8.677 -0.0623  0.4605 -0.2431
  104ccc     O2 3118   3.965  12.123   8.870  0.7877 -0.0742 -0.2941
  104ccc    H11 3119   4.039  12.094   8.925 -0.6231 -1.8947  0.6947
  104ccc     C7 3120   4.329  11.941   8.418 -0.3412  1.0843  0.0201
  104ccc    H12 3121   4.291  11.844   8.384  2.2322 -0.7428  2.1149
  104ccc    H13 3122   4.275  12.021   8.366 -3.8469 -1.6033 -0.6644
  104ccc     C8 3123   4.483  11.946   8.378  0.2500  0.2232  0.2669
  104ccc    H14 3124   4.543  12.025   8.425 -0.7227  0.3740  1.2534
  104ccc    H15 3125   4.538  11.855   8.404  1.0767  0.8485  0.7228
  104ccc     C9 3126   4.499  11.959   8.227  0.6897 -0.0163  0.4315
  104ccc     O3 3127   4.432  11.888   8.154  0.1421 -0.1251 -0.5828
  104ccc     O4 3128   4.616  12.003   8.182 -0.6785  0.8321  0.1127
  104ccc    H16 3129   4.653  12.040   8.264  0.6801 -0.2024 -0.0161
  104ccc     O5 3130   4.283  11.461   8.681 -0.3427  0.4137 -0.2633
  105ccc     C1 3131   3.791  11.023   8.937  0.1358 -0.0237  0.5659
  105ccc     H1 3132   3.881  11.034   8.999  0.3489 -0.2235  0.2975
  105ccc     H2 3133   3.744  11.121   8.924 -0.0127 -0.1637  0.0294
  105ccc     C2 3134   3.691  10.922   9.006  0.3884  0.2544 -0.0782
  105ccc     H3 3135   3.596  10.918   8.950  0.7964  1.0450 -0.8449
  105ccc     H4 3136   3.688  10.963   9.107 -1.2502  1.7473 -0.6852
  105ccc     C3 3137   3.751  10.780   9.029  0.2616  0.2198  0.2096
  105ccc     H5 3138   3.852  10.798   9.066  0.8908  0.5246 -1.6169
  105ccc     H6 3139   3.760  10.731   8.931 -2.7589  0.8702 -0.4502
  105ccc     N1 3140   3.673  10.698   9.125 -0.3585  0.2391  0.3115
  105ccc     C4 3141   3.746  10.577   9.163  0.0085 -0.1277 -0.3341
  105ccc     H7 3142   3.839  10.615   9.208  0.3217 -0.2193 -0.9034
  105ccc     H8 3143   3.759  10.508   9.079 -1.0888  2.4469 -2.7022
  105ccc     C5 3144   3.671  10.488   9.265  0.6282 -0.8402  0.0949
  105ccc     H9 3145   3.638  10.550   9.349 -0.4848 -0.2416 -0.7834
  105ccc    H10 3146   3.583  10.444   9.217 -0.6950  1.2286  0.5572
  105ccc     C6 3147   3.762  10.375   9.317  0.2377 -0.0356  0.5518
  105ccc     O1 3148   3.833  10.316   9.233  0.0768 -0.7813  0.1678
  105ccc     O2 3149   3.808  10.380   9.438 -0.4546  0.1651 -0.0165
  105ccc    H11 3150   3.755  10.451   9.478  0.9799  1.9706 -1.2321
  105ccc     C7 3151   3.532  10.682   9.088  0.0864 -1.3621  0.1119
  105ccc    H12 3152   3.473  10.626   9.162 -2.9953 -0.9810 -1.9568
  105ccc    H13 3153   3.494  10.784   9.074  2.5353 -0.3609  0.5596
  105ccc     C8 3154   3.518  10.599   8.953 -0.5347 -0.1210 -0.2465
  105ccc    H14 3155   3.565  10.649   8.866  1.8007  0.7816  1.4710
  105ccc    H15 3156   3.562  10.499   8.966 -0.0174 -0.0644 -1.4602
  105ccc     C9 3157   3.374  10.576   8.910  0.2736  0.1491 -0.3554
  105ccc     O3 3158   3.278  10.605   8.978  0.1939 -0.2973  0.0235
  105ccc     O4 3159   3.356  10.510   8.798 -0.6691  0.0635  0.1941
  105ccc    H16 3160   3.445  10.481   8.772 -0.7305  1.0446 -1.1696
  105ccc     O5 3161   3.837  10.969   8.802  0.1288  0.4023 -0.0291
  106ccc     C1 3162   5.581  11.140   7.537 -0.4610  0.1975  0.3560
  106ccc     H1 3163   5.581  11.097   7.436  0.2099 -1.5332  1.0625
  106ccc     H2 3164   5.474  11.142   7.562 -0.0420 -0.6541  2.3254
  106ccc     C2 3165   5.622  11.294   7.526 -0.2383 -0.0919  0.1790
  106ccc     H3 3166   5.638  11.347   7.620 -1.0043  0.7670 -0.1757
  106ccc     H4 3167   5.534  11.342   7.480 -0.6828 -0.9596  0.1132
  106ccc     C3 3168   5.742  11.321   7.438 -0.3195 -0.0807 -0.4043
  106ccc     H5 3169   5.708  11.285   7.340 -0.8596 -0.3137 -0.1343
  106ccc     H6 3170   5.825  11.261   7.478 -0.6876  0.3945  1.0967
  106ccc     N1 3171   5.770  11.467   7.436 -0.2954 -0.2622  0.3194
  106ccc     C4 3172   5.845  11.521   7.547  0.1023  0.0757  0.3324
  106ccc     H7 3173   5.951  11.494   7.539 -0.4407 -2.3260  0.9435
  106ccc     H8 3174   5.817  11.470   7.640 -2.1348  0.4705 -0.0944
  106ccc     C5 3175   5.826  11.673   7.578 -0.6787 -0.5387 -0.5980
  106ccc     H9 3176   5.849  11.744   7.498 -1.2796  3.2308  2.3944
  106ccc    H10 3177   5.719  11.697   7.585 -0.5571  0.5601 -2.2432
  106ccc     C6 3178   5.892  11.719   7.712  0.5050 -0.0371  0.0497
  106ccc     O1 3179   5.902  11.641   7.806 -0.3590 -0.0397 -0.5748
  106ccc     O2 3180   5.910  11.852   7.731 -0.2124 -0.5204 -0.2689
  106ccc    H11 3181   5.893  11.875   7.638 -0.3343 -2.1922 -0.6755
  106ccc     C7 3182   5.813  11.513   7.303  0.5426  0.1157  0.2582
  106ccc    H12 3183   5.914  11.480   7.273 -0.3509 -0.4762 -2.1998
  106ccc    H13 3184   5.818  11.623   7.306  0.9720  0.0930  0.5177
  106ccc     C8 3185   5.702  11.484   7.191  0.3896  0.3488  0.7248
  106ccc    H14 3186   5.703  11.377   7.167 -3.0752  0.6478 -1.2308
  106ccc    H15 3187   5.605  11.509   7.236  0.8487  2.6451  0.4848
  106ccc     C9 3188   5.733  11.572   7.069 -0.7766 -0.1881 -0.2217
  106ccc     O3 3189   5.669  11.671   7.033  0.7738 -0.2535 -0.1251
  106ccc     O4 3190   5.834  11.527   6.989 -0.5657  0.1146 -0.5077
  106ccc    H16 3191   5.868  11.457   7.048 -2.9672 -0.0848  0.7103
  106ccc     O5 3192   5.668  11.066   7.623  0.0664 -0.2915  0.6574
  107ccc     C1 3193   5.720  10.101   7.774  0.3977 -0.0554  0.6884
  107ccc     H1 3194   5.726  10.096   7.664 -0.3043 -1.8809  0.7087
  107ccc     H2 3195   5.820  10.066   7.803  1.8027  0.7998 -2.8246
  107ccc     C2 3196   5.611  10.000   7.818 -0.4018  0.4050 -0.0707
  107ccc     H3 3197   5.633   9.902   7.774 -1.3774  0.0034  0.3014
  107ccc     H4 3198   5.518  10.039   7.774  0.1027  0.3913 -1.1634
  107ccc     C3 3199   5.601   9.985   7.975 -0.6043  0.8256  0.7990
  107ccc     H5 3200   5.583  10.084   8.018  0.4882  1.8491 -1.0611
  107ccc     H6 3201   5.701   9.955   8.010 -1.0373 -0.4869  0.9370
  107ccc     N1 3202   5.505   9.894   8.021  0.0269 -0.1790 -0.4954
  107ccc     C4 3203   5.364   9.904   7.971 -0.3345  0.0436 -0.4124
  107ccc     H7 3204   5.309   9.814   8.003 -1.2931  1.0547  0.8724
  107ccc     H8 3205   5.374   9.910   7.862 -0.3437 -2.3611 -0.5819
  107ccc     C5 3206   5.285  10.027   8.024  0.4582 -0.8671  0.2421
  107ccc     H9 3207   5.318  10.119   7.976 -2.2493  0.6658  1.1787
  107ccc    H10 3208   5.284  10.043   8.133 -1.5039  2.2820 -0.1617
  107ccc     C6 3209   5.133  10.033   7.988 -0.7049 -0.6224 -0.2886
  107ccc     O1 3210   5.071   9.943   7.934  0.4351  0.4089 -0.0234
  107ccc     O2 3211   5.057  10.128   8.048  0.0472  0.5289 -0.0479
  107ccc    H11 3212   5.132  10.175   8.089 -0.6365  2.0242 -0.4857
  107ccc     C7 3213   5.512   9.848   8.157 -0.0637  0.0737  0.1533
  107ccc    H12 3214   5.446   9.761   8.168 -0.6720  0.3169 -1.3846
  107ccc    H13 3215   5.473   9.926   8.224  3.1169  0.9751  1.0664
  107ccc     C8 3216   5.654   9.815   8.217 -0.8748 -0.6243  0.5296
  107ccc    H14 3217   5.714   9.907   8.218 -1.3537 -0.2778 -0.9464
  107ccc    H15 3218   5.704   9.743   8.151  0.7289  1.0582 -0.1422
  107ccc     C9 3219   5.660   9.752   8.352 -0.1207 -0.0721 -0.0392
  107ccc     O3 3220   5.599   9.800   8.447 -0.4172 -0.5307  0.4187
  107ccc     O4 3221   5.778   9.698   8.372  0.3616  0.3886 -0.1404
  107ccc    H16 3222   5.818   9.704   8.284  1.9333  0.6742  0.5616
  107ccc     O5 3223   5.699  10.234   7.816 -0.3114  0.2185  0.1893
  108ccc     C1 3224   6.022  10.822   7.575 -0.0267 -0.8104 -0.2046
  108ccc     H1 3225   6.086  10.803   7.487 -0.0502  0.4922 -0.5091
  108ccc     H2 3226   5.915  10.807   7.556 -0.4781  0.7187  1.0225
  108ccc     C2 3227   6.059  10.962   7.633 -0.0100  0.6101  0.0462
  108ccc     H3 3228   6.164  10.971   7.664  0.1560  1.7587 -0.8315
  108ccc     H4 3229   6.006  10.973   7.729 -0.2075  0.3903 -0.0381
  108ccc     C3 3230   6.028  11.075   7.541 -0.1526  0.1093 -0.1678
  108ccc     H5 3231   6.054  11.168   7.592  0.5047  0.7600 -1.6601
  108ccc     H6 3232   5.920  11.077   7.526 -0.1693 -0.7202 -0.1713
  108ccc     N1 3233   6.098  11.073   7.410 -0.3579  0.5113  0.0188
  108ccc     C4 3234   6.035  11.170   7.321  1.4003 -0.1944  0.3209
  108ccc     H7 3235   5.928  11.148   7.317  1.6574 -1.1910 -2.4045
  108ccc     H8 3236   6.047  11.275   7.351 -1.0956 -0.5152  2.6478
  108ccc     C5 3237   6.087  11.151   7.170 -0.2914 -0.5145  0.2856
  108ccc     H9 3238   6.091  11.044   7.146  0.0919 -1.1244  2.8652
  108ccc    H10 3239   6.184  11.202   7.170 -0.2792 -0.5187  1.5596
  108ccc     C6 3240   5.993  11.217   7.070  0.9700 -0.4748  0.6476
  108ccc     O1 3241   5.918  11.307   7.093 -0.0052  0.3853  0.2547
  108ccc     O2 3242   6.010  11.185   6.943 -0.1136 -0.1852 -0.1177
  108ccc    H11 3243   6.056  11.100   6.948 -0.3314 -0.3596 -0.9567
  108ccc     C7 3244   6.246  11.096   7.420  0.2731 -0.2341  0.2840
  108ccc    H12 3245   6.281  11.025   7.496  0.3681 -1.4993 -0.9252
  108ccc    H13 3246   6.292  11.052   7.330  0.3404 -0.5606  0.4790
  108ccc     C8 3247   6.303  11.235   7.458 -0.2372  0.7408  0.1525
  108ccc    H14 3248   6.280  11.315   7.388  1.3161  1.2586  0.2014
  108ccc    H15 3249   6.254  11.260   7.553 -2.7589 -0.7419 -0.7044
  108ccc     C9 3250   6.451  11.236   7.486  0.2419  0.3437 -0.0415
  108ccc     O3 3251   6.529  11.313   7.433  0.1332  0.4024 -0.5057
  108ccc     O4 3252   6.492  11.185   7.601 -1.0837 -0.6518  0.0120
  108ccc    H16 3253   6.409  11.164   7.648 -0.3788 -0.5010  1.3420
  108ccc     O5 3254   6.051  10.734   7.678 -0.3233  0.1673 -0.6894
  109ccc     C1 3255   5.756   9.994   7.125  0.2283 -0.0043  0.1089
  109ccc     H1 3256   5.772  10.078   7.056 -0.2754 -1.7864 -2.2823
  109ccc     H2 3257   5.849   9.979   7.181  0.3024  0.7444  0.1905
  109ccc     C2 3258   5.718   9.868   7.047 -0.0361 -0.5118  0.0467
  109ccc     H3 3259   5.697   9.793   7.124 -0.4938 -1.0612 -0.6021
  109ccc     H4 3260   5.805   9.834   6.989  1.9685  1.1416  2.0244
  109ccc     C3 3261   5.603   9.888   6.950 -0.2126 -0.3778  0.2943
  109ccc     H5 3262   5.622   9.978   6.889  1.4352  0.2086  1.6353
  109ccc     H6 3263   5.504   9.894   6.998  0.7408 -0.0946  2.3042
  109ccc     N1 3264   5.587   9.787   6.847  0.0666  0.3322  0.3513
  109ccc     C4 3265   5.583   9.647   6.899 -0.6766  0.1788  0.1796
  109ccc     H7 3266   5.494   9.629   6.960 -2.3269 -0.4093 -2.3209
  109ccc     H8 3267   5.668   9.639   6.968 -0.5332 -0.9874 -0.1291
  109ccc     C5 3268   5.609   9.532   6.798  0.3556 -0.5562  0.1555
  109ccc     H9 3269   5.521   9.522   6.734 -1.5365  0.4494  2.5004
  109ccc    H10 3270   5.697   9.561   6.739  1.8050 -1.6519  1.7238
  109ccc     C6 3271   5.626   9.402   6.876 -0.0958 -0.4951 -0.3640
  109ccc     O1 3272   5.605   9.394   6.993  0.0370 -0.2100 -0.5068
  109ccc     O2 3273   5.607   9.292   6.800  0.2146  0.1915  0.5413
  109ccc    H11 3274   5.631   9.332   6.714  0.2223  0.6129  0.7335
  109ccc     C7 3275   5.486   9.818   6.745 -0.6351 -0.8125  0.1254
  109ccc    H12 3276   5.524   9.904   6.689 -1.1153 -2.7946 -3.3554
  109ccc    H13 3277   5.482   9.737   6.671 -4.3750 -0.7270  0.1192
  109ccc     C8 3278   5.343   9.824   6.807  0.1378  0.3495  0.1373
  109ccc    H14 3279   5.330   9.891   6.892  2.8795  0.7859  0.2500
  109ccc    H15 3280   5.324   9.719   6.834  0.5110 -0.0851 -1.2226
  109ccc     C9 3281   5.247   9.864   6.698 -0.0348 -0.1917 -0.2107
  109ccc     O3 3282   5.270   9.884   6.579  0.0815  0.1959  0.0930
  109ccc     O4 3283   5.130   9.905   6.739 -0.2786  0.1468  0.5459
  109ccc    H16 3284   5.114   9.885   6.833 -3.1540 -1.3056 -0.1694
  109ccc     O5 3285   5.644  10.019   7.217 -0.0247  0.4339 -0.0294
  110ccc     C1 3286   2.444   9.379   8.939 -0.1141  0.3511  0.1632
  110ccc     H1 3287   2.360   9.313   8.966 -0.1696  0.2099 -0.3622
  110ccc     H2 3288   2.528   9.312   8.914 -0.0935 -0.0655  1.3131
  110ccc     C2 3289   2.477   9.452   9.074  0.0114  0.1978  0.7203
  110ccc     H3 3290   2.490   9.381   9.157  0.1428  0.0636  0.5861
  110ccc     H4 3291   2.382   9.502   9.096 -0.6541  0.4912 -2.6772
  110ccc     C3 3292   2.591   9.559   9.064 -0.2176  0.1763 -0.4852
  110ccc     H5 3293   2.584   9.634   8.985 -0.6203  1.2881  0.5939
  110ccc     H6 3294   2.685   9.503   9.046 -0.1211 -0.6506  2.3604
  110ccc     N1 3295   2.594   9.638   9.194 -0.0208 -0.3442  0.0997
  110ccc     C4 3296   2.720   9.708   9.225 -0.0560  0.4985  0.1146
  110ccc     H7 3297   2.714   9.745   9.328  1.1679  0.9862  0.0121
  110ccc     H8 3298   2.733   9.780   9.144 -0.0718  1.0573  0.6004
  110ccc     C5 3299   2.834   9.607   9.238  0.0596  0.6164 -0.3209
  110ccc     H9 3300   2.807   9.523   9.303 -0.9822 -0.3707 -1.9606
  110ccc    H10 3301   2.863   9.559   9.143 -0.3660 -0.0511 -0.1115
  110ccc     C6 3302   2.959   9.666   9.301  0.4809 -0.0454  0.3649
  110ccc     O1 3303   2.970   9.780   9.347 -0.1903 -0.6238  0.0079
  110ccc     O2 3304   3.027   9.566   9.358  0.2062  0.2417 -0.1161
  110ccc    H11 3305   3.003   9.484   9.311 -0.0959  0.3456 -0.1462
  110ccc     C7 3306   2.488   9.739   9.193 -0.0742  0.5641 -0.0709
  110ccc    H12 3307   2.497   9.809   9.109  0.3770  0.0249 -0.4727
  110ccc    H13 3308   2.390   9.694   9.172  0.5959 -1.1098  0.3624
  110ccc     C8 3309   2.457   9.828   9.323  0.0187  0.5690 -0.0479
  110ccc    H14 3310   2.417   9.771   9.408  2.7317 -1.6769 -0.2293
  110ccc    H15 3311   2.551   9.872   9.357  0.3225 -0.7483  0.8372
  110ccc     C9 3312   2.360   9.944   9.290  0.5377 -0.2672  0.4191
  110ccc     O3 3313   2.241   9.929   9.291  0.4023 -0.3041 -0.1875
  110ccc     O4 3314   2.409  10.033   9.201 -0.5712 -0.1455  0.1719
  110ccc    H16 3315   2.504  10.023   9.217 -0.5550  0.4616  0.4694
  110ccc     O5 3316   2.414   9.482   8.841  0.2705  0.4775  0.1368
  111ccc     C1 3317   1.957   9.259   8.139  0.3677 -0.5792  0.7094
  111ccc     H1 3318   1.848   9.273   8.142  0.7028  2.9082 -1.0538
  111ccc     H2 3319   1.987   9.300   8.042  0.6159  1.1548  1.4806
  111ccc     C2 3320   2.000   9.115   8.146  0.2193  0.0041  0.1333
  111ccc     H3 3321   1.944   9.066   8.227 -0.6381  3.3068  1.6316
  111ccc     H4 3322   2.108   9.124   8.163 -0.1057 -1.4259  3.3476
  111ccc     C3 3323   1.983   9.042   8.009 -0.8870  0.0648  0.1539
  111ccc     H5 3324   2.019   8.940   8.025 -1.7898 -0.5897 -1.8674
  111ccc     H6 3325   2.054   9.090   7.940 -0.3558 -2.1364 -0.8710
  111ccc     N1 3326   1.842   9.048   7.968 -0.0924  0.3873  0.6834
  111ccc     C4 3327   1.841   9.054   7.825 -0.0984 -0.2629 -0.0823
  111ccc     H7 3328   1.745   9.011   7.794 -0.2854  1.5367 -2.1229
  111ccc     H8 3329   1.925   8.997   7.782 -1.0413 -2.1148  0.4974
  111ccc     C5 3330   1.846   9.197   7.767 -0.1405  1.3704  0.1255
  111ccc     H9 3331   1.948   9.231   7.789  1.0390  0.0761 -3.0976
  111ccc    H10 3332   1.773   9.255   7.825  0.0355  1.3572  0.3653
  111ccc     C6 3333   1.824   9.216   7.617  0.3653  0.4342  0.6082
  111ccc     O1 3334   1.745   9.145   7.550  0.0460 -0.2730 -0.4832
  111ccc     O2 3335   1.802   9.343   7.597  0.6812 -0.5369  0.3638
  111ccc    H11 3336   1.863   9.386   7.659 -0.7597  1.0677  0.7309
  111ccc     C7 3337   1.752   8.952   8.033  0.0891  0.0145 -0.0849
  111ccc    H12 3338   1.780   8.849   8.007  2.2561  0.4742  0.3560
  111ccc    H13 3339   1.760   8.963   8.142 -0.2440  0.7958 -0.1413
  111ccc     C8 3340   1.604   8.959   7.997 -0.1233 -0.1092  0.5571
  111ccc    H14 3341   1.574   9.065   7.994  1.0988  0.2197 -0.4230
  111ccc    H15 3342   1.570   8.922   7.899  0.4266 -3.2713  1.5205
  111ccc     C9 3343   1.509   8.889   8.096 -0.5028  0.0795  0.3245
  111ccc     O3 3344   1.481   8.767   8.094 -0.2463  0.1994 -0.3353
  111ccc     O4 3345   1.471   8.960   8.206  0.4737  0.2890  0.0790
  111ccc    H16 3346   1.527   9.039   8.202  0.4724  0.2121 -1.4838
  111ccc     O5 3347   2.005   9.326   8.256  0.1688 -1.1363 -0.1857
  112ccc     C1 3348   2.602   9.997   8.846  0.0109  0.7278 -0.1023
  112ccc     H1 3349   2.530  10.045   8.915  0.9627  1.2346  0.5597
  112ccc     H2 3350   2.618  10.054   8.754  1.6237 -1.1454 -1.0032
  112ccc     C2 3351   2.534   9.871   8.795 -0.4925  0.6108  0.1449
  112ccc     H3 3352   2.503   9.804   8.877 -3.1871  2.3268  0.6037
  112ccc     H4 3353   2.597   9.811   8.729 -1.8438 -0.3833 -0.2638
  112ccc     C3 3354   2.402   9.911   8.716 -0.6418 -0.7472 -0.5724
  112ccc     H5 3355   2.358   9.826   8.662 -1.0411 -0.2165 -1.0801
  112ccc     H6 3356   2.419   9.989   8.641 -0.1656  0.9888  1.3009
  112ccc     N1 3357   2.309   9.974   8.810 -0.5344 -0.4694  0.3816
  112ccc     C4 3358   2.249  10.110   8.775  0.4336 -0.7551  0.7591
  112ccc     H7 3359   2.183  10.143   8.856  0.5267 -0.7913  0.8514
  112ccc     H8 3360   2.189  10.109   8.683 -1.1947 -1.2812  1.8129
  112ccc     C5 3361   2.364  10.219   8.765 -0.5799 -0.3163 -0.9329
  112ccc     H9 3362   2.419  10.228   8.859 -1.2138 -1.4609 -0.4422
  112ccc    H10 3363   2.436  10.188   8.688 -0.8358 -2.1186 -0.4730
  112ccc     C6 3364   2.306  10.352   8.732  0.0986 -0.6252  0.4853
  112ccc     O1 3365   2.187  10.384   8.720 -0.5961 -0.9014 -0.1934
  112ccc     O2 3366   2.400  10.442   8.698  0.0482  0.2433 -0.3139
  112ccc    H11 3367   2.488  10.403   8.714 -0.7580 -1.3381  0.4332
  112ccc     C7 3368   2.220   9.884   8.878 -0.1579  0.0089 -0.3624
  112ccc    H12 3369   2.156   9.827   8.809  0.7952  0.6697 -1.8197
  112ccc    H13 3370   2.285   9.815   8.933 -0.0148  0.2574 -0.2179
  112ccc     C8 3371   2.111   9.953   8.971  0.1829  0.1765  0.0104
  112ccc    H14 3372   2.151  10.034   9.033  1.7324 -0.9420  0.5162
  112ccc    H15 3373   2.029   9.993   8.911  0.8394  0.8152 -0.4681
  112ccc     C9 3374   2.057   9.847   9.069 -0.8795 -1.0807 -0.0826
  112ccc     O3 3375   2.106   9.739   9.099  0.4355 -0.1223  0.3046
  112ccc     O4 3376   1.935   9.880   9.110 -0.4203 -0.3789  0.0526
  112ccc    H16 3377   1.940   9.977   9.098 -1.3147 -0.3185  0.1320
  112ccc     O5 3378   2.718   9.944   8.921 -0.1086  0.0566  0.3562
  113ccc     C1 3379   3.535   9.870   9.449  0.0011  0.2286 -0.4856
  113ccc     H1 3380   3.624   9.821   9.490  0.3149  1.0761 -0.1441
  113ccc     H2 3381   3.572   9.956   9.391 -0.9661  0.0514 -1.3731
  113ccc     C2 3382   3.450   9.905   9.572 -0.5595  0.9465 -0.5344
  113ccc     H3 3383   3.517   9.938   9.653 -0.8906  0.7417 -0.1763
  113ccc     H4 3384   3.412   9.812   9.615  1.3403  0.5738  0.4002
  113ccc     C3 3385   3.334  10.001   9.555 -0.0860  0.0192  0.3542
  113ccc     H5 3386   3.277   9.966   9.469  0.5375  0.6920 -0.3420
  113ccc     H6 3387   3.374  10.095   9.514  0.6210  0.0659  1.1424
  113ccc     N1 3388   3.243  10.012   9.676  0.1115 -0.0728 -0.2193
  113ccc     C4 3389   3.305  10.066   9.801  0.4622 -0.0973 -0.3814
  113ccc     H7 3390   3.289  10.175   9.801 -0.5516 -0.2381  0.2687
  113ccc     H8 3391   3.412  10.044   9.795  0.1495 -2.0272  0.7940
  113ccc     C5 3392   3.259   9.990   9.923  0.1929  0.3242  0.0339
  113ccc     H9 3393   3.151  10.012   9.929  0.0004 -0.3629 -0.8495
  113ccc    H10 3394   3.288   9.886   9.908  2.0762  0.6711  1.1269
  113ccc     C6 3395   3.327  10.043  10.045  0.0239  0.7446 -0.1500
  113ccc     O1 3396   3.404  10.133  10.062 -0.4945  0.2121  0.9936
  113ccc     O2 3397   3.325   9.950  10.147  0.5252 -0.2975 -0.1350
  113ccc    H11 3398   3.278   9.875  10.106 -1.3849  0.2385  0.9859
  113ccc     C7 3399   3.111  10.076   9.644  0.1154 -0.0847 -0.1200
  113ccc    H12 3400   3.057  10.088   9.738  1.5347  2.5726  0.3955
  113ccc    H13 3401   3.137  10.175   9.606 -1.6297  0.3730 -0.1671
  113ccc     C8 3402   3.025   9.982   9.550  0.0454  0.3604  0.2479
  113ccc    H14 3403   3.020   9.885   9.600 -0.9574 -0.4386 -1.3257
  113ccc    H15 3404   3.083   9.982   9.456  1.3289  0.6243  1.0333
  113ccc     C9 3405   2.885  10.039   9.522  0.4979 -1.5406 -0.9139
  113ccc     O3 3406   2.833  10.134   9.577  0.1891  0.4964 -0.2520
  113ccc     O4 3407   2.821   9.989   9.414 -0.2577 -0.2222 -0.2102
  113ccc    H16 3408   2.878   9.910   9.409  0.0403  0.0273 -0.7848
  113ccc     O5 3409   3.453   9.789   9.370  0.2211 -0.0326 -0.4605
  114ccc     C1 3410   3.478   9.421   6.071 -0.2140 -0.0350 -0.5917
  114ccc     H1 3411   3.501   9.446   5.967  0.4344 -0.2597 -0.5049
  114ccc     H2 3412   3.543   9.340   6.106 -0.3089 -0.5645 -1.6469
  114ccc     C2 3413   3.330   9.387   6.088 -0.6827  0.1438 -0.3536
  114ccc     H3 3414   3.276   9.480   6.067 -0.0203  1.2481  2.5348
  114ccc     H4 3415   3.328   9.374   6.197  1.7486 -0.4881 -0.3428
  114ccc     C3 3416   3.301   9.258   6.003  0.5643  0.3808  0.2835
  114ccc     H5 3417   3.342   9.179   6.068 -1.2994 -0.4483  0.5016
  114ccc     H6 3418   3.343   9.269   5.903 -1.2072 -0.9992 -0.6359
  114ccc     N1 3419   3.160   9.215   5.980 -0.0371  0.1177  0.4254
  114ccc     C4 3420   3.140   9.090   5.897  0.3256  0.1655 -0.6479
  114ccc     H7 3421   3.171   9.097   5.792 -2.4216 -0.9431 -1.5745
  114ccc     H8 3422   3.032   9.076   5.882 -0.0021  3.1821 -1.4380
  114ccc     C5 3423   3.200   8.958   5.946  0.0179  0.2412  0.6209
  114ccc     H9 3424   3.307   8.977   5.964  0.4139 -0.5234 -0.8870
  114ccc    H10 3425   3.167   8.929   6.047  2.3508  0.4065  1.4719
  114ccc     C6 3426   3.179   8.850   5.843 -0.1835 -0.3947 -0.6630
  114ccc     O1 3427   3.072   8.847   5.780 -0.5318  0.0518 -0.0028
  114ccc     O2 3428   3.288   8.815   5.775 -0.9633 -0.5458  0.0973
  114ccc    H11 3429   3.357   8.803   5.843 -0.3200  0.9666 -0.2887
  114ccc     C7 3430   3.071   9.329   5.937 -0.5462  1.0822  0.2238
  114ccc    H12 3431   2.971   9.283   5.932  0.9880 -2.7266  2.2227
  114ccc    H13 3432   3.075   9.407   6.014 -1.3368  2.0383 -0.6792
  114ccc     C8 3433   3.112   9.387   5.796 -0.0449  0.4095  0.4951
  114ccc    H14 3434   3.220   9.402   5.791 -0.1875  1.2750 -0.2011
  114ccc    H15 3435   3.087   9.305   5.726  2.9222  0.0304 -0.1906
  114ccc     C9 3436   3.036   9.519   5.760  0.0867  0.4920 -0.6059
  114ccc     O3 3437   2.985   9.578   5.854 -0.4849 -0.0608  0.3631
  114ccc     O4 3438   3.093   9.593   5.661 -0.1643  0.2947 -0.4700
  114ccc    H16 3439   3.092   9.526   5.590  1.1170 -1.3894  1.0462
  114ccc     O5 3440   3.513   9.538   6.150 -0.2726  0.1377  0.2315
  115ccc     C1 3441   2.824   9.471   6.645 -0.0855 -0.2147  0.2463
  115ccc     H1 3442   2.770   9.527   6.723 -2.1424 -0.2842 -1.1114
  115ccc     H2 3443   2.800   9.511   6.546 -2.3983  0.1132  0.9018
  115ccc     C2 3444   2.769   9.329   6.644  0.0320 -0.3591 -0.3946
  115ccc     H3 3445   2.793   9.287   6.742  1.8211 -0.1325 -0.7204
  115ccc     H4 3446   2.814   9.262   6.570 -2.8394 -3.3227  0.4219
  115ccc     C3 3447   2.621   9.332   6.616 -0.1903  0.3028 -0.7929
  115ccc     H5 3448   2.571   9.235   6.619 -1.5495  0.9783 -1.1971
  115ccc     H6 3449   2.610   9.380   6.517 -0.1201 -0.5553 -1.2184
  115ccc     N1 3450   2.552   9.413   6.715 -0.0515  0.2562  0.1019
  115ccc     C4 3451   2.543   9.355   6.854 -0.5712  0.2623 -0.3288
  115ccc     H7 3452   2.544   9.436   6.929  0.6119  1.4509 -1.5972
  115ccc     H8 3453   2.634   9.298   6.877 -1.6892 -1.1174  0.7469
  115ccc     C5 3454   2.434   9.250   6.866  0.2066  0.1753  0.0092
  115ccc     H9 3455   2.445   9.176   6.786 -1.8139  0.2825 -0.3811
  115ccc    H10 3456   2.334   9.294   6.855 -0.1992 -0.4904  0.9417
  115ccc     C6 3457   2.433   9.174   6.994  0.1125  0.1992  0.8931
  115ccc     O1 3458   2.444   9.228   7.101  0.2925 -0.7140 -0.3223
  115ccc     O2 3459   2.379   9.052   6.984 -0.2285  0.7495 -0.0303
  115ccc    H11 3460   2.348   9.063   6.892  3.3815 -0.2685 -1.4555
  115ccc     C7 3461   2.437   9.487   6.662 -0.2088 -0.1224  0.3216
  115ccc    H12 3462   2.363   9.422   6.614 -0.3694 -0.0446  0.4611
  115ccc    H13 3463   2.374   9.504   6.751 -2.9689  0.8471 -1.7502
  115ccc     C8 3464   2.477   9.613   6.580 -0.2792  0.1388 -0.0674
  115ccc    H14 3465   2.537   9.583   6.493  0.5933 -0.9377  0.8940
  115ccc    H15 3466   2.391   9.672   6.544 -1.0318  0.3131  1.9603
  115ccc     C9 3467   2.559   9.706   6.665  0.2781 -0.0396 -0.3280
  115ccc     O3 3468   2.525   9.750   6.775 -0.5232 -0.4427  0.0797
  115ccc     O4 3469   2.666   9.761   6.616 -0.0159 -0.6348 -0.6590
  115ccc    H16 3470   2.660   9.731   6.523  0.3809 -0.6731 -0.6737
  115ccc     O5 3471   2.968   9.478   6.667  0.1502  0.7043  0.3520
  116ccc     C1 3472   4.495   8.237   7.546  0.0130  0.2593  0.1544
  116ccc     H1 3473   4.580   8.303   7.565 -0.2078  0.0764  1.8211
  116ccc     H2 3474   4.419   8.221   7.624  0.9541  0.8878  1.2201
  116ccc     C2 3475   4.554   8.101   7.511 -0.2760  0.0291  0.4413
  116ccc     H3 3476   4.626   8.103   7.427  1.4190 -0.2619  1.8645
  116ccc     H4 3477   4.473   8.031   7.490 -0.5500  0.2467  0.7648
  116ccc     C3 3478   4.623   8.034   7.642  0.2520 -0.4630  0.3548
  116ccc     H5 3479   4.669   7.940   7.610  2.2448  1.1766 -1.7098
  116ccc     H6 3480   4.549   8.008   7.719 -0.0564 -0.3433  0.1022
  116ccc     N1 3481   4.722   8.127   7.709  0.5257 -0.0217  0.1717
  116ccc     C4 3482   4.840   8.158   7.618  0.6260  0.3246 -0.0292
  116ccc     H7 3483   4.800   8.216   7.534  0.4983  0.3423  0.0443
  116ccc     H8 3484   4.883   8.065   7.580  1.7477  0.4975  0.7945
  116ccc     C5 3485   4.951   8.247   7.676  0.3978 -0.0773  0.3155
  116ccc     H9 3486   5.014   8.178   7.734  1.0958 -0.8697 -1.3540
  116ccc    H10 3487   4.906   8.329   7.734 -0.3168 -0.5424  0.4280
  116ccc     C6 3488   5.044   8.311   7.569 -0.0425 -0.3156  0.2410
  116ccc     O1 3489   5.166   8.285   7.561 -0.2525  0.0569  0.1404
  116ccc     O2 3490   5.006   8.435   7.532  0.2475 -0.3622  0.3455
  116ccc    H11 3491   4.911   8.429   7.549 -0.2935  1.5655 -1.7396
  116ccc     C7 3492   4.754   8.076   7.841 -0.1310  0.1564 -0.0899
  116ccc    H12 3493   4.810   8.151   7.898  0.4501 -1.4002  1.4788
  116ccc    H13 3494   4.664   8.073   7.904 -0.1484 -0.7768 -0.1513
  116ccc     C8 3495   4.835   7.942   7.863  0.1649  0.3824  0.2722
  116ccc    H14 3496   4.774   7.858   7.830  0.1083  0.4196  0.2820
  116ccc    H15 3497   4.923   7.944   7.797  2.1112  2.9268  2.8047
  116ccc     C9 3498   4.884   7.924   8.005  0.5645 -0.3141 -0.4490
  116ccc     O3 3499   4.853   7.985   8.103 -0.0765  0.7451 -0.4348
  116ccc     O4 3500   4.960   7.812   8.025 -0.4700  0.0678 -1.1741
  116ccc    H16 3501   4.971   7.777   7.935  0.5828  0.2919 -1.1454
  116ccc     O5 3502   4.425   8.286   7.424 -0.6520  0.5250  0.2620
  117ccc     C1 3503   3.652   8.041   7.261  0.4204 -0.2111 -0.0191
  117ccc     H1 3504   3.678   8.042   7.154  0.6791  0.2085  0.0484
  117ccc     H2 3505   3.663   7.938   7.298 -2.7013 -1.1835 -1.6147
  117ccc     C2 3506   3.508   8.075   7.281  0.1841  0.4634  0.6287
  117ccc     H3 3507   3.498   8.184   7.271 -0.6188  0.2486 -1.1498
  117ccc     H4 3508   3.477   8.040   7.380 -1.7822  2.3772  0.7441
  117ccc     C3 3509   3.407   8.002   7.185  0.2912 -0.0550  0.4558
  117ccc     H5 3510   3.304   8.030   7.207  0.2994 -0.9642  1.6918
  117ccc     H6 3511   3.419   7.896   7.211  2.1543 -0.2851 -1.2158
  117ccc     N1 3512   3.441   8.020   7.046  0.7957  0.8003  0.1943
  117ccc     C4 3513   3.448   8.167   7.003 -1.6557  0.0603 -0.3189
  117ccc     H7 3514   3.480   8.182   6.899 -1.0285 -3.5635 -0.7240
  117ccc     H8 3515   3.526   8.219   7.059 -0.0918 -0.9612 -1.5233
  117ccc     C5 3516   3.311   8.236   7.013  0.1592 -0.8899 -0.0175
  117ccc     H9 3517   3.234   8.175   6.966 -0.5775  0.4645 -0.6086
  117ccc    H10 3518   3.279   8.229   7.118  2.5922 -0.1190  0.8198
  117ccc     C6 3519   3.306   8.380   6.951  0.2447  0.1169  0.4625
  117ccc     O1 3520   3.353   8.420   6.845  0.0225  0.1608 -0.5184
  117ccc     O2 3521   3.256   8.470   7.042 -0.4212 -0.0977  0.2458
  117ccc    H11 3522   3.233   8.408   7.113 -4.6900 -0.4596 -1.3046
  117ccc     C7 3523   3.371   7.923   6.956 -0.3957  0.1330  0.2346
  117ccc    H12 3524   3.398   7.827   7.002 -1.4689  0.3606  1.3914
  117ccc    H13 3525   3.263   7.942   6.951 -0.1024  1.7103 -0.3056
  117ccc     C8 3526   3.423   7.922   6.812  0.3231  0.7760  0.7807
  117ccc    H14 3527   3.530   7.899   6.816  0.4499  0.3716 -2.9806
  117ccc    H15 3528   3.412   8.020   6.764  2.1166  0.8361  0.4427
  117ccc     C9 3529   3.363   7.817   6.710  0.3574  0.7883 -0.0268
  117ccc     O3 3530   3.281   7.735   6.735 -0.4924  0.4816  0.1951
  117ccc     O4 3531   3.407   7.826   6.586 -0.0254  0.4353  0.5033
  117ccc    H16 3532   3.476   7.894   6.601  0.8178 -0.8202  2.5606
  117ccc     O5 3533   3.737   8.132   7.331 -0.1920 -0.9951  0.4784
  118ccc     C1 3534   3.598  11.519   7.499 -0.0148 -0.6503 -0.4926
  118ccc     H1 3535   3.537  11.501   7.588  0.7390  1.2879  0.4350
  118ccc     H2 3536   3.671  11.438   7.484  0.5574 -0.4902  1.3009
  118ccc     C2 3537   3.688  11.644   7.500  0.7610  0.3163  0.4033
  118ccc     H3 3538   3.761  11.631   7.419  0.9812  2.5688  0.2124
  118ccc     H4 3539   3.748  11.651   7.591 -0.9823 -0.0702  1.6161
  118ccc     C3 3540   3.612  11.780   7.477 -0.5711  0.2156  0.0235
  118ccc     H5 3541   3.535  11.787   7.555  0.1590  0.3058  0.7487
  118ccc     H6 3542   3.560  11.771   7.381  2.4105 -2.5802 -1.4408
  118ccc     N1 3543   3.709  11.901   7.473  0.6294 -0.0397  0.3624
  118ccc     C4 3544   3.648  12.040   7.503  0.0974  0.4014  0.6933
  118ccc     H7 3545   3.586  12.073   7.418  3.7945  1.8382 -1.5571
  118ccc     H8 3546   3.741  12.096   7.514 -0.4037  1.0655  1.5452
  118ccc     C5 3547   3.571  12.035   7.629  0.0893 -0.3206 -0.4296
  118ccc     H9 3548   3.616  11.964   7.700 -1.5658 -1.0556 -0.0840
  118ccc    H10 3549   3.473  11.990   7.610 -1.2066  2.6288 -0.9278
  118ccc     C6 3550   3.549  12.163   7.700 -0.6413  0.0565  0.1017
  118ccc     O1 3551   3.450  12.228   7.690 -0.3496  0.5144 -0.1895
  118ccc     O2 3552   3.632  12.196   7.796  0.2608 -0.0207 -0.1161
  118ccc    H11 3553   3.710  12.144   7.770 -0.1022 -0.0596 -1.1480
  118ccc     C7 3554   3.817  11.894   7.377  0.2198  0.2811 -0.9018
  118ccc    H12 3555   3.880  11.983   7.384  1.2361 -0.5570  1.5545
  118ccc    H13 3556   3.887  11.814   7.405 -0.1709 -0.1560 -1.1452
  118ccc     C8 3557   3.777  11.881   7.230  0.7129 -0.3982 -0.8762
  118ccc    H14 3558   3.803  11.779   7.197 -2.3174 -2.5537  2.9766
  118ccc    H15 3559   3.671  11.905   7.218  0.8410  1.4789  1.4309
  118ccc     C9 3560   3.855  11.976   7.141  0.1338  0.1229  0.2400
  118ccc     O3 3561   3.922  12.074   7.181 -0.0448  0.0708 -0.5946
  118ccc     O4 3562   3.790  11.995   7.025  0.4918  0.1157  0.4588
  118ccc    H16 3563   3.726  11.923   7.029  1.5761 -0.8695  0.3829
  118ccc     O5 3564   3.502  11.532   7.389  0.9246 -0.1590  0.9070
  119ccc     C1 3565   3.495  10.988   7.089 -0.3470 -0.1232 -0.0615
  119ccc     H1 3566   3.461  11.079   7.038 -0.9319  2.2400  4.2896
  119ccc     H2 3567   3.567  11.020   7.165 -0.9100  0.3353  0.2896
  119ccc     C2 3568   3.564  10.894   6.991  0.4124  0.1331 -0.0638
  119ccc     H3 3569   3.635  10.947   6.927  0.1045  0.4082 -0.1766
  119ccc     H4 3570   3.484  10.858   6.925 -0.9100 -0.0286  1.5824
  119ccc     C3 3571   3.625  10.770   7.062  0.5928  0.4842 -0.2768
  119ccc     H5 3572   3.550  10.713   7.118  0.2840  1.0990 -0.0684
  119ccc     H6 3573   3.682  10.800   7.151  0.2745 -0.1587  0.1491
  119ccc     N1 3574   3.703  10.686   6.964 -0.1915  0.9652 -0.2245
  119ccc     C4 3575   3.835  10.653   7.000  0.1256  0.2788  0.1061
  119ccc     H7 3576   3.887  10.584   6.933  0.0745  1.0510 -0.7333
  119ccc     H8 3577   3.824  10.598   7.094  2.0315  0.5467  0.4943
  119ccc     C5 3578   3.921  10.780   7.019 -0.0076  1.1903  1.2909
  119ccc     H9 3579   3.878  10.855   7.088  1.3380  0.7277  2.6718
  119ccc    H10 3580   4.021  10.759   7.059  1.2385  3.0826 -0.6927
  119ccc     C6 3581   3.944  10.850   6.884  0.0751 -0.5137  0.3961
  119ccc     O1 3582   3.904  10.803   6.779 -0.4030  0.4641  0.4707
  119ccc     O2 3583   3.955  10.979   6.888 -0.0834 -0.3735 -0.2075
  119ccc    H11 3584   3.993  10.990   6.977  0.7413 -0.4919 -0.5390
  119ccc     C7 3585   3.627  10.570   6.912 -0.5962 -0.7563  0.4992
  119ccc    H12 3586   3.695  10.513   6.846 -1.1636  0.8426 -1.5155
  119ccc    H13 3587   3.605  10.503   6.996 -0.2475 -1.4495  0.0528
  119ccc     C8 3588   3.494  10.606   6.833  0.5365 -0.9742  0.5384
  119ccc    H14 3589   3.422  10.642   6.908  1.5559 -0.2266  1.1693
  119ccc    H15 3590   3.502  10.679   6.751 -4.2854  0.1501  0.9190
  119ccc     C9 3591   3.438  10.482   6.761  0.6444 -0.3759 -0.8633
  119ccc     O3 3592   3.501  10.405   6.693 -0.6078 -0.4212 -0.0297
  119ccc     O4 3593   3.305  10.480   6.745 -0.0378  0.2238  0.1228
  119ccc    H16 3594   3.267  10.543   6.808  0.1390 -0.9221  1.4092
  119ccc     O5 3595   3.377  10.919   7.146 -0.4212  0.4633 -0.5584
  120ccc     C1 3596   3.422  11.866   8.578 -0.2305 -0.1875  0.4413
  120ccc     H1 3597   3.513  11.879   8.638 -2.1910 -0.6187  3.6400
  120ccc     H2 3598   3.437  11.905   8.477  1.0479 -2.2974 -0.2025
  120ccc     C2 3599   3.304  11.936   8.646 -0.8941 -0.6604 -0.8028
  120ccc     H3 3600   3.205  11.906   8.610 -1.7560  1.1780 -0.0238
  120ccc     H4 3601   3.313  12.045   8.636  0.3391 -0.7096 -0.3530
  120ccc     C3 3602   3.306  11.915   8.799  0.1538  0.1937  0.0910
  120ccc     H5 3603   3.408  11.913   8.839  0.0719 -0.3980  0.2874
  120ccc     H6 3604   3.260  11.815   8.803 -3.0187  1.4931 -1.6424
  120ccc     N1 3605   3.224  12.000   8.886  0.2657 -0.1159  0.4450
  120ccc     C4 3606   3.079  11.995   8.845  0.3429  0.0258 -0.1697
  120ccc     H7 3607   3.061  12.039   8.747  2.0538  2.2763  0.4787
  120ccc     H8 3608   3.025  12.047   8.926  0.3552  0.1883 -0.2671
  120ccc     C5 3609   3.009  11.856   8.836  0.6933 -0.5853 -1.1871
  120ccc     H9 3610   3.025  11.805   8.740  1.4913  0.2014 -1.4755
  120ccc    H10 3611   3.056  11.789   8.910  2.2691  2.3177  0.5067
  120ccc     C6 3612   2.860  11.858   8.869  0.5714 -0.4906 -0.9796
  120ccc     O1 3613   2.781  11.944   8.833 -0.6107 -0.0245  0.2581
  120ccc     O2 3614   2.832  11.816   8.993 -0.3854 -0.0684 -0.3719
  120ccc    H11 3615   2.907  11.757   9.014 -0.1741 -0.0765 -1.1274
  120ccc     C7 3616   3.265  12.134   8.919  0.5311 -0.0380 -0.7204
  120ccc    H12 3617   3.240  12.207   8.842  0.6844  0.4743 -0.2836
  120ccc    H13 3618   3.200  12.160   9.003 -0.7076 -2.1355 -1.0028
  120ccc     C8 3619   3.413  12.155   8.955 -0.1816 -0.1402  0.0026
  120ccc    H14 3620   3.441  12.086   9.035 -0.3787 -0.5360 -0.2678
  120ccc    H15 3621   3.480  12.128   8.873  0.8649  0.3165  0.6923
  120ccc     C9 3622   3.444  12.299   8.986  0.0728  0.0953  0.4267
  120ccc     O3 3623   3.376  12.387   8.940 -0.5185  0.3531  0.5636
  120ccc     O4 3624   3.557  12.328   9.039 -0.2414 -0.0908 -0.6368
  120ccc    H16 3625   3.596  12.244   9.069 -2.1751 -0.7579  0.0887
  120ccc     O5 3626   3.381  11.731   8.576 -0.1494  0.0858  0.8329
  121ccc     C1 3627   3.955  11.505   9.221  0.3022  0.9338 -0.4487
  121ccc     H1 3628   3.933  11.610   9.244 -0.4620  1.3956 -3.0582
  121ccc     H2 3629   3.889  11.434   9.271 -0.4549  3.1285  1.7433
  121ccc     C2 3630   4.101  11.491   9.255  0.9354 -0.2716  0.0416
  121ccc     H3 3631   4.113  11.383   9.272 -1.1669 -1.0036 -2.6942
  121ccc     H4 3632   4.116  11.532   9.355 -0.5409 -1.2612  0.6990
  121ccc     C3 3633   4.194  11.553   9.150  0.0359  0.1306 -0.6770
  121ccc     H5 3634   4.174  11.660   9.142 -3.0842 -0.2403  1.1508
  121ccc     H6 3635   4.175  11.513   9.050 -0.8299 -0.6584 -0.2061
  121ccc     N1 3636   4.334  11.531   9.191 -0.4077 -0.7267 -0.3549
  121ccc     C4 3637   4.420  11.534   9.072 -0.8494  0.2564  0.8184
  121ccc     H7 3638   4.526  11.551   9.096 -0.2634 -1.1396 -0.6829
  121ccc     H8 3639   4.398  11.620   9.007  1.3621 -0.1218 -0.4839
  121ccc     C5 3640   4.412  11.397   8.985  0.0902 -0.4531  0.1200
  121ccc     H9 3641   4.312  11.382   8.941  0.6044 -0.4011 -1.0662
  121ccc    H10 3642   4.486  11.412   8.906 -0.4643  0.3254 -0.2632
  121ccc     C6 3643   4.443  11.277   9.065 -0.2625  0.3799 -0.0326
  121ccc     O1 3644   4.556  11.258   9.109  0.3486 -0.3640 -0.2416
  121ccc     O2 3645   4.349  11.195   9.104 -0.1655  0.3886  0.3726
  121ccc    H11 3646   4.271  11.241   9.068  0.3167  0.8790 -0.0629
  121ccc     C7 3647   4.384  11.616   9.300  0.2634 -0.3008 -0.2762
  121ccc    H12 3648   4.432  11.710   9.271 -1.1170  0.2826 -0.7336
  121ccc    H13 3649   4.306  11.637   9.375  0.4168 -0.9942  0.0783
  121ccc     C8 3650   4.482  11.533   9.384  0.8440 -0.0412  0.5913
  121ccc    H14 3651   4.442  11.431   9.388  0.5663  0.0118 -0.6232
  121ccc    H15 3652   4.580  11.531   9.334 -0.5885 -0.8038 -2.3099
  121ccc     C9 3653   4.510  11.594   9.519  0.4439 -0.2388  0.6243
  121ccc     O3 3654   4.581  11.692   9.531  0.3770  0.5444  0.2310
  121ccc     O4 3655   4.449  11.553   9.624  0.2487  0.7405 -0.7101
  121ccc    H16 3656   4.389  11.484   9.591  1.0943 -0.2635 -0.1938
  121ccc     O5 3657   3.935  11.480   9.076 -0.2105  0.4331 -0.3964
  122ccc     C1 3658   2.232  11.915   6.205 -0.4586  0.1525 -0.5951
  122ccc     H1 3659   2.210  12.015   6.245  1.3482  0.2758  0.1262
  122ccc     H2 3660   2.337  11.913   6.174  0.0976 -1.5794  1.3229
  122ccc     C2 3661   2.144  11.862   6.090 -0.0148 -0.1537  0.4974
  122ccc     H3 3662   2.149  11.932   6.006 -1.0087  0.4865  0.9660
  122ccc     H4 3663   2.040  11.874   6.123  0.2663  1.1341  0.9358
  122ccc     C3 3664   2.180  11.719   6.062  0.7691 -1.1128 -0.8780
  122ccc     H5 3665   2.121  11.650   6.124 -1.3043  0.7850 -0.7144
  122ccc     H6 3666   2.286  11.701   6.084  0.6171  0.9339  1.7264
  122ccc     N1 3667   2.155  11.675   5.924  0.1137 -0.0016 -0.6571
  122ccc     C4 3668   2.015  11.663   5.876  0.0165  0.0260  0.1634
  122ccc     H7 3669   2.015  11.638   5.769 -1.0862 -1.1347  0.4154
  122ccc     H8 3670   1.968  11.759   5.897  3.7542  1.9117  0.3166
  122ccc     C5 3671   1.930  11.551   5.936  0.0204  0.3796  0.3424
  122ccc     H9 3672   1.996  11.468   5.965 -1.7560 -0.5360  1.9017
  122ccc    H10 3673   1.909  11.589   6.037  1.0891 -0.2622  0.8129
  122ccc     C6 3674   1.807  11.499   5.858 -0.8431 -0.0242  0.2278
  122ccc     O1 3675   1.759  11.559   5.762  0.1306  0.0552  0.1728
  122ccc     O2 3676   1.768  11.372   5.879 -0.0659  0.3588  0.2498
  122ccc    H11 3677   1.814  11.356   5.963 -1.7739  0.2909  1.1920
  122ccc     C7 3678   2.248  11.736   5.821  0.4631  0.4824  1.2821
  122ccc    H12 3679   2.225  11.669   5.737 -0.3416 -0.8092  2.5072
  122ccc    H13 3680   2.202  11.834   5.804  1.0097  0.1303 -2.7984
  122ccc     C8 3681   2.401  11.733   5.841 -0.1258  0.6443 -0.1141
  122ccc    H14 3682   2.452  11.778   5.756  1.4676 -0.4208  0.2593
  122ccc    H15 3683   2.423  11.790   5.933 -1.3009 -0.7958  1.0847
  122ccc     C9 3684   2.456  11.592   5.864  0.1191  0.4372 -0.4850
  122ccc     O3 3685   2.387  11.490   5.870 -0.2374 -0.1673 -0.0342
  122ccc     O4 3686   2.583  11.596   5.896 -0.4610  0.3412  0.2680
  122ccc    H16 3687   2.615  11.688   5.896  0.9298 -0.1204 -0.4603
  122ccc     O5 3688   2.241  11.824   6.317 -0.1584 -0.0482  0.2830
  123ccc     C1 3689   2.956  11.521   6.061 -0.3506 -0.5300  0.3260
  123ccc     H1 3690   2.990  11.448   6.135  1.7935 -0.8715 -0.9602
  123ccc     H2 3691   2.883  11.477   5.992  0.0552  2.4323 -2.1064
  123ccc     C2 3692   3.077  11.567   5.984  0.1596 -0.6819 -0.3480
  123ccc     H3 3693   3.137  11.624   6.056 -2.9236  0.0114  1.7595
  123ccc     H4 3694   3.045  11.633   5.902 -1.2462 -0.8709  0.0303
  123ccc     C3 3695   3.160  11.455   5.922  0.7242 -0.3315  0.2632
  123ccc     H5 3696   3.236  11.494   5.853  1.1983 -0.8108  0.5186
  123ccc     H6 3697   3.099  11.404   5.846  0.6771 -1.9502  1.3857
  123ccc     N1 3698   3.222  11.365   6.017  0.4423 -0.7582  0.5676
  123ccc     C4 3699   3.252  11.236   5.956  0.5367 -0.5337 -0.7760
  123ccc     H7 3700   3.338  11.252   5.889  0.1418  2.1945 -0.7072
  123ccc     H8 3701   3.168  11.198   5.897  0.6227 -1.6339 -0.2079
  123ccc     C5 3702   3.295  11.129   6.060  0.1479 -1.3284 -0.0249
  123ccc     H9 3703   3.381  11.164   6.119  0.5074 -1.3668 -0.5199
  123ccc    H10 3704   3.215  11.105   6.131 -1.1086 -0.0674 -0.9961
  123ccc     C6 3705   3.346  11.006   5.984  0.2243  1.1597 -0.3055
  123ccc     O1 3706   3.370  10.992   5.866 -0.3535  0.0555 -0.2485
  123ccc     O2 3707   3.395  10.914   6.069 -0.1944 -0.8039  0.2245
  123ccc    H11 3708   3.351  10.931   6.153  1.5733 -0.8290  1.1910
  123ccc     C7 3709   3.324  11.416   6.111 -0.3899 -1.0703  0.2493
  123ccc    H12 3710   3.302  11.518   6.144  0.7401  0.3498 -3.1687
  123ccc    H13 3711   3.335  11.346   6.195  0.1547 -0.8426  0.3662
  123ccc     C8 3712   3.470  11.434   6.049 -0.0985 -0.8307  0.1778
  123ccc    H14 3713   3.522  11.342   6.017 -0.0973 -0.5756 -0.5572
  123ccc    H15 3714   3.462  11.496   5.959 -3.1666 -0.5502  0.5982
  123ccc     C9 3715   3.564  11.511   6.142  0.0097 -0.2446  0.3789
  123ccc     O3 3716   3.536  11.527   6.256 -0.3588  0.3034 -0.2527
  123ccc     O4 3717   3.692  11.506   6.111  0.0567  0.0977 -0.1535
  123ccc    H16 3718   3.704  11.503   6.015 -1.1097  0.8736 -0.3285
  123ccc     O5 3719   2.889  11.629   6.133 -0.1153  0.1840  0.1653
  124ccc     C1 3720   2.127  10.190   6.942 -0.3353 -0.4771  0.6464
  124ccc     H1 3721   2.158  10.278   6.999  0.7300 -1.0165  0.9097
  124ccc     H2 3722   2.104  10.227   6.841  1.0569 -1.3072  0.0097
  124ccc     C2 3723   2.003  10.129   7.013 -0.2304  0.5020 -0.1384
  124ccc     H3 3724   2.038  10.085   7.107 -0.6891 -0.1626 -0.2780
  124ccc     H4 3725   1.970  10.036   6.964  1.0598  1.0351 -2.0907
  124ccc     C3 3726   1.879  10.230   7.031 -0.2013 -0.2126  0.1646
  124ccc     H5 3727   1.913  10.311   7.096  2.4139 -0.1445 -1.2595
  124ccc     H6 3728   1.812  10.168   7.093  1.9649 -1.0095  1.7714
  124ccc     N1 3729   1.803  10.274   6.907  0.2336  0.9354 -0.0644
  124ccc     C4 3730   1.733  10.403   6.939  0.8179 -0.1791 -0.2835
  124ccc     H7 3731   1.661  10.430   6.860  1.7096  0.2038 -0.9797
  124ccc     H8 3732   1.668  10.389   7.026 -1.7560  1.0712 -1.9383
  124ccc     C5 3733   1.826  10.528   6.960 -0.1513  0.3395 -0.4021
  124ccc     H9 3734   1.810  10.594   6.874 -1.5437  1.1024  0.4278
  124ccc    H10 3735   1.931  10.500   6.942  0.0625  0.5041  0.5393
  124ccc     C6 3736   1.794  10.593   7.093  0.7987  0.4117 -0.5978
  124ccc     O1 3737   1.827  10.550   7.202  0.2850  0.0469 -0.2450
  124ccc     O2 3738   1.717  10.699   7.086  0.1326 -0.0029  0.2870
  124ccc    H11 3739   1.720  10.738   6.997  0.7632 -1.0764 -0.1616
  124ccc     C7 3740   1.726  10.160   6.853 -0.1693  0.2299 -0.1919
  124ccc    H12 3741   1.785  10.068   6.862 -0.6194  0.0029  0.5003
  124ccc    H13 3742   1.640  10.159   6.921 -0.4546  0.3138 -0.5508
  124ccc     C8 3743   1.683  10.170   6.707 -0.5554  0.3483  0.1467
  124ccc    H14 3744   1.637  10.268   6.685  0.4404  0.3672 -2.0214
  124ccc    H15 3745   1.778  10.176   6.651 -0.0504  0.6550  1.0307
  124ccc     C9 3746   1.601  10.057   6.648 -0.1536 -0.1033 -0.7887
  124ccc     O3 3747   1.479  10.049   6.642  0.9180 -0.1579  0.4944
  124ccc     O4 3748   1.660   9.935   6.641 -1.2052  0.0100  0.6577
  124ccc    H16 3749   1.756   9.951   6.643 -1.1902 -0.1071  3.0276
  124ccc     O5 3750   2.239  10.090   6.936  0.1141 -0.0393 -0.5586
  125ccc     C1 3751   2.403  10.871   6.604 -0.7480 -0.0372 -0.1573
  125ccc     H1 3752   2.488  10.805   6.585 -1.4761 -1.4003  1.2420
  125ccc     H2 3753   2.317  10.844   6.543  1.1209 -0.8251 -2.5303
  125ccc     C2 3754   2.425  11.023   6.585 -0.1228 -0.7873  0.1397
  125ccc     H3 3755   2.469  11.070   6.674 -0.5527  1.0052 -0.5725
  125ccc     H4 3756   2.329  11.072   6.563  0.2353 -1.1270 -2.2491
  125ccc     C3 3757   2.537  11.038   6.481 -0.4650 -0.5940 -0.0694
  125ccc     H5 3758   2.631  10.999   6.522  1.3015  2.3005 -1.1971
  125ccc     H6 3759   2.512  10.992   6.384  0.0831 -1.1441  0.0534
  125ccc     N1 3760   2.577  11.186   6.457  0.3161  0.4917 -0.6968
  125ccc     C4 3761   2.683  11.196   6.358 -0.7702 -0.3192 -0.2725
  125ccc     H7 3762   2.686  11.297   6.316  1.0144  0.1346  0.8640
  125ccc     H8 3763   2.672  11.117   6.283 -0.6149 -0.2492 -0.3701
  125ccc     C5 3764   2.828  11.175   6.414 -0.4269 -0.2642 -0.9304
  125ccc     H9 3765   2.816  11.106   6.498  0.3650  3.3226  2.2972
  125ccc    H10 3766   2.873  11.258   6.472 -0.3570 -1.3928  0.6799
  125ccc     C6 3767   2.938  11.115   6.324  0.0284 -0.3901 -0.9435
  125ccc     O1 3768   2.936  11.115   6.202  0.5034  0.2867  0.0749
  125ccc     O2 3769   3.035  11.040   6.374  0.0448 -0.1186 -0.2117
  125ccc    H11 3770   3.031  11.042   6.471  0.1587  1.2466 -0.2346
  125ccc     C7 3771   2.462  11.274   6.438  0.1157 -0.0518  0.3412
  125ccc    H12 3772   2.383  11.263   6.513  1.1069  0.3326  1.4548
  125ccc    H13 3773   2.505  11.375   6.437 -2.1877  0.9522  1.2465
  125ccc     C8 3774   2.388  11.253   6.299 -0.3918  0.1799 -0.2115
  125ccc    H14 3775   2.407  11.345   6.242  0.8682  0.5273  0.7573
  125ccc    H15 3776   2.434  11.176   6.236 -0.3271  1.3253 -1.5997
  125ccc     C9 3777   2.242  11.222   6.294  1.0624 -0.1555 -0.6208
  125ccc     O3 3778   2.167  11.200   6.386 -0.9465  0.4524  0.3702
  125ccc     O4 3779   2.187  11.233   6.174  0.4620 -0.3936 -0.5297
  125ccc    H16 3780   2.264  11.230   6.115 -0.1091 -0.4758 -1.2788
  125ccc     O5 3781   2.365  10.850   6.746  0.0893  0.0672  0.4454
  126SOL     OW 3782   4.331   3.203   2.546 -0.4025 -0.4195 -0.7161
  126SOL    HW1 3783   4.275   3.143   2.496 -0.0422 -1.2190 -0.1850
  126SOL    HW2 3784   4.271   3.259   2.594 -0.7508  0.0252 -1.6657
  127SOL     OW 3785   2.763   4.223   1.199  0.0907 -0.0003  0.3750
  127SOL    HW1 3786   2.762   4.240   1.293 -1.1203 -0.3506  0.4237
  127SOL    HW2 3787   2.702   4.286   1.162 -0.2987 -0.6248 -0.0523
  128SOL     OW 3788   1.257   1.166   7.549 -0.1236  0.4621 -0.4391
  128SOL    HW1 3789   1.219   1.201   7.629 -0.6656 -2.9843  0.8906
  128SOL    HW2 3790   1.188   1.176   7.483 -2.6915 -3.7369  1.4422
  129SOL     OW 3791   8.401   6.586   7.321 -0.1767  0.5732  0.2073
  129SOL    HW1 3792   8.422   6.628   7.238  1.9440  0.7499  0.8203
  129SOL    HW2 3793   8.388   6.493   7.298  1.1875  0.4807 -0.2041
  130SOL     OW 3794  10.444   4.277   8.578 -0.0423  0.0598 -0.5228
  130SOL    HW1 3795  10.384   4.203   8.583 -1.0374  0.8925  0.0769
  130SOL    HW2 3796  10.389   4.351   8.552  0.7552  0.7992 -0.1551
  131SOL     OW 3797   3.308   5.120  10.513 -0.4214 -0.3295 -0.0897
  131SOL    HW1 3798   3.311   5.064  10.435  0.3502  0.4756 -0.6316
  131SOL    HW2 3799   3.335   5.062  10.585  1.9711 -0.2254 -0.8891
  132SOL     OW 3800   4.242   7.273   8.460 -0.4267 -0.5642 -0.3760
  132SOL    HW1 3801   4.239   7.212   8.387 -1.4433  1.6256 -2.2192
  132SOL    HW2 3802   4.152   7.275   8.493 -0.1533 -0.8873  0.4140
  133SOL     OW 3803   9.884   6.458   3.912 -0.2956 -0.1404  0.1682
  133SOL    HW1 3804   9.915   6.545   3.885 -0.5116  0.0949  0.6631
  133SOL    HW2 3805   9.791   6.459   3.891  0.1634 -1.1195 -2.0062
  134SOL     OW 3806   8.692   3.333   0.033 -0.3150  0.4295 -0.2974
  134SOL    HW1 3807   8.682   3.289  -0.051 -1.9790  0.6100 -0.1967
  134SOL    HW2 3808   8.737   3.268   0.088 -0.8118 -0.3555 -0.7980
  135SOL     OW 3809   1.704   6.619   6.684 -0.8861 -0.1792  0.0504
  135SOL    HW1 3810   1.719   6.556   6.614 -0.1174 -0.2293  0.2475
  135SOL    HW2 3811   1.626   6.667   6.658 -1.5333 -1.2874 -0.0525
  136SOL     OW 3812   7.375   8.001   0.052 -0.4041 -0.0249 -0.0917
  136SOL    HW1 3813   7.414   7.994  -0.036  2.8343 -0.4173  1.3126
  136SOL    HW2 3814   7.359   8.095   0.063 -0.0629  0.1217 -0.7907
  137SOL     OW 3815  10.039   3.148   5.607 -0.2516  0.4714  0.2461
  137SOL    HW1 3816  10.112   3.206   5.626  0.2913 -0.5962  1.5123
  137SOL    HW2 3817  10.078   3.061   5.598 -1.2552  0.0163  0.1715
  138SOL     OW 3818   9.787   1.926   3.457  0.1175 -0.0188  0.0393
  138SOL    HW1 3819   9.821   2.015   3.445 -1.3534  0.3407 -1.6022
  138SOL    HW2 3820   9.824   1.876   3.385  1.4446 -0.9087  1.3157
  139SOL     OW 3821   9.903   5.742   2.292  0.2759 -0.1639  0.0298
  139SOL    HW1 3822   9.888   5.799   2.216  2.1734 -0.1785 -0.3639
  139SOL    HW2 3823   9.940   5.800   2.359  0.7075 -0.6093  0.1781
  140SOL     OW 3824   0.094   9.380   9.789  0.4081 -0.0953 -0.2191
  140SOL    HW1 3825   0.175   9.345   9.827 -0.5768 -0.7229  1.3444
  140SOL    HW2 3826   0.095   9.473   9.811  0.7468 -0.0831 -0.2819
  141SOL     OW 3827   2.611   4.697   7.559 -0.1983  0.0982 -0.2454
  141SOL    HW1 3828   2.540   4.633   7.557 -0.6505  0.6187 -1.1027
  141SOL    HW2 3829   2.690   4.645   7.569 -0.6001 -0.5659 -0.5025
  142SOL     OW 3830   5.430   9.516   2.510 -0.4078  0.0093  0.2281
  142SOL    HW1 3831   5.448   9.534   2.602 -0.8143  1.2442  0.0762
  142SOL    HW2 3832   5.339   9.485   2.509 -0.6350  0.6771  0.1601
  143SOL     OW 3833   3.452   8.571   5.052 -0.3160 -0.1275 -0.5271
  143SOL    HW1 3834   3.470   8.623   5.131  0.7231  1.6449 -1.8875
  143SOL    HW2 3835   3.475   8.481   5.077  0.1610  0.4338  1.1432
  144SOL     OW 3836  10.510   8.920   3.226  0.1667 -0.1269  0.2970
  144SOL    HW1 3837  10.529   8.984   3.295  0.8305 -1.0435  0.9736
  144SOL    HW2 3838  10.414   8.917   3.222  0.1272  0.5245  0.6249
  145SOL     OW 3839   5.226   9.716  10.702 -0.1085  0.2321  0.6090
  145SOL    HW1 3840   5.212   9.795  10.756  0.1562  2.0794 -1.9668
  145SOL    HW2 3841   5.321   9.708  10.696 -0.1367  0.5701 -0.3303
  146SOL     OW 3842   0.898  10.172   9.577 -0.3101  0.2524 -0.2013
  146SOL    HW1 3843   0.923  10.122   9.655  0.5528  0.0006 -0.6316
  146SOL    HW2 3844   0.961  10.145   9.510  0.7078  2.5428 -0.2130
  147SOL     OW 3845   7.091   7.207   4.901 -0.1383 -0.0986 -0.2885
  147SOL    HW1 3846   7.026   7.195   4.833 -0.2868  0.4791 -0.2511
  147SOL    HW2 3847   7.152   7.272   4.865  0.2870 -0.4715 -0.2369
  148SOL     OW 3848   5.767   1.252   8.948  0.1713  0.2987 -0.1541
  148SOL    HW1 3849   5.820   1.243   8.868  1.4688 -0.4012  0.7511
  148SOL    HW2 3850   5.740   1.163   8.969  0.4904  0.3753  0.6114
  149SOL     OW 3851   3.502   8.465   4.619  0.2947 -0.0895  0.2399
  149SOL    HW1 3852   3.440   8.500   4.555  1.1803  0.5275 -0.3013
  149SOL    HW2 3853   3.572   8.428   4.566 -0.3231 -2.1630  0.8193
  150SOL     OW 3854   5.207  10.041   9.728 -0.1308 -0.3022 -0.0977
  150SOL    HW1 3855   5.192  10.120   9.676  2.0412 -0.8375 -1.6312
  150SOL    HW2 3856   5.179   9.969   9.672 -1.0424 -0.7006  0.8511
  151SOL     OW 3857   3.551   9.753  10.893 -0.2130 -0.5662  0.0960
  151SOL    HW1 3858   3.529   9.691  10.823  1.2626 -0.2051 -0.7064
  151SOL    HW2 3859   3.617   9.811  10.855 -0.1880  0.3184  1.4394
  152SOL     OW 3860   8.506   0.706  10.791  0.5996  0.0162  0.2002
  152SOL    HW1 3861   8.504   0.771  10.862  0.8940  0.8348 -0.5276
  152SOL    HW2 3862   8.417   0.671  10.789  0.4007  0.4831  0.5346
  153SOL     OW 3863   8.639   6.810   6.942 -0.1962 -0.0310 -0.0064
  153SOL    HW1 3864   8.733   6.826   6.951 -0.4003  2.4754 -1.9543
  153SOL    HW2 3865   8.598   6.883   6.989 -1.2465 -2.8519  3.6942
  154SOL     OW 3866   7.107   5.710   8.351 -0.3011  0.1461 -0.2677
  154SOL    HW1 3867   7.048   5.752   8.288 -2.1093  1.3886  2.1735
  154SOL    HW2 3868   7.180   5.771   8.359  0.8144 -0.8330 -2.3964
  155SOL     OW 3869   0.403   5.075   0.009 -0.3768  0.0475  0.6453
  155SOL    HW1 3870   0.365   5.061   0.096  1.6443 -2.1396  1.2204
  155SOL    HW2 3871   0.451   5.157   0.017  1.5622 -1.2066  2.2561
  156SOL     OW 3872   9.954   8.425   0.310  0.1748 -0.4163  0.2035
  156SOL    HW1 3873   9.884   8.486   0.284  0.9231 -0.0050 -0.8552
  156SOL    HW2 3874   9.987   8.389   0.228 -0.3244 -2.3525  0.8175
  157SOL     OW 3875   3.219   9.254   4.800  0.4577 -0.2739 -0.1493
  157SOL    HW1 3876   3.263   9.171   4.784 -0.8909 -0.6479 -2.0364
  157SOL    HW2 3877   3.187   9.282   4.714  0.4229  1.9318  0.5494
  158SOL     OW 3878   1.587   2.149   2.187 -0.2216  0.6928 -0.2133
  158SOL    HW1 3879   1.515   2.142   2.125 -0.8416 -0.2085  0.5810
  158SOL    HW2 3880   1.545   2.143   2.273  0.8860 -0.7896  0.2535
  159SOL     OW 3881   1.605   2.734   4.665 -0.1815 -0.2728  0.0201
  159SOL    HW1 3882   1.658   2.813   4.655  0.1890 -0.4879  0.3055
  159SOL    HW2 3883   1.523   2.755   4.620  1.4292 -1.1954 -3.5575
  160SOL     OW 3884   9.743   9.581   7.998  0.0266 -0.2510  0.2221
  160SOL    HW1 3885   9.785   9.655   7.954  1.6216 -0.3025  1.6228
  160SOL    HW2 3886   9.674   9.554   7.937  1.2434  0.5779 -1.5976
  161SOL     OW 3887  10.382   9.274   1.216 -0.0592  0.1688 -0.1811
  161SOL    HW1 3888  10.464   9.249   1.174  0.3781  0.0581  0.7287
  161SOL    HW2 3889  10.373   9.213   1.290 -0.0652  1.3006  0.7713
  162SOL     OW 3890  10.908   3.531   0.876 -0.0206  0.4032 -0.1260
  162SOL    HW1 3891  10.956   3.450   0.857 -1.3286 -0.2585 -0.6480
  162SOL    HW2 3892  10.949   3.597   0.820  0.7822  0.0157 -0.0016
  163SOL     OW 3893   7.327   3.275   6.166 -0.2045  0.2561  0.3446
  163SOL    HW1 3894   7.354   3.351   6.217 -1.4289 -0.0520  1.4781
  163SOL    HW2 3895   7.327   3.203   6.229  0.5685 -0.6077 -0.6333
  164SOL     OW 3896   2.624   5.092  10.879 -0.1701  0.3683  0.0232
  164SOL    HW1 3897   2.700   5.120  10.828 -0.2443  1.9882  0.7529
  164SOL    HW2 3898   2.550   5.101  10.818 -0.1209  1.3268  0.0919
  165SOL     OW 3899   8.257   6.645   9.668 -0.2242 -0.1263  0.5374
  165SOL    HW1 3900   8.219   6.614   9.750  3.5285 -3.0541  1.3106
  165SOL    HW2 3901   8.299   6.728   9.691 -0.9840  0.1177  1.0749
  166SOL     OW 3902  10.055   9.977   9.146 -0.3042  0.1766  0.1075
  166SOL    HW1 3903  10.004  10.044   9.192  1.8294  1.2292  1.0513
  166SOL    HW2 3904  10.076  10.018   9.061 -0.6295 -0.0744 -0.0963
  167SOL     OW 3905   2.629   6.542   3.413  0.2461 -0.3428  0.0663
  167SOL    HW1 3906   2.680   6.509   3.338 -0.5134  1.9471 -1.5148
  167SOL    HW2 3907   2.539   6.515   3.393  0.0420  0.2876  0.1461
  168SOL     OW 3908   1.598   0.256   9.997  0.0986 -0.3142 -0.6259
  168SOL    HW1 3909   1.580   0.171  10.039  1.5603  0.3171  1.3422
  168SOL    HW2 3910   1.674   0.239   9.941  1.3486  0.0436  0.9471
  169SOL     OW 3911   8.267   0.255  10.150  0.1438 -0.0681 -0.0171
  169SOL    HW1 3912   8.342   0.264  10.209  0.9232  0.4353 -1.0622
  169SOL    HW2 3913   8.273   0.330  10.091 -0.9244 -0.2715 -0.4090
  170SOL     OW 3914   4.606   0.919   9.692 -0.0083  0.2586 -0.9699
  170SOL    HW1 3915   4.685   0.892   9.740  0.0692  2.1505  0.0054
  170SOL    HW2 3916   4.580   0.840   9.644  0.2431 -1.5695  1.7389
  171SOL     OW 3917   0.501   0.321   7.623 -0.8535  0.3886  0.4895
  171SOL    HW1 3918   0.494   0.376   7.544 -1.3656 -0.1278  0.1755
  171SOL    HW2 3919   0.411   0.303   7.648 -0.6904  0.7526  1.3427
  172SOL     OW 3920   8.928   2.346   9.485 -0.4711 -0.3292  0.6072
  172SOL    HW1 3921   8.876   2.404   9.541  0.7737 -0.2159  1.6833
  172SOL    HW2 3922   8.868   2.319   9.415 -2.1862 -0.8332  2.2339
  173SOL     OW 3923   4.724   0.510   6.295  0.3012 -0.3747  0.2384
  173SOL    HW1 3924   4.715   0.490   6.388  0.6740 -0.2385  0.3039
  173SOL    HW2 3925   4.804   0.465   6.268  0.7914  0.4857  0.2383
  174SOL     OW 3926   8.104   6.042   2.679 -0.0315 -0.4294  0.5016
  174SOL    HW1 3927   8.010   6.054   2.666  0.3992  1.2019 -1.3154
  174SOL    HW2 3928   8.115   6.042   2.774 -1.7058  0.8671  0.7172
  175SOL     OW 3929   7.197   2.799   7.830  0.1911 -0.7204  0.0959
  175SOL    HW1 3930   7.103   2.802   7.815  0.1853  1.6607  0.5132
  175SOL    HW2 3931   7.233   2.870   7.777  1.8261 -1.9127 -0.4558
  176SOL     OW 3932   9.521   2.328   7.251 -0.0885 -0.6560  0.4890
  176SOL    HW1 3933   9.609   2.321   7.287  0.2260 -0.8506 -0.2995
  176SOL    HW2 3934   9.478   2.246   7.274  0.0988 -0.7649  0.4439
  177SOL     OW 3935   7.278   2.592   1.902  0.0653 -0.2697  0.3363
  177SOL    HW1 3936   7.242   2.503   1.901 -0.0331 -0.2328  0.5529
  177SOL    HW2 3937   7.346   2.591   1.834 -1.6188  0.1882 -1.4128
  178SOL     OW 3938   2.103   1.818   8.378 -0.1545 -0.2683 -0.7558
  178SOL    HW1 3939   2.141   1.905   8.391  0.1805 -0.2885 -1.5465
  178SOL    HW2 3940   2.140   1.789   8.295 -0.0987 -1.2583 -0.3851
  179SOL     OW 3941   4.877   9.684   4.514 -0.3276 -0.1014  0.4340
  179SOL    HW1 3942   4.861   9.617   4.447  0.3600  0.5831 -0.4256
  179SOL    HW2 3943   4.971   9.702   4.508 -0.3285  0.2109  1.3558
  180SOL     OW 3944   0.414   5.174   9.754 -0.5750 -0.2878 -0.2406
  180SOL    HW1 3945   0.448   5.258   9.724  0.6427 -1.0595 -1.0229
  180SOL    HW2 3946   0.408   5.184   9.849 -1.2463  0.9690 -0.3988
  181SOL     OW 3947   5.457   6.720  10.733  0.2267 -0.8003 -0.0544
  181SOL    HW1 3948   5.504   6.804  10.731 -2.1860  0.5322 -2.4993
  181SOL    HW2 3949   5.491   6.677  10.812  3.7900  1.1064 -0.4273
  182SOL     OW 3950   1.528   7.162   7.323 -0.2831  0.4367 -0.3956
  182SOL    HW1 3951   1.543   7.096   7.391 -0.9542 -0.6613 -1.2874
  182SOL    HW2 3952   1.609   7.164   7.273 -0.7679 -0.8162 -1.2725
  183SOL     OW 3953   0.140   3.082   3.778  0.4697  0.3677 -0.2992
  183SOL    HW1 3954   0.160   3.092   3.685 -0.5228 -2.1881 -0.8242
  183SOL    HW2 3955   0.208   3.024   3.811  0.5825  0.9405  0.4943
  184SOL     OW 3956   8.581   1.296   2.388 -0.0999  0.0986 -0.3449
  184SOL    HW1 3957   8.513   1.274   2.452 -0.2311  0.0277 -0.5057
  184SOL    HW2 3958   8.607   1.213   2.350  0.8495  0.0104  0.4848
  185SOL     OW 3959   4.822   6.649   3.164  0.3796  1.0481  0.5894
  185SOL    HW1 3960   4.846   6.570   3.115  2.1067  2.3719 -0.8045
  185SOL    HW2 3961   4.898   6.706   3.155 -0.8841  2.9260  1.4822
  186SOL     OW 3962  10.232   1.593   8.809  0.4686  0.5955  0.5222
  186SOL    HW1 3963  10.141   1.582   8.836  0.3030 -0.0643 -0.2942
  186SOL    HW2 3964  10.283   1.570   8.887 -0.0174 -0.7682  0.4470
  187SOL     OW 3965   2.791   2.188   4.581  0.4337  0.4527 -0.4443
  187SOL    HW1 3966   2.702   2.195   4.546  1.1551 -0.0661 -2.4081
  187SOL    HW2 3967   2.824   2.105   4.548  1.7053  0.6920  0.1903
  188SOL     OW 3968   5.781   2.472   1.769 -0.0424 -0.7433 -0.1891
  188SOL    HW1 3969   5.762   2.533   1.698 -0.0065  0.1894  0.5849
  188SOL    HW2 3970   5.875   2.485   1.786  0.2778 -2.0166 -0.9401
  189SOL     OW 3971   7.062  10.343   3.633 -0.0548  0.0085  0.2649
  189SOL    HW1 3972   7.083  10.424   3.679  0.3888 -0.2355  0.4999
  189SOL    HW2 3973   7.011  10.292   3.696 -1.4917  0.6534 -0.3497
  190SOL     OW 3974   6.009   3.754   5.561  0.5599 -0.6516  0.5573
  190SOL    HW1 3975   6.072   3.683   5.573  0.0450 -1.2342 -0.1632
  190SOL    HW2 3976   5.925   3.710   5.546  0.5344  0.0777 -1.5370
  191SOL     OW 3977   7.723   4.547   0.434 -0.3253  0.1831 -0.2594
  191SOL    HW1 3978   7.784   4.620   0.437  1.2643 -0.9046 -3.5156
  191SOL    HW2 3979   7.776   4.470   0.453 -1.4153 -0.4231  0.3964
  192SOL     OW 3980   1.746   5.987   0.923 -0.3774  0.2200  0.0758
  192SOL    HW1 3981   1.757   5.932   0.845 -1.8285  1.0412 -0.7246
  192SOL    HW2 3982   1.663   6.031   0.909 -0.6987  0.3037  2.1482
  193SOL     OW 3983   8.446   3.228   6.684 -0.2040  0.3428 -0.0495
  193SOL    HW1 3984   8.475   3.141   6.655 -0.6663  0.5268 -1.0831
  193SOL    HW2 3985   8.382   3.210   6.752  0.6047 -0.1021  0.6062
  194SOL     OW 3986   6.834   4.802   3.318  0.5454  0.5307  0.4191
  194SOL    HW1 3987   6.826   4.877   3.377 -0.2048  0.8610 -0.1082
  194SOL    HW2 3988   6.886   4.834   3.244 -0.9049  0.9097 -0.4435
  195SOL     OW 3989   2.503   2.433   1.221  0.3134 -0.0240 -0.1554
  195SOL    HW1 3990   2.573   2.499   1.223 -0.5014  0.8346  0.5504
  195SOL    HW2 3991   2.492   2.408   1.313  0.7776 -1.3267 -0.4500
  196SOL     OW 3992   6.039   9.576  10.359 -0.0190 -0.1930  0.0058
  196SOL    HW1 3993   6.051   9.636  10.286 -0.9441  0.3935  0.3288
  196SOL    HW2 3994   6.102   9.505  10.342  0.9216  0.7429 -0.4874
  197SOL     OW 3995   9.823   8.718   8.059  0.1749 -0.0362  0.8154
  197SOL    HW1 3996   9.883   8.652   8.092  0.7368 -0.1593 -0.4354
  197SOL    HW2 3997   9.761   8.733   8.131  1.1718 -0.5375  1.7826
  198SOL     OW 3998   5.144   9.734   9.244 -0.1608 -1.1480  0.2012
  198SOL    HW1 3999   5.066   9.688   9.276 -1.7229  1.2650 -0.0293
  198SOL    HW2 4000   5.115   9.824   9.231  2.0090 -0.7618 -2.3719
  199SOL     OW 4001   1.647   9.931   5.425  0.1900  0.2613 -0.6091
  199SOL    HW1 4002   1.583   9.996   5.394 -0.6949 -2.0140 -3.8616
  199SOL    HW2 4003   1.726   9.949   5.374  0.3116 -0.4964 -0.6913
  200SOL     OW 4004   8.927   7.848   1.552  0.1897 -0.0195  0.1828
  200SOL    HW1 4005   8.995   7.904   1.516 -0.5385  1.6641  1.3798
  200SOL    HW2 4006   8.902   7.791   1.479  0.6404  1.4807 -1.1691
  201SOL     OW 4007   2.591   5.601   4.738 -0.2337 -0.0847  0.7149
  201SOL    HW1 4008   2.513   5.554   4.708  0.4099  0.8286 -2.4888
  201SOL    HW2 4009   2.568   5.631   4.826 -2.7032 -1.6333  0.6362
  202SOL     OW 4010   5.436   3.838   6.869  0.0813  0.4042  0.1016
  202SOL    HW1 4011   5.460   3.923   6.905 -0.0055  0.8358 -0.8435
  202SOL    HW2 4012   5.405   3.857   6.781  0.3037 -0.6381 -0.2102
  203SOL     OW 4013   4.101   1.719   2.381 -0.1766 -0.1922  0.7940
  203SOL    HW1 4014   4.016   1.748   2.348  1.0464 -0.2091 -2.5936
  203SOL    HW2 4015   4.087   1.629   2.409 -0.8675 -0.9320 -1.7589
  204SOL     OW 4016   0.638   5.200   1.620  0.1518  0.0723 -0.0634
  204SOL    HW1 4017   0.604   5.122   1.577  0.7557  0.0528 -0.5229
  204SOL    HW2 4018   0.564   5.236   1.669  0.0771 -1.2271  0.7908
  205SOL     OW 4019   1.329   0.335   7.053  0.4290 -0.1000 -0.3400
  205SOL    HW1 4020   1.401   0.364   7.109 -0.5506  1.3468  0.1832
  205SOL    HW2 4021   1.253   0.333   7.110 -0.1002 -0.9226 -1.0643
  206SOL     OW 4022  10.710   2.262   3.662  0.2676 -0.0673 -0.2715
  206SOL    HW1 4023  10.712   2.176   3.703  1.8141 -0.3036 -0.7819
  206SOL    HW2 4024  10.696   2.245   3.569  1.7755  0.1300 -0.5541
  207SOL     OW 4025   3.470   6.863   3.556 -0.3775 -0.4045  0.2377
  207SOL    HW1 4026   3.511   6.931   3.502  0.1986 -2.0380 -1.4157
  207SOL    HW2 4027   3.415   6.912   3.618  0.3971  1.5865 -0.6017
  208SOL     OW 4028   7.894   8.795   7.299 -0.1444  0.1564 -0.1193
  208SOL    HW1 4029   7.908   8.704   7.326 -0.4286 -0.1627 -1.0443
  208SOL    HW2 4030   7.801   8.810   7.313  0.1362  0.6977  1.2149
  209SOL     OW 4031   6.582   6.187   1.350 -0.1458  0.2597  0.4878
  209SOL    HW1 4032   6.548   6.109   1.306 -2.0700  1.0577  0.4678
  209SOL    HW2 4033   6.594   6.250   1.279 -0.9914  0.7786  0.7957
  210SOL     OW 4034   8.286   6.204   2.458 -0.2636  0.7008 -0.5448
  210SOL    HW1 4035   8.280   6.244   2.545 -0.3092 -0.5160  0.0159
  210SOL    HW2 4036   8.203   6.158   2.447  1.2682 -2.4920  0.4510
  211SOL     OW 4037   1.250   8.472   0.007  0.2576 -0.1070  0.5881
  211SOL    HW1 4038   1.238   8.559   0.043 -0.8872 -0.3824  0.9054
  211SOL    HW2 4039   1.163   8.431   0.012  0.4251 -0.7219 -0.9674
  212SOL     OW 4040   1.347  10.371   9.345  0.0155  0.0131  0.5529
  212SOL    HW1 4041   1.277  10.359   9.281  1.0747 -2.3693 -0.2051
  212SOL    HW2 4042   1.302  10.383   9.429 -1.3170  0.1015 -0.1722
  213SOL     OW 4043   3.885   3.741   1.754  0.0154 -0.1154 -0.4930
  213SOL    HW1 4044   3.914   3.817   1.703 -0.6189 -0.3025 -1.1325
  213SOL    HW2 4045   3.966   3.704   1.789  0.2831  1.2684  0.4292
  214SOL     OW 4046   1.525   3.208   2.116 -0.5689  0.8426  0.2760
  214SOL    HW1 4047   1.571   3.211   2.032  1.3456 -0.7951  1.2249
  214SOL    HW2 4048   1.471   3.288   2.117 -0.8998  0.7119 -2.6354
  215SOL     OW 4049  10.574   4.810   4.975 -0.0933 -0.5825 -0.1038
  215SOL    HW1 4050  10.598   4.775   5.061  1.9564  0.0489 -0.3789
  215SOL    HW2 4051  10.616   4.895   4.972 -2.0267  0.3778 -0.8720
  216SOL     OW 4052   0.612   8.482  10.171  0.5120  0.4848  0.4476
  216SOL    HW1 4053   0.580   8.566  10.205  0.2016  1.3986 -1.9849
  216SOL    HW2 4054   0.690   8.463  10.222  0.3116  2.0176  1.3504
  217SOL     OW 4055   2.849   3.292   0.727  0.2479 -0.1473 -0.4100
  217SOL    HW1 4056   2.777   3.329   0.676  0.1343  0.2666  0.0524
  217SOL    HW2 4057   2.862   3.353   0.800  1.0175 -0.2543 -0.4468
  218SOL     OW 4058   2.345   8.666   4.644 -0.7937  0.2673 -0.3348
  218SOL    HW1 4059   2.433   8.696   4.622 -0.9522  0.8277 -0.1959
  218SOL    HW2 4060   2.322   8.607   4.572  0.1901 -0.8829  0.2794
  219SOL     OW 4061   1.770   7.000   8.667  0.4170  0.4350 -0.4790
  219SOL    HW1 4062   1.806   7.012   8.755  0.3571  2.5986 -0.7340
  219SOL    HW2 4063   1.822   7.057   8.612  1.4357 -2.0085 -2.1501
  220SOL     OW 4064   2.205   1.150   9.625  0.2797 -0.1614 -0.1649
  220SOL    HW1 4065   2.140   1.089   9.591  0.7496 -2.2437  2.4755
  220SOL    HW2 4066   2.153   1.225   9.656 -0.7819 -1.2298  0.7238
  221SOL     OW 4067   4.493   6.538   7.970 -0.0760  1.0864  0.2962
  221SOL    HW1 4068   4.440   6.467   7.933  2.3194 -0.3679 -0.4284
  221SOL    HW2 4069   4.497   6.519   8.063  2.2005 -0.9011 -0.1613
  222SOL     OW 4070  10.472   1.003   2.429 -0.1209 -0.2166  0.0668
  222SOL    HW1 4071  10.503   1.057   2.501  2.0302 -1.5601  0.1751
  222SOL    HW2 4072  10.388   0.968   2.460 -0.1313  0.7294  1.1378
  223SOL     OW 4073   1.081   5.885   9.424 -0.1428 -0.7578  0.1455
  223SOL    HW1 4074   1.163   5.875   9.374 -1.0000 -2.7085 -0.9374
  223SOL    HW2 4075   1.092   5.826   9.499  0.6946  1.3434  1.7077
  224SOL     OW 4076   3.124   9.549   1.507 -0.2055  0.0548  0.7549
  224SOL    HW1 4077   3.100   9.629   1.460 -1.1666 -0.6091  0.0951
  224SOL    HW2 4078   3.219   9.544   1.499 -0.1670  0.9991  0.5778
  225SOL     OW 4079   6.224   2.648   5.133 -0.2123 -0.2095 -0.4879
  225SOL    HW1 4080   6.275   2.587   5.186  0.0442  1.3056  1.0444
  225SOL    HW2 4081   6.133   2.633   5.161 -0.0672  0.6555  0.4599
  226SOL     OW 4082   1.680   9.205   4.408 -0.5091  0.6821 -0.7286
  226SOL    HW1 4083   1.689   9.284   4.461 -0.3781 -0.0359  0.3412
  226SOL    HW2 4084   1.766   9.162   4.414 -0.0692  1.2612 -2.6198
  227SOL     OW 4085   2.318   5.324   3.198  0.5038 -0.3538  0.2804
  227SOL    HW1 4086   2.324   5.246   3.143 -2.4216 -0.3548 -0.1159
  227SOL    HW2 4087   2.309   5.396   3.136  1.2215  0.0855  0.6862
  228SOL     OW 4088   1.195   0.915  10.336 -0.0179  0.2227 -0.2067
  228SOL    HW1 4089   1.118   0.865  10.308  0.0797  0.2535 -0.5253
  228SOL    HW2 4090   1.160   1.000  10.365 -0.2163 -0.1229  0.5945
  229SOL     OW 4091   4.728   3.953   4.198  0.4966 -0.1280 -0.0793
  229SOL    HW1 4092   4.724   3.931   4.105  0.1104 -0.6867  0.0688
  229SOL    HW2 4093   4.643   3.928   4.233  1.3726 -1.8917  0.8516
  230SOL     OW 4094   5.057   7.937   4.484  0.5588 -0.0283  0.4279
  230SOL    HW1 4095   4.995   7.917   4.554  0.3772 -0.9073  0.0201
  230SOL    HW2 4096   5.019   8.012   4.439 -0.2551 -0.6086  0.1347
  231SOL     OW 4097   8.725   0.160   9.683  0.2291  0.2873 -0.0568
  231SOL    HW1 4098   8.699   0.085   9.737  2.0049 -0.4166 -0.1410
  231SOL    HW2 4099   8.817   0.173   9.703  0.9927 -0.0881 -3.0153
  232SOL     OW 4100   9.885   2.017   0.517 -0.0811 -0.0304 -0.8848
  232SOL    HW1 4101   9.937   2.012   0.597 -0.2569 -1.5994 -0.8447
  232SOL    HW2 4102   9.799   1.983   0.542 -0.2536 -0.1636 -1.6429
  233SOL     OW 4103  10.442   5.729   7.423 -0.2841  0.4736 -0.5071
  233SOL    HW1 4104  10.390   5.753   7.346 -0.7154  3.7118  0.7188
  233SOL    HW2 4105  10.528   5.766   7.407  0.0905 -0.2156 -0.1145
  234SOL     OW 4106   2.457   0.102   9.071 -0.3818 -0.3728 -0.4121
  234SOL    HW1 4107   2.549   0.078   9.064  0.4993  2.2664  1.3799
  234SOL    HW2 4108   2.442   0.161   8.998  0.2824  1.8200  1.1687
  235SOL     OW 4109   9.275   0.839   6.657 -0.2307  0.7104 -0.1201
  235SOL    HW1 4110   9.312   0.926   6.667  2.0604 -0.2615  0.0576
  235SOL    HW2 4111   9.219   0.845   6.580  1.9355  1.6831 -1.6577
  236SOL     OW 4112   5.113   9.676   6.408 -0.5603  0.9407 -0.1879
  236SOL    HW1 4113   5.086   9.584   6.405 -0.3550  0.8604  0.3275
  236SOL    HW2 4114   5.175   9.681   6.482 -0.4224  1.4505 -0.3308
  237SOL     OW 4115   2.133   9.836   6.800 -0.1307  0.0632 -0.0681
  237SOL    HW1 4116   2.200   9.875   6.855  1.0887 -0.5772 -1.0843
  237SOL    HW2 4117   2.133   9.743   6.824 -1.2818  0.2075  0.5570
  238SOL     OW 4118   0.707   1.999   9.761 -0.8307  0.7386  0.3619
  238SOL    HW1 4119   0.752   2.051   9.828  1.2559  1.4618 -1.5570
  238SOL    HW2 4120   0.676   2.062   9.697 -1.6723 -0.0526 -0.0249
  239SOL     OW 4121   0.949  10.749   9.708  0.3395 -0.2286  0.4886
  239SOL    HW1 4122   0.927  10.667   9.750 -0.6905 -0.2933 -0.1559
  239SOL    HW2 4123   0.971  10.808   9.780  1.2946 -1.1172  0.9378
  240SOL     OW 4124   1.262   1.104   5.270  0.1786 -0.0703 -0.4895
  240SOL    HW1 4125   1.345   1.140   5.239  0.3994 -0.9505 -0.9202
  240SOL    HW2 4126   1.273   1.009   5.265 -0.8260 -0.1922 -0.4750
  241SOL     OW 4127   1.035   2.282   2.715 -0.1965  0.1291  0.1101
  241SOL    HW1 4128   1.029   2.373   2.740  0.3311  0.1105  0.3229
  241SOL    HW2 4129   0.946   2.248   2.722 -0.4218  0.6726 -0.1472
  242SOL     OW 4130  10.372   2.057   4.593 -0.5187 -0.5030  0.5670
  242SOL    HW1 4131  10.435   2.062   4.522  0.3707  0.5449  1.4087
  242SOL    HW2 4132  10.334   2.145   4.597 -0.5576 -0.5512  1.3739
  243SOL     OW 4133   0.709   7.878   2.444 -0.5053 -0.0424 -0.4541
  243SOL    HW1 4134   0.735   7.969   2.462 -0.5426 -0.3930  1.4612
  243SOL    HW2 4135   0.787   7.837   2.407 -0.3169  0.6073 -0.7880
  244SOL     OW 4136   7.326   1.166   3.418  1.1674 -0.3971  0.0632
  244SOL    HW1 4137   7.318   1.227   3.492 -0.4282  1.4398 -1.5833
  244SOL    HW2 4138   7.408   1.192   3.375  0.3369  0.8186 -0.8137
  245SOL     OW 4139   1.835   2.664   2.679 -0.2445 -0.1649  0.0166
  245SOL    HW1 4140   1.746   2.693   2.658  0.2948  2.1616  0.6978
  245SOL    HW2 4141   1.839   2.670   2.775 -0.1049 -2.6189  0.1739
  246SOL     OW 4142   1.718   7.821   0.522  0.0753 -0.1044  0.1219
  246SOL    HW1 4143   1.741   7.896   0.467  1.0823 -1.3067 -1.1338
  246SOL    HW2 4144   1.784   7.821   0.592  0.8377 -0.5367 -0.5856
  247SOL     OW 4145   2.600   7.612   4.528 -0.2661 -0.1353  0.1032
  247SOL    HW1 4146   2.640   7.613   4.441 -1.6649  0.7682 -0.5596
  247SOL    HW2 4147   2.670   7.587   4.587  1.0015  0.4065 -1.1498
  248SOL     OW 4148  10.563   3.907   2.644  0.0309  0.3060  0.1235
  248SOL    HW1 4149  10.563   3.917   2.739  2.0653  1.0590  0.0522
  248SOL    HW2 4150  10.504   3.833   2.629 -0.0109 -0.0807  1.9887
  249SOL     OW 4151   3.279   1.179   4.956  0.2579 -0.3140 -0.0884
  249SOL    HW1 4152   3.230   1.096   4.959 -0.7561  0.2977  0.5932
  249SOL    HW2 4153   3.234   1.231   4.889  0.6653 -0.1773 -0.2550
  250SOL     OW 4154   6.824   9.295   4.496 -0.4170 -0.7683  0.6760
  250SOL    HW1 4155   6.840   9.384   4.527  2.8018 -1.6698  1.7863
  250SOL    HW2 4156   6.768   9.306   4.420 -0.3099  2.1841  0.9671
  251SOL     OW 4157   3.079   7.751   5.261 -0.1830 -0.0703  0.1904
  251SOL    HW1 4158   3.040   7.776   5.177 -0.7436  1.3021  0.8288
  251SOL    HW2 4159   3.060   7.826   5.318  0.0633 -1.0559  1.5746
  252SOL     OW 4160   1.384   0.928   3.635  0.0097 -0.3878  0.4682
  252SOL    HW1 4161   1.320   0.981   3.682  1.0919  0.8912  0.4955
  252SOL    HW2 4162   1.469   0.953   3.671  0.7126 -0.6292 -0.9634
  253SOL     OW 4163   5.914   8.368   6.548  0.1548 -0.1973 -0.4319
  253SOL    HW1 4164   5.928   8.452   6.591 -2.1426  0.1005 -0.2229
  253SOL    HW2 4165   5.869   8.315   6.613  1.9508 -1.7369 -0.4255
  254SOL     OW 4166   6.620   4.285   7.754  0.4787  0.4754 -0.0063
  254SOL    HW1 4167   6.628   4.300   7.660  2.0358  0.6507  0.1424
  254SOL    HW2 4168   6.564   4.357   7.785 -1.0269 -0.2604 -0.9620
  255SOL     OW 4169   2.977   6.724   8.783  0.1149  0.1399 -0.4935
  255SOL    HW1 4170   2.882   6.713   8.784 -0.2742  2.5319 -3.4877
  255SOL    HW2 4171   2.989   6.818   8.770  2.9234 -0.1852 -0.4461
  256SOL     OW 4172  10.718   1.510   4.161  1.1087 -0.4541 -0.1358
  256SOL    HW1 4173  10.736   1.494   4.254  0.9181 -0.4634 -0.1008
  256SOL    HW2 4174  10.798   1.482   4.117  0.7314 -1.6499 -0.0813
  257SOL     OW 4175   8.434   7.111   4.285  0.1624 -0.3097 -0.9021
  257SOL    HW1 4176   8.439   7.141   4.375 -0.6686  0.2633 -1.0480
  257SOL    HW2 4177   8.350   7.065   4.279  0.0999 -0.1256 -1.4536
  258SOL     OW 4178   7.602   4.354   3.555  0.1971  0.0517 -0.1397
  258SOL    HW1 4179   7.555   4.435   3.538 -0.4355 -0.5986 -1.5354
  258SOL    HW2 4180   7.691   4.370   3.524 -0.1197 -0.0307 -1.1029
  259SOL     OW 4181   7.064   9.345   3.068 -0.1928 -0.1455  0.4875
  259SOL    HW1 4182   7.085   9.360   3.160  1.0118 -2.5840  0.6402
  259SOL    HW2 4183   7.049   9.251   3.062 -0.1542 -0.0228 -1.8339
  260SOL     OW 4184   8.137   5.180   2.912 -0.5188 -0.4037 -0.6353
  260SOL    HW1 4185   8.099   5.217   2.832 -0.0521 -1.2828 -1.2734
  260SOL    HW2 4186   8.229   5.204   2.909 -0.6367  0.1400 -0.0191
  261SOL     OW 4187   7.506   6.510   3.063 -0.3860  0.5241 -0.2009
  261SOL    HW1 4188   7.559   6.465   3.129 -0.3062 -2.0485 -1.9564
  261SOL    HW2 4189   7.426   6.536   3.110  0.0737 -0.4152  1.1363
  262SOL     OW 4190   8.702  10.976   6.076  0.1512  0.4837 -0.8084
  262SOL    HW1 4191   8.652  11.058   6.071  0.7961  0.8939 -0.6064
  262SOL    HW2 4192   8.711  10.960   6.169  0.0824  0.2142 -0.8492
  263SOL     OW 4193   0.909   6.944   4.414 -0.2247  0.4837 -0.2585
  263SOL    HW1 4194   0.942   6.899   4.492  0.0272  0.9659 -0.0851
  263SOL    HW2 4195   0.970   7.017   4.401 -0.9692  1.1195 -0.1996
  264SOL     OW 4196   1.894   6.421   1.349 -0.7044  0.7008  0.2854
  264SOL    HW1 4197   1.907   6.407   1.443  2.4000 -1.3524 -0.3752
  264SOL    HW2 4198   1.923   6.339   1.308 -0.7742  2.0263 -2.5785
  265SOL     OW 4199   0.271   0.171   3.036  0.2778  0.0242 -0.4349
  265SOL    HW1 4200   0.331   0.170   3.112 -0.2630 -1.3391 -0.0222
  265SOL    HW2 4201   0.269   0.263   3.010  0.9683  0.4200  0.8208
  266SOL     OW 4202   3.888   8.593   4.831 -0.3243 -0.6625  0.2957
  266SOL    HW1 4203   3.917   8.502   4.839  1.2468 -0.3792 -1.8178
  266SOL    HW2 4204   3.871   8.605   4.738  1.0428  1.6691  0.3008
  267SOL     OW 4205   0.281   7.121   1.073 -0.6101 -0.4536  0.3272
  267SOL    HW1 4206   0.220   7.082   1.136 -0.2151 -2.7538 -0.6899
  267SOL    HW2 4207   0.225   7.159   1.006 -0.9741 -0.1446  0.8019
  268SOL     OW 4208   2.594   6.217  10.329  0.2787  0.3939  0.2613
  268SOL    HW1 4209   2.612   6.311  10.330  0.5298  0.3472  0.0055
  268SOL    HW2 4210   2.640   6.184  10.252 -0.8387  0.2689 -0.3687
  269SOL     OW 4211   5.047   2.209   6.537 -0.4092  0.1641 -0.4081
  269SOL    HW1 4212   5.040   2.128   6.589  1.0824  0.8199  0.8438
  269SOL    HW2 4213   5.124   2.196   6.483  0.3776  1.1078  0.4675
  270SOL     OW 4214  10.706   2.956   7.118  0.1828  0.1654 -0.2978
  270SOL    HW1 4215  10.617   2.971   7.151  0.4635 -0.3538  0.7096
  270SOL    HW2 4216  10.719   3.025   7.053 -0.7697  0.5570 -0.0838
  271SOL     OW 4217   0.952   2.256   8.486  0.6478  0.0527 -0.0043
  271SOL    HW1 4218   0.971   2.174   8.533  1.6963  2.2720  3.6702
  271SOL    HW2 4219   1.017   2.318   8.519 -0.7784  2.6709 -1.9230
  272SOL     OW 4220   8.997   7.609   3.432  0.5718 -0.2401 -0.3805
  272SOL    HW1 4221   9.003   7.695   3.391 -1.5622  1.2049  2.1601
  272SOL    HW2 4222   8.922   7.568   3.390 -0.6341  0.6065  0.9109
  273SOL     OW 4223   7.586   8.950   5.592 -0.7717  0.8085 -0.4724
  273SOL    HW1 4224   7.586   8.901   5.510  3.0402 -1.2611  0.6257
  273SOL    HW2 4225   7.655   9.015   5.581 -1.3949  1.6388  0.4842
  274SOL     OW 4226   2.262   1.714   7.465  0.4326  0.6077 -0.3210
  274SOL    HW1 4227   2.278   1.795   7.417  1.7715  0.8997  0.5902
  274SOL    HW2 4228   2.171   1.692   7.447  1.0156  0.4900 -3.3597
  275SOL     OW 4229   7.979   7.083   9.622  0.2917  0.0669  0.5437
  275SOL    HW1 4230   7.979   7.097   9.527  1.7599  0.7421  0.6426
  275SOL    HW2 4231   7.902   7.131   9.653  0.8003  1.2853 -0.0867
  276SOL     OW 4232   5.503   6.960   8.000 -0.5680  0.1097  0.3283
  276SOL    HW1 4233   5.477   6.985   8.089  0.5209 -1.1224  0.9954
  276SOL    HW2 4234   5.549   7.037   7.967  0.4697 -0.0159  1.4289
  277SOL     OW 4235   3.773   1.821   0.248  0.1014  0.2297 -0.2079
  277SOL    HW1 4236   3.688   1.783   0.226  0.2683  0.4257 -1.2370
  277SOL    HW2 4237   3.788   1.886   0.179  0.8624  0.5339  0.2444
  278SOL     OW 4238   2.316   3.558   2.412  0.0516 -0.2736  0.5617
  278SOL    HW1 4239   2.357   3.567   2.326 -0.2180 -1.2210  0.3323
  278SOL    HW2 4240   2.336   3.469   2.440 -1.3355 -0.5449  0.7108
  279SOL     OW 4241   4.190  10.637   3.224 -0.6857 -0.1583 -0.2612
  279SOL    HW1 4242   4.210  10.720   3.267  0.9778 -1.4376  1.5076
  279SOL    HW2 4243   4.126  10.596   3.282 -0.7782 -0.5423 -0.6365
  280SOL     OW 4244   9.424   3.835   3.286  0.4503  0.3766 -0.4020
  280SOL    HW1 4245   9.416   3.871   3.374  0.8626 -0.6193  0.0575
  280SOL    HW2 4246   9.490   3.766   3.294 -1.3382 -1.4588 -0.9051
  281SOL     OW 4247   0.884   7.539   1.499 -0.2421 -0.3575  0.3331
  281SOL    HW1 4248   0.850   7.475   1.437 -1.8313  1.2707 -0.5291
  281SOL    HW2 4249   0.978   7.543   1.481 -0.2219 -1.9797  0.0043
  282SOL     OW 4250   7.542   8.452   5.168 -0.2299 -0.0671  0.7586
  282SOL    HW1 4251   7.492   8.505   5.106  0.1677  0.7285  1.1023
  282SOL    HW2 4252   7.490   8.456   5.249  0.8048  1.5104  1.3842
  283SOL     OW 4253   2.225   8.936   7.807 -0.4430  0.6925  0.8425
  283SOL    HW1 4254   2.279   8.887   7.869  2.5013  0.3761 -1.7898
  283SOL    HW2 4255   2.148   8.882   7.793  0.1929 -0.5603  2.0769
  284SOL     OW 4256   8.205   9.891   6.465  0.7994 -0.6774  0.6558
  284SOL    HW1 4257   8.156   9.899   6.547  0.0355  0.4921  0.1100
  284SOL    HW2 4258   8.297   9.887   6.491  0.5243 -0.9199  1.5915
  285SOL     OW 4259   1.592   1.179   8.903  0.0715 -0.0760 -0.1069
  285SOL    HW1 4260   1.646   1.182   8.981 -0.9266 -1.2723  0.6626
  285SOL    HW2 4261   1.502   1.178   8.936 -0.3607 -0.6480 -1.2579
  286SOL     OW 4262   2.635   3.771   1.679  0.3872 -0.4305  0.2073
  286SOL    HW1 4263   2.661   3.702   1.740  1.5732  1.0569  1.4112
  286SOL    HW2 4264   2.548   3.798   1.711 -1.2876 -3.0902 -1.8232
  287SOL     OW 4265   8.444   5.027   5.025  0.0053 -0.3171  0.0900
  287SOL    HW1 4266   8.438   5.076   4.943 -0.1211 -0.2102  0.1615
  287SOL    HW2 4267   8.433   5.093   5.094 -0.9215 -0.5498  0.1740
  288SOL     OW 4268   5.015   6.960   9.490  0.2015  0.4951 -0.5020
  288SOL    HW1 4269   5.025   6.866   9.507  0.5291  0.5420 -0.4268
  288SOL    HW2 4270   4.958   6.964   9.413 -1.9063  0.3147  1.0262
  289SOL     OW 4271   6.084   8.074   8.373  0.3930  0.1937 -0.4717
  289SOL    HW1 4272   6.128   8.070   8.288 -0.3778  0.8994 -0.9118
  289SOL    HW2 4273   6.150   8.110   8.432  0.4834  1.0295 -1.0761
  290SOL     OW 4274   2.183   9.933  10.419 -0.0253  0.4205  0.3455
  290SOL    HW1 4275   2.254   9.988  10.450 -0.5210  0.8855  0.6761
  290SOL    HW2 4276   2.131   9.914  10.497 -1.4671  1.8819 -0.2333
  291SOL     OW 4277   2.059   9.316  10.480 -0.2031  0.4393 -0.0790
  291SOL    HW1 4278   2.024   9.401  10.507 -0.2526  0.6805 -0.8776
  291SOL    HW2 4279   1.981   9.264  10.459 -0.2330 -0.2433  1.6460
  292SOL     OW 4280   2.272   9.000   2.196 -0.1374  0.0773  0.5129
  292SOL    HW1 4281   2.269   9.020   2.290 -1.5313  1.0920  0.2569
  292SOL    HW2 4282   2.185   9.021   2.164 -0.4424 -2.6424 -0.5453
  293SOL     OW 4283   9.118   1.005   8.545  0.3800 -0.0378  0.0750
  293SOL    HW1 4284   9.176   0.945   8.592  1.6432  1.8671  1.0346
  293SOL    HW2 4285   9.139   0.991   8.453  0.6947 -1.0336  0.2881
  294SOL     OW 4286   9.898   6.900   3.026 -0.4042 -0.3654 -0.3464
  294SOL    HW1 4287   9.829   6.940   3.080 -0.1793 -0.3174 -0.0948
  294SOL    HW2 4288   9.931   6.828   3.080  0.3208  0.1367 -0.1228
  295SOL     OW 4289   0.719   7.761   1.134  0.2672 -0.8567  0.3978
  295SOL    HW1 4290   0.681   7.846   1.112  1.5740 -0.1822  0.7029
  295SOL    HW2 4291   0.668   7.731   1.210  0.2366 -0.0408  0.7033
  296SOL     OW 4292   4.245   7.330   6.549  0.3073 -0.0432 -0.1327
  296SOL    HW1 4293   4.245   7.258   6.613  1.7953 -1.1168 -1.2946
  296SOL    HW2 4294   4.245   7.409   6.601  1.4563 -0.9070  1.2152
  297SOL     OW 4295   0.528   1.509   3.380  0.3528 -0.2597 -0.2847
  297SOL    HW1 4296   0.607   1.457   3.369 -1.0920 -2.0208 -2.6623
  297SOL    HW2 4297   0.464   1.469   3.321 -1.9539  1.8673  0.6898
  298SOL     OW 4298  10.603  10.587   8.693  0.5012  0.0201 -0.1835
  298SOL    HW1 4299  10.563  10.656   8.640  0.2135  0.7356  0.9653
  298SOL    HW2 4300  10.696  10.609   8.695  0.8436 -1.0943 -2.0129
  299SOL     OW 4301   6.943   1.576   1.841  0.2961  0.3360 -0.2268
  299SOL    HW1 4302   6.934   1.671   1.828  1.8839  0.4815 -0.3668
  299SOL    HW2 4303   6.859   1.549   1.877  0.0334  1.9078  0.3903
  300SOL     OW 4304   7.844   8.315   3.788  0.3919  0.1509  0.6595
  300SOL    HW1 4305   7.880   8.310   3.877  0.2987  1.6899  0.8087
  300SOL    HW2 4306   7.873   8.400   3.756  2.1611 -1.2518 -1.5773
  301SOL     OW 4307   5.518   4.197   7.294  0.1139  0.0911 -0.3158
  301SOL    HW1 4308   5.573   4.129   7.333 -1.0347 -0.1003  1.0505
  301SOL    HW2 4309   5.510   4.263   7.363 -1.1901  0.1993 -0.5482
  302SOL     OW 4310   2.875   5.420   0.146  0.0131 -0.0510 -0.1305
  302SOL    HW1 4311   2.961   5.462   0.136  1.1006 -2.0691  0.4375
  302SOL    HW2 4312   2.835   5.427   0.060 -0.7580  3.9740  0.4231
  303SOL     OW 4313   0.339   9.000   9.840  0.2278  0.8260 -0.0531
  303SOL    HW1 4314   0.310   8.966   9.755  0.6529  1.6073 -0.5194
  303SOL    HW2 4315   0.407   8.938   9.868 -1.2281 -0.5010  0.6225
  304SOL     OW 4316   0.572   4.449   7.255 -0.3725  0.4651 -0.1024
  304SOL    HW1 4317   0.625   4.480   7.181 -2.1077 -0.6649 -1.8707
  304SOL    HW2 4318   0.635   4.404   7.312  0.8410  0.5106 -1.3598
  305SOL     OW 4319   3.475   7.462   0.491 -0.2835  0.2067  0.3442
  305SOL    HW1 4320   3.525   7.475   0.411  0.6388  0.3713  0.9469
  305SOL    HW2 4321   3.441   7.549   0.512  0.4440  0.3951  0.7659
  306SOL     OW 4322   4.774   7.562   3.256  0.9973 -0.0874  0.7589
  306SOL    HW1 4323   4.763   7.484   3.311 -0.1384  0.7361  1.7175
  306SOL    HW2 4324   4.802   7.631   3.316 -2.1295  1.3164  0.6915
  307SOL     OW 4325  10.491   7.971   8.219  0.5827  0.1274  0.1029
  307SOL    HW1 4326  10.495   7.931   8.306  0.2649  0.0319  0.0742
  307SOL    HW2 4327  10.537   7.909   8.162  1.4210  0.5379  0.3308
  308SOL     OW 4328   9.924   0.416   0.637 -0.2704 -0.5859  0.1651
  308SOL    HW1 4329   9.936   0.379   0.725  0.0696  0.1991  0.4527
  308SOL    HW2 4330   9.854   0.480   0.647  1.2326  1.0798  0.3485
  309SOL     OW 4331   1.554   6.691   1.231  0.3749  0.3181 -0.2938
  309SOL    HW1 4332   1.645   6.693   1.260  0.0781 -0.1808  0.6800
  309SOL    HW2 4333   1.530   6.784   1.223  1.7952  0.5169 -3.2615
  310SOL     OW 4334   4.192   2.203   5.148  0.1907  0.3742 -0.5050
  310SOL    HW1 4335   4.169   2.116   5.113 -0.5488  1.4464 -2.7863
  310SOL    HW2 4336   4.268   2.187   5.204 -0.7800 -1.9487  0.2166
  311SOL     OW 4337   6.699  10.383   0.219  0.1856 -0.5686  0.8586
  311SOL    HW1 4338   6.690  10.350   0.308  0.0490 -1.1883  0.6215
  311SOL    HW2 4339   6.640  10.457   0.214 -1.1349 -1.6113  0.7630
  312SOL     OW 4340   8.192   9.083   9.592  1.0517 -0.2546 -0.1568
  312SOL    HW1 4341   8.200   8.990   9.613  2.5805  0.0379  0.5806
  312SOL    HW2 4342   8.228   9.091   9.504 -1.4936 -0.7699 -1.3028
  313SOL     OW 4343  10.217   1.815   1.736  0.1550  0.4968  0.2811
  313SOL    HW1 4344  10.192   1.803   1.644  0.3050  0.3373  0.2619
  313SOL    HW2 4345  10.257   1.732   1.762 -1.3349 -0.0180  0.9672
  314SOL     OW 4346   7.924   7.961   2.649 -0.6379  0.3781 -0.2459
  314SOL    HW1 4347   7.887   7.928   2.730 -0.8761 -0.8659 -0.8603
  314SOL    HW2 4348   7.981   7.891   2.618  1.6948  1.9502  0.3018
  315SOL     OW 4349   9.459   9.709   6.379  0.1091 -0.3006 -0.5114
  315SOL    HW1 4350   9.524   9.776   6.401  1.9736 -1.8912 -1.0355
  315SOL    HW2 4351   9.398   9.753   6.320  2.2300  0.5302 -2.1591
  316SOL     OW 4352   1.849   9.113  10.519  0.2031  0.2810  0.2589
  316SOL    HW1 4353   1.820   9.022  10.514 -2.5860  0.9197  3.4019
  316SOL    HW2 4354   1.794   9.159  10.455  1.7444 -0.1933 -1.4702
  317SOL     OW 4355  10.862   8.060   5.890 -0.3125 -0.2415 -0.0969
  317SOL    HW1 4356  10.888   7.982   5.938 -0.0272  0.2129  0.4987
  317SOL    HW2 4357  10.943   8.109   5.876 -0.4492 -0.1778 -0.7032
  318SOL     OW 4358  10.865  10.908   9.594 -0.3157 -0.0156 -0.0666
  318SOL    HW1 4359  10.888  11.001   9.587 -0.3261  0.2156  2.5203
  318SOL    HW2 4360  10.769  10.907   9.589 -0.4209  0.3134  1.6378
  319SOL     OW 4361  10.359  10.477   6.968  0.4099 -0.3484 -0.2529
  319SOL    HW1 4362  10.305  10.528   7.028  1.6946  1.0310 -0.2456
  319SOL    HW2 4363  10.434  10.533   6.949  2.6145 -2.8009  0.8972
  320SOL     OW 4364   0.336   3.674   9.609 -0.5324  0.1276 -0.5308
  320SOL    HW1 4365   0.326   3.763   9.643 -1.6061 -0.0550 -0.3577
  320SOL    HW2 4366   0.339   3.619   9.687 -1.9826 -0.1954 -0.7035
  321SOL     OW 4367   3.396   5.925   7.380 -0.2591 -0.0534 -0.1602
  321SOL    HW1 4368   3.348   5.846   7.357 -1.1816  0.8738 -1.4765
  321SOL    HW2 4369   3.384   5.984   7.305  0.5786  1.2631  0.7062
  322SOL     OW 4370  10.164   4.820   0.597 -0.2667  0.2104  0.4599
  322SOL    HW1 4371  10.186   4.749   0.537 -0.7959  0.0177  0.4874
  322SOL    HW2 4372  10.248   4.855   0.626  0.0153 -1.2597  1.4501
  323SOL     OW 4373   8.506   0.131   2.746 -0.2705  0.0590 -0.0082
  323SOL    HW1 4374   8.482   0.197   2.811  0.9380  0.6999 -0.2020
  323SOL    HW2 4375   8.592   0.099   2.774  0.4402  0.6145 -1.4856
  324SOL     OW 4376  10.256   0.633   6.853 -0.4377 -0.0815 -0.0397
  324SOL    HW1 4377  10.260   0.558   6.912 -1.6048 -1.7586 -2.0098
  324SOL    HW2 4378  10.306   0.605   6.776  2.0206  2.4864  0.5427
  325SOL     OW 4379   0.018  10.229   6.938 -0.3134  0.1590 -0.4155
  325SOL    HW1 4380  -0.019  10.317   6.925 -0.2991  0.4509  1.3690
  325SOL    HW2 4381  -0.053  10.169   6.915 -1.2114  0.6849  0.9568
  326SOL     OW 4382   5.967   3.493   7.944 -0.1773 -0.1738 -0.1453
  326SOL    HW1 4383   5.885   3.448   7.924 -1.4388  2.0361 -0.1930
  326SOL    HW2 4384   5.965   3.506   8.039  1.3776 -2.3864  0.2337
  327SOL     OW 4385   0.287   4.521   6.056  0.2265 -0.3878 -0.0715
  327SOL    HW1 4386   0.302   4.439   6.009  1.3928 -0.4505  0.3906
  327SOL    HW2 4387   0.263   4.493   6.145 -1.8836 -0.2686 -0.5680
  328SOL     OW 4388   2.325   7.564   3.814 -0.5546  0.3290  0.3973
  328SOL    HW1 4389   2.321   7.659   3.800 -0.4452  0.2382 -0.2508
  328SOL    HW2 4390   2.373   7.530   3.739  1.2077 -0.0276  1.6451
  329SOL     OW 4391   0.482  10.584   7.731  0.2982 -0.2114  0.3345
  329SOL    HW1 4392   0.577  10.573   7.727  0.4190  0.2232  1.7589
  329SOL    HW2 4393   0.466  10.620   7.818 -1.2992 -1.4636  0.5749
  330SOL     OW 4394   0.935   3.186   0.847 -0.1318 -0.0585  0.0108
  330SOL    HW1 4395   0.936   3.239   0.768 -1.5170 -0.6675 -0.4208
  330SOL    HW2 4396   0.850   3.203   0.887 -0.3854 -1.5360  0.1480
  331SOL     OW 4397   7.092   3.620   9.309 -0.3985  0.4722 -0.1421
  331SOL    HW1 4398   7.068   3.658   9.393 -0.9218  0.1205 -0.1310
  331SOL    HW2 4399   7.127   3.534   9.330 -0.1284  0.5566 -0.2473
  332SOL     OW 4400   4.148   9.221   5.832 -0.9283 -0.1121  0.0049
  332SOL    HW1 4401   4.203   9.266   5.768 -0.5507 -1.9782 -1.0292
  332SOL    HW2 4402   4.152   9.275   5.911 -0.0449  1.3378 -1.0276
  333SOL     OW 4403   2.361   2.395  10.527  0.3284 -0.0073 -0.3845
  333SOL    HW1 4404   2.327   2.408  10.616  0.6961 -1.1404 -0.0710
  333SOL    HW2 4405   2.454   2.376  10.540 -0.4657 -4.5534 -0.6749
  334SOL     OW 4406   5.060   8.397   1.326 -0.0015 -0.1026 -0.0343
  334SOL    HW1 4407   5.048   8.305   1.305 -0.7867  0.1562 -0.7832
  334SOL    HW2 4408   5.117   8.430   1.256  0.2063 -0.0003  0.1821
  335SOL     OW 4409   6.456  10.901  10.953  0.2358  0.5893  0.0573
  335SOL    HW1 4410   6.467  10.993  10.931 -1.0175  0.8979  0.6900
  335SOL    HW2 4411   6.435  10.901  11.046  0.7964 -0.3767  0.1869
  336SOL     OW 4412   0.112   8.186  10.049  0.5972 -0.1004 -0.1294
  336SOL    HW1 4413   0.063   8.143   9.979  0.2509  1.0308 -0.6072
  336SOL    HW2 4414   0.062   8.266  10.067  1.2180  0.0997  0.7387
  337SOL     OW 4415  10.721   2.847   4.920 -0.4277 -0.0427 -0.0412
  337SOL    HW1 4416  10.639   2.798   4.924  0.0982 -0.9057  0.2996
  337SOL    HW2 4417  10.730   2.871   4.828 -1.4459  0.7280  0.0457
  338SOL     OW 4418   8.571   0.524   0.304  0.3759 -0.2334  0.1723
  338SOL    HW1 4419   8.608   0.449   0.258  0.8587 -0.3138  0.6903
  338SOL    HW2 4420   8.486   0.539   0.262  0.4662 -0.8067 -0.2084
  339SOL     OW 4421  10.958   0.444   0.130  0.8071  0.3941 -0.4662
  339SOL    HW1 4422  10.998   0.458   0.044  0.1867  1.9100 -0.5278
  339SOL    HW2 4423  10.979   0.353   0.152  1.8600  0.3129 -1.7500
  340SOL     OW 4424   0.491   5.056   7.987 -1.0642  0.1450  0.0674
  340SOL    HW1 4425   0.494   5.056   8.083 -0.3729  1.0588  0.0523
  340SOL    HW2 4426   0.401   5.077   7.966 -1.0674  0.6189  0.5245
  341SOL     OW 4427   6.394   2.799   0.084  0.2689  0.1119  0.1601
  341SOL    HW1 4428   6.468   2.742   0.066 -0.0021 -0.4859  0.8819
  341SOL    HW2 4429   6.413   2.880   0.036  1.1054 -0.2423 -0.1152
  342SOL     OW 4430   5.586   8.748   0.333  0.6008 -0.6007 -0.3080
  342SOL    HW1 4431   5.518   8.705   0.280 -0.1714  1.2796 -0.9060
  342SOL    HW2 4432   5.564   8.726   0.423 -0.7552 -0.1206 -0.5053
  343SOL     OW 4433   7.115   7.611   5.340 -0.7628  0.6742 -0.1514
  343SOL    HW1 4434   7.042   7.667   5.315 -1.2118  0.2731  0.2641
  343SOL    HW2 4435   7.089   7.524   5.312 -1.3304  0.1842  1.8051
  344SOL     OW 4436   9.370   7.884   1.495 -0.1283 -0.1238  0.3955
  344SOL    HW1 4437   9.343   7.951   1.558 -0.5985 -0.3858  0.4715
  344SOL    HW2 4438   9.432   7.930   1.437  0.9315 -0.0832  1.5311
  345SOL     OW 4439   2.832   5.012   9.714 -0.4042  0.1125 -0.0813
  345SOL    HW1 4440   2.847   4.940   9.653 -2.1993  0.6321 -1.1807
  345SOL    HW2 4441   2.821   5.089   9.658 -2.4636  0.5325  0.8494
  346SOL     OW 4442   1.966   1.074   3.503  0.1883  0.2072 -0.2205
  346SOL    HW1 4443   1.924   0.989   3.512 -0.4158  0.7609  2.5028
  346SOL    HW2 4444   2.060   1.055   3.502  0.0874 -0.4305  1.3936
  347SOL     OW 4445   9.704   8.879  10.615  0.2551  0.0240 -0.0394
  347SOL    HW1 4446   9.743   8.862  10.529  1.7583  0.2975  0.5791
  347SOL    HW2 4447   9.711   8.974  10.626  1.4621 -0.1721  1.0239
  348SOL     OW 4448   2.325   1.521   6.544 -0.1622 -0.1950 -0.2610
  348SOL    HW1 4449   2.418   1.540   6.552 -0.1776 -0.5288  0.8365
  348SOL    HW2 4450   2.285   1.565   6.619 -0.7476 -0.9222 -0.1407
  349SOL     OW 4451   4.401  10.453   4.719  0.1404 -0.0675 -0.0989
  349SOL    HW1 4452   4.343  10.492   4.785 -0.2773 -1.6842  0.5013
  349SOL    HW2 4453   4.434  10.373   4.760  2.1215  0.3745 -0.7805
  350SOL     OW 4454   8.635   2.537   0.863  0.3790 -1.3421 -0.1996
  350SOL    HW1 4455   8.577   2.586   0.921 -0.4328 -1.3199 -1.0202
  350SOL    HW2 4456   8.599   2.448   0.862  1.1495 -1.6671  0.3478
  351SOL     OW 4457   6.121   6.261   9.064 -0.0633  0.2004 -0.4157
  351SOL    HW1 4458   6.103   6.261   8.970 -1.9823 -0.1200 -0.0715
  351SOL    HW2 4459   6.100   6.350   9.092 -3.7905 -0.8675  0.4439
  352SOL     OW 4460   3.682   0.122   1.116  0.2660 -0.1343 -0.2830
  352SOL    HW1 4461   3.704   0.034   1.148  0.2047  0.0268  0.2054
  352SOL    HW2 4462   3.766   0.165   1.105  0.2809 -0.1459 -0.2138
  353SOL     OW 4463   4.648   8.813   2.527 -0.0966  0.3000 -0.1180
  353SOL    HW1 4464   4.636   8.763   2.608  2.3464 -2.2554 -1.2576
  353SOL    HW2 4465   4.729   8.862   2.540  1.2870 -1.5157 -1.6478
  354SOL     OW 4466   8.264   7.449  10.903 -0.3734  0.0310  0.6381
  354SOL    HW1 4467   8.358   7.452  10.922 -0.2965  0.3330  0.2167
  354SOL    HW2 4468   8.259   7.418  10.812 -0.6743  0.0853  0.6363
  355SOL     OW 4469   9.861   5.908   0.264 -0.3672  0.2093 -0.0915
  355SOL    HW1 4470   9.768   5.924   0.251 -0.4747 -0.7079 -0.5107
  355SOL    HW2 4471   9.865   5.828   0.317  0.1683  0.4983  0.3086
  356SOL     OW 4472   0.254   9.152   1.171 -0.5023 -0.2098  0.2142
  356SOL    HW1 4473   0.285   9.156   1.080  0.5663 -1.8008  0.4754
  356SOL    HW2 4474   0.326   9.188   1.222  0.0477 -1.8647  0.6423
  357SOL     OW 4475  10.126   8.411   1.358  0.3160 -0.0317 -0.1305
  357SOL    HW1 4476  10.122   8.476   1.288  1.3324 -1.4634 -1.5696
  357SOL    HW2 4477  10.195   8.442   1.416  0.0068  0.7577 -0.1784
  358SOL     OW 4478   2.323   9.163   5.634  0.0776 -0.5262 -0.0732
  358SOL    HW1 4479   2.247   9.118   5.672  0.9791 -1.6467  0.4157
  358SOL    HW2 4480   2.332   9.242   5.687  2.0991 -2.6943  2.9455
  359SOL     OW 4481   7.225   3.806   9.174  0.3634 -0.1187 -0.6765
  359SOL    HW1 4482   7.182   3.821   9.090 -2.6924  1.8433  1.1018
  359SOL    HW2 4483   7.189   3.723   9.205  0.5105 -0.2164 -0.7734
  360SOL     OW 4484   2.079   7.559   7.139 -0.0719 -0.3825  0.2424
  360SOL    HW1 4485   2.035   7.474   7.137  0.1818 -0.5664  1.8599
  360SOL    HW2 4486   2.117   7.568   7.051 -1.2156 -1.3363 -0.3685
  361SOL     OW 4487   8.586   4.772   5.948  0.3202 -0.0117  0.5480
  361SOL    HW1 4488   8.674   4.800   5.974  0.8156  0.5606 -1.5955
  361SOL    HW2 4489   8.541   4.854   5.926  0.1023 -0.4709 -0.7813
  362SOL     OW 4490   5.333   8.938  10.288 -0.1193 -0.0717  0.4325
  362SOL    HW1 4491   5.239   8.953  10.299 -0.5290 -1.6348 -0.6677
  362SOL    HW2 4492   5.340   8.891  10.205  1.4885 -1.4631  1.3146
  363SOL     OW 4493   9.505   9.254   1.536 -0.4585  0.3982 -0.1194
  363SOL    HW1 4494   9.477   9.343   1.517  0.5742  0.4422 -1.5425
  363SOL    HW2 4495   9.593   9.247   1.497  0.4201 -0.5442  1.9268
  364SOL     OW 4496   1.459   3.280  10.871  0.0911 -0.4864  0.2066
  364SOL    HW1 4497   1.381   3.296  10.818  0.8338  0.0337 -0.7384
  364SOL    HW2 4498   1.488   3.193  10.845  0.3547 -0.3040 -0.0998
  365SOL     OW 4499   4.767   5.284   1.987  0.3220  0.4866 -0.0162
  365SOL    HW1 4500   4.823   5.315   1.916  0.6121 -0.3145 -0.1470
  365SOL    HW2 4501   4.828   5.248   2.052 -0.0885 -1.9115 -0.9000
  366SOL     OW 4502  10.968   9.957   5.651 -0.2220  0.2202  0.2823
  366SOL    HW1 4503  10.880   9.991   5.667 -0.1464  0.7796 -0.4979
  366SOL    HW2 4504  10.985   9.900   5.726 -2.8362 -3.1184 -1.5301
  367SOL     OW 4505   5.690  10.497   3.884 -0.0079 -0.6641  0.1323
  367SOL    HW1 4506   5.673  10.533   3.971  0.9809  0.4710 -0.1220
  367SOL    HW2 4507   5.677  10.403   3.894 -2.5706 -0.2974  0.8543
  368SOL     OW 4508   4.677   9.380   1.422  0.1895  0.2552  0.0554
  368SOL    HW1 4509   4.639   9.292   1.423  1.1800 -0.1914 -0.5669
  368SOL    HW2 4510   4.632   9.424   1.351 -0.5688  0.3720  0.6037
  369SOL     OW 4511   1.539   5.984   8.358 -0.3828  0.6575 -0.0780
  369SOL    HW1 4512   1.493   5.933   8.425 -2.3587  0.6429 -1.4160
  369SOL    HW2 4513   1.524   6.076   8.383  0.6511  0.6372  0.6521
  370SOL     OW 4514   4.106   7.642  10.122  0.3943 -0.0172  0.1000
  370SOL    HW1 4515   4.025   7.629  10.073 -0.5346 -1.7743  2.0480
  370SOL    HW2 4516   4.161   7.568  10.098 -0.6243 -1.6968  2.7424
  371SOL     OW 4517   6.383   0.636   9.580 -0.0622 -0.3813 -0.1725
  371SOL    HW1 4518   6.462   0.686   9.599 -1.9682  2.7293  0.0022
  371SOL    HW2 4519   6.350   0.610   9.666 -0.0168 -0.4120 -0.1644
  372SOL     OW 4520   8.667   0.599   3.910  0.2415  0.2620 -0.0107
  372SOL    HW1 4521   8.722   0.658   3.858  0.1256 -0.8991 -1.4772
  372SOL    HW2 4522   8.690   0.619   4.001  3.9075 -0.9559 -0.5895
  373SOL     OW 4523   4.465   4.939   9.030  0.7916  0.3035  0.0507
  373SOL    HW1 4524   4.488   4.878   8.960  0.5946 -0.3291  0.5354
  373SOL    HW2 4525   4.384   4.980   9.001  1.3957  0.9947 -0.6855
  374SOL     OW 4526   4.987   2.111   9.236  0.2925 -0.6263  0.1277
  374SOL    HW1 4527   4.899   2.142   9.216  1.3333  1.9272 -0.6707
  374SOL    HW2 4528   4.988   2.021   9.202 -1.6737 -0.3551 -0.7457
  375SOL     OW 4529   5.864   5.437   7.905  0.1097  0.3842  0.0098
  375SOL    HW1 4530   5.871   5.342   7.892  0.7963  0.8985 -4.1079
  375SOL    HW2 4531   5.953   5.466   7.923 -0.0655  0.3108  1.0440
  376SOL     OW 4532   8.302   0.789   4.482 -0.4627 -0.1098  0.2630
  376SOL    HW1 4533   8.337   0.799   4.393  0.2547  0.9501  0.6496
  376SOL    HW2 4534   8.333   0.703   4.510 -1.6277 -0.9399 -0.9130
  377SOL     OW 4535   7.605   8.091   0.789  0.0096  0.5083 -0.0426
  377SOL    HW1 4536   7.670   8.154   0.818  0.5036  1.6115 -3.3610
  377SOL    HW2 4537   7.656   8.016   0.758 -0.3796  0.5826 -0.8708
  378SOL     OW 4538  10.616  10.547   0.565  0.1319  0.0500  0.5964
  378SOL    HW1 4539  10.525  10.525   0.585 -0.0793 -0.0827 -0.4680
  378SOL    HW2 4540  10.664  10.465   0.574  0.1140  0.0831  0.9851
  379SOL     OW 4541   8.487   4.858  10.653  0.0387  0.6104 -0.0687
  379SOL    HW1 4542   8.475   4.924  10.585 -0.7527 -0.6010 -1.1407
  379SOL    HW2 4543   8.401   4.817  10.663  0.1696  0.6908  1.5908
  380SOL     OW 4544  10.510   3.130   8.585  0.6234 -0.2585 -0.2424
  380SOL    HW1 4545  10.415   3.137   8.598  0.5525 -0.4119 -0.6823
  380SOL    HW2 4546  10.545   3.119   8.674  0.2230 -0.2929 -0.0863
  381SOL     OW 4547   9.986   4.643   9.255 -0.1268 -0.0737 -0.0714
  381SOL    HW1 4548   9.934   4.693   9.318  0.2773 -2.0787  1.9073
  381SOL    HW2 4549   9.933   4.567   9.233  1.0661 -1.0740  0.3969
  382SOL     OW 4550   3.428   2.858   2.048 -0.5510 -0.5170  0.4239
  382SOL    HW1 4551   3.485   2.781   2.052  1.4591  0.9690  1.2955
  382SOL    HW2 4552   3.488   2.932   2.057 -2.4007  1.1810 -0.8621
  383SOL     OW 4553   7.910   3.496   5.161  0.2773 -0.0167 -0.5234
  383SOL    HW1 4554   7.844   3.430   5.137  0.8373 -1.5028  1.8261
  383SOL    HW2 4555   7.866   3.580   5.146 -1.8097 -0.9708  0.0420
  384SOL     OW 4556   1.196   7.082   5.674  0.1084 -0.1385 -0.5543
  384SOL    HW1 4557   1.158   7.124   5.750 -1.2447  0.3527 -1.4859
  384SOL    HW2 4558   1.287   7.113   5.672  0.1705 -0.2206  0.8857
  385SOL     OW 4559   5.238   5.423   6.058  0.2346 -0.5536  0.0517
  385SOL    HW1 4560   5.272   5.359   6.121 -2.5602 -2.1900 -0.0194
  385SOL    HW2 4561   5.192   5.487   6.112  0.8526  0.0155 -0.0841
  386SOL     OW 4562   0.968   4.984   0.398  0.4502 -0.2842 -0.1045
  386SOL    HW1 4563   0.891   4.991   0.341 -1.0823 -1.2569  1.8148
  386SOL    HW2 4564   0.988   5.074   0.422  0.6493  0.0775 -1.5344
  387SOL     OW 4565   8.953  10.025   2.453  0.3470  0.0066  0.2981
  387SOL    HW1 4566   8.860  10.028   2.479  0.2965 -0.0503  0.1256
  387SOL    HW2 4567   8.962  10.096   2.389  0.2323 -0.5040 -0.2913
  388SOL     OW 4568   5.824  10.648  10.466 -0.0383 -0.3827 -0.3291
  388SOL    HW1 4569   5.853  10.583  10.531  0.4577  0.9773  0.8480
  388SOL    HW2 4570   5.729  10.639  10.463  0.1007 -1.8423 -0.9300
  389SOL     OW 4571   2.861   6.475   8.922  0.5677  0.7538  0.3646
  389SOL    HW1 4572   2.923   6.478   8.849  1.6208  1.8407  1.2852
  389SOL    HW2 4573   2.776   6.463   8.881  1.4782 -1.7892 -0.8700
  390SOL     OW 4574   8.099   2.498   8.192 -0.0939  0.8551  0.2797
  390SOL    HW1 4575   8.006   2.476   8.200  0.0600  0.3498  0.6890
  390SOL    HW2 4576   8.110   2.579   8.241 -0.3569  1.0192  0.0674
  391SOL     OW 4577  10.082   9.790   1.511 -0.0983 -0.2359  0.1240
  391SOL    HW1 4578  10.090   9.746   1.427 -1.1874 -0.0203 -0.0921
  391SOL    HW2 4579  10.050   9.878   1.490  0.5245  0.1356  0.6832
  392SOL     OW 4580   5.142   4.749   1.326 -0.5524 -0.1155  0.4512
  392SOL    HW1 4581   5.162   4.806   1.251 -1.1534  0.3768  0.6659
  392SOL    HW2 4582   5.048   4.757   1.338 -0.7874 -1.8881 -0.0949
  393SOL     OW 4583   1.334  10.654   7.884  0.0731  0.5396 -0.5362
  393SOL    HW1 4584   1.414  10.693   7.850  0.3817 -0.1273 -0.5747
  393SOL    HW2 4585   1.303  10.597   7.813 -0.8736  1.4144 -0.8400
  394SOL     OW 4586   9.648   6.986   8.975 -0.2660  0.6650 -0.1235
  394SOL    HW1 4587   9.736   6.966   8.942 -0.9711  0.1826 -1.7123
  394SOL    HW2 4588   9.618   6.903   9.013 -0.5362  0.5032 -0.6976
  395SOL     OW 4589   8.853  10.824  10.656  0.6761  0.1047 -0.0855
  395SOL    HW1 4590   8.842  10.737  10.618 -0.3718  0.5120 -0.7045
  395SOL    HW2 4591   8.919  10.811  10.725  1.4989 -0.9080 -1.0507
  396SOL     OW 4592   0.707   3.460  10.745  0.4893  0.3576 -0.1602
  396SOL    HW1 4593   0.672   3.493  10.662  3.1977  0.0887 -1.4427
  396SOL    HW2 4594   0.733   3.370  10.726 -1.9836 -0.8848  1.9278
  397SOL     OW 4595   3.167   6.256   7.615  0.5362 -0.0146  0.3142
  397SOL    HW1 4596   3.199   6.171   7.585 -0.3255  0.1786 -1.1974
  397SOL    HW2 4597   3.226   6.319   7.574  0.5484  0.1702  0.6157
  398SOL     OW 4598   6.668   8.933   3.073  0.0042 -0.8150 -0.8599
  398SOL    HW1 4599   6.638   8.934   3.164  2.6865 -0.3244  0.0632
  398SOL    HW2 4600   6.726   8.856   3.067  0.8152 -0.1537 -1.8148
  399SOL     OW 4601   5.176   9.029   5.059  0.2547 -0.3354 -0.4699
  399SOL    HW1 4602   5.165   9.039   5.153 -0.3789 -0.5938 -0.5167
  399SOL    HW2 4603   5.218   8.943   5.049 -0.7156 -0.8075 -0.4914
  400SOL     OW 4604   5.845   3.724   4.054  0.0035  0.3395  0.2071
  400SOL    HW1 4605   5.773   3.660   4.052 -0.0780  0.3970  1.0295
  400SOL    HW2 4606   5.924   3.670   4.058 -0.0028  0.2766 -0.5990
  401SOL     OW 4607   8.046   3.028   2.205  0.5259  0.1978 -0.2469
  401SOL    HW1 4608   8.031   2.971   2.130  1.8472 -0.5232  0.0278
  401SOL    HW2 4609   8.111   2.982   2.258 -0.2187  0.7939  1.2324
  402SOL     OW 4610  10.274   8.914   8.836 -0.0966  0.1051  0.1166
  402SOL    HW1 4611  10.267   9.001   8.796  0.9065 -0.2017 -0.7529
  402SOL    HW2 4612  10.350   8.920   8.894 -0.1842 -0.1140  0.2526
  403SOL     OW 4613   4.504   5.358   0.640 -0.2106 -0.2236  0.1966
  403SOL    HW1 4614   4.583   5.329   0.595 -0.7549 -0.5716 -0.5618
  403SOL    HW2 4615   4.463   5.420   0.579 -0.8293 -0.5043  0.3171
  404SOL     OW 4616   3.015   0.434  10.924  0.4228 -0.4881  0.2742
  404SOL    HW1 4617   3.036   0.341  10.937  0.0606 -0.3557  1.9115
  404SOL    HW2 4618   3.070   0.480  10.986 -0.8357  0.2443  0.8790
  405SOL     OW 4619   2.261   4.489   5.827  0.0489 -0.2442 -0.1485
  405SOL    HW1 4620   2.339   4.497   5.772 -1.5970 -0.7392 -2.6519
  405SOL    HW2 4621   2.280   4.415   5.885  2.0545  0.6573  0.3975
  406SOL     OW 4622   3.106   3.365   1.644  0.0585 -0.3708 -0.2802
  406SOL    HW1 4623   3.043   3.313   1.594 -0.4704 -0.7138  0.7229
  406SOL    HW2 4624   3.062   3.448   1.659  0.3930 -0.1067 -0.7765
  407SOL     OW 4625   1.119   8.683   5.083  0.3511 -1.1014 -0.1650
  407SOL    HW1 4626   1.043   8.635   5.051  1.4045 -1.2977 -2.4961
  407SOL    HW2 4627   1.193   8.627   5.061  1.2309 -0.5359  1.3511
  408SOL     OW 4628   0.188   6.859   8.427  0.3386 -0.4569  0.7576
  408SOL    HW1 4629   0.270   6.910   8.425  0.5518 -0.7574  1.6426
  408SOL    HW2 4630   0.214   6.771   8.400 -0.1558  0.0592 -1.4563
  409SOL     OW 4631   7.219   8.500   8.819 -0.3489  0.5453  0.0342
  409SOL    HW1 4632   7.280   8.428   8.806  0.8619  1.6641 -0.6031
  409SOL    HW2 4633   7.165   8.473   8.893 -0.2193 -1.2130 -0.4961
  410SOL     OW 4634  10.545   5.284   5.880 -0.6028 -0.4901  0.0243
  410SOL    HW1 4635  10.519   5.215   5.942 -0.9039 -0.8978 -0.5512
  410SOL    HW2 4636  10.574   5.236   5.803 -1.3052  0.0526 -0.5756
  411SOL     OW 4637   0.896   2.904   6.301  0.5937 -0.1351  0.5885
  411SOL    HW1 4638   0.842   2.854   6.362 -2.2078  2.0444 -0.0240
  411SOL    HW2 4639   0.874   2.996   6.319  1.5738  0.6422 -2.0141
  412SOL     OW 4640   0.334   7.915   8.864 -0.2424  0.3561 -0.2954
  412SOL    HW1 4641   0.250   7.910   8.820  0.1185  0.4848 -0.9998
  412SOL    HW2 4642   0.342   8.006   8.891  0.1027  0.5595 -1.0812
  413SOL     OW 4643   7.832   9.199   4.800  0.1296 -0.0163 -0.3592
  413SOL    HW1 4644   7.770   9.263   4.833  0.7131  0.1820  0.3637
  413SOL    HW2 4645   7.901   9.251   4.758 -0.2891 -0.2423 -1.3278
  414SOL     OW 4646   4.624   7.068   3.520 -0.7716  0.0115  0.7706
  414SOL    HW1 4647   4.654   6.988   3.563  0.5858  0.3435  0.4803
  414SOL    HW2 4648   4.536   7.047   3.488  0.9386 -2.6386 -2.5629
  415SOL     OW 4649   1.385   3.923   8.240  0.0892 -0.0174  0.0358
  415SOL    HW1 4650   1.296   3.958   8.248 -0.6300 -1.3461 -1.8553
  415SOL    HW2 4651   1.403   3.884   8.326 -1.0527  0.4557  0.5026
  416SOL     OW 4652   1.486   7.556   6.846 -0.0694 -0.3856  0.0608
  416SOL    HW1 4653   1.530   7.569   6.930 -1.2558 -1.9203  0.9553
  416SOL    HW2 4654   1.540   7.603   6.782  1.9607 -0.8897  1.3683
  417SOL     OW 4655   7.305   3.359   2.906 -0.0715 -0.4530  0.0921
  417SOL    HW1 4656   7.233   3.422   2.902 -0.2468 -0.6945 -0.6602
  417SOL    HW2 4657   7.371   3.394   2.846 -0.6254 -1.5442 -1.1837
  418SOL     OW 4658   5.746   3.719   2.246 -0.3894 -0.3375  0.4256
  418SOL    HW1 4659   5.741   3.625   2.263 -2.5412 -0.4877 -0.9389
  418SOL    HW2 4660   5.666   3.755   2.284  1.3424  1.2752  2.7122
  419SOL     OW 4661   8.049   7.190   7.197  0.2180 -0.0217 -0.2924
  419SOL    HW1 4662   8.043   7.275   7.242  2.4713 -0.9147  1.8391
  419SOL    HW2 4663   8.138   7.187   7.162 -0.0742 -1.2002 -0.9725
  420SOL     OW 4664   5.372   4.698   5.443  0.1697 -0.6998 -0.2492
  420SOL    HW1 4665   5.442   4.656   5.493  0.1054  0.0869  0.5233
  420SOL    HW2 4666   5.340   4.768   5.501 -2.1029 -1.8389 -0.0814
  421SOL     OW 4667   8.946   7.139   9.654 -0.1093  0.2372  0.5638
  421SOL    HW1 4668   8.894   7.145   9.574  1.3207  1.2668 -0.3100
  421SOL    HW2 4669   8.964   7.229   9.678 -0.5286 -0.0661  2.0645
  422SOL     OW 4670   8.069   5.499   4.966 -0.2957  0.2267  0.1259
  422SOL    HW1 4671   8.164   5.491   4.956 -0.2873  0.3554  0.1093
  422SOL    HW2 4672   8.033   5.448   4.894 -0.2629 -2.2618  1.8117
  423SOL     OW 4673   6.990   3.777   5.371 -0.2097  0.2640 -0.2596
  423SOL    HW1 4674   7.066   3.835   5.377 -0.7533  1.0076 -0.3721
  423SOL    HW2 4675   6.932   3.820   5.308 -1.9147  1.1133  1.8208
  424SOL     OW 4676   6.477   3.429   8.007 -0.5131  0.0841  0.1197
  424SOL    HW1 4677   6.524   3.512   8.012  4.4157 -2.5699  0.3204
  424SOL    HW2 4678   6.483   3.403   7.915 -0.9381 -0.6520  0.2967
  425SOL     OW 4679   9.278   5.120   6.734  0.7687 -0.1891 -0.4044
  425SOL    HW1 4680   9.293   5.041   6.784 -0.9244 -0.5258 -0.3900
  425SOL    HW2 4681   9.359   5.134   6.686  1.4389 -1.3606  0.3684
  426SOL     OW 4682   1.806   0.725  10.334  0.5550 -0.1514 -0.5667
  426SOL    HW1 4683   1.856   0.763  10.262  0.6611 -0.6208 -0.7401
  426SOL    HW2 4684   1.745   0.794  10.360  1.6461  0.6324  0.0001
  427SOL     OW 4685   5.829   7.165   0.542  0.0479  0.0710  0.1927
  427SOL    HW1 4686   5.775   7.202   0.611 -0.5657 -1.8295  0.7582
  427SOL    HW2 4687   5.776   7.173   0.463  0.0774  0.7418  0.2400
  428SOL     OW 4688   6.591   0.721   8.768  0.0443  0.1902 -0.0610
  428SOL    HW1 4689   6.663   0.684   8.820  0.3476  1.2233  0.2739
  428SOL    HW2 4690   6.553   0.788   8.825 -0.3009  0.5970 -0.7667
  429SOL     OW 4691  10.909   4.740   2.489  0.3197  0.4313 -0.0683
  429SOL    HW1 4692  10.934   4.692   2.410  0.4532  2.1735 -1.1099
  429SOL    HW2 4693  10.971   4.712   2.555 -0.9928 -2.5448 -0.0228
  430SOL     OW 4694   6.358   1.352   2.851  0.5837  0.8098 -0.1475
  430SOL    HW1 4695   6.344   1.325   2.760 -0.3415 -1.2256  0.5583
  430SOL    HW2 4696   6.271   1.381   2.880  0.8932  1.5189  0.0755
  431SOL     OW 4697   8.307   9.750  10.402 -0.3217  0.1036 -0.8329
  431SOL    HW1 4698   8.285   9.764  10.310  1.0628 -1.2409 -1.3829
  431SOL    HW2 4699   8.348   9.664  10.404 -1.4646 -0.4302  1.2328
  432SOL     OW 4700   1.139   5.058   6.279  0.3450 -0.1797 -0.3907
  432SOL    HW1 4701   1.155   4.996   6.351  0.9844 -0.6054 -0.8925
  432SOL    HW2 4702   1.223   5.101   6.265  0.4840 -0.7954 -1.5282
  433SOL     OW 4703   7.857   5.203   1.749 -0.0862  0.1311 -0.5557
  433SOL    HW1 4704   7.857   5.134   1.815 -2.6184  0.4423 -0.1603
  433SOL    HW2 4705   7.826   5.281   1.796 -0.3340  0.7598 -1.7348
  434SOL     OW 4706   6.349   9.484   9.527  0.0228  0.3507  0.2506
  434SOL    HW1 4707   6.363   9.429   9.450 -1.1566  1.3211 -0.6819
  434SOL    HW2 4708   6.422   9.546   9.526 -0.7730  1.3101 -0.9579
  435SOL     OW 4709   3.451   0.415   1.135 -0.1107 -0.2045 -0.2688
  435SOL    HW1 4710   3.484   0.358   1.065  0.3844  1.4690 -1.4377
  435SOL    HW2 4711   3.465   0.365   1.215 -0.0929 -1.9043 -1.2868
  436SOL     OW 4712   1.965   0.473   6.410 -0.2232  0.1019 -0.7090
  436SOL    HW1 4713   1.901   0.538   6.438 -0.5362 -0.3288 -0.4198
  436SOL    HW2 4714   2.047   0.522   6.404 -0.6875  0.7709 -1.6234
  437SOL     OW 4715   3.331   9.996   4.094  0.3123  0.3151 -0.5684
  437SOL    HW1 4716   3.353  10.059   4.025 -0.4247  0.3785 -0.7488
  437SOL    HW2 4717   3.343  10.044   4.175 -0.8397  0.8705 -0.7263
  438SOL     OW 4718   5.334   7.074   1.128  0.3199 -0.7201  0.2149
  438SOL    HW1 4719   5.383   7.143   1.083 -1.4641  0.5322  0.1357
  438SOL    HW2 4720   5.343   6.997   1.072 -1.0099  0.5390 -1.8062
  439SOL     OW 4721   1.403   6.532  10.181  0.2004  0.6194  0.0176
  439SOL    HW1 4722   1.466   6.555  10.248  0.7536 -0.7097 -0.0190
  439SOL    HW2 4723   1.341   6.473  10.226 -0.2334  0.8468 -0.2801
  440SOL     OW 4724   5.822   9.666   9.028  0.4643 -0.2135  0.2996
  440SOL    HW1 4725   5.751   9.646   8.967  2.1512 -0.0464 -1.8023
  440SOL    HW2 4726   5.779   9.681   9.112 -2.0215  0.3667 -1.0316
  441SOL     OW 4727   9.415   1.489   2.085 -0.3273  0.2745 -0.2900
  441SOL    HW1 4728   9.337   1.517   2.038 -2.3621 -1.7624  1.7273
  441SOL    HW2 4729   9.448   1.568   2.128 -1.1646  1.1734 -1.2931
  442SOL     OW 4730   2.674   2.275   4.809 -0.3927  0.5803  0.3393
  442SOL    HW1 4731   2.643   2.353   4.763 -0.3567  0.9026  0.8575
  442SOL    HW2 4732   2.700   2.214   4.739 -2.7819  0.0414 -0.1397
  443SOL     OW 4733   8.127   0.413   2.078  0.2513  0.2429  0.0454
  443SOL    HW1 4734   8.215   0.391   2.046 -0.0693  0.5717 -1.0600
  443SOL    HW2 4735   8.138   0.499   2.118  0.8156 -0.5017  1.5446
  444SOL     OW 4736   8.749   0.530   8.539  0.2954 -0.1580 -0.2128
  444SOL    HW1 4737   8.751   0.435   8.544 -0.7689 -0.1156  1.3821
  444SOL    HW2 4738   8.823   0.559   8.592  0.8389 -0.0809 -0.9906
  445SOL     OW 4739   1.453   2.910   9.346 -0.1210  0.8146  0.3099
  445SOL    HW1 4740   1.539   2.914   9.388  0.0403 -1.4909  0.2228
  445SOL    HW2 4741   1.394   2.948   9.411  0.8708  1.9029  0.5904
  446SOL     OW 4742  10.509   3.812  10.190  0.3187  0.7050 -0.0567
  446SOL    HW1 4743  10.601   3.806  10.213 -0.0907 -0.0668  1.4134
  446SOL    HW2 4744  10.482   3.900  10.219  0.7447  1.2049 -1.1290
  447SOL     OW 4745  10.823   8.347   2.893  0.4006  0.2574 -0.3960
  447SOL    HW1 4746  10.877   8.425   2.886  0.4230  0.2991  0.2825
  447SOL    HW2 4747  10.860   8.287   2.828 -0.2307  1.1649 -1.6214
  448SOL     OW 4748   7.295   7.336   4.150 -0.0848  0.5122  0.2691
  448SOL    HW1 4749   7.223   7.355   4.090  0.3379  0.8920 -0.1285
  448SOL    HW2 4750   7.273   7.251   4.188 -1.5165  1.3419  1.3424
  449SOL     OW 4751   5.566   0.191   6.358 -0.1173  0.8481 -0.6776
  449SOL    HW1 4752   5.647   0.242   6.345  1.1552 -0.1204  2.7336
  449SOL    HW2 4753   5.573   0.119   6.296  2.5699 -0.2167  0.7760
  450SOL     OW 4754   1.836   3.298   3.150  0.0074  0.5143 -0.0495
  450SOL    HW1 4755   1.893   3.335   3.082 -1.0719  1.2384 -0.5815
  450SOL    HW2 4756   1.891   3.234   3.195  1.4172  1.6047 -0.1686
  451SOL     OW 4757   0.395   4.913   6.222  0.0326  0.0838  0.4373
  451SOL    HW1 4758   0.355   4.840   6.269  1.1475 -1.6580 -1.2226
  451SOL    HW2 4759   0.331   4.984   6.228 -0.6500 -0.6930  2.9226
  452SOL     OW 4760   3.106   1.788   0.167 -0.1315 -0.5655  0.1336
  452SOL    HW1 4761   3.160   1.723   0.124  1.1080  0.2344  0.4551
  452SOL    HW2 4762   3.137   1.872   0.132  0.8509  0.0891  2.5207
  453SOL     OW 4763  10.083   4.242   0.370 -0.2842  0.1376 -0.0480
  453SOL    HW1 4764  10.128   4.283   0.444  0.2436 -0.5641  0.0239
  453SOL    HW2 4765  10.072   4.150   0.396  1.6318 -0.5768 -1.6284
  454SOL     OW 4766   8.783   0.871  10.288  0.1985  0.1893 -0.0847
  454SOL    HW1 4767   8.833   0.948  10.317 -0.8417  0.6250  0.5646
  454SOL    HW2 4768   8.724   0.905  10.221  0.2100 -0.1786 -0.2832
  455SOL     OW 4769   3.232   5.803   2.379  0.6686  0.3086 -0.1247
  455SOL    HW1 4770   3.212   5.711   2.393 -0.6962  0.6863  0.5128
  455SOL    HW2 4771   3.150   5.849   2.398  0.8708  1.5223 -1.9986
  456SOL     OW 4772   9.023   5.568   0.694 -0.4565  0.4574  0.1316
  456SOL    HW1 4773   8.933   5.544   0.715 -0.4303 -0.8898 -1.1982
  456SOL    HW2 4774   9.022   5.584   0.599  0.6482  0.6600  0.1484
  457SOL     OW 4775   4.627   3.133   2.474  0.3837 -0.1755 -0.3200
  457SOL    HW1 4776   4.660   3.147   2.563 -1.2492 -1.2880  0.4928
  457SOL    HW2 4777   4.532   3.139   2.483  0.2278  0.1035 -2.0745
  458SOL     OW 4778   9.977   5.232   3.008 -0.0081  0.2178  0.1032
  458SOL    HW1 4779  10.053   5.288   2.989  0.5466 -0.7146 -0.4445
  458SOL    HW2 4780   9.999   5.187   3.089 -0.2691  0.4442  0.3040
  459SOL     OW 4781   8.740   6.949   4.732 -0.0803  0.4203 -0.1964
  459SOL    HW1 4782   8.707   6.917   4.648 -0.3959  0.2740 -0.0121
  459SOL    HW2 4783   8.687   6.905   4.798 -0.7759  1.5990  0.0472
  460SOL     OW 4784   2.131   1.149  10.882  0.8201 -0.0683 -0.2344
  460SOL    HW1 4785   2.186   1.084  10.926  1.1200  0.3424  0.0118
  460SOL    HW2 4786   2.102   1.106  10.802  0.7421 -0.6215  0.0915
  461SOL     OW 4787   4.404   7.656   4.827  0.8101  1.0431  0.0529
  461SOL    HW1 4788   4.470   7.586   4.834 -1.3842 -1.0009  1.1016
  461SOL    HW2 4789   4.362   7.640   4.743  0.4458  1.2415  0.1993
  462SOL     OW 4790   6.987   6.959   6.875 -0.3176  0.1657 -0.1465
  462SOL    HW1 4791   7.078   6.985   6.868  0.0686 -1.2345 -0.5845
  462SOL    HW2 4792   6.961   6.938   6.785 -0.4111 -1.5612  0.2683
  463SOL     OW 4793  10.003   8.722   3.309 -0.3239 -0.1939  0.4885
  463SOL    HW1 4794  10.068   8.678   3.363 -0.7264  0.0694  1.2011
  463SOL    HW2 4795   9.956   8.651   3.264  0.1511 -0.4025  0.3202
  464SOL     OW 4796   8.836   4.556   2.432  0.1693  0.6149 -0.0632
  464SOL    HW1 4797   8.825   4.531   2.340  0.4151 -0.4068  0.1772
  464SOL    HW2 4798   8.790   4.640   2.439  0.0790  0.6679 -1.0981
  465SOL     OW 4799   7.600   0.674  10.640 -0.5854  0.0998  0.1644
  465SOL    HW1 4800   7.583   0.595  10.691 -1.1063 -0.1082 -0.3285
  465SOL    HW2 4801   7.551   0.743  10.685 -0.6821  0.0068  0.2017
  466SOL     OW 4802   7.231   0.304   1.062  0.2402  0.3142 -0.3091
  466SOL    HW1 4803   7.302   0.290   1.125  1.3062 -0.3826 -1.6357
  466SOL    HW2 4804   7.174   0.228   1.072  0.8419 -0.2015 -0.7250
  467SOL     OW 4805   5.442   7.171   5.244  0.3329 -0.8445  0.0078
  467SOL    HW1 4806   5.402   7.170   5.330  1.3511 -0.7795  0.4859
  467SOL    HW2 4807   5.516   7.231   5.253 -0.9104  0.9878 -1.5143
  468SOL     OW 4808   1.965   2.825   0.139 -0.4132  0.3741 -0.3368
  468SOL    HW1 4809   2.034   2.841   0.204 -0.7768 -0.3657  0.2305
  468SOL    HW2 4810   1.948   2.731   0.144 -1.2264  0.4992 -0.7123
  469SOL     OW 4811   0.481   9.645   6.446 -0.0033  0.0519  0.2457
  469SOL    HW1 4812   0.512   9.636   6.537 -0.2817 -2.5765  0.1183
  469SOL    HW2 4813   0.529   9.577   6.398  0.5583  1.7885 -1.7158
  470SOL     OW 4814   5.641   6.116   7.082  0.4240 -0.0157  0.0810
  470SOL    HW1 4815   5.733   6.104   7.107 -0.1805 -0.9725  1.9700
  470SOL    HW2 4816   5.644   6.178   7.009  2.5428  0.2528  0.3564
  471SOL     OW 4817   8.671   3.703   7.465  0.0686 -0.0870 -0.3992
  471SOL    HW1 4818   8.702   3.690   7.375 -0.0038 -0.2116 -0.4069
  471SOL    HW2 4819   8.742   3.672   7.520  0.2112  0.2172 -0.4108
  472SOL     OW 4820   2.418   8.868   5.747 -0.1867 -0.1223  0.0805
  472SOL    HW1 4821   2.473   8.940   5.778 -1.2301  0.7008  0.0532
  472SOL    HW2 4822   2.395   8.893   5.657 -0.7491 -0.3769  0.1511
  473SOL     OW 4823   2.142   0.726  10.759 -0.3823  0.4547 -0.0509
  473SOL    HW1 4824   2.146   0.682  10.674  0.1317  0.5813 -0.0977
  473SOL    HW2 4825   2.087   0.803  10.744 -0.5392  0.3141 -0.1935
  474SOL     OW 4826   2.051   2.754   1.245  0.3402 -0.7426 -0.0233
  474SOL    HW1 4827   2.138   2.723   1.220  0.1771 -1.1523 -0.0850
  474SOL    HW2 4828   2.055   2.758   1.341  0.4217 -0.7684 -0.0252
  475SOL     OW 4829   7.918  10.136   4.703  0.1458 -0.2015  0.3998
  475SOL    HW1 4830   7.951  10.186   4.628  1.4073 -0.7566  0.5748
  475SOL    HW2 4831   7.932  10.044   4.679 -1.6369 -0.4615  0.3218
  476SOL     OW 4832   0.938   1.198   3.372 -0.4063  0.3186  0.1309
  476SOL    HW1 4833   1.028   1.230   3.382  0.0580 -1.0326  0.3633
  476SOL    HW2 4834   0.942   1.143   3.294 -1.4545  1.6975 -0.9268
  477SOL     OW 4835  10.695   1.502  10.403  0.2305 -0.2095  0.1879
  477SOL    HW1 4836  10.612   1.535  10.367 -0.1654 -0.9854  0.3896
  477SOL    HW2 4837  10.753   1.498  10.328 -0.7968 -2.4690 -0.5383
  478SOL     OW 4838   1.861   4.076   2.664  0.5706 -0.0452 -0.1680
  478SOL    HW1 4839   1.826   4.092   2.577  0.2453  1.1192  0.1680
  478SOL    HW2 4840   1.819   3.995   2.693 -0.8658  0.6519 -0.2748
  479SOL     OW 4841   1.888   1.469   2.952 -0.1434  0.5422  0.4106
  479SOL    HW1 4842   1.899   1.385   2.995 -0.7748  0.5320  0.5539
  479SOL    HW2 4843   1.977   1.503   2.943 -0.0189  0.6107  1.8466
  480SOL     OW 4844   9.394  10.689   3.823  0.1654 -0.1401 -0.0178
  480SOL    HW1 4845   9.386  10.692   3.918 -0.6225  0.4396 -0.1001
  480SOL    HW2 4846   9.315  10.644   3.793 -0.1705  0.7519 -0.4781
  481SOL     OW 4847   0.112   1.085   2.136  0.1943 -0.9806  0.0190
  481SOL    HW1 4848   0.053   1.101   2.063  1.8342 -1.8415 -1.5418
  481SOL    HW2 4849   0.145   0.996   2.120  1.1167 -0.8969  1.4152
  482SOL     OW 4850   6.447   9.995   7.704 -0.2071  0.3695 -0.3355
  482SOL    HW1 4851   6.367  10.030   7.742 -1.1075 -0.0342 -1.8424
  482SOL    HW2 4852   6.516  10.053   7.736 -1.4004  2.1692 -0.9652
  483SOL     OW 4853   5.058   3.516  10.478  0.0511 -0.4948  0.4122
  483SOL    HW1 4854   5.072   3.571  10.401  0.0910  1.1132  1.5371
  483SOL    HW2 4855   5.103   3.434  10.458 -0.9743 -0.5586 -1.7748
  484SOL     OW 4856   3.253   8.774   2.639 -0.3542  0.1561  0.1133
  484SOL    HW1 4857   3.309   8.729   2.702 -0.3837 -1.6688 -1.1302
  484SOL    HW2 4858   3.193   8.706   2.607 -1.3870  1.4212 -0.6796
  485SOL     OW 4859   6.123  10.805   9.364  0.3897 -1.3189  0.2149
  485SOL    HW1 4860   6.030  10.822   9.377  0.4505 -0.7991 -0.0010
  485SOL    HW2 4861   6.165  10.890   9.378  0.4715 -0.7482 -3.0841
  486SOL     OW 4862   8.926   9.007   2.582  0.3438  0.3820  0.6369
  486SOL    HW1 4863   8.942   9.093   2.620  0.0364  1.5324 -1.7593
  486SOL    HW2 4864   9.014   8.972   2.564  0.4581  0.6226  0.7189
  487SOL     OW 4865   3.528   1.537   2.403 -0.5022  0.0357  0.4253
  487SOL    HW1 4866   3.514   1.457   2.353  2.5455 -1.1228  1.3186
  487SOL    HW2 4867   3.487   1.520   2.487  0.3831 -0.7132  0.7120
  488SOL     OW 4868   7.525   2.403   1.286  0.1759  0.2493  0.6652
  488SOL    HW1 4869   7.443   2.446   1.261  0.4308 -0.6529 -1.8688
  488SOL    HW2 4870   7.578   2.473   1.326 -1.2521  1.1622  0.9737
  489SOL     OW 4871   6.755   8.077   9.261  0.5031  0.4803 -0.3463
  489SOL    HW1 4872   6.771   8.170   9.275  1.6531  0.0275  1.4518
  489SOL    HW2 4873   6.719   8.046   9.344  3.4748 -1.4135  0.2801
  490SOL     OW 4874   7.479   5.486   0.332 -0.2975 -0.4706  0.1536
  490SOL    HW1 4875   7.404   5.483   0.273 -1.4355 -1.2508  1.6123
  490SOL    HW2 4876   7.472   5.572   0.375 -0.4473 -0.6067  0.4028
  491SOL     OW 4877   8.935   8.985   4.201  0.6968 -0.3347  0.2836
  491SOL    HW1 4878   9.002   8.934   4.155  0.9192  0.0071  0.2303
  491SOL    HW2 4879   8.904   9.049   4.137  1.4099  0.5118  0.7828
  492SOL     OW 4880   0.706   9.424   9.775 -0.4750 -0.0437 -0.1017
  492SOL    HW1 4881   0.683   9.332   9.786 -1.3068 -0.1111 -2.0867
  492SOL    HW2 4882   0.626   9.472   9.797 -0.4687  0.1088 -0.3969
  493SOL     OW 4883   3.800   1.015   0.830  0.2318  0.4578  0.2315
  493SOL    HW1 4884   3.784   0.921   0.840  0.5244  0.3828 -0.0087
  493SOL    HW2 4885   3.749   1.055   0.901 -0.1063  0.1382  0.1725
  494SOL     OW 4886   7.889   6.366   7.183  0.8969 -0.4970  0.2968
  494SOL    HW1 4887   7.934   6.352   7.100 -0.6050  0.5637 -0.7169
  494SOL    HW2 4888   7.848   6.452   7.175  0.3149 -0.5871  1.9394
  495SOL     OW 4889   9.600   9.227   1.785 -0.6345  0.1820 -0.1787
  495SOL    HW1 4890   9.657   9.304   1.777  0.0806 -0.3411 -0.2052
  495SOL    HW2 4891   9.546   9.229   1.706  0.5000 -0.2280 -0.9766
  496SOL     OW 4892   6.563   4.974   1.210 -0.0580  0.3358  0.0866
  496SOL    HW1 4893   6.607   5.057   1.230  1.5504 -0.4757 -0.0127
  496SOL    HW2 4894   6.565   4.925   1.292 -0.5872  0.2015  0.0229
  497SOL     OW 4895   8.983   7.549   5.197  0.6169  0.1582  0.4074
  497SOL    HW1 4896   8.902   7.599   5.200  0.6119  0.2204 -0.6462
  497SOL    HW2 4897   8.972   7.489   5.122  1.4243 -0.0204  0.4269
  498SOL     OW 4898   9.850   3.117  10.736 -0.2351  0.3983 -0.4838
  498SOL    HW1 4899   9.775   3.147  10.685 -0.1186  0.8585 -0.3870
  498SOL    HW2 4900   9.814   3.095  10.822 -0.4032 -0.2211 -0.7125
  499SOL     OW 4901   6.446   7.368   7.780  0.0707  0.2471 -0.0933
  499SOL    HW1 4902   6.504   7.430   7.736  0.2684  0.0945 -0.0498
  499SOL    HW2 4903   6.359   7.408   7.775 -0.0049 -0.0409 -1.1517
  500SOL     OW 4904   7.072  10.553   8.189  0.1790 -0.7356 -0.0516
  500SOL    HW1 4905   7.153  10.509   8.160  0.5373 -1.5936  2.1025
  500SOL    HW2 4906   7.095  10.646   8.192  0.1603 -0.6368 -2.3268
  501SOL     OW 4907   5.881   8.463   0.664  0.0163 -0.3152 -0.5094
  501SOL    HW1 4908   5.944   8.419   0.607  0.1023 -0.2831 -0.4373
  501SOL    HW2 4909   5.902   8.432   0.752  0.0126 -0.2070 -0.4703
  502SOL     OW 4910   3.171   8.151   4.116 -0.1958 -0.0598 -0.1776
  502SOL    HW1 4911   3.262   8.177   4.129 -0.3626  0.2256  0.4293
  502SOL    HW2 4912   3.177   8.066   4.072  0.3856 -0.7126  1.0987
  503SOL     OW 4913   3.023   5.519   6.536 -0.2427 -0.1054 -0.4281
  503SOL    HW1 4914   2.987   5.434   6.510  0.6009 -0.7035  0.3153
  503SOL    HW2 4915   3.107   5.498   6.577 -0.8088  0.9171  1.3307
  504SOL     OW 4916   5.264   4.509   7.761 -0.1763 -0.1643  0.1473
  504SOL    HW1 4917   5.317   4.576   7.717 -0.8136  0.8228  0.8842
  504SOL    HW2 4918   5.327   4.461   7.815  0.4978 -0.9492 -1.2684
  505SOL     OW 4919   8.958   5.554   4.669 -0.0563  0.5728  0.1238
  505SOL    HW1 4920   8.899   5.485   4.696  2.2026 -2.3120 -2.0241
  505SOL    HW2 4921   9.016   5.568   4.745  0.4860 -1.0394  0.0183
  506SOL     OW 4922   7.751   0.020   6.437  0.2381 -0.2961 -0.3223
  506SOL    HW1 4923   7.760   0.092   6.499 -0.8679  0.3582 -0.9147
  506SOL    HW2 4924   7.841  -0.008   6.420  0.6013  0.1236  0.8648
  507SOL     OW 4925   8.105   6.284   0.850  0.0117 -0.3071  0.3507
  507SOL    HW1 4926   8.167   6.288   0.923  0.0734  0.5565  0.2536
  507SOL    HW2 4927   8.159   6.296   0.772 -0.2004 -0.1201  0.2314
  508SOL     OW 4928   0.842   2.515   9.882  0.3905 -0.4506  0.0061
  508SOL    HW1 4929   0.890   2.592   9.852 -0.7775  0.4534  0.3718
  508SOL    HW2 4930   0.817   2.536   9.972 -1.0684 -0.6805 -0.3248
  509SOL     OW 4931   0.206   1.020   6.399 -0.1297  0.6491  0.0693
  509SOL    HW1 4932   0.156   0.989   6.324  0.3925 -1.4147  0.5505
  509SOL    HW2 4933   0.153   1.091   6.435 -0.9529  0.8899 -1.5413
  510SOL     OW 4934   3.477   3.229  10.624 -0.2249  0.2820 -0.0069
  510SOL    HW1 4935   3.413   3.295  10.598  0.9734  0.6349 -2.1256
  510SOL    HW2 4936   3.455   3.152  10.571  0.4995  0.0864 -0.0246
  511SOL     OW 4937   3.627   9.784   1.490  0.0014 -0.3079  0.6082
  511SOL    HW1 4938   3.682   9.825   1.423  0.6420 -1.6325  0.3096
  511SOL    HW2 4939   3.550   9.753   1.443  0.4476 -1.2310  0.4765
  512SOL     OW 4940   1.376   4.645   4.686  0.3186 -0.7519  0.1323
  512SOL    HW1 4941   1.282   4.659   4.678  0.3016 -1.5555 -1.2427
  512SOL    HW2 4942   1.412   4.675   4.602  1.0465 -2.2382 -0.1150
  513SOL     OW 4943   0.654   4.168   7.156 -0.1775 -0.2771  0.0682
  513SOL    HW1 4944   0.703   4.159   7.237  0.6009 -0.1938 -0.3891
  513SOL    HW2 4945   0.582   4.227   7.178 -0.3713 -0.8106  0.8739
  514SOL     OW 4946   8.956   5.378   9.294  0.2794  0.3136  0.3477
  514SOL    HW1 4947   8.988   5.384   9.204 -0.6666  0.2231  0.0002
  514SOL    HW2 4948   8.874   5.427   9.294  0.2725  0.3198  1.1673
  515SOL     OW 4949   8.726   7.601   1.072  0.2636  0.5049 -0.3911
  515SOL    HW1 4950   8.654   7.644   1.027 -1.8787 -2.0301  0.4220
  515SOL    HW2 4951   8.766   7.544   1.006 -1.4030 -1.4709  0.2516
  516SOL     OW 4952   7.883   1.137   4.780 -0.2767 -0.0580  0.2058
  516SOL    HW1 4953   7.796   1.169   4.754 -0.4409 -0.6745 -0.0132
  516SOL    HW2 4954   7.943   1.177   4.717 -0.6650 -1.5170 -1.1408
  517SOL     OW 4955   2.601   6.483  10.396 -0.0375  0.8898 -0.0440
  517SOL    HW1 4956   2.646   6.496  10.313 -2.3881  0.5926 -1.3752
  517SOL    HW2 4957   2.656   6.529  10.460  2.4131  0.1421 -1.5294
  518SOL     OW 4958   7.556   5.545   7.916  1.1388  0.2144  0.3398
  518SOL    HW1 4959   7.484   5.496   7.875  0.8533  0.1597  0.9025
  518SOL    HW2 4960   7.622   5.553   7.847  0.6936  0.0552 -0.1085
  519SOL     OW 4961   5.123   2.605   5.006 -0.4236  0.2110  0.0284
  519SOL    HW1 4962   5.079   2.526   5.037  0.0195 -0.8397 -1.9797
  519SOL    HW2 4963   5.192   2.620   5.071  1.3537 -2.7216 -1.0695
  520SOL     OW 4964   4.388  10.533   2.047 -0.6162 -0.2018  0.1629
  520SOL    HW1 4965   4.447  10.596   2.005 -0.8104  0.4011  0.7780
  520SOL    HW2 4966   4.412  10.449   2.010  0.8177  0.0037  0.5907
  521SOL     OW 4967   8.792   3.077   9.593 -0.0036 -0.0293  0.2354
  521SOL    HW1 4968   8.723   3.125   9.546  2.2363  0.5957 -2.5768
  521SOL    HW2 4969   8.822   3.138   9.660 -0.6283  0.5679 -0.0121
  522SOL     OW 4970   8.444   3.547   6.974 -0.2566  0.2605 -0.1502
  522SOL    HW1 4971   8.498   3.536   7.052 -1.0239 -0.1379  0.3314
  522SOL    HW2 4972   8.507   3.565   6.904  0.3369  2.3201  0.8557
  523SOL     OW 4973   1.106   9.466   7.052 -0.4141 -0.2292 -0.2073
  523SOL    HW1 4974   1.135   9.461   6.961 -0.8006 -2.4942 -0.2231
  523SOL    HW2 4975   1.018   9.427   7.052 -0.5178 -0.0334  1.1048
  524SOL     OW 4976   5.521   9.723   3.963 -0.3269 -0.3656 -0.6956
  524SOL    HW1 4977   5.601   9.688   3.926 -0.4467 -0.8613 -0.4884
  524SOL    HW2 4978   5.463   9.736   3.888  0.2985  0.9476 -0.9707
  525SOL     OW 4979   7.621   8.049   9.975 -0.5116 -0.0008 -0.7410
  525SOL    HW1 4980   7.651   8.086   9.892 -2.0867  3.4790  0.1423
  525SOL    HW2 4981   7.702   8.026  10.021  0.4479 -0.0071 -2.4060
  526SOL     OW 4982  10.367   8.475   3.886 -0.3232  0.2318 -0.6809
  526SOL    HW1 4983  10.451   8.509   3.853  0.9340 -0.7513  1.4279
  526SOL    HW2 4984  10.384   8.383   3.904 -2.1612 -0.2147 -1.1165
  527SOL     OW 4985   0.895   6.892   6.730 -0.5350  0.2050  0.3107
  527SOL    HW1 4986   0.970   6.844   6.766 -1.6124 -1.3848  0.4578
  527SOL    HW2 4987   0.900   6.877   6.635  0.0538  1.1660  0.1793
  528SOL     OW 4988   1.369   7.979   4.809 -0.1715  0.0259  0.5806
  528SOL    HW1 4989   1.331   7.945   4.727  2.0054 -2.0582  0.3845
  528SOL    HW2 4990   1.427   8.050   4.781  0.3947 -0.5314  0.3438
  529SOL     OW 4991   0.761   4.474   2.472  0.2784 -0.1219 -0.4545
  529SOL    HW1 4992   0.734   4.410   2.406 -0.1793  0.3141 -0.6882
  529SOL    HW2 4993   0.846   4.442   2.502 -0.0505 -0.9743 -0.4057
  530SOL     OW 4994   6.155   3.864   1.822  0.6296 -0.3101  0.5228
  530SOL    HW1 4995   6.158   3.959   1.826 -0.4260 -0.2620  0.3521
  530SOL    HW2 4996   6.216   3.835   1.890  1.9995  0.4794 -0.3523
  531SOL     OW 4997   1.825   8.356   8.311 -0.4010  0.6191  0.1347
  531SOL    HW1 4998   1.821   8.261   8.319 -1.2902  0.8993  3.9506
  531SOL    HW2 4999   1.903   8.381   8.360 -0.3039  1.8686 -0.6532
  532SOL     OW 5000   2.498   4.099   9.755  0.5108 -0.4571 -0.4963
  532SOL    HW1 5001   2.585   4.132   9.734  0.6767 -1.7035 -1.8261
  532SOL    HW2 5002   2.515   4.029   9.820  0.4554 -0.3295 -0.3453
  533SOL     OW 5003   7.346   5.086   8.225 -0.1604  0.3649 -0.1989
  533SOL    HW1 5004   7.263   5.131   8.242 -0.0061  1.2395 -1.7143
  533SOL    HW2 5005   7.330   5.038   8.144  1.0668  1.1393 -0.8972
  534SOL     OW 5006   1.615   1.314   4.857  0.5900 -0.0453 -0.5347
  534SOL    HW1 5007   1.536   1.272   4.892  0.3030  1.3991  0.5657
  534SOL    HW2 5008   1.684   1.249   4.869  0.1127 -0.2819  1.0133
  535SOL     OW 5009   8.868   0.879   3.565  0.0149 -0.4717 -0.0665
  535SOL    HW1 5010   8.787   0.930   3.564  0.2973 -0.0009  0.6787
  535SOL    HW2 5011   8.863   0.824   3.487 -0.9562 -0.3393 -0.1008
  536SOL     OW 5012   1.976   4.530   8.543 -0.5404  0.3795  0.0799
  536SOL    HW1 5013   2.018   4.615   8.553 -0.2312  0.1733  0.5512
  536SOL    HW2 5014   2.048   4.468   8.536 -0.7477 -0.0509  1.5373
  537SOL     OW 5015   5.997   2.592   5.262  0.4472 -0.4622  0.1536
  537SOL    HW1 5016   6.018   2.547   5.343 -1.0964  1.9370  1.9517
  537SOL    HW2 5017   5.915   2.638   5.280  0.0609  0.1383 -2.7649
  538SOL     OW 5018   8.029   6.483   8.679  0.1815  0.3955 -0.0871
  538SOL    HW1 5019   8.087   6.555   8.702  0.0226  0.3700  0.4076
  538SOL    HW2 5020   8.053   6.459   8.590  2.3467 -0.9954  0.8394
  539SOL     OW 5021   9.291   0.825   2.741  0.2041  0.5898  0.2753
  539SOL    HW1 5022   9.349   0.765   2.695 -0.9932  0.8483 -1.6358
  539SOL    HW2 5023   9.324   0.912   2.721 -0.3789  0.7089 -0.1718
  540SOL     OW 5024   0.760   5.630   2.615 -0.1680 -0.4135  0.3554
  540SOL    HW1 5025   0.763   5.716   2.573 -0.3679 -0.3735  0.4183
  540SOL    HW2 5026   0.748   5.568   2.543  0.2641 -0.4155  0.2834
  541SOL     OW 5027   1.812   9.933   1.384  0.7193 -0.3892 -0.3615
  541SOL    HW1 5028   1.849   9.850   1.355 -0.2742 -1.3250  0.9962
  541SOL    HW2 5029   1.719   9.927   1.359  1.2315  1.5236 -2.8761
  542SOL     OW 5030   5.224   7.143   4.618  0.3605 -0.2458 -0.0750
  542SOL    HW1 5031   5.299   7.146   4.558  0.7790 -1.9369  0.3505
  542SOL    HW2 5032   5.256   7.184   4.698  0.4603  0.0991 -0.2911
  543SOL     OW 5033   6.341   8.778   3.256  0.1979  0.0846 -0.1016
  543SOL    HW1 5034   6.386   8.702   3.219 -1.1901  0.1903 -2.0852
  543SOL    HW2 5035   6.318   8.832   3.181 -1.8417  0.7877  0.9658
  544SOL     OW 5036   5.474   6.757   1.782 -0.1532 -0.3083 -0.2216
  544SOL    HW1 5037   5.473   6.799   1.696 -0.0295  1.6211  0.6980
  544SOL    HW2 5038   5.558   6.782   1.820  0.5998 -2.6604 -0.2282
  545SOL     OW 5039   1.135   2.483   0.191  0.8554 -0.1820  0.0756
  545SOL    HW1 5040   1.062   2.442   0.144  1.3066 -2.8653  1.6616
  545SOL    HW2 5041   1.098   2.509   0.275  1.7657 -1.6961  0.9474
  546SOL     OW 5042   7.257   5.964   4.878  0.6559 -0.0655  0.8278
  546SOL    HW1 5043   7.322   5.988   4.944 -0.1890  0.8466  1.3516
  546SOL    HW2 5044   7.291   6.000   4.797  0.5463  0.9069  1.2006
  547SOL     OW 5045   3.348   7.021   5.768 -0.4546 -0.3884 -0.3218
  547SOL    HW1 5046   3.365   7.095   5.827  1.2915 -1.2187  0.2426
  547SOL    HW2 5047   3.390   6.946   5.810 -3.6135 -2.0691 -0.0703
  548SOL     OW 5048   8.607   2.300   6.683  0.0073 -0.1013 -0.0204
  548SOL    HW1 5049   8.526   2.270   6.723 -0.3044  1.4039  0.5304
  548SOL    HW2 5050   8.579   2.350   6.606  0.4361 -0.1457 -0.2070
  549SOL     OW 5051   4.054   2.758   7.058 -0.0912  0.0105  0.7871
  549SOL    HW1 5052   4.089   2.760   6.969 -0.1900  1.2905  0.7751
  549SOL    HW2 5053   4.029   2.667   7.071 -0.4075 -0.1161 -0.6205
  550SOL     OW 5054   4.540   4.372   9.167 -0.1002  0.0703  0.4318
  550SOL    HW1 5055   4.569   4.282   9.185 -0.4735 -0.7414 -2.8210
  550SOL    HW2 5056   4.621   4.422   9.161  0.2687 -0.6678 -0.8502
  551SOL     OW 5057   4.239   1.554  10.476 -0.1757  0.0275  0.0133
  551SOL    HW1 5058   4.251   1.536  10.383  0.8113  0.7379 -0.0123
  551SOL    HW2 5059   4.310   1.506  10.519 -0.7464 -0.4582  0.4226
  552SOL     OW 5060   7.042   3.368   4.528  0.0727  0.4954  0.4597
  552SOL    HW1 5061   7.022   3.282   4.564  0.0792  0.5376  0.5646
  552SOL    HW2 5062   7.040   3.427   4.604  0.2939  0.5508  0.4241
  553SOL     OW 5063  10.685   2.535   0.621 -0.3466  0.0497 -0.4912
  553SOL    HW1 5064  10.600   2.493   0.622  0.0525 -0.7786  0.6941
  553SOL    HW2 5065  10.729   2.502   0.700  1.0588  0.4619 -1.0767
  554SOL     OW 5066   9.404   9.066   6.570  0.0023  0.2587  0.2664
  554SOL    HW1 5067   9.400   9.025   6.656  2.6708 -0.4662  0.0848
  554SOL    HW2 5068   9.353   9.007   6.513 -0.9987  0.2672  1.1454
  555SOL     OW 5069   4.512  10.266   2.545 -0.2277 -0.1351 -0.0926
  555SOL    HW1 5070   4.447  10.196   2.555  0.4574 -0.8022 -0.2605
  555SOL    HW2 5071   4.503  10.295   2.454 -1.5339  1.0198  0.3952
  556SOL     OW 5072   4.103   1.204  10.513 -0.3698 -0.7685 -0.2150
  556SOL    HW1 5073   4.142   1.141  10.573  0.9496 -1.1541 -1.4273
  556SOL    HW2 5074   4.073   1.276  10.569  3.4688  0.2409  0.6878
  557SOL     OW 5075   1.903   0.849   2.581  0.3776  0.3311  0.4637
  557SOL    HW1 5076   1.988   0.847   2.539 -0.1792 -1.1713 -0.6338
  557SOL    HW2 5077   1.891   0.761   2.617 -0.8093  0.4448  0.3806
  558SOL     OW 5078   0.522  10.692   5.450  0.7048 -0.0336  0.6951
  558SOL    HW1 5079   0.564  10.657   5.528  0.5183 -1.7230  0.0553
  558SOL    HW2 5080   0.593  10.704   5.387  0.4657 -1.5020  0.1190
  559SOL     OW 5081   0.854   5.494   3.709 -0.0521 -0.0026 -0.3767
  559SOL    HW1 5082   0.792   5.566   3.712  1.4421  1.2652  1.7340
  559SOL    HW2 5083   0.813   5.424   3.760  0.1360  0.7511  0.8203
  560SOL     OW 5084   6.701   8.007   5.991 -0.5856  0.1395 -0.1231
  560SOL    HW1 5085   6.648   8.086   6.006  0.1302  0.5249  0.4628
  560SOL    HW2 5086   6.675   7.976   5.905 -1.6826  0.3843  0.1138
  561SOL     OW 5087   2.291   7.270   9.574 -0.7336  0.1332  0.1830
  561SOL    HW1 5088   2.254   7.267   9.662 -1.1300 -0.6503 -0.0118
  561SOL    HW2 5089   2.345   7.192   9.567 -0.8359  0.1036 -0.3291
  562SOL     OW 5090   3.021   8.073   6.850 -0.3322  0.4211  0.0748
  562SOL    HW1 5091   3.098   8.059   6.794 -0.0027  1.3632  0.2808
  562SOL    HW2 5092   2.983   7.986   6.860 -0.9371  0.3631 -2.3756
  563SOL     OW 5093   6.768   3.727   8.215  0.0413 -0.1097 -0.3684
  563SOL    HW1 5094   6.770   3.661   8.284  0.0641 -0.6370 -0.8612
  563SOL    HW2 5095   6.751   3.810   8.260  1.1302 -0.2837  0.3922
  564SOL     OW 5096   7.601   5.837   2.735  0.1080  0.2938  0.3803
  564SOL    HW1 5097   7.509   5.841   2.709  0.1537 -0.5494  0.0944
  564SOL    HW2 5098   7.633   5.754   2.700  0.5551 -0.1807  1.8631
  565SOL     OW 5099   3.612   5.534   8.865 -0.1293 -0.1448 -0.1019
  565SOL    HW1 5100   3.686   5.475   8.851  0.2646  0.6941 -1.6761
  565SOL    HW2 5101   3.648   5.622   8.850 -1.4074  0.2860 -0.7532
  566SOL     OW 5102   3.987   4.398   3.044 -0.3534  0.0410 -0.2846
  566SOL    HW1 5103   3.893   4.401   3.025 -0.5170 -0.6262  0.3896
  566SOL    HW2 5104   3.999   4.318   3.095  0.5024  0.3870  0.0736
  567SOL     OW 5105   7.526   3.353   7.796  0.3994  0.7452 -0.3044
  567SOL    HW1 5106   7.560   3.356   7.706  0.1099  1.1567 -0.3969
  567SOL    HW2 5107   7.543   3.440   7.831 -0.6538  0.9846 -0.3803
  568SOL     OW 5108   4.952   3.456  10.772  0.1648  0.0983 -0.2603
  568SOL    HW1 5109   4.965   3.509  10.693  0.3230 -0.4995 -0.6423
  568SOL    HW2 5110   5.036   3.458  10.818  0.0865  0.4099 -0.1328
  569SOL     OW 5111   4.987  10.837   3.035 -0.2430 -0.0724 -0.2998
  569SOL    HW1 5112   5.015  10.834   2.943  1.1110 -0.2462  0.0971
  569SOL    HW2 5113   4.913  10.777   3.040  1.8177 -2.7569 -0.6041
  570SOL     OW 5114   1.734   4.042   3.338  0.2554  0.2256  0.8450
  570SOL    HW1 5115   1.659   4.102   3.342  1.5469  1.8642  0.9785
  570SOL    HW2 5116   1.772   4.058   3.252 -0.1451 -1.3538  0.3694
  571SOL     OW 5117   6.547  10.755   1.136  0.0786  0.2073 -0.2377
  571SOL    HW1 5118   6.480  10.769   1.202  2.3662 -0.9872  2.4797
  571SOL    HW2 5119   6.625  10.729   1.186  2.1828  0.1915 -3.3407
  572SOL     OW 5120   5.808   5.921   2.898  0.3842 -0.0825 -0.0634
  572SOL    HW1 5121   5.850   5.945   2.815 -2.4119  0.0593 -1.5043
  572SOL    HW2 5122   5.736   5.984   2.907 -0.4073 -1.1981  1.6039
  573SOL     OW 5123   7.077   5.469   8.874  0.2680 -0.0710 -0.3449
  573SOL    HW1 5124   7.087   5.406   8.946 -0.9633  0.6028  0.4354
  573SOL    HW2 5125   6.983   5.468   8.855  0.3996  0.7377 -1.0737
  574SOL     OW 5126  10.967   8.062   4.699 -0.0094  1.1367  0.8101
  574SOL    HW1 5127  10.968   8.002   4.774  0.3281  1.1336  0.8011
  574SOL    HW2 5128  10.894   8.032   4.645 -2.4429  3.1587  2.8140
  575SOL     OW 5129  10.368   4.465   2.984 -0.4404  0.0527  0.9601
  575SOL    HW1 5130  10.295   4.405   2.996  0.2834 -0.7223  1.5602
  575SOL    HW2 5131  10.385   4.462   2.889 -1.6547  0.8120  0.7117
  576SOL     OW 5132   4.809   3.799   1.634 -0.4286 -0.3178  0.8104
  576SOL    HW1 5133   4.855   3.720   1.605  1.2651  0.2425  1.9196
  576SOL    HW2 5134   4.811   3.794   1.729 -0.1294  1.1590  0.8940
  577SOL     OW 5135  10.046   0.250   8.132  0.2242  0.1059 -0.3686
  577SOL    HW1 5136  10.044   0.330   8.184  0.5488  0.5324 -0.9999
  577SOL    HW2 5137  10.018   0.278   8.045 -0.2011 -0.5749 -0.4482
  578SOL     OW 5138   4.313   0.621   5.625  0.2367 -0.2498 -0.2423
  578SOL    HW1 5139   4.408   0.628   5.623  0.2314 -0.0969 -0.0555
  578SOL    HW2 5140   4.296   0.532   5.655  0.3202 -0.3251 -0.4183
  579SOL     OW 5141   6.459   0.630   1.257  0.6272  0.3552 -0.0336
  579SOL    HW1 5142   6.418   0.702   1.209 -2.4141 -1.6288 -0.5517
  579SOL    HW2 5143   6.393   0.603   1.321  1.3954 -2.5153 -0.4099
  580SOL     OW 5144   4.437  10.913   4.341  0.0901  0.5104  0.4691
  580SOL    HW1 5145   4.460  10.828   4.303 -2.1693  0.1669 -0.1921
  580SOL    HW2 5146   4.497  10.922   4.415  1.1600 -1.1213 -0.1628
  581SOL     OW 5147   3.256   4.064   3.935  0.5196 -0.2759  0.8152
  581SOL    HW1 5148   3.183   4.125   3.928 -0.2471 -1.2994 -0.1730
  581SOL    HW2 5149   3.328   4.118   3.969  0.3971  1.6359 -1.7563
  582SOL     OW 5150   9.122   0.836   1.433  0.1164  0.2713  0.3327
  582SOL    HW1 5151   9.122   0.773   1.505  0.6356  1.4945  1.4247
  582SOL    HW2 5152   9.062   0.799   1.368 -2.2765  0.3415  2.4472
  583SOL     OW 5153   5.982   2.484  10.305  0.0585  0.5604 -0.2394
  583SOL    HW1 5154   5.933   2.428  10.244 -1.1463  0.8560  0.4491
  583SOL    HW2 5155   6.074   2.460  10.290 -0.4059 -1.3894 -0.1794
  584SOL     OW 5156   8.160  10.263   0.907 -0.0234 -0.1962 -0.1213
  584SOL    HW1 5157   8.198  10.349   0.889 -0.1303 -0.0647  0.2830
  584SOL    HW2 5158   8.069  10.271   0.880 -0.5193  0.4007  1.6675
  585SOL     OW 5159   2.491   3.574   3.301 -0.1694 -0.5022 -0.1246
  585SOL    HW1 5160   2.429   3.645   3.317 -0.4795 -0.9501  0.6880
  585SOL    HW2 5161   2.577   3.617   3.303 -0.2897 -0.3030  1.3677
  586SOL     OW 5162   0.533   6.356   1.966  0.2490  0.8106  0.1237
  586SOL    HW1 5163   0.550   6.305   1.886  0.2772  1.7692 -0.4913
  586SOL    HW2 5164   0.605   6.333   2.025 -1.1253 -1.8623  0.8647
  587SOL     OW 5165   4.896   5.879   9.875  0.1906  0.5034  0.5344
  587SOL    HW1 5166   4.864   5.831   9.950  0.3975  3.1237  2.3814
  587SOL    HW2 5167   4.854   5.965   9.882  0.8631  1.0716 -1.8785
  588SOL     OW 5168   1.844   6.101   3.226 -0.2219  0.0826 -0.0433
  588SOL    HW1 5169   1.827   6.063   3.313  0.3847 -0.0583  0.0153
  588SOL    HW2 5170   1.828   6.194   3.238 -0.3075  0.0405  0.1786
  589SOL     OW 5171   4.100   5.705   6.065  0.4920  0.4086 -0.2344
  589SOL    HW1 5172   4.090   5.610   6.060  0.9630  0.3126  0.4620
  589SOL    HW2 5173   4.106   5.723   6.159 -1.5923  1.3567 -0.2593
  590SOL     OW 5174   1.455  10.787   9.755  0.5439  0.5845 -0.6999
  590SOL    HW1 5175   1.391  10.717   9.752  0.8264  0.2630  0.5182
  590SOL    HW2 5176   1.403  10.867   9.767  0.3023  0.4482 -0.8389
  591SOL     OW 5177   7.567  10.167   8.980 -0.2313 -0.2115  0.0006
  591SOL    HW1 5178   7.563  10.195   8.889  0.8396 -0.2108 -0.0466
  591SOL    HW2 5179   7.526  10.081   8.981  1.7777 -1.1958 -0.8806
  592SOL     OW 5180   0.946   4.514   9.866 -0.5735 -0.4358  0.2567
  592SOL    HW1 5181   0.972   4.422   9.879  0.3361  0.0291  1.8724
  592SOL    HW2 5182   1.021   4.564   9.898 -0.7203  0.8711 -1.4268
  593SOL     OW 5183   0.398  10.120   8.336 -0.0151  0.4215 -0.4018
  593SOL    HW1 5184   0.413  10.198   8.389  1.2144 -1.3172  1.8764
  593SOL    HW2 5185   0.415  10.150   8.246  0.1457  2.8402  0.3790
  594SOL     OW 5186   5.625   2.545   0.741 -0.1422  0.1138  0.2514
  594SOL    HW1 5187   5.635   2.608   0.669  0.3245 -3.0204 -2.5372
  594SOL    HW2 5188   5.532   2.522   0.739  0.1509 -1.0634 -0.3419
  595SOL     OW 5189   6.227   9.598  10.701 -0.3826  0.5867 -0.1626
  595SOL    HW1 5190   6.268   9.646  10.629  1.2918 -0.4143  0.0674
  595SOL    HW2 5191   6.221   9.661  10.772  0.1795  0.9347 -0.4183
  596SOL     OW 5192   3.204   0.834   1.274  0.1434 -0.1204 -0.8626
  596SOL    HW1 5193   3.171   0.920   1.300 -0.1625 -0.8355  1.1503
  596SOL    HW2 5194   3.147   0.809   1.201 -1.2695  0.3646  0.0439
  597SOL     OW 5195   8.625   0.967   0.811 -0.1337  0.0982 -0.2765
  597SOL    HW1 5196   8.692   1.035   0.814  0.9512 -0.8891 -1.1567
  597SOL    HW2 5197   8.600   0.961   0.719  2.0739 -2.7885 -0.7787
  598SOL     OW 5198   9.873   1.143   3.862  0.2027 -0.2303  0.2300
  598SOL    HW1 5199   9.920   1.155   3.779 -0.7401 -0.6326 -0.3771
  598SOL    HW2 5200   9.848   1.232   3.888 -1.4121 -0.2690 -1.0713
  599SOL     OW 5201   0.095   2.801   9.259 -0.0647 -0.2612 -0.1053
  599SOL    HW1 5202   0.077   2.892   9.237  2.5590  0.4251  0.3523
  599SOL    HW2 5203   0.117   2.760   9.175 -0.4992 -0.2793 -0.2092
  600SOL     OW 5204   4.157   6.542   2.870  0.1113 -0.0195  0.1406
  600SOL    HW1 5205   4.137   6.555   2.962  2.9339  1.3914  0.6187
  600SOL    HW2 5206   4.072   6.546   2.826 -1.1669  0.2638  2.5641
  601SOL     OW 5207   0.094   4.739   2.017  0.4124 -0.3899 -0.2971
  601SOL    HW1 5208   0.113   4.810   2.078  1.5738 -1.3601  0.4920
  601SOL    HW2 5209   0.056   4.670   2.071 -0.7179 -0.3929 -1.0601
  602SOL     OW 5210   5.107   1.712   5.112  0.3052 -0.2586  0.0225
  602SOL    HW1 5211   5.116   1.719   5.207 -2.9465 -0.4913  0.4275
  602SOL    HW2 5212   5.036   1.773   5.091 -1.0902 -2.4220 -1.8204
  603SOL     OW 5213   9.568   3.726   1.373 -0.3653  0.5111  0.2937
  603SOL    HW1 5214   9.645   3.711   1.318  0.1538  2.4001  0.4634
  603SOL    HW2 5215   9.551   3.642   1.415  0.5086 -0.3975 -1.1462
  604SOL     OW 5216   5.031   5.072   1.183  0.0824 -0.1143  0.2655
  604SOL    HW1 5217   5.063   4.993   1.139 -2.3014 -2.3652  2.3643
  604SOL    HW2 5218   4.965   5.107   1.124  0.1213 -0.5125 -0.0179
  605SOL     OW 5219   4.051   1.138   3.426  0.1868  0.2222 -0.1973
  605SOL    HW1 5220   4.112   1.065   3.440 -0.0277  0.2138  0.6962
  605SOL    HW2 5221   4.079   1.176   3.343  2.3484  1.1230  0.8835
  606SOL     OW 5222   3.962   3.903   2.522 -0.5048  0.5155  0.8723
  606SOL    HW1 5223   3.944   3.989   2.484 -1.7950  1.0502  2.6396
  606SOL    HW2 5224   3.876   3.865   2.537  0.0581 -2.0719 -1.9506
  607SOL     OW 5225   3.783  10.225   9.847 -0.8369 -0.2836 -0.4985
  607SOL    HW1 5226   3.696  10.229   9.884 -0.3282  0.9370  0.6069
  607SOL    HW2 5227   3.842  10.240   9.921  0.1809  2.5724 -1.8005
  608SOL     OW 5228   0.807   2.103   5.052 -0.2565 -0.3848 -0.4328
  608SOL    HW1 5229   0.810   2.017   5.095  1.0199 -0.2506 -0.2116
  608SOL    HW2 5230   0.881   2.102   4.991 -0.5867  0.3405 -0.8529
  609SOL     OW 5231   1.053   0.769   1.768 -0.0479  0.2149  0.5167
  609SOL    HW1 5232   1.066   0.844   1.710 -0.1814  0.0356  0.2556
  609SOL    HW2 5233   1.045   0.694   1.709  0.7200 -0.0962  0.8058
  610SOL     OW 5234   2.318   6.464   7.715  0.4012 -0.1442 -0.4481
  610SOL    HW1 5235   2.265   6.482   7.793  0.4542  0.9069 -0.6436
  610SOL    HW2 5236   2.330   6.369   7.715 -0.6842 -0.2938  0.1223
  611SOL     OW 5237   1.491   9.153   9.507  0.1445 -0.4798 -0.2359
  611SOL    HW1 5238   1.515   9.244   9.488  0.5719 -0.5304  0.0493
  611SOL    HW2 5239   1.573   9.113   9.538 -0.1691 -0.8213  0.1462
  612SOL     OW 5240   3.068   6.711   9.072 -0.1624  0.3161  0.0257
  612SOL    HW1 5241   3.025   6.684   9.153 -1.8091  0.0426 -0.9216
  612SOL    HW2 5242   2.997   6.717   9.008  1.0760  0.8210 -1.3260
  613SOL     OW 5243   0.995   3.365   5.435  0.4756  0.2373 -0.4877
  613SOL    HW1 5244   0.958   3.332   5.353  1.1669 -0.4431 -0.5344
  613SOL    HW2 5245   1.077   3.317   5.445  0.4787  0.4434  0.5143
  614SOL     OW 5246   9.192   5.241   8.387  0.4684 -0.0000 -0.4090
  614SOL    HW1 5247   9.279   5.202   8.372 -0.1265 -0.8591 -1.7219
  614SOL    HW2 5248   9.200   5.283   8.473  1.5777 -1.7937  0.4203
  615SOL     OW 5249   4.755   0.625   4.431  0.5595  0.2663  0.1716
  615SOL    HW1 5250   4.780   0.692   4.496  1.2287  0.4450 -0.2654
  615SOL    HW2 5251   4.753   0.673   4.348 -0.8593  0.1628  0.1427
  616SOL     OW 5252   1.122   8.319   7.380 -0.2651  0.0364  0.3013
  616SOL    HW1 5253   1.089   8.379   7.313  1.1016  0.6437  0.1678
  616SOL    HW2 5254   1.052   8.315   7.445 -0.7732  0.9782 -0.1802
  617SOL     OW 5255   9.178  10.523   3.810 -0.3677  0.0476  0.7347
  617SOL    HW1 5256   9.112  10.477   3.758  0.9500  0.0028 -0.9378
  617SOL    HW2 5257   9.227  10.453   3.854  0.8851 -0.1252 -0.8917
  618SOL     OW 5258   8.440  10.175   3.073  0.4151 -0.0699  0.3157
  618SOL    HW1 5259   8.425  10.260   3.114 -3.1054 -0.4988  0.0106
  618SOL    HW2 5260   8.389  10.113   3.125  0.1264 -1.4506 -1.5788
  619SOL     OW 5261   0.309   2.336   7.376  0.6507  0.2731 -0.5030
  619SOL    HW1 5262   0.394   2.369   7.347  1.0078  0.5213  0.8114
  619SOL    HW2 5263   0.323   2.309   7.466 -0.7050  0.4765 -0.2179
  620SOL     OW 5264   5.809   4.258   2.762 -0.1240 -0.3271  0.3912
  620SOL    HW1 5265   5.806   4.236   2.856 -0.1845  1.2398  0.7708
  620SOL    HW2 5266   5.889   4.309   2.752  0.0559 -0.7746 -0.4868
  621SOL     OW 5267   5.839   6.997   9.015  0.0106 -0.8269  0.1283
  621SOL    HW1 5268   5.768   7.051   9.051  0.0317  0.1150 -1.1846
  621SOL    HW2 5269   5.912   7.058   9.004  0.1418 -1.1855 -1.0758
  622SOL     OW 5270   5.507   1.023   9.264  0.1906 -0.0072 -0.0003
  622SOL    HW1 5271   5.417   0.999   9.242  0.4931 -0.4000 -0.8193
  622SOL    HW2 5272   5.553   1.025   9.180  0.5338  1.9476  0.2092
  623SOL     OW 5273   1.398   3.850   6.226 -0.3421 -0.4495 -0.0395
  623SOL    HW1 5274   1.471   3.902   6.260  0.1533 -2.6575  2.4432
  623SOL    HW2 5275   1.320   3.896   6.256  0.0797 -0.3582  0.9399
  624SOL     OW 5276   1.812   1.943   4.442 -0.1174 -0.7648 -0.3464
  624SOL    HW1 5277   1.902   1.915   4.428  0.9279  1.7080  0.9673
  624SOL    HW2 5278   1.772   1.873   4.494  1.1660 -1.6884 -0.5906
  625SOL     OW 5279   6.792   4.544   0.898  0.0284  0.3187 -0.1915
  625SOL    HW1 5280   6.762   4.519   0.810  0.5729  2.5226 -1.0416
  625SOL    HW2 5281   6.873   4.495   0.910  0.0446  0.1347 -0.9974
  626SOL     OW 5282  10.115   7.119  10.190  0.2516 -0.1293 -0.4346
  626SOL    HW1 5283  10.084   7.118  10.100 -0.8560  0.2778 -0.0634
  626SOL    HW2 5284  10.051   7.065  10.238  1.9724 -2.0941 -0.2589
  627SOL     OW 5285   7.338   1.238   8.678 -0.0246  0.5774 -0.8743
  627SOL    HW1 5286   7.258   1.291   8.688  0.0031  0.5686 -0.5967
  627SOL    HW2 5287   7.319   1.181   8.604 -0.2625  0.6034 -0.8366
  628SOL     OW 5288   5.464   7.574   7.728  0.1719 -0.1215 -0.1166
  628SOL    HW1 5289   5.558   7.587   7.712  0.7767 -4.0885 -0.4686
  628SOL    HW2 5290   5.424   7.577   7.641  0.3659 -0.9537 -0.2384
  629SOL     OW 5291   0.927   7.455   7.681  0.2751  0.0538  0.2770
  629SOL    HW1 5292   0.981   7.400   7.624 -0.3148  0.5372 -0.7783
  629SOL    HW2 5293   0.888   7.394   7.743  0.3022 -0.5986 -0.3401
  630SOL     OW 5294   1.869   2.410   4.381 -0.4772 -0.4461  0.4802
  630SOL    HW1 5295   1.914   2.354   4.445 -0.8177 -1.7605 -0.3945
  630SOL    HW2 5296   1.777   2.407   4.407 -0.5334 -0.5173  0.2749
  631SOL     OW 5297   4.873   2.931   4.536 -0.0961  0.1917  0.4169
  631SOL    HW1 5298   4.841   2.840   4.539 -1.2036  0.6082  2.1330
  631SOL    HW2 5299   4.808   2.977   4.482  0.4479 -0.0248 -0.4268
  632SOL     OW 5300   3.892   3.501   1.185  0.2945 -0.2234 -0.0758
  632SOL    HW1 5301   3.797   3.491   1.183  0.2979 -0.5076  0.9219
  632SOL    HW2 5302   3.910   3.542   1.269  1.0114  0.3473 -0.5025
  633SOL     OW 5303   1.816  10.848   4.142 -0.0448 -0.3166 -0.5342
  633SOL    HW1 5304   1.906  10.842   4.174  0.3671 -0.3515 -1.6746
  633SOL    HW2 5305   1.825  10.867   4.048 -1.1617 -3.3324 -1.3399
  634SOL     OW 5306   5.636   4.211   6.355 -0.0260  0.3298  0.1905
  634SOL    HW1 5307   5.671   4.286   6.307  0.7975  0.3840  0.8735
  634SOL    HW2 5308   5.666   4.135   6.305  0.6325  0.3932  0.4933
  635SOL     OW 5309   3.000   7.955  10.351  0.4556  0.5715 -0.0815
  635SOL    HW1 5310   2.939   7.899  10.302  0.0120  1.4738 -0.5688
  635SOL    HW2 5311   3.041   7.895  10.413  1.5229 -0.7602 -1.9985
  636SOL     OW 5312   9.409   5.439   1.493  0.7063 -0.3136  0.0584
  636SOL    HW1 5313   9.359   5.509   1.451  0.5102 -0.4856 -0.0001
  636SOL    HW2 5314   9.413   5.464   1.585  2.1735  0.6679 -0.2715
  637SOL     OW 5315   7.973  10.110   6.015  0.2100  0.2715  0.0608
  637SOL    HW1 5316   7.927  10.113   5.931 -1.2547  1.6364  0.8789
  637SOL    HW2 5317   8.044  10.174   6.006 -0.3190  0.8651  0.0687
  638SOL     OW 5318  10.920   8.277   4.535  0.5566  0.1393 -0.2605
  638SOL    HW1 5319  10.840   8.257   4.487 -0.0277 -0.3201  0.8941
  638SOL    HW2 5320  10.937   8.199   4.587  1.2454  0.5991  0.2057
  639SOL     OW 5321   2.640   9.564   3.841 -0.2047  0.1062 -0.1340
  639SOL    HW1 5322   2.692   9.538   3.765 -1.1268 -2.0910 -0.0666
  639SOL    HW2 5323   2.590   9.485   3.863 -0.6155  0.9834  2.1978
  640SOL     OW 5324   3.898   6.374   5.836  0.8388  0.4821  0.0212
  640SOL    HW1 5325   3.808   6.380   5.868  0.1348 -0.8755 -1.6263
  640SOL    HW2 5326   3.949   6.347   5.912 -0.4214 -0.3760  0.5731
  641SOL     OW 5327   6.330   4.137   3.250  0.2883 -0.9026  0.6357
  641SOL    HW1 5328   6.404   4.197   3.244 -1.7412  1.6464 -0.0268
  641SOL    HW2 5329   6.273   4.176   3.317 -2.0104 -0.9671 -1.2036
  642SOL     OW 5330   6.051   2.443   0.838 -0.7517  0.0433  0.6785
  642SOL    HW1 5331   6.103   2.454   0.759 -1.7112 -0.3939 -0.0133
  642SOL    HW2 5332   6.110   2.400   0.900 -0.1570 -0.0609  0.0421
  643SOL     OW 5333   9.137   1.433   9.883 -0.3475 -0.1132 -0.0179
  643SOL    HW1 5334   9.155   1.507   9.942 -0.3399  0.5920 -0.8858
  643SOL    HW2 5335   9.060   1.461   9.834  0.5160 -0.0687 -1.3730
  644SOL     OW 5336   6.664   8.643   1.436  0.2826  0.5863 -0.1238
  644SOL    HW1 5337   6.730   8.680   1.495  0.9275  0.6643 -0.8922
  644SOL    HW2 5338   6.587   8.698   1.449  0.5857  0.9292  0.2552
  645SOL     OW 5339  10.475   3.992   1.901 -0.1924  0.1668  0.2160
  645SOL    HW1 5340  10.557   3.952   1.928  0.3746  0.7145 -0.6700
  645SOL    HW2 5341  10.454   4.053   1.972  2.0311  2.6553 -1.1847
  646SOL     OW 5342   0.351  10.593   0.783  0.7249 -0.7413  0.2181
  646SOL    HW1 5343   0.308  10.512   0.810  1.1874 -1.4841 -1.2099
  646SOL    HW2 5344   0.418  10.608   0.850  1.7348 -2.4489 -0.3644
  647SOL     OW 5345  10.732   4.720   1.725 -0.1469 -0.6094 -0.5333
  647SOL    HW1 5346  10.773   4.720   1.639  0.2372  0.2518 -0.3534
  647SOL    HW2 5347  10.670   4.647   1.722  0.5077 -1.1467 -1.2262
  648SOL     OW 5348  10.333   6.043   4.422 -0.2049 -0.3475 -0.4842
  648SOL    HW1 5349  10.245   6.072   4.397  0.0347  0.8057 -0.0113
  648SOL    HW2 5350  10.392   6.095   4.367  0.2566  0.7511  1.0174
  649SOL     OW 5351   9.213   9.870   8.507  0.3698 -0.2364  0.0213
  649SOL    HW1 5352   9.285   9.900   8.452  0.2809  0.5321  0.3168
  649SOL    HW2 5353   9.180   9.792   8.463  0.2969  0.3676 -1.0239
  650SOL     OW 5354   0.145   4.052   2.801  0.2356  0.2827  0.3735
  650SOL    HW1 5355   0.101   3.999   2.868 -1.3912  1.0923 -0.0418
  650SOL    HW2 5356   0.125   4.008   2.719  1.6546 -0.3202  0.3494
  651SOL     OW 5357   2.414   6.824   6.880  0.5859  0.3928  0.6811
  651SOL    HW1 5358   2.360   6.889   6.834 -0.2312 -0.4761  0.4093
  651SOL    HW2 5359   2.433   6.758   6.814  0.9654  0.0723  1.1098
  652SOL     OW 5360   5.558   7.088   0.406  0.0480 -0.0177  0.5407
  652SOL    HW1 5361   5.554   7.134   0.322  1.1284  0.6260  0.8456
  652SOL    HW2 5362   5.533   7.153   0.471  0.0419 -0.2853  0.8088
  653SOL     OW 5363   6.932   7.541   3.997 -0.3196  0.3459  0.4852
  653SOL    HW1 5364   6.872   7.613   4.018 -0.0152  0.4243  1.1212
  653SOL    HW2 5365   7.018   7.583   3.991 -0.5809  0.5663 -2.4358
  654SOL     OW 5366   7.655   3.983   9.192  0.3387  0.3339  0.0479
  654SOL    HW1 5367   7.631   4.052   9.254 -4.0893  0.1576 -1.2599
  654SOL    HW2 5368   7.688   4.030   9.116  1.0900  0.8175  0.6714
  655SOL     OW 5369  10.438  10.956   6.387  0.2322  0.0991 -0.9783
  655SOL    HW1 5370  10.407  10.964   6.297 -1.4292 -1.4983 -0.5653
  655SOL    HW2 5371  10.359  10.963   6.440  0.5494 -3.8820  0.1030
  656SOL     OW 5372   0.974  10.128   9.839  0.6288  0.3381  0.1800
  656SOL    HW1 5373   0.916  10.151   9.911  1.8830  0.7128  1.0842
  656SOL    HW2 5374   1.023  10.052   9.870 -0.3576 -0.8574 -1.1129
  657SOL     OW 5375   0.561   3.619   9.438  0.1064  0.0328  0.1224
  657SOL    HW1 5376   0.557   3.546   9.500  0.0592  0.6478  0.8479
  657SOL    HW2 5377   0.506   3.687   9.477 -1.2465 -0.1758 -1.4005
  658SOL     OW 5378   6.226   1.313   8.795  0.9081  0.1407 -0.4436
  658SOL    HW1 5379   6.280   1.392   8.781 -0.7418  0.8740 -2.9663
  658SOL    HW2 5380   6.233   1.265   8.712 -2.0753  0.1374 -0.7418
  659SOL     OW 5381   9.021   4.383   4.840 -0.3047  0.2767  0.6988
  659SOL    HW1 5382   8.983   4.323   4.776  1.7075 -1.6991  1.2983
  659SOL    HW2 5383   9.000   4.470   4.806 -3.8053 -0.7172  0.1327
  660SOL     OW 5384   4.707   6.269   6.144  0.3672  0.3264  0.1380
  660SOL    HW1 5385   4.782   6.222   6.107 -0.3507 -0.2385 -0.6252
  660SOL    HW2 5386   4.712   6.253   6.238  1.5393  0.7840  0.1570
  661SOL     OW 5387   6.166   5.084   2.702  0.5563  0.0036 -0.5972
  661SOL    HW1 5388   6.161   5.172   2.740  1.6951 -0.3511  0.4114
  661SOL    HW2 5389   6.259   5.072   2.683  0.5318 -1.3481  0.1241
  662SOL     OW 5390   9.171   9.610   2.104 -0.0731 -0.6039  0.7390
  662SOL    HW1 5391   9.245   9.555   2.080 -0.0795 -0.9508  1.4936
  662SOL    HW2 5392   9.199   9.653   2.185  0.1289  0.8930 -0.1106
  663SOL     OW 5393   5.548   6.288   5.649 -0.6042  0.0512 -0.2116
  663SOL    HW1 5394   5.463   6.245   5.637 -0.8188  0.4542 -0.1329
  663SOL    HW2 5395   5.611   6.216   5.653 -1.0549 -0.3077  0.6979
  664SOL     OW 5396   8.019   5.376   4.193 -0.2097  0.2454  0.2577
  664SOL    HW1 5397   7.986   5.461   4.163  0.2665  0.8446  1.3980
  664SOL    HW2 5398   7.941   5.320   4.196 -0.5387  0.6543 -0.4401
  665SOL     OW 5399   2.388   9.109   8.275  0.3930 -0.2383  0.1401
  665SOL    HW1 5400   2.344   9.174   8.221 -0.3555 -0.7492  0.1295
  665SOL    HW2 5401   2.393   9.031   8.219  1.8410 -0.0094 -0.0718
  666SOL     OW 5402   9.374   2.267   6.614  0.2624  0.2215  0.3389
  666SOL    HW1 5403   9.283   2.265   6.645 -0.5772  1.8297 -1.8747
  666SOL    HW2 5404   9.382   2.189   6.559  0.3461 -0.1233  0.8355
  667SOL     OW 5405   3.854   5.572   9.202 -0.5717 -0.4463  0.1462
  667SOL    HW1 5406   3.894   5.517   9.135 -1.9555  0.2164 -1.2464
  667SOL    HW2 5407   3.769   5.533   9.218 -0.5854 -0.1078  0.8941
  668SOL     OW 5408   8.241   8.016   1.225  0.0323  0.4473  0.2382
  668SOL    HW1 5409   8.159   8.064   1.218 -0.5928 -0.6756 -0.2671
  668SOL    HW2 5410   8.302   8.078   1.265 -1.3739  0.9060  1.6941
  669SOL     OW 5411   4.645   3.401   8.519 -0.2021 -0.0045  0.3013
  669SOL    HW1 5412   4.637   3.317   8.564 -0.8577  0.1379  0.4540
  669SOL    HW2 5413   4.604   3.464   8.579  1.8978  0.7188  1.0272
  670SOL     OW 5414   3.401   0.225   0.448  0.0100 -0.2681 -0.1916
  670SOL    HW1 5415   3.366   0.142   0.480  1.4724 -0.5379  0.7957
  670SOL    HW2 5416   3.407   0.280   0.526  1.4607 -0.1427 -0.3790
  671SOL     OW 5417   0.714   4.327  10.692 -0.2276 -0.5741 -0.2236
  671SOL    HW1 5418   0.692   4.259  10.756 -0.3592  0.8118  1.2420
  671SOL    HW2 5419   0.673   4.298  10.611 -0.6281 -2.0393  0.4876
  672SOL     OW 5420   5.525   8.213   1.024 -0.6433 -0.4554  0.6163
  672SOL    HW1 5421   5.443   8.186   1.066 -1.3560  1.4756  0.5165
  672SOL    HW2 5422   5.516   8.307   1.013  2.1535 -0.0132  1.8190
  673SOL     OW 5423   8.450   2.293   6.334  0.5283  0.2064 -0.3524
  673SOL    HW1 5424   8.503   2.371   6.315 -3.3336  2.4574 -2.4367
  673SOL    HW2 5425   8.386   2.323   6.399 -1.7438 -0.8672 -2.0400
  674SOL     OW 5426   2.511   4.169   3.353 -0.1896 -0.0900 -0.5974
  674SOL    HW1 5427   2.527   4.176   3.447  1.3985  0.7182 -0.9137
  674SOL    HW2 5428   2.454   4.243   3.334 -0.5684 -0.2932 -0.2617
  675SOL     OW 5429   6.599   0.715   1.985 -0.2770  1.1345 -0.1247
  675SOL    HW1 5430   6.689   0.733   2.013  0.7712  0.7688 -3.0541
  675SOL    HW2 5431   6.564   0.802   1.963 -0.4477  1.2124  0.4462
  676SOL     OW 5432  10.122   3.118   4.815  0.2554 -1.5052 -0.0026
  676SOL    HW1 5433  10.111   3.190   4.753 -0.1582 -1.1744  0.4494
  676SOL    HW2 5434  10.200   3.072   4.785  0.0062 -1.3970 -0.8156
  677SOL     OW 5435   6.218   5.748   2.000  0.6252  0.2731  0.5119
  677SOL    HW1 5436   6.234   5.671   1.945  1.2381  0.4435  0.4514
  677SOL    HW2 5437   6.124   5.746   2.016  0.8630 -1.3892  1.8282
  678SOL     OW 5438   3.139   6.777   3.554 -0.1075 -0.4033 -0.0606
  678SOL    HW1 5439   3.115   6.762   3.463 -0.0379 -0.7650 -0.0207
  678SOL    HW2 5440   3.186   6.860   3.554 -3.4025  1.5254  0.2052
  679SOL     OW 5441   8.152   8.124   0.073  0.4552  0.0181 -0.3939
  679SOL    HW1 5442   8.098   8.153  -0.001  1.4009 -1.4802 -1.7072
  679SOL    HW2 5443   8.100   8.057   0.116  1.7469 -2.4169 -2.4736
  680SOL     OW 5444   6.587   2.249   0.977  0.0822 -0.3391  0.0350
  680SOL    HW1 5445   6.639   2.324   1.005 -1.7497  0.2996  1.8578
  680SOL    HW2 5446   6.636   2.173   1.008  0.3914  0.2163  0.9318
  681SOL     OW 5447   4.808   0.071   3.206 -0.5824  0.0715 -0.4890
  681SOL    HW1 5448   4.800   0.103   3.117 -0.2002  1.1884 -0.1289
  681SOL    HW2 5449   4.857  -0.011   3.198 -0.9620 -0.0710 -1.3425
  682SOL     OW 5450   1.179  10.304   3.953  0.0188 -0.5380  0.7995
  682SOL    HW1 5451   1.156  10.257   3.873  2.4301  0.1211 -0.3176
  682SOL    HW2 5452   1.151  10.394   3.936  0.6106 -0.3798  0.6465
  683SOL     OW 5453  10.322   7.711   8.989  0.3618 -0.1160 -0.5188
  683SOL    HW1 5454  10.417   7.699   8.980  0.3397 -0.7348  0.0598
  683SOL    HW2 5455  10.312   7.788   9.044  0.5297 -0.0453 -0.5885
  684SOL     OW 5456   3.824   6.678   7.029  0.1530  0.3521  0.2148
  684SOL    HW1 5457   3.742   6.629   7.039  0.7240 -0.9024 -1.0654
  684SOL    HW2 5458   3.803   6.747   6.966  0.5434 -1.0795 -1.4998
  685SOL     OW 5459   8.743   6.975   8.074 -0.3427 -0.1157  0.4635
  685SOL    HW1 5460   8.747   6.946   8.165  0.8406  2.9693  1.4435
  685SOL    HW2 5461   8.658   7.018   8.066 -1.5444 -2.5740 -0.6381
  686SOL     OW 5462   1.336   6.794   3.809 -0.2735  0.6890  0.0224
  686SOL    HW1 5463   1.280   6.873   3.814  0.0445  0.9704 -0.8627
  686SOL    HW2 5464   1.275   6.721   3.819 -0.5871  1.0453  0.7400
  687SOL     OW 5465   9.923  10.203   8.816 -0.5011  0.4415 -0.5087
  687SOL    HW1 5466   9.901  10.112   8.794  2.5749  0.0318 -2.1507
  687SOL    HW2 5467   9.885  10.254   8.744  0.4790  0.1272 -1.2580
  688SOL     OW 5468   3.223   4.910   0.862  0.3230 -0.7254 -0.4283
  688SOL    HW1 5469   3.162   4.975   0.898  1.7883  0.0488  0.7200
  688SOL    HW2 5470   3.265   4.954   0.788 -0.1811 -1.0991 -0.9381
  689SOL     OW 5471   9.126   4.908   4.422  0.4630 -0.1716  0.1550
  689SOL    HW1 5472   9.150   4.930   4.512  1.3724 -0.0391 -0.1132
  689SOL    HW2 5473   9.152   4.816   4.412  2.2537  0.3816 -0.5843
  690SOL     OW 5474   7.294   7.890   9.507  0.4213  0.6321  0.5814
  690SOL    HW1 5475   7.328   7.980   9.506 -0.3679  0.9327  0.9364
  690SOL    HW2 5476   7.210   7.896   9.551 -0.8536  0.1482 -1.6786
  691SOL     OW 5477   2.854   2.183   9.362 -0.0333  0.3084  0.0835
  691SOL    HW1 5478   2.905   2.164   9.283 -0.6218  0.1421 -0.2601
  691SOL    HW2 5479   2.898   2.258   9.402  0.4931  0.1522 -0.1994
  692SOL     OW 5480   6.249  10.775   7.187 -0.2591  0.9893  0.1270
  692SOL    HW1 5481   6.232  10.858   7.142  0.4926  0.5879 -0.9392
  692SOL    HW2 5482   6.286  10.800   7.272  3.2094  1.7743 -1.5041
  693SOL     OW 5483   6.667   6.984   2.589 -0.2373 -0.1124  0.0482
  693SOL    HW1 5484   6.736   6.988   2.522  0.8040  0.5136  1.1361
  693SOL    HW2 5485   6.586   6.998   2.541  0.4940  0.2284 -1.1036
  694SOL     OW 5486  10.538   4.218   8.963 -0.3340  0.2383 -0.3989
  694SOL    HW1 5487  10.587   4.209   9.045  1.1028  1.5771 -1.0980
  694SOL    HW2 5488  10.532   4.129   8.929  2.3207  0.1421 -0.6973
  695SOL     OW 5489   5.874   1.059   2.809 -0.2599  0.2320  0.2835
  695SOL    HW1 5490   5.941   1.060   2.878  2.1473 -1.9883 -1.8995
  695SOL    HW2 5491   5.800   1.012   2.848  1.1162 -1.1124  1.3565
  696SOL     OW 5492   4.773  10.562  10.938 -0.2170  0.0363  0.1905
  696SOL    HW1 5493   4.822  10.626  10.887  2.0895 -1.2443  0.6949
  696SOL    HW2 5494   4.730  10.613  11.006 -0.2750  1.3065 -0.7867
  697SOL     OW 5495   0.319  10.234   4.468 -0.5857  0.0018 -0.1386
  697SOL    HW1 5496   0.228  10.255   4.446 -0.7292 -0.0978  0.3505
  697SOL    HW2 5497   0.356  10.199   4.387 -1.1293 -0.4325 -0.2048
  698SOL     OW 5498   2.677   8.848   8.458 -0.0683  0.4330  0.0005
  698SOL    HW1 5499   2.643   8.843   8.548  0.3149  1.2277  0.2000
  698SOL    HW2 5500   2.683   8.942   8.441  1.3754  0.2873 -0.2934
  699SOL     OW 5501   8.790   8.150   5.731  0.1768  0.7551  0.2049
  699SOL    HW1 5502   8.702   8.186   5.718 -0.5622 -0.3468  1.8885
  699SOL    HW2 5503   8.797   8.081   5.665 -0.3297  0.6673  0.2401
  700SOL     OW 5504   3.081   1.318   6.699 -0.8778 -0.7581  0.2553
  700SOL    HW1 5505   3.067   1.348   6.788 -2.1809  2.3175 -0.9036
  700SOL    HW2 5506   3.169   1.282   6.699  0.5925  2.6173  1.9749
  701SOL     OW 5507   3.189   8.065   8.451  0.6234 -0.1802 -0.4251
  701SOL    HW1 5508   3.204   7.972   8.466  0.1414 -0.1395  0.3722
  701SOL    HW2 5509   3.122   8.069   8.384 -0.5733 -0.4366  0.7319
  702SOL     OW 5510   3.131   9.705   4.241 -0.1202 -0.1449  0.1575
  702SOL    HW1 5511   3.206   9.728   4.295  0.3872 -0.5382 -0.3800
  702SOL    HW2 5512   3.167   9.688   4.154 -0.7622 -0.8235  0.0126
  703SOL     OW 5513   2.022   5.183   2.105 -0.0361  0.0819  0.7011
  703SOL    HW1 5514   1.964   5.221   2.038  0.3039  1.3234  1.1168
  703SOL    HW2 5515   2.063   5.258   2.147  1.6023 -0.7772  0.6745
  704SOL     OW 5516   1.928   6.332   4.848  0.2235  0.1694  0.1734
  704SOL    HW1 5517   1.854   6.377   4.808 -0.5593 -0.8977  0.4078
  704SOL    HW2 5518   1.911   6.336   4.942 -0.2160 -1.2200  0.1658
  705SOL     OW 5519  10.863   7.311   7.245  0.5610  0.1163  0.1110
  705SOL    HW1 5520  10.949   7.283   7.215  0.8329  0.4247  0.5943
  705SOL    HW2 5521  10.842   7.387   7.190 -0.3845 -1.2753 -1.5223
  706SOL     OW 5522   6.216   8.529   9.275  0.2840 -0.7335 -0.9953
  706SOL    HW1 5523   6.289   8.469   9.261  3.3515  2.6876 -0.1635
  706SOL    HW2 5524   6.242   8.582   9.350 -3.4027  0.1424 -0.2217
  707SOL     OW 5525   6.768   2.540   4.974 -0.3668  0.0199 -0.7534
  707SOL    HW1 5526   6.680   2.516   5.002 -0.6303  0.7479 -0.9606
  707SOL    HW2 5527   6.801   2.596   5.045 -0.3648  0.3856 -1.0412
  708SOL     OW 5528  10.463   3.763   4.490 -0.5311 -0.0285  0.8337
  708SOL    HW1 5529  10.409   3.838   4.515 -1.6570 -0.1975 -0.9253
  708SOL    HW2 5530  10.435   3.693   4.548  1.1398  1.1100  3.0714
  709SOL     OW 5531   5.527   3.553   4.979  0.2117 -0.3114 -0.5494
  709SOL    HW1 5532   5.466   3.490   5.019 -0.8895 -0.5138 -2.4526
  709SOL    HW2 5533   5.482   3.637   4.986  0.8362 -0.0356  0.2671
  710SOL     OW 5534  10.010  10.515   6.581 -0.1147 -0.2783 -0.6235
  710SOL    HW1 5535   9.984  10.539   6.670 -0.2343  2.0438 -1.2564
  710SOL    HW2 5536   9.953  10.441   6.559  1.7008 -2.5894  2.1553
  711SOL     OW 5537   0.920   7.103  10.119  0.3878  0.5428  0.2559
  711SOL    HW1 5538   0.901   7.009  10.129 -0.9458  0.5437 -1.9595
  711SOL    HW2 5539   0.915   7.138  10.208 -2.3561 -0.9381  0.7364
  712SOL     OW 5540   8.605   4.083   0.361 -0.1513  0.5494  0.3702
  712SOL    HW1 5541   8.690   4.040   0.371 -1.5002 -2.1299  0.7341
  712SOL    HW2 5542   8.578   4.105   0.450 -0.7320 -0.4069  0.4329
  713SOL     OW 5543   8.383   4.548   1.021 -0.4854 -0.1246 -0.0090
  713SOL    HW1 5544   8.400   4.497   0.942  2.1246  0.3234  0.2107
  713SOL    HW2 5545   8.416   4.494   1.093 -0.6582  0.4895  0.5408
  714SOL     OW 5546   8.530   5.399   4.987  0.2945  0.3146 -0.4274
  714SOL    HW1 5547   8.496   5.330   4.930 -0.8801  1.0614 -0.6489
  714SOL    HW2 5548   8.595   5.355   5.041 -0.1236 -0.8730 -0.8678
  715SOL     OW 5549   0.183   8.024   0.040 -0.7051 -0.1773 -0.4042
  715SOL    HW1 5550   0.246   7.954   0.023 -0.4942 -0.1196  0.1294
  715SOL    HW2 5551   0.190   8.082  -0.036 -0.1999 -0.2331 -0.4001
  716SOL     OW 5552   9.281   5.211   9.257 -0.3941  0.2543  0.0299
  716SOL    HW1 5553   9.222   5.147   9.217  0.5337 -1.3040  1.0892
  716SOL    HW2 5554   9.347   5.228   9.189 -0.1655 -0.5585  0.0464
  717SOL     OW 5555   8.389   8.611   6.198 -0.0951  0.2608  0.1741
  717SOL    HW1 5556   8.359   8.632   6.287 -0.5198  3.0935 -0.6047
  717SOL    HW2 5557   8.329   8.659   6.141 -0.1158 -1.9128 -1.6857
  718SOL     OW 5558  10.852   4.290   7.436  0.2875  0.7347 -0.0909
  718SOL    HW1 5559  10.845   4.286   7.341  0.5316 -1.1788 -0.0312
  718SOL    HW2 5560  10.774   4.246   7.468  0.6561  0.5759  0.5966
  719SOL     OW 5561   2.680   0.528   1.762 -0.6601 -0.5020 -0.1309
  719SOL    HW1 5562   2.709   0.517   1.671  0.6803 -3.2411  0.5980
  719SOL    HW2 5563   2.617   0.457   1.776 -1.4358  0.3679  0.8704
  720SOL     OW 5564   7.667   1.626   2.565  0.5364 -0.4203  0.2478
  720SOL    HW1 5565   7.689   1.702   2.619  1.6096  0.1357 -0.9406
  720SOL    HW2 5566   7.703   1.552   2.613  1.7665  0.0989  0.1581
  721SOL     OW 5567   6.889   4.066   0.110  0.4957 -0.0821 -0.0974
  721SOL    HW1 5568   6.883   4.045   0.017 -0.5338 -1.1176  0.1765
  721SOL    HW2 5569   6.969   4.024   0.140 -0.7820 -2.4661  0.1236
  722SOL     OW 5570   1.345  10.757   5.210  0.2634 -0.4109 -0.4709
  722SOL    HW1 5571   1.344  10.692   5.280  0.9872 -1.0189 -1.0130
  722SOL    HW2 5572   1.281  10.823   5.237 -1.8947 -2.2827 -0.7752
  723SOL     OW 5573   9.628   7.345   3.042  0.8397  0.2036 -0.1300
  723SOL    HW1 5574   9.696   7.280   3.023  1.1130 -0.6041  3.2390
  723SOL    HW2 5575   9.675   7.428   3.049  1.3558 -0.1591  0.9605
  724SOL     OW 5576   0.547   9.089  10.412  0.4576  0.3598 -0.7420
  724SOL    HW1 5577   0.577   9.171  10.452 -0.8755  1.5216 -2.0648
  724SOL    HW2 5578   0.462   9.111  10.373 -0.5037 -1.9716 -0.0554
  725SOL     OW 5579   0.890   9.111   1.325 -0.1231  0.6540 -0.4291
  725SOL    HW1 5580   0.799   9.078   1.326  0.7577 -1.9038  1.5806
  725SOL    HW2 5581   0.890   9.182   1.388 -0.6329  0.4086 -0.1479
  726SOL     OW 5582   3.137   7.288   1.009  0.3979 -0.5561 -0.5488
  726SOL    HW1 5583   3.112   7.205   0.968 -1.6875 -0.3921  0.3156
  726SOL    HW2 5584   3.138   7.352   0.937  1.5335 -1.2113 -1.1316
  727SOL     OW 5585   7.670   7.647   6.841  0.1317 -0.2917  0.0223
  727SOL    HW1 5586   7.596   7.647   6.902 -0.1466 -1.3950 -0.3058
  727SOL    HW2 5587   7.633   7.613   6.759  1.3151 -2.1985  0.2526
  728SOL     OW 5588   8.431   2.197   9.705  0.1445 -0.3419  0.5457
  728SOL    HW1 5589   8.360   2.259   9.689  0.1705 -0.4531  0.0172
  728SOL    HW2 5590   8.427   2.180   9.799  0.2176  0.5593  0.7179
  729SOL     OW 5591  10.307   7.196   6.657  0.3288  0.1707  0.5988
  729SOL    HW1 5592  10.384   7.249   6.636 -0.6379  1.8249  1.1679
  729SOL    HW2 5593  10.280   7.160   6.572  1.1399  0.3723  0.2426
  730SOL     OW 5594   2.642   1.780   6.941  0.1146 -0.3274  0.1007
  730SOL    HW1 5595   2.693   1.737   7.010 -0.7567  0.4475  1.2424
  730SOL    HW2 5596   2.551   1.775   6.972 -0.3651 -0.5951 -1.3260
  731SOL     OW 5597   5.441   0.897  10.237  0.0838  0.4384  0.0542
  731SOL    HW1 5598   5.458   0.992  10.237  0.6052  0.3564  1.5546
  731SOL    HW2 5599   5.365   0.887  10.294 -0.3497  0.0172 -0.6037
  732SOL     OW 5600   1.863   5.396   7.109  0.1386 -0.5616  0.6121
  732SOL    HW1 5601   1.941   5.341   7.104  1.0563  0.8870 -0.9809
  732SOL    HW2 5602   1.861   5.426   7.200  1.3100 -0.7784  0.7139
  733SOL     OW 5603   5.957   7.324   6.879 -0.1924 -0.2470 -0.2906
  733SOL    HW1 5604   5.999   7.410   6.881 -1.8096  0.6134 -1.9568
  733SOL    HW2 5605   5.906   7.321   6.960  2.4716 -1.0336  1.4218
  734SOL     OW 5606   2.475   0.375   9.404 -0.3831 -0.1939 -0.6944
  734SOL    HW1 5607   2.486   0.438   9.332  0.0309  1.2239  0.5706
  734SOL    HW2 5608   2.522   0.415   9.478 -1.5125 -1.2052  0.5954
  735SOL     OW 5609   8.833   8.388   9.087  0.3192 -0.7380 -0.0413
  735SOL    HW1 5610   8.867   8.466   9.131  4.1888 -1.2503 -1.9292
  735SOL    HW2 5611   8.874   8.315   9.133  0.8656 -1.4470 -1.6309
  736SOL     OW 5612   5.948   4.919   9.852 -0.1547 -0.2923  0.0026
  736SOL    HW1 5613   5.987   4.879   9.929  0.6570 -0.4933 -0.5112
  736SOL    HW2 5614   5.893   4.989   9.887 -1.0310 -1.3905  0.8546
  737SOL     OW 5615   4.148   6.788   0.550  0.3321 -0.1313 -0.6380
  737SOL    HW1 5616   4.220   6.737   0.513  0.5775 -0.5510  0.4268
  737SOL    HW2 5617   4.076   6.776   0.488  0.6424 -1.1010 -0.8154
  738SOL     OW 5618   7.981   2.158   4.433  0.1435  0.1057  0.1602
  738SOL    HW1 5619   8.071   2.189   4.420  0.3497  0.6381  2.5759
  738SOL    HW2 5620   7.946   2.215   4.502 -2.2289  0.2353 -1.1257
  739SOL     OW 5621  10.500   8.602   1.806 -0.3694 -0.1005  0.3433
  739SOL    HW1 5622  10.447   8.680   1.790 -0.9554 -0.2948  1.2987
  739SOL    HW2 5623  10.471   8.539   1.740  0.4517  0.6382 -0.7531
  740SOL     OW 5624   8.554   8.544   0.317  0.1091  0.6678  0.1883
  740SOL    HW1 5625   8.473   8.580   0.281  0.3358 -0.9021 -2.0268
  740SOL    HW2 5626   8.530   8.515   0.405 -1.1789  2.1957  0.3605
  741SOL     OW 5627   6.971   6.780   2.902 -0.1190  0.0029 -0.3199
  741SOL    HW1 5628   6.897   6.763   2.844 -0.1689 -3.1459  0.5827
  741SOL    HW2 5629   6.931   6.800   2.987  0.0428 -0.0614 -0.2281
  742SOL     OW 5630   8.379   5.956   7.521 -0.2061 -0.0590  0.0252
  742SOL    HW1 5631   8.416   5.893   7.460  1.1589  1.5812 -0.8930
  742SOL    HW2 5632   8.453   6.011   7.547 -1.9081  3.2966 -1.8240
  743SOL     OW 5633   7.403   4.566  10.940  0.2901  0.0195 -0.3268
  743SOL    HW1 5634   7.383   4.549  10.847 -0.4493  0.4695 -0.2592
  743SOL    HW2 5635   7.424   4.481  10.976 -0.0891 -0.2639 -0.7593
  744SOL     OW 5636   9.748   2.508   0.025  0.6749 -0.2816 -0.2850
  744SOL    HW1 5637   9.700   2.434  -0.013  2.2186 -0.5481 -1.7857
  744SOL    HW2 5638   9.742   2.577  -0.041  1.3696  0.0748  0.0208
  745SOL     OW 5639   3.173   2.814   4.890  0.0637  0.2315  0.0846
  745SOL    HW1 5640   3.150   2.906   4.876 -3.0181 -0.4605  0.2618
  745SOL    HW2 5641   3.217   2.788   4.809 -0.9798  1.2892 -0.8312
  746SOL     OW 5642   7.530   5.992   5.948 -0.7179  0.4015  0.1462
  746SOL    HW1 5643   7.463   5.975   6.014 -0.3777 -1.3279  0.0509
  746SOL    HW2 5644   7.608   6.016   5.998 -0.3982 -1.1229  0.3801
  747SOL     OW 5645  10.137   0.801   5.081  0.5640  0.1907  0.1380
  747SOL    HW1 5646  10.179   0.879   5.116  0.0085  0.2389  0.7008
  747SOL    HW2 5647  10.046   0.808   5.109  0.1342  0.1822 -1.2350
  748SOL     OW 5648   1.278   8.845   9.785  0.1080  0.7938 -0.1759
  748SOL    HW1 5649   1.246   8.913   9.844  0.2053  2.6847 -2.2018
  748SOL    HW2 5650   1.221   8.770   9.801 -0.3596  1.5380  1.7391
  749SOL     OW 5651   7.640   5.010   4.426 -0.2615  0.1002  0.4091
  749SOL    HW1 5652   7.574   5.012   4.357 -1.6550  0.8761  1.7326
  749SOL    HW2 5653   7.721   4.984   4.381 -1.4375 -0.8130 -1.2345
  750SOL     OW 5654   4.508   8.585   1.888 -0.0720 -0.1386  0.1312
  750SOL    HW1 5655   4.456   8.640   1.830  0.1385 -0.9402 -0.8332
  750SOL    HW2 5656   4.561   8.647   1.938 -1.3451  0.6372  0.5538
  751SOL     OW 5657  10.232   7.548   4.410 -0.0019  0.5813  0.1598
  751SOL    HW1 5658  10.153   7.495   4.420 -1.1960  2.3176  0.0889
  751SOL    HW2 5659  10.287   7.522   4.485 -0.4476 -0.9141 -0.0089
  752SOL     OW 5660   3.457   3.573   3.891 -0.0484 -0.6373  0.2619
  752SOL    HW1 5661   3.450   3.661   3.930  1.0933 -0.6550  0.5300
  752SOL    HW2 5662   3.498   3.520   3.960  2.0051 -0.6679 -0.9314
  753SOL     OW 5663   5.806   1.649   3.851 -0.2525 -0.3925  0.5250
  753SOL    HW1 5664   5.883   1.652   3.907 -0.2982 -0.8066  0.6080
  753SOL    HW2 5665   5.829   1.707   3.778 -0.2905  0.3340  1.0846
  754SOL     OW 5666   7.962   6.907   4.600 -0.1508 -0.0414 -0.1822
  754SOL    HW1 5667   7.934   6.830   4.648 -0.1710 -0.2949 -0.5942
  754SOL    HW2 5668   7.899   6.975   4.624  0.4892  0.1444  0.9944
  755SOL     OW 5669   4.275   4.661   9.793 -0.0245 -0.9184  0.5913
  755SOL    HW1 5670   4.358   4.700   9.822 -0.7589  1.6198 -0.5917
  755SOL    HW2 5671   4.229   4.733   9.750 -3.0921 -2.1870  1.6966
  756SOL     OW 5672   6.994   5.519   2.121  0.0633  0.2824 -0.0617
  756SOL    HW1 5673   6.930   5.538   2.052 -0.0641 -0.0144 -0.0284
  756SOL    HW2 5674   7.026   5.431   2.100 -1.7729 -0.8117  1.6216
  757SOL     OW 5675   6.549   4.755   9.577  0.0957 -0.1156  0.4174
  757SOL    HW1 5676   6.621   4.718   9.629  0.2182 -0.9137 -0.3118
  757SOL    HW2 5677   6.564   4.721   9.489 -0.7714  0.3002  0.1158
  758SOL     OW 5678   5.433   2.359   5.498 -0.1168  0.0231 -0.4039
  758SOL    HW1 5679   5.387   2.319   5.572 -1.3750  0.5917 -0.8722
  758SOL    HW2 5680   5.518   2.383   5.534 -0.1940 -0.9872  0.4888
  759SOL     OW 5681   9.136   7.012   6.678  0.1102  0.9250 -0.1824
  759SOL    HW1 5682   9.166   7.080   6.619 -2.2083  1.3707 -0.9102
  759SOL    HW2 5683   9.144   6.931   6.628  2.3660  0.7138  0.4954
  760SOL     OW 5684   2.572   5.887   8.925 -0.1494 -0.2736  0.1072
  760SOL    HW1 5685   2.504   5.830   8.891 -2.2355  1.5624  1.0615
  760SOL    HW2 5686   2.544   5.976   8.902  2.3111  0.4846 -0.1530
  761SOL     OW 5687   6.969   6.637   0.641  1.1849 -0.5131 -0.1129
  761SOL    HW1 5688   6.940   6.546   0.639 -1.9835  0.4102  0.8637
  761SOL    HW2 5689   7.013   6.647   0.726 -2.0955 -0.1735  1.6385
  762SOL     OW 5690   7.798   0.277   5.548 -0.4838 -0.1203  0.5276
  762SOL    HW1 5691   7.708   0.252   5.530 -0.9410  0.4843  1.9541
  762SOL    HW2 5692   7.843   0.264   5.464 -1.9497 -0.1443 -0.2755
  763SOL     OW 5693   6.990   0.460   8.802 -0.0684  0.2612  0.0793
  763SOL    HW1 5694   7.026   0.433   8.886 -0.5715 -0.5020  0.0528
  763SOL    HW2 5695   6.923   0.525   8.825 -0.7866 -0.5507  0.3396
  764SOL     OW 5696   0.316   3.264   7.243 -0.4070  0.1434 -0.3568
  764SOL    HW1 5697   0.278   3.177   7.253  0.7451 -0.5543 -1.9200
  764SOL    HW2 5698   0.324   3.277   7.148  0.4221  1.5125 -0.1260
  765SOL     OW 5699   2.809   5.425   6.147 -0.2818  0.1151  0.0194
  765SOL    HW1 5700   2.871   5.403   6.216 -0.0127  0.8885  0.0271
  765SOL    HW2 5701   2.860   5.476   6.084 -0.6393 -0.1883 -0.5276
  766SOL     OW 5702   9.041  10.096   4.825  0.3281  0.2617  0.2732
  766SOL    HW1 5703   9.128  10.067   4.798  0.5434  0.3205  0.8905
  766SOL    HW2 5704   9.057  10.158   4.897 -0.1869  0.9151 -0.1727
  767SOL     OW 5705   7.615   5.709   4.133 -0.1213  0.1298 -0.2297
  767SOL    HW1 5706   7.613   5.760   4.214  0.6727  1.5161 -1.0588
  767SOL    HW2 5707   7.540   5.651   4.139  0.3610 -0.3206  1.8402
  768SOL     OW 5708   9.534   5.326   7.206  0.5085 -0.9961 -0.1033
  768SOL    HW1 5709   9.563   5.417   7.199  0.7990 -1.1307 -0.6680
  768SOL    HW2 5710   9.486   5.322   7.289  1.1620 -0.5062  0.3034
  769SOL     OW 5711   7.096   3.905   6.484 -0.0158  0.2641  0.1458
  769SOL    HW1 5712   7.065   3.987   6.446 -0.3688 -1.1732 -2.8521
  769SOL    HW2 5713   7.018   3.850   6.487  1.2568 -1.9170 -3.4214
  770SOL     OW 5714   4.494   7.188   1.746 -0.0144  1.0531  0.3669
  770SOL    HW1 5715   4.474   7.211   1.655  0.5847 -1.6010 -0.4818
  770SOL    HW2 5716   4.588   7.170   1.746 -0.0006  1.1307  1.5237
  771SOL     OW 5717   1.863   2.147   5.955  0.2891 -0.1942 -0.3236
  771SOL    HW1 5718   1.943   2.149   5.903  1.9357  1.1098  2.2016
  771SOL    HW2 5719   1.827   2.236   5.948 -0.3726 -0.4773 -0.5792
  772SOL     OW 5720   5.759   5.641   9.308  0.3901 -0.0158  0.3548
  772SOL    HW1 5721   5.822   5.608   9.244  0.8458  0.7325  0.4132
  772SOL    HW2 5722   5.707   5.705   9.258 -1.2971 -1.6911 -0.0933
  773SOL     OW 5723   2.920   0.344   9.380  0.4119 -0.0950 -0.4243
  773SOL    HW1 5724   2.862   0.353   9.305 -0.0827  0.4002  0.0099
  773SOL    HW2 5725   2.936   0.433   9.410  1.7775 -0.2010 -0.8153
  774SOL     OW 5726   6.403   1.344   0.469  0.5019 -0.3705  0.0051
  774SOL    HW1 5727   6.433   1.434   0.476  2.0459 -0.9446  1.1912
  774SOL    HW2 5728   6.376   1.334   0.378 -0.4049  1.4899  0.0490
  775SOL     OW 5729   0.181   2.074   3.487  0.5192 -0.2417  0.2700
  775SOL    HW1 5730   0.110   2.095   3.427 -0.5555 -0.5258  1.4155
  775SOL    HW2 5731   0.246   2.029   3.433  0.5843  1.4685 -1.1350
  776SOL     OW 5732   7.959  10.561   7.947  0.0751 -0.0603  0.0688
  776SOL    HW1 5733   7.998  10.478   7.921  0.3390  0.9433 -2.8041
  776SOL    HW2 5734   7.874  10.562   7.903  0.1509  1.2679 -0.0634
  777SOL     OW 5735   0.929   2.339   3.329 -0.1795 -0.4787  0.1376
  777SOL    HW1 5736   0.886   2.391   3.397 -1.7740 -0.1367 -1.1068
  777SOL    HW2 5737   0.943   2.253   3.369  0.4292  0.2202  1.4514
  778SOL     OW 5738   4.576   3.383   7.844  0.2749 -0.2648  0.3685
  778SOL    HW1 5739   4.570   3.305   7.790  1.5386  0.3854 -0.7462
  778SOL    HW2 5740   4.487   3.418   7.846  0.2779 -0.0772 -1.6421
  779SOL     OW 5741   8.379   7.947   8.474  0.5943 -0.1248 -0.1999
  779SOL    HW1 5742   8.297   7.904   8.495  0.9576 -0.4452  0.5775
  779SOL    HW2 5743   8.367   8.038   8.504  0.1313  0.1055 -1.0808
  780SOL     OW 5744   5.567   2.743   4.482  0.4860 -0.2758  0.5139
  780SOL    HW1 5745   5.660   2.765   4.476  0.6704 -0.3346  2.6127
  780SOL    HW2 5746   5.564   2.663   4.534 -0.6853 -0.7256 -0.2245
  781SOL     OW 5747   0.658   1.943   1.388  0.8938 -0.2744 -0.1548
  781SOL    HW1 5748   0.622   1.868   1.434 -0.6497 -1.6131 -3.3778
  781SOL    HW2 5749   0.664   1.915   1.296  2.3026  2.8015 -1.1032
  782SOL     OW 5750   7.473   8.332   9.846 -0.2972  0.0950  0.2142
  782SOL    HW1 5751   7.479   8.372   9.933  1.2400  0.5370 -0.0770
  782SOL    HW2 5752   7.505   8.400   9.786  2.2907 -1.4913 -0.2903
  783SOL     OW 5753   0.057   2.345   7.271 -0.6808 -0.2483  0.7428
  783SOL    HW1 5754   0.062   2.435   7.240 -1.6476 -0.2807  0.4822
  783SOL    HW2 5755   0.143   2.328   7.311  0.8147 -0.3896 -2.3689
  784SOL     OW 5756   0.897  10.903   7.620 -0.3885  0.3323 -0.3275
  784SOL    HW1 5757   0.833  10.974   7.614 -1.0060 -0.3880 -3.0314
  784SOL    HW2 5758   0.933  10.896   7.532  0.8253 -1.6690  0.3032
  785SOL     OW 5759   8.030   9.747   0.471  0.1189 -0.0497  0.7598
  785SOL    HW1 5760   8.004   9.727   0.381  0.3542 -1.7896  1.0724
  785SOL    HW2 5761   8.023   9.843   0.476 -0.2516  0.0440 -0.9887
  786SOL     OW 5762   7.691  10.752   1.089 -0.0259 -0.0289  0.2782
  786SOL    HW1 5763   7.665  10.701   1.012  0.6680 -0.0619  0.0618
  786SOL    HW2 5764   7.647  10.710   1.162 -0.0617 -0.4789 -0.0010
  787SOL     OW 5765  10.753   4.603   4.668 -0.0383  0.2132  0.1802
  787SOL    HW1 5766  10.663   4.636   4.669 -0.4990 -1.0263  0.7656
  787SOL    HW2 5767  10.759   4.548   4.746 -0.1272 -3.1943 -2.1004
  788SOL     OW 5768   3.173   2.807   6.742 -0.5534 -0.5061  0.3279
  788SOL    HW1 5769   3.221   2.890   6.740  1.3632 -1.5912 -0.2043
  788SOL    HW2 5770   3.128   2.807   6.827 -0.7944  1.1871  0.2103
  789SOL     OW 5771   0.449   3.929   8.015  0.5559  0.0483 -0.7378
  789SOL    HW1 5772   0.365   3.903   7.975  0.8331 -0.6648 -0.8710
  789SOL    HW2 5773   0.442   3.898   8.106 -0.2237  2.0016 -0.1130
  790SOL     OW 5774   9.063   1.778  10.407  0.2913 -0.6066  0.1030
  790SOL    HW1 5775   8.988   1.719  10.411  0.7113 -1.2106 -0.6158
  790SOL    HW2 5776   9.121   1.748  10.477  0.6802 -1.3101 -0.5061
  791SOL     OW 5777   9.710   7.762   7.549  0.1374  0.2517  0.0294
  791SOL    HW1 5778   9.785   7.756   7.607 -0.4272 -1.3947  0.6176
  791SOL    HW2 5779   9.636   7.782   7.607  0.0257  1.4147 -0.4897
  792SOL     OW 5780   4.764   3.830   3.550 -0.1664 -0.0872 -0.2008
  792SOL    HW1 5781   4.712   3.794   3.478  0.7991  1.0307 -1.4897
  792SOL    HW2 5782   4.820   3.757   3.578 -0.7137 -0.5980 -0.4356
  793SOL     OW 5783  10.806   2.390   6.957  0.0435 -0.4884 -0.1920
  793SOL    HW1 5784  10.748   2.431   7.021  0.9483 -1.8733  1.5523
  793SOL    HW2 5785  10.846   2.463   6.910  0.1666  0.5736  1.5462
  794SOL     OW 5786   7.216  10.632  10.493  0.3257 -0.5516  0.0648
  794SOL    HW1 5787   7.134  10.610  10.537 -0.6643  0.9549 -0.9525
  794SOL    HW2 5788   7.195  10.628  10.400  1.9287 -1.9859 -0.2507
  795SOL     OW 5789   8.232   9.305   3.671 -0.5064 -0.4030  0.0329
  795SOL    HW1 5790   8.270   9.224   3.636 -0.5803 -0.4467  0.0507
  795SOL    HW2 5791   8.228   9.364   3.596  1.6889  0.3900  0.5264
  796SOL     OW 5792   4.153   3.685   5.913 -0.0539  0.1538 -0.4074
  796SOL    HW1 5793   4.161   3.616   5.847  0.8495 -0.6814  0.5572
  796SOL    HW2 5794   4.098   3.646   5.982  1.2455  0.0507  0.5809
  797SOL     OW 5795   7.418  10.476  10.980  0.6517 -0.1286  0.6999
  797SOL    HW1 5796   7.418  10.417  10.905 -1.5939 -1.8629  1.9890
  797SOL    HW2 5797   7.370  10.553  10.950  1.1763 -0.1307 -0.1475
  798SOL     OW 5798   6.092   7.307  10.743  0.4834  0.5701 -0.1792
  798SOL    HW1 5799   6.101   7.377  10.808 -0.9352  0.3931  0.2364
  798SOL    HW2 5800   6.180   7.271  10.733  0.8977  1.2677  0.8896
  799SOL     OW 5801   0.935   3.024   7.312  0.5185 -0.0109 -0.3362
  799SOL    HW1 5802   1.000   3.000   7.246  1.2134  1.7850 -0.3342
  799SOL    HW2 5803   0.965   2.982   7.392  1.3975  0.3800 -0.4571
  800SOL     OW 5804   5.241   7.138   9.947  0.6573  0.2658  0.1671
  800SOL    HW1 5805   5.253   7.185   9.865  0.5219 -0.3441 -0.2084
  800SOL    HW2 5806   5.326   7.142   9.990  1.3985 -1.3959 -1.0701
  801SOL     OW 5807   3.797   9.105   3.211 -0.2890  0.5547 -0.1927
  801SOL    HW1 5808   3.775   9.198   3.214  0.0620  0.6084  1.0331
  801SOL    HW2 5809   3.828   9.091   3.122 -1.3162  1.3820 -0.6943
  802SOL     OW 5810   4.602   6.918   1.048 -0.3664  1.0006  0.0468
  802SOL    HW1 5811   4.671   6.851   1.044 -1.3917 -0.0282 -0.7049
  802SOL    HW2 5812   4.602   6.946   1.140 -1.4436 -1.6756  0.9120
  803SOL     OW 5813   9.854   6.987   2.114  0.4017  0.4980  0.0402
  803SOL    HW1 5814   9.839   6.902   2.073  1.1329 -0.3052  1.4111
  803SOL    HW2 5815   9.797   7.047   2.066 -1.9641 -1.1932  0.6602
  804SOL     OW 5816   0.516   2.627   7.961 -0.1939 -0.0572 -0.3691
  804SOL    HW1 5817   0.567   2.651   8.038 -1.1565  1.3538 -0.1554
  804SOL    HW2 5818   0.559   2.674   7.889 -0.9179  0.7947 -0.2548
  805SOL     OW 5819   1.309   4.525   0.605 -0.2717 -0.2313 -0.3629
  805SOL    HW1 5820   1.226   4.477   0.611 -0.5445  0.4417  1.5894
  805SOL    HW2 5821   1.297   4.583   0.530 -2.1056  0.8000  0.6827
  806SOL     OW 5822   5.950   1.384   3.586 -0.3354 -0.3554  0.0007
  806SOL    HW1 5823   5.864   1.425   3.574 -0.5326 -1.3240 -2.1130
  806SOL    HW2 5824   6.004   1.421   3.516  1.1080  0.5491  1.5603
  807SOL     OW 5825   9.274  10.531  10.319  0.7210 -0.1349 -0.0191
  807SOL    HW1 5826   9.191  10.567  10.352  1.5039  1.0420  0.7062
  807SOL    HW2 5827   9.292  10.581  10.240  0.9391 -0.0993  0.0501
  808SOL     OW 5828   0.834   1.897   9.219 -0.1788 -0.1757 -0.3033
  808SOL    HW1 5829   0.767   1.851   9.270  0.8047 -0.9391  0.3215
  808SOL    HW2 5830   0.833   1.986   9.254  0.8277 -0.8176  1.4288
  809SOL     OW 5831   6.785   6.722   1.715  0.1157  0.5835  0.3455
  809SOL    HW1 5832   6.794   6.648   1.655  1.1977  1.0265 -0.0471
  809SOL    HW2 5833   6.801   6.800   1.660 -0.4803  1.0849  0.8674
  810SOL     OW 5834   1.750   5.204  10.392 -0.2358  0.7424  0.5135
  810SOL    HW1 5835   1.761   5.112  10.415 -0.8816  0.5094 -0.1304
  810SOL    HW2 5836   1.675   5.233  10.444 -1.5742  0.2679 -1.1324
  811SOL     OW 5837   5.777   5.225   4.818  0.4524  0.5379  0.9847
  811SOL    HW1 5838   5.728   5.145   4.838  1.1964 -0.3128 -0.4945
  811SOL    HW2 5839   5.791   5.221   4.724 -2.6133  4.2344  0.2405
  812SOL     OW 5840   7.017   0.059   1.979  0.3019 -0.0406 -0.2721
  812SOL    HW1 5841   6.997  -0.014   1.920  0.5508  0.0728 -0.4963
  812SOL    HW2 5842   7.112   0.057   1.988  0.3102  0.2618 -0.2849
  813SOL     OW 5843   9.678   3.409   3.867 -0.6558  0.1528 -0.1046
  813SOL    HW1 5844   9.658   3.321   3.835 -1.3578 -0.3727  1.7011
  813SOL    HW2 5845   9.606   3.463   3.833 -0.3018  0.0161 -1.0967
  814SOL     OW 5846   4.875   9.836  10.528  0.2813  0.3072  0.6045
  814SOL    HW1 5847   4.913   9.769  10.471  0.6970 -0.6609  2.0050
  814SOL    HW2 5848   4.804   9.873  10.476 -0.4370 -1.7286  0.0652
  815SOL     OW 5849   5.366   8.537   8.829 -0.7320 -0.0244  0.5933
  815SOL    HW1 5850   5.337   8.456   8.787  1.5248  0.0892 -1.3321
  815SOL    HW2 5851   5.319   8.606   8.781 -0.3411 -0.0455  0.1755
  816SOL     OW 5852   7.264   5.173   9.768  0.1637  0.0652  0.6059
  816SOL    HW1 5853   7.228   5.259   9.788 -0.7753  0.0170 -0.7523
  816SOL    HW2 5854   7.287   5.135   9.853 -0.4906  1.1885  1.2908
  817SOL     OW 5855   6.438   6.968   6.911 -0.0248  0.9045  0.4532
  817SOL    HW1 5856   6.418   6.881   6.944 -0.1151  1.3058  1.4720
  817SOL    HW2 5857   6.532   6.980   6.930 -0.1012  1.1755  0.6695
  818SOL     OW 5858   0.703   2.883   1.156 -0.2278  0.2644  0.0119
  818SOL    HW1 5859   0.680   2.814   1.218 -0.9451  1.0551  0.6380
  818SOL    HW2 5860   0.636   2.877   1.088  0.7955 -0.8692 -0.9069
  819SOL     OW 5861   6.783   4.250   9.091  0.4916 -0.0196  0.2453
  819SOL    HW1 5862   6.848   4.319   9.095  1.4253 -0.8175 -0.9629
  819SOL    HW2 5863   6.787   4.208   9.177 -0.5809  1.8477  1.2359
  820SOL     OW 5864   8.262   7.341   4.775 -0.4010 -0.0372  0.4119
  820SOL    HW1 5865   8.298   7.416   4.727  0.0447 -0.6907 -0.2787
  820SOL    HW2 5866   8.178   7.323   4.733  0.2247 -0.9357 -0.4609
  821SOL     OW 5867   6.731   2.718   0.836 -0.0226  0.1614 -0.3157
  821SOL    HW1 5868   6.795   2.768   0.785 -1.0089 -0.5508 -2.2809
  821SOL    HW2 5869   6.739   2.754   0.925  0.2164  2.8958 -1.3862
  822SOL     OW 5870   8.893   4.077   3.281  0.3507 -0.3877  0.4532
  822SOL    HW1 5871   8.826   4.137   3.314 -3.3792 -2.4172 -2.8785
  822SOL    HW2 5872   8.929   4.122   3.205  2.4740  0.4670  1.9315
  823SOL     OW 5873   3.890   3.033   9.318 -0.3113  0.1511  0.1245
  823SOL    HW1 5874   3.804   3.074   9.323 -0.2103  0.2979  0.6497
  823SOL    HW2 5875   3.872   2.940   9.312 -0.4583  0.0141  2.4210
  824SOL     OW 5876  10.741   0.187   2.985 -0.2084 -0.2487  0.1801
  824SOL    HW1 5877  10.779   0.270   3.016  1.2129 -1.2504  1.1737
  824SOL    HW2 5878  10.752   0.190   2.890 -0.9280  1.0687  0.1260
  825SOL     OW 5879   6.032   0.821   6.591  0.6528 -0.2234 -0.2359
  825SOL    HW1 5880   5.982   0.753   6.636  1.4578 -0.5148  0.2229
  825SOL    HW2 5881   6.011   0.902   6.639  1.7262 -0.5758  0.8483
  826SOL     OW 5882  10.975   3.513   2.489  0.2056  0.3300  0.2338
  826SOL    HW1 5883  10.902   3.535   2.547  1.0522  1.5284  0.8774
  826SOL    HW2 5884  10.939   3.525   2.401 -0.5601  0.2939  0.5348
  827SOL     OW 5885   8.755   7.047   2.068 -0.6251 -0.2145 -0.6215
  827SOL    HW1 5886   8.766   7.117   2.004  0.7652  0.3742  0.2605
  827SOL    HW2 5887   8.826   6.986   2.049  0.3215  0.3927  0.9073
  828SOL     OW 5888   3.797   0.309   9.873  0.4032  0.4914  0.3754
  828SOL    HW1 5889   3.777   0.281   9.962 -1.8653 -1.0771 -0.5974
  828SOL    HW2 5890   3.881   0.266   9.853  0.2564 -0.2337  1.2737
  829SOL     OW 5891   4.933   1.551   3.157  0.4314  0.4261  0.2018
  829SOL    HW1 5892   5.006   1.526   3.214  1.1658 -1.5994 -1.5583
  829SOL    HW2 5893   4.974   1.567   3.072 -0.9669  1.0109 -0.3717
  830SOL     OW 5894   0.925   6.318   6.214  0.1169  0.5018  0.5767
  830SOL    HW1 5895   0.934   6.223   6.218 -2.9732  0.1604  1.1289
  830SOL    HW2 5896   0.864   6.339   6.284 -1.3529  2.5526 -1.2444
  831SOL     OW 5897   2.914   5.541   1.063 -0.2879 -0.1324  0.5788
  831SOL    HW1 5898   2.904   5.508   1.152 -2.1404  1.8695  1.1490
  831SOL    HW2 5899   2.944   5.465   1.013 -1.6955 -1.9529  2.3966
  832SOL     OW 5900   5.625   2.368   6.676 -0.3571 -0.7494 -0.0279
  832SOL    HW1 5901   5.662   2.437   6.622 -0.4118  1.2339  2.3568
  832SOL    HW2 5902   5.530   2.382   6.672 -0.3897 -0.9130  0.1479
  833SOL     OW 5903   1.091  10.949   6.641 -0.1173  0.3400  0.1246
  833SOL    HW1 5904   1.023  10.884   6.656 -0.9558  1.1234 -0.2565
  833SOL    HW2 5905   1.044  11.028   6.615  0.9260  0.9324  0.0025
  834SOL     OW 5906   0.997   6.666   1.155 -0.3995  0.0307  0.8810
  834SOL    HW1 5907   1.015   6.620   1.238 -0.9630  0.0202  0.9988
  834SOL    HW2 5908   0.979   6.756   1.181  0.9447  0.3810  0.6278
  835SOL     OW 5909  10.284   7.010   1.961  0.0069  0.5651 -0.5689
  835SOL    HW1 5910  10.304   7.084   1.904 -3.0165  0.8319 -1.3879
  835SOL    HW2 5911  10.253   7.050   2.043 -0.9184  0.2147 -0.7424
  836SOL     OW 5912   2.220  10.898   9.351 -0.4928 -0.2324  0.1359
  836SOL    HW1 5913   2.245  10.840   9.423  0.1475 -1.1624 -0.8179
  836SOL    HW2 5914   2.235  10.986   9.384 -2.1002 -0.5661  1.8468
  837SOL     OW 5915   1.262   3.111   5.125  0.0966  0.5902  0.1618
  837SOL    HW1 5916   1.302   3.077   5.044 -1.0209 -0.1675 -0.0959
  837SOL    HW2 5917   1.281   3.044   5.191 -2.6445 -0.9016 -0.4910
  838SOL     OW 5918   8.939   5.029   4.038 -0.1195  0.1160 -0.0244
  838SOL    HW1 5919   9.015   5.055   4.091  0.3309  0.1324 -0.6693
  838SOL    HW2 5920   8.897   5.112   4.016  0.7342  0.2400 -1.2204
  839SOL     OW 5921   1.138   0.784   8.882  0.6543 -0.0079 -0.2190
  839SOL    HW1 5922   1.049   0.773   8.851  0.4559  2.6556 -0.6888
  839SOL    HW2 5923   1.129   0.805   8.975  0.6173  2.6437 -0.7901
  840SOL     OW 5924   1.383   9.905   7.885  0.1634  0.7341 -0.4931
  840SOL    HW1 5925   1.435   9.875   7.959  0.5508  0.1234 -1.0038
  840SOL    HW2 5926   1.297   9.864   7.896 -0.3584  2.0962  0.5887
  841SOL     OW 5927   0.788  10.323   8.550  0.1778  0.2907  0.3142
  841SOL    HW1 5928   0.785  10.333   8.645  1.2938  1.8987  0.2062
  841SOL    HW2 5929   0.879  10.299   8.531 -0.2115 -0.6980 -0.2796
  842SOL     OW 5930   8.894   8.466  10.527 -0.1836 -0.2001  0.3970
  842SOL    HW1 5931   8.926   8.378  10.510  0.7280  0.5559 -2.0412
  842SOL    HW2 5932   8.972   8.517  10.549 -0.4492  0.3882  0.0022
  843SOL     OW 5933   1.673   1.139   9.696  0.3538  0.5268 -0.1997
  843SOL    HW1 5934   1.631   1.107   9.776 -0.5454  0.5873 -0.6407
  843SOL    HW2 5935   1.758   1.095   9.694 -1.1592 -2.4870 -1.1916
  844SOL     OW 5936   3.661   1.977   1.575  0.1715 -0.4157  0.0785
  844SOL    HW1 5937   3.601   2.039   1.533  1.4176  1.7980  1.4431
  844SOL    HW2 5938   3.731   1.965   1.511  0.0493 -0.2089 -0.0943
  845SOL     OW 5939   4.535   4.814   9.789 -0.5531  0.1202  0.2391
  845SOL    HW1 5940   4.532   4.894   9.736 -2.0560 -0.6828 -0.9314
  845SOL    HW2 5941   4.579   4.841   9.870 -0.6234  2.0183 -0.3160
  846SOL     OW 5942   9.840   8.262   5.100  0.5730  0.5907 -0.2052
  846SOL    HW1 5943   9.934   8.269   5.114  0.5929  1.1921 -0.6385
  846SOL    HW2 5944   9.829   8.178   5.054  0.9047  0.5747 -0.2554
  847SOL     OW 5945  10.646   4.455  10.589 -0.0198 -0.2538 -0.5310
  847SOL    HW1 5946  10.719   4.408  10.630 -0.1713  0.8443  1.0353
  847SOL    HW2 5947  10.592   4.484  10.662 -1.0441  0.5502 -1.5873
  848SOL     OW 5948   5.873   5.562   2.243  0.2735 -0.1471 -0.1983
  848SOL    HW1 5949   5.922   5.501   2.299  1.7998  1.2670  0.0579
  848SOL    HW2 5950   5.855   5.637   2.300  2.1080  1.4471 -1.6715
  849SOL     OW 5951  10.616   5.277   1.514  0.4594  0.0669 -0.2382
  849SOL    HW1 5952  10.521   5.269   1.506  0.3809 -0.6293  1.2578
  849SOL    HW2 5953  10.638   5.353   1.460 -0.9414  0.2565 -0.5674
  850SOL     OW 5954   3.756   0.718   2.241  0.1024 -0.2193 -0.6497
  850SOL    HW1 5955   3.837   0.691   2.198  1.1174  0.1408  0.9866
  850SOL    HW2 5956   3.785   0.779   2.309 -1.4410 -0.9658  0.6888
  851SOL     OW 5957  10.248   4.124   8.138 -0.0544 -0.4999  0.8059
  851SOL    HW1 5958  10.290   4.190   8.082  0.0017 -2.2405 -1.2440
  851SOL    HW2 5959  10.320   4.085   8.187  0.2325 -0.7409  0.1982
  852SOL     OW 5960   4.023   0.916   9.449 -0.0541  0.1163 -0.1312
  852SOL    HW1 5961   4.118   0.922   9.461 -0.0209  0.8851 -0.7627
  852SOL    HW2 5962   3.992   0.870   9.528  0.9720 -1.2601 -0.5025
  853SOL     OW 5963   2.778   2.921  10.139  0.3290 -0.1174  0.5139
  853SOL    HW1 5964   2.841   2.879  10.197  0.8710  0.3172  0.2456
  853SOL    HW2 5965   2.831   2.955  10.067 -0.3321 -0.6058 -0.2119
  854SOL     OW 5966   5.942   5.075   0.679 -0.1308 -0.2853  0.2683
  854SOL    HW1 5967   5.856   5.033   0.673 -1.1333  1.9404 -2.1023
  854SOL    HW2 5968   5.926   5.166   0.652  2.7667  0.4792  0.9219
  855SOL     OW 5969   6.598   3.966   2.318  0.0028  0.0269 -0.4627
  855SOL    HW1 5970   6.555   4.051   2.310 -0.3059 -0.0996 -0.1251
  855SOL    HW2 5971   6.537   3.912   2.368  0.3802 -0.2693 -0.3185
  856SOL     OW 5972   0.721   6.003  10.427 -0.4663  0.3238 -0.0974
  856SOL    HW1 5973   0.746   5.938  10.492 -0.8083 -2.7226 -2.8739
  856SOL    HW2 5974   0.793   6.066  10.427  0.0753 -0.2372  2.3871
  857SOL     OW 5975   7.164   8.208   5.123 -0.3557 -0.7057  0.0799
  857SOL    HW1 5976   7.082   8.194   5.074 -0.7408  0.8842  0.2514
  857SOL    HW2 5977   7.135   8.226   5.213  0.1208  0.9435 -0.0877
  858SOL     OW 5978  10.425   8.423   3.466 -0.1847 -0.8439  0.3515
  858SOL    HW1 5979  10.364   8.399   3.536 -1.7807 -1.2949 -1.1771
  858SOL    HW2 5980  10.477   8.494   3.503 -1.9426 -0.1421  1.5111
  859SOL     OW 5981   9.167   3.426   4.673  0.5265  0.3314 -0.4451
  859SOL    HW1 5982   9.142   3.339   4.704 -0.1182  0.0717 -1.6578
  859SOL    HW2 5983   9.226   3.408   4.599 -0.3355  0.9130 -1.2813
  860SOL     OW 5984   3.565   2.896   2.757  0.4595 -0.6281  0.5875
  860SOL    HW1 5985   3.570   2.990   2.777 -1.0196 -0.1642 -1.1129
  860SOL    HW2 5986   3.655   2.872   2.733  0.9258  0.2612  1.4081
  861SOL     OW 5987   6.983   2.933   3.644 -0.3261  0.2040  0.0048
  861SOL    HW1 5988   7.057   2.978   3.603  1.2056  0.2734  2.6851
  861SOL    HW2 5989   6.925   3.004   3.673  0.2712  0.3022  0.9662
  862SOL     OW 5990   8.696   1.016   7.750  0.3102  0.6073 -0.6541
  862SOL    HW1 5991   8.645   0.946   7.710  0.3781  1.3103 -2.0147
  862SOL    HW2 5992   8.650   1.037   7.831 -0.2207 -0.3819 -0.6967
  863SOL     OW 5993   9.170   9.702   3.604  0.0253 -0.5675 -0.1203
  863SOL    HW1 5994   9.232   9.631   3.597 -0.1261 -0.7678  0.5248
  863SOL    HW2 5995   9.145   9.704   3.697 -0.8471 -0.4278 -0.3485
  864SOL     OW 5996   0.052  10.044  10.689  0.3211  0.0517 -0.0945
  864SOL    HW1 5997   0.057  10.116  10.626 -0.3589 -1.1545 -1.5825
  864SOL    HW2 5998   0.019   9.970  10.637  1.2367 -1.3879  1.3324
  865SOL     OW 5999   4.105   3.061   0.394 -0.3085 -0.5446 -0.3765
  865SOL    HW1 6000   4.179   3.039   0.337  2.4651  4.8208  0.8192
  865SOL    HW2 6001   4.135   3.036   0.482 -0.6555  0.0195 -0.0997
  866SOL     OW 6002   3.069   4.712   9.806  0.1188 -0.0522  0.4026
  866SOL    HW1 6003   2.981   4.684   9.782  0.5225 -0.4021 -0.7322
  866SOL    HW2 6004   3.086   4.669   9.889 -0.4457 -0.7110  0.1830
  867SOL     OW 6005   3.697   1.429   5.502 -0.4077 -0.0288 -0.0504
  867SOL    HW1 6006   3.696   1.410   5.408 -1.1015  0.8644 -0.2298
  867SOL    HW2 6007   3.790   1.431   5.525 -0.2124  0.5384 -0.8817
  868SOL     OW 6008   7.080   6.808   1.666 -0.3426 -0.2204 -0.0687
  868SOL    HW1 6009   6.990   6.832   1.686 -0.4069 -0.6940  0.2330
  868SOL    HW2 6010   7.120   6.888   1.633 -0.8839 -0.0215 -0.2372
  869SOL     OW 6011   3.983  10.254   0.398 -0.0437 -0.2263  0.0503
  869SOL    HW1 6012   4.057  10.298   0.441 -0.3849 -0.5993  1.0222
  869SOL    HW2 6013   4.018  10.169   0.372  0.0432 -0.1613 -0.0458
  870SOL     OW 6014   2.806   7.297   4.078  0.5483 -0.5748 -0.1724
  870SOL    HW1 6015   2.888   7.284   4.126 -0.4776 -1.0155  1.4883
  870SOL    HW2 6016   2.781   7.209   4.050 -0.1122 -0.6209  0.5712
  871SOL     OW 6017   9.711   6.297   0.966  0.2161  0.2902 -0.2644
  871SOL    HW1 6018   9.745   6.318   0.879 -0.7390  0.5993 -0.5663
  871SOL    HW2 6019   9.753   6.362   1.024  0.9051  0.0387 -0.4771
  872SOL     OW 6020   8.783   8.291   5.421  0.1450 -0.4332  0.1425
  872SOL    HW1 6021   8.803   8.384   5.422 -0.1676 -0.3201 -1.5437
  872SOL    HW2 6022   8.816   8.258   5.504 -0.9724  1.4243  1.3508
  873SOL     OW 6023   4.321   0.938   4.184  0.2729 -0.2226 -0.2852
  873SOL    HW1 6024   4.303   0.870   4.120  0.4749  0.9593 -1.6326
  873SOL    HW2 6025   4.284   1.018   4.145  1.6831  0.7894  0.3961
  874SOL     OW 6026   8.746   4.635   1.220 -0.3601 -0.4833 -0.1417
  874SOL    HW1 6027   8.695   4.716   1.219  0.8479  0.3551  1.9044
  874SOL    HW2 6028   8.811   4.646   1.151 -0.8710 -0.1535 -0.5687
  875SOL     OW 6029   7.144   5.443  10.344  0.0918  0.2890 -1.0037
  875SOL    HW1 6030   7.206   5.448  10.271  1.2257 -0.3190 -0.1000
  875SOL    HW2 6031   7.199   5.435  10.422 -1.1321 -0.4318 -0.1948
  876SOL     OW 6032   1.601   5.832   9.375  0.6358 -0.5043 -0.6840
  876SOL    HW1 6033   1.602   5.762   9.440  0.5599  0.6469  0.5867
  876SOL    HW2 6034   1.674   5.812   9.317  2.5106 -0.0257  1.4383
  877SOL     OW 6035   5.961   6.221   8.378 -0.7004  0.3151  0.3276
  877SOL    HW1 6036   6.043   6.176   8.397 -1.4822 -0.1980  2.7513
  877SOL    HW2 6037   5.933   6.187   8.294  1.3609  0.1990 -0.3346
  878SOL     OW 6038   4.941   5.235   9.527  0.0543 -0.5493 -0.2754
  878SOL    HW1 6039   5.002   5.180   9.479  1.7197 -0.3222  1.4889
  878SOL    HW2 6040   4.982   5.322   9.526 -0.1112 -0.4411  1.1077
  879SOL     OW 6041   3.662   9.335   2.959 -0.6676  0.2035 -0.3430
  879SOL    HW1 6042   3.729   9.312   2.894 -1.2227  1.3662 -1.3594
  879SOL    HW2 6043   3.712   9.359   3.038  0.0466 -0.5039 -0.5815
  880SOL     OW 6044  10.020   2.448   0.194  1.0945 -0.3919 -0.4048
  880SOL    HW1 6045   9.937   2.485   0.165  1.1095  0.6083  0.8131
  880SOL    HW2 6046   9.996   2.364   0.234  0.6513 -0.0191  0.1149
  881SOL     OW 6047   1.702   8.357   0.950  0.4920  0.2502 -0.0548
  881SOL    HW1 6048   1.741   8.348   1.037  0.7370  1.1841 -0.0650
  881SOL    HW2 6049   1.777   8.374   0.892  0.2965 -0.0684 -0.4024
  882SOL     OW 6050   8.231   9.640   5.644  0.2086 -0.1714  0.4970
  882SOL    HW1 6051   8.201   9.727   5.619 -0.1709 -0.4425  0.0004
  882SOL    HW2 6052   8.212   9.634   5.738 -0.2947  0.0640  0.4138
  883SOL     OW 6053   5.500   5.365   4.495 -0.0864 -0.3052 -0.1085
  883SOL    HW1 6054   5.487   5.288   4.440 -0.7110 -0.5486  0.3782
  883SOL    HW2 6055   5.590   5.357   4.527  0.8141  0.6022 -2.2659
  884SOL     OW 6056   7.143   1.263   9.695  0.6386  0.1812 -0.2313
  884SOL    HW1 6057   7.195   1.202   9.643 -0.2483  1.0757 -2.2354
  884SOL    HW2 6058   7.052   1.241   9.674  0.2554  0.4918  1.0485
  885SOL     OW 6059   0.365   4.195   6.861  0.0169 -0.4095 -0.1480
  885SOL    HW1 6060   0.379   4.101   6.850  2.9784 -0.1020  0.3854
  885SOL    HW2 6061   0.387   4.212   6.952  0.8345  0.9851 -0.5863
  886SOL     OW 6062   7.315   8.984   6.699 -0.1948  0.5003  0.0624
  886SOL    HW1 6063   7.271   9.027   6.773 -0.8199  0.3268 -0.2114
  886SOL    HW2 6064   7.405   8.969   6.731 -0.3191  0.8823  0.6049
  887SOL     OW 6065   8.825   4.454   3.071 -0.3278  0.3058 -0.3189
  887SOL    HW1 6066   8.817   4.544   3.042  0.7437  0.9470  1.2903
  887SOL    HW2 6067   8.735   4.426   3.091 -0.5642  1.3463  0.1016
  888SOL     OW 6068   8.578   9.691   3.217  0.0411 -0.5700 -0.0690
  888SOL    HW1 6069   8.557   9.713   3.126 -0.4969  1.6789  0.5747
  888SOL    HW2 6070   8.628   9.610   3.211 -1.2516 -1.2341 -2.2673
  889SOL     OW 6071   8.230   3.259   6.254  0.3782 -0.0148  0.0235
  889SOL    HW1 6072   8.218   3.164   6.265 -1.7494  0.3411  0.9745
  889SOL    HW2 6073   8.197   3.297   6.336 -0.0241  1.6299 -0.8817
  890SOL     OW 6074   4.540   2.529   6.267 -0.1287 -0.4669  0.0375
  890SOL    HW1 6075   4.600   2.467   6.308  0.0639  0.1397  0.6764
  890SOL    HW2 6076   4.507   2.582   6.339  0.4118  0.7790 -0.6211
  891SOL     OW 6077   5.047   9.069   3.719 -0.2360  0.6026  0.1929
  891SOL    HW1 6078   5.004   9.147   3.685 -0.7167 -0.3315 -1.3695
  891SOL    HW2 6079   5.115   9.049   3.655 -0.9114 -0.9694 -0.0590
  892SOL     OW 6080   5.542   4.732   2.601  0.6032 -0.1039  0.5769
  892SOL    HW1 6081   5.576   4.693   2.521 -1.0530 -0.9860  0.2907
  892SOL    HW2 6082   5.527   4.658   2.660  1.2412  0.4821  1.5063
  893SOL     OW 6083   6.238   3.301   2.876 -0.0867  0.0948  0.0291
  893SOL    HW1 6084   6.239   3.384   2.829 -0.3913 -1.0012 -1.9649
  893SOL    HW2 6085   6.327   3.267   2.867  0.1752  0.4425  1.2790
  894SOL     OW 6086   9.374   7.031   2.933 -0.0465 -0.1384  0.4889
  894SOL    HW1 6087   9.382   7.039   3.028 -0.3395 -0.5461  0.5477
  894SOL    HW2 6088   9.462   7.008   2.903 -0.6016 -3.0110  0.9746
  895SOL     OW 6089   2.606   1.586   3.294 -0.0766  0.9276  0.1565
  895SOL    HW1 6090   2.694   1.611   3.322 -0.0862  0.5570  0.5279
  895SOL    HW2 6091   2.549   1.613   3.367 -0.2891  1.3115 -0.1499
  896SOL     OW 6092   8.565   3.685   1.184  0.1558  0.0265 -0.0061
  896SOL    HW1 6093   8.577   3.690   1.089 -1.2551 -0.5441 -0.2297
  896SOL    HW2 6094   8.470   3.679   1.196  0.2690  1.0413  1.4941
  897SOL     OW 6095   6.292   6.188   1.696 -0.3313  0.2279 -0.8148
  897SOL    HW1 6096   6.259   6.144   1.775  0.3563  0.9538 -0.1133
  897SOL    HW2 6097   6.359   6.129   1.662 -0.5171 -0.0102 -0.7719
  898SOL     OW 6098   8.041   5.251   7.921 -0.6742  0.3808 -0.0490
  898SOL    HW1 6099   7.965   5.309   7.925 -1.3884 -0.6152  0.8814
  898SOL    HW2 6100   8.111   5.307   7.886 -1.7177  1.4102 -0.5284
  899SOL     OW 6101   8.611   9.657   4.580  0.3672  0.3047  0.1060
  899SOL    HW1 6102   8.692   9.630   4.537 -0.6226  1.3391 -2.5089
  899SOL    HW2 6103   8.569   9.575   4.606  1.1077 -0.3439 -0.7148
  900SOL     OW 6104   7.107   5.678   6.986  0.0063  0.1599  0.4117
  900SOL    HW1 6105   7.104   5.756   6.930  0.6744 -0.8630 -1.1112
  900SOL    HW2 6106   7.175   5.698   7.050 -0.8550  1.4079  0.9627
  901SOL     OW 6107   5.074   9.978   0.654  0.2173  0.1399 -0.1792
  901SOL    HW1 6108   5.082   9.893   0.611  0.3583 -0.9658  1.9742
  901SOL    HW2 6109   5.127   9.970   0.734  1.1807  2.6532 -0.5355
  902SOL     OW 6110   0.610   3.876   5.542  0.3627  0.5579 -0.3978
  902SOL    HW1 6111   0.564   3.959   5.532 -0.1292  0.1191 -1.8913
  902SOL    HW2 6112   0.545   3.809   5.522  0.4086 -0.2771  2.0225
  903SOL     OW 6113   4.471   9.130   4.975 -0.0503 -0.1382 -0.0217
  903SOL    HW1 6114   4.451   9.214   4.935  0.4557  0.0259  0.0538
  903SOL    HW2 6115   4.539   9.150   5.040 -3.8145  0.3288  3.9834
  904SOL     OW 6116   6.063   7.719   0.083  0.2789 -0.3049 -0.0647
  904SOL    HW1 6117   6.086   7.797   0.032 -0.4172  0.6348  1.0257
  904SOL    HW2 6118   5.968   7.722   0.091  0.3507 -0.5760  1.0337
  905SOL     OW 6119   8.835   2.034  10.835 -0.2612 -0.0337  0.0932
  905SOL    HW1 6120   8.925   2.002  10.831 -0.0655  0.4856  0.2217
  905SOL    HW2 6121   8.826   2.093  10.760 -0.6296 -0.4141 -0.1659
  906SOL     OW 6122   2.846   9.898   2.593  0.5483 -0.5989  0.2581
  906SOL    HW1 6123   2.929   9.856   2.571  0.9347 -0.5559  1.5621
  906SOL    HW2 6124   2.802   9.911   2.509  0.5401 -3.3885 -0.2189
  907SOL     OW 6125  10.534   1.570   7.292 -0.2963  0.1819  0.4709
  907SOL    HW1 6126  10.626   1.591   7.280 -0.3750  1.8527  2.4686
  907SOL    HW2 6127  10.490   1.655   7.295 -1.7984 -0.5615  0.2969
  908SOL     OW 6128   8.757   0.019  10.452  0.2168  0.1606 -0.4110
  908SOL    HW1 6129   8.675   0.026  10.404  0.1783 -0.3490 -0.4253
  908SOL    HW2 6130   8.731  -0.006  10.541  0.3868 -0.5147 -0.5502
  909SOL     OW 6131   8.698   9.747   8.033  0.4940 -0.0609 -0.0060
  909SOL    HW1 6132   8.622   9.784   8.078 -0.1585  1.7724 -2.5060
  909SOL    HW2 6133   8.771   9.804   8.059 -0.3513  2.6402 -3.1603
  910SOL     OW 6134   9.248  10.282  10.502 -0.2886  0.0999  0.5765
  910SOL    HW1 6135   9.232  10.318  10.415 -2.0879  1.0088  1.2668
  910SOL    HW2 6136   9.210  10.194  10.499 -0.8141  0.3258  0.6008
  911SOL     OW 6137   8.157   7.357   9.318  0.2179 -0.0109  0.0522
  911SOL    HW1 6138   8.091   7.369   9.250  0.4687 -1.9423 -0.5671
  911SOL    HW2 6139   8.198   7.273   9.297  0.3814 -0.5913  2.5106
  912SOL     OW 6140  10.939   4.513   8.161  0.1091 -0.1077 -0.0872
  912SOL    HW1 6141  10.950   4.573   8.235 -0.7950  0.5440 -0.4666
  912SOL    HW2 6142  11.017   4.458   8.163  1.0138  1.1592  0.1938
  913SOL     OW 6143   2.291   1.528   8.698 -0.3431  0.1138 -0.0053
  913SOL    HW1 6144   2.197   1.529   8.680 -0.3860  1.0729  0.2529
  913SOL    HW2 6145   2.327   1.465   8.636 -1.2848 -0.9793  0.5386
  914SOL     OW 6146   0.006   7.105   6.853 -0.6082  0.0202  0.0206
  914SOL    HW1 6147  -0.067   7.159   6.824  0.2737  0.1864 -1.9733
  914SOL    HW2 6148   0.013   7.037   6.785  2.3365  1.1828 -0.9004
  915SOL     OW 6149   7.323   9.323   2.851 -0.4621  0.2303 -0.4995
  915SOL    HW1 6150   7.346   9.399   2.903  0.4057 -1.3478  1.5088
  915SOL    HW2 6151   7.402   9.269   2.849 -1.5270 -1.3858 -0.4897
  916SOL     OW 6152   7.005   3.030   0.181 -0.1252  0.0116 -0.3585
  916SOL    HW1 6153   6.932   3.003   0.238  0.6646 -1.3034  0.0618
  916SOL    HW2 6154   7.005   2.965   0.111 -0.0025  0.6176 -0.9235
  917SOL     OW 6155   7.777   1.467   6.363 -0.1399  0.7144 -0.2848
  917SOL    HW1 6156   7.852   1.462   6.305  0.9251  0.6347  1.0907
  917SOL    HW2 6157   7.749   1.559   6.359  0.1068  0.7695 -0.7065
  918SOL     OW 6158  10.896   9.578   0.366 -0.3363  0.0116  0.0709
  918SOL    HW1 6159  10.896   9.657   0.420  1.1729  0.4041 -0.4659
  918SOL    HW2 6160  10.968   9.525   0.401 -0.5630 -0.5827 -0.3491
  919SOL     OW 6161   2.872   6.314   5.093  0.4195  0.0032 -0.1382
  919SOL    HW1 6162   2.935   6.252   5.056 -1.2686 -1.6717 -0.2728
  919SOL    HW2 6163   2.813   6.259   5.145 -0.6250  1.6205  0.4027
  920SOL     OW 6164   5.863   5.842   4.652  0.3433  0.0804 -0.2592
  920SOL    HW1 6165   5.950   5.832   4.614 -0.0946  0.7089 -1.4551
  920SOL    HW2 6166   5.871   5.918   4.710  0.7816 -0.3265  0.2198
  921SOL     OW 6167   1.085   6.047   5.251 -0.9436  0.4380 -0.1026
  921SOL    HW1 6168   1.060   5.956   5.238 -0.0224  0.4268 -1.8412
  921SOL    HW2 6169   1.025   6.096   5.194  0.7702  0.6500 -1.7641
  922SOL     OW 6170   6.509   5.326   2.411 -0.0712 -0.1828 -0.5218
  922SOL    HW1 6171   6.481   5.238   2.435 -0.6200  0.4531  1.2236
  922SOL    HW2 6172   6.605   5.321   2.406 -0.0582 -0.7123  0.2567
  923SOL     OW 6173   5.428   5.107   2.239 -0.4767 -0.0058  0.3585
  923SOL    HW1 6174   5.475   5.093   2.157 -3.5068  1.7319 -1.8167
  923SOL    HW2 6175   5.463   5.042   2.299  2.1865 -1.0009 -2.1730
  924SOL     OW 6176   9.687  10.166   5.014  0.2836  0.6940  0.3097
  924SOL    HW1 6177   9.675  10.103   4.943  0.3371 -0.1767  1.0581
  924SOL    HW2 6178   9.599  10.196   5.035 -0.2782 -2.4939  2.9342
  925SOL     OW 6179   7.189   0.560   7.584  0.1256  0.4810 -0.2415
  925SOL    HW1 6180   7.172   0.466   7.579 -0.2086  0.6261 -2.0878
  925SOL    HW2 6181   7.108   0.597   7.619  0.1385  0.1152  0.1779
  926SOL     OW 6182   2.134   3.741   8.455  0.2119  0.0382  0.0957
  926SOL    HW1 6183   2.149   3.720   8.547 -1.1990 -1.0685  0.0927
  926SOL    HW2 6184   2.073   3.673   8.425  0.0846  0.8262 -1.4557
  927SOL     OW 6185   3.171  10.162   5.627 -0.1786  0.2432  0.2220
  927SOL    HW1 6186   3.111  10.204   5.567 -2.4157 -1.6677  1.0637
  927SOL    HW2 6187   3.154  10.204   5.712  1.3461  1.3291  0.0094
  928SOL     OW 6188   7.694   8.874   7.985 -0.5373  0.9703  0.3456
  928SOL    HW1 6189   7.605   8.900   7.964 -0.2635  1.9838  0.4118
  928SOL    HW2 6190   7.743   8.886   7.904 -0.5143  0.1678  0.2381
  929SOL     OW 6191   6.875   0.915   5.447 -0.1052 -0.1328 -0.1105
  929SOL    HW1 6192   6.950   0.948   5.496 -0.6432  0.4107  0.3540
  929SOL    HW2 6193   6.803   0.916   5.510 -0.2753 -1.5876 -0.2758
  930SOL     OW 6194  10.518   7.201   9.896  0.0980 -0.2425  0.5149
  930SOL    HW1 6195  10.530   7.130   9.960  1.8031 -0.2575  0.1993
  930SOL    HW2 6196  10.424   7.219   9.898  0.0591 -0.5507  2.7055
  931SOL     OW 6197   3.027  10.323   5.470  0.1900  0.1073 -0.1796
  931SOL    HW1 6198   2.934  10.338   5.484 -0.5029 -1.4838 -2.7957
  931SOL    HW2 6199   3.070  10.377   5.536 -2.5981 -0.8153  2.5071
  932SOL     OW 6200   4.444   1.200   4.287  0.2951 -0.6856  0.0549
  932SOL    HW1 6201   4.457   1.111   4.257  0.6187  0.0154 -1.9632
  932SOL    HW2 6202   4.379   1.237   4.228  1.8129  1.0952 -0.5738
  933SOL     OW 6203   7.005   4.755   2.760  0.8911 -0.3232  0.2323
  933SOL    HW1 6204   7.019   4.838   2.806 -0.3629 -0.0844  0.2015
  933SOL    HW2 6205   6.972   4.780   2.674 -0.4991 -0.8657  0.5871
  934SOL     OW 6206   5.841  10.359   6.451 -0.6395 -0.9605 -0.0158
  934SOL    HW1 6207   5.858  10.419   6.523  1.0983 -2.1940  0.6495
  934SOL    HW2 6208   5.749  10.371   6.430 -0.1888  2.4229 -0.3517
  935SOL     OW 6209   8.230   7.217   3.123 -0.2527 -0.5241 -0.7052
  935SOL    HW1 6210   8.312   7.183   3.159 -0.7809 -0.3342  0.7321
  935SOL    HW2 6211   8.167   7.204   3.193 -1.4182 -0.5252 -1.7520
  936SOL     OW 6212   2.006   0.394  10.937 -0.6044  0.1522  0.1749
  936SOL    HW1 6213   2.100   0.382  10.930 -0.2910  1.1672  2.1672
  936SOL    HW2 6214   1.980   0.433  10.854  0.5767 -1.0233 -0.7545
  937SOL     OW 6215   3.100   9.685   3.545  0.2414 -0.2072 -0.3315
  937SOL    HW1 6216   3.180   9.736   3.554 -0.0681  0.5274 -1.5829
  937SOL    HW2 6217   3.051   9.730   3.476  0.0741 -2.3413 -1.6457
  938SOL     OW 6218   1.012   5.279   0.232 -0.2836 -0.1744  0.3680
  938SOL    HW1 6219   0.935   5.288   0.176 -1.4598 -0.6760  1.8617
  938SOL    HW2 6220   1.047   5.368   0.239 -0.1689 -0.1014 -1.0847
  939SOL     OW 6221   9.768  10.764   6.507  0.1671  0.2184  0.3584
  939SOL    HW1 6222   9.851  10.799   6.540 -0.7682  1.7921  1.1320
  939SOL    HW2 6223   9.709  10.840   6.506 -0.8597 -0.5662 -1.5476
  940SOL     OW 6224   5.468  10.333   6.257  0.0378 -0.1892 -0.0311
  940SOL    HW1 6225   5.556  10.360   6.231  0.4969 -0.8812  0.7777
  940SOL    HW2 6226   5.417  10.336   6.176  0.5863  1.0388 -0.3495
  941SOL     OW 6227   4.401   5.758   0.268 -0.5208 -0.6143 -0.0030
  941SOL    HW1 6228   4.333   5.825   0.276  0.5841  0.4371  0.6462
  941SOL    HW2 6229   4.353   5.678   0.243 -1.8371  0.4005 -0.7745
  942SOL     OW 6230   0.528   2.059   5.472 -0.3782  0.3884  0.1257
  942SOL    HW1 6231   0.554   1.967   5.473 -0.4771  0.3639  2.2268
  942SOL    HW2 6232   0.442   2.059   5.429  0.7275 -0.1626 -2.1465
  943SOL     OW 6233   9.036   0.583   2.661  0.0603 -0.1825  0.5197
  943SOL    HW1 6234   9.048   0.624   2.747 -0.4391  1.7234 -0.2922
  943SOL    HW2 6235   8.953   0.618   2.630  0.3597 -0.6777 -0.8445
  944SOL     OW 6236   7.519   3.665  10.600  0.3916  0.8847  0.1417
  944SOL    HW1 6237   7.479   3.585  10.566  0.6602  0.9346 -0.2949
  944SOL    HW2 6238   7.599   3.676  10.549  0.9171  0.8431  0.9515
  945SOL     OW 6239   4.642   1.842   3.921 -0.5038 -0.5706 -0.0709
  945SOL    HW1 6240   4.651   1.935   3.900  0.1486 -0.7515 -0.6076
  945SOL    HW2 6241   4.718   1.801   3.881 -0.5081 -1.2650  0.6221
  946SOL     OW 6242   5.988   0.365   8.631 -0.9593 -0.4048  0.5832
  946SOL    HW1 6243   5.981   0.442   8.575  0.0160 -0.2778  0.6133
  946SOL    HW2 6244   5.901   0.326   8.631 -1.2877  0.3233  0.0264
  947SOL     OW 6245   0.349   3.522   4.055  0.0365 -0.0077 -0.3077
  947SOL    HW1 6246   0.435   3.561   4.037  1.1538 -1.9515  0.5993
  947SOL    HW2 6247   0.290   3.597   4.066  1.8918  1.3891  0.3859
  948SOL     OW 6248  10.088   4.278   0.098  0.2952 -0.2524  0.6749
  948SOL    HW1 6249  10.095   4.271   0.193  0.5420 -0.2839  0.6538
  948SOL    HW2 6250   9.995   4.262   0.080  0.3571 -0.8194  0.8541
  949SOL     OW 6251   6.063   5.939   7.981  0.4381  0.6899 -0.2150
  949SOL    HW1 6252   6.145   5.896   7.955 -0.1795 -0.1255 -0.8333
  949SOL    HW2 6253   6.087   6.031   7.991  0.9599  0.8526 -2.5749
  950SOL     OW 6254  10.564   6.759   4.072 -0.4096 -0.2718 -0.2240
  950SOL    HW1 6255  10.475   6.725   4.070 -0.5001  0.0044 -1.0544
  950SOL    HW2 6256  10.620   6.681   4.067 -0.6164 -0.2953 -3.0645
  951SOL     OW 6257   8.998   3.542   2.623  0.2974 -0.0577  0.5636
  951SOL    HW1 6258   8.916   3.532   2.670 -0.2524 -1.0713 -0.5861
  951SOL    HW2 6259   9.039   3.619   2.662 -0.8364  0.0015  1.6629
  952SOL     OW 6260   6.798   6.826   7.546 -0.6614  0.4505  0.3046
  952SOL    HW1 6261   6.818   6.791   7.460 -1.0529 -1.0345  0.7952
  952SOL    HW2 6262   6.857   6.900   7.557  0.4429 -0.2772 -0.6343
  953SOL     OW 6263   9.942   2.208   0.326  0.5760 -0.3787 -0.0614
  953SOL    HW1 6264   9.858   2.202   0.281  1.5517 -0.2940 -1.9235
  953SOL    HW2 6265   9.936   2.142   0.396  0.0978 -2.5272 -2.0692
  954SOL     OW 6266   4.295   4.293   9.042 -0.0420 -0.1475  0.2327
  954SOL    HW1 6267   4.268   4.201   9.033  0.4575 -0.2835  0.1137
  954SOL    HW2 6268   4.369   4.290   9.104 -1.0129  0.3455  1.4507
  955SOL     OW 6269   4.658   3.974  10.365 -0.0660 -0.4547 -0.0365
  955SOL    HW1 6270   4.658   4.053  10.311 -1.5221 -1.1867 -1.1634
  955SOL    HW2 6271   4.726   3.919  10.327 -0.4940 -0.6082 -0.5874
  956SOL     OW 6272   7.334   3.829   2.420 -0.2322  0.9787 -0.5348
  956SOL    HW1 6273   7.411   3.866   2.375  1.2419 -0.4411  0.7533
  956SOL    HW2 6274   7.367   3.751   2.464 -2.5654  0.0156 -0.4164
  957SOL     OW 6275   0.906   4.479   9.160 -0.1599  0.1523 -0.2003
  957SOL    HW1 6276   0.892   4.574   9.164 -3.0124 -0.1982 -0.9720
  957SOL    HW2 6277   0.827   4.444   9.119  0.6648 -2.6257  0.4363
  958SOL     OW 6278   7.456   4.161   6.413  0.2222 -0.0841 -0.0221
  958SOL    HW1 6279   7.388   4.163   6.345 -1.1425  0.5223  1.3252
  958SOL    HW2 6280   7.487   4.071   6.413  0.9548  0.1452 -2.1307
  959SOL     OW 6281   3.840   0.774   4.949  0.8884  0.1568 -0.6661
  959SOL    HW1 6282   3.880   0.834   4.886 -0.0160  1.2783 -0.1831
  959SOL    HW2 6283   3.883   0.795   5.032  1.5349 -0.7965 -0.7517
  960SOL     OW 6284   7.029   4.750   6.289 -0.1717  1.0487  0.1200
  960SOL    HW1 6285   7.099   4.727   6.350 -1.0696  2.0759  1.5417
  960SOL    HW2 6286   7.062   4.720   6.204 -0.5343 -3.8673  1.5773
  961SOL     OW 6287   4.693   7.849   1.247  0.5417 -0.0761 -0.2914
  961SOL    HW1 6288   4.672   7.832   1.155 -0.5277 -0.4399  0.0170
  961SOL    HW2 6289   4.785   7.875   1.246  0.7118 -0.7072 -1.3906
  962SOL     OW 6290   5.040   4.607   7.120 -0.4656 -0.1752 -0.0090
  962SOL    HW1 6291   4.986   4.647   7.051  1.1311 -0.5313 -1.4815
  962SOL    HW2 6292   4.987   4.533   7.151 -1.4832  0.3799 -0.3775
  963SOL     OW 6293   1.657   7.395   5.692 -0.1551 -0.6590  0.0474
  963SOL    HW1 6294   1.731   7.443   5.654 -0.2394 -1.3649 -1.0353
  963SOL    HW2 6295   1.655   7.423   5.783  0.9320  0.0058 -0.1169
  964SOL     OW 6296   4.193   0.856   6.045 -0.1985 -0.5409  0.2630
  964SOL    HW1 6297   4.119   0.808   6.007 -0.2222 -0.8187  0.6655
  964SOL    HW2 6298   4.271   0.807   6.016 -0.1425 -0.0242 -0.4925
  965SOL     OW 6299   2.540   9.327   3.888 -0.1468 -0.0566 -1.1630
  965SOL    HW1 6300   2.517   9.251   3.834 -0.6083 -1.2970  0.7585
  965SOL    HW2 6301   2.569   9.290   3.971  0.7224  1.8351 -0.5944
  966SOL     OW 6302   9.831   3.641   7.970 -0.0343  0.0874 -0.0579
  966SOL    HW1 6303   9.834   3.689   7.887 -0.0084  0.1031 -0.0481
  966SOL    HW2 6304   9.910   3.669   8.016 -0.5237  0.7984  0.3698
  967SOL     OW 6305   6.472   4.667   1.048  0.1549  0.1786 -0.2275
  967SOL    HW1 6306   6.552   4.667   1.101 -0.2125 -1.3287  0.3524
  967SOL    HW2 6307   6.428   4.749   1.070  0.4872  0.0226  1.0817
  968SOL     OW 6308   4.286   5.504   6.006  0.2792 -0.4849 -0.4017
  968SOL    HW1 6309   4.291   5.589   6.051 -1.1266 -0.6583  0.1109
  968SOL    HW2 6310   4.286   5.527   5.913 -3.0170  0.3112 -0.2758
  969SOL     OW 6311  10.332   0.030   6.152 -0.3631  0.1435 -0.0168
  969SOL    HW1 6312  10.269   0.024   6.080  0.7140  1.0209 -1.0605
  969SOL    HW2 6313  10.347   0.124   6.164  0.9432 -0.0560  0.0163
  970SOL     OW 6314   8.284   0.299   3.009  0.5265  0.3318 -0.2885
  970SOL    HW1 6315   8.202   0.301   2.961  0.4617  0.4027 -0.1770
  970SOL    HW2 6316   8.265   0.348   3.090 -0.2343 -2.3263  1.2121
  971SOL     OW 6317   7.626   4.295   4.859  0.5400 -0.3996  0.7997
  971SOL    HW1 6318   7.625   4.370   4.799  0.0265 -1.2595 -0.2837
  971SOL    HW2 6319   7.684   4.322   4.930  1.4913  0.5005 -0.2866
  972SOL     OW 6320   9.837   7.817   1.786  0.5746 -0.2619  0.1413
  972SOL    HW1 6321   9.882   7.902   1.793 -3.5504  1.9605  1.7087
  972SOL    HW2 6322   9.755   7.838   1.741 -1.1125 -3.1375  1.7451
  973SOL     OW 6323   9.333   4.521   0.837 -0.2478 -0.0743 -0.0360
  973SOL    HW1 6324   9.401   4.460   0.810 -0.6749 -0.0118 -1.2873
  973SOL    HW2 6325   9.286   4.475   0.906  0.4503 -0.5126  0.1452
  974SOL     OW 6326   2.731   2.392   8.515 -0.1633  0.7126 -0.8245
  974SOL    HW1 6327   2.743   2.477   8.555 -0.6039  0.7717 -0.8131
  974SOL    HW2 6328   2.744   2.329   8.586 -1.6095  0.8426 -0.4285
  975SOL     OW 6329   9.174   4.589   2.890 -0.2595 -0.2379  0.5041
  975SOL    HW1 6330   9.134   4.637   2.962 -1.2048  0.4026 -0.4317
  975SOL    HW2 6331   9.250   4.545   2.929 -0.7263  0.1495  1.8623
  976SOL     OW 6332   8.299   7.567   7.535 -0.0151 -0.2751 -0.1922
  976SOL    HW1 6333   8.285   7.582   7.442 -0.0811 -0.5443 -0.2261
  976SOL    HW2 6334   8.214   7.587   7.576  0.2321  0.6032 -0.0960
  977SOL     OW 6335  10.903   0.889   0.179 -0.1956 -0.1588  0.1844
  977SOL    HW1 6336  10.834   0.912   0.241 -0.6852 -1.7339  0.2506
  977SOL    HW2 6337  10.868   0.814   0.130  0.2306  0.9683 -1.9120
  978SOL     OW 6338   3.902   8.304   5.473 -0.6296 -0.0537 -0.3528
  978SOL    HW1 6339   3.885   8.398   5.477 -0.6800 -0.0231 -1.1536
  978SOL    HW2 6340   3.951   8.285   5.553  2.0577  1.2235 -1.6152
  979SOL     OW 6341   0.810   7.568   1.762 -0.6255  0.4159 -0.0295
  979SOL    HW1 6342   0.801   7.543   1.670  0.8441 -0.0868 -0.0526
  979SOL    HW2 6343   0.902   7.552   1.782 -0.9269  0.5480  1.5243
  980SOL     OW 6344   6.976   0.739  10.323 -0.5360 -0.3555  0.1795
  980SOL    HW1 6345   6.980   0.675  10.252 -0.1086 -0.5158  0.3429
  980SOL    HW2 6346   6.994   0.823  10.281  1.8986 -0.7172  0.4390
  981SOL     OW 6347   7.477   9.412   8.484  0.9407  0.1349 -0.0215
  981SOL    HW1 6348   7.460   9.491   8.433 -1.1105  0.6095  1.3432
  981SOL    HW2 6349   7.520   9.352   8.422  0.2805  1.4085 -1.7471
  982SOL     OW 6350   5.736   9.766  10.274 -0.3861  0.2218  0.5960
  982SOL    HW1 6351   5.734   9.672  10.258  0.7202  0.5297 -1.5210
  982SOL    HW2 6352   5.651   9.786  10.313 -0.2465 -1.7913  1.9677
  983SOL     OW 6353  10.117   0.231   9.895 -0.0098  0.1943  0.3554
  983SOL    HW1 6354  10.025   0.228   9.869 -0.1795 -1.1351  1.0740
  983SOL    HW2 6355  10.138   0.141   9.918  1.0453  0.7665  1.6654
  984SOL     OW 6356   5.307   3.353   2.900 -0.3907 -0.6290  0.3851
  984SOL    HW1 6357   5.373   3.393   2.957  1.2690  0.9864 -2.5152
  984SOL    HW2 6358   5.356   3.289   2.849 -1.2410 -0.1425 -1.0815
  985SOL     OW 6359   6.023   8.622   6.038  0.3301 -0.0764 -0.2491
  985SOL    HW1 6360   5.993   8.664   6.119  1.2053  0.0806  0.0051
  985SOL    HW2 6361   5.974   8.665   5.969  1.4028  1.5919 -0.0145
  986SOL     OW 6362   5.028   3.934   2.109  0.3697  0.4695  0.5853
  986SOL    HW1 6363   4.953   3.960   2.161 -0.2758 -1.1955  0.5139
  986SOL    HW2 6364   4.995   3.864   2.052  1.5005  1.0193 -0.7827
  987SOL     OW 6365   2.991   7.708   7.358 -0.3871  0.3022  0.1852
  987SOL    HW1 6366   3.053   7.636   7.371  0.2501  0.8428  0.1749
  987SOL    HW2 6367   2.919   7.689   7.419  0.4424  0.4112  1.2079
  988SOL     OW 6368   2.856   9.268   3.155 -0.4455  0.4510  0.1385
  988SOL    HW1 6369   2.864   9.272   3.060  1.8173 -2.2966  0.1728
  988SOL    HW2 6370   2.783   9.207   3.170 -0.4344  0.4429  0.1580
  989SOL     OW 6371   8.768  10.004   7.096  0.2651 -0.0566 -0.5070
  989SOL    HW1 6372   8.766  10.053   7.013  0.3636  1.2019  0.2201
  989SOL    HW2 6373   8.690  10.035   7.142  0.8678  0.1450  0.3758
  990SOL     OW 6374   0.032   1.609   4.593  0.1104 -0.2224 -0.6425
  990SOL    HW1 6375   0.073   1.530   4.555 -2.3230 -1.8817  0.0686
  990SOL    HW2 6376   0.100   1.647   4.648  0.6155 -3.1544  0.8529
  991SOL     OW 6377   6.195   2.305   8.047  0.0812 -0.4001 -0.3918
  991SOL    HW1 6378   6.158   2.388   8.019 -0.9100 -0.1408  1.5514
  991SOL    HW2 6379   6.276   2.295   7.997 -0.1242  1.4131 -1.0988
  992SOL     OW 6380  10.279   1.179   0.237 -0.5731  0.5967  0.0738
  992SOL    HW1 6381  10.360   1.187   0.287 -0.9524  2.2984  0.4454
  992SOL    HW2 6382  10.308   1.157   0.148  0.3355  1.9774  0.0248
  993SOL     OW 6383   9.857   9.030   4.216  0.0851  0.4191 -0.0938
  993SOL    HW1 6384   9.808   8.948   4.226  1.4467 -0.5931 -1.4267
  993SOL    HW2 6385   9.816   9.073   4.141  1.6631 -0.8208 -1.7447
  994SOL     OW 6386  10.792   3.915   6.378 -0.3098 -0.1543 -0.0466
  994SOL    HW1 6387  10.762   3.898   6.467  1.8658  0.1678  0.7617
  994SOL    HW2 6388  10.795   4.010   6.372 -0.0694 -0.1821 -0.3461
  995SOL     OW 6389   4.066   5.749   2.457 -0.3150 -0.7069  0.4638
  995SOL    HW1 6390   3.990   5.696   2.432 -1.5075 -0.8201  4.1032
  995SOL    HW2 6391   4.030   5.836   2.472  0.4536 -0.5182  1.2419
  996SOL     OW 6392   7.825   8.257   0.847  0.5512  0.4407  0.2343
  996SOL    HW1 6393   7.850   8.236   0.937 -0.7346 -1.2721  0.2040
  996SOL    HW2 6394   7.899   8.227   0.794  0.9489  0.6967  0.6427
  997SOL     OW 6395   7.104   0.249   3.559 -0.4057 -0.1178  0.1288
  997SOL    HW1 6396   7.059   0.250   3.474 -0.9490 -0.0207  0.4157
  997SOL    HW2 6397   7.086   0.335   3.597  1.4281  0.5738 -0.4721
  998SOL     OW 6398   3.439   3.641   7.598 -0.3407 -0.6256  0.4951
  998SOL    HW1 6399   3.419   3.595   7.516 -0.6388 -0.6643  0.5907
  998SOL    HW2 6400   3.454   3.571   7.662  2.0860 -0.6394 -0.0405
  999SOL     OW 6401   8.684   7.532   5.168  0.1536 -0.1300 -0.6388
  999SOL    HW1 6402   8.644   7.451   5.200  0.5546  0.6538  1.8884
  999SOL    HW2 6403   8.670   7.529   5.073 -2.2383 -1.8471 -0.2822
 1000SOL     OW 6404   9.038   7.599   8.999 -0.1599 -0.5997  0.0888
 1000SOL    HW1 6405   9.064   7.662   9.066 -2.9887  1.3593 -0.5945
 1000SOL    HW2 6406   9.110   7.536   8.997  1.0511  0.5713  3.3206
 1001SOL     OW 6407   2.534   1.928   9.867 -0.2620 -0.0693  0.3711
 1001SOL    HW1 6408   2.507   1.881   9.946 -0.8465 -0.1941  0.0936
 1001SOL    HW2 6409   2.623   1.959   9.887 -0.7002  0.5723  1.3806
 1002SOL     OW 6410   7.959   2.643   4.595 -0.2389 -0.0291  0.5224
 1002SOL    HW1 6411   8.033   2.661   4.653 -0.0982  1.1884 -0.0350
 1002SOL    HW2 6412   7.911   2.725   4.590 -0.2785 -0.1266 -1.0608
 1003SOL     OW 6413   5.930   4.985   0.948  0.5354 -0.1575 -0.2910
 1003SOL    HW1 6414   5.891   5.060   0.992  1.6660  0.2175  0.0759
 1003SOL    HW2 6415   5.957   5.018   0.862  1.2572 -0.0921 -0.0341
 1004SOL     OW 6416   0.122   9.285   9.538  0.5244 -0.7378 -0.2626
 1004SOL    HW1 6417   0.126   9.331   9.622  1.9959  0.2240 -0.8345
 1004SOL    HW2 6418   0.071   9.343   9.481  1.5629 -0.2393 -0.7065
 1005SOL     OW 6419   0.024   9.911   4.526  0.2132  0.0441  0.2661
 1005SOL    HW1 6420  -0.054   9.966   4.533  0.1145  0.2188 -1.6750
 1005SOL    HW2 6421  -0.009   9.826   4.497  0.7251  0.1002 -0.5032
 1006SOL     OW 6422   9.635   5.655   4.107 -0.0463 -0.2392 -0.4617
 1006SOL    HW1 6423   9.663   5.604   4.182 -1.5016  0.3738  0.5432
 1006SOL    HW2 6424   9.602   5.737   4.145  2.5122  1.5946 -2.0386
 1007SOL     OW 6425   3.458   0.921   0.947 -0.3040 -0.0562  0.0830
 1007SOL    HW1 6426   3.468   0.875   0.864 -0.8954  0.7641 -0.4410
 1007SOL    HW2 6427   3.366   0.944   0.952 -0.3089 -0.2593  1.0542
 1008SOL     OW 6428  10.165   9.576   5.168 -0.1185 -0.4413  0.2386
 1008SOL    HW1 6429  10.159   9.606   5.259  0.6402  0.0981  0.1090
 1008SOL    HW2 6430  10.163   9.480   5.175  1.0355 -0.4249  0.9117
 1009SOL     OW 6431   5.324   4.216  10.286  0.1113 -0.4692  0.1115
 1009SOL    HW1 6432   5.365   4.248  10.205  0.7049 -2.1220 -0.2598
 1009SOL    HW2 6433   5.390   4.160  10.326 -1.2791 -2.0889  0.1998
 1010SOL     OW 6434   5.093   0.535   1.544 -0.4344 -0.2265 -0.0691
 1010SOL    HW1 6435   5.049   0.509   1.463  2.1231  0.9394 -1.9144
 1010SOL    HW2 6436   5.030   0.517   1.613 -2.4142 -1.9282 -2.2573
 1011SOL     OW 6437   4.046   9.869   3.924  0.6881 -0.0901  0.3060
 1011SOL    HW1 6438   4.050   9.915   4.008 -0.2887  1.3448 -0.4087
 1011SOL    HW2 6439   4.092   9.926   3.862 -0.9217  0.1638 -0.6903
 1012SOL     OW 6440   1.008   9.958   1.614 -0.2411  0.7599  0.0903
 1012SOL    HW1 6441   0.912   9.957   1.617 -0.2270  0.6279  0.5359
 1012SOL    HW2 6442   1.029   9.998   1.530 -0.7054 -0.7952 -0.7835
 1013SOL     OW 6443   9.435   9.286   9.739  0.0499  0.1380  0.1945
 1013SOL    HW1 6444   9.497   9.214   9.736  0.8264  0.6927  2.3447
 1013SOL    HW2 6445   9.371   9.260   9.805  0.3320  1.4023  0.9764
 1014SOL     OW 6446   9.435   8.415   5.730  0.2559  0.0468  0.0335
 1014SOL    HW1 6447   9.476   8.342   5.685  0.6805 -0.4445  1.1975
 1014SOL    HW2 6448   9.395   8.376   5.808  0.3956  1.0211  0.6073
 1015SOL     OW 6449   8.330   9.782   4.085  0.1294  0.1182  0.2358
 1015SOL    HW1 6450   8.351   9.739   4.168 -1.0310 -0.4872  0.2311
 1015SOL    HW2 6451   8.247   9.742   4.058  0.2919  0.6050 -1.0103
 1016SOL     OW 6452   6.725   4.141   9.750  0.0258 -0.2730  0.2413
 1016SOL    HW1 6453   6.669   4.109   9.821 -0.8676  1.1070  0.1617
 1016SOL    HW2 6454   6.677   4.120   9.670  0.7725 -1.3073  0.0457
 1017SOL     OW 6455   6.655   4.988   9.174 -0.3253 -0.0560  0.3444
 1017SOL    HW1 6456   6.634   5.072   9.133 -0.9582 -0.1311  0.5122
 1017SOL    HW2 6457   6.696   5.011   9.257  1.9833  0.1136 -0.8035
 1018SOL     OW 6458  10.795   0.662   0.070 -0.1431 -0.2873 -0.4650
 1018SOL    HW1 6459  10.770   0.647  -0.021  1.9589  2.0189 -1.4693
 1018SOL    HW2 6460  10.853   0.589   0.091  0.6947  0.0584 -1.5239
 1019SOL     OW 6461   9.079   4.690  10.699 -0.2679 -0.1054  0.0709
 1019SOL    HW1 6462   9.163   4.722  10.731 -1.0011  0.0301  1.9109
 1019SOL    HW2 6463   9.047   4.759  10.641  0.2637  0.4528  0.4352
 1020SOL     OW 6464   1.548   4.430   0.700 -0.0859 -0.6393  0.1206
 1020SOL    HW1 6465   1.509   4.440   0.787 -0.2982 -1.7799  0.1669
 1020SOL    HW2 6466   1.477   4.453   0.639  0.1141  0.3212  0.2476
 1021SOL     OW 6467   8.583   7.254   3.030  0.4911  0.4457 -0.4693
 1021SOL    HW1 6468   8.652   7.189   3.039  0.5141  0.7737  1.9759
 1021SOL    HW2 6469   8.517   7.211   2.976  1.6397 -0.6706 -0.9950
 1022SOL     OW 6470   7.786   8.522   7.617 -0.1251  0.5654  0.1383
 1022SOL    HW1 6471   7.855   8.474   7.662 -0.3195 -0.3959 -0.5543
 1022SOL    HW2 6472   7.808   8.514   7.524 -0.9765  0.5376 -0.0688
 1023SOL     OW 6473   2.409   6.504   4.029 -0.0075  0.0906  0.4231
 1023SOL    HW1 6474   2.362   6.531   3.950  1.4066 -0.7944 -0.7675
 1023SOL    HW2 6475   2.500   6.496   4.000  0.7591  1.0661  2.4885
 1024SOL     OW 6476   4.901  10.680   4.482 -0.0434 -0.3271  0.0167
 1024SOL    HW1 6477   4.863  10.671   4.570 -0.4246  0.4232 -0.0695
 1024SOL    HW2 6478   4.970  10.745   4.492  1.2678 -1.7065  0.1754
 1025SOL     OW 6479   8.484   3.111  10.109  0.4094 -0.0665  0.1605
 1025SOL    HW1 6480   8.418   3.103  10.179  1.1039 -0.5066  0.7849
 1025SOL    HW2 6481   8.532   3.028  10.113  0.8219  0.1395 -0.4740
 1026SOL     OW 6482  10.101  10.558  10.931 -0.3435  0.1017  0.1189
 1026SOL    HW1 6483  10.054  10.640  10.915 -0.2683  0.0695 -0.2629
 1026SOL    HW2 6484  10.172  10.557  10.867  0.4849  0.3861  1.0268
 1027SOL     OW 6485   3.062   1.460   8.500 -0.6754  0.1712  0.4804
 1027SOL    HW1 6486   3.144   1.474   8.548  1.2366  0.0049 -2.6244
 1027SOL    HW2 6487   3.021   1.386   8.545  0.3567  0.8760  2.6830
 1028SOL     OW 6488   9.150   2.403   8.502  0.0409  0.6404  0.4918
 1028SOL    HW1 6489   9.242   2.419   8.480  0.1877  1.6582  1.8026
 1028SOL    HW2 6490   9.103   2.478   8.466 -0.1500  0.6084  0.6712
 1029SOL     OW 6491   9.693   1.197   8.904 -0.0954 -0.1075 -0.5377
 1029SOL    HW1 6492   9.655   1.138   8.839 -0.3590 -0.5128 -0.0264
 1029SOL    HW2 6493   9.778   1.223   8.868  0.9055 -2.3641  0.0966
 1030SOL     OW 6494   0.497   9.265  10.065 -0.7489  0.5382 -0.1853
 1030SOL    HW1 6495   0.562   9.316  10.113 -0.1837 -0.0587 -0.2963
 1030SOL    HW2 6496   0.518   9.174  10.086 -0.4401  0.2563 -1.6152
 1031SOL     OW 6497   5.419   2.985   9.424 -0.0430  0.1745  0.0124
 1031SOL    HW1 6498   5.502   2.972   9.378  1.0169  0.9660  1.6358
 1031SOL    HW2 6499   5.430   2.939   9.507 -0.5489  1.7515  0.9876
 1032SOL     OW 6500   9.205   6.648   2.422  0.6049  0.0204  0.0760
 1032SOL    HW1 6501   9.284   6.639   2.368  0.1732  2.1367 -0.9524
 1032SOL    HW2 6502   9.132   6.639   2.360  0.0700  0.1406  0.6822
 1033SOL     OW 6503   4.015   0.968   1.526 -0.7656  0.2337 -0.5741
 1033SOL    HW1 6504   4.109   0.951   1.526 -0.8973 -0.5065 -0.9859
 1033SOL    HW2 6505   3.978   0.898   1.472 -1.8279 -1.0284  1.7057
 1034SOL     OW 6506   6.536   0.884   6.757  0.4852 -0.2492  0.3530
 1034SOL    HW1 6507   6.583   0.853   6.834 -2.5139 -1.6457  1.7015
 1034SOL    HW2 6508   6.486   0.808   6.727 -1.6774  1.4267 -0.4338
 1035SOL     OW 6509   0.924   5.508  10.503 -0.2923  0.0099 -0.2190
 1035SOL    HW1 6510   0.887   5.421  10.521 -0.1118  0.0023  0.1329
 1035SOL    HW2 6511   0.963   5.534  10.586 -1.1205  0.8210 -0.0818
 1036SOL     OW 6512   2.332   5.210   7.860  0.1144 -0.1504 -0.2217
 1036SOL    HW1 6513   2.328   5.289   7.914 -0.8480 -1.5978  1.9057
 1036SOL    HW2 6514   2.265   5.153   7.897  0.5905 -1.8394 -1.9118
 1037SOL     OW 6515   9.106   4.257   8.468 -0.1290  0.1691  0.5330
 1037SOL    HW1 6516   9.104   4.170   8.507 -1.3664  0.7250  1.7407
 1037SOL    HW2 6517   9.094   4.241   8.374 -0.5795 -0.9506  0.7698
 1038SOL     OW 6518   3.123   4.270   4.174 -0.2629 -0.5856 -0.2184
 1038SOL    HW1 6519   3.069   4.202   4.215 -0.2604 -0.7003 -0.4042
 1038SOL    HW2 6520   3.089   4.278   4.085 -0.5384 -0.0376 -0.0669
 1039SOL     OW 6521   3.589   9.180  10.855 -0.0210  0.3885 -0.4878
 1039SOL    HW1 6522   3.554   9.093  10.872 -0.4904  0.5892 -0.4273
 1039SOL    HW2 6523   3.544   9.238  10.917 -1.0841  0.9702 -1.7855
 1040SOL     OW 6524   8.122   1.819   8.163 -0.2332 -0.2044  0.0924
 1040SOL    HW1 6525   8.181   1.777   8.101 -0.5129  0.8151 -0.8869
 1040SOL    HW2 6526   8.147   1.912   8.161 -0.8717 -0.0048  0.8016
 1041SOL     OW 6527   5.708   5.776   3.929 -0.4394 -0.0148  0.0588
 1041SOL    HW1 6528   5.762   5.722   3.871 -0.8186  0.1591 -0.4661
 1041SOL    HW2 6529   5.666   5.838   3.870 -0.7726  0.2119  0.5374
 1042SOL     OW 6530   1.535   0.330   7.507  0.2631 -0.2473 -0.0505
 1042SOL    HW1 6531   1.592   0.312   7.582  2.7224 -0.7072 -1.9463
 1042SOL    HW2 6532   1.575   0.281   7.435 -3.0870 -1.2923 -1.2502
 1043SOL     OW 6533   6.656   1.377   5.401  0.3534  0.3012 -0.1681
 1043SOL    HW1 6534   6.592   1.335   5.344  2.2772 -2.8866 -0.1157
 1043SOL    HW2 6535   6.732   1.392   5.344  1.2725 -0.3831  0.8415
 1044SOL     OW 6536   5.570   3.172   1.550  0.0626 -0.3491 -0.6732
 1044SOL    HW1 6537   5.530   3.090   1.520  1.0525 -0.9866 -0.2544
 1044SOL    HW2 6538   5.508   3.240   1.523 -2.1770 -1.4585  1.4430
 1045SOL     OW 6539   6.376   6.570   3.591 -0.2954 -0.2014 -0.0573
 1045SOL    HW1 6540   6.387   6.476   3.573 -0.1568  0.0858 -1.5221
 1045SOL    HW2 6541   6.385   6.612   3.506 -1.3015  1.0705  0.4441
 1046SOL     OW 6542   0.873   2.416   0.075  0.4241 -0.1136  0.3832
 1046SOL    HW1 6543   0.913   2.402  -0.011  0.2543  2.2386 -0.1080
 1046SOL    HW2 6544   0.799   2.355   0.077  0.9631 -0.8185 -0.7679
 1047SOL     OW 6545   8.980   0.562   8.686 -0.0150 -0.8211 -0.4452
 1047SOL    HW1 6546   9.042   0.603   8.626  1.4657 -0.6908  1.1615
 1047SOL    HW2 6547   9.028   0.489   8.724 -1.0256 -1.0553  0.3906
 1048SOL     OW 6548   3.168   6.662   4.782 -0.7433  0.0690 -0.2236
 1048SOL    HW1 6549   3.222   6.741   4.776 -0.5786  0.0376  0.6722
 1048SOL    HW2 6550   3.220   6.601   4.834 -1.3380 -0.2224  0.0457
 1049SOL     OW 6551   0.916   2.127   7.890 -0.1514 -0.4796 -0.1273
 1049SOL    HW1 6552   0.916   2.062   7.960 -0.8070  0.4211  0.7281
 1049SOL    HW2 6553   0.944   2.208   7.933 -0.2229  0.0023 -0.9878
 1050SOL     OW 6554   7.525   3.411   0.291  0.0651  0.0661  0.4847
 1050SOL    HW1 6555   7.493   3.328   0.325 -2.1981 -0.4403 -2.6520
 1050SOL    HW2 6556   7.446   3.466   0.285  0.9510  1.2380 -0.7288
 1051SOL     OW 6557   2.903   8.310   2.973  0.2841 -0.1627 -0.8905
 1051SOL    HW1 6558   2.867   8.242   3.031  0.3684  0.4702 -0.0831
 1051SOL    HW2 6559   2.832   8.373   2.965  1.8006  2.0904  2.3053
 1052SOL     OW 6560   0.941   3.919   7.177  0.1441  0.4399  0.2863
 1052SOL    HW1 6561   1.008   3.954   7.235  0.0181 -1.5718  1.6869
 1052SOL    HW2 6562   0.987   3.902   7.095  0.7537  1.4583  0.4054
 1053SOL     OW 6563   4.093   9.768   4.820  1.1888  0.3593 -0.6592
 1053SOL    HW1 6564   4.040   9.688   4.818  2.0341 -0.1929 -1.7601
 1053SOL    HW2 6565   4.168   9.746   4.874  2.1002 -0.0398 -2.0678
 1054SOL     OW 6566   3.725   0.873   1.676 -0.0768 -0.4814 -0.0116
 1054SOL    HW1 6567   3.712   0.908   1.588 -1.6275 -1.4520 -0.1899
 1054SOL    HW2 6568   3.673   0.792   1.678 -1.1744  0.2351  2.2184
 1055SOL     OW 6569   7.883   1.303   8.607  0.5249  0.5872  0.3589
 1055SOL    HW1 6570   7.841   1.360   8.672  2.4792  0.9922  1.2909
 1055SOL    HW2 6571   7.938   1.362   8.556  0.2951 -0.0079 -0.5764
 1056SOL     OW 6572   0.495   4.279   4.585 -0.1257  0.6063  0.2984
 1056SOL    HW1 6573   0.435   4.282   4.511  1.0709 -0.8475 -0.7769
 1056SOL    HW2 6574   0.503   4.186   4.606  1.4060  0.8088  0.6879
 1057SOL     OW 6575   2.185   3.679   2.015  0.1012  0.2145  0.0380
 1057SOL    HW1 6576   2.130   3.756   2.029  0.1497 -0.0801  2.0922
 1057SOL    HW2 6577   2.124   3.613   1.981 -0.1687  0.8255 -0.6783
 1058SOL     OW 6578  10.168   8.523   6.772  0.4140  0.5134 -0.0551
 1058SOL    HW1 6579  10.197   8.536   6.682  1.3791 -1.5961 -0.0776
 1058SOL    HW2 6580  10.216   8.445   6.802 -0.5923  0.6340  1.9728
 1059SOL     OW 6581   0.414   7.611   3.435 -0.5397 -0.0120  0.4142
 1059SOL    HW1 6582   0.445   7.604   3.525 -0.2266 -1.5064  0.2069
 1059SOL    HW2 6583   0.475   7.674   3.394 -1.9914  2.3523  1.7607
 1060SOL     OW 6584   2.974   0.709  10.746 -0.2456  0.3021  1.0504
 1060SOL    HW1 6585   3.000   0.618  10.761 -0.3407 -0.1898 -1.5429
 1060SOL    HW2 6586   2.880   0.710  10.761 -0.1591  0.0910  1.6012
 1061SOL     OW 6587   8.153   9.452   2.361  0.1658  0.0267  0.0305
 1061SOL    HW1 6588   8.155   9.494   2.447  0.3231 -1.3162  0.6904
 1061SOL    HW2 6589   8.138   9.360   2.379 -0.6457 -0.1511 -1.4348
 1062SOL     OW 6590   8.745   9.602   0.466 -0.0891 -0.9377 -0.4356
 1062SOL    HW1 6591   8.773   9.601   0.557  0.3339  1.5739 -0.4845
 1062SOL    HW2 6592   8.654   9.572   0.468 -0.4918  0.2884  1.0011
 1063SOL     OW 6593   3.592   9.752   4.874 -0.0096  0.2591  0.1353
 1063SOL    HW1 6594   3.585   9.797   4.790 -1.7807  0.1274  0.1922
 1063SOL    HW2 6595   3.568   9.818   4.939 -0.3372 -0.1150  0.3976
 1064SOL     OW 6596   3.646   5.282   0.331 -0.0327  0.5085 -0.0182
 1064SOL    HW1 6597   3.590   5.323   0.397  1.4077 -1.4329  2.5426
 1064SOL    HW2 6598   3.609   5.309   0.247 -1.5290  3.6226  1.5585
 1065SOL     OW 6599   5.906   0.994   3.100 -0.0386 -0.5386 -0.0167
 1065SOL    HW1 6600   5.906   0.909   3.143  1.3550 -0.8535 -0.6247
 1065SOL    HW2 6601   5.883   1.056   3.169  1.4605 -1.1266  1.0315
 1066SOL     OW 6602   3.264   4.315   3.481  0.7611 -0.5568  0.2371
 1066SOL    HW1 6603   3.287   4.224   3.463  0.2161 -0.4638 -1.0050
 1066SOL    HW2 6604   3.337   4.366   3.446  0.5012 -0.4590 -0.1655
 1067SOL     OW 6605  10.099   6.035   3.669 -0.2999 -0.7112 -0.0279
 1067SOL    HW1 6606  10.008   6.034   3.638 -0.3261 -0.9246  0.0565
 1067SOL    HW2 6607  10.151   6.041   3.589 -0.4434  1.7388  0.0405
 1068SOL     OW 6608   0.330   6.468   4.033  0.0061 -0.1012 -0.1488
 1068SOL    HW1 6609   0.288   6.412   3.969 -0.5718  1.6460 -1.3432
 1068SOL    HW2 6610   0.360   6.544   3.983 -0.7856  1.4748  1.6835
 1069SOL     OW 6611   4.612   1.304   5.592  0.1319 -0.5421 -0.5955
 1069SOL    HW1 6612   4.553   1.364   5.546 -0.8712 -0.8511  0.2658
 1069SOL    HW2 6613   4.596   1.219   5.551 -0.3706 -0.7136 -0.0565
 1070SOL     OW 6614   6.512   3.606   0.468 -1.0825  0.0249 -0.9712
 1070SOL    HW1 6615   6.417   3.609   0.482 -1.1881  0.6139 -1.7918
 1070SOL    HW2 6616   6.544   3.544   0.534 -1.9111  0.6349  0.0231
 1071SOL     OW 6617   3.416   7.587   3.601 -0.1081 -0.4318  0.0675
 1071SOL    HW1 6618   3.382   7.625   3.521  1.1265  1.2517  0.3191
 1071SOL    HW2 6619   3.340   7.577   3.658 -0.4342  1.7777  0.0362
 1072SOL     OW 6620   9.906   8.888  10.829 -0.1123  0.4213  0.0227
 1072SOL    HW1 6621   9.831   8.855  10.779 -0.7983  1.2776  0.4723
 1072SOL    HW2 6622   9.928   8.816  10.889 -0.4944  0.1178 -0.2006
 1073SOL     OW 6623   0.147   9.135   4.297  0.0936 -0.1527  0.7464
 1073SOL    HW1 6624   0.147   9.139   4.201  1.3423  1.7524  0.7921
 1073SOL    HW2 6625   0.172   9.045   4.317  0.8376 -0.2956 -0.7287
 1074SOL     OW 6626   8.851   3.865   5.262  0.0017  0.9652 -0.8792
 1074SOL    HW1 6627   8.807   3.909   5.335  0.9821 -0.6122  0.7130
 1074SOL    HW2 6628   8.939   3.904   5.260 -0.0173  0.9929 -1.1976
 1075SOL     OW 6629   3.137   4.163   8.224 -0.0129  0.3907 -0.3010
 1075SOL    HW1 6630   3.089   4.237   8.261  0.9730 -0.1236  2.1067
 1075SOL    HW2 6631   3.208   4.146   8.286  1.3040 -0.9690 -2.1065
 1076SOL     OW 6632   2.303  10.771   9.623 -0.1160 -0.2244  0.1245
 1076SOL    HW1 6633   2.288  10.840   9.688 -1.7413 -2.1000  1.8200
 1076SOL    HW2 6634   2.217  10.757   9.583  0.6199  0.0637 -1.6091
 1077SOL     OW 6635   7.174   8.279   6.688 -0.1047  0.5440 -0.1239
 1077SOL    HW1 6636   7.162   8.282   6.593 -0.6884 -3.2267 -0.2121
 1077SOL    HW2 6637   7.132   8.198   6.716  2.4035  0.2208  3.0229
 1078SOL     OW 6638   1.447   6.854   1.750  0.1543 -0.3436  0.3941
 1078SOL    HW1 6639   1.489   6.869   1.835  2.3085  0.0532 -0.6960
 1078SOL    HW2 6640   1.453   6.939   1.705  0.1939 -0.8837 -0.6416
 1079SOL     OW 6641   6.590   7.941  10.474  0.1758 -0.6448  0.2417
 1079SOL    HW1 6642   6.650   7.892  10.418 -0.1371  0.0694 -0.7238
 1079SOL    HW2 6643   6.617   8.033  10.464 -1.8151 -0.1818 -1.1234
 1080SOL     OW 6644   9.249   8.512   0.085  0.3746 -0.5568 -0.1101
 1080SOL    HW1 6645   9.215   8.473   0.166  0.4657 -0.0848  0.1535
 1080SOL    HW2 6646   9.171   8.525   0.031  0.6863 -4.4213 -1.6499
 1081SOL     OW 6647   6.046   5.321   8.928  0.3222  0.2323  0.0154
 1081SOL    HW1 6648   6.096   5.300   9.008  0.0944 -0.6493 -0.0716
 1081SOL    HW2 6649   5.966   5.270   8.936  1.4655 -1.9591 -2.0490
 1082SOL     OW 6650   8.579   8.490  10.060 -0.6262 -0.4600  0.3250
 1082SOL    HW1 6651   8.503   8.517  10.010 -1.3818 -0.3358  1.5359
 1082SOL    HW2 6652   8.593   8.560  10.123 -0.4061 -1.1817  1.0846
 1083SOL     OW 6653   3.792   3.434   8.565 -0.3164  0.2821 -0.1694
 1083SOL    HW1 6654   3.822   3.464   8.480 -1.7723 -0.7748 -1.0993
 1083SOL    HW2 6655   3.776   3.340   8.553 -2.1352  0.4358  0.7640
 1084SOL     OW 6656   6.421   9.631   7.385 -0.2381 -0.0995 -0.0829
 1084SOL    HW1 6657   6.459   9.718   7.399 -1.6133  0.6149 -0.6653
 1084SOL    HW2 6658   6.443   9.582   7.465  0.8235  0.6798  0.1054
 1085SOL     OW 6659   3.046  10.368   1.465 -0.0024 -0.1262  0.4066
 1085SOL    HW1 6660   3.004  10.454   1.476  0.3465 -0.1355  1.9081
 1085SOL    HW2 6661   3.058  10.360   1.370  0.0337  1.5175  0.2483
 1086SOL     OW 6662   1.636   6.909   7.027 -0.6621 -0.0336  0.7039
 1086SOL    HW1 6663   1.654   6.926   6.934 -0.9216  1.1736  0.8632
 1086SOL    HW2 6664   1.615   6.816   7.031 -1.0275 -0.0129 -0.5147
 1087SOL     OW 6665   4.984   6.037   3.606  0.1712  0.7812  0.2293
 1087SOL    HW1 6666   4.931   6.006   3.679 -0.8315  0.1924 -0.7288
 1087SOL    HW2 6667   5.019   6.121   3.634  1.2398 -0.2512  2.0717
 1088SOL     OW 6668   3.948   5.114  10.943  0.0455  0.3842 -0.1272
 1088SOL    HW1 6669   3.988   5.069  10.869  1.0803  1.3629 -0.1776
 1088SOL    HW2 6670   3.949   5.049  11.014  0.7405  0.0381 -0.4442
 1089SOL     OW 6671   7.610   0.672   5.915  0.2785  0.5034 -0.2803
 1089SOL    HW1 6672   7.528   0.637   5.950  1.3802 -1.0807  0.7503
 1089SOL    HW2 6673   7.583   0.749   5.865 -1.7899  0.2919  0.4534
 1090SOL     OW 6674   6.011   6.271   6.489  0.0121 -0.4277  0.2018
 1090SOL    HW1 6675   6.002   6.363   6.514 -1.9566 -0.9475  1.4700
 1090SOL    HW2 6676   6.032   6.226   6.570  0.2762 -1.2166 -0.2954
 1091SOL     OW 6677   9.659   3.935  10.271 -0.1513 -0.2346 -0.5404
 1091SOL    HW1 6678   9.654   3.965  10.180 -0.1793  0.2757 -0.3691
 1091SOL    HW2 6679   9.672   4.014  10.322 -2.3248 -0.2719  0.1074
 1092SOL     OW 6680   0.285   5.935   2.810  0.0342  0.5906  1.2341
 1092SOL    HW1 6681   0.205   5.968   2.850 -0.3385  0.6318  0.4540
 1092SOL    HW2 6682   0.278   5.840   2.817 -1.5413  0.4338 -1.5751
 1093SOL     OW 6683   1.954   5.905   7.904 -0.4167  0.1665 -0.3702
 1093SOL    HW1 6684   2.047   5.888   7.919 -0.0288  1.7219 -0.8483
 1093SOL    HW2 6685   1.914   5.894   7.990  0.1760 -0.7065 -0.1998
 1094SOL     OW 6686   5.294   4.875   9.312 -0.3508 -0.4057  0.3772
 1094SOL    HW1 6687   5.329   4.854   9.225 -0.0190  2.5047 -0.2515
 1094SOL    HW2 6688   5.202   4.851   9.307 -0.1928 -0.8334 -0.5888
 1095SOL     OW 6689   3.298   9.173   1.616  0.4266  0.1545 -0.0398
 1095SOL    HW1 6690   3.326   9.257   1.580  0.0342 -0.2692 -1.3783
 1095SOL    HW2 6691   3.204   9.169   1.597  0.9610 -1.7779 -2.4587
 1096SOL     OW 6692   4.901   9.644   9.385 -1.1946 -0.1785  0.4069
 1096SOL    HW1 6693   4.916   9.709   9.454 -1.6715  1.5203 -1.0226
 1096SOL    HW2 6694   4.874   9.697   9.309  1.0522 -1.8412 -1.5994
 1097SOL     OW 6695   6.985   2.263   9.480 -0.2556  0.1447 -0.2490
 1097SOL    HW1 6696   6.906   2.287   9.434 -1.2644 -1.6640  0.4663
 1097SOL    HW2 6697   6.955   2.208   9.553  1.8095 -3.2107 -1.7567
 1098SOL     OW 6698  10.350   7.318   0.852  0.2929  0.5997 -0.1449
 1098SOL    HW1 6699  10.335   7.367   0.772  0.4514  0.0554 -0.5134
 1098SOL    HW2 6700  10.353   7.226   0.824 -1.3142  0.2674  0.6959
 1099SOL     OW 6701   6.477   8.733   6.940 -0.0687  1.1455 -0.0124
 1099SOL    HW1 6702   6.514   8.815   6.907  2.2869  0.0334 -0.2559
 1099SOL    HW2 6703   6.387   8.731   6.906  0.2410  3.0577 -0.9876
 1100SOL     OW 6704   2.443   7.247   8.375 -0.7162  0.1906 -0.4404
 1100SOL    HW1 6705   2.502   7.272   8.446 -0.2168  3.4876 -1.9298
 1100SOL    HW2 6706   2.499   7.245   8.297 -1.8627 -0.3340 -1.2648
 1101SOL     OW 6707   1.849  10.026   0.289 -0.6100  0.2853  0.1547
 1101SOL    HW1 6708   1.899   9.972   0.350  0.1702  0.6136 -0.1854
 1101SOL    HW2 6709   1.803  10.089   0.345 -0.7848 -0.1374  0.4837
 1102SOL     OW 6710   7.273   6.004  10.237 -0.0946 -0.2704  0.0443
 1102SOL    HW1 6711   7.294   6.006  10.144  1.1055  1.1275  0.3165
 1102SOL    HW2 6712   7.289   6.094  10.267  1.0596 -1.0695  1.9145
 1103SOL     OW 6713  10.482   5.295   4.365  0.0185 -0.0747  0.7552
 1103SOL    HW1 6714  10.394   5.306   4.328  0.1206  1.2782  0.9163
 1103SOL    HW2 6715  10.466   5.280   4.458 -0.1685 -2.3380  0.3989
 1104SOL     OW 6716   9.185   9.581   1.129  0.4328  0.5000  0.3132
 1104SOL    HW1 6717   9.130   9.523   1.183  0.2879 -0.6553 -1.0510
 1104SOL    HW2 6718   9.130   9.658   1.114 -0.1931  0.0702  0.3610
 1105SOL     OW 6719   8.849   4.321   0.042  0.2311 -0.0862  0.1453
 1105SOL    HW1 6720   8.867   4.355   0.129 -0.0736 -0.8964  0.5300
 1105SOL    HW2 6721   8.925   4.347  -0.011  0.1216  0.9464  0.4918
 1106SOL     OW 6722   6.927   9.874   4.820  0.0162 -0.2148  0.1616
 1106SOL    HW1 6723   6.867   9.819   4.869 -0.7981  0.0223 -0.5613
 1106SOL    HW2 6724   6.939   9.952   4.874  0.4199 -0.6760  0.7396
 1107SOL     OW 6725   9.769   2.322   5.656 -0.3113  0.6448  0.6907
 1107SOL    HW1 6726   9.693   2.283   5.700 -1.8478  0.9524 -1.5926
 1107SOL    HW2 6727   9.775   2.410   5.691 -1.1611  0.6864  0.7406
 1108SOL     OW 6728   4.511   6.782   5.466  0.8003  0.3151 -0.1682
 1108SOL    HW1 6729   4.590   6.828   5.437  0.9500  0.3702  0.3373
 1108SOL    HW2 6730   4.533   6.747   5.552 -0.0171  1.0753  0.3504
 1109SOL     OW 6731   5.148   1.177   2.988 -0.3556  0.2023  0.4142
 1109SOL    HW1 6732   5.120   1.156   3.077 -1.6164  1.6682  0.3791
 1109SOL    HW2 6733   5.177   1.268   2.993  0.6758 -0.0618 -0.4366
 1110SOL     OW 6734   2.109   6.515   9.766  0.2067  0.1894 -0.1442
 1110SOL    HW1 6735   2.024   6.500   9.807  0.1642  0.3254 -0.1837
 1110SOL    HW2 6736   2.097   6.593   9.713  0.7705  1.1097  1.0407
 1111SOL     OW 6737   2.437   3.289   2.525 -0.1342 -0.6793  0.6516
 1111SOL    HW1 6738   2.396   3.203   2.536  3.1260 -2.1716  1.7615
 1111SOL    HW2 6739   2.500   3.277   2.454  0.7609  0.6478  1.2059
 1112SOL     OW 6740   2.277   5.017   4.226 -0.2206  0.3199 -0.0658
 1112SOL    HW1 6741   2.360   5.051   4.192 -0.1493 -0.2531 -0.4878
 1112SOL    HW2 6742   2.298   4.987   4.315 -0.3704  1.6800  0.4295
 1113SOL     OW 6743   1.320  10.011   3.684  0.3416 -0.1385  0.5218
 1113SOL    HW1 6744   1.278  10.056   3.610  0.4616 -2.0009 -0.7151
 1113SOL    HW2 6745   1.250   9.957   3.721  0.2629  0.8519  1.8276
 1114SOL     OW 6746   4.902   2.802   3.354  0.3161  0.1200  0.4620
 1114SOL    HW1 6747   4.996   2.795   3.337  0.2202 -0.2081  0.0737
 1114SOL    HW2 6748   4.892   2.773   3.445  0.5099 -0.4444  0.3043
 1115SOL     OW 6749   0.941   7.989   9.932 -0.1389  0.1489  0.3593
 1115SOL    HW1 6750   0.975   7.933   9.862 -1.1786 -0.5220  0.3923
 1115SOL    HW2 6751   0.940   8.077   9.893 -0.9356 -0.2603 -0.5446
 1116SOL     OW 6752   3.305   0.687   7.521  0.2992 -0.7158 -0.0101
 1116SOL    HW1 6753   3.343   0.670   7.607  0.7401  0.7954  0.1027
 1116SOL    HW2 6754   3.373   0.663   7.459  0.9853  0.7316  0.1549
 1117SOL     OW 6755   0.398   1.060   7.073 -0.3770 -0.0466  0.4537
 1117SOL    HW1 6756   0.411   1.154   7.060  0.3178 -0.0168  1.2974
 1117SOL    HW2 6757   0.394   1.050   7.168 -0.3714 -0.8776  0.3620
 1118SOL     OW 6758   0.720   6.046   5.897  0.3867  0.0723  0.7676
 1118SOL    HW1 6759   0.815   6.035   5.889  0.4798  1.4750 -0.3221
 1118SOL    HW2 6760   0.690   6.058   5.807 -0.8136 -0.2404  1.1250
 1119SOL     OW 6761   8.605   0.956   4.115 -0.3200 -0.1462 -0.0992
 1119SOL    HW1 6762   8.678   1.005   4.079 -1.2951  0.2857 -1.5337
 1119SOL    HW2 6763   8.636   0.865   4.118  0.6156  0.1803  0.2266
 1120SOL     OW 6764   4.344   8.997   2.974  0.0672  0.0944 -0.0965
 1120SOL    HW1 6765   4.335   8.922   2.915  1.2974  0.5149 -0.8285
 1120SOL    HW2 6766   4.321   9.073   2.920  2.7878  0.6594 -0.5455
 1121SOL     OW 6767   4.342   7.260   0.028  0.6043  0.2528 -0.3218
 1121SOL    HW1 6768   4.327   7.329  -0.037  2.6300  0.6357 -0.4221
 1121SOL    HW2 6769   4.288   7.187  -0.002  0.8109  0.7370 -1.9450
 1122SOL     OW 6770   2.369   2.212   1.835 -0.2695 -0.1839 -0.1635
 1122SOL    HW1 6771   2.453   2.222   1.789 -0.5750  1.3355 -0.4188
 1122SOL    HW2 6772   2.369   2.121   1.865  2.2759  0.2592  1.3835
 1123SOL     OW 6773  10.814   5.909   1.428 -0.3883 -0.0098  0.0431
 1123SOL    HW1 6774  10.858   5.825   1.411 -2.3930 -1.1606  0.3378
 1123SOL    HW2 6775  10.869   5.974   1.385  2.6518 -1.1523  2.0544
 1124SOL     OW 6776   6.881  10.549   7.969  0.1129 -0.5520  0.0312
 1124SOL    HW1 6777   6.841  10.462   7.972  0.1690 -0.5746  0.1586
 1124SOL    HW2 6778   6.966  10.537   8.013  0.2758 -0.5161 -0.2747
 1125SOL     OW 6779   9.417   6.088   4.075 -0.5517  0.0382  0.2782
 1125SOL    HW1 6780   9.340   6.044   4.039  1.0032 -3.7507  1.3263
 1125SOL    HW2 6781   9.481   6.087   4.003 -0.3174  0.0470  0.4857
 1126SOL     OW 6782   2.744   4.458   5.114  0.7415 -1.2647  0.1908
 1126SOL    HW1 6783   2.795   4.501   5.182  0.3678  0.5803 -0.6653
 1126SOL    HW2 6784   2.785   4.372   5.105  2.8013 -0.3632  0.5178
 1127SOL     OW 6785   8.522   1.395   6.930  0.1202 -0.4543 -0.2648
 1127SOL    HW1 6786   8.574   1.321   6.899 -1.4343 -1.6326 -0.0778
 1127SOL    HW2 6787   8.557   1.470   6.882  0.2043 -1.6677 -2.1405
 1128SOL     OW 6788   8.884   4.045  10.668  0.1123  0.3657  0.2235
 1128SOL    HW1 6789   8.912   4.033  10.578  0.3658  0.0737  0.3362
 1128SOL    HW2 6790   8.827   3.970  10.686 -1.0532  1.1533 -0.1168
 1129SOL     OW 6791   3.349   3.518   7.325  0.5681  0.7602  0.1764
 1129SOL    HW1 6792   3.389   3.439   7.289 -0.6407  0.9791 -1.7192
 1129SOL    HW2 6793   3.274   3.487   7.375 -0.1295  0.7115 -0.8806
 1130SOL     OW 6794   8.583   8.166   5.307  0.0392 -0.1862 -0.1623
 1130SOL    HW1 6795   8.585   8.222   5.229  0.3147 -2.1042 -1.5542
 1130SOL    HW2 6796   8.653   8.200   5.363  0.6062  0.4509 -1.2557
 1131SOL     OW 6797   6.676   9.483   2.297 -0.1374  0.3599  0.1498
 1131SOL    HW1 6798   6.746   9.503   2.235 -0.4864  0.8140 -0.1006
 1131SOL    HW2 6799   6.721   9.446   2.373  0.7144  3.8620  1.4278
 1132SOL     OW 6800   7.929   2.748   9.489 -0.2932  0.1965 -0.2035
 1132SOL    HW1 6801   8.024   2.750   9.499 -0.3604 -1.3673  1.0075
 1132SOL    HW2 6802   7.915   2.686   9.417 -0.3998  0.2772 -0.2516
 1133SOL     OW 6803   2.535   4.547   0.774 -0.9322 -0.1225 -0.3509
 1133SOL    HW1 6804   2.584   4.627   0.792  0.5070 -1.3384  1.2611
 1133SOL    HW2 6805   2.455   4.556   0.825 -1.6405  1.0930 -1.6318
 1134SOL     OW 6806   5.099   3.711   3.756  0.4511  0.0805  0.5287
 1134SOL    HW1 6807   5.176   3.715   3.699  0.9340 -1.1941  1.0588
 1134SOL    HW2 6808   5.029   3.677   3.700  0.9357 -1.2177  0.6941
 1135SOL     OW 6809   2.210  10.415   2.251  0.2618  0.1046 -0.2132
 1135SOL    HW1 6810   2.200  10.471   2.174  2.6658 -1.4247 -1.7172
 1135SOL    HW2 6811   2.287  10.450   2.296 -0.3770  0.2013  0.8258
 1136SOL     OW 6812   8.449   9.174   0.079 -0.1155 -0.2431 -0.0696
 1136SOL    HW1 6813   8.432   9.180  -0.015  0.5501  0.0347 -0.1793
 1136SOL    HW2 6814   8.536   9.134   0.086 -1.5947 -3.5193  0.5294
 1137SOL     OW 6815   8.245   4.555   9.914  0.2334 -0.0116 -0.8486
 1137SOL    HW1 6816   8.240   4.469   9.954  1.1277  0.5555  0.5297
 1137SOL    HW2 6817   8.155   4.588   9.917  0.0487 -0.5386 -0.5632
 1138SOL     OW 6818   5.496   2.613   8.488 -0.6349  0.3548 -0.1598
 1138SOL    HW1 6819   5.488   2.629   8.394  0.0502  1.5541 -0.0289
 1138SOL    HW2 6820   5.519   2.698   8.525  1.0118 -0.4893  0.8563
 1139SOL     OW 6821   1.766   1.394   5.797 -0.4652 -0.0501  0.2999
 1139SOL    HW1 6822   1.860   1.380   5.787 -0.2036  2.1339 -0.5716
 1139SOL    HW2 6823   1.759   1.476   5.847 -1.8961  0.1436 -0.2016
 1140SOL     OW 6824   2.498   5.839   3.901 -0.2122 -0.2724  0.1712
 1140SOL    HW1 6825   2.563   5.815   3.967  1.0411 -0.9063 -1.2627
 1140SOL    HW2 6826   2.433   5.768   3.905 -0.3453 -0.1142  0.9666
 1141SOL     OW 6827   5.602   6.732   8.883 -0.0024 -0.2756 -0.0233
 1141SOL    HW1 6828   5.567   6.710   8.797 -0.6342 -0.2627  0.2239
 1141SOL    HW2 6829   5.633   6.822   8.874  2.2362 -1.0956 -0.9339
 1142SOL     OW 6830  10.457  10.834   0.227 -0.3046 -0.3141  0.6638
 1142SOL    HW1 6831  10.484  10.918   0.189 -1.4668 -0.5541 -0.7446
 1142SOL    HW2 6832  10.422  10.857   0.313 -1.9388  0.8778 -0.2641
 1143SOL     OW 6833   0.735   4.179   6.860  0.0300 -0.4486  0.8066
 1143SOL    HW1 6834   0.703   4.171   6.950  0.4824 -0.4310  0.9690
 1143SOL    HW2 6835   0.828   4.199   6.869  0.1380 -0.7171  0.3311
 1144SOL     OW 6836   3.730   5.674   4.684  0.7167  0.0194 -0.1339
 1144SOL    HW1 6837   3.664   5.744   4.681 -0.8817 -1.4446  0.1597
 1144SOL    HW2 6838   3.808   5.713   4.643 -0.3197  1.7748 -0.5022
 1145SOL     OW 6839   5.645   7.191   7.933  0.4202 -0.2735 -0.3264
 1145SOL    HW1 6840   5.598   7.265   7.969 -0.1011 -0.2465 -1.0646
 1145SOL    HW2 6841   5.674   7.220   7.846  0.3927 -0.8539 -0.5318
 1146SOL     OW 6842   0.032   1.783   7.285  0.2266  0.5069  0.0126
 1146SOL    HW1 6843  -0.006   1.721   7.348  0.7482  0.1925  0.0263
 1146SOL    HW2 6844   0.120   1.799   7.318  0.2663  0.8679 -0.2705
 1147SOL     OW 6845   9.607   7.299   2.445  0.2182 -0.6984  0.4446
 1147SOL    HW1 6846   9.648   7.239   2.508 -3.0606  0.0174  3.4217
 1147SOL    HW2 6847   9.514   7.275   2.447 -0.5021  1.8051 -1.4135
 1148SOL     OW 6848   9.941   8.034   2.056  0.1388  0.4008  0.0224
 1148SOL    HW1 6849   9.874   8.096   2.027  0.7880  1.3312  0.4693
 1148SOL    HW2 6850  10.013   8.044   1.993 -0.2235 -0.7601 -0.5918
 1149SOL     OW 6851   3.655   3.640  10.367  0.0557 -0.3193  0.0911
 1149SOL    HW1 6852   3.746   3.632  10.339  0.2670 -1.5063  1.0819
 1149SOL    HW2 6853   3.650   3.591  10.450 -0.8802  1.9332  1.4164
 1150SOL     OW 6854   0.000   5.609   2.253  0.3834 -0.1473  0.1587
 1150SOL    HW1 6855  -0.027   5.692   2.293 -0.6182 -0.0080 -0.7967
 1150SOL    HW2 6856   0.027   5.633   2.165 -0.2921 -0.8955 -0.2566
 1151SOL     OW 6857   3.911   4.597   0.575  0.5358 -0.8302  0.1086
 1151SOL    HW1 6858   3.979   4.616   0.510  1.0207  0.2470  0.9066
 1151SOL    HW2 6859   3.906   4.677   0.628 -1.2294 -0.9693  0.1738
 1152SOL     OW 6860  10.850   8.334   6.434 -0.2564  0.0580  0.3595
 1152SOL    HW1 6861  10.889   8.257   6.476  0.5213 -0.0330 -0.5164
 1152SOL    HW2 6862  10.889   8.408   6.481 -0.9579 -0.0727  1.1607
 1153SOL     OW 6863   2.652   7.460   0.948  0.6159 -0.4265 -0.5435
 1153SOL    HW1 6864   2.615   7.372   0.954  2.3132 -1.0746  0.6973
 1153SOL    HW2 6865   2.683   7.467   0.857  0.5845 -1.1540 -0.6120
 1154SOL     OW 6866   3.990   6.456   7.070 -0.3583 -1.0029 -0.2405
 1154SOL    HW1 6867   3.935   6.522   7.028  0.1470 -1.8116 -2.2463
 1154SOL    HW2 6868   3.931   6.382   7.085 -1.2209  0.2890  3.1201
 1155SOL     OW 6869   1.047   3.799   4.558  0.4702 -0.2078 -0.2607
 1155SOL    HW1 6870   1.115   3.768   4.617 -0.3391 -3.0119 -0.7062
 1155SOL    HW2 6871   0.968   3.752   4.585  0.3464 -2.6208 -4.3137
 1156SOL     OW 6872   7.400   1.296   5.522  0.3527  0.0338  0.0994
 1156SOL    HW1 6873   7.479   1.301   5.576 -0.1643  0.3008  0.8462
 1156SOL    HW2 6874   7.376   1.204   5.522  0.0644  0.1076  0.7544
 1157SOL     OW 6875  10.235  10.032   1.650  0.1203  0.0863 -0.0309
 1157SOL    HW1 6876  10.237  10.087   1.572 -0.8203 -0.8462 -0.7339
 1157SOL    HW2 6877  10.224   9.943   1.616 -1.1485 -0.2455  1.1875
 1158SOL     OW 6878   7.244   7.116   7.064 -0.6231 -0.5084 -1.0931
 1158SOL    HW1 6879   7.276   7.047   7.123 -3.2864 -1.4711 -0.7264
 1158SOL    HW2 6880   7.279   7.091   6.978  0.3116 -1.0654 -0.5619
 1159SOL     OW 6881   6.762   0.360   9.703 -0.1801 -0.5809  0.3401
 1159SOL    HW1 6882   6.811   0.435   9.737  0.1132 -0.6344  0.0463
 1159SOL    HW2 6883   6.720   0.394   9.623 -0.5518 -0.5582  0.5472
 1160SOL     OW 6884   1.197   7.920   7.518 -0.2784  0.4667 -0.4355
 1160SOL    HW1 6885   1.218   7.997   7.571  2.6718  0.1649 -1.0813
 1160SOL    HW2 6886   1.217   7.846   7.575  1.7378  0.1535 -1.5164
 1161SOL     OW 6887   8.989   5.208   9.513 -0.3689 -0.7892  0.2563
 1161SOL    HW1 6888   8.993   5.278   9.448  1.4126  0.2493  1.4464
 1161SOL    HW2 6889   8.976   5.128   9.462  2.7121 -0.2300 -1.5253
 1162SOL     OW 6890   7.582   5.658   6.691 -0.1298  0.1758  0.6598
 1162SOL    HW1 6891   7.589   5.670   6.596 -0.7400  1.5476  0.7746
 1162SOL    HW2 6892   7.492   5.682   6.711  0.4844  1.5631  1.8149
 1163SOL     OW 6893   7.775   2.155   7.151 -0.0867 -0.2045 -0.1412
 1163SOL    HW1 6894   7.709   2.095   7.185  0.8675 -1.5066 -0.5552
 1163SOL    HW2 6895   7.732   2.198   7.076 -1.1059  0.3798  0.7521
 1164SOL     OW 6896   9.483   4.436   2.907  0.1554  0.3528 -0.1625
 1164SOL    HW1 6897   9.505   4.507   2.846  0.2081  0.3563 -0.1400
 1164SOL    HW2 6898   9.552   4.438   2.972  0.1429  0.2977 -0.1473
 1165SOL     OW 6899   2.312   0.038   2.945 -0.1835 -0.4612  0.2747
 1165SOL    HW1 6900   2.339   0.125   2.915 -0.9831 -0.4211 -0.3572
 1165SOL    HW2 6901   2.312  -0.015   2.866 -1.9325 -0.4519  0.2438
 1166SOL     OW 6902   4.053   0.450   5.155 -0.0797 -0.3513 -0.3503
 1166SOL    HW1 6903   4.069   0.484   5.243  0.3553 -0.5507 -0.3518
 1166SOL    HW2 6904   4.140   0.430   5.121 -0.3009 -1.0082 -0.5311
 1167SOL     OW 6905   3.351   6.293   1.195 -0.0005  0.0806 -0.3023
 1167SOL    HW1 6906   3.370   6.359   1.262  1.7062  0.2279 -0.9048
 1167SOL    HW2 6907   3.278   6.329   1.145 -0.1000  0.7848  0.3416
 1168SOL     OW 6908   0.696   1.873   0.271  0.6706 -0.0106  0.3884
 1168SOL    HW1 6909   0.601   1.876   0.255  0.6767  2.0196  0.5450
 1168SOL    HW2 6910   0.706   1.814   0.346 -0.5132  0.0691  0.6200
 1169SOL     OW 6911   2.166   3.104  10.934  0.6541  0.5665 -0.5357
 1169SOL    HW1 6912   2.243   3.147  10.971 -0.1296  1.0646  0.5520
 1169SOL    HW2 6913   2.122   3.064  11.009 -1.1954  1.9612 -0.8350
 1170SOL     OW 6914   4.359   6.610   3.553 -0.3333  0.2431  0.5322
 1170SOL    HW1 6915   4.323   6.677   3.611  1.5678  1.0525  0.8267
 1170SOL    HW2 6916   4.370   6.533   3.609 -2.6509 -0.4073  0.1626
 1171SOL     OW 6917   4.948   2.907   7.274 -0.2247  0.0046  0.6607
 1171SOL    HW1 6918   4.977   2.816   7.263 -0.6563 -0.0110 -0.3467
 1171SOL    HW2 6919   4.946   2.919   7.369  0.6501 -0.7755  0.7866
 1172SOL     OW 6920   7.663   3.091  10.020 -0.1434 -0.0462 -0.4965
 1172SOL    HW1 6921   7.700   3.080   9.933  0.8658 -1.8424  0.1264
 1172SOL    HW2 6922   7.714   3.164  10.058  0.6156 -0.4125 -0.7921
 1173SOL     OW 6923   7.089  10.290   2.558  0.3972  0.4258 -0.3564
 1173SOL    HW1 6924   7.088  10.251   2.471  0.0629  0.5755 -0.4176
 1173SOL    HW2 6925   7.113  10.218   2.616  1.5428  0.5355 -0.6804
 1174SOL     OW 6926   3.046   4.539   8.968  0.2479  0.3866 -0.1896
 1174SOL    HW1 6927   2.985   4.552   9.040  0.8981  1.5769  0.1594
 1174SOL    HW2 6928   3.046   4.445   8.954 -1.7104  0.3679 -0.2366
 1175SOL     OW 6929   7.650  10.299   4.665 -0.4851  0.0394  0.3112
 1175SOL    HW1 6930   7.704  10.301   4.585  1.2582  0.6223  1.4783
 1175SOL    HW2 6931   7.709  10.268   4.733 -1.6047  0.7906  1.6600
 1176SOL     OW 6932   9.903   6.850   9.151  0.6389  0.1328 -0.1674
 1176SOL    HW1 6933   9.998   6.859   9.143  0.5766  0.8682 -0.1342
 1176SOL    HW2 6934   9.872   6.849   9.061  0.6996 -0.3575 -0.1820
 1177SOL     OW 6935   8.952   3.677   5.458 -0.0420 -0.0564  0.4561
 1177SOL    HW1 6936   9.019   3.728   5.503 -1.0810  1.0684  0.7778
 1177SOL    HW2 6937   8.913   3.739   5.396  0.1049 -1.0652 -0.6444
 1178SOL     OW 6938  10.283  10.196   7.979 -0.5240  0.3686  0.4896
 1178SOL    HW1 6939  10.285  10.109   7.940  1.0153  0.0140  1.3227
 1178SOL    HW2 6940  10.212  10.241   7.933 -0.3573 -0.8292 -0.9885
 1179SOL     OW 6941   7.723   7.337   1.779 -0.4086  1.1471  0.1446
 1179SOL    HW1 6942   7.728   7.426   1.813  1.7670  0.1440  2.6720
 1179SOL    HW2 6943   7.665   7.292   1.840  0.1095  0.3636  0.0674
 1180SOL     OW 6944   5.329   0.684   4.247 -0.7917 -1.0296 -0.4728
 1180SOL    HW1 6945   5.425   0.674   4.251 -0.7447 -1.3837 -2.0481
 1180SOL    HW2 6946   5.305   0.714   4.334  0.7728 -0.8376 -0.0776
 1181SOL     OW 6947   8.251   0.888   5.270 -0.2892 -0.1641  0.1725
 1181SOL    HW1 6948   8.168   0.840   5.273  0.8898 -2.2762 -0.1829
 1181SOL    HW2 6949   8.225   0.980   5.266 -2.5921 -0.6881  1.9351
 1182SOL     OW 6950   2.826   1.980   0.032  0.0663 -0.6959 -0.1112
 1182SOL    HW1 6951   2.823   2.036   0.111 -1.0616  0.8455 -1.2120
 1182SOL    HW2 6952   2.918   1.980   0.007 -0.1053  1.9368 -0.9359
 1183SOL     OW 6953   3.646   6.313   3.751  0.2224 -0.6845  0.3676
 1183SOL    HW1 6954   3.668   6.234   3.700 -0.7277  0.2247 -1.5081
 1183SOL    HW2 6955   3.726   6.366   3.749 -0.8498  0.9585 -3.3051
 1184SOL     OW 6956   6.349   8.607   8.506 -0.1676 -0.2772  0.0392
 1184SOL    HW1 6957   6.282   8.669   8.535 -1.1018 -1.2096 -0.0988
 1184SOL    HW2 6958   6.323   8.523   8.545  1.3258 -0.5017  0.5832
 1185SOL     OW 6959   9.683   5.620   8.725 -0.0941 -0.4329 -0.2184
 1185SOL    HW1 6960   9.757   5.570   8.760  0.0088 -0.2427 -0.1670
 1185SOL    HW2 6961   9.693   5.615   8.630 -0.8849 -1.7225 -0.2425
 1186SOL     OW 6962  10.718   5.587   4.712 -0.7212  0.2433  0.0475
 1186SOL    HW1 6963  10.727   5.596   4.617  2.2037 -1.1345  0.1447
 1186SOL    HW2 6964  10.646   5.524   4.723 -0.5937 -0.1345 -1.2608
 1187SOL     OW 6965   4.522   1.558   0.088  0.5338 -0.2115  0.3832
 1187SOL    HW1 6966   4.429   1.563   0.066  0.9079 -1.1912 -1.5565
 1187SOL    HW2 6967   4.535   1.626   0.154 -1.1423  1.3339 -0.8304
 1188SOL     OW 6968   1.530   4.219   9.351 -0.0044  0.2734 -0.4356
 1188SOL    HW1 6969   1.508   4.275   9.276 -0.1941  1.4504  0.4942
 1188SOL    HW2 6970   1.476   4.252   9.423  1.1255 -0.0305  0.5624
 1189SOL     OW 6971   5.560  10.398   0.456 -0.5614 -0.1421 -0.2717
 1189SOL    HW1 6972   5.640  10.363   0.416 -2.2109 -1.5182 -2.4659
 1189SOL    HW2 6973   5.496  10.327   0.447 -1.7048  0.4620  2.6058
 1190SOL     OW 6974   6.433   8.522   3.000  0.8090  0.2692  0.7233
 1190SOL    HW1 6975   6.507   8.469   3.030  0.5967 -0.4054  0.0625
 1190SOL    HW2 6976   6.425   8.502   2.907  0.1347  0.7499  0.6748
 1191SOL     OW 6977   7.083   1.459   5.693  0.1470 -0.1097  0.2923
 1191SOL    HW1 6978   7.167   1.498   5.718 -0.1951  0.4129  0.6346
 1191SOL    HW2 6979   7.049   1.515   5.624 -0.2705  0.1181  0.6758
 1192SOL     OW 6980   1.607   5.109   5.860  0.1843  0.5592  0.0579
 1192SOL    HW1 6981   1.589   5.195   5.820 -2.1134  0.8461  1.5720
 1192SOL    HW2 6982   1.660   5.063   5.796  1.5502  3.1617 -0.7541
 1193SOL     OW 6983   8.701   7.959   9.436  0.7588 -0.0096  0.2757
 1193SOL    HW1 6984   8.690   8.044   9.477 -0.2675  0.5803 -1.1804
 1193SOL    HW2 6985   8.793   7.938   9.448  0.9999  1.2670  0.7127
 1194SOL     OW 6986   8.224   2.303   9.437  0.3621  0.0920 -0.5665
 1194SOL    HW1 6987   8.193   2.316   9.527 -0.6268 -1.0373 -0.7492
 1194SOL    HW2 6988   8.249   2.211   9.433  0.2191  0.0907 -1.5101
 1195SOL     OW 6989   9.500   3.227   3.495 -0.1275 -0.4651 -0.1250
 1195SOL    HW1 6990   9.430   3.282   3.531  0.3834 -0.9246  1.6290
 1195SOL    HW2 6991   9.494   3.239   3.400 -2.4549 -0.3404 -0.0002
 1196SOL     OW 6992   2.440   8.163   6.203  0.3572 -0.2148 -0.1562
 1196SOL    HW1 6993   2.484   8.147   6.120  0.6817 -1.2089  0.2082
 1196SOL    HW2 6994   2.495   8.121   6.269 -0.0083  0.3803  0.5408
 1197SOL     OW 6995  10.662   5.685   9.568  0.5298 -0.0242  0.0927
 1197SOL    HW1 6996  10.664   5.631   9.489  0.4308 -0.9698  0.7338
 1197SOL    HW2 6997  10.574   5.672   9.604  0.6748  0.1702  0.5230
 1198SOL     OW 6998   1.344   5.231   4.610  0.1068  0.3940  0.0085
 1198SOL    HW1 6999   1.337   5.145   4.652 -1.0812  0.0200 -0.9259
 1198SOL    HW2 7000   1.418   5.222   4.550 -0.3289 -0.1421 -0.4566
 1199SOL     OW 7001   3.422   8.590   6.636  0.2832 -0.3349 -0.0356
 1199SOL    HW1 7002   3.500   8.539   6.611  0.4423 -0.3544  0.4948
 1199SOL    HW2 7003   3.386   8.543   6.711  1.2138  1.1043  1.3310
 1200SOL     OW 7004   1.154   4.549   4.225 -0.2010  0.1907 -0.2104
 1200SOL    HW1 7005   1.201   4.470   4.254  0.8401  0.4679 -1.1464
 1200SOL    HW2 7006   1.123   4.588   4.307  0.6116 -0.3570  0.3782
 1201SOL     OW 7007   6.861   1.842   8.302  0.0860 -0.2494  0.0336
 1201SOL    HW1 7008   6.879   1.766   8.246  0.4786 -0.7376  0.8020
 1201SOL    HW2 7009   6.790   1.888   8.259  0.4956 -0.5292 -0.9551
 1202SOL     OW 7010   8.007   1.434   9.167  0.2245 -0.2643 -0.4715
 1202SOL    HW1 7011   7.924   1.474   9.190 -0.0484 -0.0021 -1.8569
 1202SOL    HW2 7012   8.032   1.383   9.245  0.8257  2.9518  1.5120
 1203SOL     OW 7013   3.732   7.404   7.189 -0.3270  0.5244 -0.5824
 1203SOL    HW1 7014   3.679   7.325   7.194  1.2739 -0.5793 -0.8169
 1203SOL    HW2 7015   3.675   7.468   7.147 -2.2770  0.0699  1.2519
 1204SOL     OW 7016   5.241   2.428   5.332 -0.1640  0.6166  0.1596
 1204SOL    HW1 7017   5.323   2.401   5.372  0.5011  1.1141 -0.8667
 1204SOL    HW2 7018   5.259   2.513   5.293 -1.0797  0.5970 -0.3354
 1205SOL     OW 7019   9.471   8.203   2.727  0.0537 -0.3287  0.2402
 1205SOL    HW1 7020   9.419   8.142   2.779  0.1260  0.3536  1.1330
 1205SOL    HW2 7021   9.547   8.154   2.699  0.0809 -0.6669  0.9015
 1206SOL     OW 7022   3.690   9.870   2.470 -0.4257  0.3977  0.7050
 1206SOL    HW1 7023   3.703   9.778   2.446 -0.7748  0.2212  1.1828
 1206SOL    HW2 7024   3.717   9.875   2.562  0.4275  0.9605  0.4229
 1207SOL     OW 7025   7.118   5.691   3.787 -0.0842 -0.0402 -0.1975
 1207SOL    HW1 7026   7.109   5.726   3.876 -1.8004  0.6099 -0.6068
 1207SOL    HW2 7027   7.126   5.596   3.799 -0.2478  0.0469  0.6514
 1208SOL     OW 7028   4.674   2.658  10.571 -0.5240  0.2299  0.2096
 1208SOL    HW1 7029   4.628   2.607  10.505 -1.3630  0.2263  0.7997
 1208SOL    HW2 7030   4.621   2.650  10.650 -0.0215  1.0149  0.6367
 1209SOL     OW 7031   6.304   0.850   7.894  0.3972  0.2637 -0.4230
 1209SOL    HW1 7032   6.265   0.766   7.916 -1.0425  1.2102  0.7692
 1209SOL    HW2 7033   6.289   0.860   7.800  1.7592 -1.3876 -0.8248
 1210SOL     OW 7034   8.759   4.965   4.458 -0.1190  0.4618  0.1603
 1210SOL    HW1 7035   8.808   5.012   4.524  2.6463  2.2801 -3.0137
 1210SOL    HW2 7036   8.709   5.032   4.412 -0.6632 -0.5116 -0.6992
 1211SOL     OW 7037   5.127   9.412   9.625 -0.0229  0.0412 -0.1356
 1211SOL    HW1 7038   5.187   9.487   9.625 -0.9811  0.8284 -0.5699
 1211SOL    HW2 7039   5.045   9.448   9.590 -1.0065 -0.8039  1.2678
 1212SOL     OW 7040   5.899   0.382  10.384  0.6767  0.0986  0.1587
 1212SOL    HW1 7041   5.866   0.437  10.454 -0.1363 -0.4385  0.2033
 1212SOL    HW2 7042   5.871   0.425  10.303 -1.2104 -1.0068  0.2120
 1213SOL     OW 7043   3.874   3.055   8.264 -0.2930 -0.1570 -0.2063
 1213SOL    HW1 7044   3.786   3.018   8.258  0.4614 -1.8555 -1.2827
 1213SOL    HW2 7045   3.930   2.992   8.217  1.2264  1.7488 -1.0205
 1214SOL     OW 7046   9.010   5.238   6.640  0.4544 -0.1550 -0.0075
 1214SOL    HW1 7047   9.095   5.194   6.640 -0.9906 -3.1792 -1.8092
 1214SOL    HW2 7048   8.961   5.196   6.711  0.1676  0.9935  0.4868
 1215SOL     OW 7049   7.499   3.782   0.851  0.2737  0.3841  0.1255
 1215SOL    HW1 7050   7.413   3.755   0.883  0.3350 -0.7055 -0.5860
 1215SOL    HW2 7051   7.517   3.865   0.896 -0.8781  0.3169  0.7284
 1216SOL     OW 7052   1.428   1.163  10.550  0.9242 -0.4832 -0.4719
 1216SOL    HW1 7053   1.470   1.126  10.472  1.4464  0.7471 -0.7808
 1216SOL    HW2 7054   1.385   1.243  10.519  1.5903  0.3045  0.6080
 1217SOL     OW 7055   1.126   5.579   5.843  0.2584 -0.1341  0.1706
 1217SOL    HW1 7056   1.075   5.560   5.764  0.1687 -1.1890  0.4642
 1217SOL    HW2 7057   1.078   5.533   5.913 -1.1177  2.8704  1.3006
 1218SOL     OW 7058   3.035   6.095   2.633 -0.5059  0.0941  0.0985
 1218SOL    HW1 7059   2.985   6.048   2.566 -0.2189 -1.8344  1.1989
 1218SOL    HW2 7060   3.004   6.059   2.716  2.4896 -0.9715  0.8181
 1219SOL     OW 7061   0.933   5.817   3.702 -0.6115 -0.6744  0.0306
 1219SOL    HW1 7062   0.944   5.739   3.755 -2.5748 -0.6479  0.5023
 1219SOL    HW2 7063   0.967   5.793   3.616  0.7122 -1.3545  0.7243
 1220SOL     OW 7064   5.321   6.868   5.577 -0.3292 -0.3114 -0.5565
 1220SOL    HW1 7065   5.266   6.856   5.499 -1.7561  1.7838  0.0804
 1220SOL    HW2 7066   5.341   6.961   5.578  2.7528 -0.9261 -0.4094
 1221SOL     OW 7067   9.090   4.614   4.467 -0.1707 -0.1481  0.0060
 1221SOL    HW1 7068   9.021   4.586   4.406  0.0777 -3.8825  1.3310
 1221SOL    HW2 7069   9.160   4.549   4.455  1.1089  0.8065  2.1392
 1222SOL     OW 7070   1.715   6.664   2.875  0.1147 -0.3980  0.1543
 1222SOL    HW1 7071   1.652   6.634   2.810  1.3680  0.2090 -1.3965
 1222SOL    HW2 7072   1.681   6.748   2.905  0.1206 -0.1178 -0.6067
 1223SOL     OW 7073   3.170   4.822   4.611 -0.1672 -0.2617 -0.0923
 1223SOL    HW1 7074   3.161   4.741   4.562  0.7589  1.2175 -2.7847
 1223SOL    HW2 7075   3.132   4.889   4.555  0.6522  1.4443  1.3193
 1224SOL     OW 7076   1.078   5.054   2.911 -0.2979 -0.0418  0.1229
 1224SOL    HW1 7077   1.016   5.055   2.984  1.2633  1.5500  1.4820
 1224SOL    HW2 7078   1.151   5.108   2.941  0.7948 -0.1197 -2.2805
 1225SOL     OW 7079   2.252   2.458   8.898 -0.2381  0.3943 -0.5725
 1225SOL    HW1 7080   2.339   2.445   8.936 -1.5004 -0.8109  2.0263
 1225SOL    HW2 7081   2.223   2.370   8.873  0.0095  1.0035 -3.2064
 1226SOL     OW 7082   4.755   7.963   9.669  0.1449 -0.1114 -0.4676
 1226SOL    HW1 7083   4.741   8.030   9.736 -1.6364  0.2707 -1.2000
 1226SOL    HW2 7084   4.771   8.011   9.588  1.8768 -0.5777 -0.4345
 1227SOL     OW 7085   2.317   6.074   1.353  0.1382 -0.0911  0.6814
 1227SOL    HW1 7086   2.328   6.151   1.297  2.3604  0.4766  1.8406
 1227SOL    HW2 7087   2.299   6.109   1.440 -0.0057 -0.9149  0.9915
 1228SOL     OW 7088   1.262   2.212   8.357  0.1510  0.4255  0.2712
 1228SOL    HW1 7089   1.297   2.296   8.388 -2.0977  1.1853  0.8469
 1228SOL    HW2 7090   1.339   2.162   8.331  1.6477  2.0652  1.4489
 1229SOL     OW 7091   5.682   8.352   9.958  0.0248  0.5053 -0.5395
 1229SOL    HW1 7092   5.653   8.267   9.923 -0.7650  0.5482  0.0009
 1229SOL    HW2 7093   5.766   8.334   9.998 -1.6826 -0.7686  2.6106
 1230SOL     OW 7094   4.557   6.917   4.606 -0.1158  0.3521 -0.2986
 1230SOL    HW1 7095   4.645   6.910   4.569  0.3799 -0.8428  1.0481
 1230SOL    HW2 7096   4.524   7.001   4.574  2.5642  2.1115  1.3739
 1231SOL     OW 7097   4.458  10.643   1.688  0.3075 -0.0122  0.5716
 1231SOL    HW1 7098   4.537  10.698   1.690 -1.1056  2.0547  1.4241
 1231SOL    HW2 7099   4.486  10.562   1.646  2.9200  0.6390  0.9818
 1232SOL     OW 7100   1.616   6.890  10.539  0.0841 -0.0311 -0.1940
 1232SOL    HW1 7101   1.524   6.866  10.528  0.2683 -1.1343  0.6642
 1232SOL    HW2 7102   1.664   6.822  10.492  0.5361 -0.3204  0.6890
 1233SOL     OW 7103   6.526   4.587   6.367 -0.5842  0.3245 -0.2389
 1233SOL    HW1 7104   6.553   4.519   6.305 -1.0034 -0.1623  0.1103
 1233SOL    HW2 7105   6.505   4.662   6.312  1.0026  0.5607 -0.5603
 1234SOL     OW 7106   0.005   9.684   0.918 -0.2983 -0.1126  0.3161
 1234SOL    HW1 7107  -0.016   9.644   0.834 -1.7236 -0.3174  0.7548
 1234SOL    HW2 7108   0.065   9.756   0.897  1.9872 -2.1810 -0.5330
 1235SOL     OW 7109   4.069  10.963   5.066  0.6153 -0.3792 -0.0643
 1235SOL    HW1 7110   4.004  11.012   5.118  1.3422  0.4092  0.1197
 1235SOL    HW2 7111   4.109  10.903   5.129  0.4773 -0.4442 -0.0374
 1236SOL     OW 7112   5.188   3.783   4.453 -0.2309 -0.1377  0.1180
 1236SOL    HW1 7113   5.138   3.724   4.396 -0.2132 -1.1508  1.1155
 1236SOL    HW2 7114   5.149   3.770   4.540  1.4696 -0.6101  0.8263
 1237SOL     OW 7115   1.232   5.544   0.893  0.0680  0.0480  0.2520
 1237SOL    HW1 7116   1.154   5.554   0.839 -0.0318 -2.5466 -0.1691
 1237SOL    HW2 7117   1.300   5.517   0.831  0.4452 -0.9938  1.1129
 1238SOL     OW 7118   8.166  10.600   7.243 -0.1748 -0.7364 -0.2433
 1238SOL    HW1 7119   8.244  10.571   7.196  0.5209  0.2384  0.2931
 1238SOL    HW2 7120   8.166  10.695   7.234 -0.4027 -0.5949  1.1247
 1239SOL     OW 7121   7.130   3.942   1.059 -0.6775  0.0774  0.2635
 1239SOL    HW1 7122   7.152   3.993   1.137  0.4997  0.3058 -0.2196
 1239SOL    HW2 7123   7.034   3.940   1.059 -0.7012  0.5099  1.4320
 1240SOL     OW 7124   6.425   7.244   4.183  0.2984  0.2178  0.5786
 1240SOL    HW1 7125   6.504   7.256   4.131 -0.2701  0.9322 -0.1240
 1240SOL    HW2 7126   6.435   7.302   4.258  0.4219  0.3254  0.4770
 1241SOL     OW 7127  10.453   2.109   3.033  0.1795 -0.9260  0.1653
 1241SOL    HW1 7128  10.441   2.075   3.122  0.8556 -0.7760  0.3214
 1241SOL    HW2 7129  10.366   2.136   3.005  0.0985 -0.2406  1.0857
 1242SOL     OW 7130   2.166   2.818   3.980  0.2404 -0.1290 -0.5106
 1242SOL    HW1 7131   2.197   2.843   3.893 -0.5263 -0.4777 -0.8901
 1242SOL    HW2 7132   2.165   2.900   4.030 -1.7054  0.5224 -1.5775
 1243SOL     OW 7133   2.941   7.755   9.989  0.1935  0.2192  0.4245
 1243SOL    HW1 7134   2.858   7.738  10.032 -0.8532  0.8276 -1.2992
 1243SOL    HW2 7135   2.955   7.849   9.999 -0.5398  0.5391 -1.3468
 1244SOL     OW 7136   6.066   5.477   0.545 -0.3547  0.0515 -0.0416
 1244SOL    HW1 7137   6.143   5.535   0.549 -1.4283  1.5618 -0.7773
 1244SOL    HW2 7138   6.103   5.389   0.536  1.3202  0.5921  1.2969
 1245SOL     OW 7139   4.476   8.422   5.316 -0.1736  0.1301 -1.0725
 1245SOL    HW1 7140   4.505   8.423   5.225 -2.2247  0.9438 -1.7485
 1245SOL    HW2 7141   4.384   8.394   5.312 -0.1954 -0.1341  0.7716
 1246SOL     OW 7142   4.319   2.094   4.526  0.0535 -0.1336 -0.2107
 1246SOL    HW1 7143   4.224   2.091   4.538  0.0125 -0.3681 -0.6041
 1246SOL    HW2 7144   4.341   2.011   4.484  0.3388  0.2395 -0.8104
 1247SOL     OW 7145   3.147   2.676   9.296 -0.5320  0.0804 -0.3156
 1247SOL    HW1 7146   3.111   2.742   9.237 -0.8788 -0.4154 -0.6567
 1247SOL    HW2 7147   3.200   2.620   9.240  0.3786  0.5146  0.1021
 1248SOL     OW 7148   8.096   5.652   9.144 -0.1575  0.2907  0.2159
 1248SOL    HW1 7149   8.099   5.600   9.063  0.7004  0.1184  0.3583
 1248SOL    HW2 7150   8.186   5.652   9.176  0.2495  3.4083 -0.7510
 1249SOL     OW 7151   1.701   5.845   1.473 -0.0847  0.2579 -0.1758
 1249SOL    HW1 7152   1.756   5.790   1.417  1.3314  1.5614 -0.0984
 1249SOL    HW2 7153   1.656   5.904   1.412 -0.4792 -0.0027 -0.1392
 1250SOL     OW 7154   4.135   9.879   1.260  0.9204 -0.2356 -0.3637
 1250SOL    HW1 7155   4.148   9.841   1.173  0.7650 -0.4697 -0.2829
 1250SOL    HW2 7156   4.094   9.964   1.242  0.9636 -0.2463 -0.5235
 1251SOL     OW 7157   7.311  10.934   0.604 -0.4345  0.2660 -0.4457
 1251SOL    HW1 7158   7.403  10.960   0.607 -0.4167  0.1312  0.4729
 1251SOL    HW2 7159   7.296  10.906   0.514  0.7373 -0.8439 -0.3021
 1252SOL     OW 7160  10.660   5.981   8.579 -0.3488  0.0628  0.1897
 1252SOL    HW1 7161  10.619   6.066   8.561  0.5838  0.2310 -1.2607
 1252SOL    HW2 7162  10.744   5.986   8.534 -0.1876 -1.5421  0.3138
 1253SOL     OW 7163   9.869  10.172  10.270  0.2796  0.1328  0.3172
 1253SOL    HW1 7164   9.775  10.169  10.249  0.3477 -0.3637  0.0832
 1253SOL    HW2 7165   9.874  10.225  10.350 -0.1621  0.4810  0.1173
 1254SOL     OW 7166   6.927   9.831   9.012  0.1314  0.0444  0.0512
 1254SOL    HW1 7167   6.855   9.771   8.994 -0.2541  0.8309 -1.1343
 1254SOL    HW2 7168   6.953   9.863   8.926 -0.7936  2.8311  0.7346
 1255SOL     OW 7169   8.610   3.492   5.528  0.0404 -0.2315  0.1578
 1255SOL    HW1 7170   8.598   3.427   5.598 -0.3980 -0.5069 -0.1708
 1255SOL    HW2 7171   8.676   3.452   5.471 -0.1631 -0.3513  0.0044
 1256SOL     OW 7172   4.144   7.931   5.891  0.0086 -0.2868 -0.7136
 1256SOL    HW1 7173   4.140   7.915   5.796 -1.2884  0.0069 -0.7106
 1256SOL    HW2 7174   4.158   7.844   5.929  1.0646 -0.3385 -1.2009
 1257SOL     OW 7175   1.397   1.609   2.394  0.0953 -0.0790 -0.0917
 1257SOL    HW1 7176   1.428   1.636   2.308 -0.1563  0.5818  0.0204
 1257SOL    HW2 7177   1.319   1.557   2.376 -1.7457  2.6042 -0.1404
 1258SOL     OW 7178   8.950   3.016   0.548  0.2399  0.2136  0.7669
 1258SOL    HW1 7179   8.991   2.929   0.547 -1.4834 -0.6228 -0.1956
 1258SOL    HW2 7180   8.856   2.998   0.538 -0.1997  2.1581  1.2531
 1259SOL     OW 7181   2.368   5.070   8.268  0.2321 -0.5973  0.4316
 1259SOL    HW1 7182   2.384   5.034   8.181 -0.7675 -2.7066  1.0979
 1259SOL    HW2 7183   2.414   5.155   8.267  0.0347 -0.4620 -2.2057
 1260SOL     OW 7184   2.997   5.580   1.934 -0.1737 -0.1264  0.2828
 1260SOL    HW1 7185   2.996   5.625   1.849 -0.4810  1.1847  0.9715
 1260SOL    HW2 7186   2.906   5.555   1.948  0.1526 -1.9010 -0.5665
 1261SOL     OW 7187   1.452   8.282   0.053 -0.2369  0.7744 -0.8205
 1261SOL    HW1 7188   1.375   8.337   0.039 -0.0077  0.8940 -1.6517
 1261SOL    HW2 7189   1.417   8.200   0.089 -0.4445  1.9834  1.8758
 1262SOL     OW 7190   4.073   5.138   8.840  0.1714  0.9257 -0.0645
 1262SOL    HW1 7191   4.081   5.172   8.929 -2.3711  0.8729  0.2145
 1262SOL    HW2 7192   4.155   5.164   8.797  1.1573  1.4964  2.0907
 1263SOL     OW 7193   4.156   6.321   7.573 -0.2767 -0.3305  0.1594
 1263SOL    HW1 7194   4.092   6.304   7.504 -0.5700  0.4614  0.2213
 1263SOL    HW2 7195   4.237   6.339   7.526  0.1418 -2.2434  0.1081
 1264SOL     OW 7196   4.382  10.440   1.081 -0.0240 -0.9713  0.1772
 1264SOL    HW1 7197   4.392  10.462   0.988 -0.5032 -0.0563  0.3442
 1264SOL    HW2 7198   4.334  10.513   1.118  1.0854 -0.8407  1.3727
 1265SOL     OW 7199   7.043   7.978   2.851 -0.7574 -0.3502  0.6203
 1265SOL    HW1 7200   7.106   7.930   2.903  1.2868  0.9883 -0.5747
 1265SOL    HW2 7201   6.967   7.989   2.909  0.2703 -1.5266  2.2215
 1266SOL     OW 7202   5.999   4.977   7.916 -0.0037  0.1823  0.0804
 1266SOL    HW1 7203   5.931   4.983   7.983 -1.0631  0.7756 -1.0200
 1266SOL    HW2 7204   6.020   5.067   7.894  1.3030 -0.0024  0.5756
 1267SOL     OW 7205   7.721   8.967   4.844 -0.1726 -0.0987 -0.2085
 1267SOL    HW1 7206   7.795   8.914   4.874 -0.2912  0.0680  0.3762
 1267SOL    HW2 7207   7.761   9.048   4.811 -0.1517  0.3779  0.9534
 1268SOL     OW 7208   7.639   0.394   4.298  0.0309  0.4508 -0.3395
 1268SOL    HW1 7209   7.675   0.343   4.371  0.6373  1.7828  0.3068
 1268SOL    HW2 7210   7.559   0.348   4.274 -0.3161  0.1419  1.3580
 1269SOL     OW 7211   4.982   4.802   4.824  0.1885 -0.2664 -0.1567
 1269SOL    HW1 7212   5.046   4.737   4.793  0.0098  0.1090 -1.3551
 1269SOL    HW2 7213   5.020   4.886   4.799 -1.7713 -0.1335 -2.8942
 1270SOL     OW 7214   7.750   5.503  10.622  0.5391  0.1596 -0.7698
 1270SOL    HW1 7215   7.844   5.512  10.642  0.2579  2.2925 -0.3426
 1270SOL    HW2 7216   7.715   5.591  10.630 -1.6407 -0.7143 -0.3526
 1271SOL     OW 7217   8.809   5.083   5.270  0.9636 -0.1922  0.0866
 1271SOL    HW1 7218   8.767   5.030   5.338  0.7514  0.7577  0.7048
 1271SOL    HW2 7219   8.901   5.086   5.295  1.2626 -1.5386 -0.7896
 1272SOL     OW 7220   1.520   9.743   4.269  0.1414  0.3431  0.0190
 1272SOL    HW1 7221   1.543   9.651   4.271  0.1521  0.3442 -0.0557
 1272SOL    HW2 7222   1.457   9.751   4.197 -0.2746  0.2988  0.3735
 1273SOL     OW 7223   1.888   4.739   5.273  0.1735 -0.3445 -0.5086
 1273SOL    HW1 7224   1.970   4.774   5.309 -0.4943  0.9014 -0.1936
 1273SOL    HW2 7225   1.820   4.778   5.327 -0.8070  0.8922 -2.5956
 1274SOL     OW 7226   9.023   5.846   9.178 -0.0623  0.7394 -0.1965
 1274SOL    HW1 7227   9.117   5.847   9.159 -0.0636 -2.2791 -0.6108
 1274SOL    HW2 7228   9.015   5.890   9.262  1.9847 -0.6003  0.7417
 1275SOL     OW 7229   2.448   7.055   9.620  0.0048  0.0259  0.3715
 1275SOL    HW1 7230   2.454   6.991   9.691  2.1741 -1.1666 -0.8548
 1275SOL    HW2 7231   2.537   7.063   9.587 -0.3323  3.2702  0.1063
 1276SOL     OW 7232   6.100   7.348  10.434 -0.3537 -0.1094  0.7612
 1276SOL    HW1 7233   6.148   7.266  10.439 -1.0676 -0.4792  1.6418
 1276SOL    HW2 7234   6.139   7.404  10.501  3.2484  1.9805 -2.8213
 1277SOL     OW 7235  10.274  10.403   5.289 -0.0296 -0.1308  0.2599
 1277SOL    HW1 7236  10.197  10.457   5.271  0.9895  1.2202 -0.2434
 1277SOL    HW2 7237  10.244  10.313   5.279 -1.0289  0.4241 -2.0912
 1278SOL     OW 7238   0.808   9.505  10.561  0.3802 -0.0279  0.5692
 1278SOL    HW1 7239   0.786   9.535  10.650  1.6789 -0.5000  1.0559
 1278SOL    HW2 7240   0.830   9.586  10.514  0.2842  0.1660  0.8551
 1279SOL     OW 7241   9.130   4.536   8.363  0.3647 -0.0085  0.5405
 1279SOL    HW1 7242   9.168   4.485   8.434  2.9773  0.0595 -0.7467
 1279SOL    HW2 7243   9.072   4.598   8.406 -0.9802 -2.4346  2.3033
 1280SOL     OW 7244   9.216  10.848   8.102  0.1572  0.1914 -0.4455
 1280SOL    HW1 7245   9.220  10.932   8.147 -0.3520  0.6656 -1.2627
 1280SOL    HW2 7246   9.275  10.791   8.151  0.2547  0.9363  0.3067
 1281SOL     OW 7247  10.779   6.647  10.824  0.0805  0.1191 -0.0131
 1281SOL    HW1 7248  10.684   6.652  10.816  0.0071 -1.9950 -0.8846
 1281SOL    HW2 7249  10.812   6.712  10.762 -0.8017  0.2419 -0.3645
 1282SOL     OW 7250   5.677  10.882   3.682 -0.7739 -0.3409  0.1558
 1282SOL    HW1 7251   5.725  10.816   3.732 -2.2037 -1.6471 -0.1674
 1282SOL    HW2 7252   5.715  10.965   3.710  0.0116 -1.2003  1.7010
 1283SOL     OW 7253   5.078   7.811   0.544 -0.2474  0.7349  0.2372
 1283SOL    HW1 7254   5.072   7.792   0.451  0.4517 -3.7868  0.9853
 1283SOL    HW2 7255   5.131   7.891   0.549  2.2021 -0.5611 -3.1338
 1284SOL     OW 7256   2.642   6.011   8.162 -0.2790 -0.3129 -0.3824
 1284SOL    HW1 7257   2.597   6.026   8.246  1.0295 -1.5230  0.5494
 1284SOL    HW2 7258   2.594   5.939   8.122  1.7899 -2.7373  1.3720
 1285SOL     OW 7259   7.053   7.598   7.456 -0.1418 -0.1463  0.5401
 1285SOL    HW1 7260   6.964   7.581   7.486  0.1262 -1.1731  0.7570
 1285SOL    HW2 7261   7.072   7.687   7.487 -1.1514  0.1465  0.3360
 1286SOL     OW 7262   7.332   6.925   0.876  0.2346  0.6025  0.3611
 1286SOL    HW1 7263   7.351   6.987   0.806 -2.1232 -0.1628 -1.0282
 1286SOL    HW2 7264   7.334   6.977   0.956 -0.1921  2.1450 -0.6181
 1287SOL     OW 7265   7.568   4.405   1.481 -0.3598 -0.0738 -0.0982
 1287SOL    HW1 7266   7.636   4.378   1.420  0.2173  0.4264  0.3114
 1287SOL    HW2 7267   7.488   4.365   1.448  0.4775 -2.3753  0.5598
 1288SOL     OW 7268   9.801   2.010  10.698 -0.0667  0.2000 -0.6559
 1288SOL    HW1 7269   9.811   1.954  10.775  0.7912 -0.5529 -1.3109
 1288SOL    HW2 7270   9.886   2.008  10.655  0.3396  2.9266 -0.1093
 1289SOL     OW 7271   7.325   4.080   1.822 -0.5585  0.2272 -0.0449
 1289SOL    HW1 7272   7.252   4.046   1.873  0.7137  0.1474  1.7876
 1289SOL    HW2 7273   7.286   4.110   1.740 -2.4516 -0.9026  0.4125
 1290SOL     OW 7274   6.477   3.293   7.763  0.5245 -0.0087 -0.9657
 1290SOL    HW1 7275   6.509   3.204   7.748 -1.7627 -0.8017 -1.1938
 1290SOL    HW2 7276   6.413   3.309   7.694 -0.9726  0.8549  0.5692
 1291SOL     OW 7277   5.359   7.922   5.104 -0.1025  0.2868 -0.0569
 1291SOL    HW1 7278   5.269   7.953   5.116 -0.0328  0.1327  0.8701
 1291SOL    HW2 7279   5.350   7.848   5.044 -0.8830 -1.2232  1.8758
 1292SOL     OW 7280   8.250   1.068   4.210  0.0229 -0.1542  0.2987
 1292SOL    HW1 7281   8.337   1.089   4.245 -0.2175 -0.5878  1.1920
 1292SOL    HW2 7282   8.254   1.092   4.118  0.9384  0.2802  0.4481
 1293SOL     OW 7283   3.604   1.789   4.635 -0.4401  0.7353  0.2588
 1293SOL    HW1 7284   3.639   1.715   4.684 -0.0194  1.6747  1.4058
 1293SOL    HW2 7285   3.516   1.803   4.671  0.0192  1.6746  1.0327
 1294SOL     OW 7286   6.759  10.529   2.492 -0.5655  0.6230  0.2419
 1294SOL    HW1 7287   6.682  10.485   2.529 -0.5049 -1.1042 -1.6063
 1294SOL    HW2 7288   6.766  10.494   2.403  1.6303  1.6964 -0.0384
 1295SOL     OW 7289   5.939   3.578   8.289  0.1828 -0.3766 -0.1357
 1295SOL    HW1 7290   5.905   3.569   8.378  1.6868  0.1019  0.5060
 1295SOL    HW2 7291   5.966   3.489   8.265  0.1082 -0.4411  0.0147
 1296SOL     OW 7292   6.370   0.684   8.984  0.1713 -0.6628  0.3106
 1296SOL    HW1 7293   6.277   0.708   8.977  0.0718 -1.2279 -0.3644
 1296SOL    HW2 7294   6.389   0.639   8.901  1.7436  1.8117 -0.7023
 1297SOL     OW 7295   8.046   4.450   6.197  0.1805  0.1514  0.2373
 1297SOL    HW1 7296   8.075   4.387   6.131  0.7690 -0.1743  0.8054
 1297SOL    HW2 7297   8.046   4.534   6.152 -1.4166 -0.3686 -0.7662
 1298SOL     OW 7298   5.892   5.565   4.782 -0.3479  0.1433 -0.2965
 1298SOL    HW1 7299   5.864   5.642   4.733  0.4332  0.8754  0.3864
 1298SOL    HW2 7300   5.984   5.552   4.757 -0.3368 -0.2743 -0.0454
 1299SOL     OW 7301   7.476   8.478   6.452 -0.4091  0.0046 -0.1436
 1299SOL    HW1 7302   7.417   8.488   6.527  0.1611 -0.8352  0.4230
 1299SOL    HW2 7303   7.433   8.526   6.382 -2.1811 -1.2879  0.0354
 1300SOL     OW 7304   7.612   1.827   5.079 -0.5898  0.0045  0.2996
 1300SOL    HW1 7305   7.563   1.784   5.150 -0.9749 -0.2547 -0.1221
 1300SOL    HW2 7306   7.668   1.759   5.044 -0.3035  0.1684  0.4410
 1301SOL     OW 7307   8.836   3.007   6.601  0.3917 -0.5391 -0.6089
 1301SOL    HW1 7308   8.796   2.990   6.687 -1.4016 -0.3586 -1.3895
 1301SOL    HW2 7309   8.848   2.920   6.563  1.6931 -0.6532  0.0275
 1302SOL     OW 7310   5.196   5.021   5.996 -0.0450 -0.4022  0.1789
 1302SOL    HW1 7311   5.291   5.010   6.007  0.1298 -1.2013 -1.8583
 1302SOL    HW2 7312   5.160   5.010   6.084  1.7227 -0.3375  0.9385
 1303SOL     OW 7313   7.362   9.148   5.691  0.1542 -0.0734 -0.2067
 1303SOL    HW1 7314   7.414   9.217   5.732 -0.7212  0.9018 -0.7135
 1303SOL    HW2 7315   7.426   9.085   5.661  0.9307  0.1955  0.8521
 1304SOL     OW 7316   3.115   5.254   0.575  0.1844 -0.2185 -0.3609
 1304SOL    HW1 7317   3.060   5.272   0.651 -1.2627  1.0757 -1.6792
 1304SOL    HW2 7318   3.102   5.330   0.517  1.2093 -1.1967 -1.9190
 1305SOL     OW 7319   5.722   9.035   3.361  0.3967 -0.4727  0.4014
 1305SOL    HW1 7320   5.635   9.071   3.342  0.0023 -1.5653  0.0574
 1305SOL    HW2 7321   5.770   9.107   3.401  0.1967  0.9399 -1.7974
 1306SOL     OW 7322   2.214   0.628   8.493  0.5712  0.5198  0.0170
 1306SOL    HW1 7323   2.289   0.597   8.544 -0.2313  0.7232  1.3590
 1306SOL    HW2 7324   2.222   0.723   8.495 -1.0381  0.6541  2.2714
 1307SOL     OW 7325   1.172   0.568   5.765  0.3433 -0.5080 -0.1245
 1307SOL    HW1 7326   1.110   0.585   5.836 -1.4279 -0.3075 -1.6921
 1307SOL    HW2 7327   1.138   0.490   5.721  1.0433 -0.2367 -1.1658
 1308SOL     OW 7328  10.438   3.685   9.332 -0.1710  0.1435  0.2007
 1308SOL    HW1 7329  10.413   3.665   9.422 -0.0268  1.7299  0.6100
 1308SOL    HW2 7330  10.397   3.617   9.280 -0.2903 -0.7693  1.4652
 1309SOL     OW 7331   8.874   1.989   8.571  0.8136  0.6383  0.0185
 1309SOL    HW1 7332   8.929   1.969   8.647 -0.9290  3.5081  2.1384
 1309SOL    HW2 7333   8.785   1.976   8.602  0.0676  1.7942 -1.5685
 1310SOL     OW 7334   1.534   8.711   4.053  0.0585 -0.4852 -0.0968
 1310SOL    HW1 7335   1.458   8.768   4.047 -0.7720 -1.5197  0.3918
 1310SOL    HW2 7336   1.526   8.669   4.139  1.6440  0.0423  0.3317
 1311SOL     OW 7337   3.586   3.452   2.404  1.1928  0.2999 -0.3380
 1311SOL    HW1 7338   3.495   3.423   2.397  1.5986 -0.6727 -1.5241
 1311SOL    HW2 7339   3.585   3.541   2.368  1.2288 -0.7194 -2.8997
 1312SOL     OW 7340   3.285   4.240   4.559  0.0879 -0.3345  0.6300
 1312SOL    HW1 7341   3.327   4.273   4.639  0.5464  0.7236 -0.0332
 1312SOL    HW2 7342   3.340   4.273   4.488 -0.5303 -0.9536 -0.1481
 1313SOL     OW 7343   4.385   4.902   1.452  0.5646 -0.5790  0.3225
 1313SOL    HW1 7344   4.479   4.923   1.453  0.2950  0.7419 -0.8728
 1313SOL    HW2 7345   4.344   4.976   1.407 -1.2726 -0.2875  2.3732
 1314SOL     OW 7346   3.315  10.413   9.225  0.5330 -0.1728  0.3102
 1314SOL    HW1 7347   3.374  10.341   9.202 -0.8018 -1.4304  0.6997
 1314SOL    HW2 7348   3.235  10.396   9.174  0.1206  0.9131  0.5753
 1315SOL     OW 7349   5.002   1.837   4.766  0.7715  0.1698  0.5844
 1315SOL    HW1 7350   4.965   1.920   4.738 -0.7640 -1.2745 -1.8119
 1315SOL    HW2 7351   4.979   1.831   4.859 -0.0139  1.8984  0.5171
 1316SOL     OW 7352   9.897  10.954   7.409 -0.1528  0.3861 -0.1188
 1316SOL    HW1 7353   9.836  10.961   7.483 -0.0545  0.4087 -0.0393
 1316SOL    HW2 7354   9.843  10.925   7.336 -0.0487 -0.7339  0.2397
 1317SOL     OW 7355   1.778   0.778   1.829 -0.1713  0.1538 -0.2882
 1317SOL    HW1 7356   1.754   0.809   1.916  0.6063  0.4594 -0.1691
 1317SOL    HW2 7357   1.704   0.801   1.773 -0.4491  0.4347  0.1948
 1318SOL     OW 7358   8.525   1.684   5.936  0.1139 -0.2125  0.0298
 1318SOL    HW1 7359   8.434   1.702   5.959 -0.1278  0.6724 -1.4724
 1318SOL    HW2 7360   8.543   1.745   5.863  2.1015  0.0871  0.7397
 1319SOL     OW 7361   0.931   6.598  10.248  0.4767  0.2733 -0.0702
 1319SOL    HW1 7362   0.995   6.541  10.205  0.8795  1.4803 -1.1277
 1319SOL    HW2 7363   0.849   6.549  10.244  1.3000 -1.2709  1.2566
 1320SOL     OW 7364   8.361   9.946   5.596  0.6370  0.0256 -0.7320
 1320SOL    HW1 7365   8.445   9.957   5.552  1.2510 -0.7918  0.2194
 1320SOL    HW2 7366   8.298   9.986   5.536  1.6778  0.5259 -1.5177
 1321SOL     OW 7367   2.554   7.960   3.668 -0.0865  0.2877  0.8655
 1321SOL    HW1 7368   2.557   8.043   3.716 -1.0048  0.8521 -0.0342
 1321SOL    HW2 7369   2.554   7.986   3.576  0.0135 -0.7333  0.5712
 1322SOL     OW 7370   8.160   8.681   8.844 -0.3290  0.5936 -0.4580
 1322SOL    HW1 7371   8.154   8.766   8.888 -0.8702 -0.3003  1.2093
 1322SOL    HW2 7372   8.208   8.626   8.905 -0.0087 -0.3315 -1.5303
 1323SOL     OW 7373   5.605   8.712   5.667 -0.4934 -0.1701 -0.2760
 1323SOL    HW1 7374   5.519   8.670   5.678 -0.7197 -0.6168 -3.1891
 1323SOL    HW2 7375   5.597   8.759   5.584  1.6719  0.8895  0.0957
 1324SOL     OW 7376   4.251   2.635   6.259  0.2383  0.8275  0.8026
 1324SOL    HW1 7377   4.173   2.689   6.250 -0.0803  0.5088  1.6082
 1324SOL    HW2 7378   4.285   2.626   6.170 -0.8406  0.6735  0.4071
 1325SOL     OW 7379   5.029   2.215   0.369 -0.2193 -0.5161  0.3236
 1325SOL    HW1 7380   4.993   2.300   0.344  0.9020 -0.2981 -0.6062
 1325SOL    HW2 7381   5.017   2.210   0.464  0.0591  0.8494  0.4340
 1326SOL     OW 7382   3.418   4.730   5.198  0.3134 -0.4019  0.4031
 1326SOL    HW1 7383   3.469   4.793   5.147  0.2101 -2.1390 -1.8821
 1326SOL    HW2 7384   3.446   4.644   5.166 -0.5781 -1.5170  2.4859
 1327SOL     OW 7385   4.995  10.672   4.036  1.1649 -0.4514 -0.2490
 1327SOL    HW1 7386   5.021  10.751   3.988 -0.5514  0.1282 -0.2585
 1327SOL    HW2 7387   5.074  10.646   4.084  1.7991  1.1432 -0.3931
 1328SOL     OW 7388   1.388   8.464   4.504 -0.5258 -0.2816  0.3414
 1328SOL    HW1 7389   1.419   8.476   4.415  1.6005 -0.9436  0.9640
 1328SOL    HW2 7390   1.432   8.534   4.554  0.7370 -1.8148  1.4120
 1329SOL     OW 7391   7.841   0.869   2.571  0.3932  0.3824 -0.4194
 1329SOL    HW1 7392   7.920   0.837   2.527  0.4005  0.2574 -0.3143
 1329SOL    HW2 7393   7.775   0.802   2.556  0.2694  0.5464 -0.6150
 1330SOL     OW 7394   1.981   2.990   9.870 -0.4169  0.0601 -0.5660
 1330SOL    HW1 7395   1.984   3.019   9.778  0.2516 -0.8415 -0.8329
 1330SOL    HW2 7396   1.959   2.897   9.865  0.3410 -0.1618  0.1595
 1331SOL     OW 7397  10.191   2.732   4.536  0.0833 -0.0103  0.3645
 1331SOL    HW1 7398  10.119   2.794   4.547 -1.2299 -1.5676  0.7681
 1331SOL    HW2 7399  10.270   2.784   4.551 -0.8795  1.9847 -1.2195
 1332SOL     OW 7400   1.043   6.173   3.182  0.3810  0.1563 -0.0942
 1332SOL    HW1 7401   1.033   6.211   3.270 -1.5300  1.9917 -1.0672
 1332SOL    HW2 7402   1.091   6.240   3.133  2.7535 -1.4765 -0.1129
 1333SOL     OW 7403   6.196   6.067   0.734 -0.6475 -0.4509  0.1660
 1333SOL    HW1 7404   6.170   6.152   0.770  1.1955  0.1033  0.2542
 1333SOL    HW2 7405   6.255   6.089   0.662 -0.9045 -1.6422 -0.4104
 1334SOL     OW 7406   1.214   6.954   4.370  0.0365  0.0681  0.1599
 1334SOL    HW1 7407   1.272   6.959   4.294 -1.1516 -1.6195 -0.8890
 1334SOL    HW2 7408   1.160   7.033   4.365  1.2841  0.9419  0.3678
 1335SOL     OW 7409   1.839   8.683   3.288  0.4356  0.0821 -0.2651
 1335SOL    HW1 7410   1.799   8.761   3.251 -1.9825 -1.3003 -0.6868
 1335SOL    HW2 7411   1.793   8.670   3.371 -0.5226 -1.9233 -1.0822
 1336SOL     OW 7412   6.953   5.854   3.618  0.0106 -0.3280 -0.6249
 1336SOL    HW1 7413   7.012   5.803   3.673  0.1883  0.5687  0.0212
 1336SOL    HW2 7414   6.873   5.802   3.613 -0.1042 -0.2834  0.6954
 1337SOL     OW 7415  10.117   4.838   4.801 -0.6025  0.0924 -0.0715
 1337SOL    HW1 7416  10.042   4.898   4.804 -0.4656  0.2875 -0.5162
 1337SOL    HW2 7417  10.143   4.828   4.893  0.6694  2.3352 -0.1542
 1338SOL     OW 7418   4.835   5.399   7.685 -0.0454 -0.4384 -0.7294
 1338SOL    HW1 7419   4.752   5.415   7.730 -0.0174 -0.9412 -0.4893
 1338SOL    HW2 7420   4.816   5.328   7.623 -0.2142  0.6094 -1.8957
 1339SOL     OW 7421   3.515   1.719  10.182  0.1696 -0.3267 -0.1719
 1339SOL    HW1 7422   3.539   1.629  10.205  1.7003 -0.1888 -1.1329
 1339SOL    HW2 7423   3.599   1.764  10.172 -0.5826  1.1275 -0.0239
 1340SOL     OW 7424   2.480   7.425  10.866  0.5771  0.0738  0.0343
 1340SOL    HW1 7425   2.424   7.446  10.791 -1.1331  0.8858  1.4981
 1340SOL    HW2 7426   2.531   7.505  10.881  0.3280  0.1970  0.2341
 1341SOL     OW 7427   9.342   5.927   8.349 -0.0295  0.3657  0.1022
 1341SOL    HW1 7428   9.328   5.869   8.424  0.9973  1.1470  0.9158
 1341SOL    HW2 7429   9.255   5.939   8.312 -0.5105 -0.2697  0.9973
 1342SOL     OW 7430   3.172   3.182   2.557  0.1629 -0.7873  0.5723
 1342SOL    HW1 7431   3.171   3.227   2.642  0.2078 -0.4898  0.4131
 1342SOL    HW2 7432   3.126   3.241   2.498 -1.5278 -1.8298  0.8124
 1343SOL     OW 7433   0.967   9.750   7.056 -0.2360 -0.0279 -0.4961
 1343SOL    HW1 7434   1.042   9.693   7.036  0.5357  1.0044 -0.5938
 1343SOL    HW2 7435   1.007   9.834   7.079 -1.2507 -0.1398  1.8159
 1344SOL     OW 7436   4.301   8.466   2.074 -0.2250  0.7121  0.3980
 1344SOL    HW1 7437   4.374   8.526   2.058  1.1754 -1.2245 -0.6672
 1344SOL    HW2 7438   4.241   8.481   2.001  0.9473 -0.3612 -0.8161
 1345SOL     OW 7439  10.509   6.648   4.991 -0.3387 -0.1628  0.1437
 1345SOL    HW1 7440  10.512   6.722   5.052 -0.3248 -0.1392  0.1143
 1345SOL    HW2 7441  10.553   6.577   5.036 -1.4561 -0.5230  0.6776
 1346SOL     OW 7442   2.574   8.293   8.093  0.0190  0.3601  0.3931
 1346SOL    HW1 7443   2.582   8.279   7.998  0.4814 -0.0133  0.4897
 1346SOL    HW2 7444   2.493   8.344   8.102 -0.8410 -0.8917 -0.0919
 1347SOL     OW 7445   9.465   4.004   2.614 -0.1203  0.2357  0.6469
 1347SOL    HW1 7446   9.503   3.917   2.604 -0.4608  0.0575  0.9354
 1347SOL    HW2 7447   9.541   4.063   2.612  0.4923 -0.3304  4.3509
 1348SOL     OW 7448  10.078   5.540   0.355  0.0158 -0.4998  0.3024
 1348SOL    HW1 7449  10.063   5.450   0.385 -1.5915  0.1022  1.4147
 1348SOL    HW2 7450  10.144   5.574   0.415 -0.3269 -0.5326  0.7018
 1349SOL     OW 7451   9.822   5.609   8.481 -0.7338  0.2784  0.2198
 1349SOL    HW1 7452   9.739   5.604   8.433  0.3427 -0.6164 -1.5883
 1349SOL    HW2 7453   9.880   5.657   8.422  0.3046  0.0989  1.0884
 1350SOL     OW 7454   0.968   2.022   7.354  0.7109 -0.3591 -0.0441
 1350SOL    HW1 7455   1.050   1.992   7.316  0.6201  0.8912 -1.2459
 1350SOL    HW2 7456   0.994   2.091   7.416  0.8984 -2.6486  2.5362
 1351SOL     OW 7457  10.552   6.795   7.513  0.4282 -0.1132 -0.0205
 1351SOL    HW1 7458  10.576   6.733   7.582  0.8334  0.6840  0.5694
 1351SOL    HW2 7459  10.622   6.788   7.449  0.3553 -0.4271 -0.0656
 1352SOL     OW 7460   0.454   1.919   0.665 -0.1033 -0.3254  0.1362
 1352SOL    HW1 7461   0.419   1.966   0.589 -1.9091  1.4533  1.9876
 1352SOL    HW2 7462   0.377   1.881   0.707  0.7980 -0.8220  1.3648
 1353SOL     OW 7463   4.679   1.836   6.420  0.2509  0.7329  0.2890
 1353SOL    HW1 7464   4.729   1.820   6.500  0.3470 -0.3652  0.0124
 1353SOL    HW2 7465   4.704   1.925   6.393  1.8540  0.2992  0.3000
 1354SOL     OW 7466   3.875   4.933   4.335  0.5951  0.1887  0.5682
 1354SOL    HW1 7467   3.912   4.981   4.409  0.0228  1.9624 -0.2483
 1354SOL    HW2 7468   3.867   4.843   4.365  0.2052  0.9162  2.7016
 1355SOL     OW 7469   4.204   7.667   6.062  0.3932  0.2570 -0.5215
 1355SOL    HW1 7470   4.215   7.609   5.987 -1.2162  0.3423 -0.8292
 1355SOL    HW2 7471   4.142   7.622   6.119 -1.1669  1.8364 -0.9428
 1356SOL     OW 7472   8.676   4.378   3.936  0.3924  0.1289  0.2683
 1356SOL    HW1 7473   8.658   4.468   3.908 -0.3851  0.7269  2.5103
 1356SOL    HW2 7474   8.635   4.372   4.023 -0.0500 -2.5698 -0.0838
 1357SOL     OW 7475   6.598   6.301   3.177 -0.2055 -0.3359 -0.2291
 1357SOL    HW1 7476   6.619   6.240   3.247  1.4539 -0.6715 -0.9859
 1357SOL    HW2 7477   6.551   6.248   3.112 -1.4235 -0.1052  0.4510
 1358SOL     OW 7478   7.289   2.939   0.567 -0.5302 -0.1959  0.4638
 1358SOL    HW1 7479   7.304   2.880   0.641 -0.0901  0.4576  0.8971
 1358SOL    HW2 7480   7.356   2.914   0.503 -0.3781 -0.1958  0.6234
 1359SOL     OW 7481   3.716   3.361  10.035  0.4336  0.3886 -0.7070
 1359SOL    HW1 7482   3.794   3.307  10.043  0.9018  1.1496 -0.0834
 1359SOL    HW2 7483   3.650   3.315  10.088  1.5727  1.7769  2.0221
 1360SOL     OW 7484   7.862   2.734   1.669  0.3949 -0.0354  0.5501
 1360SOL    HW1 7485   7.780   2.753   1.715  0.2051  2.7201 -0.7664
 1360SOL    HW2 7486   7.847   2.769   1.581  2.3796 -1.0759 -0.2212
 1361SOL     OW 7487   7.464   4.497   3.284  0.7888 -0.2991  0.5513
 1361SOL    HW1 7488   7.374   4.480   3.258  0.9341  0.4997 -0.5452
 1361SOL    HW2 7489   7.458   4.573   3.342  1.0046  1.5777 -1.8070
 1362SOL     OW 7490   5.104   5.627   1.497 -0.2387 -0.2636  0.9003
 1362SOL    HW1 7491   5.198   5.643   1.490 -0.4070  0.4979  0.3242
 1362SOL    HW2 7492   5.089   5.616   1.591  0.2376  0.8066  1.1101
 1363SOL     OW 7493   2.746   4.374   5.435  0.4068 -0.3701  0.7340
 1363SOL    HW1 7494   2.665   4.400   5.390 -0.1526 -1.6034  0.9906
 1363SOL    HW2 7495   2.715   4.330   5.515  1.3563  0.0753  1.3502
 1364SOL     OW 7496   6.862   4.506   8.905  0.8640 -0.4257 -0.4856
 1364SOL    HW1 7497   6.771   4.509   8.877  0.7913 -1.0456 -0.3394
 1364SOL    HW2 7498   6.866   4.565   8.980  0.3879 -1.0542  0.0383
 1365SOL     OW 7499   3.495   4.487   1.848  0.3415  0.6732 -0.4911
 1365SOL    HW1 7500   3.474   4.393   1.849 -0.4608  0.8215 -1.5514
 1365SOL    HW2 7501   3.587   4.491   1.872 -0.0868 -0.2450  1.3760
 1366SOL     OW 7502   4.263   8.668   1.124 -0.6598  0.3231  0.2090
 1366SOL    HW1 7503   4.253   8.762   1.141 -0.3802  0.3479  0.2395
 1366SOL    HW2 7504   4.264   8.629   1.212  2.0492  0.5802  0.3317
 1367SOL     OW 7505   6.578   8.095   3.343 -0.1587  0.3415 -0.0135
 1367SOL    HW1 7506   6.522   8.042   3.401  0.9977 -1.5830 -0.6049
 1367SOL    HW2 7507   6.657   8.043   3.332  0.1900  1.2848 -2.2592
 1368SOL     OW 7508   0.351  10.869   9.715  0.3394 -1.0900  0.5476
 1368SOL    HW1 7509   0.285  10.800   9.708  1.1286 -1.8297  0.2141
 1368SOL    HW2 7510   0.400  10.848   9.795 -0.5736  0.1237  1.4388
 1369SOL     OW 7511   4.243   4.533   6.304 -0.7235 -1.1517  0.4611
 1369SOL    HW1 7512   4.335   4.551   6.285 -1.2629 -0.5286 -1.7188
 1369SOL    HW2 7513   4.212   4.481   6.229 -2.0432 -1.6886  1.3487
 1370SOL     OW 7514   7.064   1.226   2.411  0.2777 -0.1408 -0.5959
 1370SOL    HW1 7515   7.116   1.295   2.454  1.2183 -0.4392 -1.2220
 1370SOL    HW2 7516   6.982   1.223   2.460  0.6409  0.7203  0.0810
 1371SOL     OW 7517   9.896   0.023   8.128 -0.4375 -0.2631  0.3067
 1371SOL    HW1 7518   9.860   0.021   8.040 -3.0510  1.0643  1.2853
 1371SOL    HW2 7519   9.932   0.111   8.138 -0.2930 -0.3542  0.6112
 1372SOL     OW 7520   3.040   3.357   2.396  0.2200  0.7263  0.4034
 1372SOL    HW1 7521   2.998   3.282   2.354 -0.0683  0.2115  1.6040
 1372SOL    HW2 7522   2.982   3.431   2.375 -0.4407  0.3012  0.7044
 1373SOL     OW 7523  10.971   4.054  10.136 -0.1054 -0.5001 -0.6178
 1373SOL    HW1 7524  10.923   4.126  10.096 -1.4960 -1.7755 -1.2885
 1373SOL    HW2 7525  10.996   3.998  10.063 -0.1169 -1.3402  0.0078
 1374SOL     OW 7526  10.592   3.344   5.299  0.3449 -0.2617 -0.1133
 1374SOL    HW1 7527  10.598   3.277   5.367  1.1249  1.0082  1.0995
 1374SOL    HW2 7528  10.566   3.423   5.345  3.9948  1.4013 -0.7178
 1375SOL     OW 7529   3.068   4.773   1.443 -0.4550 -0.5484  0.3688
 1375SOL    HW1 7530   3.018   4.698   1.411 -1.2285  0.0597  0.1274
 1375SOL    HW2 7531   3.008   4.847   1.433  0.5549  0.2196 -0.0824
 1376SOL     OW 7532   5.681   4.720   5.754  0.1197  0.1586  0.6033
 1376SOL    HW1 7533   5.701   4.798   5.702  1.1224 -1.0830 -0.9010
 1376SOL    HW2 7534   5.755   4.711   5.814  0.2537  0.0404  0.4157
 1377SOL     OW 7535   0.509   3.480   8.998 -0.0660  0.2642 -0.0331
 1377SOL    HW1 7536   0.603   3.499   8.992 -0.6959  3.1495 -1.4082
 1377SOL    HW2 7537   0.478   3.537   9.068 -1.0882  0.4271 -0.6191
 1378SOL     OW 7538   2.116   5.986   1.722  0.0899  0.6885  0.2209
 1378SOL    HW1 7539   2.069   6.052   1.772 -0.3919  0.7907 -0.3586
 1378SOL    HW2 7540   2.179   6.036   1.670  0.6399  0.5767  0.7755
 1379SOL     OW 7541   4.429   7.263   7.964 -0.0716 -0.3291  0.1665
 1379SOL    HW1 7542   4.463   7.201   7.900 -1.6540 -1.6894  0.6021
 1379SOL    HW2 7543   4.334   7.253   7.958 -0.2984  1.1743  1.1133
 1380SOL     OW 7544   0.444   3.173   1.881 -0.0830 -0.0856 -0.2776
 1380SOL    HW1 7545   0.453   3.211   1.794  0.2665  0.9515  0.2118
 1380SOL    HW2 7546   0.470   3.081   1.869 -1.3472 -0.2914 -1.5298
 1381SOL     OW 7547  10.329   8.553   2.522  0.3897  0.0428 -0.0560
 1381SOL    HW1 7548  10.261   8.551   2.455 -0.1555  1.1951  0.4579
 1381SOL    HW2 7549  10.296   8.495   2.591  0.5996 -0.5299 -0.4246
 1382SOL     OW 7550   5.795   7.429   9.410 -0.0679 -0.0372 -0.6196
 1382SOL    HW1 7551   5.712   7.451   9.452 -0.1784 -1.5289 -0.0462
 1382SOL    HW2 7552   5.854   7.408   9.482  0.2209 -0.9569 -1.1177
 1383SOL     OW 7553   9.683  10.738   7.321 -0.0499 -0.0443  0.3142
 1383SOL    HW1 7554   9.618  10.752   7.389 -1.0725  0.0558 -0.6627
 1383SOL    HW2 7555   9.759  10.702   7.367  0.2066  2.4009  1.8832
 1384SOL     OW 7556   8.404   3.361   2.759 -0.4881 -0.4597 -0.4680
 1384SOL    HW1 7557   8.379   3.352   2.851  0.3277  0.3673 -0.1490
 1384SOL    HW2 7558   8.473   3.296   2.747  1.4495  1.3857  0.3124
 1385SOL     OW 7559   7.592   0.813  10.223 -0.0177  0.3720 -0.0507
 1385SOL    HW1 7560   7.664   0.876  10.231  1.7802 -1.6705  0.4227
 1385SOL    HW2 7561   7.598   0.783  10.132  1.6105 -1.9034  0.7551
 1386SOL     OW 7562   3.604   5.602  10.468 -0.2463  0.5419  0.1125
 1386SOL    HW1 7563   3.606   5.594  10.373  1.5798  1.2251  0.0659
 1386SOL    HW2 7564   3.551   5.528  10.497  1.5170 -1.3479 -1.2985
 1387SOL     OW 7565   5.656   3.526   4.027 -0.2701  0.5992  1.1272
 1387SOL    HW1 7566   5.591   3.492   3.966  1.1210 -0.9634  0.4815
 1387SOL    HW2 7567   5.623   3.502   4.114  0.8465 -2.7925  0.6729
 1388SOL     OW 7568   8.157  10.632   7.523 -0.5364 -0.0397 -0.3144
 1388SOL    HW1 7569   8.174  10.625   7.430 -0.0322  1.0090 -0.3099
 1388SOL    HW2 7570   8.244  10.638   7.563 -0.6351 -2.8479  0.4502
 1389SOL     OW 7571   5.660   1.110  10.551  0.4112 -0.2509  0.4364
 1389SOL    HW1 7572   5.725   1.133  10.485 -0.9790 -1.2592 -1.3352
 1389SOL    HW2 7573   5.586   1.168  10.533 -0.8490 -2.0415 -0.3536
 1390SOL     OW 7574  10.145   1.104   6.490 -0.1648  0.0509  0.1788
 1390SOL    HW1 7575  10.064   1.086   6.443  0.4655 -1.5171 -0.3481
 1390SOL    HW2 7576  10.130   1.189   6.532 -1.2991  0.7711 -1.5995
 1391SOL     OW 7577   7.280   1.299   3.010 -0.1425 -0.2195 -0.5339
 1391SOL    HW1 7578   7.333   1.298   3.090  0.0805  1.5426 -0.6506
 1391SOL    HW2 7579   7.280   1.208   2.981 -0.4997 -0.9472  1.6475
 1392SOL     OW 7580   2.870   4.107   1.955 -0.4827  0.2433  0.6787
 1392SOL    HW1 7581   2.790   4.085   2.002 -1.4099 -0.3005 -1.1179
 1392SOL    HW2 7582   2.844   4.177   1.895 -0.1124 -1.2465 -1.2822
 1393SOL     OW 7583   0.678   4.043   1.512 -0.3593  0.0903  0.4090
 1393SOL    HW1 7584   0.607   4.099   1.542  0.2964  0.5884  1.0323
 1393SOL    HW2 7585   0.713   4.004   1.592  2.1913  2.3563  0.4638
 1394SOL     OW 7586   4.714   8.484   1.068 -0.0684  0.5327  0.6017
 1394SOL    HW1 7587   4.788   8.428   1.043  0.4038  0.3342  2.3515
 1394SOL    HW2 7588   4.643   8.423   1.085 -0.8475  0.7595 -1.6703
 1395SOL     OW 7589   9.909   6.958   6.298 -0.4648 -0.5366  0.0018
 1395SOL    HW1 7590   9.855   6.935   6.223  1.2705 -0.4635 -1.3148
 1395SOL    HW2 7591   9.897   7.053   6.309 -0.7915 -0.5635 -0.1373
 1396SOL     OW 7592   4.652   4.769   8.892 -0.3348 -0.4272  0.4023
 1396SOL    HW1 7593   4.668   4.856   8.856 -2.5904 -0.0499  0.2056
 1396SOL    HW2 7594   4.628   4.715   8.816  0.6753 -1.1229  0.5690
 1397SOL     OW 7595   2.054   4.772   2.826 -0.7656  0.0266 -0.3334
 1397SOL    HW1 7596   2.097   4.815   2.751 -0.6570 -0.7767 -0.7378
 1397SOL    HW2 7597   2.067   4.679   2.810  0.3238 -0.1133  1.3426
 1398SOL     OW 7598   1.093   8.986   0.797  0.5785 -0.2919 -0.0595
 1398SOL    HW1 7599   1.108   9.001   0.891 -0.0469 -1.3047  0.2106
 1398SOL    HW2 7600   1.107   9.072   0.757 -0.5629  0.4923  1.1527
 1399SOL     OW 7601   6.001   8.425   5.751  0.2688 -0.9214  0.1890
 1399SOL    HW1 7602   5.996   8.447   5.658  1.7938 -0.3923  0.2111
 1399SOL    HW2 7603   5.974   8.333   5.756  1.3063 -1.2927 -0.9311
 1400SOL     OW 7604   5.710   9.968   9.757 -0.0904  0.1630 -0.4470
 1400SOL    HW1 7605   5.740   9.883   9.790 -1.8154 -0.0812  0.5681
 1400SOL    HW2 7606   5.635   9.947   9.701 -0.1928  0.9780 -0.6144
 1401SOL     OW 7607   6.461   0.279  10.441 -0.6933 -0.2905 -0.1364
 1401SOL    HW1 7608   6.550   0.308  10.419 -0.1930  0.1164  2.2827
 1401SOL    HW2 7609   6.439   0.216  10.373  0.4341  1.5208 -2.2392
 1402SOL     OW 7610   9.735  10.053   7.947 -0.0512  0.2578 -0.4343
 1402SOL    HW1 7611   9.807  10.100   7.990 -1.0645  0.3097  1.2652
 1402SOL    HW2 7612   9.671  10.040   8.017 -0.7410 -1.7136 -1.4170
 1403SOL     OW 7613   8.877   3.136   5.778 -0.2675  0.0179 -0.7119
 1403SOL    HW1 7614   8.943   3.161   5.713  2.4948 -1.4427  1.4062
 1403SOL    HW2 7615   8.875   3.210   5.839  0.9730 -0.8260  0.3692
 1404SOL     OW 7616   7.218   8.991   2.942  0.2373 -0.2170 -0.0259
 1404SOL    HW1 7617   7.301   9.023   2.978 -0.0369  0.4650  0.0193
 1404SOL    HW2 7618   7.162   9.069   2.941 -0.9722 -1.0520  1.5877
 1405SOL     OW 7619  10.077   6.681   0.274 -0.1191 -0.0978 -0.0920
 1405SOL    HW1 7620  10.122   6.630   0.342  1.3237 -1.7251 -2.2055
 1405SOL    HW2 7621  10.006   6.624   0.245 -0.7144  0.5865  0.0199
 1406SOL     OW 7622   0.427   2.156   2.748 -0.3699 -0.3581  0.1019
 1406SOL    HW1 7623   0.490   2.221   2.779 -0.4568 -0.7119  1.0409
 1406SOL    HW2 7624   0.420   2.173   2.654  0.5087  0.2124  0.1275
 1407SOL     OW 7625   4.547   3.014   1.627 -0.9667 -0.3263 -0.2279
 1407SOL    HW1 7626   4.508   3.087   1.579 -0.6826 -1.2210 -1.8668
 1407SOL    HW2 7627   4.616   3.054   1.680 -1.0175  0.6386 -0.8783
 1408SOL     OW 7628   6.318   3.564   5.365  0.1589 -0.0415 -0.2303
 1408SOL    HW1 7629   6.316   3.475   5.330 -0.5339  0.1528 -0.6839
 1408SOL    HW2 7630   6.296   3.554   5.458 -1.0088 -0.2277 -0.5214
 1409SOL     OW 7631   2.755   3.285   4.443 -0.8428  0.5085 -1.4327
 1409SOL    HW1 7632   2.663   3.278   4.470 -0.3919  0.4897  0.1967
 1409SOL    HW2 7633   2.785   3.195   4.435 -0.3949  0.4824  0.2036
 1410SOL     OW 7634   0.289   3.535   6.827 -0.0028 -0.1879 -0.0897
 1410SOL    HW1 7635   0.320   3.600   6.890 -0.8010 -0.2644  0.3904
 1410SOL    HW2 7636   0.368   3.506   6.782  0.4214  0.7319  0.0549
 1411SOL     OW 7637   9.322   5.931   0.294 -0.3207 -0.0938 -0.2423
 1411SOL    HW1 7638   9.234   5.925   0.257 -0.3203  0.6373 -0.3553
 1411SOL    HW2 7639   9.314   5.990   0.368  0.4452  1.4662 -1.3765
 1412SOL     OW 7640  10.193   6.144  10.968 -0.3669 -0.3185 -0.1539
 1412SOL    HW1 7641  10.255   6.181  10.905  1.2608 -0.1748  1.5040
 1412SOL    HW2 7642  10.162   6.064  10.925  0.4571 -0.0435 -1.3024
 1413SOL     OW 7643  10.065   5.943  10.755  0.2000 -0.0251  0.3613
 1413SOL    HW1 7644   9.982   5.964  10.713  0.2963  1.0118  0.6824
 1413SOL    HW2 7645  10.083   5.852  10.729 -0.6281  0.0139 -0.3595
 1414SOL     OW 7646   4.802   5.751   5.344  0.5040  0.1286 -0.2301
 1414SOL    HW1 7647   4.789   5.725   5.435  1.8074 -0.5781 -0.2359
 1414SOL    HW2 7648   4.833   5.841   5.348 -0.0554  0.3110 -0.0085
 1415SOL     OW 7649   1.649   6.999   9.280  0.0775 -0.0894  0.1166
 1415SOL    HW1 7650   1.623   7.029   9.368 -0.5149  0.1983 -0.1506
 1415SOL    HW2 7651   1.576   6.944   9.251 -0.1329  0.5247 -0.5455
 1416SOL     OW 7652   8.534   7.335   6.979 -0.2899  0.5539 -0.2980
 1416SOL    HW1 7653   8.517   7.425   6.948 -0.7282  0.5418 -0.0964
 1416SOL    HW2 7654   8.618   7.312   6.939  0.5819  1.6256  0.8792
 1417SOL     OW 7655  10.914   9.765   3.460 -0.0900 -0.3658 -0.1604
 1417SOL    HW1 7656  10.975   9.828   3.423 -0.3669  0.1299  0.2157
 1417SOL    HW2 7657  10.828   9.804   3.445 -0.2690 -0.7194 -0.0468
 1418SOL     OW 7658   1.197   8.078   0.264 -0.7299  0.3820  0.4800
 1418SOL    HW1 7659   1.179   8.153   0.320 -0.6459  2.2994 -1.9550
 1418SOL    HW2 7660   1.283   8.046   0.293 -0.9901  0.9115  1.8494
 1419SOL     OW 7661   9.003   9.651   5.517  0.6891  0.3455  0.1804
 1419SOL    HW1 7662   8.954   9.596   5.456  1.7726  0.2085 -0.5992
 1419SOL    HW2 7663   8.958   9.735   5.515  0.1459  0.0530 -0.0780
 1420SOL     OW 7664   7.920   3.594  10.124 -0.7170 -0.6151  0.0301
 1420SOL    HW1 7665   7.928   3.685  10.096 -0.6347 -0.5786  0.1774
 1420SOL    HW2 7666   7.826   3.576  10.122 -0.6537 -0.8579 -1.0794
 1421SOL     OW 7667   5.298   0.768   9.387 -0.1185 -0.2165 -0.0915
 1421SOL    HW1 7668   5.324   0.858   9.368  0.8767 -0.6562 -0.8930
 1421SOL    HW2 7669   5.212   0.776   9.428 -0.1958  1.0699 -0.4652
 1422SOL     OW 7670   9.664   1.409   7.897 -0.1678  0.0022 -0.1100
 1422SOL    HW1 7671   9.608   1.334   7.877  0.9008 -0.8333 -0.0671
 1422SOL    HW2 7672   9.622   1.483   7.853 -1.5794 -0.4922  0.3847
 1423SOL     OW 7673   6.924   3.891   2.668 -0.4477 -0.4139 -0.6779
 1423SOL    HW1 7674   6.970   3.906   2.751  1.3885 -0.7843 -1.6068
 1423SOL    HW2 7675   6.853   3.955   2.668  1.9482  2.3651 -0.5892
 1424SOL     OW 7676   1.285   4.688   3.961  0.0461 -0.1003 -0.5594
 1424SOL    HW1 7677   1.259   4.706   4.051 -0.9592  1.4426 -1.1429
 1424SOL    HW2 7678   1.349   4.616   3.968 -0.8942 -0.7839  1.2707
 1425SOL     OW 7679   4.119   9.816   9.870 -0.3012 -0.2301 -0.1398
 1425SOL    HW1 7680   4.189   9.751   9.862  0.3492  0.1177  2.3937
 1425SOL    HW2 7681   4.133   9.876   9.797  1.1677 -0.9948 -0.4915
 1426SOL     OW 7682   8.233   9.134   4.586  0.6713  0.3639 -0.1031
 1426SOL    HW1 7683   8.220   9.127   4.680 -0.3339  2.8343 -0.0038
 1426SOL    HW2 7684   8.205   9.049   4.551  0.8923 -0.5144  1.7985
 1427SOL     OW 7685   4.755   4.529   5.196  0.3153 -0.5403  0.5549
 1427SOL    HW1 7686   4.843   4.508   5.226  0.5536 -0.2969  0.0327
 1427SOL    HW2 7687   4.768   4.598   5.130 -0.2400 -0.7171  0.2597
 1428SOL     OW 7688   1.218   7.827   6.453 -0.5171  0.1757 -0.5270
 1428SOL    HW1 7689   1.259   7.742   6.438  0.9611  0.9823 -1.1398
 1428SOL    HW2 7690   1.235   7.846   6.546 -1.4642 -0.4921 -0.1997
 1429SOL     OW 7691   2.085   4.867   5.453  0.0470  0.1396  0.2210
 1429SOL    HW1 7692   2.151   4.863   5.384  0.1670  0.4983  0.3101
 1429SOL    HW2 7693   2.108   4.796   5.512  0.3808  0.2854  0.2700
 1430SOL     OW 7694   1.081   9.607   2.737 -0.2144  0.2559  0.3252
 1430SOL    HW1 7695   1.133   9.608   2.657 -1.9674  0.4572 -0.8517
 1430SOL    HW2 7696   1.040   9.520   2.738 -1.8401  0.9845 -0.1276
 1431SOL     OW 7697   7.891   0.041   2.929 -0.1408  0.6084  0.0585
 1431SOL    HW1 7698   7.817   0.058   2.987  0.1825  0.3966  0.5289
 1431SOL    HW2 7699   7.909   0.126   2.888 -0.0576  0.8659  0.6237
 1432SOL     OW 7700   9.897   2.108   7.054  0.2145  0.1506 -0.3638
 1432SOL    HW1 7701   9.945   2.059   6.986  1.0863  1.3089 -0.5978
 1432SOL    HW2 7702   9.965   2.139   7.114 -0.3169  1.1031 -0.2389
 1433SOL     OW 7703   4.007   5.939   1.597 -0.9041 -0.7102  0.2805
 1433SOL    HW1 7704   4.077   5.920   1.660  0.0190 -0.3989 -0.6230
 1433SOL    HW2 7705   3.957   6.010   1.638  0.4117  0.3181  0.1519
 1434SOL     OW 7706   6.033   3.013   9.175 -0.1025 -0.4526  0.3241
 1434SOL    HW1 7707   6.039   2.978   9.086 -0.4907 -2.4121  1.0450
 1434SOL    HW2 7708   6.071   2.945   9.230  0.4950  0.9164  1.6363
 1435SOL     OW 7709   2.640   5.224  10.400 -0.1842 -0.1130 -0.1123
 1435SOL    HW1 7710   2.604   5.140  10.372 -0.5241 -0.3637  1.0328
 1435SOL    HW2 7711   2.583   5.289  10.359 -1.1902 -0.4868  0.6515
 1436SOL     OW 7712   5.623   2.381   9.757  0.6961  0.5541  0.0426
 1436SOL    HW1 7713   5.713   2.405   9.738  0.8118 -0.0726 -0.2163
 1436SOL    HW2 7714   5.626   2.341   9.844  0.4220  1.9490  0.6973
 1437SOL     OW 7715   7.473   5.595   3.846 -0.9158 -0.0960 -0.2600
 1437SOL    HW1 7716   7.517   5.666   3.800  2.0943 -1.8891 -0.2966
 1437SOL    HW2 7717   7.447   5.534   3.777 -1.6407 -0.0078 -0.0649
 1438SOL     OW 7718   1.675   5.134   7.773  1.1959  0.3600 -0.1239
 1438SOL    HW1 7719   1.581   5.120   7.785  0.9478  1.6489 -0.4468
 1438SOL    HW2 7720   1.708   5.145   7.862  0.7516  1.5818 -0.1004
 1439SOL     OW 7721   4.666   0.338   9.543  0.4389  0.2889  0.2660
 1439SOL    HW1 7722   4.760   0.324   9.536  0.3721 -0.2234  0.3640
 1439SOL    HW2 7723   4.629   0.250   9.550 -0.0935  0.4656 -0.3042
 1440SOL     OW 7724   0.702   4.672   2.815 -0.3873  0.5347 -0.6039
 1440SOL    HW1 7725   0.694   4.692   2.909 -0.6005  3.4830 -1.1985
 1440SOL    HW2 7726   0.790   4.702   2.792 -1.0470  1.6027 -1.7439
 1441SOL     OW 7727   2.335   9.889   4.781 -0.4464 -0.4030 -0.3981
 1441SOL    HW1 7728   2.397   9.928   4.843 -0.4001 -1.2784  0.1099
 1441SOL    HW2 7729   2.385   9.822   4.734 -0.6255 -0.1168 -1.0084
 1442SOL     OW 7730   0.097   5.140   0.448  0.3627  0.2280 -0.2707
 1442SOL    HW1 7731   0.116   5.062   0.499 -0.0787 -0.2732 -0.8681
 1442SOL    HW2 7732   0.002   5.151   0.454  0.1883 -0.3684 -1.7416
 1443SOL     OW 7733  10.708   9.669   6.946 -0.0388 -0.2243 -0.4114
 1443SOL    HW1 7734  10.657   9.718   6.881  0.9276  2.0698  0.4966
 1443SOL    HW2 7735  10.642   9.628   7.002 -0.8865 -0.0256 -1.2527
 1444SOL     OW 7736   1.973   8.625   5.877  0.0338  0.8540 -0.5374
 1444SOL    HW1 7737   2.019   8.611   5.960  2.1503 -2.6944 -2.2219
 1444SOL    HW2 7738   1.888   8.583   5.890  0.1937  0.6804 -0.0361
 1445SOL     OW 7739   8.048   9.966   0.751 -0.0899  0.3898  0.1323
 1445SOL    HW1 7740   7.960   9.932   0.770 -0.6800  1.5281 -0.5512
 1445SOL    HW2 7741   8.082   9.992   0.837 -0.2639 -0.3873  0.4468
 1446SOL     OW 7742   7.119   7.976   0.595 -0.3007 -0.7433 -0.0653
 1446SOL    HW1 7743   7.030   8.004   0.619  0.4154  0.1660  1.6047
 1446SOL    HW2 7744   7.165   8.058   0.577  0.5721 -1.1350  0.3985
 1447SOL     OW 7745   4.110   6.638   3.179 -0.4488 -0.0781  0.4030
 1447SOL    HW1 7746   4.171   6.696   3.134 -0.2777 -0.9230 -0.4682
 1447SOL    HW2 7747   4.049   6.696   3.224 -1.3287  0.7897 -1.8525
 1448SOL     OW 7748   7.877   3.434   4.323 -0.6174  0.5995  0.3171
 1448SOL    HW1 7749   7.857   3.434   4.229  1.7861  2.4978 -0.2514
 1448SOL    HW2 7750   7.949   3.371   4.332  0.9847  2.3940  0.4064
 1449SOL     OW 7751   3.571   6.592   4.914 -0.3944  0.4509 -0.1965
 1449SOL    HW1 7752   3.636   6.538   4.960 -0.9031 -0.3076 -0.3763
 1449SOL    HW2 7753   3.559   6.668   4.972  1.7732  1.3564 -0.8698
 1450SOL     OW 7754   8.982   6.386   2.072 -0.0950 -0.0455  0.4228
 1450SOL    HW1 7755   8.990   6.442   2.150 -0.1598  1.6388 -0.7570
 1450SOL    HW2 7756   9.067   6.391   2.030 -0.5992  0.4561 -0.5447
 1451SOL     OW 7757   4.199   0.499   5.945  0.3606 -0.7276  0.4909
 1451SOL    HW1 7758   4.119   0.547   5.963  0.3565 -1.1082  1.4726
 1451SOL    HW2 7759   4.268   0.566   5.944  0.3111 -0.6597  1.5484
 1452SOL     OW 7760   0.536   2.995   6.788 -0.3283  0.3751 -0.2999
 1452SOL    HW1 7761   0.594   2.955   6.724 -0.6571 -0.4021 -0.1174
 1452SOL    HW2 7762   0.595   3.038   6.851 -0.0069  1.0048 -1.0260
 1453SOL     OW 7763   3.666   2.155   3.161 -0.1836 -0.3569 -1.0876
 1453SOL    HW1 7764   3.571   2.153   3.171 -0.1803 -0.1521 -1.0184
 1453SOL    HW2 7765   3.698   2.085   3.217 -0.2392  0.0656 -0.5260
 1454SOL     OW 7766   7.267   8.940   6.418  0.2827  0.6408 -0.3853
 1454SOL    HW1 7767   7.284   8.938   6.513  0.3985 -1.5696 -0.4183
 1454SOL    HW2 7768   7.343   8.986   6.381  1.1445 -0.0925  0.4382
 1455SOL     OW 7769  10.173   9.163   7.720 -0.4142 -0.4648  0.1654
 1455SOL    HW1 7770  10.169   9.104   7.645 -0.1525 -0.0267 -0.1973
 1455SOL    HW2 7771  10.202   9.246   7.684  0.7850 -0.5338  0.9267
 1456SOL     OW 7772   4.310   7.168   1.930  0.0293  0.0584 -0.2741
 1456SOL    HW1 7773   4.238   7.138   1.874 -2.0556 -1.0059  2.8296
 1456SOL    HW2 7774   4.382   7.186   1.869 -2.2666 -0.5730 -3.3051
 1457SOL     OW 7775   0.071   7.734   5.400  0.7250 -0.1401 -0.2566
 1457SOL    HW1 7776   0.063   7.639   5.410 -1.9669  0.1729  0.8429
 1457SOL    HW2 7777   0.124   7.761   5.474  1.1853 -0.7234 -0.3626
 1458SOL     OW 7778   5.784   3.393   6.190 -0.2870 -0.5239  0.9065
 1458SOL    HW1 7779   5.770   3.315   6.244  1.9862 -1.1447  0.6866
 1458SOL    HW2 7780   5.836   3.452   6.245 -0.3170  0.0010  0.3798
 1459SOL     OW 7781   8.948   0.076   5.366 -0.2103 -0.3902 -0.2660
 1459SOL    HW1 7782   9.024   0.078   5.308  0.6942  0.0184  0.9203
 1459SOL    HW2 7783   8.942  -0.016   5.393 -1.8173 -0.9905 -2.5177
 1460SOL     OW 7784   4.883   1.574   7.687 -0.2111  0.2628  0.2421
 1460SOL    HW1 7785   4.822   1.530   7.627 -0.8858  1.0969  0.2974
 1460SOL    HW2 7786   4.951   1.510   7.704  0.0445  0.0277 -1.5147
 1461SOL     OW 7787   8.209   3.096   0.749 -0.7259 -0.1908 -0.4471
 1461SOL    HW1 7788   8.300   3.096   0.720 -0.6308 -0.7710 -0.1441
 1461SOL    HW2 7789   8.161   3.050   0.680 -0.6130 -0.9021 -0.0612
 1462SOL     OW 7790   7.254   9.496   8.947 -0.3257  0.9813  0.0828
 1462SOL    HW1 7791   7.237   9.406   8.921  0.2989  0.4359  1.5111
 1462SOL    HW2 7792   7.183   9.546   8.909 -2.2928 -0.5186  1.6622
 1463SOL     OW 7793   8.627  10.419   8.516 -0.1738 -0.3098 -0.3988
 1463SOL    HW1 7794   8.560  10.487   8.508 -1.7706 -1.3907  2.8284
 1463SOL    HW2 7795   8.578  10.340   8.538  1.9923 -1.6460 -0.2197
 1464SOL     OW 7796   3.159   7.125   1.315  0.5456 -0.0344 -0.5024
 1464SOL    HW1 7797   3.101   7.093   1.246 -0.6029 -1.6459  1.2041
 1464SOL    HW2 7798   3.197   7.205   1.278 -0.1894 -0.7605 -2.9307
 1465SOL     OW 7799   3.280   8.791   4.367  0.2896 -0.5479 -0.1669
 1465SOL    HW1 7800   3.297   8.866   4.310  0.2299 -0.1922  0.2804
 1465SOL    HW2 7801   3.315   8.816   4.452 -1.2617 -0.3187  0.4348
 1466SOL     OW 7802   1.284   8.060   9.087 -0.9749  0.7032  0.2838
 1466SOL    HW1 7803   1.217   8.079   9.153 -0.9018  1.8717  0.0347
 1466SOL    HW2 7804   1.364   8.047   9.137 -0.7584  2.3509  0.3915
 1467SOL     OW 7805   4.035   4.987   2.252  0.5006 -0.3859 -0.5778
 1467SOL    HW1 7806   3.974   5.061   2.252  0.7960 -0.1425 -0.0329
 1467SOL    HW2 7807   4.108   5.017   2.198  1.5085  0.4651  1.1919
 1468SOL     OW 7808   6.495   5.189   2.047 -0.2317 -0.3769  0.6924
 1468SOL    HW1 7809   6.555   5.115   2.054  0.7903  0.4884  1.2117
 1468SOL    HW2 7810   6.437   5.180   2.123 -0.9772 -1.3929  0.0162
 1469SOL     OW 7811   0.795   9.314   2.527 -0.2932  0.3230  0.0480
 1469SOL    HW1 7812   0.824   9.386   2.471  0.1847  1.4092  1.6614
 1469SOL    HW2 7813   0.728   9.269   2.476 -1.2624  2.4634 -0.6092
 1470SOL     OW 7814   1.503   5.972   0.566  0.0048 -0.1372 -0.9829
 1470SOL    HW1 7815   1.577   5.925   0.527 -0.7466 -2.9865  0.8706
 1470SOL    HW2 7816   1.538   6.009   0.647 -0.6219 -1.7278  0.0400
 1471SOL     OW 7817   5.997   7.672   2.041  0.1474 -0.6322  0.4016
 1471SOL    HW1 7818   6.026   7.652   1.952 -1.8922 -0.2300 -0.3715
 1471SOL    HW2 7819   5.992   7.587   2.084  0.7827 -0.8638  0.0281
 1472SOL     OW 7820   9.403   0.864   7.606  0.3637 -0.4175 -0.3641
 1472SOL    HW1 7821   9.411   0.829   7.517 -1.9808 -2.6758  0.2368
 1472SOL    HW2 7822   9.452   0.802   7.661  1.9374  1.0516 -0.0592
 1473SOL     OW 7823   3.947   2.517   7.600 -0.2746  0.1315  0.5899
 1473SOL    HW1 7824   3.906   2.432   7.617 -0.8634  0.6780  2.0589
 1473SOL    HW2 7825   3.934   2.566   7.682  1.2263  1.1601  0.2395
 1474SOL     OW 7826   3.897   8.820   3.473 -0.4105 -0.1684  0.1357
 1474SOL    HW1 7827   3.990   8.799   3.485  0.4258  1.2062 -3.2359
 1474SOL    HW2 7828   3.878   8.793   3.383 -3.2017 -0.1300  0.6853
 1475SOL     OW 7829   0.491   0.285  10.173 -0.2051  0.0250 -0.0206
 1475SOL    HW1 7830   0.529   0.284  10.085 -1.2779  0.0082 -0.5009
 1475SOL    HW2 7831   0.398   0.302  10.158 -0.5898 -1.0812  1.0346
 1476SOL     OW 7832   1.973   2.437   2.647  0.3394  0.0125 -0.3752
 1476SOL    HW1 7833   1.929   2.520   2.663 -3.0080 -1.2375 -2.6355
 1476SOL    HW2 7834   2.019   2.449   2.564  1.0991  0.0482  0.0398
 1477SOL     OW 7835   3.124   3.046   0.857 -0.3231  0.3556 -0.2637
 1477SOL    HW1 7836   3.144   3.078   0.769  0.2117 -2.3630 -1.1804
 1477SOL    HW2 7837   3.029   3.032   0.856 -0.2695  0.0053 -0.5159
 1478SOL     OW 7838   1.240   3.700   4.731  0.0651  0.4064 -0.0519
 1478SOL    HW1 7839   1.273   3.768   4.790 -2.1189  1.2966  0.2134
 1478SOL    HW2 7840   1.318   3.660   4.693  1.4018  2.3594  0.5989
 1479SOL     OW 7841   3.280   3.547   8.119  0.7178 -0.1626 -0.1600
 1479SOL    HW1 7842   3.302   3.471   8.172 -0.0138  0.9893  1.8520
 1479SOL    HW2 7843   3.270   3.512   8.030 -1.3356 -2.7256  1.0060
 1480SOL     OW 7844   8.481   3.558   0.351  0.1096  0.4835  0.6526
 1480SOL    HW1 7845   8.472   3.463   0.338 -0.0627 -0.0084  3.9955
 1480SOL    HW2 7846   8.554   3.583   0.294 -0.3307 -1.4963 -0.8449
 1481SOL     OW 7847   0.465   0.571   5.332  0.0703  0.8771 -0.7714
 1481SOL    HW1 7848   0.517   0.651   5.326  0.0823  0.9916  0.7188
 1481SOL    HW2 7849   0.526   0.505   5.366  0.0078  0.2655 -1.8053
 1482SOL     OW 7850   0.957   2.422   3.002 -0.0664  0.0772 -0.4871
 1482SOL    HW1 7851   0.996   2.450   3.084 -0.3637 -0.3538 -0.1981
 1482SOL    HW2 7852   0.920   2.502   2.964  0.4885  0.3594 -0.4306
 1483SOL     OW 7853   6.601   3.152   2.279  0.2752  0.7053 -0.4359
 1483SOL    HW1 7854   6.592   3.146   2.374  2.2157  2.0542 -0.1211
 1483SOL    HW2 7855   6.584   3.245   2.260 -1.5296  0.1563 -1.6002
 1484SOL     OW 7856   5.419   8.478   5.735  0.3102  0.5147 -0.0827
 1484SOL    HW1 7857   5.431   8.440   5.823  1.6045  0.3103 -0.3364
 1484SOL    HW2 7858   5.353   8.423   5.694  0.1711  0.2126  0.5390
 1485SOL     OW 7859   3.588   7.381   5.879  0.6313 -0.1688 -0.1182
 1485SOL    HW1 7860   3.673   7.343   5.856  0.4392 -0.3917 -0.4632
 1485SOL    HW2 7861   3.609   7.449   5.943  1.0962 -0.0186 -0.4261
 1486SOL     OW 7862   3.401   6.611   6.128  0.2062  0.0462 -0.5413
 1486SOL    HW1 7863   3.390   6.544   6.194  0.8053  0.3851 -0.0941
 1486SOL    HW2 7864   3.496   6.624   6.121  0.1033  0.7978 -0.6615
 1487SOL     OW 7865   9.232   5.543   5.929  0.0073  0.2664  0.0918
 1487SOL    HW1 7866   9.306   5.603   5.942 -0.6124  1.0698 -0.0224
 1487SOL    HW2 7867   9.155   5.594   5.957 -0.3879 -0.9205  1.2057
 1488SOL     OW 7868   7.517   7.298   4.356  0.1426  0.8397 -0.1689
 1488SOL    HW1 7869   7.475   7.330   4.277  0.5642  0.2807 -0.6273
 1488SOL    HW2 7870   7.558   7.375   4.395 -0.2292  1.1476 -0.3908
 1489SOL     OW 7871   3.249   0.916   8.252 -0.3050  0.4195 -0.2256
 1489SOL    HW1 7872   3.241   0.991   8.311 -0.4688 -0.1597  0.4944
 1489SOL    HW2 7873   3.286   0.953   8.171  1.8990  0.8943  0.9376
 1490SOL     OW 7874   8.629   4.643  10.795  0.0846 -0.2124 -0.0006
 1490SOL    HW1 7875   8.574   4.609  10.724 -1.3575  0.6166  0.6930
 1490SOL    HW2 7876   8.596   4.732  10.810  3.0472  1.1278 -1.0376
 1491SOL     OW 7877   3.670   7.803   4.052 -0.2344 -0.5911 -0.1610
 1491SOL    HW1 7878   3.714   7.802   4.137  1.7405 -1.6915 -1.1617
 1491SOL    HW2 7879   3.577   7.807   4.073  0.2420 -0.4751  2.0363
 1492SOL     OW 7880   0.874   3.271   8.945 -0.6021 -0.2102 -0.2408
 1492SOL    HW1 7881   0.845   3.358   8.916  2.2463  0.3037 -1.7408
 1492SOL    HW2 7882   0.825   3.255   9.025 -1.3376  2.7264 -0.0432
 1493SOL     OW 7883   7.134   4.922   9.966 -0.1087 -0.2865 -0.3481
 1493SOL    HW1 7884   7.187   4.994  10.001 -2.0602  1.2784 -0.4461
 1493SOL    HW2 7885   7.179   4.895   9.886 -0.5820  2.5495 -1.6705
 1494SOL     OW 7886   8.098   3.976   1.939 -0.1254 -0.6935  0.0992
 1494SOL    HW1 7887   8.076   3.950   2.029 -3.3174 -2.0318 -0.9986
 1494SOL    HW2 7888   8.063   4.065   1.931 -1.3347 -1.1900 -0.2917
 1495SOL     OW 7889   8.345   0.244   8.559 -0.4434 -0.4489 -0.0634
 1495SOL    HW1 7890   8.341   0.273   8.468 -0.0231  0.5313  0.2254
 1495SOL    HW2 7891   8.257   0.259   8.593 -0.8928 -1.7831 -0.5858
 1496SOL     OW 7892   6.223   9.076   8.003 -0.8394 -0.6555  0.2692
 1496SOL    HW1 7893   6.248   8.992   7.964 -1.6825 -1.2009  0.9065
 1496SOL    HW2 7894   6.287   9.138   7.967 -1.4998 -1.1733 -1.8729
 1497SOL     OW 7895   8.985   6.061   4.590 -0.5278  0.2934  0.0596
 1497SOL    HW1 7896   9.009   6.022   4.674 -0.9057 -1.6043 -0.6840
 1497SOL    HW2 7897   9.062   6.049   4.535 -1.2629 -1.0039 -0.7078
 1498SOL     OW 7898  10.323  10.134   9.143 -0.1219  0.2269  0.0036
 1498SOL    HW1 7899  10.273  10.074   9.087  0.8794  0.9345 -1.6851
 1498SOL    HW2 7900  10.400  10.083   9.168 -0.7360 -0.2076  1.0442
 1499SOL     OW 7901   6.387   1.119   5.881  0.4703  0.4241 -0.1169
 1499SOL    HW1 7902   6.403   1.067   5.960  1.1571 -0.1566 -0.6163
 1499SOL    HW2 7903   6.327   1.066   5.829 -0.2198  0.9440  0.1511
 1500SOL     OW 7904   8.121   2.134   1.747 -0.3986 -0.1124 -0.2928
 1500SOL    HW1 7905   8.151   2.058   1.698 -2.2056 -1.6910  0.9523
 1500SOL    HW2 7906   8.033   2.151   1.713 -1.3234 -0.6890  1.7437
 1501SOL     OW 7907   8.558   6.890   2.647  0.1806 -0.4006  0.8908
 1501SOL    HW1 7908   8.498   6.937   2.589 -0.5288 -0.5107  1.5250
 1501SOL    HW2 7909   8.503   6.827   2.692  0.4439  0.6732  2.7701
 1502SOL     OW 7910   0.807   1.701   1.269 -0.6150 -0.2015  0.1941
 1502SOL    HW1 7911   0.826   1.621   1.219  0.6434 -1.5292  2.7051
 1502SOL    HW2 7912   0.712   1.710   1.266 -0.8307 -2.2161  0.4951
 1503SOL     OW 7913   3.132   5.533   4.615  0.6331 -0.9017 -0.4329
 1503SOL    HW1 7914   3.203   5.490   4.663  0.4369 -0.1829  0.5175
 1503SOL    HW2 7915   3.174   5.609   4.575  0.2577 -0.0990  0.6921
 1504SOL     OW 7916   3.162   8.295   8.868  0.1700  0.1011 -0.6321
 1504SOL    HW1 7917   3.157   8.274   8.961 -0.7260  1.3594 -0.3803
 1504SOL    HW2 7918   3.188   8.387   8.865 -1.2502  0.5012 -1.5715
 1505SOL     OW 7919   0.799  10.969   9.186 -0.0832  0.5469 -0.1322
 1505SOL    HW1 7920   0.735  10.982   9.257  0.0869  0.8385 -0.0306
 1505SOL    HW2 7921   0.747  10.972   9.106 -0.0859  1.6247 -0.0974
 1506SOL     OW 7922   0.140   7.045   9.335 -0.9977 -0.4867 -0.1492
 1506SOL    HW1 7923   0.208   7.094   9.380 -1.5848 -1.1860  1.5330
 1506SOL    HW2 7924   0.182   6.964   9.307 -0.0676  0.8438 -2.7952
 1507SOL     OW 7925   6.148  10.935   2.119  0.1514  0.2911 -0.0309
 1507SOL    HW1 7926   6.120  11.024   2.100  0.4684  0.5582  0.7644
 1507SOL    HW2 7927   6.070  10.893   2.155  0.7284  1.0221  2.1398
 1508SOL     OW 7928   9.903  10.384  10.479 -0.3588  0.7438  0.4938
 1508SOL    HW1 7929   9.877  10.421  10.563 -0.7673  0.6838  0.3965
 1508SOL    HW2 7930   9.957  10.451  10.438 -1.7438  1.5680 -0.0281
 1509SOL     OW 7931   6.046  10.937   3.575  0.5375 -0.3390  0.5754
 1509SOL    HW1 7932   6.037  11.032   3.575 -0.5079 -0.4220  2.5626
 1509SOL    HW2 7933   5.963  10.905   3.541  0.9779 -0.5463 -0.3214
 1510SOL     OW 7934   9.351   4.391   5.155 -0.4741 -0.3565  0.1014
 1510SOL    HW1 7935   9.284   4.416   5.218  1.1035  1.8736  0.9489
 1510SOL    HW2 7936   9.427   4.369   5.209  0.0908 -0.9591 -0.9265
 1511SOL     OW 7937   3.626   8.511   0.796  0.4007 -0.2075 -0.2169
 1511SOL    HW1 7938   3.617   8.418   0.813 -0.9829 -0.0807 -0.1986
 1511SOL    HW2 7939   3.663   8.547   0.877 -0.3102 -0.5386  0.2537
 1512SOL     OW 7940   8.630   8.413  10.548 -0.6440 -0.6412  0.7110
 1512SOL    HW1 7941   8.583   8.482  10.501 -1.7842 -1.6091  0.4027
 1512SOL    HW2 7942   8.722   8.430  10.529 -0.9497  0.4375  0.1382
 1513SOL     OW 7943   8.319   0.016   9.062 -0.1770 -0.1808  0.0289
 1513SOL    HW1 7944   8.361  -0.050   9.117  0.2688 -0.4706 -0.6495
 1513SOL    HW2 7945   8.334  -0.015   8.972  0.0162  0.8379 -0.2985
 1514SOL     OW 7946   9.270   5.179   9.541 -0.1844 -0.2733  0.4699
 1514SOL    HW1 7947   9.185   5.144   9.566 -0.9591  1.3781  0.2289
 1514SOL    HW2 7948   9.268   5.181   9.445  0.6384 -1.4427  0.4200
 1515SOL     OW 7949   3.432   2.325  10.932  0.3281  0.1422  0.0475
 1515SOL    HW1 7950   3.507   2.328  10.991  0.2612 -0.3178  0.1543
 1515SOL    HW2 7951   3.433   2.237  10.895 -1.7706 -0.8226  2.1604
 1516SOL     OW 7952   5.822   1.075   1.180 -0.0405 -0.1996  0.4329
 1516SOL    HW1 7953   5.754   1.066   1.113  0.2440 -0.0505  0.1242
 1516SOL    HW2 7954   5.796   1.153   1.230 -0.3417 -0.4063  0.6018
 1517SOL     OW 7955   2.384   9.822   2.326 -0.2920 -0.1937 -0.7067
 1517SOL    HW1 7956   2.302   9.789   2.363 -1.2171  1.6633 -1.0480
 1517SOL    HW2 7957   2.358   9.898   2.274  1.5708  0.0066 -1.3743
 1518SOL     OW 7958   2.572   7.334   7.215  0.6252 -0.7727  0.2024
 1518SOL    HW1 7959   2.520   7.305   7.291 -0.6692 -0.5707 -0.5882
 1518SOL    HW2 7960   2.524   7.300   7.140  0.7543  0.8145 -0.6099
 1519SOL     OW 7961   2.866   8.440   1.240  0.1781  0.4032 -0.3272
 1519SOL    HW1 7962   2.878   8.416   1.148 -2.5308 -0.3863 -0.5167
 1519SOL    HW2 7963   2.850   8.356   1.285  0.7947  0.8516  0.7443
 1520SOL     OW 7964   6.106   4.374  10.904  0.4038 -0.3292 -0.4092
 1520SOL    HW1 7965   6.133   4.414  10.986  0.0311 -0.8055 -0.0537
 1520SOL    HW2 7966   6.093   4.281  10.925  0.7794 -0.5498 -1.1096
 1521SOL     OW 7967   9.283   1.634   0.205 -0.0548 -0.2036 -0.1297
 1521SOL    HW1 7968   9.268   1.706   0.143  0.4497 -0.5484 -0.6564
 1521SOL    HW2 7969   9.352   1.581   0.164 -0.0810 -0.7166  0.4870
 1522SOL     OW 7970  10.062   7.872   3.106 -1.1421  0.0378  0.2692
 1522SOL    HW1 7971  10.043   7.947   3.162 -1.8559  2.3054 -2.8580
 1522SOL    HW2 7972   9.976   7.835   3.085 -0.7992 -1.6709  1.7587
 1523SOL     OW 7973   0.814   8.725   9.059  0.1417 -0.1759  0.0670
 1523SOL    HW1 7974   0.777   8.638   9.071 -0.3046 -0.1534 -1.1415
 1523SOL    HW2 7975   0.744   8.785   9.082  0.2788 -0.1317  0.3749
 1524SOL     OW 7976   5.202  10.071   2.534 -0.1678 -0.5600 -0.2132
 1524SOL    HW1 7977   5.131  10.008   2.521 -0.9206  0.1075  0.5532
 1524SOL    HW2 7978   5.219  10.068   2.629 -1.0297  1.2361  0.0212
 1525SOL     OW 7979   2.741   5.423   8.441 -1.1586  0.3715  0.1189
 1525SOL    HW1 7980   2.834   5.441   8.458 -1.1986  1.4997 -0.7782
 1525SOL    HW2 7981   2.740   5.335   8.404 -0.1676  1.2115 -2.0315
 1526SOL     OW 7982   3.739   0.028   3.884  0.0802 -0.3455 -0.1778
 1526SOL    HW1 7983   3.749   0.091   3.955  1.7937  0.8976 -1.4725
 1526SOL    HW2 7984   3.656   0.051   3.842 -0.4187 -0.4191  0.7507
 1527SOL     OW 7985   6.328   3.967   9.302  0.4163 -0.0969 -0.2673
 1527SOL    HW1 7986   6.336   3.872   9.309 -2.0167 -0.2976  0.2195
 1527SOL    HW2 7987   6.249   3.981   9.249 -1.9487  1.6026  3.4657
 1528SOL     OW 7988  10.553   3.885   1.031 -0.3319 -0.3404  0.0860
 1528SOL    HW1 7989  10.602   3.838   1.099 -1.3157 -2.1806 -0.4647
 1528SOL    HW2 7990  10.619   3.943   0.991  0.8921 -1.2200  0.7863
 1529SOL     OW 7991   8.888   4.007   3.588  0.1993 -0.1290  0.4200
 1529SOL    HW1 7992   8.832   4.082   3.609 -0.6996 -0.6461 -0.1422
 1529SOL    HW2 7993   8.887   4.002   3.492  2.5549  0.8891  0.2893
 1530SOL     OW 7994   9.498   1.172   5.841 -0.0661 -0.1160 -0.2982
 1530SOL    HW1 7995   9.502   1.220   5.758  1.9555 -0.9703 -0.7335
 1530SOL    HW2 7996   9.513   1.238   5.908 -3.3694  0.8751 -0.4643
 1531SOL     OW 7997   2.009   4.242   4.318 -0.2869  0.6039  0.3733
 1531SOL    HW1 7998   2.069   4.288   4.377  1.3573 -0.3541 -0.5122
 1531SOL    HW2 7999   2.016   4.289   4.235  1.2559 -1.0779 -0.4809
 1532SOL     OW 8000   3.477   7.119   4.939  0.7247  0.1025 -0.4815
 1532SOL    HW1 8001   3.534   7.085   5.008 -0.3532  1.0201  0.8845
 1532SOL    HW2 8002   3.537   7.145   4.869  1.8611 -0.4595  0.2683
 1533SOL     OW 8003   1.845   6.165   6.505  0.4320  0.0488  0.2180
 1533SOL    HW1 8004   1.752   6.147   6.489  0.7306 -0.7629 -0.6906
 1533SOL    HW2 8005   1.856   6.152   6.599 -0.3132 -0.1265  0.2872
 1534SOL     OW 8006   5.446   9.456  10.939 -0.3292  0.0718 -0.2663
 1534SOL    HW1 8007   5.520   9.405  10.971 -0.7847 -0.2165  0.3607
 1534SOL    HW2 8008   5.375   9.392  10.929 -0.1874  0.1592 -1.9140
 1535SOL     OW 8009   9.632   6.205   5.119 -0.0687 -0.1027  0.2954
 1535SOL    HW1 8010   9.648   6.245   5.204 -0.9022  1.2942 -0.2002
 1535SOL    HW2 8011   9.619   6.278   5.059 -0.6644 -1.0874 -0.8112
 1536SOL     OW 8012   9.220  10.310   6.732  0.2679  0.1863  0.2768
 1536SOL    HW1 8013   9.219  10.237   6.794 -2.8189  0.1482  0.2739
 1536SOL    HW2 8014   9.211  10.388   6.787 -0.7425  0.2602  0.0198
 1537SOL     OW 8015   8.024   7.060   3.996 -0.0102  0.2249 -0.6322
 1537SOL    HW1 8016   7.989   7.018   3.917 -0.1553 -0.2437 -0.3196
 1537SOL    HW2 8017   7.949   7.106   4.034 -0.5539 -1.6345  0.6011
 1538SOL     OW 8018   3.710   5.956   7.243  0.2541  0.0745 -1.0308
 1538SOL    HW1 8019   3.657   6.020   7.196 -0.4801  0.8523  0.7814
 1538SOL    HW2 8020   3.707   5.877   7.189 -2.1360  0.3542 -1.3501
 1539SOL     OW 8021   0.389   4.293  10.680  0.0086 -0.1575  0.0588
 1539SOL    HW1 8022   0.431   4.310  10.596 -2.0931  1.6038 -0.6927
 1539SOL    HW2 8023   0.328   4.221  10.663 -1.6276  1.2945 -0.3836
 1540SOL     OW 8024   9.465   3.997   8.319 -0.2528  0.5827  0.2394
 1540SOL    HW1 8025   9.512   3.926   8.364 -1.1633 -0.1027  0.1093
 1540SOL    HW2 8026   9.525   4.025   8.250  0.5889  0.7234  1.0151
 1541SOL     OW 8027  10.102   5.727   5.205  0.0219  0.3677 -0.2727
 1541SOL    HW1 8028  10.127   5.696   5.292 -3.0340 -0.5494  0.3178
 1541SOL    HW2 8029  10.075   5.818   5.219 -1.8546 -0.2284 -0.0024
 1542SOL     OW 8030   5.178   6.699   4.593 -0.5374  0.1083  0.7515
 1542SOL    HW1 8031   5.189   6.607   4.568 -1.4116  0.4147 -0.7574
 1542SOL    HW2 8032   5.100   6.728   4.547  1.7160  2.6437 -1.6589
 1543SOL     OW 8033   4.113   6.362   6.847  0.3527 -0.0616 -0.3032
 1543SOL    HW1 8034   4.149   6.296   6.906  0.0763 -0.8134 -0.9770
 1543SOL    HW2 8035   4.062   6.419   6.904 -0.5226 -1.2185  0.0840
 1544SOL     OW 8036   4.085   2.167   6.494 -0.1336 -0.6064 -0.1963
 1544SOL    HW1 8037   4.096   2.129   6.581 -3.5743  1.9302  1.4931
 1544SOL    HW2 8038   4.154   2.233   6.488  0.3015 -0.9857  0.5237
 1545SOL     OW 8039   6.542   9.925   8.080  0.0093  0.2559 -0.4955
 1545SOL    HW1 8040   6.525  10.012   8.116  1.7354  0.5250 -0.3092
 1545SOL    HW2 8041   6.628   9.932   8.040  1.3870 -2.1176  1.8983
 1546SOL     OW 8042   6.007   8.469   2.055 -0.0935  0.0314  0.3271
 1546SOL    HW1 8043   5.978   8.410   2.125 -1.0539  0.5653  0.3875
 1546SOL    HW2 8044   6.058   8.413   1.997 -0.7475 -0.8068  0.5372
 1547SOL     OW 8045   5.844   8.517   9.776  0.5319  0.1051 -0.1587
 1547SOL    HW1 8046   5.796   8.449   9.824 -0.2560  0.6691 -0.1421
 1547SOL    HW2 8047   5.812   8.510   9.686 -0.7425  1.5064  0.1693
 1548SOL     OW 8048   2.556   1.525   1.572 -0.0205  0.4224 -0.0589
 1548SOL    HW1 8049   2.649   1.534   1.551 -0.2058  0.9718 -0.6716
 1548SOL    HW2 8050   2.522   1.615   1.572 -0.4065  0.2771  0.8416
 1549SOL     OW 8051   1.479  10.060   2.089  0.1009  0.4855 -0.6171
 1549SOL    HW1 8052   1.522  10.021   2.165  0.2819  0.4306 -0.7462
 1549SOL    HW2 8053   1.542  10.047   2.018  0.1868  1.0764 -0.6455
 1550SOL     OW 8054   8.211   4.876  10.639  0.9143 -0.0007 -0.0008
 1550SOL    HW1 8055   8.150   4.917  10.577  1.2658 -0.2446 -0.5106
 1550SOL    HW2 8056   8.181   4.785  10.644  1.1011 -0.0665 -0.0841
 1551SOL     OW 8057   2.257   8.377   8.843 -0.3605  0.4846 -0.0528
 1551SOL    HW1 8058   2.295   8.290   8.858  1.0059  1.4464  2.2302
 1551SOL    HW2 8059   2.309   8.415   8.773 -1.5511 -0.8510 -1.7201
 1552SOL     OW 8060   1.902   1.000   4.514 -0.1735  0.0758 -0.3329
 1552SOL    HW1 8061   1.884   0.906   4.505  3.1818 -0.4578 -2.0095
 1552SOL    HW2 8062   1.815   1.040   4.520 -1.6971 -3.0280 -0.6859
 1553SOL     OW 8063   7.995   3.013   1.453 -0.2278  0.6814  0.3826
 1553SOL    HW1 8064   7.946   3.094   1.471 -0.2842  0.1685  2.7386
 1553SOL    HW2 8065   8.057   3.007   1.526  0.2354 -1.0595 -0.1468
 1554SOL     OW 8066   9.046  10.072   6.702  0.0020  0.3303  0.1412
 1554SOL    HW1 8067   9.073  10.139   6.640  1.1723  0.0421  0.3294
 1554SOL    HW2 8068   9.124  10.055   6.755  0.0666 -1.9603 -0.6293
 1555SOL     OW 8069   2.719   8.318   2.549  0.2556  0.0218 -0.0719
 1555SOL    HW1 8070   2.788   8.309   2.615 -0.5194  1.0693  0.9026
 1555SOL    HW2 8071   2.766   8.334   2.467  1.1303  3.0673  0.9701
 1556SOL     OW 8072  10.093   8.032   4.543  0.0927  0.0075  0.0203
 1556SOL    HW1 8073  10.053   8.036   4.456 -0.6021  1.6745  0.4051
 1556SOL    HW2 8074  10.040   7.968   4.591 -1.0799  0.9364 -0.0088
 1557SOL     OW 8075   1.604   0.982   6.278  0.3011  0.4932  0.0457
 1557SOL    HW1 8076   1.641   0.953   6.361  2.9557 -0.5151 -1.4497
 1557SOL    HW2 8077   1.527   0.926   6.266 -0.0589  0.5778  1.7530
 1558SOL     OW 8078   7.807   9.095   5.540 -0.3038  0.3892 -0.1608
 1558SOL    HW1 8079   7.814   9.171   5.482 -1.0754 -1.0372 -2.1769
 1558SOL    HW2 8080   7.898   9.073   5.561 -0.0811  2.0078  0.6831
 1559SOL     OW 8081   1.744   7.205   0.723  0.2610 -0.1339  0.0796
 1559SOL    HW1 8082   1.662   7.203   0.771  1.2176 -0.4331  1.7666
 1559SOL    HW2 8083   1.728   7.153   0.644 -0.8538 -1.0618  0.8974
 1560SOL     OW 8084   3.799   5.646   7.249 -0.2135 -0.2154 -0.2462
 1560SOL    HW1 8085   3.890   5.650   7.279 -0.3393 -0.6471  0.2087
 1560SOL    HW2 8086   3.801   5.681   7.160  0.4532 -0.5130 -0.3520
 1561SOL     OW 8087   1.902   0.977   7.374 -0.2474 -0.0973 -0.4794
 1561SOL    HW1 8088   1.872   1.068   7.384 -2.3033 -0.7112 -0.9231
 1561SOL    HW2 8089   1.889   0.938   7.460 -0.4304 -0.2860 -0.5938
 1562SOL     OW 8090   5.045   7.739   0.792  0.2497 -0.3237  0.4061
 1562SOL    HW1 8091   4.985   7.665   0.780  2.0788 -1.6180 -1.1395
 1562SOL    HW2 8092   5.057   7.774   0.703  0.2589  1.1564  0.9775
 1563SOL     OW 8093   6.654   6.605   7.931 -0.4286 -0.2805  0.1893
 1563SOL    HW1 8094   6.607   6.635   8.008  0.8717  0.0239  0.8812
 1563SOL    HW2 8095   6.603   6.638   7.857  1.1462  3.9942  0.8998
 1564SOL     OW 8096   0.087  10.779   0.826 -0.3704 -0.2857  0.4703
 1564SOL    HW1 8097   0.179  10.756   0.834  0.0122  0.6298 -1.1798
 1564SOL    HW2 8098   0.047  10.703   0.784 -0.1327 -0.1842  0.0582
 1565SOL     OW 8099  10.213   1.447   8.156 -0.4680  0.2330 -0.2557
 1565SOL    HW1 8100  10.183   1.510   8.221  0.8752 -0.6626  1.2657
 1565SOL    HW2 8101  10.304   1.472   8.139 -0.1355 -0.8867 -0.1320
 1566SOL     OW 8102  10.821   3.713   0.432  0.1453  0.0865  0.1501
 1566SOL    HW1 8103  10.746   3.653   0.439  2.8058 -3.6501 -1.5538
 1566SOL    HW2 8104  10.803   3.766   0.355 -1.8618  0.9387  1.1774
 1567SOL     OW 8105  10.780   3.614   9.248  0.9890 -0.1282  0.0586
 1567SOL    HW1 8106  10.846   3.587   9.312  0.1096 -2.4397  0.0395
 1567SOL    HW2 8107  10.696   3.597   9.290  0.4012 -1.6515 -1.6430
 1568SOL     OW 8108   0.011   2.752   7.874  0.4672 -0.1139 -0.1344
 1568SOL    HW1 8109  -0.068   2.710   7.908  0.0486 -0.0200 -0.9826
 1568SOL    HW2 8110   0.076   2.682   7.870 -0.7370 -1.1755 -3.2786
 1569SOL     OW 8111  10.301   7.083  10.398  0.1484  0.7238 -0.0741
 1569SOL    HW1 8112  10.395   7.065  10.397 -0.1542 -0.9557 -1.4633
 1569SOL    HW2 8113  10.274   7.072  10.307 -1.6557 -0.3471  0.5630
 1570SOL     OW 8114   2.799   1.919   4.857  0.2094 -0.2913  0.2465
 1570SOL    HW1 8115   2.722   1.938   4.803  0.3455 -1.3022 -0.3142
 1570SOL    HW2 8116   2.780   1.960   4.942 -1.7760 -2.0931  0.7276
 1571SOL     OW 8117   5.687   6.011   3.296 -0.4042  0.0941 -0.3904
 1571SOL    HW1 8118   5.629   6.088   3.298 -0.1611  0.2642  0.9591
 1571SOL    HW2 8119   5.628   5.936   3.300 -0.5517  0.2700  1.1170
 1572SOL     OW 8120   0.602   0.816   0.936  0.2740 -0.0827  0.0652
 1572SOL    HW1 8121   0.646   0.764   0.869  0.6253 -0.1057  0.3107
 1572SOL    HW2 8122   0.640   0.785   1.019  2.0952  2.0902  0.0801
 1573SOL     OW 8123   4.174   9.398  10.466  0.1941  0.0094  0.0178
 1573SOL    HW1 8124   4.129   9.333  10.519 -2.0639  0.6784 -1.0196
 1573SOL    HW2 8125   4.204   9.463  10.529 -1.8830  0.4673  0.5717
 1574SOL     OW 8126   6.752   5.926   4.796 -0.5849  0.3869  0.2052
 1574SOL    HW1 8127   6.844   5.948   4.813 -0.0259 -1.2945 -0.5230
 1574SOL    HW2 8128   6.707   5.944   4.879  0.2495  1.9681  0.3334
 1575SOL     OW 8129   5.473   5.054   7.373 -0.2858  0.0283 -0.3223
 1575SOL    HW1 8130   5.436   5.120   7.315  0.2113  0.3266 -0.3034
 1575SOL    HW2 8131   5.434   5.073   7.459 -1.4985 -0.7992 -0.6803
 1576SOL     OW 8132  10.587   4.992   9.370 -0.3688  0.1333 -0.1399
 1576SOL    HW1 8133  10.584   5.082   9.337  1.0455 -0.0988 -0.9140
 1576SOL    HW2 8134  10.678   4.965   9.359 -0.0172 -0.2422  3.1646
 1577SOL     OW 8135   9.241   1.651   9.546 -0.2789 -0.2030 -0.4355
 1577SOL    HW1 8136   9.146   1.643   9.536 -0.2524 -0.8411 -0.2055
 1577SOL    HW2 8137   9.270   1.563   9.568  0.3108  0.0962 -0.0137
 1578SOL     OW 8138   0.600   6.334   4.953  0.2783  0.4314  0.1560
 1578SOL    HW1 8139   0.686   6.294   4.938  0.3874  0.7426 -0.0580
 1578SOL    HW2 8140   0.554   6.272   5.009  0.5230  0.1071 -0.0033
 1579SOL     OW 8141   6.711   7.106   8.203  0.1498  0.0137 -0.1454
 1579SOL    HW1 8142   6.640   7.114   8.139  1.1819  0.9503 -1.1920
 1579SOL    HW2 8143   6.735   7.013   8.202 -1.5007 -0.4453  0.7131
 1580SOL     OW 8144   2.418   2.313   2.276 -0.2376  0.8252 -0.3312
 1580SOL    HW1 8145   2.461   2.372   2.338  1.8408  0.3006 -1.2473
 1580SOL    HW2 8146   2.488   2.284   2.218 -1.1623 -2.8238  0.3012
 1581SOL     OW 8147   7.507   7.090   4.532 -0.3358  0.4496 -0.2894
 1581SOL    HW1 8148   7.517   7.137   4.450 -0.0574  0.9675  0.0378
 1581SOL    HW2 8149   7.447   7.145   4.584 -1.4180 -0.4404 -0.5815
 1582SOL     OW 8150   8.578   9.187  10.325 -0.0643  0.0668 -0.0132
 1582SOL    HW1 8151   8.639   9.245  10.279 -0.3433 -0.8854 -1.6184
 1582SOL    HW2 8152   8.491   9.222  10.303 -0.2344 -0.9628 -1.0187
 1583SOL     OW 8153   1.911   2.171   5.512 -0.1730  0.0212  0.2879
 1583SOL    HW1 8154   1.896   2.238   5.579 -1.0830 -0.4671  0.5815
 1583SOL    HW2 8155   1.833   2.116   5.516 -0.8377  0.7534 -2.1014
 1584SOL     OW 8156  10.232  10.517   8.839  0.1456 -0.3102  0.0297
 1584SOL    HW1 8157  10.277  10.455   8.781  0.1240  0.1343 -0.4709
 1584SOL    HW2 8158  10.301  10.551   8.895 -0.0874 -1.8785  1.3145
 1585SOL     OW 8159   1.756   4.248   7.712  0.3987  0.4408  0.1584
 1585SOL    HW1 8160   1.720   4.258   7.624 -1.8339 -0.2773  0.9463
 1585SOL    HW2 8161   1.768   4.154   7.723  1.0004  0.5552  0.5024
 1586SOL     OW 8162   1.377   6.207   0.511 -0.5109  0.2599  0.3203
 1586SOL    HW1 8163   1.426   6.125   0.518 -0.5608  0.1949 -0.0801
 1586SOL    HW2 8164   1.418   6.253   0.438 -1.2659  0.0461 -0.2445
 1587SOL     OW 8165   7.853   2.042   2.973 -0.0325  0.4615  0.0343
 1587SOL    HW1 8166   7.875   2.000   3.057  2.7058  1.4399 -0.1308
 1587SOL    HW2 8167   7.798   2.116   2.998 -2.1083 -1.1890  0.6127
 1588SOL     OW 8168   6.311   0.337   8.824  0.3033  0.0912 -0.1439
 1588SOL    HW1 8169   6.368   0.331   8.900 -1.4214 -0.7621  1.1163
 1588SOL    HW2 8170   6.262   0.418   8.836  0.7372  0.4667 -0.8676
 1589SOL     OW 8171  10.322   4.848   5.411 -0.3453  0.6105  0.0544
 1589SOL    HW1 8172  10.334   4.753   5.409  0.9584  0.7366  0.8059
 1589SOL    HW2 8173  10.295   4.871   5.322  2.4778 -0.1049 -1.0576
 1590SOL     OW 8174  10.636   7.879   3.760 -0.0976  0.2838  0.1675
 1590SOL    HW1 8175  10.583   7.807   3.794  0.5377 -0.3999 -0.2766
 1590SOL    HW2 8176  10.633   7.945   3.829  1.2656 -1.1291  1.6196
 1591SOL     OW 8177   9.166   4.897   2.897  0.3627 -0.5414  0.0696
 1591SOL    HW1 8178   9.197   4.855   2.977  1.3206  0.9530  0.4898
 1591SOL    HW2 8179   9.245   4.913   2.846 -0.0471  0.2968 -0.3070
 1592SOL     OW 8180   3.646   1.131   4.413  0.5853  0.4120  0.5502
 1592SOL    HW1 8181   3.557   1.103   4.393  0.8261  0.5074 -0.6579
 1592SOL    HW2 8182   3.691   1.050   4.439  0.0765  0.4115  1.4373
 1593SOL     OW 8183  10.310   8.457   3.208  0.4196  0.3973  0.3852
 1593SOL    HW1 8184  10.311   8.432   3.301  0.3772 -0.4726  0.1497
 1593SOL    HW2 8185  10.269   8.383   3.164  0.6970  0.6951 -0.3696
 1594SOL     OW 8186   0.526   6.467   0.754 -0.1865  0.3605 -0.1084
 1594SOL    HW1 8187   0.539   6.562   0.754  1.9059  0.1038 -0.8165
 1594SOL    HW2 8188   0.458   6.453   0.688  1.1598  1.2068 -1.7349
 1595SOL     OW 8189   5.321   6.161   5.293 -0.0025 -0.0393 -0.5373
 1595SOL    HW1 8190   5.307   6.253   5.274 -0.8750 -0.1841 -0.6142
 1595SOL    HW2 8191   5.276   6.114   5.223 -1.1862 -0.5425  0.5392
 1596SOL     OW 8192   4.587   9.659   4.620  0.2585  0.2045  0.0247
 1596SOL    HW1 8193   4.607   9.653   4.714  1.2458 -0.1046 -0.2016
 1596SOL    HW2 8194   4.672   9.667   4.578 -0.2237  1.0158 -0.8021
 1597SOL     OW 8195   0.834   5.238   6.967 -0.2295  0.1724 -0.3598
 1597SOL    HW1 8196   0.749   5.272   6.941 -0.1157  0.8754  0.1861
 1597SOL    HW2 8197   0.814   5.152   7.006 -0.7614  0.6257  0.3834
 1598SOL     OW 8198   8.224  10.364  10.713  0.4472  0.2603  0.1196
 1598SOL    HW1 8199   8.166  10.437  10.735 -0.0450  0.0963 -0.6095
 1598SOL    HW2 8200   8.298  10.404  10.669  0.0808  0.3007 -0.4603
 1599SOL     OW 8201   5.624   6.928   2.538  0.3231  0.2818  0.2262
 1599SOL    HW1 8202   5.673   6.923   2.456 -0.1068 -0.0342 -0.0131
 1599SOL    HW2 8203   5.688   6.908   2.606  0.6712  0.4996 -0.0358
 1600SOL     OW 8204   5.099   1.443   6.587  0.1542 -0.3041 -0.1444
 1600SOL    HW1 8205   5.033   1.471   6.524  0.3971  0.3263 -0.1295
 1600SOL    HW2 8206   5.107   1.517   6.648  0.8932 -0.3510 -0.1724
 1601SOL     OW 8207   8.717   4.335   0.558 -0.4665 -0.1037 -0.0005
 1601SOL    HW1 8208   8.769   4.330   0.638 -2.1817 -0.2434  1.1175
 1601SOL    HW2 8209   8.780   4.315   0.488  0.9886 -0.2371  1.3129
 1602SOL     OW 8210   4.053   3.058   8.490 -0.1353  0.4034  0.2076
 1602SOL    HW1 8211   4.114   3.130   8.473  0.0444  0.2894  0.3739
 1602SOL    HW2 8212   3.984   3.069   8.424 -1.2848  2.0674  1.6317
 1603SOL     OW 8213   5.585  10.281   5.497 -0.1809 -0.2303  0.4369
 1603SOL    HW1 8214   5.590  10.190   5.466  2.0714  0.3626 -1.0010
 1603SOL    HW2 8215   5.539  10.274   5.581 -1.6377 -2.4881 -0.4890
 1604SOL     OW 8216  10.229   3.366   4.399 -0.3177 -0.1309  0.4472
 1604SOL    HW1 8217  10.230   3.329   4.311 -2.2833 -1.7361  1.0647
 1604SOL    HW2 8218  10.190   3.453   4.389 -0.6325 -0.3528 -0.2363
 1605SOL     OW 8219   4.677   3.437   5.580  0.1798  0.2018 -0.4965
 1605SOL    HW1 8220   4.748   3.453   5.518 -0.7736 -0.5450 -1.8149
 1605SOL    HW2 8221   4.653   3.346   5.566 -0.0155  0.0068  1.0265
 1606SOL     OW 8222   0.883   6.953   4.120 -0.1777 -0.0181  0.0936
 1606SOL    HW1 8223   0.895   6.963   4.214 -2.0094  3.2477  0.0391
 1606SOL    HW2 8224   0.792   6.926   4.110  0.3151 -1.4300 -0.7128
 1607SOL     OW 8225   0.260   7.653   8.223  0.0104 -1.1940 -0.0247
 1607SOL    HW1 8226   0.317   7.710   8.275 -1.2394  0.0331  0.0286
 1607SOL    HW2 8227   0.236   7.582   8.283 -0.8799 -0.1387  0.9019
 1608SOL     OW 8228   7.214   3.339   8.124 -0.1084 -0.3955 -0.0692
 1608SOL    HW1 8229   7.293   3.312   8.076 -0.1628 -0.1387 -0.3051
 1608SOL    HW2 8230   7.238   3.330   8.216 -0.4060 -2.0879 -0.1349
 1609SOL     OW 8231  10.012   8.593   8.191 -0.0479  0.0588 -0.0649
 1609SOL    HW1 8232   9.988   8.539   8.266 -1.2003  0.7845  0.1109
 1609SOL    HW2 8233  10.075   8.656   8.226 -0.2204  0.0911  0.1924
 1610SOL     OW 8234   8.308   6.681   5.239 -0.1737 -0.6277 -0.2040
 1610SOL    HW1 8235   8.379   6.618   5.238 -0.0599 -0.5437  1.1123
 1610SOL    HW2 8236   8.257   6.662   5.160 -0.3904 -2.6513  0.3937
 1611SOL     OW 8237   7.201   5.774   2.489 -0.0100 -0.2569  0.7080
 1611SOL    HW1 8238   7.210   5.751   2.397  0.0934 -0.7535  0.8354
 1611SOL    HW2 8239   7.215   5.868   2.493  0.8299 -0.3666  0.3326
 1612SOL     OW 8240   8.074   6.555   0.069 -0.0189  0.3193 -0.0520
 1612SOL    HW1 8241   8.164   6.570   0.097  1.0811 -3.7747 -0.9950
 1612SOL    HW2 8242   8.066   6.603  -0.014  2.3519 -1.7516 -1.5626
 1613SOL     OW 8243   1.657   9.339   3.744  0.0476  0.3434  0.5246
 1613SOL    HW1 8244   1.610   9.374   3.668  0.0212 -0.9245 -0.0595
 1613SOL    HW2 8245   1.587   9.313   3.805 -0.0682 -2.0319 -0.5632
 1614SOL     OW 8246   8.182  10.060   5.455  0.0364  0.3358 -0.3900
 1614SOL    HW1 8247   8.134  10.082   5.375  0.4566  2.2610 -0.1243
 1614SOL    HW2 8248   8.139  10.110   5.524  1.0053  0.3291  0.2275
 1615SOL     OW 8249   5.276   8.431   3.003 -0.1272  0.6434  0.3254
 1615SOL    HW1 8250   5.206   8.446   3.067 -0.6640  1.9067 -0.5222
 1615SOL    HW2 8251   5.229   8.408   2.923  0.4041  1.9750 -0.3751
 1616SOL     OW 8252   6.187   0.674  10.733 -0.0892  0.3420  0.0449
 1616SOL    HW1 8253   6.191   0.663  10.638 -0.2764 -0.1309  0.0857
 1616SOL    HW2 8254   6.235   0.755  10.751 -0.2855  0.5755 -0.4783
 1617SOL     OW 8255   2.934   7.280   1.490  0.0438 -0.8178  0.1172
 1617SOL    HW1 8256   2.935   7.303   1.397 -1.3603  2.1189  0.7637
 1617SOL    HW2 8257   2.847   7.243   1.504 -0.2227 -0.0468  0.5202
 1618SOL     OW 8258   9.273   5.667   9.351 -0.4466 -0.5035 -0.6763
 1618SOL    HW1 8259   9.208   5.737   9.349 -0.1471 -0.1904  0.2440
 1618SOL    HW2 8260   9.338   5.697   9.415  0.3668 -1.0186 -1.2623
 1619SOL     OW 8261   7.872   8.840   2.198 -0.1102 -0.2496 -0.1209
 1619SOL    HW1 8262   7.779   8.825   2.183 -0.5754  1.6639  0.7132
 1619SOL    HW2 8263   7.909   8.850   2.110 -1.3412  2.5220 -0.3970
 1620SOL     OW 8264   1.288   1.375  10.390  0.5735  0.4166  0.6875
 1620SOL    HW1 8265   1.341   1.407  10.317 -2.0729  1.6774 -0.7490
 1620SOL    HW2 8266   1.259   1.454  10.436 -2.4264 -0.0447 -0.3096
 1621SOL     OW 8267   8.814  10.703   6.787  0.3148  0.0296  0.1250
 1621SOL    HW1 8268   8.902  10.671   6.765  0.2009 -0.8180  0.9061
 1621SOL    HW2 8269   8.754  10.644   6.741  0.1246 -0.3648  0.8734
 1622SOL     OW 8270   5.355   8.360   4.193 -0.2066  0.2371  0.2036
 1622SOL    HW1 8271   5.383   8.316   4.113 -1.7786  0.9140 -0.7327
 1622SOL    HW2 8272   5.277   8.410   4.168  0.1023  1.5935  1.8071
 1623SOL     OW 8273  10.238   0.134   8.883 -0.7363  0.4379 -0.0586
 1623SOL    HW1 8274  10.163   0.102   8.934 -0.2663  2.5729  2.0740
 1623SOL    HW2 8275  10.294   0.177   8.947  0.7046  1.7698 -2.1411
 1624SOL     OW 8276   9.145   0.390   8.421  0.0190  0.3956 -0.4146
 1624SOL    HW1 8277   9.061   0.344   8.427  0.3354 -0.2335 -0.6993
 1624SOL    HW2 8278   9.136   0.445   8.343  0.1633 -0.2979 -0.9295
 1625SOL     OW 8279   5.210   6.256   9.966 -0.0656 -0.2329 -0.1653
 1625SOL    HW1 8280   5.255   6.316   9.906  1.9921  0.1578  1.6656
 1625SOL    HW2 8281   5.122   6.247   9.931  1.0178  0.1312 -3.1139
 1626SOL     OW 8282   1.350   2.338   0.064  0.3538  0.4982  0.2643
 1626SOL    HW1 8283   1.402   2.356   0.142  0.2827 -0.5805  0.5698
 1626SOL    HW2 8284   1.260   2.356   0.091  0.3991  0.8327  0.2031
 1627SOL     OW 8285   8.266   4.549  10.732  0.2252 -0.4884  0.0784
 1627SOL    HW1 8286   8.193   4.610  10.719  0.8122 -0.1298 -1.6426
 1627SOL    HW2 8287   8.235   4.489  10.799 -1.7413 -0.4515 -0.7582
 1628SOL     OW 8288   9.327   6.926   6.329  0.1551  0.2762 -0.0899
 1628SOL    HW1 8289   9.405   6.980   6.342 -0.5383  1.7988 -2.1424
 1628SOL    HW2 8290   9.359   6.849   6.281  0.3466  1.0026 -1.1210
 1629SOL     OW 8291   5.330   8.801   0.752  0.0589  0.3450 -0.1354
 1629SOL    HW1 8292   5.397   8.743   0.716 -2.5857 -1.6550 -2.0492
 1629SOL    HW2 8293   5.347   8.886   0.710  0.3746 -0.5958 -1.9488
 1630SOL     OW 8294   5.028   4.132   0.187  0.4197  0.5559 -1.2216
 1630SOL    HW1 8295   5.036   4.219   0.147 -0.4398  1.5110  0.6483
 1630SOL    HW2 8296   5.106   4.124   0.242  0.1429  0.4426 -0.8423
 1631SOL     OW 8297   4.989   3.006   3.633  0.0845  0.9409  0.2436
 1631SOL    HW1 8298   5.028   3.036   3.716  1.9730 -0.0892 -0.2484
 1631SOL    HW2 8299   5.051   2.942   3.599 -1.7597 -0.2801 -0.9022
 1632SOL     OW 8300   4.605   5.326   0.338 -0.6222  0.1641 -0.3185
 1632SOL    HW1 8301   4.530   5.381   0.360 -0.1209  0.7077  0.0782
 1632SOL    HW2 8302   4.592   5.246   0.388 -1.6314 -0.3067 -1.3123
 1633SOL     OW 8303   0.209   7.481   1.544 -0.5277  0.0067 -0.1744
 1633SOL    HW1 8304   0.166   7.476   1.629  0.2676 -1.2966  0.1627
 1633SOL    HW2 8305   0.269   7.407   1.543  0.4607  0.8119 -1.3336
 1634SOL     OW 8306  10.495   2.781   2.362  0.4068 -0.5460 -0.1181
 1634SOL    HW1 8307  10.547   2.793   2.442  0.5961  0.6005 -0.4162
 1634SOL    HW2 8308  10.560   2.764   2.294  0.4017  1.0544 -0.5218
 1635SOL     OW 8309   0.124   9.614  10.979  0.2139 -0.0663 -0.3945
 1635SOL    HW1 8310   0.135   9.668  10.902  1.1775  2.5866  1.5379
 1635SOL    HW2 8311   0.035   9.632  11.009 -0.3107 -1.4133 -1.0694
 1636SOL     OW 8312   5.988   6.983  10.832 -0.2128 -0.4321 -0.3730
 1636SOL    HW1 8313   6.010   6.965  10.740  0.5317 -0.4185 -0.2013
 1636SOL    HW2 8314   6.031   7.066  10.852 -1.0440 -0.0279 -0.2428
 1637SOL     OW 8315   1.861   7.934   2.258 -0.1883  0.8080  0.3289
 1637SOL    HW1 8316   1.865   7.841   2.236 -0.6047  0.2587  2.4626
 1637SOL    HW2 8317   1.948   7.954   2.292 -0.2083  1.1341  0.1977
 1638SOL     OW 8318   9.703   8.772   7.458 -0.7080 -0.8207  0.2136
 1638SOL    HW1 8319   9.763   8.728   7.398 -0.6428 -0.9339  0.3637
 1638SOL    HW2 8320   9.684   8.707   7.525 -0.2239 -0.4661  0.7045
 1639SOL     OW 8321   5.921   1.355   0.074 -0.0281  0.3244 -0.7407
 1639SOL    HW1 8322   5.981   1.312   0.012  1.4154 -0.0933  0.9264
 1639SOL    HW2 8323   5.962   1.440   0.091  0.5974 -0.3302  1.1094
 1640SOL     OW 8324   9.252   9.494   4.140 -0.1434  0.3659  0.2673
 1640SOL    HW1 8325   9.324   9.434   4.154 -0.2184  0.2783  0.2748
 1640SOL    HW2 8326   9.268   9.566   4.202 -0.2260  0.1999  0.4807
 1641SOL     OW 8327   1.669   0.101   0.906  0.3616 -0.1090  0.1751
 1641SOL    HW1 8328   1.582   0.137   0.895  0.8569  0.8814 -0.6205
 1641SOL    HW2 8329   1.676   0.034   0.838  0.2541 -0.1252  0.1805
 1642SOL     OW 8330   9.396   7.993   7.166 -0.2706 -0.4746 -0.3991
 1642SOL    HW1 8331   9.462   8.001   7.096 -1.4768  2.4020 -1.3104
 1642SOL    HW2 8332   9.313   8.012   7.122 -1.2933 -0.6613  1.4163
 1643SOL     OW 8333   5.647   7.344   1.221 -0.1450  0.3604  0.2291
 1643SOL    HW1 8334   5.628   7.410   1.288 -0.6341 -0.6042  1.0422
 1643SOL    HW2 8335   5.725   7.377   1.176  0.6966  0.5858  1.8378
 1644SOL     OW 8336   1.604   8.602   5.992 -0.2525 -0.0036 -0.1684
 1644SOL    HW1 8337   1.649   8.651   6.060 -0.2481  1.7108 -1.3626
 1644SOL    HW2 8338   1.511   8.612   6.012 -0.1914 -1.7183  1.0622
 1645SOL     OW 8339   2.488   6.276   6.395 -0.1888  0.6245  0.4525
 1645SOL    HW1 8340   2.576   6.306   6.376 -0.2018  0.5797  0.3211
 1645SOL    HW2 8341   2.495   6.230   6.479  0.4128 -1.6285 -0.7984
 1646SOL     OW 8342   3.321   0.972   0.107  1.0123  0.5821 -0.1887
 1646SOL    HW1 8343   3.401   0.950   0.154  2.0950  1.2282 -1.6769
 1646SOL    HW2 8344   3.256   0.988   0.175  2.4467  1.1617  1.0547
 1647SOL     OW 8345   0.869   0.950   0.973  0.1059 -0.1028  0.3353
 1647SOL    HW1 8346   0.901   0.879   0.918  3.0858 -0.1195  1.9342
 1647SOL    HW2 8347   0.786   0.919   1.008  0.8977 -2.4054  0.2385
 1648SOL     OW 8348   6.473   5.742   9.972 -0.3265 -0.2581  0.7190
 1648SOL    HW1 8349   6.520   5.808   9.922  0.3389 -0.0598  1.5965
 1648SOL    HW2 8350   6.381   5.767   9.964 -0.1941 -0.0040 -0.0715
 1649SOL     OW 8351   1.312   9.437   3.715  0.3006 -0.0131  0.0417
 1649SOL    HW1 8352   1.284   9.353   3.679 -0.8217 -0.0280  0.8771
 1649SOL    HW2 8353   1.242   9.460   3.777  0.7267  1.4037  0.0186
 1650SOL     OW 8354  10.592   4.642   8.869 -0.0563  0.2331  0.4259
 1650SOL    HW1 8355  10.676   4.640   8.914  0.2638  0.5329 -0.1610
 1650SOL    HW2 8356  10.552   4.557   8.890 -0.4417  0.8556  2.2734
 1651SOL     OW 8357   6.878   7.394   2.085 -0.3626 -0.2574 -0.2525
 1651SOL    HW1 8358   6.924   7.348   2.156  0.8416  1.6774  0.2594
 1651SOL    HW2 8359   6.864   7.482   2.119 -1.5979  0.1078 -1.6699
 1652SOL     OW 8360   6.549   7.496   3.007 -0.2296  0.4120  0.1250
 1652SOL    HW1 8361   6.563   7.405   3.032 -0.9909  0.6563  1.5113
 1652SOL    HW2 8362   6.539   7.494   2.912 -3.1014 -1.3419  0.4094
 1653SOL     OW 8363   5.804   6.637   5.292  0.2198  0.4718 -0.1159
 1653SOL    HW1 8364   5.732   6.697   5.273  1.1278  1.9693  1.1078
 1653SOL    HW2 8365   5.883   6.684   5.266  0.7867 -1.2074 -1.5658
 1654SOL     OW 8366  10.856   2.542   9.867  0.0693  0.4405 -0.4313
 1654SOL    HW1 8367  10.920   2.470   9.869  0.1192  0.4777 -0.7227
 1654SOL    HW2 8368  10.835   2.553   9.775 -1.5101 -0.5865 -0.2211
 1655SOL     OW 8369   9.323   9.272   3.709  0.4531 -0.0911  0.6780
 1655SOL    HW1 8370   9.393   9.286   3.646  0.8674  0.1419  1.1897
 1655SOL    HW2 8371   9.248   9.245   3.656  0.9801 -0.5366  0.1512
 1656SOL     OW 8372   0.394   6.852   3.807 -0.5719 -0.0660 -0.2094
 1656SOL    HW1 8373   0.459   6.829   3.740 -0.1157 -0.7256  0.4502
 1656SOL    HW2 8374   0.369   6.768   3.845 -1.0301  0.2864  0.2613
 1657SOL     OW 8375   6.309  10.512   8.436  0.2368  0.0609  0.1579
 1657SOL    HW1 8376   6.275  10.592   8.474  2.2602  0.7707  0.5361
 1657SOL    HW2 8377   6.342  10.539   8.350  2.4876  0.0244  0.9770
 1658SOL     OW 8378   1.264   4.818   2.616  0.2385 -0.2686 -0.1746
 1658SOL    HW1 8379   1.312   4.767   2.681  1.4177 -0.5936 -1.2567
 1658SOL    HW2 8380   1.285   4.909   2.637  2.6953 -0.4451 -1.5778
 1659SOL     OW 8381   9.170   2.068  10.510 -0.1622 -0.4831  0.6445
 1659SOL    HW1 8382   9.133   1.993  10.463 -1.1506 -0.0943  0.7836
 1659SOL    HW2 8383   9.175   2.137  10.445  0.2052 -0.4954  0.6603
 1660SOL     OW 8384   9.212   0.987   3.549 -0.3012  0.5264  0.1019
 1660SOL    HW1 8385   9.134   0.942   3.517 -0.8315  2.1698 -0.9506
 1660SOL    HW2 8386   9.181   1.040   3.622 -0.1199  0.9481 -0.1266
 1661SOL     OW 8387  10.557  10.116   1.616  0.2268  0.2827 -0.4835
 1661SOL    HW1 8388  10.553  10.170   1.538 -0.6069 -1.9686 -2.0415
 1661SOL    HW2 8389  10.466  10.096   1.636  0.5846 -2.0072 -1.0085
 1662SOL     OW 8390   0.888   4.849   0.062 -0.3388  0.0718  0.4353
 1662SOL    HW1 8391   0.873   4.840  -0.032  1.3338 -0.4133  0.2027
 1662SOL    HW2 8392   0.918   4.939   0.073 -0.8113  0.2176  0.5508
 1663SOL     OW 8393   4.738   9.624   6.310  0.2591 -0.2247 -0.1387
 1663SOL    HW1 8394   4.794   9.698   6.285  1.0836 -1.5117 -2.2487
 1663SOL    HW2 8395   4.654   9.643   6.267  0.1521 -0.0045  0.1684
 1664SOL     OW 8396   8.637   7.662   9.719 -0.7449  1.1176  0.3087
 1664SOL    HW1 8397   8.583   7.670   9.641  0.3353  0.7359 -0.4864
 1664SOL    HW2 8398   8.577   7.634   9.788 -1.8476  2.2041 -0.1971
 1665SOL     OW 8399   9.692   3.451   9.967 -0.2204 -0.3873  0.2357
 1665SOL    HW1 8400   9.597   3.460   9.973 -0.3172  0.1559 -1.7152
 1665SOL    HW2 8401   9.726   3.535   9.998 -0.4016 -0.4375  0.5648
 1666SOL     OW 8402   7.206   7.182   5.248 -0.1364  0.4523  0.2519
 1666SOL    HW1 8403   7.272   7.213   5.186  0.4151  0.0684  0.6522
 1666SOL    HW2 8404   7.237   7.210   5.334  0.8692 -2.0040  0.7384
 1667SOL     OW 8405   8.620   7.193   4.108  0.3820 -0.1871 -0.5975
 1667SOL    HW1 8406   8.577   7.244   4.040 -0.3601 -0.4841 -0.3560
 1667SOL    HW2 8407   8.552   7.177   4.174  0.5195 -1.6805 -0.7855
 1668SOL     OW 8408   4.151   5.804   6.777  0.4717 -0.2502 -0.3435
 1668SOL    HW1 8409   4.237   5.840   6.755 -1.1025  3.2410 -1.3039
 1668SOL    HW2 8410   4.143   5.815   6.872  0.3516  1.2916 -0.5157
 1669SOL     OW 8411   0.857   9.536   3.298  0.3908 -0.1361  0.2635
 1669SOL    HW1 8412   0.789   9.577   3.243  1.0378  1.4247  0.6099
 1669SOL    HW2 8413   0.808   9.488   3.364 -0.4043 -1.6871 -1.4143
 1670SOL     OW 8414   2.998   0.448   8.643 -0.1513 -0.3090 -0.6940
 1670SOL    HW1 8415   2.994   0.354   8.658  1.4048 -0.3148 -0.2187
 1670SOL    HW2 8416   2.930   0.465   8.579 -1.3738 -1.5536  0.2338
 1671SOL     OW 8417   4.379   8.249   8.415  0.2792 -0.5036 -0.7206
 1671SOL    HW1 8418   4.372   8.262   8.321 -0.1534 -0.7826 -0.7298
 1671SOL    HW2 8419   4.344   8.330   8.453  0.3195 -0.4511 -0.7966
 1672SOL     OW 8420   1.871   7.797   0.135  0.2000  0.0081 -0.0020
 1672SOL    HW1 8421   1.911   7.725   0.184  0.8931  0.9684  0.8709
 1672SOL    HW2 8422   1.905   7.876   0.178 -0.7580  0.8451 -0.7809
 1673SOL     OW 8423   4.142   7.149   1.407  0.5106 -0.2370 -0.0295
 1673SOL    HW1 8424   4.120   7.057   1.419 -1.5153 -0.0943 -2.2576
 1673SOL    HW2 8425   4.093   7.195   1.475  1.2324 -0.7647  0.8485
 1674SOL     OW 8426   0.830   8.963   5.554  0.0967 -0.0902  0.0179
 1674SOL    HW1 8427   0.800   8.891   5.498 -1.7890 -0.0226  0.9071
 1674SOL    HW2 8428   0.905   9.000   5.507 -0.1134 -1.3905 -1.3961
 1675SOL     OW 8429   5.226   5.819   8.301 -0.6162 -0.1621  0.0521
 1675SOL    HW1 8430   5.307   5.770   8.285 -0.4113  0.2744 -0.2537
 1675SOL    HW2 8431   5.252   5.890   8.360 -1.2577 -1.4301  1.9106
 1676SOL     OW 8432   6.135   5.319   4.862 -0.1966 -0.4773 -0.1089
 1676SOL    HW1 8433   6.177   5.286   4.941 -2.1810  0.6600  1.4548
 1676SOL    HW2 8434   6.205   5.366   4.816  0.8312 -0.6381  1.2486
 1677SOL     OW 8435  10.470   9.169   9.206  0.2789 -0.6999 -0.2895
 1677SOL    HW1 8436  10.513   9.086   9.222  2.3529  0.1670 -1.1252
 1677SOL    HW2 8437  10.448   9.168   9.112  3.6657  1.1292 -1.1908
 1678SOL     OW 8438   6.807   6.936   1.542  0.2120  0.3212 -0.1424
 1678SOL    HW1 8439   6.770   7.007   1.595  0.4376  0.6700 -0.4525
 1678SOL    HW2 8440   6.738   6.915   1.479  0.3215  0.5698 -0.3417
 1679SOL     OW 8441   5.187   0.720   1.776  0.1890 -0.2299  0.3273
 1679SOL    HW1 8442   5.240   0.720   1.697 -1.3139  0.3138 -0.7034
 1679SOL    HW2 8443   5.190   0.629   1.807  0.2870 -0.5834 -0.7025
 1680SOL     OW 8444   7.361   2.278   4.158  0.5822 -0.4602 -0.2006
 1680SOL    HW1 8445   7.445   2.313   4.131 -0.3527  0.6078 -1.7598
 1680SOL    HW2 8446   7.346   2.315   4.245  1.1882  0.2585 -0.4066
 1681SOL     OW 8447   1.883   5.423   7.367  0.0829 -0.1917  0.0020
 1681SOL    HW1 8448   1.961   5.463   7.406  1.0990  0.7145 -2.8370
 1681SOL    HW2 8449   1.844   5.372   7.438  1.2959  2.1704  2.4629
 1682SOL     OW 8450   9.729   6.148   5.632 -0.1376 -0.0115 -0.5990
 1682SOL    HW1 8451   9.706   6.193   5.713  2.3584  0.1391  0.0795
 1682SOL    HW2 8452   9.695   6.060   5.643  1.2571 -0.3609  1.1863
 1683SOL     OW 8453   6.280   6.931   0.757  0.5311  0.0219  0.1431
 1683SOL    HW1 8454   6.224   6.900   0.685  1.0294  1.3454 -0.8317
 1683SOL    HW2 8455   6.225   6.992   0.805  0.3945 -0.4144  0.5463
 1684SOL     OW 8456  10.785   2.259   5.077 -0.3541 -0.1673 -0.2430
 1684SOL    HW1 8457  10.799   2.353   5.088  0.8224 -0.4843  1.1954
 1684SOL    HW2 8458  10.743   2.231   5.159 -0.3943 -0.9391 -0.5211
 1685SOL     OW 8459   1.146   6.849  10.283  0.0799 -0.0619  0.0049
 1685SOL    HW1 8460   1.154   6.942  10.261 -0.8026 -0.1526 -0.7404
 1685SOL    HW2 8461   1.183   6.803  10.208  1.2694 -0.2997  0.7363
 1686SOL     OW 8462   2.366   9.559   2.846 -0.1287 -0.5930  0.6084
 1686SOL    HW1 8463   2.419   9.555   2.925 -0.1646 -2.4261  0.5480
 1686SOL    HW2 8464   2.342   9.469   2.828 -1.8648  0.0282 -0.3296
 1687SOL     OW 8465   2.942   5.341   4.509 -0.3178 -0.0999  0.2024
 1687SOL    HW1 8466   2.865   5.396   4.496 -0.8114 -0.4880  1.3551
 1687SOL    HW2 8467   3.014   5.402   4.527 -0.9015  0.1774  1.6769
 1688SOL     OW 8468   8.866   9.923   3.717  0.1090  0.1992 -0.1802
 1688SOL    HW1 8469   8.905   9.937   3.631 -1.6708 -0.5231 -1.1433
 1688SOL    HW2 8470   8.827  10.007   3.740  1.4551  0.6806  0.4015
 1689SOL     OW 8471   6.255   6.402   2.086 -0.3779  0.2831  0.4925
 1689SOL    HW1 8472   6.286   6.392   1.996 -2.2474  0.4675 -0.1908
 1689SOL    HW2 8473   6.312   6.345   2.138  0.1395 -0.4966 -0.9207
 1690SOL     OW 8474   1.608   6.674   9.056 -0.0165 -0.1687  0.0608
 1690SOL    HW1 8475   1.594   6.765   9.030  1.2653  0.4120  1.3171
 1690SOL    HW2 8476   1.691   6.651   9.014 -0.2445 -0.6909 -0.0968
 1691SOL     OW 8477   7.808   2.233   1.157  0.1977 -0.0075 -0.2324
 1691SOL    HW1 8478   7.799   2.150   1.111 -0.7585 -1.0377  1.7536
 1691SOL    HW2 8479   7.902   2.250   1.157  0.4499 -1.3456 -0.2250
 1692SOL     OW 8480   2.450   1.750   5.984 -0.6509  0.4972 -0.2542
 1692SOL    HW1 8481   2.463   1.819   6.049 -1.3365  1.1500 -0.7877
 1692SOL    HW2 8482   2.465   1.669   6.031 -0.7084  0.9817  0.6119
 1693SOL     OW 8483   9.698   3.553   7.182 -0.1485 -0.1832  0.4395
 1693SOL    HW1 8484   9.651   3.485   7.231 -2.3963  0.8689 -0.1771
 1693SOL    HW2 8485   9.706   3.518   7.094 -1.3282  0.3376  0.1158
 1694SOL     OW 8486   2.648   1.789   3.039 -0.1285  0.4570 -0.8323
 1694SOL    HW1 8487   2.698   1.731   3.096  1.9927  0.1521 -2.9310
 1694SOL    HW2 8488   2.606   1.731   2.975  1.9634  1.1610 -2.9180
 1695SOL     OW 8489   6.384   5.571   4.940  0.4201  0.5349  0.8710
 1695SOL    HW1 8490   6.388   5.480   4.971 -1.5963  0.7287  1.7643
 1695SOL    HW2 8491   6.467   5.609   4.969  1.7438 -1.2772 -0.4112
 1696SOL     OW 8492  10.935   7.370   3.476 -0.6697  0.2640 -0.6498
 1696SOL    HW1 8493  10.867   7.430   3.503 -0.5153 -0.1822  0.8154
 1696SOL    HW2 8494  11.011   7.394   3.530 -0.6129 -1.2299 -0.0438
 1697SOL     OW 8495   1.290   8.577   8.513  0.2469 -0.1866  0.1463
 1697SOL    HW1 8496   1.282   8.657   8.461 -0.4750 -0.8802 -0.8375
 1697SOL    HW2 8497   1.350   8.600   8.583  0.3158  1.1209 -0.3218
 1698SOL     OW 8498  10.658   9.702   7.926  0.1734 -0.3735  0.1611
 1698SOL    HW1 8499  10.728   9.685   7.864  1.4459  0.6957  1.2753
 1698SOL    HW2 8500  10.635   9.616   7.962 -1.5258 -1.2107 -2.7341
 1699SOL     OW 8501   4.428  10.900   2.687  0.1257 -0.0167  0.7918
 1699SOL    HW1 8502   4.433  10.819   2.636  0.1442 -0.2165  1.1108
 1699SOL    HW2 8503   4.491  10.888   2.758  1.4188  1.0040 -0.1833
 1700SOL     OW 8504   0.061   5.296   6.269 -0.2670 -0.7340 -0.4432
 1700SOL    HW1 8505  -0.012   5.344   6.229 -0.2239 -0.6807 -0.4585
 1700SOL    HW2 8506   0.055   5.316   6.362  0.8073  0.7397 -0.6639
 1701SOL     OW 8507   4.951   4.260   4.632  0.1615  0.1135 -0.0407
 1701SOL    HW1 8508   4.859   4.243   4.616  0.1585  1.8354 -2.0814
 1701SOL    HW2 8509   4.952   4.312   4.713 -0.7476  1.0086 -0.5961
 1702SOL     OW 8510   8.125   1.220   2.596  0.2021 -0.6414  0.1651
 1702SOL    HW1 8511   8.115   1.219   2.500  1.7243 -3.3421 -0.0147
 1702SOL    HW2 8512   8.040   1.193   2.629  0.3112 -1.8617 -0.5180
 1703SOL     OW 8513   7.653   6.817   0.738 -0.1867  0.3624  0.2451
 1703SOL    HW1 8514   7.614   6.862   0.662  0.7507 -0.3274 -0.6557
 1703SOL    HW2 8515   7.595   6.742   0.754  0.1364 -0.0235 -0.3818
 1704SOL     OW 8516   3.266   0.499   2.660 -0.1643 -0.6147 -0.1247
 1704SOL    HW1 8517   3.264   0.592   2.638 -2.8509 -0.5737  0.1301
 1704SOL    HW2 8518   3.326   0.493   2.735  1.3058  0.6435 -1.1715
 1705SOL     OW 8519  10.797   8.686   7.048  0.1003 -0.4131  0.1351
 1705SOL    HW1 8520  10.722   8.634   7.079  0.4059 -0.8261  0.1785
 1705SOL    HW2 8521  10.757   8.757   6.997 -0.4791  1.0642  2.6072
 1706SOL     OW 8522   0.637   2.547   6.642 -0.5563 -0.9571 -0.2644
 1706SOL    HW1 8523   0.698   2.508   6.704  0.0839  0.8674  0.3022
 1706SOL    HW2 8524   0.670   2.522   6.556  0.6592 -0.5053  0.0593
 1707SOL     OW 8525   1.577   3.986   6.909  0.0662 -0.4993  0.0701
 1707SOL    HW1 8526   1.668   4.013   6.921  0.2080 -1.6102  1.5214
 1707SOL    HW2 8527   1.583   3.900   6.867 -0.3761  1.0430 -3.3576
 1708SOL     OW 8528   8.506  10.685   3.315  0.1317  0.0254  0.2023
 1708SOL    HW1 8529   8.567  10.736   3.261 -0.5553  0.1508 -0.4502
 1708SOL    HW2 8530   8.422  10.692   3.271 -0.8015  1.4469  2.1184
 1709SOL     OW 8531   8.526   3.855   3.665 -0.5231  0.5301 -0.5270
 1709SOL    HW1 8532   8.435   3.883   3.658 -1.0296 -1.1943 -1.0513
 1709SOL    HW2 8533   8.556   3.844   3.575 -0.2587 -0.3477 -0.3389
 1710SOL     OW 8534   1.134   2.088   4.751  0.2910 -0.2592  0.3058
 1710SOL    HW1 8535   1.109   2.038   4.828  0.8770 -1.4173 -0.2441
 1710SOL    HW2 8536   1.198   2.152   4.784 -0.9417  0.5618  1.1209
 1711SOL     OW 8537   4.675   2.105   3.867 -0.5235 -0.3582  0.3525
 1711SOL    HW1 8538   4.741   2.106   3.936 -1.3176 -0.5804  1.1244
 1711SOL    HW2 8539   4.698   2.179   3.810  1.2362 -1.3348 -0.2125
 1712SOL     OW 8540   7.361   1.034   5.447 -0.1590 -0.3710  0.4577
 1712SOL    HW1 8541   7.285   0.990   5.411  0.1623 -2.4123  2.1807
 1712SOL    HW2 8542   7.435   1.000   5.396  0.0254 -1.4260  1.4126
 1713SOL     OW 8543   9.161   7.489   6.009 -0.0560  0.0264  0.0380
 1713SOL    HW1 8544   9.171   7.400   6.043 -2.4506  0.0418  0.8557
 1713SOL    HW2 8545   9.155   7.477   5.914 -3.2430 -1.0396  0.2939
 1714SOL     OW 8546   9.534   0.483   3.497  0.2377 -0.0511  0.1865
 1714SOL    HW1 8547   9.489   0.424   3.437 -0.8855  0.6691  0.3070
 1714SOL    HW2 8548   9.603   0.523   3.444 -1.2536  1.1785 -0.8634
 1715SOL     OW 8549   2.916   4.213   9.355  0.5910 -0.0672 -0.9484
 1715SOL    HW1 8550   2.829   4.201   9.318 -0.0283  0.0916  0.4234
 1715SOL    HW2 8551   2.900   4.253   9.441  2.0007 -0.2404 -0.5975
 1716SOL     OW 8552   8.032   8.689   6.104 -0.0049 -0.1571 -0.1068
 1716SOL    HW1 8553   7.937   8.693   6.116  0.1985 -0.8561  1.8950
 1716SOL    HW2 8554   8.056   8.602   6.135  1.3533  0.1739 -0.2184
 1717SOL     OW 8555   9.804   9.940   7.030  0.7437  0.5432 -0.5192
 1717SOL    HW1 8556   9.772  10.029   7.042  1.1369  0.4363  1.4189
 1717SOL    HW2 8557   9.868   9.927   7.100  0.9802 -1.1379 -1.0101
 1718SOL     OW 8558   5.691   0.511  10.192 -0.1366 -0.1453  0.3342
 1718SOL    HW1 8559   5.647   0.427  10.207 -0.9057  0.2660  0.4233
 1718SOL    HW2 8560   5.627   0.576  10.222  1.4420  0.3798  2.6664
 1719SOL     OW 8561   1.680   6.929  10.063 -0.0123  0.6703 -0.6483
 1719SOL    HW1 8562   1.647   6.922   9.974 -0.6489 -0.6752 -0.3301
 1719SOL    HW2 8563   1.702   6.839  10.087 -0.4317  0.9379  0.7696
 1720SOL     OW 8564   7.185   9.351   6.830  0.4157 -0.2183 -0.5066
 1720SOL    HW1 8565   7.104   9.346   6.880 -0.5063  1.6904 -1.7377
 1720SOL    HW2 8566   7.250   9.306   6.884 -1.4766 -1.8969  0.4253
 1721SOL     OW 8567  10.655   5.970   0.340 -0.0039 -0.2125  0.0630
 1721SOL    HW1 8568  10.730   5.941   0.393 -0.2195 -1.9431 -0.5514
 1721SOL    HW2 8569  10.695   6.013   0.264  0.4269 -2.2680 -0.9106
 1722SOL     OW 8570  10.767   3.900   7.971 -0.1245 -1.2332  0.1438
 1722SOL    HW1 8571  10.679   3.894   8.008 -0.7757 -2.7090 -1.5690
 1722SOL    HW2 8572  10.754   3.934   7.883  0.9638 -1.9948 -0.3247
 1723SOL     OW 8573   0.621   3.560   1.170 -0.1804  0.2133  0.6073
 1723SOL    HW1 8574   0.703   3.571   1.122 -0.3871  0.5888  0.3333
 1723SOL    HW2 8575   0.556   3.542   1.102 -0.0173 -1.8613  0.9672
 1724SOL     OW 8576   8.844   7.746   2.169 -0.8798 -0.4481  0.2033
 1724SOL    HW1 8577   8.920   7.690   2.156 -1.3899 -0.9646 -0.5387
 1724SOL    HW2 8578   8.782   7.691   2.216 -0.4919  0.2285  1.5247
 1725SOL     OW 8579   8.317   8.100   2.075 -0.7463  0.2555 -0.2944
 1725SOL    HW1 8580   8.371   8.129   2.149  0.4243  0.2666 -1.1378
 1725SOL    HW2 8581   8.255   8.171   2.061 -0.7860  0.3802  0.4966
 1726SOL     OW 8582   5.859   8.109   2.656 -0.1321 -0.0229 -0.0729
 1726SOL    HW1 8583   5.798   8.090   2.584 -0.8552  1.1593  0.2000
 1726SOL    HW2 8584   5.944   8.079   2.624 -0.6805 -0.7606 -0.8731
 1727SOL     OW 8585   5.806   8.232   9.710  0.0167  0.3794 -0.5252
 1727SOL    HW1 8586   5.721   8.188   9.698 -0.6849  1.4887  0.2851
 1727SOL    HW2 8587   5.820   8.279   9.628 -0.2296  0.3101 -0.6089
 1728SOL     OW 8588   8.056   5.272   2.669  0.4856  0.1458  0.1629
 1728SOL    HW1 8589   8.078   5.236   2.584  1.1341 -1.6636  1.0730
 1728SOL    HW2 8590   8.110   5.351   2.677  2.9277 -1.4749  0.2468
 1729SOL     OW 8591   9.739   7.350   4.872  0.2986  0.2035  0.3534
 1729SOL    HW1 8592   9.695   7.353   4.956 -0.2424  0.3126  0.0643
 1729SOL    HW2 8593   9.721   7.262   4.839 -0.6048  0.6070 -0.2490
 1730SOL     OW 8594   6.615   4.006   8.517 -0.6124  0.1591 -0.0820
 1730SOL    HW1 8595   6.593   3.927   8.467 -0.5962  0.4744 -0.5957
 1730SOL    HW2 8596   6.640   3.974   8.603  0.1741 -0.4654 -0.5356
 1731SOL     OW 8597   9.023   4.600   1.365  0.4946  0.0630 -0.4941
 1731SOL    HW1 8598   8.963   4.621   1.294  0.1032 -1.1611 -0.5484
 1731SOL    HW2 8599   9.101   4.566   1.321 -0.4269 -2.3984 -0.3320
 1732SOL     OW 8600   2.609   9.981   1.546 -0.5464  0.2278  0.4384
 1732SOL    HW1 8601   2.576  10.030   1.621  1.1009  2.6455 -0.3420
 1732SOL    HW2 8602   2.694   9.948   1.574 -0.3839  0.2653 -0.0074
 1733SOL     OW 8603   5.891   8.135   5.825  0.3419  0.0296 -0.3258
 1733SOL    HW1 8604   5.921   8.165   5.911 -1.4361 -0.1029  0.3466
 1733SOL    HW2 8605   5.879   8.041   5.836  1.7588 -0.2815 -1.2277
 1734SOL     OW 8606   5.341   6.000   6.991  1.0681  0.6169  0.5030
 1734SOL    HW1 8607   5.429   5.968   7.009  0.9258  1.1194  2.1544
 1734SOL    HW2 8608   5.307   6.026   7.076 -0.2275  1.5759 -0.2901
 1735SOL     OW 8609   2.215   2.357   2.024  0.3572  0.3650 -0.2139
 1735SOL    HW1 8610   2.274   2.393   2.090 -0.5131  0.7338  0.3744
 1735SOL    HW2 8611   2.271   2.302   1.969  1.2599  0.7775  0.2808
 1736SOL     OW 8612   4.756   3.990   5.403 -0.5704  0.4001 -0.3497
 1736SOL    HW1 8613   4.711   4.068   5.437  0.8248  0.2806  1.8646
 1736SOL    HW2 8614   4.764   3.932   5.478 -0.0888 -1.1965 -1.6026
 1737SOL     OW 8615   3.428   2.024   8.330  0.5177  0.3392 -0.5846
 1737SOL    HW1 8616   3.363   2.047   8.263  0.1830  2.0948  0.3051
 1737SOL    HW2 8617   3.511   2.019   8.282 -0.0305 -0.5243 -1.4837
 1738SOL     OW 8618   8.036   8.260  10.026 -0.1037  0.0829 -0.0127
 1738SOL    HW1 8619   7.952   8.237  10.066 -0.3886 -1.5188 -1.4919
 1738SOL    HW2 8620   8.095   8.189  10.051  0.4060  0.4208 -0.2561
 1739SOL     OW 8621   4.037   4.137   1.975  0.2035  0.3920  0.0958
 1739SOL    HW1 8622   4.030   4.052   2.019  1.7291 -0.0193 -0.4046
 1739SOL    HW2 8623   3.947   4.164   1.958 -0.2911 -1.2306  0.0857
 1740SOL     OW 8624   5.743   8.725  10.063  0.1007  0.1893  0.0240
 1740SOL    HW1 8625   5.648   8.710  10.057 -0.0180  0.8483  0.1794
 1740SOL    HW2 8626   5.766   8.700  10.153 -0.1370  1.1438  0.3563
 1741SOL     OW 8627   0.756   4.564  10.066  0.0696 -0.0984 -0.3651
 1741SOL    HW1 8628   0.742   4.653  10.033 -0.1937  0.5319  1.4410
 1741SOL    HW2 8629   0.834   4.534  10.019 -1.0777  0.2628 -2.5840
 1742SOL     OW 8630   6.906   5.811   2.540  0.1118  0.3477 -0.0395
 1742SOL    HW1 8631   6.991   5.852   2.528  0.0442  0.3358 -0.5438
 1742SOL    HW2 8632   6.925   5.732   2.590  0.5047 -0.0915 -0.8761
 1743SOL     OW 8633   3.244   9.069   1.297 -0.3024  0.1952  0.5029
 1743SOL    HW1 8634   3.242   9.002   1.366 -1.8539  0.1199  0.4103
 1743SOL    HW2 8635   3.190   9.033   1.227 -0.8591  1.3759  0.3089
 1744SOL     OW 8636   9.295   3.148   7.730  0.1176 -0.1622 -0.0395
 1744SOL    HW1 8637   9.363   3.167   7.795  1.1190  0.3165 -1.2075
 1744SOL    HW2 8638   9.337   3.085   7.671 -0.0463  1.0794 -1.4683
 1745SOL     OW 8639   5.975   7.166   5.268  0.5455 -0.9727  0.2727
 1745SOL    HW1 8640   5.927   7.233   5.219 -0.6007 -1.2633  0.9799
 1745SOL    HW2 8641   6.003   7.211   5.348 -0.7479 -1.4898  1.0284
 1746SOL     OW 8642   5.072   0.840   9.138 -0.2283 -0.2759 -0.0670
 1746SOL    HW1 8643   5.069   0.840   9.233 -1.6795 -1.3512 -0.1060
 1746SOL    HW2 8644   5.047   0.751   9.113  2.3792 -0.6901 -1.3914
 1747SOL     OW 8645  10.913   7.017   0.467 -0.2940  0.2994 -0.1545
 1747SOL    HW1 8646  10.904   7.018   0.372  0.7599 -0.2674 -0.2642
 1747SOL    HW2 8647  10.823   7.009   0.499 -0.7064  1.0771 -1.0809
 1748SOL     OW 8648   1.350   0.268   0.304  1.3785 -0.1961  0.4300
 1748SOL    HW1 8649   1.328   0.361   0.296 -0.9622 -0.7064  0.4295
 1748SOL    HW2 8650   1.370   0.256   0.397  0.2567  0.0526  0.7187
 1749SOL     OW 8651   8.475   3.743   4.130 -0.5535  0.3463 -0.4122
 1749SOL    HW1 8652   8.428   3.784   4.057  2.3045  0.6360 -2.1715
 1749SOL    HW2 8653   8.452   3.798   4.206 -1.8948  1.3120 -1.4693
 1750SOL     OW 8654   9.932   7.234   9.249  0.1448  0.6018 -0.3102
 1750SOL    HW1 8655  10.001   7.168   9.236  0.0161  0.7529 -1.8545
 1750SOL    HW2 8656   9.872   7.193   9.312  0.7189 -0.2552 -0.3041
 1751SOL     OW 8657  10.767   3.438   3.077  0.0839 -0.4882  0.3262
 1751SOL    HW1 8658  10.687   3.491   3.084  0.4739 -0.0268  1.4181
 1751SOL    HW2 8659  10.837   3.502   3.067  0.3807 -0.8710 -0.0401
 1752SOL     OW 8660   5.187   9.787   4.224 -0.1419  0.6670 -0.0826
 1752SOL    HW1 8661   5.255   9.824   4.168  1.4221 -0.6805  0.9151
 1752SOL    HW2 8662   5.163   9.705   4.182 -0.9595  0.9898 -0.2647
 1753SOL     OW 8663  10.776   2.198   1.942  0.0907  0.2308  0.4308
 1753SOL    HW1 8664  10.868   2.198   1.968  0.1959 -0.4604  0.0683
 1753SOL    HW2 8665  10.778   2.217   1.848 -0.1383  0.1817  0.4174
 1754SOL     OW 8666   0.416   7.336   9.637 -0.3938  0.4262  0.4058
 1754SOL    HW1 8667   0.326   7.326   9.604  0.4090 -1.9595 -1.1538
 1754SOL    HW2 8668   0.446   7.419   9.600 -1.5510  0.6513 -0.0446
 1755SOL     OW 8669   2.712   7.022   2.825 -0.1173  0.0863  1.1609
 1755SOL    HW1 8670   2.695   7.106   2.866 -0.6760 -0.9136  3.0565
 1755SOL    HW2 8671   2.625   6.981   2.817  0.0443  0.0291 -0.5331
 1756SOL     OW 8672   7.539   2.275   2.061 -0.3306 -0.5299  0.0487
 1756SOL    HW1 8673   7.447   2.293   2.041 -0.3029  1.1139  1.2498
 1756SOL    HW2 8674   7.570   2.222   1.988 -2.0882 -0.6380 -0.6410
 1757SOL     OW 8675   2.246   2.422   0.602 -0.5968 -0.0876 -0.4144
 1757SOL    HW1 8676   2.331   2.405   0.642 -1.6381  0.8731  2.3403
 1757SOL    HW2 8677   2.225   2.342   0.554  1.0553 -0.9991  0.3488
 1758SOL     OW 8678   7.387   0.741   2.651  0.5571 -0.7111  0.4844
 1758SOL    HW1 8679   7.459   0.790   2.691  0.9544  0.4712 -1.5877
 1758SOL    HW2 8680   7.430   0.680   2.592 -0.1374  2.6829 -3.7582
 1759SOL     OW 8681   5.331   8.172  10.039  0.0186 -0.2445 -0.5904
 1759SOL    HW1 8682   5.254   8.210   9.997  0.9273  1.2216 -0.9592
 1759SOL    HW2 8683   5.392   8.155   9.967  0.0968 -1.2792 -0.2887
 1760SOL     OW 8684   8.662   8.063   8.414  0.0480 -0.9483 -0.2243
 1760SOL    HW1 8685   8.583   8.009   8.403 -1.5623  1.2348  0.1925
 1760SOL    HW2 8686   8.632   8.152   8.397  2.4241 -0.0487  0.1317
 1761SOL     OW 8687   4.902   4.091   1.681  0.6487  0.3642  0.3350
 1761SOL    HW1 8688   4.880   4.073   1.773 -0.3615 -1.1063 -0.1806
 1761SOL    HW2 8689   4.990   4.055   1.670  0.1490 -0.8866  0.3228
 1762SOL     OW 8690   4.572   0.332   4.505 -0.2109  0.7129  0.1506
 1762SOL    HW1 8691   4.581   0.245   4.467 -2.2384 -0.7925  2.9634
 1762SOL    HW2 8692   4.659   0.352   4.540 -0.0414 -0.7500  0.5930
 1763SOL     OW 8693   6.006  10.094   4.902 -0.5902  0.0611  0.1235
 1763SOL    HW1 8694   5.996  10.075   4.809 -1.5197  1.2378 -0.0348
 1763SOL    HW2 8695   5.924  10.065   4.942 -1.0951  1.5788  0.2190
 1764SOL     OW 8696   5.167   9.381   7.978 -0.2059 -0.0195 -0.1268
 1764SOL    HW1 8697   5.116   9.403   8.056  1.7346 -0.1321  1.2130
 1764SOL    HW2 8698   5.226   9.455   7.966  0.2891 -0.5168 -0.8141
 1765SOL     OW 8699   2.541   1.780   6.550  0.7150 -0.1807  0.6369
 1765SOL    HW1 8700   2.572   1.754   6.463  0.1113  0.0377  0.3566
 1765SOL    HW2 8701   2.480   1.851   6.533  0.3662 -0.3432  1.2222
 1766SOL     OW 8702   6.428   5.797   2.927 -0.0734 -0.0519 -0.5604
 1766SOL    HW1 8703   6.391   5.717   2.962  0.5193 -0.3544 -0.6156
 1766SOL    HW2 8704   6.510   5.770   2.885  0.0163  0.5417 -0.7844
 1767SOL     OW 8705   4.711   8.139   2.643  0.7163 -0.1995 -0.0294
 1767SOL    HW1 8706   4.667   8.056   2.660  0.8242  0.0036  1.2906
 1767SOL    HW2 8707   4.695   8.156   2.551 -1.2562 -0.5464  0.2342
 1768SOL     OW 8708   3.821   1.224   4.222 -0.0316 -0.1965 -0.1336
 1768SOL    HW1 8709   3.768   1.191   4.294  0.4016  0.9854  0.7436
 1768SOL    HW2 8710   3.896   1.266   4.264  1.1302 -1.0289 -1.3318
 1769SOL     OW 8711   8.109   1.919   9.663 -0.2293  0.1199 -0.1459
 1769SOL    HW1 8712   8.049   1.959   9.600 -0.0864 -1.5386 -1.3804
 1769SOL    HW2 8713   8.058   1.850   9.704  0.7265 -1.0934 -0.9706
 1770SOL     OW 8714   8.847   1.300   2.536  0.3653  0.3928  0.2238
 1770SOL    HW1 8715   8.877   1.241   2.605  0.9559 -0.3082 -0.6236
 1770SOL    HW2 8716   8.780   1.250   2.489  1.6680 -0.0494 -1.2045
 1771SOL     OW 8717   2.391   9.516   9.723 -0.2677 -0.3056  0.4747
 1771SOL    HW1 8718   2.298   9.530   9.703 -0.2403 -0.2085  0.4129
 1771SOL    HW2 8719   2.413   9.585   9.785  0.4344  1.3229 -1.5263
 1772SOL     OW 8720   4.067   2.180   2.843  0.1177 -0.3385 -0.4529
 1772SOL    HW1 8721   3.988   2.201   2.892 -0.4198  1.0943 -1.8825
 1772SOL    HW2 8722   4.121   2.258   2.850  1.0547 -1.0003 -0.1851
 1773SOL     OW 8723   3.700   8.202   2.128  0.0266  0.1529 -0.5442
 1773SOL    HW1 8724   3.669   8.111   2.134 -2.2196  0.9548  0.6767
 1773SOL    HW2 8725   3.764   8.210   2.199  0.6744 -0.6162 -1.0270
 1774SOL     OW 8726   7.669  10.819   8.067 -0.3142 -0.6342 -0.2139
 1774SOL    HW1 8727   7.591  10.875   8.073  0.9622  1.2880 -1.3068
 1774SOL    HW2 8728   7.673  10.775   8.152 -2.7936 -1.0540 -0.2765
 1775SOL     OW 8729   9.858   9.277   3.199 -0.7591  0.4646 -0.2984
 1775SOL    HW1 8730   9.894   9.258   3.285 -0.6677  2.3368  0.1000
 1775SOL    HW2 8731   9.873   9.197   3.148  0.5104 -0.1230  0.9757
 1776SOL     OW 8732   5.937   6.881   9.781 -0.3586  0.0834 -0.2026
 1776SOL    HW1 8733   5.898   6.795   9.766 -0.4433  0.0686  0.0849
 1776SOL    HW2 8734   5.966   6.911   9.695 -0.7389 -0.0360 -0.3711
 1777SOL     OW 8735   0.043   6.571   8.579  1.0529 -0.0314 -0.1173
 1777SOL    HW1 8736  -0.041   6.608   8.603  0.8981  0.2726 -1.1111
 1777SOL    HW2 8737   0.100   6.591   8.654  0.3729  0.1758  0.3502
 1778SOL     OW 8738   7.702   9.808   8.024 -0.0316  0.0389 -0.6960
 1778SOL    HW1 8739   7.693   9.721   8.063  0.6278  0.0779 -0.4406
 1778SOL    HW2 8740   7.797   9.820   8.016 -0.0856  1.2765  0.4643
 1779SOL     OW 8741   1.613   8.487   8.206  0.1001 -0.0487 -0.0887
 1779SOL    HW1 8742   1.699   8.487   8.248 -0.5004  0.6695  1.1794
 1779SOL    HW2 8743   1.565   8.557   8.250 -1.7045 -1.5694  0.4283
 1780SOL     OW 8744   4.805   6.733   1.042  0.8940  0.6038 -0.2809
 1780SOL    HW1 8745   4.798   6.689   0.957  1.4982 -0.3282  0.1428
 1780SOL    HW2 8746   4.868   6.680   1.092  1.7145  2.0025  0.2144
 1781SOL     OW 8747   8.717   7.742   7.296  0.6222 -0.0244 -0.4361
 1781SOL    HW1 8748   8.696   7.783   7.380  1.3340  0.8555 -0.6789
 1781SOL    HW2 8749   8.790   7.682   7.316  0.2091 -0.4737 -0.2628
 1782SOL     OW 8750   1.946   1.630   9.289  0.4256 -0.3007  0.0912
 1782SOL    HW1 8751   1.902   1.594   9.366  0.8478 -0.1896  0.3854
 1782SOL    HW2 8752   1.957   1.723   9.308  0.7125 -0.3108 -0.0188
 1783SOL     OW 8753   0.942   8.335   8.285 -0.1822 -0.0794 -0.4320
 1783SOL    HW1 8754   0.875   8.390   8.245 -2.2822 -1.3077  1.2979
 1783SOL    HW2 8755   0.980   8.286   8.212 -1.4375  0.3446 -1.3786
 1784SOL     OW 8756   2.023   0.686   3.727  0.1679 -0.3910 -0.9497
 1784SOL    HW1 8757   2.108   0.713   3.760 -1.1681 -1.3340  3.5363
 1784SOL    HW2 8758   2.028   0.591   3.719 -0.8850 -0.5944  0.6749
 1785SOL     OW 8759   6.285  10.323   7.304  0.4386 -0.1842  0.1132
 1785SOL    HW1 8760   6.282  10.412   7.269  0.8631  0.7574  2.3895
 1785SOL    HW2 8761   6.365  10.320   7.355  1.0790 -2.2991 -0.9700
 1786SOL     OW 8762   1.143   9.031   7.186 -0.1100 -0.2453 -0.8241
 1786SOL    HW1 8763   1.118   9.084   7.262  0.1037  0.0913 -0.9903
 1786SOL    HW2 8764   1.152   8.943   7.221 -1.4896 -0.3617 -0.7429
 1787SOL     OW 8765   4.365   6.340   3.679 -0.7804  0.1215 -0.3002
 1787SOL    HW1 8766   4.398   6.251   3.667 -2.9974 -0.9340  1.0118
 1787SOL    HW2 8767   4.324   6.338   3.766 -0.6044  2.4963 -0.1516
 1788SOL     OW 8768   0.410   2.375   1.307 -0.1664 -0.6406 -0.7665
 1788SOL    HW1 8769   0.398   2.459   1.353  1.1244 -0.6340 -0.4309
 1788SOL    HW2 8770   0.430   2.313   1.377 -0.8725 -1.1912 -1.0449
 1789SOL     OW 8771   9.065   3.637   2.169  0.2220  0.3701 -0.7613
 1789SOL    HW1 8772   9.081   3.705   2.234 -0.2461  1.7510 -2.0563
 1789SOL    HW2 8773   9.151   3.600   2.151  0.4656  0.5409  0.0351
 1790SOL     OW 8774   3.246   8.192   9.543  0.4497 -0.0641 -0.0887
 1790SOL    HW1 8775   3.309   8.125   9.516  1.3520  1.0055 -0.7047
 1790SOL    HW2 8776   3.279   8.272   9.502 -0.7544  0.6992  0.4378
 1791SOL     OW 8777   4.127   1.297   0.018 -0.0535  0.0920  0.0461
 1791SOL    HW1 8778   4.046   1.286  -0.032 -0.6661  1.4038  0.7121
 1791SOL    HW2 8779   4.170   1.212   0.013 -1.0212 -0.3478 -1.1085
 1792SOL     OW 8780  10.076   6.352   0.054 -0.2845 -0.0631 -0.5851
 1792SOL    HW1 8781  10.151   6.411   0.047 -1.2678  0.9522 -3.5719
 1792SOL    HW2 8782  10.112   6.265   0.034  0.1177  0.4363 -2.1149
 1793SOL     OW 8783   7.004   2.145   2.304  0.3989 -0.1773 -0.1641
 1793SOL    HW1 8784   7.011   2.236   2.334  2.5242 -0.6451  0.8991
 1793SOL    HW2 8785   6.941   2.105   2.364  1.6401 -0.1034  1.2141
 1794SOL     OW 8786   8.959   4.850   5.606  0.3306  0.2675  0.4966
 1794SOL    HW1 8787   8.947   4.937   5.643  0.2582 -0.0174  1.1450
 1794SOL    HW2 8788   9.031   4.812   5.657  0.2152 -0.1333  0.3656
 1795SOL     OW 8789   5.367   8.380   9.628  0.3211 -0.1109  0.2109
 1795SOL    HW1 8790   5.431   8.413   9.691  0.2531 -0.5419  0.5051
 1795SOL    HW2 8791   5.413   8.311   9.581  0.1089 -0.3508  0.3523
 1796SOL     OW 8792   9.951  10.754   8.605  0.4755  0.0871  0.5066
 1796SOL    HW1 8793   9.921  10.844   8.590 -0.7098 -0.5838 -1.3186
 1796SOL    HW2 8794   9.885  10.699   8.562  0.8614 -1.6894  2.1138
 1797SOL     OW 8795   4.520   9.931   4.573  0.1085 -0.2608 -0.6385
 1797SOL    HW1 8796   4.427   9.936   4.593 -0.2778 -0.9925 -2.2007
 1797SOL    HW2 8797   4.541   9.838   4.576  1.1281  0.0089  1.1596
 1798SOL     OW 8798   4.751   9.603   0.171 -0.0270 -0.1257 -0.0149
 1798SOL    HW1 8799   4.727   9.516   0.203 -0.6359 -0.1196 -0.4547
 1798SOL    HW2 8800   4.819   9.632   0.231  0.2431 -0.9446  0.0776
 1799SOL     OW 8801   4.349   7.735   2.543  0.1523 -0.6145  0.4290
 1799SOL    HW1 8802   4.437   7.699   2.545  0.4012  0.0398  1.0948
 1799SOL    HW2 8803   4.358   7.826   2.571 -0.7582 -0.5922  0.6932
 1800SOL     OW 8804   9.575   0.485   7.387 -0.9263  0.1706 -0.2914
 1800SOL    HW1 8805   9.548   0.458   7.475  2.0907  0.1432  0.6862
 1800SOL    HW2 8806   9.531   0.568   7.373 -0.2337  0.9426  1.9217
 1801SOL     OW 8807   3.914   7.722   3.682 -0.1403 -0.3115  0.0262
 1801SOL    HW1 8808   3.862   7.693   3.756 -2.2792 -0.7868 -1.5920
 1801SOL    HW2 8809   3.876   7.807   3.658  0.3179 -0.3107 -0.7237
 1802SOL     OW 8810   1.735   7.329   0.255 -0.3592 -0.0485  0.2094
 1802SOL    HW1 8811   1.756   7.390   0.184 -1.7712 -0.5470 -0.6553
 1802SOL    HW2 8812   1.766   7.373   0.334  0.1541  1.0439 -0.5821
 1803SOL     OW 8813   3.789   2.226   6.118 -0.4026 -0.7522  0.1525
 1803SOL    HW1 8814   3.774   2.168   6.043 -0.6720 -0.3302 -0.1207
 1803SOL    HW2 8815   3.878   2.260   6.105 -0.4277 -0.7246  0.0552
 1804SOL     OW 8816   8.211   4.924   0.932 -0.0704  0.4483  0.3320
 1804SOL    HW1 8817   8.165   4.983   0.991 -1.7024 -0.8697  0.4284
 1804SOL    HW2 8818   8.274   4.878   0.987 -2.0802 -1.3002  1.2828
 1805SOL     OW 8819   2.498   9.011   9.662 -0.2900  0.2947  0.2634
 1805SOL    HW1 8820   2.537   9.050   9.584  0.7240 -0.8120  0.2175
 1805SOL    HW2 8821   2.570   8.967   9.707 -1.2214 -0.6745  0.8450
 1806SOL     OW 8822   9.882   6.999   1.274  0.1790 -0.1392 -0.0720
 1806SOL    HW1 8823   9.817   6.940   1.236  1.1749 -1.0869 -0.3249
 1806SOL    HW2 8824   9.965   6.951   1.267  0.8715  0.9707  0.4292
 1807SOL     OW 8825   8.651   5.251   2.302  0.1863 -0.0599  0.1879
 1807SOL    HW1 8826   8.728   5.251   2.359  0.1897  0.9985  0.1889
 1807SOL    HW2 8827   8.687   5.266   2.214 -0.0474  0.8343  0.2389
 1808SOL     OW 8828  10.351   4.913  10.514  0.3477  0.6576 -0.3303
 1808SOL    HW1 8829  10.324   5.003  10.500 -0.7876  0.2686 -0.6408
 1808SOL    HW2 8830  10.425   4.900  10.455 -0.7364  0.7865 -1.7164
 1809SOL     OW 8831   8.279   2.577  10.635 -0.1118  0.4652 -0.3078
 1809SOL    HW1 8832   8.328   2.658  10.651  2.0755 -1.2684  2.2796
 1809SOL    HW2 8833   8.235   2.559  10.718  2.0937 -2.6957  0.2573
 1810SOL     OW 8834   6.047   6.985   4.874 -0.5672 -0.7513  0.2348
 1810SOL    HW1 8835   6.088   6.982   4.961 -0.5960 -1.0684  0.2351
 1810SOL    HW2 8836   5.957   6.954   4.889 -0.5754 -0.7940  0.0931
 1811SOL     OW 8837   1.350   3.024   1.029  0.2581 -0.4038 -0.0125
 1811SOL    HW1 8838   1.311   3.111   1.034  1.4278  0.3113 -2.5025
 1811SOL    HW2 8839   1.291   2.973   0.974  1.6033  0.0161 -1.8924
 1812SOL     OW 8840   2.346   8.362   0.786  0.7206 -0.5284 -0.1644
 1812SOL    HW1 8841   2.382   8.323   0.707  0.3052 -1.8260  0.2689
 1812SOL    HW2 8842   2.418   8.362   0.849  0.6467 -0.8365 -0.0809
 1813SOL     OW 8843   6.181   7.989   5.420  0.8257 -0.5634  0.2894
 1813SOL    HW1 8844   6.180   7.917   5.357  2.3811 -1.5370  1.3329
 1813SOL    HW2 8845   6.233   8.057   5.378  0.0464 -0.3627 -0.3580
 1814SOL     OW 8846   2.299   9.621   0.179 -0.6964  0.2106  0.0415
 1814SOL    HW1 8847   2.279   9.633   0.087 -0.7766  0.1572  0.0516
 1814SOL    HW2 8848   2.252   9.691   0.224 -0.2747  0.5260 -0.0016
 1815SOL     OW 8849   9.937   7.028   4.514  0.3810 -0.4373  0.2241
 1815SOL    HW1 8850   9.889   7.106   4.487  0.2422 -0.3212  0.7975
 1815SOL    HW2 8851  10.008   7.061   4.568 -1.0638 -0.8357  2.4590
 1816SOL     OW 8852   5.869   7.474   0.569 -0.3533 -0.0398 -1.1638
 1816SOL    HW1 8853   5.849   7.396   0.518  2.7545 -0.8349 -1.2162
 1816SOL    HW2 8854   5.885   7.442   0.657  2.0269  0.3926 -1.4249
 1817SOL     OW 8855   9.603   3.975   2.938 -0.2526 -0.1034 -0.0676
 1817SOL    HW1 8856   9.507   3.974   2.932 -0.2425 -1.3086 -0.3072
 1817SOL    HW2 8857   9.621   3.990   3.030 -0.6816  0.1296 -0.0215
 1818SOL     OW 8858   3.100   3.765   0.233  0.4484  0.5647  0.3131
 1818SOL    HW1 8859   3.178   3.769   0.178 -0.7359 -0.7081 -1.5312
 1818SOL    HW2 8860   3.099   3.675   0.266 -0.8389  0.2257 -0.6146
 1819SOL     OW 8861   5.171   5.487   0.034 -0.3106 -0.3476  0.2769
 1819SOL    HW1 8862   5.113   5.426  -0.011 -0.2769 -0.4832  0.4146
 1819SOL    HW2 8863   5.204   5.545  -0.035  0.4926 -1.1602 -0.0204
 1820SOL     OW 8864   6.680   9.698   5.898  0.0266 -0.0140  0.1563
 1820SOL    HW1 8865   6.691   9.603   5.899 -0.8715 -0.1316 -1.0352
 1820SOL    HW2 8866   6.617   9.715   5.829 -0.2685  1.4137  0.7496
 1821SOL     OW 8867   8.979   6.546   6.421  0.0457 -0.3325  0.6001
 1821SOL    HW1 8868   9.003   6.517   6.333  0.9400  0.4972  0.5573
 1821SOL    HW2 8869   9.012   6.477   6.478  0.2686 -0.4386  0.3440
 1822SOL     OW 8870   8.194   1.890   1.649 -0.7094 -0.1506  0.8329
 1822SOL    HW1 8871   8.181   1.851   1.563 -1.0514 -1.3715  1.4223
 1822SOL    HW2 8872   8.287   1.914   1.651 -0.7389  0.0303  0.0733
 1823SOL     OW 8873   4.146   1.523   1.235  0.1687 -0.0857 -0.1308
 1823SOL    HW1 8874   4.073   1.581   1.212 -0.8155 -0.9388  0.7620
 1823SOL    HW2 8875   4.168   1.478   1.153 -1.2141 -0.8068 -0.1176
 1824SOL     OW 8876   6.713   3.192   3.332  0.7460 -0.5189 -0.1064
 1824SOL    HW1 8877   6.666   3.148   3.261 -0.1763  0.2972 -0.0030
 1824SOL    HW2 8878   6.730   3.280   3.299  2.2413 -0.7994 -0.1497
 1825SOL     OW 8879   1.914   4.356  10.005 -0.0410 -0.5143 -0.1995
 1825SOL    HW1 8880   1.899   4.288   9.938  0.2092 -1.3618  0.6014
 1825SOL    HW2 8881   2.008   4.373  10.000 -0.3947  1.1727 -1.7248
 1826SOL     OW 8882   0.922   0.245   2.318  0.7302  0.1806  0.2493
 1826SOL    HW1 8883   0.886   0.318   2.267 -1.4766 -0.6579  0.5684
 1826SOL    HW2 8884   0.918   0.170   2.259 -0.1793 -0.4074  1.0450
 1827SOL     OW 8885   9.383   5.412   0.548  0.4671  0.1487  0.0759
 1827SOL    HW1 8886   9.306   5.359   0.531  0.6547 -0.1784  0.2433
 1827SOL    HW2 8887   9.380   5.481   0.482 -0.2708  0.4600  0.4299
 1828SOL     OW 8888   8.186   0.656   9.141  0.2212  0.1932 -0.2616
 1828SOL    HW1 8889   8.144   0.577   9.176 -0.5038  0.5619 -0.3084
 1828SOL    HW2 8890   8.180   0.647   9.046 -0.4519  0.6232 -0.2614
 1829SOL     OW 8891   6.342   6.441   4.705 -0.1730  0.7715  0.3205
 1829SOL    HW1 8892   6.393   6.469   4.629 -0.6050 -1.0619 -0.6780
 1829SOL    HW2 8893   6.253   6.470   4.686 -0.9156 -2.4190 -1.4026
 1830SOL     OW 8894   5.790   7.184   9.267 -0.0260  0.0179  0.3225
 1830SOL    HW1 8895   5.835   7.202   9.184 -1.2680 -1.2652 -0.6536
 1830SOL    HW2 8896   5.797   7.266   9.316  0.8556  0.7534 -0.9983
 1831SOL     OW 8897   6.364   2.869   2.346 -0.3915 -0.3686 -0.8713
 1831SOL    HW1 8898   6.457   2.877   2.367 -0.7688  0.8026  0.4502
 1831SOL    HW2 8899   6.320   2.922   2.412 -2.0357 -1.2651 -1.2169
 1832SOL     OW 8900   5.233  10.098   7.100  0.2445 -0.1838 -0.2491
 1832SOL    HW1 8901   5.147  10.133   7.123 -0.2741 -1.4076 -0.2866
 1832SOL    HW2 8902   5.228  10.084   7.005  1.1468  1.5018 -0.5686
 1833SOL     OW 8903   9.449   0.324   6.414  0.3517 -0.4036 -0.0253
 1833SOL    HW1 8904   9.528   0.371   6.386  0.3577  0.1034  0.8226
 1833SOL    HW2 8905   9.454   0.323   6.509 -0.5934 -0.4962  0.0257
 1834SOL     OW 8906   7.992   2.906   0.152  0.5530 -0.0231 -0.8442
 1834SOL    HW1 8907   7.979   3.000   0.136  0.3332  0.4729  1.9397
 1834SOL    HW2 8908   8.001   2.868   0.065  1.7548  2.7409 -2.0147
 1835SOL     OW 8909   9.415   4.809   9.410  0.1998 -0.2708  0.1415
 1835SOL    HW1 8910   9.322   4.820   9.433  0.4550  1.0205  0.5611
 1835SOL    HW2 8911   9.444   4.736   9.464 -0.8718 -1.4729 -0.8592
 1836SOL     OW 8912   9.359   7.899   2.587  0.3892 -0.2592  0.4542
 1836SOL    HW1 8913   9.389   7.985   2.559  0.1732 -0.3547 -0.0686
 1836SOL    HW2 8914   9.269   7.913   2.617 -0.3008 -0.6277 -1.3580
 1837SOL     OW 8915   6.838   1.444   2.146  0.4789 -0.2397  0.2587
 1837SOL    HW1 8916   6.857   1.535   2.168 -3.1821  0.4695  0.6665
 1837SOL    HW2 8917   6.775   1.449   2.075  1.2496 -2.5120 -0.6383
 1838SOL     OW 8918   9.344  10.958  10.634 -0.4658  0.3885 -0.4429
 1838SOL    HW1 8919   9.314  10.907  10.708 -0.0746  1.5573  0.5463
 1838SOL    HW2 8920   9.280  10.941  10.565 -2.3724  1.3722  1.0233
 1839SOL     OW 8921   6.231   6.931   9.910  0.1580  0.5250 -0.1331
 1839SOL    HW1 8922   6.141   6.944   9.882  0.1932  1.3241  0.1184
 1839SOL    HW2 8923   6.228   6.853   9.966 -0.0036 -0.7714 -1.8829
 1840SOL     OW 8924   7.644  10.545   6.463 -0.1268  0.4040  0.6835
 1840SOL    HW1 8925   7.698  10.583   6.394 -1.3487  0.9772  0.0410
 1840SOL    HW2 8926   7.615  10.620   6.515 -1.0158  0.1864  0.5067
 1841SOL     OW 8927   6.342   4.844   2.304  0.0716  0.2318  0.2116
 1841SOL    HW1 8928   6.350   4.837   2.399  2.1329 -0.3060  0.0393
 1841SOL    HW2 8929   6.298   4.763   2.278 -0.8091  0.5382  0.7401
 1842SOL     OW 8930   4.707  10.911   0.625 -0.1194  0.5704 -0.2305
 1842SOL    HW1 8931   4.663  10.952   0.699  0.3641  2.2834 -0.8574
 1842SOL    HW2 8932   4.796  10.895   0.656 -0.3900 -0.3136  0.1133
 1843SOL     OW 8933   5.738  10.411   1.314  0.2714 -0.4419  0.1233
 1843SOL    HW1 8934   5.695  10.459   1.384 -0.2692 -1.1541  0.2813
 1843SOL    HW2 8935   5.821  10.458   1.300 -0.4252  0.7789 -0.0045
 1844SOL     OW 8936   4.824   4.560   9.428  0.6066  0.2482 -0.2994
 1844SOL    HW1 8937   4.825   4.468   9.401 -1.4049  0.0776  0.1121
 1844SOL    HW2 8938   4.795   4.558   9.519 -0.8786  1.3650 -0.7205
 1845SOL     OW 8939   9.429   5.308   7.447 -0.0950  0.0471  0.1604
 1845SOL    HW1 8940   9.413   5.217   7.470 -0.4340 -0.2069 -1.0517
 1845SOL    HW2 8941   9.384   5.359   7.514  1.1708 -0.6719  1.5679
 1846SOL     OW 8942   5.635   3.603   6.518 -0.4953  0.0943  0.2656
 1846SOL    HW1 8943   5.617   3.623   6.610  2.8722 -2.6159  1.6230
 1846SOL    HW2 8944   5.637   3.508   6.514 -0.1223  0.1835 -2.5101
 1847SOL     OW 8945   4.513   4.686   0.746  0.1281 -0.8525  0.2548
 1847SOL    HW1 8946   4.424   4.660   0.724  0.1572 -1.0538  0.3721
 1847SOL    HW2 8947   4.512   4.782   0.744  0.2229 -0.8738 -0.9912
 1848SOL     OW 8948   5.358   4.566   0.425 -0.5218 -0.1571 -0.3430
 1848SOL    HW1 8949   5.336   4.658   0.442  2.7882  0.6983 -0.4337
 1848SOL    HW2 8950   5.342   4.556   0.331  0.8101  0.8496 -0.6946
 1849SOL     OW 8951   3.038   7.074   8.444  0.2287 -0.5007  0.2762
 1849SOL    HW1 8952   3.046   6.989   8.399 -0.4541  0.1701 -1.1498
 1849SOL    HW2 8953   3.081   7.061   8.528  0.6370 -2.1016 -0.1651
 1850SOL     OW 8954   7.520   5.540   8.881  0.0437 -0.2718 -0.3594
 1850SOL    HW1 8955   7.545   5.633   8.876 -0.4920 -0.0892  0.1400
 1850SOL    HW2 8956   7.603   5.493   8.885  0.3535  0.0631 -2.3194
 1851SOL     OW 8957   6.205   6.661   6.290  0.2296  0.1027 -0.1634
 1851SOL    HW1 8958   6.167   6.617   6.214  1.7382 -1.8970  0.1973
 1851SOL    HW2 8959   6.154   6.742   6.299 -0.6902 -0.1636 -2.6097
 1852SOL     OW 8960   1.438   0.125   6.881  0.2940 -0.1088 -0.1264
 1852SOL    HW1 8961   1.403   0.179   6.952 -0.4953  1.0514 -1.3693
 1852SOL    HW2 8962   1.533   0.131   6.891  0.1996  0.8803  0.2092
 1853SOL     OW 8963   5.540   8.912   1.742  0.5965  0.2333  0.4377
 1853SOL    HW1 8964   5.513   8.935   1.653  2.2699  0.9122  0.0869
 1853SOL    HW2 8965   5.565   8.820   1.737 -0.3144 -0.0140  0.4452
 1854SOL     OW 8966   3.380   9.106   5.422  0.1672  0.7475 -0.0027
 1854SOL    HW1 8967   3.414   9.196   5.414  0.1177  0.7718  0.0572
 1854SOL    HW2 8968   3.285   9.117   5.420  0.1657  0.4584 -2.3728
 1855SOL     OW 8969   0.892   7.638   4.722  0.1941 -0.2780 -0.1576
 1855SOL    HW1 8970   0.834   7.565   4.699  0.2921  0.1721 -1.9274
 1855SOL    HW2 8971   0.979   7.598   4.726  0.1726 -0.3702 -0.5747
 1856SOL     OW 8972   2.906   1.846   4.123  0.0082  0.0639  0.0049
 1856SOL    HW1 8973   2.893   1.751   4.115  1.7854  0.0240 -3.6506
 1856SOL    HW2 8974   2.829   1.884   4.080  0.2405  0.2320 -0.2627
 1857SOL     OW 8975   9.235   2.341   2.348  0.1769 -0.3362  0.1495
 1857SOL    HW1 8976   9.204   2.331   2.258  0.4709  1.0806 -0.1271
 1857SOL    HW2 8977   9.298   2.270   2.359 -0.4506 -1.0097 -0.4932
 1858SOL     OW 8978   6.090   2.321   2.442 -0.3458 -0.6853 -0.6499
 1858SOL    HW1 8979   6.034   2.362   2.376 -0.6543  1.3123  0.8170
 1858SOL    HW2 8980   6.137   2.394   2.482  2.1941 -2.1841 -0.8177
 1859SOL     OW 8981   5.351   4.888   6.712 -0.2219 -0.1613  0.0842
 1859SOL    HW1 8982   5.309   4.965   6.674 -1.5019 -0.2349  1.3181
 1859SOL    HW2 8983   5.405   4.922   6.782 -0.7889 -0.3826  0.6316
 1860SOL     OW 8984   2.392   8.739  10.816 -0.2927  0.4351 -0.4723
 1860SOL    HW1 8985   2.387   8.831  10.790  1.0187  0.6536  0.0109
 1860SOL    HW2 8986   2.485   8.717  10.809 -0.5097 -0.6758  0.0336
 1861SOL     OW 8987   1.873   2.792   7.790  0.7264 -0.2159  0.3408
 1861SOL    HW1 8988   1.906   2.717   7.840  1.0037 -2.0337 -2.4393
 1861SOL    HW2 8989   1.924   2.866   7.823  3.5689 -2.0001  0.1678
 1862SOL     OW 8990   6.978   2.321   0.535 -0.1847  0.0619 -0.4121
 1862SOL    HW1 8991   6.980   2.325   0.439  0.7192  0.1499 -0.3930
 1862SOL    HW2 8992   7.064   2.286   0.559 -0.9245 -1.3043  0.3008
 1863SOL     OW 8993   6.559   3.034   0.602 -0.2278  0.7557  0.1553
 1863SOL    HW1 8994   6.532   3.087   0.676  0.1453  1.3589 -0.1388
 1863SOL    HW2 8995   6.502   2.957   0.605  0.6776  0.1395  1.8456
 1864SOL     OW 8996   5.525  10.590   2.422 -0.3026  0.1550 -0.0370
 1864SOL    HW1 8997   5.611  10.614   2.456 -0.7059  0.9115  0.4592
 1864SOL    HW2 8998   5.474  10.670   2.426 -1.5960 -0.7106  1.4376
 1865SOL     OW 8999  10.548   5.728  10.740 -0.0584 -0.5595  0.8082
 1865SOL    HW1 9000  10.470   5.715  10.794 -1.3026  0.7411 -0.6234
 1865SOL    HW2 9001  10.601   5.790  10.790 -0.4830 -0.5564  1.2636
 1866SOL     OW 9002   5.644   1.285   6.184  0.1171  0.0786 -0.0286
 1866SOL    HW1 9003   5.667   1.298   6.092  0.1100  1.2556  0.1173
 1866SOL    HW2 9004   5.654   1.372   6.223  0.5425 -0.5032  1.1787
 1867SOL     OW 9005  10.752   3.843   7.521 -0.9436 -0.3120 -0.7109
 1867SOL    HW1 9006  10.791   3.755   7.523  0.2516  0.2222  0.1904
 1867SOL    HW2 9007  10.803   3.889   7.453  0.2988  0.5146  0.7562
 1868SOL     OW 9008   7.968   6.664   6.349 -0.7429  0.3531  0.4944
 1868SOL    HW1 9009   7.946   6.751   6.382 -2.0277  0.3044 -0.1806
 1868SOL    HW2 9010   7.907   6.606   6.394 -0.4759 -0.0797  0.2926
 1869SOL     OW 9011   3.270   2.587   4.139 -0.5265 -0.2958 -0.1659
 1869SOL    HW1 9012   3.363   2.577   4.119 -0.7622 -1.8457 -0.6126
 1869SOL    HW2 9013   3.238   2.497   4.146 -2.1215  0.2168 -0.6377
 1870SOL     OW 9014   0.791   8.549   0.022 -0.2765 -0.3864 -0.0933
 1870SOL    HW1 9015   0.834   8.615   0.075  1.1856 -1.1215 -0.3503
 1870SOL    HW2 9016   0.788   8.471   0.078 -1.7833 -0.1854  0.1265
 1871SOL     OW 9017   8.872   8.278  10.756 -0.1489  0.1146 -0.6022
 1871SOL    HW1 9018   8.811   8.231  10.813 -0.1407 -0.0545 -0.7343
 1871SOL    HW2 9019   8.816   8.338  10.705 -0.0834  0.7355  0.0486
 1872SOL     OW 9020   7.771  10.743   9.846  0.5562  0.2096  0.5576
 1872SOL    HW1 9021   7.702  10.678   9.836 -1.1514  1.7063  2.2481
 1872SOL    HW2 9022   7.823  10.711   9.920  0.3418  0.2588  0.7280
 1873SOL     OW 9023   1.954   9.504   4.730  0.6195 -0.2398  0.8350
 1873SOL    HW1 9024   1.927   9.586   4.689  1.3375 -0.2687  0.3071
 1873SOL    HW2 9025   2.045   9.492   4.703  0.4406 -1.3396  0.7058
 1874SOL     OW 9026   9.900   2.787   8.180 -0.3177  0.2968  0.0517
 1874SOL    HW1 9027   9.852   2.863   8.214  0.6477 -0.2980  2.9109
 1874SOL    HW2 9028   9.844   2.712   8.200  0.3988 -0.0890  0.6403
 1875SOL     OW 9029   4.887   1.548   0.843 -0.0351 -0.2375  0.7776
 1875SOL    HW1 9030   4.972   1.505   0.856 -0.0611 -0.7317 -0.5421
 1875SOL    HW2 9031   4.849   1.502   0.768 -0.3354  1.6734 -0.2759
 1876SOL     OW 9032   0.721   1.592   9.358  0.5411 -0.3313 -0.6690
 1876SOL    HW1 9033   0.656   1.609   9.426  0.9622  0.2865 -0.4135
 1876SOL    HW2 9034   0.791   1.545   9.404  0.5051 -0.5450 -0.8315
 1877SOL     OW 9035   4.772   4.561   2.290  0.2736  0.1426 -0.4477
 1877SOL    HW1 9036   4.829   4.526   2.359  0.5586  1.5572  0.0475
 1877SOL    HW2 9037   4.796   4.654   2.284  1.7254 -0.3979 -3.9059
 1878SOL     OW 9038   0.478   8.828   2.699 -0.0050  0.2758 -0.2293
 1878SOL    HW1 9039   0.472   8.862   2.788  0.7218  1.9048 -0.7802
 1878SOL    HW2 9040   0.428   8.747   2.701  0.8245 -0.2322  1.9094
 1879SOL     OW 9041   5.768   9.470   5.843  0.2674  0.8844  0.6366
 1879SOL    HW1 9042   5.750   9.486   5.936  0.5960  1.2309  0.6392
 1879SOL    HW2 9043   5.683   9.445   5.807  0.4713 -1.0432  1.4035
 1880SOL     OW 9044   2.676   8.891   1.125 -0.5876  0.8877  0.0057
 1880SOL    HW1 9045   2.757   8.889   1.177 -1.4671 -0.2682  1.3864
 1880SOL    HW2 9046   2.701   8.933   1.043  0.8441  2.7628  1.3518
 1881SOL     OW 9047   5.880   5.769   9.719  0.3646  0.3881 -0.1853
 1881SOL    HW1 9048   5.941   5.842   9.710  0.7246 -0.0333 -1.2098
 1881SOL    HW2 9049   5.917   5.699   9.665  0.3643 -0.7869  1.2865
 1882SOL     OW 9050   2.911   8.770   0.114  0.4900 -0.0297 -0.0629
 1882SOL    HW1 9051   2.870   8.800   0.195 -0.0969 -1.6074  0.2399
 1882SOL    HW2 9052   2.978   8.708   0.141  0.8732  0.0855 -0.7296
 1883SOL     OW 9053   6.514   1.960   9.361  0.1059  0.0728  0.1354
 1883SOL    HW1 9054   6.474   1.962   9.448  0.0188 -1.4535  0.1319
 1883SOL    HW2 9055   6.456   2.015   9.307  0.0337  0.8270  0.9722
 1884SOL     OW 9056   0.281   8.224   3.138  0.1454 -0.4868  0.1179
 1884SOL    HW1 9057   0.249   8.315   3.140 -1.0008 -0.8971  1.4170
 1884SOL    HW2 9058   0.369   8.229   3.175  1.1344  0.4641 -2.2528
 1885SOL     OW 9059   9.059   4.215   5.070  0.4173 -0.3292 -0.2911
 1885SOL    HW1 9060   9.042   4.306   5.046 -0.2540 -0.4952 -0.4608
 1885SOL    HW2 9061   9.014   4.163   5.002  0.4040 -0.7828  0.0607
 1886SOL     OW 9062   1.552   4.925   7.607  0.3813 -0.2481 -0.4454
 1886SOL    HW1 9063   1.622   4.936   7.671  0.4214  0.7381 -0.6571
 1886SOL    HW2 9064   1.482   4.982   7.637  0.3210  0.0618 -1.1683
 1887SOL     OW 9065   5.121   0.471   9.427 -0.2319  0.0845 -0.1396
 1887SOL    HW1 9066   5.182   0.403   9.396 -1.6079 -1.4916  0.5229
 1887SOL    HW2 9067   5.176   0.531   9.477  0.9450 -0.8150 -0.3245
 1888SOL     OW 9068   1.001   9.873   3.608 -0.3473  0.1972  0.0203
 1888SOL    HW1 9069   1.034   9.806   3.669 -0.5680 -1.8130 -2.0058
 1888SOL    HW2 9070   0.926   9.912   3.653 -0.4889 -1.2354  1.0446
 1889SOL     OW 9071   7.709  10.750  10.491  0.4866  0.3127 -0.0552
 1889SOL    HW1 9072   7.704  10.844  10.507 -1.3408  0.5364 -1.8132
 1889SOL    HW2 9073   7.797  10.726  10.521  0.7875  2.4751  0.8900
 1890SOL     OW 9074   2.112   6.845   6.200 -0.2036 -0.7383  0.8779
 1890SOL    HW1 9075   2.020   6.823   6.215 -0.4738 -0.9194 -0.9898
 1890SOL    HW2 9076   2.134   6.805   6.117  0.7969  1.5362 -0.0129
 1891SOL     OW 9077   9.997  10.723   4.950 -0.0046 -0.5109 -0.4215
 1891SOL    HW1 9078   9.978  10.653   4.888 -0.5655  0.2512 -1.1140
 1891SOL    HW2 9079  10.008  10.801   4.896 -0.2534  0.1109  0.4142
 1892SOL     OW 9080   0.248   6.837   5.034 -0.5800  0.3401 -0.7586
 1892SOL    HW1 9081   0.315   6.779   5.070 -0.3687  0.9893 -0.1021
 1892SOL    HW2 9082   0.201   6.870   5.110  1.2255  3.3717 -0.8925
 1893SOL     OW 9083   6.412  10.083   1.376 -0.0489 -0.2313  0.1370
 1893SOL    HW1 9084   6.371  10.131   1.304  1.3513  0.5333 -0.1504
 1893SOL    HW2 9085   6.366  10.112   1.454 -0.0334  0.6471 -0.1822
 1894SOL     OW 9086   4.948   1.304   8.807  0.4325  0.2335 -0.3466
 1894SOL    HW1 9087   4.988   1.374   8.858 -1.2171 -0.4242  1.9657
 1894SOL    HW2 9088   4.979   1.223   8.849 -1.0151 -0.3227 -0.3011
 1895SOL     OW 9089  10.466   1.463   5.938  0.0388  0.1442  0.2506
 1895SOL    HW1 9090  10.422   1.461   6.023 -0.6407  0.8225 -0.0772
 1895SOL    HW2 9091  10.419   1.530   5.888 -0.7347 -1.4506 -1.2596
 1896SOL     OW 9092   6.488   8.360   0.336  0.4939  0.5251 -0.7534
 1896SOL    HW1 9093   6.446   8.282   0.298  0.9166 -0.0651 -0.0143
 1896SOL    HW2 9094   6.488   8.423   0.264  1.6106 -0.6982 -1.8707
 1897SOL     OW 9095   1.501   5.661   0.461  0.1258  0.3308 -0.2583
 1897SOL    HW1 9096   1.427   5.602   0.475 -0.2042  0.7675 -0.1422
 1897SOL    HW2 9097   1.467   5.728   0.402 -0.3292  1.8935  1.6961
 1898SOL     OW 9098   4.363   7.858   6.137  0.1275  0.3337  0.0888
 1898SOL    HW1 9099   4.287   7.802   6.120 -0.2223  0.8141  0.0671
 1898SOL    HW2 9100   4.437   7.809   6.102 -0.2379  0.0915 -0.3496
 1899SOL     OW 9101   9.084   6.824   5.265 -0.4137  0.0643 -0.1314
 1899SOL    HW1 9102   9.036   6.763   5.209 -1.2969  1.4180 -0.8669
 1899SOL    HW2 9103   9.016   6.870   5.314  0.2831 -0.0186  0.9190
 1900SOL     OW 9104  10.218   1.701   8.570  0.4494  0.2588  0.2333
 1900SOL    HW1 9105  10.239   1.648   8.647 -1.0274  1.0274  1.1900
 1900SOL    HW2 9106  10.180   1.781   8.605  1.8201  1.5722 -1.2362
 1901SOL     OW 9107   9.357  10.710   9.554  0.0740 -0.2976  0.0211
 1901SOL    HW1 9108   9.420  10.643   9.527 -1.4069 -2.6897  2.3485
 1901SOL    HW2 9109   9.282  10.697   9.496  0.0415 -0.2109  0.0445
 1902SOL     OW 9110   4.549   0.264   3.538 -0.2509  0.0886 -0.1068
 1902SOL    HW1 9111   4.460   0.274   3.504 -0.8435 -1.2733  1.0204
 1902SOL    HW2 9112   4.554   0.325   3.611  0.3372  1.4546 -1.2500
 1903SOL     OW 9113   2.059   9.711   2.660 -0.2105 -0.0472 -0.1699
 1903SOL    HW1 9114   2.134   9.680   2.610  0.0378 -1.2152  0.9173
 1903SOL    HW2 9115   2.097   9.750   2.739 -0.6580  0.8002 -0.3696
 1904SOL     OW 9116   2.357   4.015  10.454 -0.2176 -0.3129 -0.2065
 1904SOL    HW1 9117   2.363   4.050  10.543 -0.9314  0.3113 -0.3947
 1904SOL    HW2 9118   2.356   3.920  10.465  0.5479 -0.2551  0.3898
 1905SOL     OW 9119   3.076   7.161   9.381  0.0860  0.0377 -0.0124
 1905SOL    HW1 9120   3.149   7.222   9.370 -0.1325  0.9811  3.3402
 1905SOL    HW2 9121   3.056   7.131   9.292  3.8681  0.5264 -1.0921
 1906SOL     OW 9122   5.526   6.052   9.416 -0.1782 -0.6209  0.2392
 1906SOL    HW1 9123   5.615   6.030   9.389 -0.2524 -0.5722 -0.0397
 1906SOL    HW2 9124   5.526   6.147   9.422 -0.4488 -0.5726 -0.5667
 1907SOL     OW 9125   6.066   1.578   0.119 -0.0795 -0.1470 -0.5642
 1907SOL    HW1 9126   6.138   1.558   0.179 -0.6939 -0.8069 -0.0352
 1907SOL    HW2 9127   6.018   1.649   0.161 -0.0038 -0.0265 -0.6846
 1908SOL     OW 9128   0.868  10.573   1.456  0.0433 -0.4006  0.0996
 1908SOL    HW1 9129   0.896  10.493   1.501 -0.3317 -0.6338 -0.0765
 1908SOL    HW2 9130   0.879  10.553   1.363  1.5858  0.3672  0.1016
 1909SOL     OW 9131   7.834   0.967  10.238 -0.3138  0.2487 -0.4178
 1909SOL    HW1 9132   7.823   1.052  10.279  1.4433  0.0324  0.5596
 1909SOL    HW2 9133   7.926   0.964  10.211 -0.5137 -1.0732 -1.0453
 1910SOL     OW 9134  10.906   1.741   5.753 -0.5488  0.0026 -0.3867
 1910SOL    HW1 9135  10.830   1.685   5.770 -1.1608  1.2777  1.1586
 1910SOL    HW2 9136  10.981   1.688   5.779 -1.0455 -0.5111  0.0142
 1911SOL     OW 9137   1.150   2.295   6.687  0.3766  0.0402  0.6143
 1911SOL    HW1 9138   1.205   2.359   6.642  0.5352 -0.1154  0.5917
 1911SOL    HW2 9139   1.147   2.220   6.629  0.4249 -0.0868  0.7753
 1912SOL     OW 9140   0.132   1.251   4.711  0.2591 -0.2431 -0.2316
 1912SOL    HW1 9141   0.141   1.299   4.628 -1.0229  2.2660  1.0236
 1912SOL    HW2 9142   0.044   1.214   4.708  0.1468 -0.0037  0.0731
 1913SOL     OW 9143   0.485   7.826   5.441  0.1542  0.2408  0.1602
 1913SOL    HW1 9144   0.460   7.813   5.349 -0.1907 -0.5083  0.3550
 1913SOL    HW2 9145   0.580   7.840   5.438  0.0483  0.9039 -0.3735
 1914SOL     OW 9146   7.713  10.439   7.244 -0.0853 -0.3935 -0.4176
 1914SOL    HW1 9147   7.804  10.418   7.267 -0.0819  0.1990  0.1088
 1914SOL    HW2 9148   7.669  10.354   7.245 -0.1802 -0.3695  2.2025
 1915SOL     OW 9149  10.980   5.688   1.406  0.1902  0.2012 -0.4860
 1915SOL    HW1 9150  11.034   5.691   1.485  0.9196  1.3789 -1.0247
 1915SOL    HW2 9151  10.977   5.595   1.383 -0.1290 -0.1590  0.9926
 1916SOL     OW 9152   1.358   7.782   4.995 -0.2023 -0.3208 -0.0663
 1916SOL    HW1 9153   1.445   7.783   5.034 -1.0901  2.1062  1.9759
 1916SOL    HW2 9154   1.366   7.834   4.916  0.6783 -1.9249 -1.0556
 1917SOL     OW 9155   2.376   1.249   3.164  0.1974 -0.0059 -0.0239
 1917SOL    HW1 9156   2.406   1.286   3.247  0.0087 -1.4426  0.7216
 1917SOL    HW2 9157   2.339   1.164   3.189 -0.5486 -0.1243 -1.4908
 1918SOL     OW 9158   3.450   3.580   4.419  0.3388 -0.1619 -0.4725
 1918SOL    HW1 9159   3.478   3.495   4.455  0.0434 -0.7640 -1.6521
 1918SOL    HW2 9160   3.355   3.575   4.417  0.3256  0.1685 -0.6274
 1919SOL     OW 9161   9.446   4.720   8.999 -0.4480  0.2645  0.4136
 1919SOL    HW1 9162   9.542   4.728   9.000 -0.3438 -0.4336 -1.6204
 1919SOL    HW2 9163   9.428   4.640   9.048  0.0087  0.3787  0.7696
 1920SOL     OW 9164   4.922   1.568   0.345 -0.6989  0.0330  0.4001
 1920SOL    HW1 9165   5.006   1.523   0.342 -0.2363  0.9265 -0.8283
 1920SOL    HW2 9166   4.888   1.551   0.433  0.0583 -1.5940  0.3890
 1921SOL     OW 9167  10.448   5.535   4.445  0.2361 -0.5971 -0.6723
 1921SOL    HW1 9168  10.486   5.465   4.393  0.5248  0.8563 -2.4429
 1921SOL    HW2 9169  10.356   5.537   4.418  0.8621  1.6003 -2.8023
 1922SOL     OW 9170   6.887   8.617   0.256  0.4257 -0.7209  0.7240
 1922SOL    HW1 9171   6.958   8.663   0.211  0.6521 -1.6192  0.1416
 1922SOL    HW2 9172   6.810   8.635   0.203  0.6360 -1.5297  0.1192
 1923SOL     OW 9173   0.943   8.493   0.590  0.0115 -0.1434 -0.0126
 1923SOL    HW1 9174   0.904   8.575   0.622 -0.3479 -0.8726  1.4644
 1923SOL    HW2 9175   1.034   8.516   0.569  0.4656  0.2019  2.2506
 1924SOL     OW 9176  10.637   1.747   5.253  0.2896  0.0294 -0.1405
 1924SOL    HW1 9177  10.574   1.674   5.247 -0.9436  1.0770 -0.2490
 1924SOL    HW2 9178  10.631   1.790   5.168 -0.5857  1.5402  0.6739
 1925SOL     OW 9179   3.352   4.823   1.120 -0.4485  0.5411 -0.0923
 1925SOL    HW1 9180   3.381   4.760   1.185 -0.9203 -0.0505 -0.4554
 1925SOL    HW2 9181   3.324   4.770   1.045 -1.0740  1.1639 -0.3037
 1926SOL     OW 9182   6.485   7.313   6.675 -0.8294  0.4309  0.0986
 1926SOL    HW1 9183   6.462   7.376   6.607 -2.5626  0.3924  0.6202
 1926SOL    HW2 9184   6.483   7.364   6.756 -0.0936  0.1781  0.2816
 1927SOL     OW 9185   6.855   2.311  10.189  0.0113 -0.5079  0.1381
 1927SOL    HW1 9186   6.848   2.238  10.128 -0.3334  0.1686 -0.6340
 1927SOL    HW2 9187   6.861   2.269  10.275 -2.9282 -1.3927 -0.0479
 1928SOL     OW 9188   0.488   9.576   9.858 -0.0189  0.2193  0.4142
 1928SOL    HW1 9189   0.394   9.563   9.871  0.0107 -0.6849 -0.2019
 1928SOL    HW2 9190   0.496   9.664   9.819 -0.4603  1.0127  2.1036
 1929SOL     OW 9191   7.565   7.615   6.578  0.7990 -0.4122  0.1639
 1929SOL    HW1 9192   7.542   7.705   6.553  0.9469 -0.6499 -0.8564
 1929SOL    HW2 9193   7.530   7.561   6.507  1.3511 -1.0905  0.4089
 1930SOL     OW 9194   9.529  10.370   2.067  0.0394 -0.2346 -0.4855
 1930SOL    HW1 9195   9.553  10.313   2.140  0.6271 -0.0806 -0.5533
 1930SOL    HW2 9196   9.434  10.371   2.068  0.0152  2.2985  2.2831
 1931SOL     OW 9197   2.739   4.025   4.406 -0.1083 -0.1366 -0.0365
 1931SOL    HW1 9198   2.763   4.114   4.435 -1.4488  0.2103  0.0554
 1931SOL    HW2 9199   2.722   3.978   4.487 -0.9705 -0.0107 -0.1379
 1932SOL     OW 9200   8.142   0.102   0.251 -0.1329 -0.0979  0.0658
 1932SOL    HW1 9201   8.067   0.081   0.196  0.0066  2.7759 -1.3389
 1932SOL    HW2 9202   8.114   0.081   0.340 -3.7573  3.6606 -0.0437
 1933SOL     OW 9203   4.043   1.711   7.712  0.0670  0.0123 -0.1734
 1933SOL    HW1 9204   4.034   1.731   7.805 -0.6195 -0.4169 -0.1408
 1933SOL    HW2 9205   4.015   1.620   7.705 -0.6084  0.2791 -0.9174
 1934SOL     OW 9206   5.070   6.023   5.763 -0.5735  0.2097  0.2069
 1934SOL    HW1 9207   5.117   5.954   5.716 -1.6059  0.6498 -1.5265
 1934SOL    HW2 9208   5.063   5.991   5.852 -1.6475 -2.2985 -0.7235
 1935SOL     OW 9209   0.663   9.907   3.023  0.0154  0.2850  0.0282
 1935SOL    HW1 9210   0.669   9.997   2.990  0.6748  0.1058 -0.3427
 1935SOL    HW2 9211   0.678   9.915   3.117 -1.8543  0.7944  0.3124
 1936SOL     OW 9212   6.526   6.985   0.050  0.5273 -0.2355 -0.1280
 1936SOL    HW1 9213   6.527   6.914  -0.014  2.2062 -0.3932  0.0557
 1936SOL    HW2 9214   6.487   7.059   0.004 -0.5714 -1.0612 -0.5454
 1937SOL     OW 9215   9.741   8.058  10.231 -0.0526 -0.3047  0.2104
 1937SOL    HW1 9216   9.763   8.139  10.276 -2.1172 -1.0720  2.7292
 1937SOL    HW2 9217   9.790   7.990  10.278  0.2219 -0.7359 -0.6908
 1938SOL     OW 9218   9.546   8.570   0.916  0.0113  0.1424 -0.2168
 1938SOL    HW1 9219   9.478   8.588   0.852  0.8456  0.2974 -1.0651
 1938SOL    HW2 9220   9.619   8.535   0.865  1.5995  2.5725  0.2898
 1939SOL     OW 9221   4.046   7.247   1.652 -0.1450  0.2470 -0.6089
 1939SOL    HW1 9222   4.107   7.320   1.652 -1.1346  1.0939 -2.3735
 1939SOL    HW2 9223   3.965   7.284   1.689 -0.5446 -0.0512 -1.1864
 1940SOL     OW 9224   8.551   0.164   5.662 -0.3299 -0.5199  0.0596
 1940SOL    HW1 9225   8.518   0.235   5.718  1.6503 -0.1956  0.8620
 1940SOL    HW2 9226   8.646   0.180   5.657  0.0897 -2.8922 -0.0556
 1941SOL     OW 9227  10.527   4.421   5.400 -0.3773 -0.0631  0.0033
 1941SOL    HW1 9228  10.495   4.330   5.397  1.3643 -0.7620  1.5977
 1941SOL    HW2 9229  10.498   4.453   5.485 -1.7805  1.2104 -0.9339
 1942SOL     OW 9230   8.193   1.273   7.187  0.6022 -0.2697 -0.7388
 1942SOL    HW1 9231   8.106   1.313   7.194  0.1652 -0.9511 -2.0389
 1942SOL    HW2 9232   8.204   1.225   7.270  0.9110  2.0515  0.5963
 1943SOL     OW 9233   3.813   4.430   9.551 -0.2340 -0.3256  0.4285
 1943SOL    HW1 9234   3.719   4.423   9.566 -0.7627  1.7174 -1.5602
 1943SOL    HW2 9235   3.830   4.524   9.554  1.3911 -0.5512 -1.1028
 1944SOL     OW 9236   2.181   9.081  10.957  0.3545 -0.2774  0.0223
 1944SOL    HW1 9237   2.152   9.127  10.879 -0.7814  0.5894  0.9273
 1944SOL    HW2 9238   2.246   9.140  10.997  0.2436 -0.2885  0.2209
 1945SOL     OW 9239   2.366   2.283   7.857 -0.0617 -0.2508 -0.0304
 1945SOL    HW1 9240   2.347   2.376   7.864  1.1552  0.0787 -0.9935
 1945SOL    HW2 9241   2.332   2.257   7.772 -1.9552 -1.0877  0.9531
 1946SOL     OW 9242   8.224   2.507   3.301  0.2035 -0.4632  0.3199
 1946SOL    HW1 9243   8.193   2.419   3.281 -0.6485  0.0126 -0.5033
 1946SOL    HW2 9244   8.310   2.494   3.342  0.9917 -1.5955 -1.5952
 1947SOL     OW 9245   6.736   4.599  10.140  0.1963 -0.0395  0.5653
 1947SOL    HW1 9246   6.815   4.546  10.128 -0.8086 -1.6499  1.0159
 1947SOL    HW2 9247   6.756   4.681  10.095  2.5525  0.0022  1.5946
 1948SOL     OW 9248   0.146   9.454   0.414  0.5976  0.0979  0.0044
 1948SOL    HW1 9249   0.236   9.430   0.395  1.2022  0.2415  2.5377
 1948SOL    HW2 9250   0.118   9.392   0.481 -1.7935 -1.0538 -1.9483
 1949SOL     OW 9251   6.739   1.704   0.420  0.4146 -0.0944  0.4116
 1949SOL    HW1 9252   6.743   1.786   0.468 -2.5061  0.2878  0.0654
 1949SOL    HW2 9253   6.753   1.728   0.329  0.1205 -0.0692  0.3745
 1950SOL     OW 9254   1.405   3.974  10.286 -0.0918 -0.3782  0.1207
 1950SOL    HW1 9255   1.386   3.934  10.201 -0.1015 -1.7104  0.7413
 1950SOL    HW2 9256   1.324   4.019  10.310  0.5869  1.7975 -1.5485
 1951SOL     OW 9257   2.239   0.180   5.162  0.0896 -1.0131  0.1007
 1951SOL    HW1 9258   2.144   0.177   5.174  0.1567 -2.1186  0.4896
 1951SOL    HW2 9259   2.259   0.271   5.143 -1.0611 -0.7855 -0.0329
 1952SOL     OW 9260   9.835   3.559   4.882  0.2234 -0.0488 -0.0761
 1952SOL    HW1 9261   9.740   3.546   4.887  0.0302  1.4536  0.1616
 1952SOL    HW2 9262   9.849   3.594   4.794  0.3844  1.1920  0.4418
 1953SOL     OW 9263   6.285   5.252   7.824  0.0147 -0.5306  0.0502
 1953SOL    HW1 9264   6.239   5.254   7.740 -0.5908  0.3370  0.3962
 1953SOL    HW2 9265   6.227   5.203   7.882  0.5784 -1.4020 -0.1164
 1954SOL     OW 9266   5.257   6.843   0.229  0.1885 -0.0670  0.0530
 1954SOL    HW1 9267   5.350   6.832   0.247  0.3240  1.8796  0.7440
 1954SOL    HW2 9268   5.247   6.937   0.213 -1.6113 -0.2889 -0.2583
 1955SOL     OW 9269  10.099   6.977   9.290 -0.4016  0.1872  0.3733
 1955SOL    HW1 9270  10.149   6.959   9.370  1.6414 -0.5257 -1.0409
 1955SOL    HW2 9271  10.012   6.942   9.308  0.9372 -2.8736  1.1299
 1956SOL     OW 9272   0.590   5.358   6.876 -0.1988 -0.1381  0.4677
 1956SOL    HW1 9273   0.498   5.344   6.896 -0.5617  3.1289  1.4014
 1956SOL    HW2 9274   0.590   5.417   6.800  1.1121 -0.2649  0.3495
 1957SOL     OW 9275   9.614  10.742   3.437  0.0167  0.8684 -0.4896
 1957SOL    HW1 9276   9.540  10.682   3.436  0.1282  0.7292 -1.6293
 1957SOL    HW2 9277   9.578  10.825   3.469 -0.2393  0.3306  0.6368
 1958SOL     OW 9278   0.790   2.186   2.731  0.1233  0.2400 -0.2416
 1958SOL    HW1 9279   0.770   2.180   2.825 -0.8759  0.1002 -0.4603
 1958SOL    HW2 9280   0.746   2.266   2.703 -1.8015 -1.1139 -1.1458
 1959SOL     OW 9281   7.584   1.811   5.892 -0.4692  0.1205 -0.2166
 1959SOL    HW1 9282   7.604   1.894   5.936  0.7936 -0.0260 -0.4904
 1959SOL    HW2 9283   7.513   1.773   5.944  1.3846 -0.3296  2.0957
 1960SOL     OW 9284   1.247   8.995  10.462 -0.0261 -0.4626 -0.3881
 1960SOL    HW1 9285   1.265   9.026  10.373 -0.4160 -0.9064 -0.6196
 1960SOL    HW2 9286   1.262   9.072  10.517 -1.1743  0.1966 -0.9808
 1961SOL     OW 9287   0.215   8.095   1.691 -0.4615  0.1228 -0.3325
 1961SOL    HW1 9288   0.203   8.100   1.786  0.5418 -2.1171 -0.0546
 1961SOL    HW2 9289   0.133   8.127   1.654 -1.0842  0.4398  1.3107
 1962SOL     OW 9290   3.617   7.428   6.320 -0.2072 -0.2363  0.7227
 1962SOL    HW1 9291   3.670   7.465   6.391  0.8699 -0.2067 -0.0919
 1962SOL    HW2 9292   3.640   7.335   6.319 -0.8641 -0.4009  0.9736
 1963SOL     OW 9293   9.679   3.680   5.956  0.5686 -0.2466 -0.2974
 1963SOL    HW1 9294   9.587   3.656   5.970 -0.0020  0.8795 -1.9369
 1963SOL    HW2 9295   9.685   3.770   5.987  0.4038  0.6651 -2.7731
 1964SOL     OW 9296   2.244   7.618   5.410 -0.0735 -0.1505  1.0943
 1964SOL    HW1 9297   2.194   7.681   5.462 -0.2106 -0.6255  1.5367
 1964SOL    HW2 9298   2.326   7.663   5.391 -0.8142  0.7709  0.0536
 1965SOL     OW 9299   5.933   8.265   8.715 -0.2979  0.0972  0.2173
 1965SOL    HW1 9300   5.840   8.265   8.691 -0.4196 -1.6889  0.6774
 1965SOL    HW2 9301   5.933   8.262   8.810  0.2427  0.4455  0.2294
 1966SOL     OW 9302   1.901  10.095   3.636 -0.0133  0.7863 -0.5012
 1966SOL    HW1 9303   1.975  10.149   3.663  0.5173 -0.7274  1.1845
 1966SOL    HW2 9304   1.824  10.143   3.666  0.4696  0.4520  1.3140
 1967SOL     OW 9305   1.858   0.241   1.946 -0.2829  0.3916  0.2776
 1967SOL    HW1 9306   1.926   0.308   1.933  0.5559 -0.4597  0.2793
 1967SOL    HW2 9307   1.779   0.280   1.908  0.5044  0.8655 -0.8958
 1968SOL     OW 9308   0.234   4.189   5.443  0.2600  0.3509 -0.7537
 1968SOL    HW1 9309   0.265   4.131   5.512  1.0782  0.0235 -1.3868
 1968SOL    HW2 9310   0.300   4.181   5.374 -0.8556  0.2121 -1.8191
 1969SOL     OW 9311   2.539  10.437   3.023  0.5614  0.0478  0.4210
 1969SOL    HW1 9312   2.518  10.527   3.001  1.2263 -0.4705 -2.5869
 1969SOL    HW2 9313   2.456  10.390   3.012  0.8138 -0.1495 -0.6947
 1970SOL     OW 9314   1.455   6.728   6.663 -0.1012  0.4151 -0.0599
 1970SOL    HW1 9315   1.411   6.652   6.701  0.2913 -0.5737 -1.5123
 1970SOL    HW2 9316   1.390   6.768   6.606 -0.5148  1.5712  1.1988
 1971SOL     OW 9317   5.597   1.730   5.872 -0.2130  0.3395 -0.2850
 1971SOL    HW1 9318   5.679   1.779   5.862 -0.5391  0.7806 -0.8029
 1971SOL    HW2 9319   5.579   1.696   5.785 -1.1432  1.1308 -0.4004
 1972SOL     OW 9320   1.436   0.138   1.217 -0.1844  0.2129 -0.6083
 1972SOL    HW1 9321   1.525   0.167   1.235  0.4275 -0.2008 -2.8243
 1972SOL    HW2 9322   1.414   0.179   1.134 -1.5865 -0.7290 -0.7136
 1973SOL     OW 9323   1.684  10.418   3.871 -0.4153 -0.0824 -0.2563
 1973SOL    HW1 9324   1.668  10.496   3.818 -0.2224  0.1718  0.0538
 1973SOL    HW2 9325   1.643  10.347   3.823 -3.4316  0.6943  1.0684
 1974SOL     OW 9326   3.507   4.241   8.157  0.4379  0.4099 -0.2550
 1974SOL    HW1 9327   3.484   4.158   8.117  1.0611  0.9218 -1.7381
 1974SOL    HW2 9328   3.451   4.305   8.113  0.8664  0.9278 -0.0509
 1975SOL     OW 9329   7.665   9.162   3.728  0.6518  0.2790  0.2882
 1975SOL    HW1 9330   7.697   9.072   3.726  2.3472  0.8387  1.6111
 1975SOL    HW2 9331   7.592   9.162   3.666  1.4193 -1.7022 -0.6748
 1976SOL     OW 9332  10.945   0.779   6.024 -0.3423  0.2421  0.1598
 1976SOL    HW1 9333  11.007   0.825   6.080  0.0079  0.4429 -0.3789
 1976SOL    HW2 9334  10.976   0.797   5.935 -2.2320  1.9133 -0.2324
 1977SOL     OW 9335   3.482   7.657  10.898 -0.1919 -0.5392 -0.0864
 1977SOL    HW1 9336   3.419   7.611  10.843 -0.1849 -1.1462  0.3960
 1977SOL    HW2 9337   3.460   7.629  10.987  0.6476 -0.6182  0.1005
 1978SOL     OW 9338   8.275   5.546   5.712  0.2724 -0.4110 -0.0685
 1978SOL    HW1 9339   8.312   5.630   5.684  0.4174 -0.5425 -0.2772
 1978SOL    HW2 9340   8.349   5.486   5.711  0.0362 -0.7010 -0.5918
 1979SOL     OW 9341   4.804  10.963   4.276  0.2129 -0.4974 -0.0930
 1979SOL    HW1 9342   4.760  10.877   4.271 -0.7856  0.0651 -1.4870
 1979SOL    HW2 9343   4.895  10.945   4.252  0.3163 -1.3795  0.9375
 1980SOL     OW 9344   7.940   9.038   8.103 -0.3722  0.1170 -0.2328
 1980SOL    HW1 9345   7.998   8.963   8.090  0.2560  0.1341  2.2510
 1980SOL    HW2 9346   7.873   9.029   8.035  1.3859 -1.0137 -1.8641
 1981SOL     OW 9347   8.183   7.515   9.540  0.3218  0.1734 -0.5865
 1981SOL    HW1 9348   8.277   7.506   9.560  0.1141 -1.0000 -0.0822
 1981SOL    HW2 9349   8.170   7.459   9.464 -0.7182 -2.8600  1.7185
 1982SOL     OW 9350   6.100   6.833   8.371 -0.1315 -0.2869 -0.0951
 1982SOL    HW1 9351   6.165   6.883   8.420 -0.8104 -1.3291  1.9503
 1982SOL    HW2 9352   6.025   6.892   8.365  0.9539  0.9048 -2.4321
 1983SOL     OW 9353   3.192   7.129   6.921 -0.1387 -0.2510 -0.0629
 1983SOL    HW1 9354   3.131   7.190   6.963  1.0985 -0.2699  1.8250
 1983SOL    HW2 9355   3.154   7.043   6.936  0.2993 -0.2618  1.1138
 1984SOL     OW 9356   6.224   9.386   8.322  0.1858  0.1972 -0.1216
 1984SOL    HW1 9357   6.281   9.462   8.336  0.8260  0.0314 -1.7699
 1984SOL    HW2 9358   6.177   9.377   8.405  2.0709  0.7250  1.0403
 1985SOL     OW 9359   5.538   2.384   0.347  0.6921 -0.2747 -0.0535
 1985SOL    HW1 9360   5.609   2.320   0.356  0.2784 -0.9158 -1.3250
 1985SOL    HW2 9361   5.538   2.407   0.254 -0.6707 -0.1524 -0.0288
 1986SOL     OW 9362   8.852   2.629   7.856  0.3817  0.1234  0.3544
 1986SOL    HW1 9363   8.935   2.676   7.848  0.1711  0.4450  0.0220
 1986SOL    HW2 9364   8.788   2.697   7.876 -0.1665  0.1872 -1.5504
 1987SOL     OW 9365   7.168  10.432   9.447  0.4338 -0.3089  0.2475
 1987SOL    HW1 9366   7.094  10.462   9.394 -0.4063  0.7464  1.9853
 1987SOL    HW2 9367   7.138  10.350   9.487  0.9460 -0.9253 -0.5959
 1988SOL     OW 9368   7.546   2.537   9.117  0.0455 -0.3463  0.2270
 1988SOL    HW1 9369   7.608   2.483   9.068 -0.5567 -1.3160  0.5083
 1988SOL    HW2 9370   7.523   2.484   9.193  0.6120  0.9504  1.3270
 1989SOL     OW 9371   3.444   8.539   9.606 -0.2489 -0.7037  0.3903
 1989SOL    HW1 9372   3.487   8.501   9.529  0.8116 -0.2980  0.7721
 1989SOL    HW2 9373   3.515   8.549   9.670 -1.1062 -0.9408  1.3840
 1990SOL     OW 9374   1.108   9.316   0.762  0.2111 -0.4412  0.2591
 1990SOL    HW1 9375   1.033   9.377   0.763 -0.4675 -1.1726 -2.1288
 1990SOL    HW2 9376   1.157   9.337   0.841 -0.0064  3.2316 -0.4780
 1991SOL     OW 9377   9.190   1.023   6.142  0.1848  0.3879  0.2852
 1991SOL    HW1 9378   9.199   1.084   6.215 -1.0778 -0.5326  1.2041
 1991SOL    HW2 9379   9.099   0.994   6.145  0.3068 -0.1937 -1.2301
 1992SOL     OW 9380   4.789   5.573   0.601 -0.2465 -0.1863  0.4538
 1992SOL    HW1 9381   4.864   5.612   0.556 -0.5444  2.8939  2.4834
 1992SOL    HW2 9382   4.713   5.600   0.549 -0.2791  0.1628  0.6821
 1993SOL     OW 9383   8.972   4.203   7.735 -0.5328  0.2661 -0.2492
 1993SOL    HW1 9384   9.019   4.286   7.748  1.2408 -0.7469 -0.1300
 1993SOL    HW2 9385   8.956   4.170   7.823 -1.3030  0.4909 -0.2953
 1994SOL     OW 9386   3.167   5.553   2.409  0.1016 -0.2308  0.4114
 1994SOL    HW1 9387   3.100   5.530   2.344  0.7770 -1.2621  0.0741
 1994SOL    HW2 9388   3.154   5.491   2.480  0.2986 -0.0294  0.6258
 1995SOL     OW 9389   7.110   6.205   8.356  0.1498 -0.4640 -0.0517
 1995SOL    HW1 9390   7.118   6.251   8.439  1.4476  0.3660 -0.6357
 1995SOL    HW2 9391   7.156   6.122   8.370 -0.4850 -0.7536  0.3615
 1996SOL     OW 9392   9.772   4.063   9.582  0.0458  0.1834  0.3105
 1996SOL    HW1 9393   9.677   4.078   9.584 -0.0791 -0.6139  0.5853
 1996SOL    HW2 9394   9.785   3.987   9.639  0.7787 -0.1104 -0.2506
 1997SOL     OW 9395   5.752   2.021   1.768 -0.4114 -0.4314  0.3140
 1997SOL    HW1 9396   5.720   2.092   1.713  0.8397 -0.6420 -0.7367
 1997SOL    HW2 9397   5.692   1.948   1.751 -1.1874  0.1160  0.7303
 1998SOL     OW 9398   3.540   3.479   4.145  0.3631  0.1740  0.1988
 1998SOL    HW1 9399   3.535   3.537   4.222 -0.1780  1.2302 -0.6253
 1998SOL    HW2 9400   3.632   3.478   4.122  0.5137 -0.0532  0.7796
 1999SOL     OW 9401   3.685   6.743   7.637  0.5129  0.1602 -0.8547
 1999SOL    HW1 9402   3.725   6.658   7.617 -0.8510 -0.8414  0.5351
 1999SOL    HW2 9403   3.755   6.806   7.626  1.8112 -1.2685 -0.9228
 2000SOL     OW 9404   1.572   5.031   8.656 -0.1071 -0.2437 -0.3221
 2000SOL    HW1 9405   1.586   5.026   8.561  1.6449  1.6274 -0.1911
 2000SOL    HW2 9406   1.660   5.031   8.693 -0.7763 -0.4740  1.2834
 2001SOL     OW 9407   5.901   7.901   8.952 -0.0953  0.1354 -0.3476
 2001SOL    HW1 9408   5.967   7.857   8.899 -0.8254  0.2023 -1.3185
 2001SOL    HW2 9409   5.832   7.924   8.890 -1.1398 -0.1488  0.7097
 2002SOL     OW 9410  10.515   5.956   7.698  0.4454 -0.7107 -0.8189
 2002SOL    HW1 9411  10.546   6.015   7.629 -0.3175  0.0270 -0.5354
 2002SOL    HW2 9412  10.580   5.885   7.700  0.8949 -0.3307 -1.7531
 2003SOL     OW 9413   0.193   5.116   7.054  0.4063 -0.0425 -0.5331
 2003SOL    HW1 9414   0.214   5.046   7.116 -5.2456 -1.5521  0.0002
 2003SOL    HW2 9415   0.218   5.081   6.969 -0.2527 -1.8430 -0.0166
 2004SOL     OW 9416   4.187   3.970   7.240  0.5258 -0.5439  0.3131
 2004SOL    HW1 9417   4.221   3.946   7.327  1.4866 -2.0991 -0.4680
 2004SOL    HW2 9418   4.126   3.900   7.219  1.1653 -0.7867 -0.7517
 2005SOL     OW 9419   3.850   6.425   0.962 -0.2621 -0.3817  0.0074
 2005SOL    HW1 9420   3.799   6.486   1.015 -0.5118 -0.2492 -0.3850
 2005SOL    HW2 9421   3.844   6.342   1.010 -1.1096 -0.4412 -0.2024
 2006SOL     OW 9422  10.907   9.805   5.232 -0.2384 -0.2186 -0.4419
 2006SOL    HW1 9423  10.981   9.865   5.219 -1.0863  0.9461 -0.0220
 2006SOL    HW2 9424  10.869   9.794   5.145  0.4451 -0.8509 -0.6656
 2007SOL     OW 9425   3.380   9.776   2.739  0.1809  0.2666 -0.1431
 2007SOL    HW1 9426   3.387   9.857   2.689 -0.4679  0.2478 -0.2595
 2007SOL    HW2 9427   3.346   9.712   2.676  1.3030 -0.2607 -0.2348
 2008SOL     OW 9428   4.989   0.502   2.418  1.0334  0.5244  0.0582
 2008SOL    HW1 9429   5.050   0.445   2.371  0.8407 -0.6026  1.1589
 2008SOL    HW2 9430   5.010   0.590   2.387  2.4813  0.0267 -0.3989
 2009SOL     OW 9431   6.641   8.361   9.384 -0.1974  0.1638  0.2697
 2009SOL    HW1 9432   6.731   8.392   9.385 -0.1483  0.0739 -1.1635
 2009SOL    HW2 9433   6.588   8.441   9.382 -0.1747  0.2289  1.6272
 2010SOL     OW 9434  10.501   2.437   6.124 -0.1402  0.4875 -0.2082
 2010SOL    HW1 9435  10.579   2.406   6.171 -0.1474  0.6128 -0.1102
 2010SOL    HW2 9436  10.442   2.466   6.194 -0.9722 -1.1874 -0.1829
 2011SOL     OW 9437   6.763   3.593   2.125 -0.1007  0.4448  0.4797
 2011SOL    HW1 9438   6.817   3.585   2.047 -0.0096 -1.2283  0.6969
 2011SOL    HW2 9439   6.758   3.687   2.142  1.0503  0.7237 -0.7100
 2012SOL     OW 9440   3.761   5.968   8.322  0.5687  0.3289  1.1233
 2012SOL    HW1 9441   3.787   5.957   8.414 -1.6026 -0.3913  1.6856
 2012SOL    HW2 9442   3.671   5.937   8.319  0.2899  1.2555 -1.0768
 2013SOL     OW 9443  10.472   9.620   1.017  0.3336 -0.0791 -0.3882
 2013SOL    HW1 9444  10.405   9.687   1.028 -0.2033 -0.8694  1.2468
 2013SOL    HW2 9445  10.549   9.656   1.060  0.2494 -0.2189 -0.1203
 2014SOL     OW 9446   6.246   4.702   1.437  0.2746 -0.3226  0.7954
 2014SOL    HW1 9447   6.317   4.639   1.443  0.7452  0.0911 -0.3837
 2014SOL    HW2 9448   6.246   4.747   1.522  1.5935 -0.1357  0.6997
 2015SOL     OW 9449   2.629   8.630   6.064  0.3574 -0.5492 -0.2670
 2015SOL    HW1 9450   2.624   8.561   5.997 -0.2946 -0.2058 -0.5762
 2015SOL    HW2 9451   2.712   8.674   6.048 -0.0504 -0.1158 -1.1973
 2016SOL     OW 9452   8.292   2.727   1.663 -0.9168  0.4652 -0.3040
 2016SOL    HW1 9453   8.288   2.822   1.662  0.9974  0.5861  0.9797
 2016SOL    HW2 9454   8.220   2.700   1.721 -1.5468  1.1220 -0.7862
 2017SOL     OW 9455  10.149   2.453   2.982  0.3039  0.2569 -0.7617
 2017SOL    HW1 9456  10.126   2.361   2.990 -1.6416  0.6428 -1.4801
 2017SOL    HW2 9457  10.143   2.488   3.071  0.6010 -0.2108 -0.5607
 2018SOL     OW 9458   4.972  10.102   5.450  0.2441  0.5919  0.5117
 2018SOL    HW1 9459   4.890  10.110   5.500 -1.8582  0.2315 -2.7279
 2018SOL    HW2 9460   5.007  10.016   5.475 -2.2089 -0.7995 -0.6283
 2019SOL     OW 9461   2.513   2.519   7.682  0.1695 -0.0663  0.7402
 2019SOL    HW1 9462   2.442   2.508   7.619  0.7127  1.6717 -0.2029
 2019SOL    HW2 9463   2.540   2.429   7.702  0.2351 -0.6731 -1.7999
 2020SOL     OW 9464   3.410   8.138   5.417  0.1334  0.6655  0.0228
 2020SOL    HW1 9465   3.501   8.166   5.417 -0.1517  1.6073 -0.1583
 2020SOL    HW2 9466   3.410   8.054   5.371  1.1657 -0.2119  1.5719
 2021SOL     OW 9467   6.774   3.043   2.926  0.3848 -0.3883  0.1621
 2021SOL    HW1 9468   6.728   3.017   2.846  2.3177  0.2352 -1.2051
 2021SOL    HW2 9469   6.744   3.132   2.943  0.0574 -0.4799  0.0667
 2022SOL     OW 9470   1.258   2.238   7.173  0.2063 -0.1378 -0.0618
 2022SOL    HW1 9471   1.274   2.234   7.078  1.4133 -1.2378  0.1735
 2022SOL    HW2 9472   1.218   2.153   7.194 -0.3789  0.2385  0.3651
 2023SOL     OW 9473   2.331   8.984   0.294 -0.0049 -0.2905  0.2179
 2023SOL    HW1 9474   2.237   8.984   0.280 -0.0922  2.7718  0.4518
 2023SOL    HW2 9475   2.369   8.974   0.207 -0.5111 -1.8992  0.1648
 2024SOL     OW 9476   0.542   0.401   8.252  0.4352  0.5427  0.6537
 2024SOL    HW1 9477   0.542   0.337   8.180 -0.5404  0.7493  0.4518
 2024SOL    HW2 9478   0.502   0.479   8.214 -0.3018  0.5780  1.4874
 2025SOL     OW 9479   5.830  10.359   9.930 -0.1192  0.2291 -0.0057
 2025SOL    HW1 9480   5.737  10.340   9.918 -0.2884  0.7039  0.4833
 2025SOL    HW2 9481   5.840  10.449   9.899 -0.0970  0.6412  1.1639
 2026SOL     OW 9482   6.483   0.920   8.914  0.1931  0.4359  0.0839
 2026SOL    HW1 9483   6.389   0.932   8.899  0.1673 -0.8182 -0.8146
 2026SOL    HW2 9484   6.493   0.924   9.009 -0.8033  0.3385  0.1974
 2027SOL     OW 9485   1.528   1.069   2.186  0.1394  0.6163 -0.1293
 2027SOL    HW1 9486   1.495   0.999   2.242  0.5022 -0.3740 -1.1490
 2027SOL    HW2 9487   1.498   1.150   2.229 -1.8727 -0.1916  0.0394
 2028SOL     OW 9488   0.376  10.740   3.889 -0.0804 -0.5396  0.0020
 2028SOL    HW1 9489   0.467  10.714   3.877 -0.1788 -1.0536  0.3996
 2028SOL    HW2 9490   0.344  10.685   3.960 -1.2287 -1.6517 -1.3409
 2029SOL     OW 9491   9.734   7.644   8.999 -0.5287  1.0610 -0.1933
 2029SOL    HW1 9492   9.684   7.584   9.055 -2.4072  2.3175 -0.4770
 2029SOL    HW2 9493   9.715   7.614   8.910  0.7511  0.3964 -0.2634
 2030SOL     OW 9494   1.998   1.142   1.345  0.2886  0.2605 -0.2582
 2030SOL    HW1 9495   2.022   1.147   1.252  1.0814 -1.0514 -0.1390
 2030SOL    HW2 9496   2.002   1.049   1.366 -2.1897  0.3061  0.5165
 2031SOL     OW 9497   4.400   6.747   1.070  0.8063 -0.0486 -0.5046
 2031SOL    HW1 9498   4.353   6.759   0.987 -1.4436  2.4090  1.0765
 2031SOL    HW2 9499   4.468   6.814   1.068 -0.5540  1.3725  0.5331
 2032SOL     OW 9500   7.120   9.526   5.425 -0.6026  0.0777 -0.1381
 2032SOL    HW1 9501   7.204   9.513   5.381 -0.0230 -0.3259  1.0581
 2032SOL    HW2 9502   7.085   9.438   5.438  0.1485  0.0655  1.9253
 2033SOL     OW 9503   6.223   5.701   4.550  0.2339  0.0069  0.3689
 2033SOL    HW1 9504   6.222   5.726   4.643 -0.6533 -0.9176  0.6127
 2033SOL    HW2 9505   6.232   5.606   4.551  0.4363  0.0139 -0.5024
 2034SOL     OW 9506   2.589   2.632   3.322 -0.1930  0.2214  0.7813
 2034SOL    HW1 9507   2.617   2.569   3.388  1.6090  0.0934 -0.0538
 2034SOL    HW2 9508   2.616   2.593   3.238 -0.0629  1.5678  0.1790
 2035SOL     OW 9509   6.727   3.251   4.990  0.1703 -0.0952 -0.7408
 2035SOL    HW1 9510   6.718   3.345   4.978 -0.8743 -0.1142 -0.1987
 2035SOL    HW2 9511   6.801   3.241   5.050  0.4590  0.3598 -1.0226
 2036SOL     OW 9512   7.055   7.960  10.975 -0.3449  0.1508  0.1848
 2036SOL    HW1 9513   7.127   7.996  10.923  0.2013 -1.0053  0.1208
 2036SOL    HW2 9514   7.099   7.912  11.046 -1.0714  0.8856  1.1539
 2037SOL     OW 9515   6.919   1.023   4.850 -0.3672  0.0824 -0.1950
 2037SOL    HW1 9516   6.959   0.938   4.868 -2.0270 -0.8672 -0.8977
 2037SOL    HW2 9517   6.874   1.011   4.766 -1.7097  1.2631  0.3392
 2038SOL     OW 9518   4.755   5.020   7.000  0.0638 -0.2266  0.1861
 2038SOL    HW1 9519   4.808   4.985   6.928  0.1361  2.5617 -1.2154
 2038SOL    HW2 9520   4.674   4.970   6.998 -0.3435  0.4847 -2.5249
 2039SOL     OW 9521   2.851  10.232   4.963  0.0477 -0.6648 -0.2002
 2039SOL    HW1 9522   2.776  10.177   4.939  0.7488 -2.1619  0.9798
 2039SOL    HW2 9523   2.812  10.309   5.003 -0.9269 -0.5973 -1.2440
 2040SOL     OW 9524  10.037   1.272   6.164  0.3097 -0.2545 -0.3555
 2040SOL    HW1 9525   9.985   1.333   6.111 -1.5476 -3.0954 -1.9276
 2040SOL    HW2 9526  10.054   1.320   6.245  0.0661  2.8355 -2.0572
 2041SOL     OW 9527   5.214  10.514   4.179  0.5662 -0.1350  0.1725
 2041SOL    HW1 9528   5.166  10.434   4.200 -0.5423  0.7993  1.2508
 2041SOL    HW2 9529   5.289  10.484   4.127  1.7171 -2.1890  2.9325
 2042SOL     OW 9530   5.233   3.617   7.661 -0.2122 -0.2351  0.0439
 2042SOL    HW1 9531   5.244   3.522   7.653 -1.1183 -0.2865 -0.6624
 2042SOL    HW2 9532   5.203   3.629   7.752  2.4878 -0.3622  0.9919
 2043SOL     OW 9533   8.611   5.848   1.966  0.3741 -0.2346  0.1340
 2043SOL    HW1 9534   8.699   5.823   1.938  0.5194  0.8234 -0.3504
 2043SOL    HW2 9535   8.624   5.924   2.023 -0.1572 -0.6364  0.7971
 2044SOL     OW 9536   6.417  10.007  10.180 -0.4801 -0.0081 -0.3422
 2044SOL    HW1 9537   6.362  10.074  10.140 -1.3491 -0.4622  0.0776
 2044SOL    HW2 9538   6.356   9.952  10.230  0.6164  0.6756  1.8002
 2045SOL     OW 9539  10.558   1.227   0.288 -0.1237  0.4582 -0.0164
 2045SOL    HW1 9540  10.615   1.291   0.330 -0.5258  0.6531  0.2270
 2045SOL    HW2 9541  10.560   1.251   0.195  1.0126 -0.1650 -0.1634
 2046SOL     OW 9542   8.558   1.186   5.705  0.8977  0.2042 -0.0944
 2046SOL    HW1 9543   8.605   1.268   5.724  1.4160 -0.4523  1.4702
 2046SOL    HW2 9544   8.465   1.209   5.714  1.0959  0.0701  2.7373
 2047SOL     OW 9545  10.144   1.992   2.364 -0.1187 -0.3100 -0.5913
 2047SOL    HW1 9546  10.123   1.993   2.270 -0.9843 -0.0254 -0.4010
 2047SOL    HW2 9547  10.062   2.017   2.407  0.3163 -0.2985  0.2384
 2048SOL     OW 9548   7.872   1.339  10.807  0.4725 -0.6994 -0.0353
 2048SOL    HW1 9549   7.913   1.258  10.777 -1.1875 -0.9202 -1.8106
 2048SOL    HW2 9550   7.827   1.315  10.888  0.1426 -1.5443 -0.4584
 2049SOL     OW 9551   4.669  10.456   2.668  0.3634 -0.0984 -0.0745
 2049SOL    HW1 9552   4.697  10.500   2.588  0.9687  0.8362  0.6412
 2049SOL    HW2 9553   4.619  10.380   2.638 -1.3578  1.4808 -1.3361
 2050SOL     OW 9554   2.405   6.697   7.236 -0.5051 -0.0971 -0.2010
 2050SOL    HW1 9555   2.452   6.718   7.317 -0.9892  2.3007 -0.5074
 2050SOL    HW2 9556   2.459   6.736   7.167 -0.4911 -1.4666 -0.9685
 2051SOL     OW 9557   0.982   0.333   0.670 -0.3293 -1.0884  0.4651
 2051SOL    HW1 9558   0.948   0.337   0.759 -1.7274  1.5868 -0.1196
 2051SOL    HW2 9559   0.904   0.339   0.614  0.6758 -0.6961 -0.9353
 2052SOL     OW 9560  10.186   8.667   1.236  0.0819  0.1960 -0.1116
 2052SOL    HW1 9561  10.276   8.697   1.252 -0.2716  1.9648 -1.2123
 2052SOL    HW2 9562  10.184   8.648   1.142 -0.5867 -0.1574 -0.0245
 2053SOL     OW 9563   9.371   0.506   0.038 -0.0334 -0.4480 -0.5420
 2053SOL    HW1 9564   9.394   0.417   0.065 -0.0983  0.1917  1.7203
 2053SOL    HW2 9565   9.418   0.519  -0.044 -0.0096 -2.5628 -0.8828
 2054SOL     OW 9566   2.162   5.352   3.427  0.6058 -0.3854  0.0375
 2054SOL    HW1 9567   2.208   5.354   3.344  1.7534 -0.5545  0.6641
 2054SOL    HW2 9568   2.204   5.420   3.480 -0.7884  0.4272  0.1365
 2055SOL     OW 9569   7.690   2.492   4.467 -1.0849 -0.3540 -0.3928
 2055SOL    HW1 9570   7.680   2.522   4.557  0.6055  1.2576 -0.7011
 2055SOL    HW2 9571   7.782   2.466   4.460 -1.3596 -1.1299 -1.4758
 2056SOL     OW 9572   6.582   2.452   1.823  0.7351 -0.1452  0.2894
 2056SOL    HW1 9573   6.490   2.466   1.799  0.9947 -0.4258 -0.8636
 2056SOL    HW2 9574   6.593   2.357   1.824  1.3339 -0.0876 -0.7862
 2057SOL     OW 9575   0.285   4.930   7.195  0.0830 -0.1426  0.5324
 2057SOL    HW1 9576   0.229   4.856   7.220  1.4629 -0.8211  1.6799
 2057SOL    HW2 9577   0.369   4.910   7.235  1.8753 -0.3679 -3.1326
 2058SOL     OW 9578   0.706   8.828   8.483  0.3423  0.3186  0.4634
 2058SOL    HW1 9579   0.698   8.917   8.515  0.3737  0.8006 -0.8569
 2058SOL    HW2 9580   0.615   8.800   8.466  0.3157  0.0180  1.0826
 2059SOL     OW 9581   4.680   6.312   3.503 -0.2401  0.1241  0.1906
 2059SOL    HW1 9582   4.611   6.322   3.437 -0.9848 -0.3836  0.8812
 2059SOL    HW2 9583   4.632   6.295   3.585  0.6085  2.2311  1.1619
 2060SOL     OW 9584   1.209   8.328   8.436 -0.1348  0.2411 -0.2432
 2060SOL    HW1 9585   1.128   8.329   8.385 -0.3915  0.3103  0.1611
 2060SOL    HW2 9586   1.235   8.420   8.440 -0.2483  0.2666 -0.0465
 2061SOL     OW 9587   2.781   8.947   8.948 -0.0019 -0.2138  0.1339
 2061SOL    HW1 9588   2.853   8.976   8.892 -1.6564  0.4893 -1.6815
 2061SOL    HW2 9589   2.781   8.852   8.939 -0.6241 -0.0693 -1.5548
 2062SOL     OW 9590   7.070   8.410   7.898  0.1114 -0.3348  0.0359
 2062SOL    HW1 9591   7.109   8.325   7.915 -0.0103 -0.2233  0.9070
 2062SOL    HW2 9592   7.143   8.464   7.866  0.1788 -0.7741 -0.5457
 2063SOL     OW 9593   8.085   9.903   8.329  0.1312 -0.0421 -0.2846
 2063SOL    HW1 9594   8.168   9.861   8.353  0.9704  2.4392  1.2712
 2063SOL    HW2 9595   8.038   9.913   8.412 -1.4372 -0.7111 -1.0546
 2064SOL     OW 9596   4.187   9.182   4.836  0.0288  0.3218  0.1435
 2064SOL    HW1 9597   4.228   9.124   4.901 -1.1745 -1.6390 -0.7999
 2064SOL    HW2 9598   4.099   9.198   4.870 -0.1482  0.3849 -0.3445
 2065SOL     OW 9599   5.578   9.306   3.025 -0.2316  0.0347 -0.0925
 2065SOL    HW1 9600   5.569   9.295   2.931  0.8712 -1.4195 -0.0644
 2065SOL    HW2 9601   5.561   9.219   3.061  1.4981  0.0406  0.8479
 2066SOL     OW 9602  10.934   2.189   3.313  0.7347 -0.7142  0.0132
 2066SOL    HW1 9603  10.841   2.167   3.313  1.1334 -2.5220 -1.4386
 2066SOL    HW2 9604  10.940   2.266   3.370 -1.3402 -1.7612  1.7313
 2067SOL     OW 9605   0.929   3.515   4.325  0.4607  0.0947  0.2673
 2067SOL    HW1 9606   0.877   3.590   4.298 -0.4751 -0.5908  0.1268
 2067SOL    HW2 9607   0.865   3.452   4.359  1.2028 -0.7187  0.1928
 2068SOL     OW 9608  10.905   2.843   5.386  0.4262  0.4184 -0.3703
 2068SOL    HW1 9609  10.944   2.924   5.418 -3.0364  1.7200  0.7500
 2068SOL    HW2 9610  10.854   2.869   5.309  0.0571 -0.8708 -0.5774
 2069SOL     OW 9611   5.619   5.451   7.746 -0.0939  0.2276 -0.0712
 2069SOL    HW1 9612   5.569   5.433   7.826 -0.2532  0.7247 -0.0598
 2069SOL    HW2 9613   5.710   5.441   7.773 -0.1462  0.4264  0.1786
 2070SOL     OW 9614   9.937   0.667   4.433 -0.2758 -0.2705 -0.0719
 2070SOL    HW1 9615   9.952   0.698   4.522  0.3482 -2.8002  0.7444
 2070SOL    HW2 9616   9.895   0.582   4.444 -1.0296 -0.2043 -2.2215
 2071SOL     OW 9617   0.523   9.704   0.693  0.6200 -0.0588  0.3152
 2071SOL    HW1 9618   0.440   9.656   0.693  0.5336  0.0764  1.4822
 2071SOL    HW2 9619   0.497   9.796   0.705  0.9903 -0.1178  1.5885
 2072SOL     OW 9620   1.140   9.781   0.278  0.1706 -0.1645 -0.1262
 2072SOL    HW1 9621   1.072   9.830   0.326 -0.4512 -0.1939 -0.9713
 2072SOL    HW2 9622   1.097   9.697   0.257  1.2060 -1.0768  1.2766
 2073SOL     OW 9623   2.873   2.457   0.159  0.1673 -0.0238 -0.5538
 2073SOL    HW1 9624   2.907   2.507   0.233 -0.8479 -0.7062  0.3957
 2073SOL    HW2 9625   2.823   2.521   0.108 -2.7512 -0.4045  1.6955
 2074SOL     OW 9626   2.480   1.490   5.058  0.2017 -0.0267  0.0185
 2074SOL    HW1 9627   2.520   1.555   5.001  0.3229  1.3912  1.6757
 2074SOL    HW2 9628   2.388   1.488   5.031  0.3971  0.1528 -0.6668
 2075SOL     OW 9629   2.083   2.250   7.443  0.1544  0.5365  1.0209
 2075SOL    HW1 9630   2.109   2.292   7.361 -0.4210 -0.1775  0.4640
 2075SOL    HW2 9631   2.056   2.322   7.499 -2.4882  0.8084 -0.5186
 2076SOL     OW 9632   6.012   2.398   3.107 -0.0631  0.1140 -0.1632
 2076SOL    HW1 9633   6.105   2.375   3.116 -0.5176 -1.8040 -0.1999
 2076SOL    HW2 9634   5.965   2.318   3.129 -1.6848  0.5120 -2.0267
 2077SOL     OW 9635   7.563  10.888   8.484 -0.4353 -0.4891 -0.3381
 2077SOL    HW1 9636   7.568  10.968   8.431 -0.7121 -0.5049 -0.3887
 2077SOL    HW2 9637   7.471  10.882   8.509  0.0272  0.5668  1.7335
 2078SOL     OW 9638   0.142   4.701   0.474  0.3154 -0.2302  0.3740
 2078SOL    HW1 9639   0.121   4.627   0.417  0.8858 -0.4759  0.4759
 2078SOL    HW2 9640   0.115   4.672   0.561  3.2921 -1.5485  0.9388
 2079SOL     OW 9641   9.877   6.638   9.340  0.4502  0.0619 -0.4983
 2079SOL    HW1 9642   9.871   6.687   9.257 -1.3035  0.3603 -0.2272
 2079SOL    HW2 9643   9.786   6.615   9.360  0.9075 -0.3691  1.1379
 2080SOL     OW 9644   9.259   8.898   3.146  0.2193  0.2566 -0.4649
 2080SOL    HW1 9645   9.324   8.952   3.101 -0.2679  1.9778  0.8510
 2080SOL    HW2 9646   9.207   8.960   3.197 -1.1743 -1.3222  0.0932
 2081SOL     OW 9647   4.259   2.652  10.457 -0.1310 -0.7009 -0.0161
 2081SOL    HW1 9648   4.272   2.600  10.377  2.8507 -0.4701  0.2637
 2081SOL    HW2 9649   4.241   2.587  10.525  1.4920 -1.2205 -0.0764
 2082SOL     OW 9650   4.022   8.150   9.621  0.2349  0.3156  0.0345
 2082SOL    HW1 9651   4.104   8.189   9.650  0.0195 -0.6748  2.0492
 2082SOL    HW2 9652   4.046   8.063   9.589 -0.0589 -0.1043  0.9402
 2083SOL     OW 9653   3.493   9.245   0.196 -0.2416 -0.3700 -0.2598
 2083SOL    HW1 9654   3.557   9.176   0.216  0.1518  0.1657  0.3372
 2083SOL    HW2 9655   3.543   9.312   0.151 -0.6382 -0.4920 -0.8864
 2084SOL     OW 9656   3.909   8.808   5.798 -0.1327 -0.2790  0.0939
 2084SOL    HW1 9657   3.819   8.799   5.767 -0.2159 -0.7197  0.4582
 2084SOL    HW2 9658   3.957   8.843   5.723 -0.3136 -1.4007 -0.5495
 2085SOL     OW 9659   2.511   9.745   5.292 -0.0948  0.1287  0.0467
 2085SOL    HW1 9660   2.445   9.811   5.273  0.4435  0.4353 -0.8144
 2085SOL    HW2 9661   2.576   9.755   5.222  2.1892  1.5750  2.3044
 2086SOL     OW 9662   7.502   9.299   2.078 -1.2213 -0.1755  0.2529
 2086SOL    HW1 9663   7.507   9.204   2.087 -1.8724 -0.3113 -0.7302
 2086SOL    HW2 9664   7.448   9.313   2.000  1.1659  0.9944 -1.2556
 2087SOL     OW 9665   3.047   9.163   1.516  0.1580  0.0978  0.4262
 2087SOL    HW1 9666   3.033   9.068   1.505  1.3580 -0.1291  0.7751
 2087SOL    HW2 9667   2.960   9.201   1.503 -0.3063 -1.0372  0.0867
 2088SOL     OW 9668   8.728   1.551   6.304 -0.0996 -0.0909 -0.2202
 2088SOL    HW1 9669   8.721   1.609   6.228 -1.3118 -0.1714 -0.1672
 2088SOL    HW2 9670   8.670   1.590   6.369  1.1303  0.1263  0.7668
 2089SOL     OW 9671   8.365   3.574   5.660 -0.1042  0.0240  0.0564
 2089SOL    HW1 9672   8.443   3.549   5.612 -0.4119  0.2741 -0.5771
 2089SOL    HW2 9673   8.337   3.493   5.704  0.5150 -0.0582  0.3003
 2090SOL     OW 9674   3.140   7.544   6.864 -0.2609 -0.1162  0.1730
 2090SOL    HW1 9675   3.066   7.564   6.921 -0.2927  1.6820 -0.4730
 2090SOL    HW2 9676   3.169   7.629   6.831  1.8728 -0.8271  0.1339
 2091SOL     OW 9677   7.409   1.476   8.047 -0.1557 -0.1346 -0.1141
 2091SOL    HW1 9678   7.415   1.527   8.128 -1.1130  0.9536 -0.7033
 2091SOL    HW2 9679   7.350   1.403   8.069  1.5475 -1.2470  0.8462
 2092SOL     OW 9680   6.256   7.974   8.167  0.3056 -0.1029 -0.0422
 2092SOL    HW1 9681   6.339   8.020   8.181  0.1496  0.4014 -0.7226
 2092SOL    HW2 9682   6.204   8.035   8.115 -0.4264 -0.4928  0.2274
 2093SOL     OW 9683   0.179   1.623   4.879  0.3543 -0.5792 -0.2011
 2093SOL    HW1 9684   0.208   1.714   4.875  0.8996 -0.7468 -0.0887
 2093SOL    HW2 9685   0.260   1.572   4.885 -0.0048 -0.9804  1.3792
 2094SOL     OW 9686  10.362  10.684   2.288  0.3479 -0.8171  0.1791
 2094SOL    HW1 9687  10.356  10.635   2.206  4.3068 -1.3911  0.1137
 2094SOL    HW2 9688  10.322  10.626   2.354  1.0821 -2.2665 -0.6292
 2095SOL     OW 9689   3.895   8.399   4.546  0.1044 -0.3406  0.6442
 2095SOL    HW1 9690   3.854   8.316   4.522 -0.2571 -0.2744  1.0319
 2095SOL    HW2 9691   3.855   8.463   4.487 -1.4655 -0.0235  2.0196
 2096SOL     OW 9692   5.035   9.844   3.925  0.3210  0.4956  0.4092
 2096SOL    HW1 9693   4.983   9.764   3.910  0.7224  0.2346  0.4032
 2096SOL    HW2 9694   4.988   9.912   3.877  0.7564 -0.0289 -0.7603
 2097SOL     OW 9695   5.799   9.757   5.272  0.3724  0.0349 -0.0711
 2097SOL    HW1 9696   5.785   9.728   5.182  0.7831 -0.1914 -0.0645
 2097SOL    HW2 9697   5.716   9.797   5.298 -0.6633 -2.2989  0.3565
 2098SOL     OW 9698   5.061   4.814  10.903  0.4490  0.4530  0.1805
 2098SOL    HW1 9699   5.156   4.827  10.896  0.6685 -0.4870  1.3513
 2098SOL    HW2 9700   5.024   4.896  10.870  1.6801  0.9923  0.0918
 2099SOL     OW 9701   5.812   2.688   4.660 -0.7559 -0.1361  0.1575
 2099SOL    HW1 9702   5.861   2.633   4.599 -1.2451  1.2936 -1.5642
 2099SOL    HW2 9703   5.731   2.640   4.676 -0.5391 -0.6160 -0.1808
 2100SOL     OW 9704   5.266   9.789   5.239 -0.1236  0.6884  0.1677
 2100SOL    HW1 9705   5.234   9.699   5.230 -0.8475  0.6024  3.1587
 2100SOL    HW2 9706   5.198   9.842   5.197 -0.4576 -0.0486 -0.2467
 2101SOL     OW 9707   9.964   6.654   6.471 -0.0677 -0.0104 -0.1259
 2101SOL    HW1 9708   9.986   6.573   6.517 -0.4081 -0.1044 -0.1292
 2101SOL    HW2 9709   9.879   6.680   6.507  0.7638  1.1842  1.0224
 2102SOL     OW 9710   9.993  10.047   3.397  0.2136  0.3846 -0.3724
 2102SOL    HW1 9711  10.045  10.094   3.332  1.4319  0.1951  0.4237
 2102SOL    HW2 9712   9.936   9.990   3.346  0.8630  0.5371 -1.2834
 2103SOL     OW 9713   2.890   6.358  10.864  0.1752 -0.5970 -0.9661
 2103SOL    HW1 9714   2.926   6.424  10.804 -0.6094 -0.5996 -1.4490
 2103SOL    HW2 9715   2.937   6.372  10.946 -0.1649  0.7475 -0.9880
 2104SOL     OW 9716   7.791   1.402   1.308 -0.0053 -0.4465  0.2002
 2104SOL    HW1 9717   7.833   1.384   1.224 -2.1688 -0.2670 -0.9464
 2104SOL    HW2 9718   7.862   1.395   1.372  1.6351 -0.7720 -1.6066
 2105SOL     OW 9719   0.784   3.743   8.480  0.7875 -0.1181 -0.1795
 2105SOL    HW1 9720   0.842   3.760   8.554 -0.5201  0.3132  0.7707
 2105SOL    HW2 9721   0.764   3.829   8.445 -1.7239  0.0169  1.4359
 2106SOL     OW 9722   7.993  10.466   9.131  0.2445 -0.0193 -0.7725
 2106SOL    HW1 9723   8.049  10.393   9.103 -0.8033 -0.7019 -1.1047
 2106SOL    HW2 9724   7.929  10.426   9.191  0.4404  0.8524  0.0398
 2107SOL     OW 9725  10.509  10.833   5.624  0.1317 -0.5150  0.4522
 2107SOL    HW1 9726  10.537  10.921   5.650  0.1917 -0.3774 -0.0623
 2107SOL    HW2 9727  10.439  10.811   5.686  0.7258 -0.4757  1.1391
 2108SOL     OW 9728   1.536   0.901   0.625 -0.0999 -0.2800 -0.0280
 2108SOL    HW1 9729   1.619   0.942   0.599 -0.7037  1.2662  0.4478
 2108SOL    HW2 9730   1.479   0.912   0.549 -0.3409 -0.0429  0.1906
 2109SOL     OW 9731   1.698   4.690   1.197 -0.4601 -0.3781 -0.1836
 2109SOL    HW1 9732   1.711   4.674   1.104 -2.2161  0.1561 -0.5578
 2109SOL    HW2 9733   1.778   4.661   1.239  0.7454  0.3005 -1.9754
 2110SOL     OW 9734   9.403   4.149   5.005 -0.7019 -0.1630  0.0961
 2110SOL    HW1 9735   9.461   4.225   5.016 -0.4329 -0.4323  0.5581
 2110SOL    HW2 9736   9.317   4.187   4.986 -0.2721  0.2342 -1.0898
 2111SOL     OW 9737   8.672   1.463   5.706 -0.4036 -0.2185  0.3353
 2111SOL    HW1 9738   8.609   1.463   5.779 -2.1145  0.9763 -1.0951
 2111SOL    HW2 9739   8.757   1.463   5.749 -1.3439 -2.4123  2.3391
 2112SOL     OW 9740   3.112   0.277   0.277 -0.4650 -0.6057 -0.2509
 2112SOL    HW1 9741   3.202   0.262   0.248 -0.3034  0.4700 -0.3368
 2112SOL    HW2 9742   3.088   0.362   0.240 -0.7922  0.0735  1.4456
 2113SOL     OW 9743   2.384   7.529   6.419  0.0276 -0.0507  0.0938
 2113SOL    HW1 9744   2.361   7.557   6.507 -1.2738  1.9399 -0.8534
 2113SOL    HW2 9745   2.321   7.461   6.397  0.0611 -0.2151  0.5155
 2114SOL     OW 9746   4.374   2.373   7.922 -0.0169 -0.0126  0.0467
 2114SOL    HW1 9747   4.462   2.361   7.888  0.6593 -0.4586  1.9003
 2114SOL    HW2 9748   4.317   2.363   7.845  1.5538  0.7300 -1.2329
 2115SOL     OW 9749   0.177   2.983   7.385 -0.2825  0.2203 -0.4369
 2115SOL    HW1 9750   0.121   3.033   7.445  1.7122  1.5520  0.3389
 2115SOL    HW2 9751   0.182   2.896   7.426 -1.4114  0.2122 -0.2815
 2116SOL     OW 9752   8.365   9.241   0.652 -0.0335  0.4600  0.2518
 2116SOL    HW1 9753   8.394   9.309   0.712  0.7886  0.0500  0.3216
 2116SOL    HW2 9754   8.284   9.275   0.615  0.4739  1.5622  0.1399
 2117SOL     OW 9755   2.802   5.051   1.118  0.3570 -0.3734 -0.3080
 2117SOL    HW1 9756   2.729   5.108   1.090  0.4372 -0.6749 -1.1388
 2117SOL    HW2 9757   2.848   5.103   1.183  0.1763  0.3608 -0.7521
 2118SOL     OW 9758   5.320   6.195   3.021  0.9217  0.2680  0.3092
 2118SOL    HW1 9759   5.227   6.184   2.999  1.1288  0.6116 -0.7656
 2118SOL    HW2 9760   5.320   6.254   3.096  0.2699  0.2914  0.2956
 2119SOL     OW 9761   8.994   8.360   0.233  0.1929 -0.4514  0.2608
 2119SOL    HW1 9762   9.019   8.389   0.320  0.4043  0.7352 -0.1878
 2119SOL    HW2 9763   8.920   8.301   0.247  0.6194 -0.7462  1.2786
 2120SOL     OW 9764   6.934   7.026   0.823  0.2451 -0.3167 -0.7241
 2120SOL    HW1 9765   7.005   7.029   0.759 -0.7301  1.0664 -1.8034
 2120SOL    HW2 9766   6.928   6.935   0.849  1.8982 -0.5750 -1.2097
 2121SOL     OW 9767   4.946   8.535   9.189 -0.0044 -0.0012  0.6938
 2121SOL    HW1 9768   4.921   8.617   9.146  0.7780 -0.0086  0.2145
 2121SOL    HW2 9769   4.976   8.562   9.276 -0.2354  0.1640  0.7229
 2122SOL     OW 9770   8.060   5.840   8.314  0.3066  0.1830 -0.7114
 2122SOL    HW1 9771   8.146   5.800   8.303  0.2005 -0.7159  1.3952
 2122SOL    HW2 9772   8.042   5.833   8.408 -3.0041 -1.6179 -1.3809
 2123SOL     OW 9773   1.941   4.746   7.044 -0.4009 -0.4277 -0.2151
 2123SOL    HW1 9774   1.937   4.745   6.948 -0.0501  0.4295 -0.2471
 2123SOL    HW2 9775   2.035   4.750   7.063 -0.5194  0.6708  0.1451
 2124SOL     OW 9776   3.328   8.721   7.135 -0.2163  0.4209  0.1285
 2124SOL    HW1 9777   3.288   8.639   7.106  1.9729 -0.4016 -0.6491
 2124SOL    HW2 9778   3.336   8.773   7.056 -2.1283  1.6731  0.7083
 2125SOL     OW 9779   3.780   7.253   0.938  0.0568 -0.0205 -0.2886
 2125SOL    HW1 9780   3.817   7.176   0.981  2.4533  0.7263 -0.9069
 2125SOL    HW2 9781   3.689   7.230   0.921  0.4555 -2.3010  0.5090
 2126SOL     OW 9782   8.370   5.781   6.082 -0.3158  0.0831 -0.0710
 2126SOL    HW1 9783   8.446   5.755   6.030  1.2773  0.9787  1.7535
 2126SOL    HW2 9784   8.349   5.870   6.051  1.0640  0.8923  1.2516
 2127SOL     OW 9785   1.508   4.455   4.023  0.2297 -0.3150 -0.1082
 2127SOL    HW1 9786   1.505   4.400   3.945 -0.5459 -0.5151  0.0597
 2127SOL    HW2 9787   1.598   4.446   4.055  0.7014  0.2123 -1.2795
 2128SOL     OW 9788   7.794   6.842   9.108 -0.4196 -0.9307  0.0339
 2128SOL    HW1 9789   7.796   6.912   9.173 -0.6874 -0.6935 -0.2105
 2128SOL    HW2 9790   7.710   6.853   9.063  0.5162  0.0086 -1.5427
 2129SOL     OW 9791   9.912  10.874   5.442  0.0891  0.3561  0.1642
 2129SOL    HW1 9792  10.002  10.875   5.407 -0.2942 -0.2503 -0.8534
 2129SOL    HW2 9793   9.874  10.793   5.408 -1.0005  0.8480  0.1952
 2130SOL     OW 9794  10.609   4.119   2.260 -0.5166 -0.2167  0.3185
 2130SOL    HW1 9795  10.698   4.127   2.295 -0.9167 -0.4501  1.3893
 2130SOL    HW2 9796  10.609   4.035   2.213  0.5616  0.9445 -1.8698
 2131SOL     OW 9797   9.649  10.599   8.257 -0.1482  0.3304 -0.1394
 2131SOL    HW1 9798   9.707  10.565   8.325  0.6097  1.7121 -0.0710
 2131SOL    HW2 9799   9.686  10.567   8.175 -0.4978 -0.5166  0.0284
 2132SOL     OW 9800  10.912   0.778   1.958 -0.0815  0.2895  0.1869
 2132SOL    HW1 9801  10.912   0.858   1.905  0.8167 -0.1770 -0.5195
 2132SOL    HW2 9802  11.000   0.773   1.994 -0.3646  0.0215  0.8466
 2133SOL     OW 9803   6.505   7.498   6.377  0.1935 -0.3279 -0.2895
 2133SOL    HW1 9804   6.590   7.481   6.338  0.6292  0.1869  0.4145
 2133SOL    HW2 9805   6.487   7.590   6.356  0.5321  0.0192  0.8783
 2134SOL     OW 9806   2.097   8.518   1.547 -0.1704 -0.6127 -0.5984
 2134SOL    HW1 9807   2.089   8.575   1.470  0.2959 -1.5157 -1.3141
 2134SOL    HW2 9808   2.190   8.521   1.569  0.3132 -3.1407 -2.2020
 2135SOL     OW 9809   2.696   6.485   4.981  0.1470 -0.1783 -0.2638
 2135SOL    HW1 9810   2.616   6.433   4.975 -0.2094  0.3342 -0.0259
 2135SOL    HW2 9811   2.767   6.421   4.986 -0.4483 -0.6740  2.5818
 2136SOL     OW 9812   3.571   3.907   4.818 -0.0766 -0.0586 -0.3832
 2136SOL    HW1 9813   3.630   3.880   4.888  0.2441  0.6812 -0.3604
 2136SOL    HW2 9814   3.488   3.863   4.837 -0.2999  0.9405  1.0266
 2137SOL     OW 9815   3.638   3.840   7.980 -0.1936 -0.3063 -0.1151
 2137SOL    HW1 9816   3.703   3.831   8.050  0.3576 -1.5588 -0.7629
 2137SOL    HW2 9817   3.648   3.760   7.929 -2.6446 -0.7927  0.1014
 2138SOL     OW 9818   0.940   3.213  10.908  0.0967 -0.4146  0.2151
 2138SOL    HW1 9819   0.872   3.199  10.842 -0.0007  1.1786 -0.0297
 2138SOL    HW2 9820   0.915   3.294  10.952  1.6769  0.0423  0.3132
 2139SOL     OW 9821  10.268   7.060   6.887 -0.2382  0.0728 -0.0384
 2139SOL    HW1 9822  10.288   7.117   6.812 -2.2279  0.2314 -0.4906
 2139SOL    HW2 9823  10.245   7.120   6.958 -0.8783 -0.1154 -0.0785
 2140SOL     OW 9824   8.207   1.110   1.603  0.0864 -0.1784 -0.2068
 2140SOL    HW1 9825   8.148   1.090   1.531  0.3820 -0.0849 -0.4741
 2140SOL    HW2 9826   8.224   1.204   1.596  1.2958 -0.4365 -0.9175
 2141SOL     OW 9827   7.985   0.814   8.787  0.4681 -0.5284  0.2469
 2141SOL    HW1 9828   7.989   0.909   8.776  1.0225 -0.4906  0.6795
 2141SOL    HW2 9829   7.913   0.800   8.848 -1.6279 -0.6337 -2.1893
 2142SOL     OW 9830   2.930   7.948   7.258 -0.1877  0.6508 -0.8208
 2142SOL    HW1 9831   2.864   7.895   7.215 -1.3219  1.9042 -0.6668
 2142SOL    HW2 9832   3.006   7.890   7.266 -1.3059 -0.8571 -0.8648
 2143SOL     OW 9833   1.759   4.228  10.169 -0.1564 -0.1013 -0.0232
 2143SOL    HW1 9834   1.822   4.276  10.116  0.2956  0.8173  1.3117
 2143SOL    HW2 9835   1.746   4.145  10.122  1.9435 -0.2568 -0.3856
 2144SOL     OW 9836   1.457   0.328   0.534 -0.3962 -0.4529  0.2007
 2144SOL    HW1 9837   1.534   0.353   0.587 -1.1408 -1.7934  1.9828
 2144SOL    HW2 9838   1.390   0.392   0.559 -0.5208 -0.6315  0.3251
 2145SOL     OW 9839   4.457   2.982   8.680 -0.4481  0.4030  0.5150
 2145SOL    HW1 9840   4.394   2.963   8.610 -0.3578  2.0147 -0.0216
 2145SOL    HW2 9841   4.439   2.916   8.746 -2.1350  0.3065 -0.0039
 2146SOL     OW 9842   2.239   4.322   4.456  0.0456  0.2562 -0.0527
 2146SOL    HW1 9843   2.302   4.290   4.392  1.5336 -0.4520  1.6885
 2146SOL    HW2 9844   2.292   4.339   4.534 -1.9158 -0.2235  1.4189
 2147SOL     OW 9845   5.151   1.477   3.374 -0.3065 -0.7929 -0.3386
 2147SOL    HW1 9846   5.202   1.556   3.393 -0.5546 -0.7506  0.1654
 2147SOL    HW2 9847   5.206   1.405   3.406 -0.3959 -0.7713 -0.1315
 2148SOL     OW 9848   2.766   9.123   4.360  0.6032  0.0230  0.4472
 2148SOL    HW1 9849   2.696   9.063   4.384  1.8762 -1.2828  1.0210
 2148SOL    HW2 9850   2.821   9.128   4.438  0.4713  2.0312  0.4326
 2149SOL     OW 9851  10.409   7.971   0.593 -0.1626 -0.0811 -0.2219
 2149SOL    HW1 9852  10.388   7.891   0.642 -2.4696 -0.0585 -1.1400
 2149SOL    HW2 9853  10.393   8.041   0.656  0.3575 -0.2358  0.0941
 2150SOL     OW 9854   9.442   7.472   1.778  0.3174 -0.5737 -0.3370
 2150SOL    HW1 9855   9.534   7.497   1.786  0.1915 -0.0620 -0.4464
 2150SOL    HW2 9856   9.400   7.510   1.855  0.0178  0.0683 -0.8044
 2151SOL     OW 9857   0.518   7.346   1.545  0.4039  0.1736  0.2763
 2151SOL    HW1 9858   0.500   7.393   1.464  0.6551  0.9311  0.6559
 2151SOL    HW2 9859   0.494   7.255   1.526  3.1695 -0.2097 -1.5427
 2152SOL     OW 9860  10.172   8.950   5.642 -0.1244  0.3258 -0.5573
 2152SOL    HW1 9861  10.191   8.949   5.548  1.1616 -0.5098 -0.2993
 2152SOL    HW2 9862  10.182   8.859   5.669 -1.5657  0.3728  0.1917
 2153SOL     OW 9863   2.448   1.046   3.554  0.4651 -0.6564 -0.0067
 2153SOL    HW1 9864   2.361   1.081   3.533  0.4269 -1.2626 -0.9005
 2153SOL    HW2 9865   2.479   1.008   3.471  0.6797 -2.3569  0.8317
 2154SOL     OW 9866   0.004  10.568   0.652 -0.1898 -0.1663  0.1642
 2154SOL    HW1 9867   0.097  10.550   0.636 -0.1912  1.2172 -1.6633
 2154SOL    HW2 9868  -0.024  10.500   0.713  1.7634 -1.2637 -0.1146
 2155SOL     OW 9869  10.868   6.761   8.886 -0.1985  0.1028 -0.0006
 2155SOL    HW1 9870  10.791   6.708   8.909 -0.2405  0.6076  1.0726
 2155SOL    HW2 9871  10.942   6.709   8.917 -0.2651  0.8710  1.4841
 2156SOL     OW 9872   7.184   6.583  10.721 -0.1774 -0.2921  0.3920
 2156SOL    HW1 9873   7.138   6.664  10.701 -0.8213 -0.8333 -0.3614
 2156SOL    HW2 9874   7.261   6.610  10.771 -0.9112  0.6895  1.0172
 2157SOL     OW 9875   8.472   1.319  10.374 -0.0576  0.0040  0.2635
 2157SOL    HW1 9876   8.410   1.247  10.382 -1.2864  0.8771 -1.2657
 2157SOL    HW2 9877   8.450   1.378  10.447  0.4750 -0.7927  1.0790
 2158SOL     OW 9878   1.270   3.647   0.807  0.1896 -0.6663 -0.3015
 2158SOL    HW1 9879   1.342   3.697   0.843  0.0895 -0.1337 -0.8343
 2158SOL    HW2 9880   1.242   3.590   0.879 -0.6892  1.1040  0.7944
 2159SOL     OW 9881   2.669   9.430   4.424  0.2214  0.0159 -0.2981
 2159SOL    HW1 9882   2.680   9.334   4.423  0.6272  0.0570  0.2070
 2159SOL    HW2 9883   2.684   9.455   4.515 -0.0431  0.5444 -0.4005
 2160SOL     OW 9884   3.867   1.116   2.114  0.3983 -0.3490 -0.5008
 2160SOL    HW1 9885   3.904   1.077   2.035 -0.7126  0.4224 -1.4211
 2160SOL    HW2 9886   3.797   1.057   2.140 -1.2868  0.9716 -1.8975
 2161SOL     OW 9887  10.134   2.163   3.056  0.3839  0.2230 -0.3341
 2161SOL    HW1 9888  10.123   2.071   3.032 -1.0778  0.8841 -2.3381
 2161SOL    HW2 9889  10.079   2.175   3.133  0.9814 -0.6816  0.2432
 2162SOL     OW 9890   3.737   5.338   2.018  0.3088 -0.2543  0.3870
 2162SOL    HW1 9891   3.713   5.419   2.062  0.4888  1.1857 -2.0599
 2162SOL    HW2 9892   3.661   5.317   1.963  1.4788 -0.0031 -1.3772
 2163SOL     OW 9893   7.246   3.060   3.585  0.2596  0.4516  0.3116
 2163SOL    HW1 9894   7.195   3.135   3.553 -0.9184 -0.8046 -0.8306
 2163SOL    HW2 9895   7.290   3.093   3.663 -1.4329  1.9124  0.6981
 2164SOL     OW 9896   0.067   0.562  10.349 -0.1269  0.2125 -0.1665
 2164SOL    HW1 9897   0.022   0.505  10.287  1.3832 -1.3435  0.1493
 2164SOL    HW2 9898   0.159   0.536  10.344  0.4065  1.8340  0.8332
 2165SOL     OW 9899   6.247   1.973   4.779 -0.1072 -0.3844  0.1702
 2165SOL    HW1 9900   6.228   2.066   4.766  1.1087 -0.0570  0.7305
 2165SOL    HW2 9901   6.222   1.932   4.696 -1.1061  0.3592  0.0936
 2166SOL     OW 9902   5.598   5.476   1.357 -0.8479 -0.0981  0.0550
 2166SOL    HW1 9903   5.628   5.386   1.350 -1.8841 -0.3969 -0.7612
 2166SOL    HW2 9904   5.643   5.522   1.286  0.1094  0.1603  0.8173
 2167SOL     OW 9905   7.936   9.715   8.593  0.4725  0.6351  0.2212
 2167SOL    HW1 9906   8.010   9.664   8.627  0.7523  0.4070 -0.7261
 2167SOL    HW2 9907   7.862   9.654   8.596 -0.0214  1.3065  2.5423
 2168SOL     OW 9908   6.538  10.657   5.700  0.3970  0.4020 -0.5202
 2168SOL    HW1 9909   6.546  10.582   5.759 -2.2462 -0.4282 -1.1597
 2168SOL    HW2 9910   6.575  10.627   5.617 -1.1727 -0.4003 -0.9379
 2169SOL     OW 9911   6.077   2.882   8.881 -0.1411  0.2124  0.2149
 2169SOL    HW1 9912   6.114   2.820   8.819 -0.8200 -0.3271  0.3545
 2169SOL    HW2 9913   6.015   2.934   8.829 -0.9198 -0.4261  0.4959
 2170SOL     OW 9914   3.943   0.770   9.659 -0.0671  0.1311  0.5029
 2170SOL    HW1 9915   3.877   0.832   9.690 -0.6583 -0.1733 -0.1275
 2170SOL    HW2 9916   3.997   0.751   9.736 -1.0564 -0.0407  1.1572
 2171SOL     OW 9917   9.811   8.380   8.309 -0.3691 -0.1977  0.2186
 2171SOL    HW1 9918   9.785   8.348   8.396 -2.7884 -1.7740 -1.0262
 2171SOL    HW2 9919   9.871   8.313   8.276  1.1639  0.7872  0.9498
 2172SOL     OW 9920   8.454   7.382   3.493 -0.1630 -0.1351 -0.1191
 2172SOL    HW1 9921   8.458   7.325   3.415 -2.7772  0.9869 -1.1327
 2172SOL    HW2 9922   8.429   7.323   3.564  0.2093 -0.8116 -0.5454
 2173SOL     OW 9923   5.736   5.610   1.133 -0.4492  0.1640 -0.8736
 2173SOL    HW1 9924   5.713   5.678   1.069  0.5269 -0.5081 -1.9774
 2173SOL    HW2 9925   5.759   5.534   1.079  0.2807 -0.4541  0.2932
 2174SOL     OW 9926   5.429   1.248   3.283 -0.4602 -0.0206  0.0517
 2174SOL    HW1 9927   5.437   1.159   3.317  0.1323  0.4740  1.2657
 2174SOL    HW2 9928   5.473   1.302   3.349  1.1765  0.9230 -1.7636
 2175SOL     OW 9929   0.121   5.292   4.231  0.4451 -0.7218 -0.4024
 2175SOL    HW1 9930   0.149   5.376   4.197  0.1027 -1.2295 -1.9946
 2175SOL    HW2 9931   0.076   5.250   4.158 -1.0310 -1.5193  0.9167
 2176SOL     OW 9932   8.872   8.194   1.264  0.2466  0.3178  0.2794
 2176SOL    HW1 9933   8.828   8.118   1.302  0.1027 -0.8408 -2.0655
 2176SOL    HW2 9934   8.814   8.268   1.280 -1.1393 -0.6621 -0.1812
 2177SOL     OW 9935   8.351   5.650  10.403 -0.1589  0.3876  0.2340
 2177SOL    HW1 9936   8.353   5.642  10.498 -1.4692  0.3655  0.2657
 2177SOL    HW2 9937   8.301   5.730  10.386  0.0884  0.4056 -0.4297
 2178SOL     OW 9938   6.536  10.119   3.052  0.3437  0.2997  0.3350
 2178SOL    HW1 9939   6.442  10.122   3.067  0.2245 -2.4599  0.3495
 2178SOL    HW2 9940   6.545  10.094   2.960  1.0304 -2.2721  1.0679
 2179SOL     OW 9941   6.279   4.828   7.134 -0.4015 -0.3002 -0.1504
 2179SOL    HW1 9942   6.262   4.866   7.048  0.2715  0.3494 -0.0081
 2179SOL    HW2 9943   6.217   4.873   7.192 -0.9391 -0.8273 -0.3163
 2180SOL     OW 9944   3.591  10.503   5.145 -0.6543 -0.3321 -0.3439
 2180SOL    HW1 9945   3.609  10.597   5.145  1.2714 -0.6645 -0.6319
 2180SOL    HW2 9946   3.609  10.475   5.055  1.8328 -1.4699  0.4441
 2181SOL     OW 9947   4.562   5.401   2.273  0.5058 -0.2930 -0.5452
 2181SOL    HW1 9948   4.539   5.322   2.224 -1.4420  0.6202 -1.1792
 2181SOL    HW2 9949   4.522   5.390   2.359 -1.5141  0.8224 -1.2900
 2182SOL     OW 9950   5.786   9.384   1.950 -0.0478  0.0129  0.2752
 2182SOL    HW1 9951   5.811   9.460   2.002 -1.3669  0.0229  0.9221
 2182SOL    HW2 9952   5.753   9.321   2.014 -0.2567 -0.5654 -0.3972
 2183SOL     OW 9953   3.840   2.624   2.263 -0.2716 -0.8109 -0.0015
 2183SOL    HW1 9954   3.769   2.563   2.241 -0.0508 -0.8201 -0.7003
 2183SOL    HW2 9955   3.797   2.696   2.308 -0.8742 -0.3419 -1.2977
 2184SOL     OW 9956   1.981   5.933   1.274 -0.3716 -0.1340  0.1260
 2184SOL    HW1 9957   1.957   6.010   1.326 -0.7469 -0.0027 -0.2307
 2184SOL    HW2 9958   2.073   5.947   1.251 -0.4223  0.1836  0.1091
 2185SOL     OW 9959   8.625   6.846   4.492  0.1094  0.1317 -0.4135
 2185SOL    HW1 9960   8.537   6.869   4.522  0.0422  1.5417 -1.6866
 2185SOL    HW2 9961   8.619   6.848   4.396  1.2917 -0.6929 -0.5121
 2186SOL     OW 9962  10.433   1.948   1.007 -0.5313  0.1141  0.2945
 2186SOL    HW1 9963  10.378   1.973   0.933  0.2397  1.9927  0.3483
 2186SOL    HW2 9964  10.478   1.868   0.977  0.2656  1.2059 -1.5322
 2187SOL     OW 9965   2.258   7.961   9.627 -0.3041 -0.4486  0.0335
 2187SOL    HW1 9966   2.188   7.920   9.575 -2.9336  1.6181  1.7940
 2187SOL    HW2 9967   2.325   7.984   9.562 -2.3749 -0.2182 -2.1051
 2188SOL     OW 9968   9.884   2.488   2.910  0.1635  0.1555 -0.0335
 2188SOL    HW1 9969   9.872   2.579   2.883  1.7140  0.1488 -0.7839
 2188SOL    HW2 9970   9.979   2.475   2.908 -0.0415 -1.4128  0.2992
 2189SOL     OW 9971   2.065   7.564   3.157  0.2570 -0.0047  0.2048
 2189SOL    HW1 9972   2.142   7.616   3.134 -0.4112  0.9560  0.1400
 2189SOL    HW2 9973   2.094   7.513   3.233  1.5968 -1.1770 -1.0586
 2190SOL     OW 9974   0.663   1.054   4.796 -0.2879 -0.3356  0.6210
 2190SOL    HW1 9975   0.570   1.030   4.796 -0.0946 -1.0966  0.0224
 2190SOL    HW2 9976   0.673   1.109   4.719 -0.0828 -0.8798  0.2600
 2191SOL     OW 9977   7.588   5.929   3.415 -0.2245 -0.0976  0.4327
 2191SOL    HW1 9978   7.649   5.924   3.342  0.7270  0.8014  1.1433
 2191SOL    HW2 9979   7.506   5.892   3.382  0.7769 -1.5215 -0.4551
 2192SOL     OW 9980   0.926   3.353   5.931  0.1566 -0.1555  0.2417
 2192SOL    HW1 9981   0.878   3.282   5.974 -1.5787  1.8601  1.6891
 2192SOL    HW2 9982   0.994   3.378   5.994  0.8720 -0.6174 -0.3358
 2193SOL     OW 9983   0.077   5.430   4.484 -0.3245 -0.3568 -0.2397
 2193SOL    HW1 9984   0.117   5.400   4.402  0.0433  0.3891 -0.3367
 2193SOL    HW2 9985   0.033   5.512   4.462 -2.2124 -1.3358 -0.1989
 2194SOL     OW 9986  10.551   7.185   7.858  0.5829  0.9666  1.0608
 2194SOL    HW1 9987  10.596   7.268   7.842  0.5977  0.3827 -2.3541
 2194SOL    HW2 9988  10.470   7.210   7.902  1.0427  2.6974  0.9516
 2195SOL     OW 9989  10.108   3.388  10.702  0.3993 -0.1268 -0.4480
 2195SOL    HW1 9990  10.059   3.308  10.722 -0.2167  0.3671  0.0240
 2195SOL    HW2 9991  10.080   3.451  10.768  0.9769  0.4473 -0.7430
 2196SOL     OW 9992   1.955   1.654   7.452 -0.3773 -0.1232  0.0622
 2196SOL    HW1 9993   1.879   1.597   7.444 -0.5831  0.0332  0.8676
 2196SOL    HW2 9994   1.920   1.736   7.486 -0.3313  1.0483 -2.5603
 2197SOL     OW 9995   4.739   4.858   2.299 -0.3310 -0.0851  0.2869
 2197SOL    HW1 9996   4.689   4.918   2.355  0.8726  2.0279 -0.8144
 2197SOL    HW2 9997   4.830   4.872   2.324  0.0091 -1.0748 -0.3657
 2198SOL     OW 9998   5.501   9.101   4.997 -0.5695 -0.0258 -0.1351
 2198SOL    HW1 9999   5.533   9.186   5.026 -0.1811  0.4042 -1.7532
 2198SOL    HW210000   5.407   9.114   4.982 -0.5966 -0.0052  0.0520
 2199SOL     OW10001  10.141   6.571   8.823  0.3842  0.3025 -0.4905
 2199SOL    HW110002  10.133   6.557   8.918 -2.6336 -0.7717 -0.8383
 2199SOL    HW210003  10.116   6.663   8.810  2.0660  0.8278 -0.1417
 2200SOL     OW10004   3.203   3.771   4.295  0.0104  0.2861  0.1666
 2200SOL    HW110005   3.222   3.691   4.246  0.5570  0.0428  0.7770
 2200SOL    HW210006   3.163   3.740   4.376 -0.6730  0.6786 -0.0169
 2201SOL     OW10007   9.050   6.008   0.239  0.9978  0.1857 -0.4013
 2201SOL    HW110008   9.084   6.075   0.180  0.9669 -0.5820 -1.3139
 2201SOL    HW210009   8.970   5.978   0.196 -0.1245  1.0502  1.0631
 2202SOL     OW10010   8.014   6.236   6.718  0.3027 -0.4642  0.4844
 2202SOL    HW110011   8.107   6.215   6.708  0.4421  0.3133  0.0917
 2202SOL    HW210012   7.976   6.219   6.631  0.3961  0.7848  0.2009
 2203SOL     OW10013   2.425   8.529   1.939 -0.2967 -0.3161 -0.8559
 2203SOL    HW110014   2.339   8.569   1.952  0.0388  0.1707 -0.1311
 2203SOL    HW210015   2.476   8.596   1.893 -0.1885 -0.4683 -0.9584
 2204SOL     OW10016   4.954   5.119   2.949  0.7189  0.3059  0.0478
 2204SOL    HW110017   4.948   5.209   2.981  0.3502  0.3737 -0.2152
 2204SOL    HW210018   5.024   5.080   3.001  1.5736  1.0427 -0.5317
 2205SOL     OW10019   5.842   0.502  10.609  0.2173  0.2185 -0.2861
 2205SOL    HW110020   5.827   0.597  10.599  0.0577  0.0689 -1.6795
 2205SOL    HW210021   5.785   0.476  10.681 -0.8209  0.9461 -0.8326
 2206SOL     OW10022   0.865   2.584  10.684 -0.3229  0.1658  0.4306
 2206SOL    HW110023   0.877   2.513  10.621  0.0766  0.7385 -0.1547
 2206SOL    HW210024   0.778   2.619  10.665 -0.5741 -0.2587  0.8109
 2207SOL     OW10025   7.762  10.808   8.634 -0.4632  0.2170 -0.0893
 2207SOL    HW110026   7.821  10.879   8.610  0.5702 -1.0123 -1.2661
 2207SOL    HW210027   7.677  10.834   8.598  0.3975 -0.1607 -2.4373
 2208SOL     OW10028  10.832   1.996   0.292  0.8070  0.3558  0.3121
 2208SOL    HW110029  10.885   2.070   0.321  0.7783  0.6189 -0.2939
 2208SOL    HW210030  10.791   1.962   0.372  2.2977 -0.1768  0.8799
 2209SOL     OW10031   3.199   5.344   6.913  0.5654 -0.1011  0.2712
 2209SOL    HW110032   3.276   5.401   6.913 -0.3054  1.0955  0.6545
 2209SOL    HW210033   3.146   5.376   6.840  0.7052 -1.3334 -0.3958
 2210SOL     OW10034   3.283   4.297   6.712  0.4252  0.2119  0.5583
 2210SOL    HW110035   3.235   4.311   6.794 -0.9307 -2.4757  0.2749
 2210SOL    HW210036   3.215   4.278   6.647  1.5501  1.4276 -0.9959
 2211SOL     OW10037   9.078   6.600   0.091 -0.5127 -0.1130  0.4263
 2211SOL    HW110038   9.040   6.686   0.074 -1.6533 -0.5055  0.8949
 2211SOL    HW210039   9.171   6.610   0.072 -1.1390  0.3897 -2.6452
 2212SOL     OW10040   9.797   5.483   5.586 -0.3161  0.6781  0.1469
 2212SOL    HW110041   9.764   5.401   5.623 -1.0949  0.2206 -1.5184
 2212SOL    HW210042   9.727   5.513   5.528  0.6230  1.6846 -0.4742
 2213SOL     OW10043   4.001   9.883   5.490  0.3606  0.1043  0.0681
 2213SOL    HW110044   3.929   9.944   5.496 -0.4717 -0.8973  0.3988
 2213SOL    HW210045   3.971   9.816   5.428  1.0602 -0.2327  0.0867
 2214SOL     OW10046   0.975   6.324   6.801  0.1779  0.0783  0.0877
 2214SOL    HW110047   1.046   6.289   6.747 -1.4360 -2.1406 -0.6313
 2214SOL    HW210048   1.010   6.323   6.890  1.0593 -0.9647 -0.2589
 2215SOL     OW10049   7.249  10.004   4.881 -0.0333 -0.6556 -0.4456
 2215SOL    HW110050   7.182  10.051   4.930  0.1833 -0.6733 -0.1326
 2215SOL    HW210051   7.235  10.031   4.790 -1.7092 -2.1351 -0.6646
 2216SOL     OW10052  10.740   7.839   7.843  0.3182 -0.0747 -0.3121
 2216SOL    HW110053  10.791   7.917   7.867  0.4718 -0.5551  0.9486
 2216SOL    HW210054  10.794   7.794   7.778  0.1865  0.9207 -1.1248
 2217SOL     OW10055   3.771  10.012   9.654 -0.1394  0.2858  0.4038
 2217SOL    HW110056   3.771  10.097   9.697  0.8574  0.1027  0.7826
 2217SOL    HW210057   3.770   9.948   9.725  3.0606 -0.0226  0.2406
 2218SOL     OW10058   5.966   8.632   6.587  0.2788  0.1843  0.5251
 2218SOL    HW110059   5.922   8.715   6.603  1.1984  0.4660  1.5997
 2218SOL    HW210060   6.013   8.646   6.505  0.4086  0.7075  0.6873
 2219SOL     OW10061  10.811   2.033   3.779  0.2407 -0.5941 -0.4584
 2219SOL    HW110062  10.896   1.998   3.753 -0.2182 -1.7242 -0.4517
 2219SOL    HW210063  10.823   2.060   3.870  1.1846  1.2274 -1.0842
 2220SOL     OW10064   7.845   1.206   6.400 -0.0200  0.3274 -0.0952
 2220SOL    HW110065   7.847   1.164   6.315 -0.4747 -0.9210  0.4970
 2220SOL    HW210066   7.802   1.291   6.384 -0.1375  0.0858 -1.0869
 2221SOL     OW10067   2.756   0.792   7.863 -0.1135  0.6238  0.4124
 2221SOL    HW110068   2.826   0.816   7.802  0.6274  0.6785  1.2764
 2221SOL    HW210069   2.766   0.853   7.936  1.0236 -1.4977  2.0745
 2222SOL     OW10070   2.570  10.615   3.274 -0.0421  0.2676  0.0632
 2222SOL    HW110071   2.491  10.587   3.320  0.4603  1.8792  1.9752
 2222SOL    HW210072   2.539  10.672   3.204 -0.6713 -0.3025 -0.1178
 2223SOL     OW10073   2.972   0.025   5.526  0.4987  0.2279 -0.3333
 2223SOL    HW110074   3.027  -0.052   5.539  0.4901  0.3477  0.4449
 2223SOL    HW210075   3.031   0.090   5.487  0.6770  0.0606 -0.3430
 2224SOL     OW10076   9.505   1.683   6.413 -0.4648 -0.0953  0.0865
 2224SOL    HW110077   9.595   1.677   6.442 -1.0127 -0.5782  1.7221
 2224SOL    HW210078   9.507   1.651   6.322  1.0446  0.2384 -0.0013
 2225SOL     OW10079   4.704   6.584   9.564  0.3787 -0.2861  0.6264
 2225SOL    HW110080   4.614   6.613   9.551 -0.5234 -3.0904  0.2744
 2225SOL    HW210081   4.697   6.517   9.632  2.3756  0.3331  1.4584
 2226SOL     OW10082   6.207   1.424   3.172  0.2957  0.1653 -0.1027
 2226SOL    HW110083   6.196   1.329   3.167 -0.0903  0.1321  1.1844
 2226SOL    HW210084   6.157   1.450   3.249  2.4661  1.0988  1.0410
 2227SOL     OW10085  10.702   1.103   4.072 -0.5908 -0.1135 -0.4910
 2227SOL    HW110086  10.743   1.137   3.993 -2.1198 -2.6715 -2.4328
 2227SOL    HW210087  10.766   1.040   4.107 -0.0472  0.7954  0.1863
 2228SOL     OW10088   1.262   5.638   0.273  0.2292  0.3942  0.3242
 2228SOL    HW110089   1.210   5.699   0.222  1.9209  1.8503  0.2761
 2228SOL    HW210090   1.264   5.558   0.221  1.3649  1.6348 -1.6067
 2229SOL     OW10091  10.852   2.257   6.531  0.4583 -0.0631 -0.2796
 2229SOL    HW110092  10.771   2.241   6.482  1.6115 -2.0743 -1.5838
 2229SOL    HW210093  10.910   2.185   6.506  1.4400 -0.5963  3.2795
 2230SOL     OW10094   9.545   1.526   0.640  0.1709 -0.2705  0.5302
 2230SOL    HW110095   9.520   1.579   0.716 -1.2961 -0.7234  0.3949
 2230SOL    HW210096   9.481   1.549   0.572  1.7542  0.4652 -0.7321
 2231SOL     OW10097   7.257   0.978   6.077  0.3806  0.4881 -0.1888
 2231SOL    HW110098   7.201   0.996   6.152  1.5282  3.7232 -0.0494
 2231SOL    HW210099   7.344   0.967   6.115  0.5442 -0.4430 -0.8199
 2232SOL     OW10100   2.287   0.170   8.442 -0.2797 -0.2758 -0.3118
 2232SOL    HW110101   2.337   0.244   8.408  0.2315 -0.1494  0.7078
 2232SOL    HW210102   2.339   0.136   8.515 -1.4621 -0.4133  0.4920
 2233SOL     OW10103   6.581   0.835   9.661  0.6991  0.2218 -0.5247
 2233SOL    HW110104   6.621   0.879   9.586 -0.8335  0.3346 -1.2941
 2233SOL    HW210105   6.645   0.768   9.687  1.7467  0.9551 -1.1944
 2234SOL     OW10106   8.674   0.242   8.989  1.0471 -0.0421 -0.0249
 2234SOL    HW110107   8.639   0.207   8.907  0.3055 -0.0527  0.2871
 2234SOL    HW210108   8.667   0.337   8.980 -0.2132 -0.0756  0.5240
 2235SOL     OW10109   4.950   8.170   1.453 -0.3172 -0.0870  0.0686
 2235SOL    HW110110   4.872   8.214   1.488 -0.0671  1.6434 -1.4560
 2235SOL    HW210111   5.023   8.210   1.498 -0.1908 -0.2838  0.0409
 2236SOL     OW10112   8.923   3.811   7.623  0.0303 -0.2837 -0.3213
 2236SOL    HW110113   8.960   3.754   7.556  0.2717  0.8810 -1.1973
 2236SOL    HW210114   8.975   3.794   7.701  1.3764  0.1591 -1.1129
 2237SOL     OW10115   8.632   7.300   0.904  0.1455  0.2415 -0.1816
 2237SOL    HW110116   8.547   7.324   0.867 -0.5490 -0.5111  0.8888
 2237SOL    HW210117   8.617   7.299   0.999  1.4495  0.4764  0.0349
 2238SOL     OW10118   9.659   7.460   7.740  0.4021 -0.7074 -0.1995
 2238SOL    HW110119   9.607   7.475   7.661  0.4130  0.4491  0.0066
 2238SOL    HW210120   9.623   7.521   7.805  0.3530 -1.6891  0.7097
 2239SOL     OW10121   7.755   2.528   5.276  0.2389  0.0490 -0.0396
 2239SOL    HW110122   7.665   2.549   5.250 -0.1413  0.8479  1.8669
 2239SOL    HW210123   7.748   2.448   5.327  0.7394 -0.3834 -0.6313
 2240SOL     OW10124   7.617   2.367   9.852  0.4538  0.7180 -0.0009
 2240SOL    HW110125   7.684   2.343   9.789 -2.1204 -2.3207 -1.7602
 2240SOL    HW210126   7.633   2.310   9.927  0.5499  0.7907  0.0332
 2241SOL     OW10127   9.965   2.473   5.333  0.5340 -0.3397 -0.3390
 2241SOL    HW110128   9.976   2.566   5.351  3.2347 -0.4776 -1.0503
 2241SOL    HW210129   9.994   2.430   5.413 -2.0308 -0.5842  0.5156
 2242SOL     OW10130   3.155   4.724   0.295 -0.0741  0.1630  0.3087
 2242SOL    HW110131   3.243   4.762   0.303  0.0983 -0.0936 -0.3346
 2242SOL    HW210132   3.133   4.733   0.202  0.0886 -1.5512  0.0766
 2243SOL     OW10133   0.335   0.037   6.789 -0.0533 -0.2126 -0.2168
 2243SOL    HW110134   0.294   0.109   6.741 -0.4916  0.9178  1.7746
 2243SOL    HW210135   0.396   0.080   6.849  1.2863 -1.6556 -0.5207
 2244SOL     OW10136   2.932   3.873   6.490 -0.4184 -0.2457  0.1940
 2244SOL    HW110137   2.919   3.919   6.573 -0.3386 -0.8500  0.5490
 2244SOL    HW210138   2.947   3.942   6.426  3.1773  0.1039  1.3125
 2245SOL     OW10139   1.057   7.878   2.264  0.3234  0.5895 -0.4145
 2245SOL    HW110140   1.037   7.828   2.343 -1.4120 -0.8992 -1.7631
 2245SOL    HW210141   1.047   7.969   2.290 -1.4344  0.0850  0.7684
 2246SOL     OW10142   6.595   3.864   4.934  0.1003 -0.2012  0.3061
 2246SOL    HW110143   6.571   3.947   4.975  0.4096  0.2068 -0.3313
 2246SOL    HW210144   6.581   3.799   5.003 -4.6093 -0.2585 -0.5066
 2247SOL     OW10145   2.142   0.878   3.404 -0.1766  0.3659 -0.0209
 2247SOL    HW110146   2.081   0.824   3.355  1.1819 -0.2968 -0.9772
 2247SOL    HW210147   2.189   0.817   3.461  0.7274  0.6591 -0.4491
 2248SOL     OW10148   6.841   3.174   6.861  0.2172 -0.1228  0.3719
 2248SOL    HW110149   6.894   3.105   6.900 -1.0054 -0.7570  0.9419
 2248SOL    HW210150   6.893   3.253   6.871  0.7705 -0.6248  1.5002
 2249SOL     OW10151   1.490   7.671   9.779 -0.0167  0.0219  0.4528
 2249SOL    HW110152   1.465   7.628   9.698 -2.1634  0.7795  0.6825
 2249SOL    HW210153   1.441   7.626   9.847  0.9910  0.0586  1.2289
 2250SOL     OW10154   3.347   0.307   0.747 -0.1888 -0.5596  0.5243
 2250SOL    HW110155   3.257   0.280   0.763  0.1203 -2.0094 -0.1060
 2250SOL    HW210156   3.400   0.246   0.798  0.4790 -0.4658 -0.0531
 2251SOL     OW10157   9.310   8.838   4.875  0.0099  0.5883  0.1106
 2251SOL    HW110158   9.267   8.922   4.893 -1.2765  0.0447 -0.3888
 2251SOL    HW210159   9.307   8.830   4.780 -0.3294 -0.2729  0.1963
 2252SOL     OW10160   0.282   2.838   8.523 -0.5661 -0.1494  0.1198
 2252SOL    HW110161   0.191   2.861   8.543  0.8765  3.1769  3.6252
 2252SOL    HW210162   0.302   2.886   8.443 -1.6812 -0.4287 -0.3431
 2253SOL     OW10163  10.827   0.929   1.193 -0.3251  0.1146 -0.8920
 2253SOL    HW110164  10.815   0.937   1.098 -0.0490  0.9545 -0.8617
 2253SOL    HW210165  10.909   0.881   1.203 -0.0301  0.5849 -1.0725
 2254SOL     OW10166   0.817   2.604   0.270  0.5393 -0.0753  0.0237
 2254SOL    HW110167   0.872   2.568   0.339 -0.2334 -1.6244 -0.1415
 2254SOL    HW210168   0.846   2.558   0.190  0.4959  0.6930 -0.4363
 2255SOL     OW10169   7.452   4.552   0.881  0.0502 -0.4505 -0.7678
 2255SOL    HW110170   7.395   4.509   0.945  1.9426 -1.0040  0.5739
 2255SOL    HW210171   7.466   4.486   0.813  1.2044 -1.2509  0.2217
 2256SOL     OW10172   4.113   7.136   8.942 -0.2627  0.3082 -0.0215
 2256SOL    HW110173   4.079   7.208   8.995 -1.2501 -0.4281  0.3575
 2256SOL    HW210174   4.114   7.169   8.853 -1.7226  0.4397 -0.0020
 2257SOL     OW10175   5.437   7.333   7.147 -0.9653 -0.3895 -0.2778
 2257SOL    HW110176   5.353   7.305   7.111 -0.5523 -1.1392 -0.6554
 2257SOL    HW210177   5.433   7.429   7.145 -2.3724 -0.4066  1.0390
 2258SOL     OW10178   8.166   5.410   8.158  0.6804 -0.1515  0.4864
 2258SOL    HW110179   8.154   5.434   8.250 -1.9946  0.2636  0.0767
 2258SOL    HW210180   8.170   5.493   8.111  1.2939 -0.3721  0.1425
 2259SOL     OW10181   2.626   6.452   9.503  0.9114  0.2066 -0.1138
 2259SOL    HW110182   2.683   6.381   9.533 -0.2088 -0.5079  0.3369
 2259SOL    HW210183   2.542   6.435   9.545  0.9908  2.5637  1.0679
 2260SOL     OW10184  10.428   4.181   5.387  0.5232  0.1231 -0.2900
 2260SOL    HW110185  10.458   4.155   5.300 -1.7597  0.5258 -1.2467
 2260SOL    HW210186  10.426   4.099   5.437  0.1994 -0.4080 -1.1525
 2261SOL     OW10187   7.518   6.999   8.524  0.3537  0.2759 -1.0435
 2261SOL    HW110188   7.486   6.970   8.609  0.7618 -0.4950 -1.1454
 2261SOL    HW210189   7.446   7.051   8.487 -1.6309 -3.0985 -2.1413
 2262SOL     OW10190   5.386  10.694   4.305  0.6157 -0.8143 -0.0785
 2262SOL    HW110191   5.402  10.697   4.399  1.4724 -0.7350 -0.2284
 2262SOL    HW210192   5.320  10.625   4.294 -0.5260  0.1304  0.7166
 2263SOL     OW10193   4.882   2.286  10.072 -0.3289 -0.1838 -0.3357
 2263SOL    HW110194   4.831   2.226  10.126  0.5651 -2.0656 -1.5653
 2263SOL    HW210195   4.821   2.317  10.005 -0.5837 -0.2680 -0.1433
 2264SOL     OW10196   9.136   9.206   4.010 -0.1287 -0.0551  0.3410
 2264SOL    HW110197   9.056   9.224   3.961  0.6087  0.1685 -0.7825
 2264SOL    HW210198   9.168   9.124   3.973 -1.0854 -1.4099  2.3997
 2265SOL     OW10199   3.726   6.357   0.222 -0.2892  0.1978 -0.1392
 2265SOL    HW110200   3.774   6.393   0.147  0.9759  0.7550  0.9174
 2265SOL    HW210201   3.793   6.335   0.286 -1.2844 -1.1813  0.4719
 2266SOL     OW10202   3.046   5.065   0.984 -0.2234 -0.3031 -0.8311
 2266SOL    HW110203   2.971   5.058   1.044  0.9724  0.6325  0.8305
 2266SOL    HW210204   3.031   5.147   0.938 -1.0417 -0.9194 -1.6767
 2267SOL     OW10205   2.935   9.402   4.809 -0.5696 -0.3427 -0.4511
 2267SOL    HW110206   2.974   9.401   4.897  1.4868  0.0170 -1.3358
 2267SOL    HW210207   3.009   9.410   4.750 -1.9496 -0.4844 -2.2407
 2268SOL     OW10208   0.033   5.164   8.100  0.2150  0.2058  0.4349
 2268SOL    HW110209   0.057   5.074   8.079 -0.6744  0.2508 -0.8601
 2268SOL    HW210210  -0.063   5.165   8.094  0.3791  2.2154 -3.8336
 2269SOL     OW10211   7.295   1.170   3.772  0.2771  0.2240 -0.0761
 2269SOL    HW110212   7.282   1.252   3.819  0.0341 -0.4905  1.1169
 2269SOL    HW210213   7.389   1.156   3.773  0.3040  0.4012 -0.1373
 2270SOL     OW10214   6.049   1.324   1.989 -0.1260  0.8172 -0.2319
 2270SOL    HW110215   5.978   1.261   1.978  2.2058 -2.1372  0.8759
 2270SOL    HW210216   6.054   1.339   2.084  1.1161  0.4639 -0.2263
 2271SOL     OW10217   6.435   6.530   2.945  0.1673  0.2782 -0.5846
 2271SOL    HW110218   6.465   6.449   2.903  0.1084  0.5211 -1.1009
 2271SOL    HW210219   6.514   6.568   2.983  0.6777  1.3287 -2.6364
 2272SOL     OW10220  10.694   1.690   0.357  0.2440  0.3152  0.1669
 2272SOL    HW110221  10.755   1.647   0.298  2.0034  1.1545  1.3238
 2272SOL    HW210222  10.712   1.651   0.443 -0.0432  1.4038  0.7329
 2273SOL     OW10223   0.695   9.814   0.011  0.0407  0.3460 -0.3564
 2273SOL    HW110224   0.631   9.762  -0.037  1.6168 -0.3977 -1.6868
 2273SOL    HW210225   0.642   9.873   0.065 -1.7568 -0.1891 -1.4905
 2274SOL     OW10226   4.038   5.439   7.860  0.2350  0.6760 -0.0442
 2274SOL    HW110227   4.062   5.485   7.780  0.1951  0.0950 -0.3907
 2274SOL    HW210228   3.946   5.461   7.873 -0.5758 -1.5788 -1.7673
 2275SOL     OW10229   5.943  10.050   8.102 -0.2464  0.3084  0.3253
 2275SOL    HW110230   6.039  10.045   8.105 -0.0381  0.3357 -3.3396
 2275SOL    HW210231   5.924  10.144   8.107 -0.1269  0.2686  1.6222
 2276SOL     OW10232   2.801   9.827  10.638 -0.1423  0.2441 -0.1149
 2276SOL    HW110233   2.790   9.736  10.664  1.2369 -0.3728 -1.6132
 2276SOL    HW210234   2.742   9.839  10.564  1.0372 -0.0010 -1.1309
 2277SOL     OW10235   5.426   5.200   6.583  0.1196  0.2114  0.2142
 2277SOL    HW110236   5.339   5.188   6.621  0.0664  0.1406  0.0697
 2277SOL    HW210237   5.418   5.168   6.493  0.1698  0.6677  0.0511
 2278SOL     OW10238   4.138   4.900   2.487  0.0051 -0.3134 -0.2282
 2278SOL    HW110239   4.091   4.925   2.408 -1.6134  1.5878  1.2754
 2278SOL    HW210240   4.221   4.947   2.482  0.0085 -0.3944 -0.9128
 2279SOL     OW10241   0.887   6.607   1.773  0.2533  0.7910 -0.4833
 2279SOL    HW110242   0.809   6.636   1.725 -0.0708 -2.3646 -1.9392
 2279SOL    HW210243   0.960   6.639   1.721 -0.0930 -0.6558 -1.8687
 2280SOL     OW10244   7.645   6.056   4.875  0.4432  0.5298 -0.4660
 2280SOL    HW110245   7.572   6.041   4.934  0.0840  1.3660 -0.7030
 2280SOL    HW210246   7.616   6.021   4.790  1.4033 -1.7687  0.1003
 2281SOL     OW10247   9.577   4.207   1.406  0.1924 -0.1816 -0.4645
 2281SOL    HW110248   9.571   4.231   1.498  1.2887  1.2650 -0.7556
 2281SOL    HW210249   9.640   4.134   1.404 -0.6710 -0.9519  0.0432
 2282SOL     OW10250   2.409   5.207  10.022  0.2291  0.0256 -0.0326
 2282SOL    HW110251   2.355   5.220   9.944  0.1713 -0.2594 -0.0379
 2282SOL    HW210252   2.498   5.204   9.989  0.1104 -1.4622 -0.2438
 2283SOL     OW10253   8.325   1.566   0.665  0.3237  0.5071  0.1209
 2283SOL    HW110254   8.235   1.598   0.662  0.5313  1.0882  0.0817
 2283SOL    HW210255   8.320   1.487   0.718 -0.1477  0.7360  0.4229
 2284SOL     OW10256   7.982   1.675   2.021 -0.3756 -0.2221  0.1438
 2284SOL    HW110257   8.069   1.698   2.052 -0.7496  0.5848  0.6089
 2284SOL    HW210258   7.946   1.617   2.088  0.7720 -2.6878 -1.2866
 2285SOL     OW10259  10.736   6.099   6.388 -0.1207  0.9527 -0.5813
 2285SOL    HW110260  10.674   6.137   6.451  1.1139  2.3516 -0.1836
 2285SOL    HW210261  10.741   6.007   6.411 -1.5824  0.9564 -0.2200
 2286SOL     OW10262   6.285   1.878   3.218  0.5053  0.2961  0.3857
 2286SOL    HW110263   6.247   1.790   3.215 -0.3320  0.5383  2.9405
 2286SOL    HW210264   6.374   1.867   3.184 -0.4307 -1.0427 -1.7531
 2287SOL     OW10265   7.281   8.581   7.829  0.2158  0.0321  0.0586
 2287SOL    HW110266   7.299   8.674   7.813 -0.1035 -0.0213 -0.6017
 2287SOL    HW210267   7.340   8.535   7.770  0.6185 -0.1979  0.6304
 2288SOL     OW10268  10.495  10.339   4.255  0.0371  0.4935 -0.5924
 2288SOL    HW110269  10.428  10.343   4.187 -0.0155 -1.1067 -0.6418
 2288SOL    HW210270  10.459  10.279   4.321  2.1550 -1.7535 -1.4387
 2289SOL     OW10271   4.637  10.907   1.392 -0.2680 -0.3519 -0.1221
 2289SOL    HW110272   4.670  10.828   1.433  0.0629 -0.7830 -1.1862
 2289SOL    HW210273   4.699  10.924   1.321 -0.0450  1.1523  0.4230
 2290SOL     OW10274   0.392   1.385   7.337  0.3595 -0.5627  0.1006
 2290SOL    HW110275   0.329   1.454   7.353  2.0744  1.2986 -0.9892
 2290SOL    HW210276   0.469   1.409   7.389  0.1430 -2.9124  1.6112
 2291SOL     OW10277   7.106   3.037   4.924 -0.0365 -0.2660  0.6054
 2291SOL    HW110278   7.070   2.999   4.844  0.7476 -0.6426  0.4237
 2291SOL    HW210279   7.104   2.964   4.987 -0.9887  0.1282  1.0391
 2292SOL     OW10280   3.426   7.640   5.472 -1.0015  0.0356  0.1516
 2292SOL    HW110281   3.402   7.589   5.394  2.6741  1.2500 -1.9338
 2292SOL    HW210282   3.488   7.584   5.519 -0.0693  0.9229 -0.0003
 2293SOL     OW10283   8.877   5.591   5.107  0.6772  0.2416 -0.2952
 2293SOL    HW110284   8.948   5.566   5.167  0.8445 -2.0246 -1.3746
 2293SOL    HW210285   8.829   5.509   5.093 -1.1249  1.3915 -0.9362
 2294SOL     OW10286   4.071   9.980   1.992  0.3245  0.1323 -0.3565
 2294SOL    HW110287   4.042   9.928   1.916  0.5428 -1.2363  0.4876
 2294SOL    HW210288   4.163   9.998   1.975  0.6313 -1.0291  0.0591
 2295SOL     OW10289   6.353   3.086   9.140 -0.4881 -0.1492  0.3208
 2295SOL    HW110290   6.337   3.159   9.200 -1.8532  1.1441 -1.5482
 2295SOL    HW210291   6.442   3.099   9.109 -0.5443  0.4299  0.3945
 2296SOL     OW10292   8.151   7.555   0.477 -0.1991  0.7595 -0.0295
 2296SOL    HW110293   8.177   7.470   0.511 -1.1596  0.0874 -0.9745
 2296SOL    HW210294   8.159   7.547   0.382 -0.3010  1.7219 -0.1296
 2297SOL     OW10295   3.959   5.426   6.139  0.5102  0.4643 -0.2462
 2297SOL    HW110296   3.970   5.342   6.093  0.8323  0.2303  0.2486
 2297SOL    HW210297   3.870   5.453   6.119 -0.1835 -0.8239  0.9315
 2298SOL     OW10298   8.387   2.984   8.864  0.4865  0.0068  0.2142
 2298SOL    HW110299   8.316   2.977   8.800 -0.6693  2.1344  1.1884
 2298SOL    HW210300   8.455   3.033   8.818  0.2995  0.1281  0.0619
 2299SOL     OW10301  10.416  10.817   8.121 -0.4337 -0.4897  0.0411
 2299SOL    HW110302  10.396  10.905   8.153  0.0438 -0.7175  0.9782
 2299SOL    HW210303  10.384  10.759   8.189  0.8236 -0.9745  0.2291
 2300SOL     OW10304   0.966   8.083   4.010 -0.4048  0.0930 -0.0450
 2300SOL    HW110305   0.948   8.137   3.933  0.8906  0.1085 -0.3465
 2300SOL    HW210306   1.031   8.133   4.060 -0.7540 -0.2175  0.7242
 2301SOL     OW10307   7.332   9.007   8.917  0.1437  0.3544 -0.3005
 2301SOL    HW110308   7.369   9.083   8.871  0.3957  0.0167 -0.6507
 2301SOL    HW210309   7.374   8.931   8.877  0.9094  0.0832  0.9924
 2302SOL     OW10310   3.266   0.526   8.738  0.8095 -0.2847  0.3895
 2302SOL    HW110311   3.198   0.488   8.682 -0.0381 -0.6314  1.6442
 2302SOL    HW210312   3.335   0.553   8.676  0.0864 -1.0547 -0.7790
 2303SOL     OW10313   1.745   8.806   2.057  0.5944 -0.2933  0.2203
 2303SOL    HW110314   1.696   8.886   2.041 -0.2429 -0.7432  0.5178
 2303SOL    HW210315   1.681   8.736   2.050  1.1781 -0.8875  0.6616
 2304SOL     OW10316   9.334   5.850   8.625  0.3080  0.3245 -0.0759
 2304SOL    HW110317   9.313   5.943   8.627 -0.0132  0.2567 -0.3467
 2304SOL    HW210318   9.402   5.840   8.692  2.2635  1.2420 -1.8335
 2305SOL     OW10319   7.416   0.414   0.858 -0.1378  0.1021 -0.3286
 2305SOL    HW110320   7.452   0.495   0.895 -0.4269  0.8600 -1.6622
 2305SOL    HW210321   7.327   0.410   0.892  0.0455  0.0827  0.1453
 2306SOL     OW10322   0.557   4.674   1.091  0.2588  0.2506 -0.6795
 2306SOL    HW110323   0.540   4.643   1.180 -1.8330 -3.4359 -2.2654
 2306SOL    HW210324   0.642   4.637   1.068 -0.8576 -1.9321 -1.4653
 2307SOL     OW10325   3.915   3.951  10.495  0.2499 -0.4175  0.2727
 2307SOL    HW110326   3.936   3.934  10.403  2.0274  0.1334  0.5609
 2307SOL    HW210327   3.882   4.041  10.496 -0.0346 -0.5219  0.1221
 2308SOL     OW10328   8.575   5.564   3.288 -0.3184  0.1218  0.2539
 2308SOL    HW110329   8.530   5.647   3.304 -0.8617  0.0597 -0.8873
 2308SOL    HW210330   8.516   5.497   3.322 -1.1368  0.0359 -1.3116
 2309SOL     OW10331   2.384   4.030   0.108 -0.2100  0.5261  0.3734
 2309SOL    HW110332   2.453   4.073   0.057  0.5617 -0.1019  0.8714
 2309SOL    HW210333   2.335   3.979   0.045  2.6895 -2.7958  0.6745
 2310SOL     OW10334   8.158   0.877   9.971 -0.1856  0.3850  0.5247
 2310SOL    HW110335   8.167   0.941  10.042 -0.6086 -1.5809  2.4280
 2310SOL    HW210336   8.065   0.878   9.949 -0.2413  0.2269  0.7514
 2311SOL     OW10337   9.714   6.250   8.685 -0.2903 -0.2367 -0.3969
 2311SOL    HW110338   9.675   6.209   8.608 -4.0825 -1.8540  2.2217
 2311SOL    HW210339   9.758   6.178   8.731 -2.0430 -0.2537  1.2898
 2312SOL     OW10340   1.766   9.257   6.106 -0.0535 -0.3513  0.4419
 2312SOL    HW110341   1.808   9.340   6.082  1.4117 -1.0286  0.5801
 2312SOL    HW210342   1.781   9.200   6.030  0.1531 -0.9172  0.9044
 2313SOL     OW10343   5.186   8.798   1.253  0.1466  0.1118 -0.3048
 2313SOL    HW110344   5.152   8.818   1.166  0.7719  0.2741 -0.5191
 2313SOL    HW210345   5.271   8.842   1.255  1.0968 -1.6788 -0.4069
 2314SOL     OW10346  10.768   4.749   9.067  0.4072 -0.3469  0.4157
 2314SOL    HW110347  10.824   4.729   8.992  1.2579 -1.1759  1.2690
 2314SOL    HW210348  10.775   4.844   9.077  1.3197 -0.3954  0.2525
 2315SOL     OW10349   5.368   4.835   0.266 -0.1536  0.0630  0.4265
 2315SOL    HW110350   5.390   4.813   0.176  1.1238 -0.1378  0.7765
 2315SOL    HW210351   5.273   4.846   0.265  0.1207  2.6222 -1.4686
 2316SOL     OW10352   8.033   6.769   5.251  0.2333 -0.1547 -0.1040
 2316SOL    HW110353   8.085   6.696   5.218 -0.1926 -0.5702  0.1564
 2316SOL    HW210354   8.059   6.843   5.196 -1.3764 -1.0992 -2.2271
 2317SOL     OW10355  10.133   4.244   9.371  0.1786 -0.1966 -0.2285
 2317SOL    HW110356  10.108   4.201   9.452 -0.3896 -0.2356 -0.4209
 2317SOL    HW210357  10.130   4.337   9.391 -1.5232 -0.1502 -0.6457
 2318SOL     OW10358   7.954  10.420   0.113 -0.0320 -0.0275  0.0485
 2318SOL    HW110359   7.897  10.418   0.037 -0.8015 -0.2741  0.6236
 2318SOL    HW210360   8.024  10.481   0.090  0.6636 -1.3538 -1.5012
 2319SOL     OW10361   0.119   0.816   8.610 -0.5491 -0.2386  0.3625
 2319SOL    HW110362   0.127   0.833   8.516  2.5977  0.4226  0.6985
 2319SOL    HW210363   0.182   0.747   8.628  0.9494  1.5934  2.4405
 2320SOL     OW10364   5.695   5.074  10.176  0.2889 -0.4549 -0.2909
 2320SOL    HW110365   5.603   5.093  10.160  0.4914  0.8086 -0.0174
 2320SOL    HW210366   5.741   5.110  10.100  0.5314 -1.3250 -0.5593
 2321SOL     OW10367   7.385   4.506   7.015 -0.6908  0.2250 -0.6951
 2321SOL    HW110368   7.367   4.417   6.985  1.8316 -0.4394 -0.2916
 2321SOL    HW210369   7.315   4.524   7.079 -0.6530 -1.8277 -0.0357
 2322SOL     OW10370   6.688   2.243   6.985  0.3538 -0.4725 -0.0516
 2322SOL    HW110371   6.607   2.272   7.025 -0.1103 -0.7231 -0.7846
 2322SOL    HW210372   6.688   2.148   6.998 -0.8947 -0.8590 -2.5481
 2323SOL     OW10373   5.271   8.715   8.661  0.1415  0.3681 -0.2839
 2323SOL    HW110374   5.341   8.779   8.652  1.1183 -0.6746 -0.2792
 2323SOL    HW210375   5.261   8.677   8.573  0.3213 -0.2333 -0.0508
 2324SOL     OW10376   2.719   8.089  10.674 -0.0850  0.2763  0.5422
 2324SOL    HW110377   2.784   8.079  10.744  0.5200 -2.2321 -0.3227
 2324SOL    HW210378   2.635   8.090  10.719  0.2807 -1.5559  1.2953
 2325SOL     OW10379   5.638   8.936   7.288  0.5005  0.3583  0.5262
 2325SOL    HW110380   5.551   8.913   7.322  0.0880  1.6409  0.4001
 2325SOL    HW210381   5.657   8.870   7.222 -0.6293  0.3651  0.1798
 2326SOL     OW10382   4.941   1.594   4.669  0.1347 -0.4159  0.2385
 2326SOL    HW110383   4.969   1.679   4.702 -2.0050 -0.0023  1.0580
 2326SOL    HW210384   4.853   1.582   4.706  0.4028 -2.9555  0.1007
 2327SOL     OW10385   3.601   8.210   3.748 -0.6110 -0.1673 -0.5401
 2327SOL    HW110386   3.583   8.229   3.656  1.5424 -3.7450 -1.8435
 2327SOL    HW210387   3.664   8.277   3.774  1.4301 -1.1322 -2.7864
 2328SOL     OW10388   9.004   8.346   2.871  0.4503 -0.1039  0.4059
 2328SOL    HW110389   9.095   8.316   2.864  0.3171 -0.3233 -0.4772
 2328SOL    HW210390   8.989   8.356   2.965  1.5893  0.5571  0.5280
 2329SOL     OW10391   0.547   5.203   5.490 -0.3208 -0.3183  0.5325
 2329SOL    HW110392   0.639   5.212   5.515 -0.0919 -1.1367 -0.0299
 2329SOL    HW210393   0.502   5.187   5.573  0.2722 -1.7155  0.5934
 2330SOL     OW10394   3.252   5.741   3.194 -0.2403  0.5632  0.1905
 2330SOL    HW110395   3.253   5.645   3.187  3.1538  0.5868 -0.7123
 2330SOL    HW210396   3.306   5.760   3.271 -0.3822  1.7568  0.0039
 2331SOL     OW10397   6.990   4.108   5.045  0.1564 -0.2066 -0.3177
 2331SOL    HW110398   7.010   4.199   5.064 -1.4961  0.2060 -0.4326
 2331SOL    HW210399   7.072   4.070   5.015  0.2669  1.9790 -2.9520
 2332SOL     OW10400   6.477   8.797   0.184  0.3188 -0.7134  0.1208
 2332SOL    HW110401   6.382   8.811   0.181  0.1939 -1.1268  1.7527
 2332SOL    HW210402   6.513   8.885   0.190 -0.0258 -0.6001  0.6255
 2333SOL     OW10403   8.887  10.796   5.396  0.1354 -0.3517  0.5857
 2333SOL    HW110404   8.913  10.766   5.483  1.0860 -0.3656  0.2999
 2333SOL    HW210405   8.886  10.717   5.342 -0.6383 -0.3727  0.6273
 2334SOL     OW10406   9.005   7.802   4.790  0.2274 -0.1166  0.1845
 2334SOL    HW110407   8.924   7.843   4.820  1.0261  0.7129  1.2237
 2334SOL    HW210408   9.013   7.828   4.699 -0.7009 -0.2342  0.0673
 2335SOL     OW10409   1.564   4.751   3.645 -0.3258 -0.0706  0.0427
 2335SOL    HW110410   1.609   4.744   3.561  0.7614  0.6557  0.5457
 2335SOL    HW210411   1.613   4.694   3.703  0.0620  0.8471  0.6349
 2336SOL     OW10412   0.848   0.320   3.987 -0.0424 -0.0226 -0.6682
 2336SOL    HW110413   0.835   0.381   3.915 -1.3886  0.5915  0.0835
 2336SOL    HW210414   0.763   0.313   4.029  0.4914 -1.1461  0.2652
 2337SOL     OW10415   9.380   0.803   4.237  0.3606  0.3125 -0.4726
 2337SOL    HW110416   9.471   0.782   4.218  0.5413  0.8233 -0.1615
 2337SOL    HW210417   9.352   0.860   4.166  0.7484  1.4217  0.2559
 2338SOL     OW10418  10.382   4.349   8.014 -0.7649 -0.4351  0.4729
 2338SOL    HW110419  10.428   4.311   7.939 -0.7308  0.8653 -0.1972
 2338SOL    HW210420  10.452   4.377   8.073 -0.7904 -1.4356  0.9789
 2339SOL     OW10421   1.259   0.440   6.795  0.5517 -0.2874 -0.0725
 2339SOL    HW110422   1.164   0.428   6.791  0.7042 -2.3520  1.3382
 2339SOL    HW210423   1.284   0.402   6.880  2.6501  0.0715 -0.4984
 2340SOL     OW10424  10.298   5.938   8.008  0.2664 -0.1775 -0.0343
 2340SOL    HW110425  10.323   5.854   7.970 -0.9945 -0.8905  0.6764
 2340SOL    HW210426  10.205   5.948   7.985 -0.0149  0.2580  1.2548
 2341SOL     OW10427   6.472   6.071   3.037 -0.7579  0.2765  0.2320
 2341SOL    HW110428   6.398   6.129   3.017 -1.8457 -0.7132  1.3376
 2341SOL    HW210429   6.445   5.986   3.002 -0.8760 -0.4869  2.1346
 2342SOL     OW10430   6.219   3.965  10.926 -0.1257 -0.0458 -0.2528
 2342SOL    HW110431   6.244   3.966  11.019  0.3992 -1.7987 -0.3574
 2342SOL    HW210432   6.280   4.025  10.884 -1.1098  1.6925  0.6828
 2343SOL     OW10433   2.104  10.324  10.152 -0.0594 -0.2359  0.5235
 2343SOL    HW110434   2.042  10.309  10.080  0.4862  0.0146 -0.0048
 2343SOL    HW210435   2.122  10.237  10.187  2.5019 -0.7966 -2.0332
 2344SOL     OW10436   3.232   6.603   5.476 -0.0182  0.1152 -0.2634
 2344SOL    HW110437   3.257   6.682   5.524 -0.6674 -0.0391  0.3301
 2344SOL    HW210438   3.209   6.635   5.389  0.9706  0.4206 -0.4243
 2345SOL     OW10439   7.403   9.764   4.898 -0.4442  0.6542  0.6289
 2345SOL    HW110440   7.334   9.699   4.893  0.8398 -0.6154 -1.1152
 2345SOL    HW210441   7.358   9.845   4.923 -2.7187  0.1004 -1.5087
 2346SOL     OW10442   8.070   7.570   3.362  0.0014  0.1752 -0.3491
 2346SOL    HW110443   8.018   7.525   3.296 -0.9829  0.0488  0.5020
 2346SOL    HW210444   8.158   7.573   3.326 -0.4900 -0.0792 -1.5707
 2347SOL     OW10445   6.767   6.735  10.476  0.8800 -0.4094 -0.2305
 2347SOL    HW110446   6.832   6.683  10.430  1.8137  0.3114  0.2675
 2347SOL    HW210447   6.695   6.674  10.494  0.5528 -0.7416 -2.5046
 2348SOL     OW10448   4.021   1.045   6.598 -0.1926  0.0322  0.5229
 2348SOL    HW110449   4.101   1.094   6.615 -0.3436  0.7968 -0.9332
 2348SOL    HW210450   4.011   1.045   6.503 -1.3298 -1.0133  0.6158
 2349SOL     OW10451  10.544   5.298   2.440  0.1861 -0.6809 -0.4329
 2349SOL    HW110452  10.555   5.315   2.534 -1.0994 -1.7024 -0.0843
 2349SOL    HW210453  10.621   5.337   2.399  0.2974  0.5928  0.9518
 2350SOL     OW10454   2.674  10.220  10.847 -0.2058  0.0022  0.4795
 2350SOL    HW110455   2.663  10.132  10.810  1.2298  0.9342 -2.3350
 2350SOL    HW210456   2.766  10.225  10.872  0.1447  1.2210 -0.9288
 2351SOL     OW10457  10.383   9.734   7.238  0.1635  0.3889  0.2355
 2351SOL    HW110458  10.442   9.809   7.233 -0.5759  1.0277  0.9529
 2351SOL    HW210459  10.392   9.690   7.154  1.3307  0.7287  0.1813
 2352SOL     OW10460   6.411  10.157   2.779 -0.3324  0.0913  0.1745
 2352SOL    HW110461   6.504  10.172   2.764 -0.1249  0.0605  1.4034
 2352SOL    HW210462   6.404  10.062   2.791 -0.7066 -0.0571 -1.1131
 2353SOL     OW10463   0.571   6.031   8.010 -0.5241  0.4830  0.1700
 2353SOL    HW110464   0.589   6.115   8.054  1.0096 -0.6251  1.7563
 2353SOL    HW210465   0.560   5.969   8.082  0.4804 -1.0877 -0.9977
 2354SOL     OW10466   9.273  10.382   5.221  0.2620 -0.7215  0.7850
 2354SOL    HW110467   9.280  10.476   5.207  2.3887 -1.0866 -0.9104
 2354SOL    HW210468   9.239  10.372   5.309 -0.5357  1.6410  0.7573
 2355SOL     OW10469   7.082  10.239   2.274 -0.0071  0.0249 -0.0856
 2355SOL    HW110470   7.102  10.159   2.226 -0.9195  0.5603 -1.3969
 2355SOL    HW210471   7.146  10.302   2.243 -1.0190  0.5600 -1.1366
 2356SOL     OW10472   5.473   8.381   2.431 -0.4365 -0.2272 -0.3456
 2356SOL    HW110473   5.426   8.441   2.489  1.1171  0.0654  0.6310
 2356SOL    HW210474   5.419   8.302   2.430 -1.7816  0.6756 -0.5363
 2357SOL     OW10475   0.352   2.102   0.483  1.0212 -0.4085  0.0749
 2357SOL    HW110476   0.373   2.169   0.418  0.8494 -2.3868 -2.0740
 2357SOL    HW210477   0.264   2.072   0.460  1.4572 -2.0223  0.4126
 2358SOL     OW10478   9.621   6.432   4.970 -0.4841  0.0065 -0.1465
 2358SOL    HW110479   9.526   6.435   4.966 -0.4760 -1.2648 -2.4910
 2358SOL    HW210480   9.647   6.520   4.997 -2.3380  0.0287  1.6659
 2359SOL     OW10481   1.019   2.419   5.541 -0.3914 -0.0514  0.2550
 2359SOL    HW110482   0.934   2.378   5.560 -0.3942  0.2838  0.9548
 2359SOL    HW210483   1.077   2.345   5.524 -0.2494 -0.3886  2.1210
 2360SOL     OW10484   8.919   5.380   4.335  0.0097  0.6177 -0.0712
 2360SOL    HW110485   8.862   5.341   4.400  0.5046 -0.5089 -0.3033
 2360SOL    HW210486   8.862   5.436   4.283 -0.8218 -0.2464 -0.1011
 2361SOL     OW10487   0.157   8.868   8.138  0.2432 -0.2472 -0.1748
 2361SOL    HW110488   0.155   8.799   8.204 -1.3370  1.6155  1.8335
 2361SOL    HW210489   0.223   8.930   8.170  0.8172 -0.2561 -1.3367
 2362SOL     OW10490   1.211   9.064   6.431 -0.0042  0.3441  0.2018
 2362SOL    HW110491   1.247   9.033   6.515  0.7029  0.8082  0.0765
 2362SOL    HW210492   1.199   8.985   6.379 -0.2558  0.0724  0.6683
 2363SOL     OW10493  10.332   5.967   3.044 -0.6076  0.4776  0.0269
 2363SOL    HW110494  10.265   6.027   3.077 -2.6332 -0.7080 -1.7955
 2363SOL    HW210495  10.336   5.986   2.950  0.3603 -0.6894 -0.1826
 2364SOL     OW10496   6.830   6.212   7.604 -0.3553  0.4304  0.1866
 2364SOL    HW110497   6.908   6.162   7.630 -1.7587 -1.9637 -0.0587
 2364SOL    HW210498   6.864   6.280   7.546  1.3426 -1.9951 -1.7740
 2365SOL     OW10499   7.874   4.343   3.809  0.6849 -0.1745  0.5329
 2365SOL    HW110500   7.914   4.396   3.741  0.8018  0.3933  1.0430
 2365SOL    HW210501   7.877   4.398   3.887 -0.1309 -0.5321  0.8185
 2366SOL     OW10502   2.173   3.866   8.222  0.3760  0.1019  0.2208
 2366SOL    HW110503   2.090   3.914   8.220  0.7751  0.7527 -2.1626
 2366SOL    HW210504   2.167   3.811   8.300 -3.2142 -1.4754 -1.0639
 2367SOL     OW10505   2.841   6.999   4.306  0.3992  0.4060  0.1130
 2367SOL    HW110506   2.784   7.048   4.247  1.8764 -0.0659 -1.7308
 2367SOL    HW210507   2.800   6.912   4.312  0.7310  0.1679 -0.9570
 2368SOL     OW10508   4.022   3.376   4.849 -0.8671 -0.1422  0.1805
 2368SOL    HW110509   4.100   3.365   4.903 -1.1517 -0.1606  0.5915
 2368SOL    HW210510   4.049   3.437   4.780 -0.1792 -1.0049 -0.3256
 2369SOL     OW10511   2.347   1.532   2.702 -0.0758 -0.4914 -0.5678
 2369SOL    HW110512   2.288   1.475   2.652 -2.6740  1.0267  0.6536
 2369SOL    HW210513   2.357   1.487   2.786 -1.4043  0.3643  0.0685
 2370SOL     OW10514  10.401   2.038  10.813 -0.0125  0.4080 -0.0195
 2370SOL    HW110515  10.394   1.945  10.831 -1.0559  0.7152  1.2402
 2370SOL    HW210516  10.488   2.049  10.776  0.3667 -0.9643  0.4417
 2371SOL     OW10517   0.223   0.821   2.491  0.6732  0.6528  0.6460
 2371SOL    HW110518   0.303   0.820   2.439  0.6265  0.7746  0.5706
 2371SOL    HW210519   0.164   0.880   2.443 -0.4599 -1.6047 -0.8116
 2372SOL     OW10520   8.445   1.948   3.362 -0.0306  0.3285 -0.5213
 2372SOL    HW110521   8.395   1.976   3.438 -0.3321 -0.1873 -0.5222
 2372SOL    HW210522   8.426   2.013   3.294  0.5089  0.9784 -0.0577
 2373SOL     OW10523   8.904   8.527   5.359 -0.3402  0.2178  0.5440
 2373SOL    HW110524   8.945   8.542   5.444 -0.7091 -0.0573  0.7675
 2373SOL    HW210525   8.973   8.487   5.306  0.8219  3.0623 -0.2021
 2374SOL     OW10526   4.717   0.677   4.052  0.2446  0.0865  0.0822
 2374SOL    HW110527   4.796   0.726   4.028 -0.5129  2.1508  1.7442
 2374SOL    HW210528   4.750   0.599   4.098  1.3904 -0.3763 -1.4672
 2375SOL     OW10529   6.073   2.343   5.546  0.1424  0.1871  0.2161
 2375SOL    HW110530   6.110   2.428   5.572 -0.1675  0.2194  0.5511
 2375SOL    HW210531   5.983   2.364   5.520 -1.0229 -0.5238  3.4239
 2376SOL     OW10532   0.174   6.668  10.198  0.4370  0.4232 -0.0354
 2376SOL    HW110533   0.167   6.592  10.255  0.7708  0.6263  0.2832
 2376SOL    HW210534   0.189   6.742  10.258 -1.4657  0.9896 -0.2122
 2377SOL     OW10535   9.998   7.746   7.293  0.1185 -0.4192 -0.0210
 2377SOL    HW110536  10.025   7.709   7.377  0.1392  2.2099  1.1784
 2377SOL    HW210537   9.903   7.732   7.290 -0.3207  2.0207  1.7717
 2378SOL     OW10538   4.715   5.569   6.136 -0.0588 -0.2853  0.1761
 2378SOL    HW110539   4.716   5.622   6.056 -0.1235 -2.4084 -1.2731
 2378SOL    HW210540   4.652   5.613   6.193 -1.3523  0.2853 -1.6413
 2379SOL     OW10541   2.243   1.899   6.510 -0.1014  0.1964  0.2668
 2379SOL    HW110542   2.148   1.910   6.515 -0.1890 -0.7317  0.8058
 2379SOL    HW210543   2.262   1.904   6.416 -0.4174  2.3419  0.2759
 2380SOL     OW10544   6.197   5.026   4.491  0.4183 -0.0255 -0.0134
 2380SOL    HW110545   6.155   4.959   4.546 -1.2657  0.9762 -0.0672
 2380SOL    HW210546   6.152   5.020   4.407  1.5943 -0.1277 -0.6514
 2381SOL     OW10547   5.441   5.703   1.575  0.4044 -0.3515 -0.5580
 2381SOL    HW110548   5.508   5.636   1.588  2.9891  2.3021  0.2082
 2381SOL    HW210549   5.391   5.702   1.657  1.8484  0.1647  0.3493
 2382SOL     OW10550   3.138   7.699   1.963 -0.1548  0.5537  0.0622
 2382SOL    HW110551   3.167   7.608   1.966 -0.0898  0.5836  0.3337
 2382SOL    HW210552   3.194   7.744   2.027  0.7017  1.0324 -1.0093
 2383SOL     OW10553   1.105   0.217   4.924  0.2394 -0.2360  0.0054
 2383SOL    HW110554   1.020   0.260   4.937  0.1237  0.5146 -2.8212
 2383SOL    HW210555   1.082   0.128   4.898  0.3042 -0.0402 -0.7328
 2384SOL     OW10556   5.034   4.708   9.848 -0.3561 -0.7009 -0.5617
 2384SOL    HW110557   5.023   4.729   9.940 -1.8893 -1.5151 -0.5451
 2384SOL    HW210558   5.015   4.790   9.802 -4.4285 -1.4425 -0.3922
 2385SOL     OW10559   7.426   2.986   9.521 -0.0568 -0.9566  0.0324
 2385SOL    HW110560   7.506   3.030   9.490 -0.7405  0.2758 -0.0317
 2385SOL    HW210561   7.385   2.953   9.441  0.3453 -1.5235  0.0577
 2386SOL     OW10562   8.245   4.247   6.330 -0.3331 -0.3303 -0.0104
 2386SOL    HW110563   8.224   4.292   6.248  0.3138  0.6792  0.3540
 2386SOL    HW210564   8.295   4.170   6.303  0.8720  0.6001 -0.5312
 2387SOL     OW10565   6.125   9.390   5.143  0.1329  0.9026  0.5786
 2387SOL    HW110566   6.099   9.421   5.230 -0.0977  0.9644  0.4857
 2387SOL    HW210567   6.207   9.343   5.159 -0.6908 -0.3988  1.0585
 2388SOL     OW10568   0.849   8.919   4.376 -0.6724  0.4683  0.0722
 2388SOL    HW110569   0.857   9.005   4.418  1.5289 -0.3204  1.3614
 2388SOL    HW210570   0.772   8.879   4.418 -2.0179  1.9890 -0.9066
 2389SOL     OW10571   1.134   0.189   6.185  0.0684  0.8055 -0.7080
 2389SOL    HW110572   1.150   0.283   6.181  0.7012  0.8175  1.5827
 2389SOL    HW210573   1.218   0.151   6.212 -0.7170 -0.2087  0.3605
 2390SOL     OW10574   9.970   1.069   4.585 -0.1470 -0.4304  0.2608
 2390SOL    HW110575   9.981   1.045   4.677  0.1566  0.1052  0.3676
 2390SOL    HW210576  10.010   1.156   4.578  1.6978 -1.3418 -0.8193
 2391SOL     OW10577   6.062   8.499   3.747 -0.2595 -0.2315  0.6587
 2391SOL    HW110578   6.096   8.538   3.827  2.1171 -0.4156 -0.2333
 2391SOL    HW210579   6.128   8.435   3.721 -1.0458 -0.2671 -1.3925
 2392SOL     OW10580   4.182   6.815   8.252  0.1837 -0.8563 -1.1183
 2392SOL    HW110581   4.269   6.810   8.291  0.4172 -1.6983 -1.7281
 2392SOL    HW210582   4.121   6.814   8.326  0.6458 -1.4961 -0.7503
 2393SOL     OW10583   8.998   6.923   2.782 -0.5358  0.1204  0.1659
 2393SOL    HW110584   8.928   6.970   2.736  0.4436  0.5969 -0.8862
 2393SOL    HW210585   9.030   6.985   2.847 -0.6023  0.1805  0.1422
 2394SOL     OW10586   3.931   5.435   4.397  0.0786  0.0136  0.4470
 2394SOL    HW110587   3.916   5.453   4.490  0.3650 -0.5270  0.6030
 2394SOL    HW210588   3.969   5.516   4.363  2.0715 -0.5238  1.3050
 2395SOL     OW10589   7.985   4.620   7.862 -0.2188 -0.3163  0.0956
 2395SOL    HW110590   7.919   4.635   7.795 -1.1429 -3.1199  0.3390
 2395SOL    HW210591   7.935   4.590   7.938  0.8628  2.3119  1.9095
 2396SOL     OW10592   0.083   8.391   0.786  0.0491  0.5934  0.5368
 2396SOL    HW110593   0.070   8.346   0.869  0.3456 -1.1871 -0.3725
 2396SOL    HW210594   0.017   8.355   0.727 -0.2968  1.9930  0.0382
 2397SOL     OW10595   0.926  10.286   1.567 -0.5239  0.2752  0.1350
 2397SOL    HW110596   0.960  10.344   1.634 -0.3701 -1.6236  1.7480
 2397SOL    HW210597   0.862  10.231   1.612  0.4585 -1.8310 -0.9612
 2398SOL     OW10598  10.028   5.190   7.556  0.4466 -0.4444  0.0426
 2398SOL    HW110599  10.012   5.160   7.645 -0.2077 -0.5455 -0.1067
 2398SOL    HW210600   9.941   5.203   7.519  0.7165 -0.2840 -0.5435
 2399SOL     OW10601  10.554   1.346   3.595  0.5213  0.2818  0.3347
 2399SOL    HW110602  10.479   1.385   3.551  1.2084  1.1544 -0.0812
 2399SOL    HW210603  10.579   1.410   3.661  1.1272  0.1730  0.2145
 2400SOL     OW10604   5.538   2.787   7.934  0.7899 -0.4235 -0.2044
 2400SOL    HW110605   5.632   2.798   7.951  0.4981 -1.4718  2.3485
 2400SOL    HW210606   5.532   2.704   7.887  1.0610 -0.7859  0.4007
 2401SOL     OW10607   5.772   2.802   5.866 -0.0137  0.5770 -0.6506
 2401SOL    HW110608   5.687   2.840   5.891 -0.4017  0.1486 -1.3281
 2401SOL    HW210609   5.810   2.774   5.949 -0.9959 -0.1809 -0.4480
 2402SOL     OW10610   5.769   8.142   3.551  0.1689  0.3694 -0.1973
 2402SOL    HW110611   5.830   8.070   3.535 -1.1534 -0.6317 -0.8787
 2402SOL    HW210612   5.818   8.205   3.603  1.1931 -1.2739  0.8496
 2403SOL     OW10613   6.287   3.560   8.376  0.1577 -0.1061  0.0244
 2403SOL    HW110614   6.284   3.556   8.280  0.7842  0.4502 -0.0253
 2403SOL    HW210615   6.198   3.581   8.402  0.1865  0.6599 -0.4894
 2404SOL     OW10616   9.650   5.576   1.740 -0.0470  0.0475 -0.0568
 2404SOL    HW110617   9.562   5.598   1.770 -0.2845  0.1614 -0.8300
 2404SOL    HW210618   9.658   5.482   1.753  0.8190  0.4561  2.9007
 2405SOL     OW10619   5.097   4.992   9.999  0.8042  0.6029 -0.1805
 2405SOL    HW110620   5.164   4.990   9.931  0.5138  0.4310 -0.4595
 2405SOL    HW210621   5.129   4.932  10.066  0.9997  0.6328 -0.2468
 2406SOL     OW10622   6.244   1.104   8.958  0.2468  0.0535  0.2022
 2406SOL    HW110623   6.223   1.178   8.901  0.4508  0.8502  1.1623
 2406SOL    HW210624   6.334   1.119   8.984  1.0246 -1.7024 -1.3608
 2407SOL     OW10625   0.917   9.339   8.042  0.3728  0.5416 -0.0871
 2407SOL    HW110626   1.008   9.344   8.012  0.5763  0.2345  0.4745
 2407SOL    HW210627   0.915   9.391   8.122  0.4728 -0.9255  0.8899
 2408SOL     OW10628   0.215   0.441   7.620 -0.3513 -0.0109 -0.8385
 2408SOL    HW110629   0.148   0.375   7.601 -0.7102  0.4312 -1.1069
 2408SOL    HW210630   0.195   0.514   7.562 -0.2289  0.5231 -0.2211
 2409SOL     OW10631   8.347  10.013   4.266  0.2686  0.4607  0.7216
 2409SOL    HW110632   8.374   9.968   4.185 -0.4274  1.8006 -0.2718
 2409SOL    HW210633   8.346   9.944   4.332  1.1054 -0.6107 -0.3542
 2410SOL     OW10634   6.244   1.318   4.967 -0.5966  0.5624 -0.3515
 2410SOL    HW110635   6.221   1.277   4.883 -0.2494 -1.0989  0.3479
 2410SOL    HW210636   6.332   1.354   4.953 -0.3973 -0.0114 -0.5844
 2411SOL     OW10637   3.290   3.719   2.286 -0.5172 -0.2892  0.2292
 2411SOL    HW110638   3.364   3.726   2.226 -0.4963 -0.2758  0.2568
 2411SOL    HW210639   3.224   3.778   2.248 -0.7469 -0.7741 -0.1363
 2412SOL     OW10640   7.042   3.136   2.670 -0.4651 -0.0469 -0.5617
 2412SOL    HW110641   7.105   3.126   2.598 -0.1102  1.2031 -0.4293
 2412SOL    HW210642   6.977   3.067   2.654 -0.5510  0.4012 -2.2512
 2413SOL     OW10643   4.498   2.673   2.154  0.0774 -0.1301  0.3034
 2413SOL    HW110644   4.421   2.668   2.211 -0.6381  1.2829 -0.5004
 2413SOL    HW210645   4.492   2.594   2.100 -1.9354  0.9322 -1.0994
 2414SOL     OW10646   1.849   4.325   8.340 -0.0726 -0.1103  0.3070
 2414SOL    HW110647   1.827   4.409   8.300 -1.5687 -0.1922  0.8992
 2414SOL    HW210648   1.895   4.277   8.271 -1.8202  0.0910 -1.0400
 2415SOL     OW10649   1.615   8.373   2.470 -0.0171 -0.4829 -0.0665
 2415SOL    HW110650   1.673   8.299   2.490  0.6282 -0.1350 -0.6143
 2415SOL    HW210651   1.570   8.391   2.552  1.2099 -0.2833  0.5826
 2416SOL     OW10652   8.060   6.340   8.889 -0.4331  0.0473 -0.3002
 2416SOL    HW110653   8.043   6.382   8.805  0.0358  3.0865  1.0252
 2416SOL    HW210654   8.145   6.299   8.879  0.3117  1.6864 -0.8854
 2417SOL     OW10655   6.870   4.780   9.976  0.5621  0.0552 -0.0444
 2417SOL    HW110656   6.958   4.768  10.011  1.6991 -0.3798 -2.9282
 2417SOL    HW210657   6.870   4.869   9.941  0.2750 -0.3970 -1.2078
 2418SOL     OW10658   9.738   0.201   2.733 -0.6528 -0.0796 -0.0966
 2418SOL    HW110659   9.814   0.257   2.742 -0.8603  0.1090  0.4988
 2418SOL    HW210660   9.664   0.256   2.758 -1.1032  0.0362 -1.6082
 2419SOL     OW10661   2.730   8.871  10.911  0.1865 -0.0502  0.1178
 2419SOL    HW110662   2.698   8.795  10.862  0.3542 -0.0821  0.0569
 2419SOL    HW210663   2.769   8.833  10.990  1.0565 -0.0837 -0.3295
 2420SOL     OW10664   8.841   6.471   5.301  0.3808 -0.1679  0.1745
 2420SOL    HW110665   8.816   6.492   5.391  1.0880  0.4362  0.2371
 2420SOL    HW210666   8.895   6.393   5.309  0.5379 -0.0493  0.2892
 2421SOL     OW10667   3.457   5.565   4.399 -0.1938 -0.2316 -0.2877
 2421SOL    HW110668   3.448   5.525   4.485 -0.0535  1.7581  0.6847
 2421SOL    HW210669   3.537   5.528   4.363 -0.2331 -1.0531  0.4649
 2422SOL     OW10670   0.099   3.978   2.055  0.5862 -0.3839  0.2278
 2422SOL    HW110671   0.116   3.925   1.977  0.5926 -1.2489  0.8151
 2422SOL    HW210672   0.027   4.035   2.029 -0.4289 -1.7180  0.0826
 2423SOL     OW10673   4.102   5.611  10.355  0.8153  0.2296 -0.2891
 2423SOL    HW110674   4.035   5.643  10.416  1.6132  0.8980  0.2457
 2423SOL    HW210675   4.052   5.579  10.280 -0.0287  3.2768 -1.1266
 2424SOL     OW10676   7.589  10.434   1.790  0.1458  0.7433 -0.1288
 2424SOL    HW110677   7.628  10.485   1.861  0.1589  1.0486 -0.3581
 2424SOL    HW210678   7.502  10.409   1.824  0.6895 -0.2818  0.5379
 2425SOL     OW10679   4.424   6.928   5.149 -0.2214 -0.3180  0.4107
 2425SOL    HW110680   4.421   6.844   5.195 -0.7759 -0.2107  0.5715
 2425SOL    HW210681   4.471   6.909   5.068  2.5642 -0.0767  1.9284
 2426SOL     OW10682   4.311   9.083  10.251 -0.4453  0.5649 -0.1164
 2426SOL    HW110683   4.380   9.017  10.251 -1.6469 -0.7096  2.0087
 2426SOL    HW210684   4.359   9.166  10.244  1.2488 -0.3420  0.3673
 2427SOL     OW10685   2.320  10.838   2.735 -0.2224  0.3522  0.0303
 2427SOL    HW110686   2.366  10.754   2.732 -1.3267 -0.2302 -0.9425
 2427SOL    HW210687   2.353  10.886   2.660 -0.5999  0.2430 -0.2093
 2428SOL     OW10688   9.626   5.013   5.853 -0.4894  0.0365 -0.7235
 2428SOL    HW110689   9.626   4.943   5.918  0.2209 -0.7243 -1.5298
 2428SOL    HW210690   9.534   5.024   5.829 -0.7736  0.4210  0.5056
 2429SOL     OW10691   4.262   1.152   0.769 -0.0891  0.2072 -0.3679
 2429SOL    HW110692   4.314   1.075   0.747  0.5853  0.1403  1.3811
 2429SOL    HW210693   4.326   1.217   0.798 -0.8839  0.4687  0.8482
 2430SOL     OW10694   7.396   9.218   5.115 -0.2370 -0.5178 -0.0737
 2430SOL    HW110695   7.484   9.179   5.113  0.2265  0.5111 -0.2106
 2430SOL    HW210696   7.337   9.143   5.114  0.5755 -1.1726 -3.7469
 2431SOL     OW10697  10.187   2.553  10.608 -0.6350  0.6119  0.1079
 2431SOL    HW110698  10.217   2.465  10.589  1.0431  1.2331 -0.1622
 2431SOL    HW210699  10.258   2.610  10.580 -0.6360  1.9126  2.5491
 2432SOL     OW10700   1.469   7.677   4.344  0.0210 -0.2752 -0.6833
 2432SOL    HW110701   1.423   7.594   4.358  1.7738 -1.2070 -0.3045
 2432SOL    HW210702   1.513   7.695   4.428  2.0785 -0.5355 -1.6594
 2433SOL     OW10703  10.395   1.305   1.062 -0.4359  0.0729  0.4845
 2433SOL    HW110704  10.466   1.244   1.043 -0.4608  0.0061  0.6102
 2433SOL    HW210705  10.372   1.342   0.976  0.5514  0.9773  0.5908
 2434SOL     OW10706   5.384   3.315   2.024 -0.0193 -0.2265 -0.6296
 2434SOL    HW110707   5.443   3.375   1.977 -0.2026  0.9335  0.6003
 2434SOL    HW210708   5.404   3.229   1.987  2.7423  0.0811  0.0053
 2435SOL     OW10709   3.447   5.157   5.225 -0.6537 -0.1622  0.3769
 2435SOL    HW110710   3.533   5.197   5.238 -0.6285  0.0709 -0.4756
 2435SOL    HW210711   3.415   5.139   5.313  0.4853 -0.7113  0.6798
 2436SOL     OW10712   5.657   1.671   9.441  0.1380 -0.9942 -0.0342
 2436SOL    HW110713   5.717   1.726   9.490  1.3122 -2.2355 -0.0400
 2436SOL    HW210714   5.617   1.729   9.376  1.2053 -0.1292  0.0789
 2437SOL     OW10715   8.095   0.547   5.148 -0.6930 -0.1174 -0.0117
 2437SOL    HW110716   8.056   0.556   5.235 -1.6188 -0.7731 -0.3521
 2437SOL    HW210717   8.161   0.479   5.159  0.4728  1.0853  0.5975
 2438SOL     OW10718   4.379   2.582   9.529 -0.3931  0.1695 -0.0419
 2438SOL    HW110719   4.391   2.677   9.537 -1.6643  0.1579  2.1485
 2438SOL    HW210720   4.398   2.548   9.616  0.0330 -1.6108 -0.8138
 2439SOL     OW10721   8.758  10.283  10.721 -0.6144 -0.0950  0.2197
 2439SOL    HW110722   8.740  10.316  10.809 -0.0625  1.8461 -0.3784
 2439SOL    HW210723   8.819  10.211  10.735 -0.1102  0.5377  1.3895
 2440SOL     OW10724   2.909   0.085  10.166  0.0183 -0.0010 -0.7038
 2440SOL    HW110725   2.946   0.161  10.211 -0.0527 -0.9315  0.9706
 2440SOL    HW210726   2.939   0.094  10.076  1.0623  1.3443 -0.2464
 2441SOL     OW10727   1.241   0.584   8.230  0.0926  0.2395  0.6701
 2441SOL    HW110728   1.281   0.540   8.305  2.4419  1.8815  0.4482
 2441SOL    HW210729   1.192   0.516   8.184  0.8873 -1.3656  2.1735
 2442SOL     OW10730   0.229   2.053   4.909 -0.0720  0.1984 -0.4765
 2442SOL    HW110731   0.306   2.101   4.939  0.1194  0.8092 -1.9036
 2442SOL    HW210732   0.256   1.961   4.910  0.5097  0.3661 -0.5106
 2443SOL     OW10733   0.332   7.211   2.995 -0.0057 -0.1532  0.2905
 2443SOL    HW110734   0.273   7.139   3.016  0.1241 -0.4839 -0.4591
 2443SOL    HW210735   0.367   7.189   2.909  1.3029 -0.0149  0.7812
 2444SOL     OW10736   1.954   9.677   1.267  0.2547  0.3351 -0.1765
 2444SOL    HW110737   1.917   9.590   1.249  1.6964 -0.4169  0.3864
 2444SOL    HW210738   1.998   9.702   1.185 -2.6664  1.8908 -1.3580
 2445SOL     OW10739   9.596  10.286  10.566 -0.0989  0.5498  0.1409
 2445SOL    HW110740   9.673  10.284  10.509  0.8225  0.8027  1.3725
 2445SOL    HW210741   9.610  10.360  10.624 -1.1614  0.4561  0.5399
 2446SOL     OW10742   4.008   7.881   9.535  0.4655  0.6407  0.2067
 2446SOL    HW110743   3.913   7.892   9.542  0.6784  1.9772  1.3141
 2446SOL    HW210744   4.021   7.786   9.532 -1.1759  0.4544 -4.5174
 2447SOL     OW10745  10.947   9.777   8.026  0.0081 -0.1375  0.1871
 2447SOL    HW110746  10.915   9.742   7.943  1.8957 -0.2151 -0.5546
 2447SOL    HW210747  10.957   9.871   8.010  0.8636 -0.2283  0.1318
 2448SOL     OW10748   2.700   3.164   0.460 -0.0727  0.4708 -0.4832
 2448SOL    HW110749   2.687   3.103   0.533  0.7481 -0.9934 -1.5308
 2448SOL    HW210750   2.681   3.250   0.497 -1.8124 -0.4631  0.8939
 2449SOL     OW10751   8.281   6.896  10.657  0.2841 -0.0805  0.4246
 2449SOL    HW110752   8.222   6.824  10.678  0.3060  0.0648  1.0091
 2449SOL    HW210753   8.236   6.944  10.588 -1.1475  1.0678  2.0858
 2450SOL     OW10754   6.752   9.825   9.312 -0.0481  0.7358  0.0124
 2450SOL    HW110755   6.689   9.888   9.346  1.6441  1.4467  1.9596
 2450SOL    HW210756   6.836   9.855   9.345  1.0576 -1.3713 -0.7786
 2451SOL     OW10757   0.796   8.513   8.484 -0.9108  0.1115  0.2065
 2451SOL    HW110758   0.773   8.478   8.398 -1.7056  0.6045  0.2096
 2451SOL    HW210759   0.823   8.437   8.535  0.0689 -0.1150 -0.6376
 2452SOL     OW10760   1.789   8.717   1.400  0.2206 -0.3952  0.7324
 2452SOL    HW110761   1.821   8.630   1.378 -0.4974 -0.6541  0.6780
 2452SOL    HW210762   1.843   8.745   1.474  1.0821 -0.4914  0.1371
 2453SOL     OW10763   4.383   0.283   1.063 -0.7968  0.1279 -0.2511
 2453SOL    HW110764   4.347   0.364   1.026 -0.0300  1.1080  1.0976
 2453SOL    HW210765   4.396   0.303   1.156  0.5826 -1.1363 -0.1544
 2454SOL     OW10766  10.136   2.490   6.302 -0.5853 -0.6704 -0.4897
 2454SOL    HW110767  10.153   2.472   6.395  0.8464 -0.8920 -0.7863
 2454SOL    HW210768  10.203   2.554   6.277 -3.3032  2.3176 -0.4327
 2455SOL     OW10769   6.211   1.984   5.055 -0.1930  0.5232 -0.0059
 2455SOL    HW110770   6.228   1.983   4.961 -0.1549 -0.9512  0.0110
 2455SOL    HW210771   6.118   2.006   5.062 -1.3436 -3.6107 -0.6099
 2456SOL     OW10772  10.366   8.066   5.316  0.1356  0.3427  0.0575
 2456SOL    HW110773  10.307   8.025   5.253 -0.4873 -0.3375  1.0716
 2456SOL    HW210774  10.452   8.030   5.295 -0.2119 -0.5654  0.1578
 2457SOL     OW10775   7.740  10.607   9.293 -0.0807 -0.5539  0.0444
 2457SOL    HW110776   7.688  10.655   9.229  0.8261 -1.2896 -1.2658
 2457SOL    HW210777   7.813  10.665   9.313 -0.1518 -0.4878  0.1126
 2458SOL     OW10778   5.841   8.455   1.820  0.1105  0.2388  0.1166
 2458SOL    HW110779   5.813   8.364   1.822 -0.2108  0.3430  0.2614
 2458SOL    HW210780   5.872   8.473   1.909  2.8781 -0.5850 -0.6244
 2459SOL     OW10781   3.238   9.814   5.609  0.4871 -0.0710  0.0059
 2459SOL    HW110782   3.239   9.848   5.699  0.1134  1.4383 -0.5493
 2459SOL    HW210783   3.198   9.728   5.617 -1.2470  0.7979  1.0504
 2460SOL     OW10784   2.058   8.912   8.516 -0.5376  0.3029  0.4374
 2460SOL    HW110785   2.124   8.854   8.479 -0.7890  0.5730 -0.4543
 2460SOL    HW210786   1.977   8.861   8.513 -0.7473  0.6767 -0.2950
 2461SOL     OW10787   7.547   3.426   6.308 -0.0353  0.4360 -0.0067
 2461SOL    HW110788   7.555   3.504   6.253 -0.2627 -0.8357 -1.8527
 2461SOL    HW210789   7.548   3.461   6.398 -1.5034  2.7127 -0.8120
 2462SOL     OW10790   9.512   9.406   7.588  0.1463 -0.0248 -0.4023
 2462SOL    HW110791   9.454   9.343   7.631 -0.8911 -0.1405 -1.9243
 2462SOL    HW210792   9.588   9.354   7.560  1.1701  0.1914  1.8973
 2463SOL     OW10793   7.839   8.309   9.497 -0.3180 -0.0266  0.3596
 2463SOL    HW110794   7.906   8.288   9.431 -0.3854 -0.4841  0.4365
 2463SOL    HW210795   7.757   8.309   9.449 -0.5862 -2.1492  0.7854
 2464SOL     OW10796   3.787   2.735  10.215  0.3551  0.3847 -0.6755
 2464SOL    HW110797   3.793   2.696  10.302 -0.8239 -1.1007 -1.2466
 2464SOL    HW210798   3.789   2.829  10.231  1.0487  0.1177  0.8861
 2465SOL     OW10799   7.294   5.436   5.343 -0.5007 -0.2157 -0.1049
 2465SOL    HW110800   7.247   5.413   5.423 -1.2219  1.4257 -0.0484
 2465SOL    HW210801   7.357   5.365   5.331  0.9091  0.4879  2.9574
 2466SOL     OW10802   2.724   1.803   4.384  0.4062  0.2867  0.1876
 2466SOL    HW110803   2.639   1.845   4.369 -0.7391 -1.2495  2.1756
 2466SOL    HW210804   2.729   1.736   4.316  0.4952  1.0197 -0.5467
 2467SOL     OW10805   4.693   6.049   9.447 -0.5848 -0.0819  0.0740
 2467SOL    HW110806   4.767   6.038   9.506  0.3979  1.1066 -0.9132
 2467SOL    HW210807   4.662   5.959   9.430  0.7175 -0.5936  0.3702
 2468SOL     OW10808   0.910   4.158   4.027  0.2481  0.2351  0.3040
 2468SOL    HW110809   0.932   4.222   3.959 -0.7067  0.2725  0.0307
 2468SOL    HW210810   0.947   4.195   4.107  1.7299  0.0031 -0.2418
 2469SOL     OW10811   2.494   0.051   5.027 -0.9511  0.1832  0.7133
 2469SOL    HW110812   2.512  -0.043   5.031  0.8222  0.4346 -0.8312
 2469SOL    HW210813   2.413   0.061   5.076 -0.8926 -2.0834  1.3518
 2470SOL     OW10814   3.735  10.889   0.485 -0.1847 -0.3436 -0.1673
 2470SOL    HW110815   3.690  10.969   0.456 -1.0503 -0.4015  0.9675
 2470SOL    HW210816   3.717  10.826   0.416  1.4303  0.7399 -1.6224
 2471SOL     OW10817   2.806   7.601   8.853  0.2096 -0.2504 -0.3885
 2471SOL    HW110818   2.818   7.512   8.818  0.1701 -0.5793  0.4335
 2471SOL    HW210819   2.772   7.588   8.941 -0.8494  0.6107 -0.6708
 2472SOL     OW10820   3.812  10.527   6.630  0.2455 -0.4080  1.0857
 2472SOL    HW110821   3.742  10.588   6.609 -0.4090 -1.8965 -1.2410
 2472SOL    HW210822   3.891  10.580   6.630 -0.6179  0.8955  1.6036
 2473SOL     OW10823   8.822   8.655   3.853  0.0040  0.3184 -0.3385
 2473SOL    HW110824   8.862   8.740   3.835  0.6245 -0.0788 -0.8467
 2473SOL    HW210825   8.881   8.592   3.813  0.2891 -0.4513  1.2579
 2474SOL     OW10826   5.219   2.759   8.126 -0.2531  0.4825 -0.2544
 2474SOL    HW110827   5.131   2.720   8.134  0.4992 -0.8132  2.2805
 2474SOL    HW210828   5.211   2.844   8.169 -0.3598  0.5001 -0.3081
 2475SOL     OW10829   8.825   9.397   1.473 -0.4932 -0.1835  0.0836
 2475SOL    HW110830   8.731   9.412   1.483 -0.9883 -1.6341 -1.9282
 2475SOL    HW210831   8.845   9.327   1.535 -0.8787 -0.2902  0.0867
 2476SOL     OW10832   4.900   9.351   4.003 -0.5047 -0.5145  0.2165
 2476SOL    HW110833   4.808   9.326   3.998 -0.5030 -0.3880 -0.6323
 2476SOL    HW210834   4.948   9.269   4.014 -0.6053 -0.7497 -1.0281
 2477SOL     OW10835   4.798   4.556   0.689 -0.0309  0.0205 -0.1517
 2477SOL    HW110836   4.837   4.644   0.685  0.2326 -0.0316  1.0829
 2477SOL    HW210837   4.706   4.571   0.708 -0.6760  0.1488 -3.1727
 2478SOL     OW10838   7.484   5.414   8.234 -0.0579  0.3880 -0.3186
 2478SOL    HW110839   7.558   5.366   8.195  0.3533 -0.1053  1.0290
 2478SOL    HW210840   7.430   5.439   8.159  1.9776  1.6340 -1.4435
 2479SOL     OW10841   6.436   0.961   7.075 -0.0213 -0.4120 -0.2290
 2479SOL    HW110842   6.505   1.010   7.120 -0.4468 -0.1995  0.1879
 2479SOL    HW210843   6.480   0.881   7.045  0.2393 -0.5880  0.6242
 2480SOL     OW10844   4.586   7.124  10.323 -0.3850  0.7664  0.3222
 2480SOL    HW110845   4.672   7.140  10.287 -0.3429 -0.0955  0.0144
 2480SOL    HW210846   4.530   7.107  10.247 -0.5286  0.0246  0.5810
 2481SOL     OW10847   5.969   6.322   4.794  0.5683  0.0264  0.1694
 2481SOL    HW110848   5.991   6.345   4.704 -0.1168 -1.7132 -0.4749
 2481SOL    HW210849   5.884   6.363   4.809 -0.9689 -2.5428 -1.1989
 2482SOL     OW10850   2.750   5.843   3.334  0.0364 -1.1182 -0.2292
 2482SOL    HW110851   2.842   5.841   3.308 -0.3294  2.1036 -2.0294
 2482SOL    HW210852   2.752   5.853   3.429  1.5682 -1.2299 -0.2437
 2483SOL     OW10853   5.518  10.263   1.929  0.3190  0.1687  0.3606
 2483SOL    HW110854   5.553  10.323   1.864  0.7123  1.2360  1.5317
 2483SOL    HW210855   5.593  10.208   1.953  0.9305  1.6663  1.9913
 2484SOL     OW10856   8.724   5.116  10.959  0.4947  0.7569 -0.1742
 2484SOL    HW110857   8.680   5.188  11.005  0.2449  0.4959  0.0006
 2484SOL    HW210858   8.814   5.118  10.991 -0.0260 -0.3127  1.4105
 2485SOL     OW10859  10.896   5.645  10.797 -0.7052  0.7129 -0.1730
 2485SOL    HW110860  10.913   5.731  10.838 -3.4647  1.3652 -0.3360
 2485SOL    HW210861  10.903   5.583  10.870  0.1283  1.1865  0.1702
 2486SOL     OW10862   7.216   4.232   3.525  0.5339 -0.3107 -0.0349
 2486SOL    HW110863   7.264   4.314   3.538  0.8437 -0.2431 -1.5627
 2486SOL    HW210864   7.138   4.257   3.476  1.1315 -1.0716 -1.3869
 2487SOL     OW10865   2.608   4.930   3.601 -0.1602 -0.0743  0.2343
 2487SOL    HW110866   2.682   4.911   3.544  0.3424  0.5875  0.6615
 2487SOL    HW210867   2.620   5.021   3.627 -1.0302 -0.0116  0.4485
 2488SOL     OW10868   8.996   8.270   2.405 -0.0180  0.0127  0.0350
 2488SOL    HW110869   9.035   8.185   2.428  0.2155 -0.0188 -0.4730
 2488SOL    HW210870   9.002   8.321   2.485 -0.6303 -0.6279  0.4984
 2489SOL     OW10871   2.787   1.173   7.055 -0.8147 -0.7054  0.0501
 2489SOL    HW110872   2.790   1.260   7.095  3.1630 -0.6861 -0.0459
 2489SOL    HW210873   2.738   1.119   7.117 -3.0963  1.5123  0.2424
 2490SOL     OW10874   2.065  10.698   1.276 -0.2461  0.1431  0.1446
 2490SOL    HW110875   2.046  10.718   1.367  0.2043 -0.1242  0.2980
 2490SOL    HW210876   2.134  10.760   1.251  0.2328 -0.3459  0.2396
 2491SOL     OW10877   0.655   9.800   9.264 -0.0555 -0.3454 -0.5494
 2491SOL    HW110878   0.601   9.792   9.185 -0.1047  1.1881 -0.6873
 2491SOL    HW210879   0.718   9.729   9.256 -0.5615 -0.7010 -1.5818
 2492SOL     OW10880   1.612   7.933   1.901 -0.1093 -0.3135  0.1460
 2492SOL    HW110881   1.665   7.905   1.826  0.0329  0.3642 -0.0062
 2492SOL    HW210882   1.665   7.999   1.945 -1.2224  1.0590 -0.5445
 2493SOL     OW10883   4.776   0.705   0.783  0.6289  0.2083  0.3131
 2493SOL    HW110884   4.708   0.641   0.801  0.0976  1.0149  1.2113
 2493SOL    HW210885   4.780   0.759   0.862  2.4753  0.0227  0.3825
 2494SOL     OW10886   5.877   7.384   8.394  0.1645 -0.5482  0.0761
 2494SOL    HW110887   5.961   7.339   8.387  0.0876 -0.5151 -1.2571
 2494SOL    HW210888   5.899   7.477   8.394  0.1259 -0.5390 -0.3261
 2495SOL     OW10889   4.350   3.394   0.399 -0.0227  0.3395 -0.2276
 2495SOL    HW110890   4.344   3.444   0.481 -0.1583  1.8801 -1.1674
 2495SOL    HW210891   4.401   3.316   0.422 -0.1616  0.6981  1.3482
 2496SOL     OW10892   3.968   7.340   2.135 -0.2267 -0.2531  0.0035
 2496SOL    HW110893   3.964   7.265   2.076 -0.8529 -0.0813 -0.1740
 2496SOL    HW210894   3.996   7.303   2.219  1.2202 -0.4139 -0.5312
 2497SOL     OW10895   0.675   0.456  10.260 -0.4376  0.1114 -0.1811
 2497SOL    HW110896   0.616   0.532  10.269 -0.8554  0.0362 -2.0802
 2497SOL    HW210897   0.616   0.383  10.239 -0.0874 -0.8701  2.0890
 2498SOL     OW10898   7.859   9.296   5.351  0.0409 -0.5786 -0.2856
 2498SOL    HW110899   7.787   9.355   5.328  0.9025  0.2734 -0.8011
 2498SOL    HW210900   7.906   9.282   5.269  1.5489  0.3413  0.3944
 2499SOL     OW10901   7.009   6.671   8.905  0.7531 -0.4091 -0.1049
 2499SOL    HW110902   6.932   6.724   8.886  0.4159 -0.9728 -0.3173
 2499SOL    HW210903   7.043   6.706   8.988  1.1902  0.8709 -0.8146
 2500SOL     OW10904   0.380   2.089   8.116  0.3281  0.1443  0.4567
 2500SOL    HW110905   0.449   2.051   8.171  0.4980 -0.5722 -0.2319
 2500SOL    HW210906   0.356   2.170   8.160  0.5313 -0.3731  1.5305
 2501SOL     OW10907   4.907   8.424   4.096  0.0785 -0.1664  0.0754
 2501SOL    HW110908   4.900   8.413   4.001 -0.3940 -1.3107  0.2269
 2501SOL    HW210909   4.835   8.483   4.119  0.3110  0.2621 -0.3068
 2502SOL     OW10910   0.956  10.752   2.441  0.2513  0.0374 -0.1090
 2502SOL    HW110911   0.893  10.697   2.394 -0.1451 -0.3952  0.8888
 2502SOL    HW210912   0.916  10.839   2.442 -0.3726 -0.2448  0.5575
 2503SOL     OW10913   7.287   7.648   1.814 -0.3234 -0.2287  0.2986
 2503SOL    HW110914   7.242   7.671   1.895  1.4833 -0.6836  1.4687
 2503SOL    HW210915   7.217   7.626   1.753 -1.7427  0.8487  1.5099
 2504SOL     OW10916   6.239   0.147   5.684 -0.1864 -0.0185 -0.2097
 2504SOL    HW110917   6.285   0.063   5.691 -1.9091 -0.8847  0.7956
 2504SOL    HW210918   6.262   0.179   5.596  2.1668 -0.5100  0.1860
 2505SOL     OW10919   1.971   3.053   6.421 -0.3148 -0.0446  0.1457
 2505SOL    HW110920   1.921   3.028   6.343  0.2043 -0.9911  0.1006
 2505SOL    HW210921   2.046   3.101   6.386 -1.3723  1.6980  0.2394
 2506SOL     OW10922   9.375   3.163   5.059 -0.0192 -0.0822 -0.3807
 2506SOL    HW110923   9.435   3.199   5.125  1.0500 -0.9473 -0.8674
 2506SOL    HW210924   9.337   3.086   5.100 -1.2573  0.7830  0.1407
 2507SOL     OW10925   0.336   7.859   4.759 -0.0350  0.1773 -0.1259
 2507SOL    HW110926   0.370   7.937   4.802 -0.3653 -0.4115  1.2264
 2507SOL    HW210927   0.248   7.883   4.730 -0.2793  0.1994  0.6206
 2508SOL     OW10928   2.639   1.878   5.416 -0.2903 -0.3833 -0.1939
 2508SOL    HW110929   2.584   1.896   5.492  0.1874 -1.7164  0.4680
 2508SOL    HW210930   2.607   1.794   5.382 -0.2870  0.0393 -1.2777
 2509SOL     OW10931   5.266   1.704   7.066 -0.7981  0.6075  0.2528
 2509SOL    HW110932   5.344   1.753   7.039 -0.7423  0.1091 -0.4922
 2509SOL    HW210933   5.203   1.719   6.996 -0.5567 -0.9127 -0.3043
 2510SOL     OW10934   0.170   9.303  10.939 -0.1595  0.3696  0.2775
 2510SOL    HW110935   0.188   9.396  10.947  1.6287  0.1544 -1.0348
 2510SOL    HW210936   0.078   9.299  10.910  0.1470  1.7656 -0.9317
 2511SOL     OW10937   2.509   8.137   6.561 -0.2545 -0.8531 -0.4907
 2511SOL    HW110938   2.487   8.226   6.532 -0.5726 -0.7214  0.1364
 2511SOL    HW210939   2.546   8.095   6.484  1.9764  0.5122 -0.1929
 2512SOL     OW10940   2.965   8.823   9.914 -0.0607 -0.0548 -0.4101
 2512SOL    HW110941   3.047   8.773   9.919  0.0665  0.1316 -0.6368
 2512SOL    HW210942   2.983   8.904   9.963  0.2108  0.4265 -1.2978
 2513SOL     OW10943   7.601   6.548   0.962 -0.7972  0.1146  0.4596
 2513SOL    HW110944   7.615   6.457   0.988  1.1956  0.4071  0.5057
 2513SOL    HW210945   7.554   6.542   0.879 -0.9671 -0.9582  0.6221
 2514SOL     OW10946   4.244   3.740   4.178  0.1555  0.1368 -0.3646
 2514SOL    HW110947   4.283   3.715   4.261  0.6145  0.7798 -0.3827
 2514SOL    HW210948   4.152   3.756   4.199  0.4469  1.1149  0.1865
 2515SOL     OW10949   4.648   2.834   3.231 -0.0535  0.0947 -0.1888
 2515SOL    HW110950   4.744   2.838   3.233  0.0213 -0.4744 -1.8523
 2515SOL    HW210951   4.623   2.815   3.321  1.3436  1.3327  0.4864
 2516SOL     OW10952   8.247   0.004   5.247 -0.5104 -0.4958 -0.1860
 2516SOL    HW110953   8.325   0.052   5.275  0.2291 -1.9352  0.2957
 2516SOL    HW210954   8.278  -0.086   5.233 -2.0494 -1.0530 -0.1296
 2517SOL     OW10955   0.916   1.428   9.466  0.1285  0.4272 -0.3814
 2517SOL    HW110956   0.972   1.398   9.538  0.9149  1.2819 -0.6166
 2517SOL    HW210957   0.975   1.481   9.411 -0.9005  1.2640 -0.6845
 2518SOL     OW10958   7.732  10.658   1.908  0.4107  0.7133 -0.3687
 2518SOL    HW110959   7.828  10.651   1.914  0.1854 -0.9288  1.7796
 2518SOL    HW210960   7.704  10.672   1.998 -1.5101 -0.8022 -0.7021
 2519SOL     OW10961   2.243   3.201   8.550 -0.0852  0.1537 -0.5652
 2519SOL    HW110962   2.295   3.120   8.539 -0.3056 -0.0362 -0.2162
 2519SOL    HW210963   2.240   3.239   8.463  3.9569  2.2046  0.0653
 2520SOL     OW10964   3.552   6.252   5.157  0.7358 -0.7352  0.6417
 2520SOL    HW110965   3.489   6.234   5.087  1.1327 -1.2972  0.4252
 2520SOL    HW210966   3.609   6.320   5.121  0.0109  0.0864  0.9943
 2521SOL     OW10967  10.190  10.008   6.800  0.1121 -0.2999 -0.1154
 2521SOL    HW110968  10.221   9.985   6.712 -0.8558 -1.9947 -0.0347
 2521SOL    HW210969  10.269  10.010   6.854  0.3805 -2.1866 -0.4118
 2522SOL     OW10970  10.593   8.650   4.296 -0.4908  0.0187  0.0458
 2522SOL    HW110971  10.648   8.607   4.231 -0.1086 -0.0872  0.4336
 2522SOL    HW210972  10.558   8.579   4.349  2.3904  0.3010  2.4726
 2523SOL     OW10973   9.533   0.048   6.471  0.1389 -0.1024  0.3899
 2523SOL    HW110974   9.457   0.012   6.516  0.0906 -0.8333 -0.2496
 2523SOL    HW210975   9.498   0.091   6.394  0.3814 -0.6305 -0.0230
 2524SOL     OW10976   7.607   7.857   2.379 -0.5027  0.2872  0.3634
 2524SOL    HW110977   7.574   7.848   2.468  3.8109  3.2197  2.3764
 2524SOL    HW210978   7.677   7.792   2.372 -0.5087  0.3778 -0.7254
 2525SOL     OW10979   8.386   6.719   9.098  0.1096  0.0781  0.0832
 2525SOL    HW110980   8.296   6.689   9.108 -0.1633  0.8418 -0.0498
 2525SOL    HW210981   8.390   6.752   9.008  0.2134  1.1013  0.4649
 2526SOL     OW10982   8.359   3.354   8.875 -0.4936  0.4274 -0.0282
 2526SOL    HW110983   8.377   3.301   8.797  1.5412 -2.0932  2.0504
 2526SOL    HW210984   8.271   3.329   8.902 -0.1392 -0.7681  0.0464
 2527SOL     OW10985  10.168   7.620   5.038  0.5888  0.3867  0.0053
 2527SOL    HW110986  10.142   7.553   4.975  1.0886  0.3305 -0.1387
 2527SOL    HW210987  10.260   7.638   5.019  0.1970  1.8396 -0.6244
 2528SOL     OW10988   5.388   9.421   0.370  0.3268  0.3287 -0.0871
 2528SOL    HW110989   5.317   9.420   0.306  0.4955  0.4870 -0.2757
 2528SOL    HW210990   5.390   9.331   0.403  1.1490 -0.1245 -1.3129
 2529SOL     OW10991   0.478   9.390   1.906  0.0392 -0.0232 -0.1673
 2529SOL    HW110992   0.399   9.361   1.860 -0.3455  1.0148 -0.1941
 2529SOL    HW210993   0.479   9.485   1.893 -1.0347  0.5794  3.3548
 2530SOL     OW10994   9.765   8.326   3.121  0.2498  1.0402  0.5540
 2530SOL    HW110995   9.762   8.331   3.025  1.1906  0.8960  0.5178
 2530SOL    HW210996   9.732   8.239   3.142  2.0219  0.3000  0.2634
 2531SOL     OW10997   6.923   8.523   4.929  0.0173 -0.3878  0.4629
 2531SOL    HW110998   6.983   8.449   4.939  1.8904  1.1915  1.2519
 2531SOL    HW210999   6.956   8.588   4.991 -1.4852  1.1816 -0.3676
 2532SOL     OW11000   5.797   5.470   7.271 -0.3239  0.3380 -0.0545
 2532SOL    HW111001   5.850   5.546   7.296 -1.6879  0.9556  1.0460
 2532SOL    HW211002   5.859   5.411   7.228  0.8975  1.7893 -0.3750
 2533SOL     OW11003   3.291   3.286   0.741 -0.1020 -0.7498 -0.4217
 2533SOL    HW111004   3.305   3.278   0.836 -0.6295  0.8998 -0.1784
 2533SOL    HW211005   3.378   3.272   0.703  0.4230  0.0674  0.4326
 2534SOL     OW11006   0.207   3.535   0.515 -0.1283 -0.2798 -0.5915
 2534SOL    HW111007   0.178   3.506   0.429 -2.8946 -1.3886  0.6422
 2534SOL    HW211008   0.203   3.631   0.511 -1.7361 -0.3658 -1.2185
 2535SOL     OW11009  10.964   4.766   4.555 -0.2736 -0.1295 -0.7406
 2535SOL    HW111010  10.897   4.725   4.611 -1.0015  1.0454 -0.7259
 2535SOL    HW211011  10.997   4.694   4.501 -0.2462 -1.0959  0.5265
 2536SOL     OW11012   2.189   4.082   0.941 -0.1933 -0.6693  0.4695
 2536SOL    HW111013   2.192   4.001   0.992  0.7149 -0.3035  1.0058
 2536SOL    HW211014   2.250   4.141   0.985  1.4702 -0.7112 -1.6498
 2537SOL     OW11015   6.707   6.170   8.501 -0.0934  0.3263 -0.5779
 2537SOL    HW111016   6.696   6.265   8.498 -0.4746  0.2449 -1.9575
 2537SOL    HW211017   6.742   6.146   8.416  2.9147 -0.4424  0.8083
 2538SOL     OW11018   5.244   3.169   3.858 -0.1017 -0.3527  0.3844
 2538SOL    HW111019   5.274   3.185   3.768  1.9775 -0.9878  0.9134
 2538SOL    HW211020   5.212   3.079   3.856 -0.6389 -0.1549  0.1314
 2539SOL     OW11021   9.757   0.061   0.024  0.1490  0.0034  0.4739
 2539SOL    HW111022   9.664   0.043   0.009  0.2491 -0.4922  0.4580
 2539SOL    HW211023   9.803  -0.010  -0.020  0.5423  0.2878  0.4214
 2540SOL     OW11024   7.776   3.062   1.094 -0.1996 -0.2645 -0.1199
 2540SOL    HW111025   7.843   2.994   1.090 -1.2403 -1.2572 -1.0189
 2540SOL    HW211026   7.825   3.143   1.110  1.2367 -0.9172 -1.1051
 2541SOL     OW11027   6.097  10.067   1.478  0.1777  0.4897 -0.0767
 2541SOL    HW111028   6.049  10.121   1.541  1.7904  0.5117  1.1530
 2541SOL    HW211029   6.152  10.129   1.430 -1.2571  0.5121 -1.7279
 2542SOL     OW11030   1.452   5.309   8.489 -0.6969 -0.2265 -0.8825
 2542SOL    HW111031   1.361   5.321   8.461 -0.3623 -1.4793 -2.5714
 2542SOL    HW211032   1.501   5.295   8.408  1.1059  0.9353 -0.0424
 2543SOL     OW11033   9.136   3.531   6.210 -0.0773  0.0893  0.1290
 2543SOL    HW111034   9.085   3.450   6.221  1.3529 -0.7649  0.6175
 2543SOL    HW211035   9.073   3.601   6.225 -0.8612 -0.9510  1.8020
 2544SOL     OW11036   0.807   0.107   9.907 -0.1521 -0.2636 -0.7390
 2544SOL    HW111037   0.798   0.019   9.943 -0.5183 -0.0431 -0.2951
 2544SOL    HW211038   0.894   0.136   9.934  0.1259 -0.6404 -1.2182
 2545SOL     OW11039   1.709   9.634   3.995  0.3428  0.6789 -0.3520
 2545SOL    HW111040   1.730   9.566   4.058 -1.0044  2.2037  1.8447
 2545SOL    HW211041   1.675   9.587   3.918 -0.5611 -1.1156  1.1064
 2546SOL     OW11042   7.741   2.098   3.603  0.0996 -0.1631  0.4039
 2546SOL    HW111043   7.697   2.037   3.662  0.1214  0.5089  1.1238
 2546SOL    HW211044   7.833   2.096   3.631  0.0383  0.4560  0.6563
 2547SOL     OW11045   2.591   3.937   3.247 -0.3268  0.5536  1.0032
 2547SOL    HW111046   2.561   4.022   3.281 -1.5163  1.4014 -2.0658
 2547SOL    HW211047   2.650   3.959   3.175 -0.1085 -1.2341  0.6100
 2548SOL     OW11048   1.682   6.168   4.206  0.0752 -0.7365 -0.0778
 2548SOL    HW111049   1.727   6.098   4.254 -1.3029 -0.2421  1.9863
 2548SOL    HW211050   1.750   6.233   4.191 -0.0526  0.5318  4.0515
 2549SOL     OW11051   7.925   7.015   2.804  0.0495 -0.2544 -0.9756
 2549SOL    HW111052   8.015   7.035   2.777  0.6682 -1.1162  0.4011
 2549SOL    HW211053   7.878   7.097   2.790  1.0843  0.2562 -1.5621
 2550SOL     OW11054   8.735   7.950   5.536  0.4066  0.1585 -0.4432
 2550SOL    HW111055   8.725   7.862   5.572  1.2941  0.1624 -0.1660
 2550SOL    HW211056   8.807   7.941   5.472  2.2796  1.2242  1.4522
 2551SOL     OW11057   9.637   8.654   7.705  0.4556 -0.3324 -0.1856
 2551SOL    HW111058   9.574   8.631   7.637  0.8034 -2.3859  0.1730
 2551SOL    HW211059   9.585   8.701   7.770  0.1370  1.7276 -1.8599
 2552SOL     OW11060   8.772   6.347   9.780 -0.0922 -0.1195  0.0729
 2552SOL    HW111061   8.741   6.299   9.703  0.6776 -1.3771  0.5393
 2552SOL    HW211062   8.777   6.438   9.751  0.7832 -0.6677 -1.5497
 2553SOL     OW11063   2.403   8.470   6.137  0.9622 -0.1884  0.0427
 2553SOL    HW111064   2.404   8.375   6.142  1.6926 -0.1606  0.5187
 2553SOL    HW211065   2.412   8.490   6.044  0.5265 -0.5886 -0.0827
 2554SOL     OW11066   0.461   0.282   8.716  0.0887  0.1454 -0.2774
 2554SOL    HW111067   0.534   0.220   8.724 -1.7139 -2.0010 -0.0129
 2554SOL    HW211068   0.450   0.293   8.621  1.0481  0.8543 -0.3170
 2555SOL     OW11069   0.467   9.023   8.336  0.1654 -0.1024 -1.0663
 2555SOL    HW111070   0.465   9.098   8.396  3.5597 -0.7660 -0.0001
 2555SOL    HW211071   0.426   9.055   8.256  0.4710  2.5420 -0.2250
 2556SOL     OW11072   6.886   3.343   0.722 -0.1810  0.4884  0.3101
 2556SOL    HW111073   6.890   3.248   0.713  0.9583  0.5424  0.0811
 2556SOL    HW211074   6.797   3.367   0.695 -0.4085 -0.4891  0.1830
 2557SOL     OW11075   6.392   0.339  10.045  0.4704  0.2861  0.0685
 2557SOL    HW111076   6.374   0.433  10.056 -1.5790 -0.1605  0.7826
 2557SOL    HW211077   6.327   0.296  10.100  1.1884 -1.5765 -0.5119
 2558SOL     OW11078   1.417   5.719   2.932  0.0694  0.1458 -0.0401
 2558SOL    HW111079   1.342   5.725   2.991  0.7650  0.9075  0.7895
 2558SOL    HW211080   1.425   5.626   2.913 -0.4504 -0.0586  0.7049
 2559SOL     OW11081   4.214   7.564   8.313  0.1293  0.2419 -0.0697
 2559SOL    HW111082   4.176   7.639   8.358 -0.7238  0.8085 -1.6887
 2559SOL    HW211083   4.261   7.602   8.238  1.5436 -0.6732  0.3289
 2560SOL     OW11084   8.250   4.837   9.135 -0.1952 -0.1670 -0.3424
 2560SOL    HW111085   8.241   4.769   9.201  1.5502  0.9847  1.1333
 2560SOL    HW211086   8.260   4.790   9.053  0.7819 -1.6880  0.6266
 2561SOL     OW11087   2.917   2.093   1.769 -0.3810 -0.0072  0.2460
 2561SOL    HW111088   2.891   2.185   1.765 -0.7736 -0.1278 -0.0907
 2561SOL    HW211089   3.009   2.093   1.740 -0.6586  0.1714 -0.6608
 2562SOL     OW11090   1.409   6.790   0.876  0.0692  0.0645 -0.1548
 2562SOL    HW111091   1.342   6.813   0.940  0.2518 -1.8363  0.7645
 2562SOL    HW211092   1.456   6.717   0.916  0.5176 -0.8345 -2.2489
 2563SOL     OW11093   8.241   9.833   9.166 -0.3151 -0.4179 -0.0052
 2563SOL    HW111094   8.168   9.895   9.163 -0.1090 -0.1089  1.1285
 2563SOL    HW211095   8.204   9.751   9.133 -1.2907 -0.3628  0.8922
 2564SOL     OW11096   0.057   4.262   4.613 -0.0145 -0.4154 -0.0671
 2564SOL    HW111097   0.071   4.292   4.703  0.6413 -1.4474  0.1921
 2564SOL    HW211098   0.076   4.168   4.617  1.7953 -0.1323 -1.6666
 2565SOL     OW11099   7.376   8.226   7.324  0.5856 -0.2027  0.4568
 2565SOL    HW111100   7.285   8.231   7.298  0.8506  0.9710 -0.2510
 2565SOL    HW211101   7.410   8.315   7.313  1.5703 -0.4180  1.5939
 2566SOL     OW11102   4.557   6.593   1.320  0.6073  0.1320 -0.2194
 2566SOL    HW111103   4.582   6.513   1.273  0.6860  0.0472 -0.0355
 2566SOL    HW211104   4.563   6.663   1.255  1.4884  0.1403 -0.1350
 2567SOL     OW11105   4.169   6.622   7.386  0.3348 -0.0195 -0.1473
 2567SOL    HW111106   4.259   6.623   7.417  0.4061 -1.6671 -0.2501
 2567SOL    HW211107   4.159   6.538   7.341 -1.1953  0.2163 -0.3075
 2568SOL     OW11108   8.862   4.879   6.514  0.3348  0.1034 -0.6318
 2568SOL    HW111109   8.799   4.934   6.467  0.1006  0.2656 -0.1341
 2568SOL    HW211110   8.905   4.828   6.445 -1.2629 -0.9732 -0.8569
 2569SOL     OW11111   8.538   5.601   5.880  0.2373  0.2229 -0.4948
 2569SOL    HW111112   8.614   5.554   5.844 -0.6992 -1.2344 -0.6407
 2569SOL    HW211113   8.524   5.560   5.965 -1.8996 -1.2923 -1.5248
 2570SOL     OW11114   7.830   8.379   5.367  0.3241  0.3104  0.0464
 2570SOL    HW111115   7.788   8.460   5.397  0.0530 -0.4347  1.7137
 2570SOL    HW211116   7.922   8.403   5.356 -0.1536  1.4335 -1.7167
 2571SOL     OW11117  10.055   2.636   1.578 -0.6336  0.0021 -0.4267
 2571SOL    HW111118  10.127   2.584   1.614 -1.1057  0.3798  1.1077
 2571SOL    HW211119   9.982   2.574   1.569 -0.4530 -0.1387 -0.9587
 2572SOL     OW11120   4.063  10.243  10.505  0.1568 -0.0304  0.8142
 2572SOL    HW111121   4.084  10.255  10.412  0.8075  0.8184  1.0567
 2572SOL    HW211122   4.140  10.200  10.542  0.0808  0.0287  1.0467
 2573SOL     OW11123   8.327   9.309   4.402  0.2163 -0.5330  0.2888
 2573SOL    HW111124   8.397   9.322   4.465 -1.7241  1.9413  2.0157
 2573SOL    HW211125   8.273   9.239   4.439  0.0855 -0.3159  0.5129
 2574SOL     OW11126   5.556   9.594   3.578 -0.1734  0.2535  0.6166
 2574SOL    HW111127   5.593   9.567   3.662  2.5651  1.5869 -0.0987
 2574SOL    HW211128   5.601   9.676   3.557 -1.6282  0.5321 -1.6062
 2575SOL     OW11129   4.529   8.073   4.187  0.6645 -0.9530 -0.3036
 2575SOL    HW111130   4.451   8.066   4.133  0.5616 -1.3777 -0.1072
 2575SOL    HW211131   4.522   8.000   4.248 -0.1022  0.5607  1.4445
 2576SOL     OW11132   5.521   0.644  10.392 -0.2858  0.6657  0.2129
 2576SOL    HW111133   5.540   0.696  10.470  0.2743  0.7162  0.0496
 2576SOL    HW211134   5.463   0.699  10.340 -0.5450  0.6903  0.5260
 2577SOL     OW11135   7.672   2.204   0.187 -0.2230  0.3554 -1.0202
 2577SOL    HW111136   7.736   2.145   0.226 -1.4013 -1.0004 -1.1105
 2577SOL    HW211137   7.663   2.275   0.250  0.9589  0.2736 -0.7557
 2578SOL     OW11138   5.188   9.911   9.499 -0.0935  0.4139  0.1600
 2578SOL    HW111139   5.182   9.983   9.437 -0.1021 -1.2080 -1.7793
 2578SOL    HW211140   5.266   9.862   9.471  1.3391  1.0012  2.9236
 2579SOL     OW11141   3.210   3.273   2.816 -0.0582 -0.7006  0.4029
 2579SOL    HW111142   3.242   3.253   2.904  0.1379  0.3878  0.5882
 2579SOL    HW211143   3.216   3.368   2.809 -1.4779 -0.6455 -0.2526
 2580SOL     OW11144   1.049   1.380   4.812 -0.0572 -0.1079 -0.3237
 2580SOL    HW111145   0.992   1.438   4.863  1.7699  0.4481  1.1555
 2580SOL    HW211146   1.052   1.299   4.862 -0.0716 -0.3493 -0.7148
 2581SOL     OW11147   5.114   0.176   6.036 -0.6124  0.1149 -0.5515
 2581SOL    HW111148   5.112   0.263   6.076 -0.7063 -0.7114  1.3195
 2581SOL    HW211149   5.183   0.129   6.085  0.5484 -0.3776 -2.5980
 2582SOL     OW11150   0.673   2.249   0.130  0.1290  0.0951 -0.0966
 2582SOL    HW111151   0.682   2.233   0.036 -1.0470 -3.0715  0.2677
 2582SOL    HW211152   0.579   2.237   0.147  0.2963  0.8274  1.4626
 2583SOL     OW11153   9.373  10.962   7.653  0.3895 -0.0910 -0.5102
 2583SOL    HW111154   9.390  10.888   7.595 -2.3483 -0.7554 -0.4970
 2583SOL    HW211155   9.312  10.929   7.719  1.5890  1.3158  1.3947
 2584SOL     OW11156   3.537   1.343  10.473  0.2302  1.1270  0.3160
 2584SOL    HW111157   3.573   1.403  10.408 -0.4493  0.3741 -0.7562
 2584SOL    HW211158   3.495   1.274  10.422 -0.2958  0.5223  1.5503
 2585SOL     OW11159   8.556   4.311   3.107  0.1593  0.2764 -0.0627
 2585SOL    HW111160   8.558   4.254   3.030  0.7837 -0.8059  0.7319
 2585SOL    HW211161   8.596   4.258   3.177  2.2523  2.2592  0.3146
 2586SOL     OW11162   5.450   2.378   9.234 -0.0147  0.4380 -0.3275
 2586SOL    HW111163   5.374   2.425   9.267  0.2753  1.2773 -0.8263
 2586SOL    HW211164   5.418   2.290   9.214 -1.0372  1.0129 -1.2542
 2587SOL     OW11165   5.494   5.974   8.182  0.3638 -0.0568  0.2342
 2587SOL    HW111166   5.454   6.010   8.103 -1.3071  0.3556  1.2583
 2587SOL    HW211167   5.467   6.033   8.252 -1.5875 -2.6698  1.7914
 2588SOL     OW11168   8.991   9.322   9.727 -0.5717  0.2835  0.4167
 2588SOL    HW111169   9.004   9.415   9.707  3.5906 -0.2859 -0.0724
 2588SOL    HW211170   8.978   9.281   9.641 -2.1452  0.3449  0.6123
 2589SOL     OW11171   7.121   8.817   2.437  0.0898  0.5928 -0.5454
 2589SOL    HW111172   7.039   8.830   2.391 -0.1617 -1.0346 -0.5828
 2589SOL    HW211173   7.107   8.858   2.523  0.0649  2.3582 -1.3808
 2590SOL     OW11174   6.960   0.215  10.425 -0.0144  0.2643 -0.3879
 2590SOL    HW111175   6.977   0.278  10.495 -1.0394 -0.0788  0.1878
 2590SOL    HW211176   7.020   0.142  10.443 -0.9113 -0.2219  0.6665
 2591SOL     OW11177   7.655   0.413   9.281  0.0610 -0.2743 -0.1183
 2591SOL    HW111178   7.713   0.338   9.274  0.0116 -0.5097  1.7378
 2591SOL    HW211179   7.711   0.485   9.310  0.2500  0.6235 -2.5481
 2592SOL     OW11180   6.452   2.363   5.793  0.2823 -0.0033 -0.4224
 2592SOL    HW111181   6.433   2.323   5.708  0.6695  0.4408 -0.7180
 2592SOL    HW211182   6.501   2.296   5.841  1.0787  0.1837 -0.9804
 2593SOL     OW11183   6.546   0.980   1.082 -0.0337 -0.3940  0.2871
 2593SOL    HW111184   6.494   0.996   1.161  1.0228 -1.1470  1.1500
 2593SOL    HW211185   6.636   0.999   1.109  0.5457 -2.3300 -0.2411
 2594SOL     OW11186   9.883  10.034   2.407  0.3867  0.4234 -0.2262
 2594SOL    HW111187   9.882  10.039   2.311  1.9309 -0.2472 -0.2921
 2594SOL    HW211188   9.855   9.945   2.427  0.0307  0.5745 -0.0625
 2595SOL     OW11189   0.461   7.788   2.551  0.1937 -0.2488 -0.3673
 2595SOL    HW111190   0.544   7.833   2.534  0.2737 -0.2908 -0.0956
 2595SOL    HW211191   0.447   7.799   2.645  1.5474 -3.0188  0.2397
 2596SOL     OW11192   8.276   1.887  10.313 -0.1517 -0.3785 -0.1439
 2596SOL    HW111193   8.278   1.800  10.352  0.4873 -0.7811 -1.0518
 2596SOL    HW211194   8.330   1.941  10.372 -1.1819 -0.3985  0.8414
 2597SOL     OW11195   6.837   1.422   6.537  0.3051 -0.6396  0.3871
 2597SOL    HW111196   6.930   1.415   6.514  0.3293 -0.5779  0.4639
 2597SOL    HW211197   6.812   1.510   6.507 -0.3000 -1.4837 -1.6690
 2598SOL     OW11198   6.453   4.379   5.272  0.6657 -0.2632  0.1475
 2598SOL    HW111199   6.469   4.386   5.178  2.4302  0.5565  0.4845
 2598SOL    HW211200   6.476   4.465   5.307 -1.5207 -0.0438  1.1411
 2599SOL     OW11201   9.566   7.679   3.801 -0.2341 -0.1088  0.3842
 2599SOL    HW111202   9.568   7.620   3.726  0.4321  0.0238  0.2932
 2599SOL    HW211203   9.475   7.679   3.829 -0.6268  0.3571 -0.8439
 2600SOL     OW11204   0.054   4.469   0.007 -0.2411  0.3938 -0.7093
 2600SOL    HW111205   0.001   4.536  -0.036  0.9957  1.2126 -1.0116
 2600SOL    HW211206   0.134   4.465  -0.045 -0.0102 -0.8335 -0.2783
 2601SOL     OW11207   4.035   5.199   3.277  0.2164  0.0243 -0.1264
 2601SOL    HW111208   4.052   5.250   3.198  3.3777  0.4098  0.7188
 2601SOL    HW211209   3.998   5.261   3.339  1.5661  0.6922  0.0254
 2602SOL     OW11210   1.300   3.298   9.063  0.0505  0.7018  0.0014
 2602SOL    HW111211   1.350   3.219   9.081 -1.6136 -0.4302 -0.3156
 2602SOL    HW211212   1.316   3.316   8.970 -0.4600  0.1216 -0.1941
 2603SOL     OW11213   1.081   1.581   7.943 -0.6746 -0.0161  0.2869
 2603SOL    HW111214   1.162   1.551   7.985 -1.2784  2.0506  3.0660
 2603SOL    HW211215   1.019   1.509   7.956 -0.3059 -0.1552  1.3280
 2604SOL     OW11216   1.761   4.451   8.105  0.0805 -0.0102 -0.1643
 2604SOL    HW111217   1.748   4.536   8.147  0.1311  0.1437 -0.4615
 2604SOL    HW211218   1.687   4.398   8.134  0.6422 -0.2167  0.9226
 2605SOL     OW11219   4.661   7.553  10.230  0.1464  0.7034  0.4706
 2605SOL    HW111220   4.599   7.586  10.165 -0.2035 -0.5687  0.1504
 2605SOL    HW211221   4.725   7.623  10.240  1.0546  0.3318 -2.3593
 2606SOL     OW11222   9.528   7.124   2.121 -0.0627 -0.5577 -0.4728
 2606SOL    HW111223   9.590   7.167   2.062  1.0766  0.9027  1.7109
 2606SOL    HW211224   9.442   7.158   2.094  0.3769 -0.2701 -1.5532
 2607SOL     OW11225  10.211   9.125   9.783  0.4920 -0.9745 -0.2087
 2607SOL    HW111226  10.305   9.110   9.771  0.2895 -2.3131 -0.1911
 2607SOL    HW211227  10.183   9.056   9.842 -0.5328 -0.6630 -0.3253
 2608SOL     OW11228   4.413   5.660   9.445 -0.3082  0.5976  0.8020
 2608SOL    HW111229   4.440   5.752   9.449 -3.1603  1.6866 -2.3610
 2608SOL    HW211230   4.345   5.651   9.511 -0.3963  0.9030  0.7520
 2609SOL     OW11231   7.782   1.951   7.693  0.0498  0.5396  0.5896
 2609SOL    HW111232   7.793   2.028   7.638  0.9095  0.4652  0.6479
 2609SOL    HW211233   7.753   1.882   7.633 -0.9245  0.9668  0.5785
 2610SOL     OW11234   2.044   4.533   3.100  0.2831  0.2595  0.0520
 2610SOL    HW111235   2.016   4.460   3.044  0.4278  0.5697 -0.4314
 2610SOL    HW211236   2.128   4.561   3.062 -0.7440  1.9986 -1.0302
 2611SOL     OW11237   1.219   5.541   1.505  0.2755  0.7317  0.3048
 2611SOL    HW111238   1.257   5.498   1.429 -1.6477 -0.5912  0.0584
 2611SOL    HW211239   1.271   5.620   1.517  2.4067 -0.4999 -0.6392
 2612SOL     OW11240   1.114   4.280   7.122 -0.0078  0.0526  0.1460
 2612SOL    HW111241   1.207   4.277   7.101  0.5766  1.6693  2.4057
 2612SOL    HW211242   1.100   4.204   7.179  0.2372  0.6411  0.9921
 2613SOL     OW11243  10.486   1.606   7.855  0.1466  0.3493  0.0328
 2613SOL    HW111244  10.392   1.621   7.843  0.6161  2.8475 -0.9474
 2613SOL    HW211245  10.513   1.556   7.778 -0.5262 -1.1353  0.7514
 2614SOL     OW11246   5.605   6.965  10.804 -0.1536  0.2085  0.5202
 2614SOL    HW111247   5.678   6.958  10.742 -0.3197 -1.8759  0.5048
 2614SOL    HW211248   5.646   6.972  10.890  0.1161 -1.4767  0.5604
 2615SOL     OW11249   2.697   9.833   3.920 -0.5160 -0.3060 -0.4298
 2615SOL    HW111250   2.621   9.861   3.869  0.0014 -0.3200 -1.2314
 2615SOL    HW211251   2.727   9.753   3.877  0.2357 -0.0343 -0.4277
 2616SOL     OW11252   5.878  10.623   9.279 -0.6827 -0.1094  0.5098
 2616SOL    HW111253   5.840  10.622   9.366 -0.6521  1.3365  0.5518
 2616SOL    HW211254   5.972  10.614   9.293 -0.7356 -0.5042  0.5944
 2617SOL     OW11255   9.804   9.592   7.433 -0.3432  0.0068 -0.0774
 2617SOL    HW111256   9.756   9.510   7.442 -1.6424  0.7863  0.3513
 2617SOL    HW211257   9.820   9.601   7.339  0.1925 -0.9434 -0.0832
 2618SOL     OW11258   1.535   9.077  10.816 -0.2075 -0.2219 -0.2217
 2618SOL    HW111259   1.554   8.992  10.777 -2.2849 -0.9063  0.1940
 2618SOL    HW211260   1.507   9.131  10.743 -0.1727 -0.2940 -0.2891
 2619SOL     OW11261   2.182   9.874   9.961 -0.3466 -0.0166 -0.0967
 2619SOL    HW111262   2.097   9.834   9.980 -0.6957  0.7330 -0.0630
 2619SOL    HW211263   2.162   9.966   9.945  0.4993  0.2205  0.1863
 2620SOL     OW11264   0.797   6.984   4.799  0.1281 -0.4304 -0.7279
 2620SOL    HW111265   0.745   7.064   4.810 -0.2337 -0.2562 -3.3166
 2620SOL    HW211266   0.888   7.014   4.801  0.0498 -0.2319  0.1986
 2621SOL     OW11267   5.695   6.361   4.811 -0.0501 -0.5035  0.0945
 2621SOL    HW111268   5.676   6.277   4.767 -2.3785 -0.9915  1.9502
 2621SOL    HW211269   5.640   6.360   4.889  1.1710  2.0486  1.0258
 2622SOL     OW11270   5.230   7.458   5.519  0.1940  0.4229 -0.3921
 2622SOL    HW111271   5.203   7.456   5.611 -1.7523  1.4700 -0.9182
 2622SOL    HW211272   5.272   7.373   5.504  1.9702  0.8468  1.8794
 2623SOL     OW11273   5.481   5.122   6.309  0.3907 -0.1947 -0.3395
 2623SOL    HW111274   5.453   5.186   6.243 -0.1679  0.3070  0.3763
 2623SOL    HW211275   5.573   5.144   6.326  1.2821 -1.8912 -2.7447
 2624SOL     OW11276   1.422   1.069   4.679  0.0604 -0.0655  0.2351
 2624SOL    HW111277   1.390   0.978   4.684 -1.5154  0.5445  1.4897
 2624SOL    HW211278   1.384   1.112   4.755  0.6874  1.6999 -0.4392
 2625SOL     OW11279   1.306   8.472   3.489 -0.4986 -0.2818 -0.1110
 2625SOL    HW111280   1.283   8.564   3.496 -2.4139 -0.8030  0.7767
 2625SOL    HW211281   1.396   8.467   3.521 -0.6194  1.1660  0.4734
 2626SOL     OW11282   5.201  10.143  10.173  0.2339 -0.0482 -0.4183
 2626SOL    HW111283   5.138  10.125  10.104 -0.1034  1.0167 -0.3943
 2626SOL    HW211284   5.187  10.073  10.237 -1.1202  0.3274 -0.2854
 2627SOL     OW11285   6.098   5.261   5.982 -0.2972  0.1606 -0.0283
 2627SOL    HW111286   6.008   5.291   5.993 -0.0949  0.7003  0.1877
 2627SOL    HW211287   6.113   5.202   6.056 -0.4970  0.0148 -0.1051
 2628SOL     OW11288   3.251   5.231   9.632  0.3419  0.3874  0.0032
 2628SOL    HW111289   3.321   5.165   9.626  1.3600  1.5334 -1.0262
 2628SOL    HW211290   3.254   5.261   9.723  1.3281  0.5732 -0.0852
 2629SOL     OW11291   7.624   4.237  10.551 -0.1757 -0.2914 -0.1053
 2629SOL    HW111292   7.709   4.280  10.542 -0.0891 -0.6140 -0.8408
 2629SOL    HW211293   7.619   4.213  10.643 -0.4453  1.7563  0.4404
 2630SOL     OW11294   3.746   1.064   8.736 -0.1624  0.3896 -0.3612
 2630SOL    HW111295   3.697   1.128   8.684 -0.1861  0.1908 -0.5853
 2630SOL    HW211296   3.797   1.117   8.797 -0.4878  0.6068 -0.2756
 2631SOL     OW11297   3.272   3.985   4.693  0.4122  0.1569  0.1131
 2631SOL    HW111298   3.199   3.924   4.677  0.3665  0.5091 -1.0954
 2631SOL    HW211299   3.257   4.056   4.631  1.5669  0.4255  0.1316
 2632SOL     OW11300   9.768   1.607   8.732  0.1810  0.2854 -0.0711
 2632SOL    HW111301   9.710   1.575   8.663 -0.8453  2.3448 -0.2000
 2632SOL    HW211302   9.791   1.695   8.704  1.0311  0.5557  1.4426
 2633SOL     OW11303   6.548   9.760   0.674 -0.6381 -0.1539  0.2712
 2633SOL    HW111304   6.517   9.762   0.584  0.0722 -0.4753  0.0213
 2633SOL    HW211305   6.517   9.676   0.708  1.1451 -1.1095 -0.4070
 2634SOL     OW11306   3.991   4.441   1.394 -0.1154  0.3883 -0.1341
 2634SOL    HW111307   4.067   4.494   1.369 -0.9388  1.5153 -0.2417
 2634SOL    HW211308   3.997   4.432   1.489  0.4625 -0.0137 -0.2039
 2635SOL     OW11309   4.474   7.977   9.804 -0.3212  0.2607  0.4503
 2635SOL    HW111310   4.564   8.001   9.829 -0.1816  0.5101 -0.2803
 2635SOL    HW211311   4.461   8.019   9.720 -1.0568  0.0448  0.4549
 2636SOL     OW11312   4.921   9.782  10.192 -0.0493  0.1087 -0.1852
 2636SOL    HW111313   4.834   9.746  10.174  0.2319 -1.9573  2.2519
 2636SOL    HW211314   4.979   9.739  10.130 -0.4743 -0.0077 -0.5034
 2637SOL     OW11315   3.669   6.044   2.245 -0.1259 -0.1096 -0.9647
 2637SOL    HW111316   3.628   6.128   2.224  0.6181  0.2510 -0.9720
 2637SOL    HW211317   3.620   6.012   2.321  1.0528  1.3993  0.4666
 2638SOL     OW11318   7.612   1.770   1.273 -0.5951  0.1022  0.0046
 2638SOL    HW111319   7.567   1.813   1.201 -1.0404  2.2071  1.5158
 2638SOL    HW211320   7.542   1.733   1.327 -0.4807  1.8895  1.4257
 2639SOL     OW11321   1.659   0.838   8.049 -0.2952 -0.0705  0.0484
 2639SOL    HW111322   1.591   0.775   8.025  1.3207 -2.4275  1.3783
 2639SOL    HW211323   1.740   0.799   8.015  0.3093  3.2600 -2.5688
 2640SOL     OW11324   6.362   5.532   3.076 -0.1257  0.2105 -0.2072
 2640SOL    HW111325   6.395   5.461   3.021 -0.3805 -0.0727  0.0051
 2640SOL    HW211326   6.289   5.493   3.125  0.7967  0.1601  1.1515
 2641SOL     OW11327   0.049   7.767   4.690 -0.2210  0.5542 -0.3576
 2641SOL    HW111328   0.089   7.683   4.712  0.3540  0.5114 -1.5349
 2641SOL    HW211329   0.046   7.815   4.773 -0.5487 -0.6175  0.3208
 2642SOL     OW11330   5.477  10.192   5.858  0.0818  0.1278 -0.2246
 2642SOL    HW111331   5.422  10.167   5.783 -0.1606 -0.3467  0.1102
 2642SOL    HW211332   5.448  10.280   5.880 -1.0826 -0.4048  0.4272
 2643SOL     OW11333   4.859   4.904   5.144 -0.9731  0.0570  0.5705
 2643SOL    HW111334   4.880   4.862   5.227 -1.3756 -0.0351  0.6295
 2643SOL    HW211335   4.807   4.839   5.097 -1.1077  0.2690  0.4257
 2644SOL     OW11336   0.114   0.398   6.775  0.3813  0.2266  0.5362
 2644SOL    HW111337   0.059   0.466   6.814 -1.7993 -1.5720  0.6928
 2644SOL    HW211338   0.197   0.405   6.822 -0.5516  1.3217  2.0925
 2645SOL     OW11339   0.933   7.320   0.156  0.3459  0.1785 -0.2153
 2645SOL    HW111340   0.861   7.382   0.142 -0.0621 -0.0063  1.0294
 2645SOL    HW211341   0.904   7.266   0.229  1.5845 -0.1609  0.0328
 2646SOL     OW11342   3.925   3.965   6.199 -0.2869  0.1700  0.1659
 2646SOL    HW111343   3.870   3.893   6.170 -0.7934  0.4938  0.3173
 2646SOL    HW211344   4.002   3.961   6.142 -0.4746 -0.2735 -0.0559
 2647SOL     OW11345   8.848   8.672   3.227  0.5766  0.2121  0.1782
 2647SOL    HW111346   8.817   8.653   3.316 -1.3340  1.3968 -0.2040
 2647SOL    HW211347   8.774   8.650   3.171  0.2030  3.5215 -0.7223
 2648SOL     OW11348   6.324   5.386   5.810  0.2016 -0.0096  0.2238
 2648SOL    HW111349   6.270   5.307   5.806  0.2826 -0.0799  0.5503
 2648SOL    HW211350   6.362   5.385   5.897  2.6600 -1.2518 -0.8101
 2649SOL     OW11351   1.331   3.907   2.419  0.0806  0.2433  0.8602
 2649SOL    HW111352   1.287   3.990   2.439  1.3313  0.7585  1.5584
 2649SOL    HW211353   1.286   3.843   2.474 -1.6009  0.2466 -0.4765
 2650SOL     OW11354   7.332   5.832   2.838 -0.5046  0.1617  0.3668
 2650SOL    HW111355   7.335   5.927   2.827 -1.0475  0.1085 -0.2740
 2650SOL    HW211356   7.252   5.805   2.792 -1.7262 -0.3218  2.7055
 2651SOL     OW11357   6.937   7.689   9.630 -0.0072 -0.3595 -0.2443
 2651SOL    HW111358   6.875   7.755   9.661 -0.9748 -1.4729  0.2278
 2651SOL    HW211359   6.971   7.724   9.548  3.2709  3.0714  2.4335
 2652SOL     OW11360   3.579   7.525   9.440  0.5260 -0.5881 -0.1321
 2652SOL    HW111361   3.634   7.526   9.518  0.3955 -0.4244 -0.0392
 2652SOL    HW211362   3.595   7.440   9.400  0.3816 -0.7878  0.2273
 2653SOL     OW11363   4.754   2.717  10.871  0.2474 -0.8702  0.0694
 2653SOL    HW111364   4.727   2.808  10.878  0.1760 -0.9648  1.1912
 2653SOL    HW211365   4.849   2.719  10.877  0.2550 -0.8492 -0.0764
 2654SOL     OW11366   0.077   6.964   7.079 -0.0337  0.4498  0.0362
 2654SOL    HW111367   0.089   7.034   7.143 -1.8374  0.4198  0.4298
 2654SOL    HW211368   0.032   7.006   7.006  0.2554  0.0466 -0.3757
 2655SOL     OW11369   7.362   0.758   8.967  0.3750 -0.1476 -0.0242
 2655SOL    HW111370   7.362   0.747   8.872  0.2856 -3.3163  0.3046
 2655SOL    HW211371   7.441   0.712   8.997  0.2066  0.5007  1.4815
 2656SOL     OW11372   8.180   5.739   4.724 -0.4689  0.3304 -0.5423
 2656SOL    HW111373   8.105   5.706   4.775  0.4072 -0.1637  0.4376
 2656SOL    HW211374   8.254   5.688   4.755  0.0027 -0.3499 -2.7078
 2657SOL     OW11375  10.196   8.067  10.667  0.4172 -0.4134 -0.2803
 2657SOL    HW111376  10.181   8.057  10.573 -1.1361 -0.1855 -0.0794
 2657SOL    HW211377  10.150   7.992  10.706  0.1762  0.0732  0.3671
 2658SOL     OW11378   1.924   9.558  10.596  0.1050  0.5367  0.4868
 2658SOL    HW111379   1.868   9.633  10.617 -3.3598 -2.2635  1.8410
 2658SOL    HW211380   1.971   9.541  10.678  1.4284  1.6027 -0.0289
 2659SOL     OW11381   2.410  10.972   2.509  0.0961  0.1471  0.0986
 2659SOL    HW111382   2.394  11.062   2.537  0.8666 -0.3816  2.4090
 2659SOL    HW211383   2.495  10.975   2.465  0.4730  0.4294  0.8383
 2660SOL     OW11384   1.749   9.583   0.582 -0.0014 -0.1952  0.5090
 2660SOL    HW111385   1.840   9.559   0.567  0.1554 -0.6095  2.0634
 2660SOL    HW211386   1.749   9.679   0.581  0.5095 -0.1943  0.8936
 2661SOL     OW11387   5.413   3.688   4.628  0.3104 -0.4122 -0.2137
 2661SOL    HW111388   5.390   3.752   4.561  1.2256  1.4752  1.2247
 2661SOL    HW211389   5.434   3.740   4.705  2.1919 -2.3933  0.6856
 2662SOL     OW11390   8.462   4.827   5.302 -1.1408  0.1728  0.2406
 2662SOL    HW111391   8.490   4.776   5.226 -1.0703 -1.9531  1.6209
 2662SOL    HW211392   8.510   4.909   5.295 -0.1788 -0.4871 -1.3420
 2663SOL     OW11393   0.377  10.611   0.502  0.0624 -0.2144 -0.3362
 2663SOL    HW111394   0.369  10.632   0.595 -0.0731 -0.2834 -0.3331
 2663SOL    HW211395   0.470  10.623   0.483 -0.0137  0.3846 -0.3342
 2664SOL     OW11396   2.266   4.783   3.639  0.6858 -0.8314  0.5478
 2664SOL    HW111397   2.289   4.783   3.731  2.9642  0.6677  0.0193
 2664SOL    HW211398   2.300   4.866   3.605  0.6160 -1.7078 -1.8111
 2665SOL     OW11399   2.189   8.315   7.653  0.2938 -0.3286  0.6739
 2665SOL    HW111400   2.187   8.269   7.569 -0.1678 -0.3883  0.7147
 2665SOL    HW211401   2.102   8.354   7.660  0.0636 -0.9844  1.4995
 2666SOL     OW11402   3.623   8.258   1.695  0.1407 -0.0137  0.7013
 2666SOL    HW111403   3.588   8.283   1.780  0.7870  1.0945  0.6612
 2666SOL    HW211404   3.664   8.173   1.709  0.5223  0.3103  1.5832
 2667SOL     OW11405  10.825   0.425   3.077 -0.1325  0.1146  0.4780
 2667SOL    HW111406  10.860   0.478   3.005 -1.2036  0.5517  0.2689
 2667SOL    HW211407  10.777   0.487   3.132 -0.5342 -0.4587  0.7824
 2668SOL     OW11408   3.185   8.861   3.481 -0.0549  0.6692 -0.0247
 2668SOL    HW111409   3.265   8.822   3.518 -2.0756 -2.0170  1.6891
 2668SOL    HW211410   3.158   8.926   3.545  0.1980  0.8828 -0.1327
 2669SOL     OW11411   9.375   7.234   3.924  0.3089 -0.3602  0.0293
 2669SOL    HW111412   9.356   7.155   3.875  0.7240 -0.6196  0.2850
 2669SOL    HW211413   9.466   7.223   3.954  0.8230  0.7986 -1.0621
 2670SOL     OW11414   6.496  10.971   2.722  0.1991  0.4429 -0.2197
 2670SOL    HW111415   6.493  10.892   2.667  0.3336 -0.0023  0.4064
 2670SOL    HW211416   6.454  11.038   2.669  0.8766  0.1733 -1.1179
 2671SOL     OW11417   9.344   8.362   4.001  0.2712 -0.4615  0.2156
 2671SOL    HW111418   9.289   8.301   3.953 -1.5133  0.8518  0.5150
 2671SOL    HW211419   9.357   8.435   3.941  0.6469 -0.2125  0.5943
 2672SOL     OW11420   0.566   7.123   5.671  0.0918  0.0029 -0.1631
 2672SOL    HW111421   0.501   7.058   5.642 -0.9047  1.7746 -2.0650
 2672SOL    HW211422   0.591   7.168   5.590  1.8822  0.9912  0.9246
 2673SOL     OW11423   2.485   9.949   9.971  0.5160 -0.0106  0.5293
 2673SOL    HW111424   2.528   9.872   9.933  0.3073 -0.8062  1.8582
 2673SOL    HW211425   2.392   9.935   9.952  0.5429  0.2231  0.2311
 2674SOL     OW11426   2.848   6.672   2.628 -0.3189 -0.3379 -0.4700
 2674SOL    HW111427   2.846   6.767   2.619  2.4823 -0.1888 -0.1585
 2674SOL    HW211428   2.809   6.655   2.713  2.0979  0.8529  0.9408
 2675SOL     OW11429   4.352   8.659   4.886  0.3084  0.1319 -0.2770
 2675SOL    HW111430   4.330   8.568   4.909 -3.0563  0.9923  0.1945
 2675SOL    HW211431   4.332   8.665   4.792 -0.1383  0.5538 -0.1560
 2676SOL     OW11432   6.289   8.374   2.706  0.3587 -0.1682 -0.3884
 2676SOL    HW111433   6.274   8.397   2.614  0.3514 -0.2368 -0.4039
 2676SOL    HW211434   6.378   8.341   2.708  0.6656  0.6449 -0.2198
 2677SOL     OW11435   8.252  10.206   0.402 -0.1029  0.6982 -0.1583
 2677SOL    HW111436   8.300  10.167   0.329  0.6785  1.3477  0.0027
 2677SOL    HW211437   8.167  10.230   0.364 -0.6033 -1.1068 -0.2660
 2678SOL     OW11438   8.949   4.329   4.142 -0.0413 -0.2263  0.5933
 2678SOL    HW111439   8.981   4.385   4.071  0.3154  0.4854  1.2993
 2678SOL    HW211440   8.870   4.374   4.173  0.2425 -0.1131  1.1599
 2679SOL     OW11441   4.302   4.312   5.907 -0.2493  0.6138  0.2940
 2679SOL    HW111442   4.320   4.382   5.969  1.2202 -0.1798  0.7786
 2679SOL    HW211443   4.387   4.270   5.893 -0.8288 -0.0667 -1.2061
 2680SOL     OW11444   6.153   2.599   0.325 -0.3723 -0.1861 -1.0272
 2680SOL    HW111445   6.075   2.546   0.341 -0.1083 -0.9322 -2.1655
 2680SOL    HW211446   6.122   2.672   0.271 -0.5368  0.2391 -0.3547
 2681SOL     OW11447   3.663   7.045   7.587  0.0522  0.1190  0.0900
 2681SOL    HW111448   3.671   6.976   7.521  0.0424  1.7634 -1.6865
 2681SOL    HW211449   3.735   7.105   7.567 -0.6094  1.1966  0.9080
 2682SOL     OW11450   4.969   7.015   4.693 -0.5230 -1.1191  0.2298
 2682SOL    HW111451   4.971   6.919   4.687 -2.6033 -1.0440 -2.5537
 2682SOL    HW211452   5.060   7.042   4.677  0.2170 -2.6312  1.7079
 2683SOL     OW11453   9.346   6.300   7.947  0.1358  0.6079 -0.6635
 2683SOL    HW111454   9.390   6.217   7.965 -0.3074  0.4378 -0.3651
 2683SOL    HW211455   9.418   6.363   7.936  0.4203  0.7797  1.9228
 2684SOL     OW11456   2.790   7.774   3.444  0.0322  0.4095  0.2744
 2684SOL    HW111457   2.839   7.808   3.520 -0.5764  2.2350 -0.1147
 2684SOL    HW211458   2.857   7.736   3.387  1.0281  2.7397 -0.1758
 2685SOL     OW11459   7.530   8.147   4.880 -0.0009  0.2887 -0.2860
 2685SOL    HW111460   7.613   8.126   4.837 -0.0051  3.4044 -2.0024
 2685SOL    HW211461   7.464   8.138   4.811 -0.7728  0.0598  0.4756
 2686SOL     OW11462   4.264   1.568  10.970  0.1788 -0.0676 -0.2750
 2686SOL    HW111463   4.194   1.619  11.011  1.1193  0.2501  0.9623
 2686SOL    HW211464   4.258   1.482  11.013  0.0756 -0.2795 -0.7099
 2687SOL     OW11465  10.127   3.424   1.814  0.3115 -0.2660 -0.0940
 2687SOL    HW111466  10.193   3.489   1.791  1.7185 -1.0260  1.6298
 2687SOL    HW211467  10.165   3.340   1.788 -0.6282 -0.5800 -0.4828
 2688SOL     OW11468   0.287   3.188   8.078 -0.1996  0.4178 -0.0636
 2688SOL    HW111469   0.224   3.117   8.081  1.4105 -1.0824 -1.1859
 2688SOL    HW211470   0.234   3.266   8.060 -1.8745 -0.6097  0.3291
 2689SOL     OW11471   5.085   1.895   1.879  0.1465  0.0030 -0.3212
 2689SOL    HW111472   5.023   1.829   1.847 -2.1066  1.2035  1.4568
 2689SOL    HW211473   5.077   1.967   1.817 -2.4232  1.3362  1.4939
 2690SOL     OW11474   1.654   5.517   6.919  0.0424  0.2313  0.2642
 2690SOL    HW111475   1.626   5.533   7.009 -0.3115 -0.0658  0.2069
 2690SOL    HW211476   1.736   5.566   6.910  0.0700  0.2686  0.7420
 2691SOL     OW11477   1.867   7.523   5.530  0.2652 -0.0841  0.1649
 2691SOL    HW111478   1.870   7.618   5.522 -1.4646 -0.0377 -0.0915
 2691SOL    HW211479   1.928   7.491   5.463 -0.4164  0.8003 -0.8920
 2692SOL     OW11480   1.539   5.981   2.014  0.0343  0.3148 -0.4398
 2692SOL    HW111481   1.537   6.013   1.924 -0.4139 -0.0531 -0.5629
 2692SOL    HW211482   1.476   5.909   2.015  1.1283 -0.6472 -0.1950
 2693SOL     OW11483   9.216  10.500   1.815  0.1170  0.1236 -0.5827
 2693SOL    HW111484   9.292  10.558   1.819 -0.4482  1.1343 -3.0346
 2693SOL    HW211485   9.231  10.447   1.737 -1.4971  0.0686 -0.8819
 2694SOL     OW11486   8.252   6.923  10.180 -0.2884 -0.4213  0.9353
 2694SOL    HW111487   8.190   6.934  10.253 -1.5597 -2.2205  0.1660
 2694SOL    HW211488   8.291   6.837  10.195 -0.5497 -0.8012 -0.4852
 2695SOL     OW11489  10.391   8.374   9.882  0.2909 -0.6180 -0.0508
 2695SOL    HW111490  10.332   8.437   9.922  0.0392 -1.9689  1.7720
 2695SOL    HW211491  10.466   8.369   9.942  0.8902 -1.1231 -0.8256
 2696SOL     OW11492   7.204   4.910   7.721 -0.2250 -0.0417  0.0013
 2696SOL    HW111493   7.127   4.964   7.738 -0.3827 -0.1350 -0.4175
 2696SOL    HW211494   7.277   4.971   7.719 -0.2609  0.0250  0.5885
 2697SOL     OW11495  10.249   7.327   1.164 -0.4799  0.6544 -0.0347
 2697SOL    HW111496  10.232   7.397   1.101  1.0501 -0.3371 -1.5931
 2697SOL    HW211497  10.184   7.260   1.145 -0.3737  0.5926 -0.1728
 2698SOL     OW11498   4.429   9.175   5.448  0.2704  0.1340  0.5084
 2698SOL    HW111499   4.508   9.132   5.417 -0.3296 -0.3225 -0.4254
 2698SOL    HW211500   4.358   9.135   5.397 -0.2256  2.8346 -1.0891
 2699SOL     OW11501   1.089   7.187   4.333  0.0724 -0.1937 -0.4275
 2699SOL    HW111502   1.017   7.243   4.302 -1.7067 -1.5435  1.1358
 2699SOL    HW211503   1.124   7.233   4.410  0.2664  0.0076 -0.6364
 2700SOL     OW11504   4.833   6.834   9.862  0.9229  0.2794 -0.2934
 2700SOL    HW111505   4.919   6.876   9.851  0.7331  0.6716 -0.2950
 2700SOL    HW211506   4.852   6.752   9.907  1.3723  0.0361 -0.9273
 2701SOL     OW11507   7.762   6.813   2.419  0.1684  0.1736  0.3379
 2701SOL    HW111508   7.699   6.820   2.491 -0.7618  0.0739 -0.4512
 2701SOL    HW211509   7.832   6.757   2.453 -0.2624  0.1367  1.1668
 2702SOL     OW11510   3.650  10.941   9.424 -0.0628  0.3547  0.0964
 2702SOL    HW111511   3.621  11.006   9.360  0.2991  0.2602 -0.1681
 2702SOL    HW211512   3.646  10.986   9.508 -0.9753  0.3383  0.0694
 2703SOL     OW11513   4.566   7.153   0.918 -0.2837  0.3581  0.7063
 2703SOL    HW111514   4.627   7.124   0.851 -1.6727  1.0080 -0.8655
 2703SOL    HW211515   4.544   7.074   0.967  0.2200 -0.2343 -0.0234
 2704SOL     OW11516   1.989   5.744   0.927 -0.3422  0.3668  0.1899
 2704SOL    HW111517   1.995   5.649   0.937  0.6271  0.3373 -0.5692
 2704SOL    HW211518   1.925   5.771   0.992 -0.6793 -0.8203  0.3647
 2705SOL     OW11519   7.618  10.526   8.678 -0.4823 -0.2174 -0.0004
 2705SOL    HW111520   7.653  10.611   8.652  0.0605 -0.1187  1.0287
 2705SOL    HW211521   7.568  10.544   8.757  1.2672 -1.1667  1.3429
 2706SOL     OW11522   4.049   0.424   0.521  0.2667 -0.2624  0.7931
 2706SOL    HW111523   3.997   0.344   0.520 -0.4560  0.1900 -1.7696
 2706SOL    HW211524   4.118   0.407   0.586 -0.9530 -2.2303  1.6139
 2707SOL     OW11525   6.863   0.038   5.344 -0.6492  0.2453  0.5342
 2707SOL    HW111526   6.797   0.108   5.351 -0.2164  0.6669  0.4323
 2707SOL    HW211527   6.946   0.081   5.365 -0.2187  0.0313 -0.6666
 2708SOL     OW11528   9.033   9.971   2.944 -0.0985  0.3630 -0.2386
 2708SOL    HW111529   9.016  10.011   3.029  0.5718 -0.5007  0.3071
 2708SOL    HW211530   9.089  10.033   2.899  0.8096  0.1266  0.5492
 2709SOL     OW11531   3.956   3.745   9.718  0.2592  0.0455 -0.0583
 2709SOL    HW111532   3.999   3.791   9.646 -1.1658  1.0808 -0.2806
 2709SOL    HW211533   3.907   3.675   9.675  1.1542 -0.6868  0.1204
 2710SOL     OW11534   1.177   5.532   7.546  0.1728 -0.6738  0.2680
 2710SOL    HW111535   1.260   5.512   7.589  0.6681 -0.2027 -0.4514
 2710SOL    HW211536   1.146   5.611   7.589  2.1529  1.5516 -2.1910
 2711SOL     OW11537   8.324   4.551   5.699 -0.2759  0.2310 -0.1594
 2711SOL    HW111538   8.331   4.637   5.659 -1.1239 -0.4005 -1.7164
 2711SOL    HW211539   8.380   4.495   5.646  0.9599 -0.0173  1.3695
 2712SOL     OW11540   1.746   2.954   8.514  0.3273  1.0390 -0.6221
 2712SOL    HW111541   1.821   2.967   8.455  0.0661  1.0198 -0.9591
 2712SOL    HW211542   1.773   2.995   8.596  1.9168 -1.5250  0.2091
 2713SOL     OW11543   2.275   8.090   7.852  0.8084 -0.0609 -0.5220
 2713SOL    HW111544   2.306   8.118   7.766 -0.6350  0.4127 -0.8962
 2713SOL    HW211545   2.318   8.006   7.867  1.4862  0.1086 -1.4644
 2714SOL     OW11546   9.638   6.815   0.307  0.5896 -0.1874 -0.0692
 2714SOL    HW111547   9.598   6.897   0.279 -0.8436 -1.3421 -1.4727
 2714SOL    HW211548   9.677   6.779   0.228 -0.4669 -1.7824  0.1087
 2715SOL     OW11549   6.913   1.226   8.157 -0.3335  0.5183  0.5144
 2715SOL    HW111550   6.901   1.210   8.251  2.6461 -3.5529  0.3332
 2715SOL    HW211551   6.942   1.317   8.152 -2.7881  1.5284  3.2942
 2716SOL     OW11552   0.129   5.692   3.377  0.0869  0.4139  0.5612
 2716SOL    HW111553   0.060   5.681   3.311  0.1029  0.4847  0.5324
 2716SOL    HW211554   0.098   5.765   3.431  1.7042  2.7418 -1.5021
 2717SOL     OW11555   6.612   3.168   8.936 -0.3640 -0.5684 -0.3766
 2717SOL    HW111556   6.638   3.243   8.883 -1.3770  0.8004  1.0228
 2717SOL    HW211557   6.690   3.112   8.938  1.3163  1.7407  0.7731
 2718SOL     OW11558   0.264   3.632   2.426  0.2997 -0.1284  0.0354
 2718SOL    HW111559   0.175   3.600   2.440  0.3606 -0.0794  0.5254
 2718SOL    HW211560   0.254   3.705   2.365  0.0547 -0.4347 -0.2921
 2719SOL     OW11561   8.543  10.701   6.509  0.0895 -0.8108 -0.0494
 2719SOL    HW111562   8.571  10.616   6.544 -1.3684 -1.4207 -0.3020
 2719SOL    HW211563   8.538  10.759   6.585  4.2561 -0.0077 -0.2855
 2720SOL     OW11564   4.809  10.544   9.951 -0.5360 -0.2831  0.7245
 2720SOL    HW111565   4.823  10.631   9.990 -1.3848  0.6022 -0.9080
 2720SOL    HW211566   4.737  10.557   9.890 -0.1669 -1.9862 -0.0821
 2721SOL     OW11567   5.206   7.838   1.315 -0.1957 -0.1810 -0.2321
 2721SOL    HW111568   5.266   7.848   1.389 -0.8451 -0.2257  0.3004
 2721SOL    HW211569   5.205   7.744   1.297  0.1310 -0.1456 -0.4399
 2722SOL     OW11570   2.855  10.679   0.185  0.2521 -0.2970 -0.9123
 2722SOL    HW111571   2.767  10.648   0.163  0.6552 -1.0796 -1.4498
 2722SOL    HW211572   2.903  10.676   0.102  0.8533 -0.0947 -0.5761
 2723SOL     OW11573   7.342   2.845   1.052 -0.2375 -0.2997 -0.7477
 2723SOL    HW111574   7.268   2.906   1.042 -0.0524 -0.1524 -1.2310
 2723SOL    HW211575   7.415   2.900   1.080 -0.1167 -0.3311 -1.0057
 2724SOL     OW11576   5.537   0.933   9.509 -0.3662  0.1071 -0.0523
 2724SOL    HW111577   5.542   0.930   9.414  0.3034  0.3413 -0.0295
 2724SOL    HW211578   5.627   0.948   9.537 -0.2536 -1.8101  0.6972
 2725SOL     OW11579   6.986   2.388   9.064  0.0683  0.4107 -0.0345
 2725SOL    HW111580   6.955   2.413   9.151  0.0451  1.6985 -0.4052
 2725SOL    HW211581   7.075   2.423   9.060  0.4874 -0.6432 -0.1049
 2726SOL     OW11582   5.607   9.799   7.393  0.1943  0.3241  0.2509
 2726SOL    HW111583   5.618   9.887   7.357  0.4403  1.2996  2.5700
 2726SOL    HW211584   5.513   9.785   7.397  0.1814 -0.2754 -1.8159
 2727SOL     OW11585   6.673   1.909  10.931  0.1451 -0.5185  0.5076
 2727SOL    HW111586   6.726   1.973  10.884 -1.7694  0.7345  0.0230
 2727SOL    HW211587   6.634   1.855  10.863  0.0564 -0.8400  0.8117
 2728SOL     OW11588   9.471   0.862  10.017 -0.0595  0.1030 -0.0620
 2728SOL    HW111589   9.547   0.821  10.060  1.1887  0.6063 -1.7473
 2728SOL    HW211590   9.399   0.801  10.033  0.3775  0.2152  2.6336
 2729SOL     OW11591   9.603   7.255   1.058  0.1446 -0.1153 -0.3554
 2729SOL    HW111592   9.537   7.282   1.122  0.8791 -0.2217  0.4674
 2729SOL    HW211593   9.686   7.260   1.106  0.4785 -2.3241 -0.6274
 2730SOL     OW11594   2.963  10.529   7.463 -0.6451 -0.2447  0.1397
 2730SOL    HW111595   2.867  10.523   7.471 -0.7294  1.5430  0.7460
 2730SOL    HW211596   2.993  10.542   7.553  0.1917 -0.9569 -0.0310
 2731SOL     OW11597   3.483   0.806   4.049  0.3946  0.4354 -0.3584
 2731SOL    HW111598   3.462   0.794   4.142  0.7679 -0.4091 -0.3790
 2731SOL    HW211599   3.418   0.868   4.018  0.2844  0.7529  0.4792
 2732SOL     OW11600   2.916   4.711   9.155 -0.4180  0.3918  0.3247
 2732SOL    HW111601   2.994   4.759   9.127 -0.5849  0.8828  0.6961
 2732SOL    HW211602   2.853   4.725   9.084 -0.0555 -0.2922 -0.1399
 2733SOL     OW11603   7.692   0.267   6.891  0.4917 -0.1878 -0.0935
 2733SOL    HW111604   7.773   0.297   6.849  0.3471  0.5044  0.1195
 2733SOL    HW211605   7.720   0.235   6.977  0.8835 -2.2088 -0.9462
 2734SOL     OW11606   9.726   6.875  10.508  0.1264 -0.0342  0.6266
 2734SOL    HW111607   9.714   6.785  10.539  0.3375 -0.3243 -0.1370
 2734SOL    HW211608   9.789   6.913  10.569 -0.2965 -0.2673  1.2114
 2735SOL     OW11609   2.397   1.258  10.820  0.3631  0.2629 -0.2550
 2735SOL    HW111610   2.302   1.264  10.808  0.2317  2.8078  1.4723
 2735SOL    HW211611   2.408   1.246  10.915  1.7296 -1.5421 -0.6272
 2736SOL     OW11612   6.989   4.021   7.476 -0.1097 -0.7186 -0.0133
 2736SOL    HW111613   7.076   4.046   7.444 -0.7018 -0.2613 -1.2963
 2736SOL    HW211614   7.006   3.948   7.537  1.4808  1.5937  2.4420
 2737SOL     OW11615   1.556   0.429   5.669  0.2932  0.1006 -0.0500
 2737SOL    HW111616   1.618   0.374   5.622  0.5717  0.2484  0.1447
 2737SOL    HW211617   1.610   0.493   5.715  0.0619 -0.4804  1.0290
 2738SOL     OW11618   8.247   5.627   8.055 -0.1452 -0.2234  0.1744
 2738SOL    HW111619   8.218   5.696   8.115 -1.9466 -0.3501 -0.5262
 2738SOL    HW211620   8.342   5.636   8.053 -0.4044  2.8629 -0.6649
 2739SOL     OW11621   8.565   6.415   2.043  0.4611 -0.4391 -0.6420
 2739SOL    HW111622   8.477   6.451   2.029 -0.2328 -1.9520 -0.3058
 2739SOL    HW211623   8.553   6.351   2.114  1.9263 -0.3053 -0.2710
 2740SOL     OW11624   6.412  10.180   4.182 -0.3047  0.2149  0.1849
 2740SOL    HW111625   6.503  10.156   4.200  1.0667  4.4783 -0.4673
 2740SOL    HW211626   6.375  10.201   4.267 -1.0688 -2.5493  0.5802
 2741SOL     OW11627   6.874   7.614   4.640  0.1507  0.0952  0.3015
 2741SOL    HW111628   6.838   7.703   4.643 -0.5511 -0.0444 -2.9274
 2741SOL    HW211629   6.942   7.617   4.573  2.4562 -1.0490  2.4545
 2742SOL     OW11630   2.500   5.446   9.205 -0.3650  0.6875  0.2499
 2742SOL    HW111631   2.432   5.512   9.190 -0.9252  0.0634  0.0321
 2742SOL    HW211632   2.582   5.491   9.185 -0.5888  1.8790  1.9011
 2743SOL     OW11633   5.137   2.352   7.588 -0.4947  0.3998  0.1936
 2743SOL    HW111634   5.121   2.446   7.587  0.7133  0.6096  0.5917
 2743SOL    HW211635   5.228   2.342   7.617 -0.9424 -0.9217  1.2445
 2744SOL     OW11636   7.569   0.575   8.047 -0.0185  0.5691 -0.2585
 2744SOL    HW111637   7.512   0.624   8.107  0.0540  0.5537 -0.1779
 2744SOL    HW211638   7.625   0.642   8.008 -1.2185  0.8242 -1.5941
 2745SOL     OW11639   0.123   7.838   6.693  0.0925 -0.2458 -0.1606
 2745SOL    HW111640   0.174   7.836   6.774  2.4532 -0.1165 -1.5811
 2745SOL    HW211641   0.055   7.772   6.705  1.0125 -0.9103  1.5377
 2746SOL     OW11642   0.732   8.185   9.374 -0.3135  0.2053 -0.2663
 2746SOL    HW111643   0.706   8.118   9.437 -0.3848  0.2171 -0.2833
 2746SOL    HW211644   0.745   8.264   9.426 -0.3976  0.2214 -0.2703
 2747SOL     OW11645   1.228   4.682   1.171 -0.2029 -0.0731 -0.3173
 2747SOL    HW111646   1.217   4.777   1.169 -2.3992 -0.2713  0.5230
 2747SOL    HW211647   1.191   4.652   1.088  0.1514 -0.2104 -0.4235
 2748SOL     OW11648   1.375   3.921   9.120 -0.3981 -0.0984  0.1569
 2748SOL    HW111649   1.424   3.879   9.049 -2.4287  0.2689 -1.5325
 2748SOL    HW211650   1.413   4.008   9.127 -0.2620 -0.0964 -0.5712
 2749SOL     OW11651   1.137  10.226   8.147  0.1096  0.1797  0.1088
 2749SOL    HW111652   1.069  10.174   8.104  1.4607 -0.4278 -1.3741
 2749SOL    HW211653   1.114  10.317   8.128 -0.7777  0.0145  0.3889
 2750SOL     OW11654   7.468   4.583   4.526 -0.6847  0.1058 -0.5390
 2750SOL    HW111655   7.434   4.672   4.517  0.4891  0.6239  0.1059
 2750SOL    HW211656   7.439   4.555   4.613 -0.6906  0.0034 -0.5731
 2751SOL     OW11657   9.587   7.022   9.309  0.0204 -0.0671 -0.1010
 2751SOL    HW111658   9.593   7.068   9.225 -1.2134  1.4221  0.6167
 2751SOL    HW211659   9.554   6.935   9.285 -0.8623  0.5297 -1.1111
 2752SOL     OW11660   8.008  10.636   7.003 -0.5504 -0.7088 -0.0626
 2752SOL    HW111661   8.034  10.572   6.938 -1.1434 -1.6080  0.5717
 2752SOL    HW211662   8.050  10.608   7.084  0.6356  0.7135 -0.1575
 2753SOL     OW11663   4.991   9.752   9.838  0.0586 -0.2585  0.3091
 2753SOL    HW111664   5.023   9.662   9.832 -0.0909 -0.3551  0.9578
 2753SOL    HW211665   4.896   9.745   9.829 -0.1682 -0.4006  2.5892
 2754SOL     OW11666  10.165   1.099   1.975 -0.1650  0.1263 -0.1481
 2754SOL    HW111667  10.121   1.064   2.052  0.0180 -0.5620 -0.3494
 2754SOL    HW211668  10.258   1.085   1.992 -0.0217  1.6052  0.2888
 2755SOL     OW11669   6.845   8.692   2.748 -0.3069  0.0695 -0.1720
 2755SOL    HW111670   6.811   8.775   2.714  0.8471  0.1776 -1.0677
 2755SOL    HW211671   6.929   8.681   2.705 -0.5048 -1.6385 -0.1425
 2756SOL     OW11672   8.461   8.409   1.094  0.0961 -0.0116  0.1732
 2756SOL    HW111673   8.488   8.501   1.085 -1.4352  0.3484 -0.8478
 2756SOL    HW211674   8.388   8.411   1.156 -0.5611 -0.4193 -0.5858
 2757SOL     OW11675   9.530   6.373   2.633  0.0772  0.5227 -0.3212
 2757SOL    HW111676   9.469   6.313   2.591  0.6755 -0.7134  0.5742
 2757SOL    HW211677   9.617   6.334   2.619  0.4864  1.2653  0.0924
 2758SOL     OW11678   9.728   6.247   1.321  0.7990  0.5688  0.3539
 2758SOL    HW111679   9.711   6.188   1.248 -0.7942  1.4858 -0.0230
 2758SOL    HW211680   9.651   6.239   1.378  1.5589  0.6380  1.4220
 2759SOL     OW11681   5.246   0.721   6.899 -0.3795  0.2821  0.7941
 2759SOL    HW111682   5.221   0.748   6.810 -0.9123  0.0898  0.8866
 2759SOL    HW211683   5.298   0.642   6.887  0.7141  1.0189  0.5586
 2760SOL     OW11684  10.224   9.497   3.501 -0.2321  0.0681  0.3409
 2760SOL    HW111685  10.208   9.468   3.411  1.6738 -1.0998  0.3453
 2760SOL    HW211686  10.294   9.562   3.493 -0.7077  0.6483  0.8919
 2761SOL     OW11687   4.829   3.708   3.923  0.3114 -0.0529  0.1037
 2761SOL    HW111688   4.794   3.623   3.951  0.0730  0.0516  0.1197
 2761SOL    HW211689   4.891   3.686   3.853  1.4784 -0.3784  1.2117
 2762SOL     OW11690   5.431   0.382   0.899  0.0088  0.1851  1.1238
 2762SOL    HW111691   5.487   0.371   0.976  0.9396 -0.7848  0.3341
 2762SOL    HW211692   5.460   0.465   0.859  0.0469  0.3016  1.3956
 2763SOL     OW11693   8.114  10.020   7.863 -0.0679  0.9878  0.4526
 2763SOL    HW111694   8.200   9.981   7.879  0.5181  2.4745  1.0299
 2763SOL    HW211695   8.064   9.951   7.820  0.5006 -0.8604  2.6234
 2764SOL     OW11696   5.640   7.413   5.528  0.1053 -0.4291  0.5774
 2764SOL    HW111697   5.683   7.374   5.452 -0.6531 -0.7768  0.3284
 2764SOL    HW211698   5.561   7.361   5.541 -1.7453  1.9513 -0.7147
 2765SOL     OW11699   3.292  10.470   9.516 -0.2861 -0.1881  0.1517
 2765SOL    HW111700   3.327  10.444   9.430 -0.0720  1.2626 -0.2008
 2765SOL    HW211701   3.331  10.555   9.533 -0.3076 -0.4797  1.7149
 2766SOL     OW11702   1.979   0.069   1.428 -0.1116 -0.1199  0.2491
 2766SOL    HW111703   1.944   0.033   1.347  1.5783 -1.7069  0.2015
 2766SOL    HW211704   1.902   0.096   1.478 -1.1367  1.9445 -2.3304
 2767SOL     OW11705   2.742   0.657   4.896 -0.0978 -0.2875  0.3369
 2767SOL    HW111706   2.691   0.593   4.847  0.1788  0.2278 -0.6288
 2767SOL    HW211707   2.680   0.695   4.958 -0.4899 -0.8037  0.2672
 2768SOL     OW11708   8.563   9.471   1.500 -0.3601  0.5998  0.8520
 2768SOL    HW111709   8.533   9.477   1.409  0.4799  1.0299  0.5910
 2768SOL    HW211710   8.485   9.448   1.550 -1.4717  3.1055  0.3777
 2769SOL     OW11711   4.530   6.916   0.232  0.5023 -0.1224 -0.1729
 2769SOL    HW111712   4.437   6.935   0.227  0.3269 -0.9098  0.0611
 2769SOL    HW211713   4.543   6.841   0.173  0.7720 -0.7815  0.7147
 2770SOL     OW11714   1.299   9.189   3.555  0.2219 -0.1646  0.2617
 2770SOL    HW111715   1.334   9.165   3.469 -0.9559  1.3852 -0.6732
 2770SOL    HW211716   1.242   9.264   3.538 -1.6064 -1.0788  2.1179
 2771SOL     OW11717   3.066  10.076   1.059 -0.1035 -0.3408 -0.5497
 2771SOL    HW111718   3.072  10.012   0.988 -1.1256 -1.4418  0.3479
 2771SOL    HW211719   2.997  10.043   1.116  0.7886  0.4807  1.0353
 2772SOL     OW11720   0.071   9.201   2.868  0.7077  0.4667 -0.1018
 2772SOL    HW111721   0.074   9.295   2.851  0.7824  0.4675 -0.0866
 2772SOL    HW211722   0.157   9.169   2.841  0.4705  0.3074 -0.6782
 2773SOL     OW11723   7.505   3.438   8.541  0.4655  0.4056  0.3020
 2773SOL    HW111724   7.467   3.516   8.499  1.0653  1.3130  1.4377
 2773SOL    HW211725   7.470   3.439   8.630  1.3892  0.0161  0.6731
 2774SOL     OW11726   9.864   4.454   4.349  0.3670  0.1184 -0.6392
 2774SOL    HW111727   9.788   4.511   4.357 -0.2227 -0.5798 -1.1883
 2774SOL    HW211728   9.883   4.425   4.438 -1.1452 -1.1759 -0.7315
 2775SOL     OW11729   4.305   0.227   4.611 -0.1544 -0.4042 -0.8144
 2775SOL    HW111730   4.249   0.215   4.688  0.0750  0.7680 -0.4456
 2775SOL    HW211731   4.385   0.266   4.646  0.5203 -1.1976 -1.4628
 2776SOL     OW11732   2.649   5.833   1.783  0.3777 -0.1115 -0.3659
 2776SOL    HW111733   2.574   5.773   1.782  1.1970 -1.2378  2.2361
 2776SOL    HW211734   2.611   5.919   1.802 -0.2221 -0.7646  1.4425
 2777SOL     OW11735   0.374   6.030   0.777 -0.1114  0.1360  0.4828
 2777SOL    HW111736   0.325   6.002   0.699  0.8879 -2.1021  0.6226
 2777SOL    HW211737   0.446   6.082   0.741 -0.9841  1.0762  0.0788
 2778SOL     OW11738   3.694  10.566   9.880 -0.5189  0.0328 -1.3252
 2778SOL    HW111739   3.637  10.491   9.896 -1.5400  1.3718  1.5805
 2778SOL    HW211740   3.775  10.544   9.926  0.1637 -0.3711 -2.6562
 2779SOL     OW11741   5.840   3.943   2.766 -0.6104 -0.4683  0.2254
 2779SOL    HW111742   5.817   3.927   2.674  0.3480  0.5286 -0.2040
 2779SOL    HW211743   5.923   3.992   2.761 -0.2046 -1.0042  1.6376
 2780SOL     OW11744   0.678   2.704   4.810 -0.0339 -0.3043 -0.0357
 2780SOL    HW111745   0.601   2.659   4.846 -1.1590  0.7540 -1.0706
 2780SOL    HW211746   0.747   2.639   4.812 -1.1058 -1.4425  0.4047
 2781SOL     OW11747   6.418   4.090   4.219 -0.2846 -0.0837 -0.8263
 2781SOL    HW111748   6.411   4.160   4.284  0.1610 -1.1225  0.3360
 2781SOL    HW211749   6.430   4.137   4.136  2.9239  1.2341  0.2921
 2782SOL     OW11750   2.404   7.122   6.451 -0.0787  0.4282 -0.0799
 2782SOL    HW111751   2.417   7.191   6.516 -0.7349 -0.1070  0.6443
 2782SOL    HW211752   2.463   7.052   6.478 -0.4069  0.1747 -0.0137
 2783SOL     OW11753   9.989   1.556   4.050  0.0731 -0.8079 -0.0073
 2783SOL    HW111754   9.939   1.511   3.982  1.3608 -2.3157  0.0398
 2783SOL    HW211755   9.925   1.615   4.091 -1.7492 -2.8605  0.1968
 2784SOL     OW11756   0.868   6.231   4.935  0.0072 -0.6814  0.3108
 2784SOL    HW111757   0.944   6.252   4.882 -0.6390 -0.0693 -0.3811
 2784SOL    HW211758   0.900   6.234   5.026  0.5669  0.5570  0.0772
 2785SOL     OW11759  10.017   6.015   8.299  0.2013 -0.0716  0.6240
 2785SOL    HW111760  10.029   6.110   8.300 -1.8635  0.2048  0.0257
 2785SOL    HW211761  10.087   5.982   8.356  0.5278  1.8436  1.3739
 2786SOL     OW11762   0.227   2.328   2.902 -0.3688  0.2107  0.1666
 2786SOL    HW111763   0.268   2.270   2.837  0.4963 -0.1891  1.0527
 2786SOL    HW211764   0.219   2.274   2.980 -0.0315  1.1376  0.8459
 2787SOL     OW11765   8.481   5.664   6.395 -0.3719 -0.0660  0.4324
 2787SOL    HW111766   8.482   5.740   6.453  0.6612 -0.3471  0.7870
 2787SOL    HW211767   8.499   5.589   6.453  0.7150 -0.3464 -0.2512
 2788SOL     OW11768   5.070   0.352   7.696 -0.5513 -0.3964  0.6272
 2788SOL    HW111769   4.982   0.322   7.720  0.2160 -0.9252  2.9558
 2788SOL    HW211770   5.074   0.442   7.729 -0.0351 -0.5761  1.0711
 2789SOL     OW11771   5.973  10.878  10.455 -0.3447  0.2621 -0.1074
 2789SOL    HW111772   5.914  10.953  10.458 -1.6165 -0.6788 -1.2869
 2789SOL    HW211773   5.916  10.801  10.452  0.9017 -0.6392 -2.4501
 2790SOL     OW11774   5.636   4.848   6.255 -0.4546  0.3364  0.0545
 2790SOL    HW111775   5.662   4.940   6.254 -1.1386  0.5318 -0.0219
 2790SOL    HW211776   5.660   4.818   6.343 -0.3458  0.6221  0.1232
 2791SOL     OW11777   2.309   1.187   8.260  0.7266 -0.4427 -0.1251
 2791SOL    HW111778   2.338   1.187   8.168  2.3603  0.6118  0.3633
 2791SOL    HW211779   2.385   1.154   8.308 -0.0001 -0.6493  0.8891
 2792SOL     OW11780   2.851   7.247   7.525 -0.4377 -0.1552  0.1016
 2792SOL    HW111781   2.767   7.259   7.568 -0.9125 -0.3703 -0.7699
 2792SOL    HW211782   2.862   7.324   7.470 -0.6692 -0.7703 -0.8005
 2793SOL     OW11783   5.486   7.884   7.440  0.0649 -0.0640  0.7085
 2793SOL    HW111784   5.452   7.956   7.388 -0.3019 -2.3279 -2.2949
 2793SOL    HW211785   5.529   7.927   7.515 -1.3865  3.1615 -0.2102
 2794SOL     OW11786   3.106   4.021   9.168  0.2327 -0.3377 -0.2229
 2794SOL    HW111787   3.036   4.060   9.220  0.0205  1.5285 -1.8533
 2794SOL    HW211788   3.131   3.942   9.216 -0.3477  1.0218  2.3749
 2795SOL     OW11789   1.935   0.912   6.379  0.2653 -0.0509 -0.5046
 2795SOL    HW111790   2.025   0.883   6.392  0.3841  0.6926  0.3595
 2795SOL    HW211791   1.888   0.832   6.355  1.3024 -0.2978 -1.7702
 2796SOL     OW11792   9.105   7.932   4.281 -0.1713 -0.6585 -0.3564
 2796SOL    HW111793   9.193   7.966   4.264 -0.2810 -0.0103  0.3299
 2796SOL    HW211794   9.047   8.003   4.255 -0.4011 -0.2664  1.1399
 2797SOL     OW11795   2.755   0.403   5.507 -0.4008 -0.6145 -0.4603
 2797SOL    HW111796   2.732   0.312   5.488 -2.7518 -0.1788  0.1087
 2797SOL    HW211797   2.741   0.411   5.602  0.0480  0.2652 -0.4696
 2798SOL     OW11798   8.655   0.368   6.066 -0.3936  0.1208 -0.9610
 2798SOL    HW111799   8.665   0.462   6.081 -0.7627  0.2642 -1.5719
 2798SOL    HW211800   8.579   0.343   6.119  1.9904 -0.6094  2.2425
 2799SOL     OW11801   8.099   9.893   1.182  0.9033 -0.3450 -0.5501
 2799SOL    HW111802   8.165   9.866   1.119  0.0966 -1.6028 -0.8776
 2799SOL    HW211803   8.045   9.957   1.135  0.6586 -0.8422 -0.9491
 2800SOL     OW11804   8.067   7.220   0.986  0.0787  0.0483  0.1471
 2800SOL    HW111805   8.104   7.164   1.055  0.9638 -0.1321 -0.4588
 2800SOL    HW211806   8.082   7.170   0.906  0.1694  0.8161 -0.3113
 2801SOL     OW11807   0.157   3.182   4.984 -0.0919 -0.2085 -0.3345
 2801SOL    HW111808   0.242   3.138   4.984  0.1720  0.2813  0.7646
 2801SOL    HW211809   0.098   3.121   4.940  1.3462  0.4755 -3.2901
 2802SOL     OW11810   7.876   1.782   1.060 -0.0837 -0.2338 -0.1439
 2802SOL    HW111811   7.804   1.835   1.095  1.2056  1.3568  0.1768
 2802SOL    HW211812   7.901   1.825   0.978  0.4932 -0.7663 -0.2560
 2803SOL     OW11813   7.729   6.758   1.675 -0.0191 -0.2785  0.5887
 2803SOL    HW111814   7.636   6.780   1.678  0.1838  0.7488 -0.4811
 2803SOL    HW211815   7.736   6.686   1.612  0.0034  0.0570  0.2145
 2804SOL     OW11816  10.586  10.703   2.812  0.0870 -0.7983 -0.5551
 2804SOL    HW111817  10.613  10.622   2.854  1.2692 -0.2471 -0.2256
 2804SOL    HW211818  10.621  10.696   2.723 -0.5059 -1.0053 -0.7710
 2805SOL     OW11819   0.289  10.041  10.386 -0.5010 -0.0484  0.1667
 2805SOL    HW111820   0.362  10.038  10.324 -1.3574 -0.9605 -0.8205
 2805SOL    HW211821   0.296   9.959  10.435 -1.9646 -1.0527 -1.2445
 2806SOL     OW11822   0.195   9.852   0.808  0.2821 -0.2589  0.2531
 2806SOL    HW111823   0.215   9.897   0.890  0.4446 -2.5317  1.4923
 2806SOL    HW211824   0.272   9.867   0.753  1.5277 -1.3243  1.6629
 2807SOL     OW11825   4.555   3.970   9.550  0.1656 -0.0921 -0.3548
 2807SOL    HW111826   4.594   4.057   9.559 -0.6602  0.1758  0.7231
 2807SOL    HW211827   4.618   3.921   9.497  0.1086  1.4885 -1.9383
 2808SOL     OW11828   9.583   9.327   3.225 -0.2567 -0.1111  0.3419
 2808SOL    HW111829   9.557   9.362   3.140 -1.0086  1.2248  1.1038
 2808SOL    HW211830   9.677   9.313   3.217 -0.6029 -1.7423 -1.2997
 2809SOL     OW11831   8.061   0.404   9.073 -0.1462  0.1518 -0.3571
 2809SOL    HW111832   7.990   0.412   9.009 -0.1405 -0.9115 -0.5167
 2809SOL    HW211833   8.021   0.360   9.148  0.9035 -2.8791 -1.4634
 2810SOL     OW11834   6.570   4.729   2.215 -0.5590  0.0688  0.1329
 2810SOL    HW111835   6.520   4.682   2.148 -1.0551 -0.2245  0.6959
 2810SOL    HW211836   6.509   4.794   2.249  0.7978  2.6551 -2.1605
 2811SOL     OW11837   1.184   1.115   3.785 -0.5511  0.8126  0.1724
 2811SOL    HW111838   1.200   1.209   3.791 -1.5287  1.0465 -0.8234
 2811SOL    HW211839   1.122   1.105   3.713 -1.3225 -0.4909  0.9904
 2812SOL     OW11840   5.721   5.584   3.274  0.3183  0.1022 -0.1268
 2812SOL    HW111841   5.775   5.642   3.221  0.9652  2.5488  3.0438
 2812SOL    HW211842   5.636   5.584   3.230  1.1980  0.9791 -1.8881
 2813SOL     OW11843   5.357   0.714   0.328  0.2149  0.8847  0.0467
 2813SOL    HW111844   5.417   0.751   0.393  2.1872  0.6905 -1.6015
 2813SOL    HW211845   5.397   0.629   0.305 -1.3298  0.2223 -0.2350
 2814SOL     OW11846   1.366  10.550   3.799  0.4341  0.0375 -0.1144
 2814SOL    HW111847   1.338  10.517   3.713  0.5122 -1.1112  0.2826
 2814SOL    HW211848   1.338  10.641   3.801 -3.2607 -1.0265  0.2094
 2815SOL     OW11849   5.784   4.173   0.808 -0.6677  0.1886  0.1880
 2815SOL    HW111850   5.743   4.257   0.831  0.0470  0.6078 -0.0858
 2815SOL    HW211851   5.756   4.156   0.718  0.4135  0.8742 -0.2857
 2816SOL     OW11852   6.958   4.620   7.833  0.8220  0.4044 -0.4486
 2816SOL    HW111853   6.920   4.575   7.757 -1.7321  0.7960  0.5302
 2816SOL    HW211854   6.926   4.710   7.825  4.9990  1.8486 -1.8143
 2817SOL     OW11855   2.268   9.476   5.641 -1.1136 -0.6073  0.2671
 2817SOL    HW111856   2.232   9.560   5.668 -1.6970 -0.3654 -1.2138
 2817SOL    HW211857   2.318   9.496   5.562  2.1697 -0.9685  2.1899
 2818SOL     OW11858   1.144   5.966   3.799 -0.0664  0.8581  0.1664
 2818SOL    HW111859   1.142   6.007   3.712 -0.8363  0.6059  0.0630
 2818SOL    HW211860   1.093   5.886   3.789  0.5502  0.3983  0.6394
 2819SOL     OW11861   6.510   7.825   2.622 -0.0311  0.0480 -0.1844
 2819SOL    HW111862   6.468   7.739   2.630  2.2438 -1.2174 -1.3944
 2819SOL    HW211863   6.437   7.885   2.606 -1.6249 -1.6931  0.2526
 2820SOL     OW11864   8.071   7.748   9.656  0.2113 -0.5350 -0.0748
 2820SOL    HW111865   8.057   7.795   9.573  0.1276 -0.1816  0.1397
 2820SOL    HW211866   8.127   7.674   9.632  1.0446  0.1466 -0.2640
 2821SOL     OW11867  10.778   9.991   4.799  0.2964 -0.0055 -0.1470
 2821SOL    HW111868  10.749  10.062   4.857  0.8968 -0.5720  0.8387
 2821SOL    HW211869  10.725  10.003   4.719  0.5204  1.6591 -0.0602
 2822SOL     OW11870   2.756   3.704  10.020 -0.0283  0.1518  0.3549
 2822SOL    HW111871   2.759   3.755   9.939 -1.0277  1.4224  1.1190
 2822SOL    HW211872   2.737   3.614   9.991 -4.6268  1.2891 -0.5754
 2823SOL     OW11873   5.184   4.536   9.349 -0.3925 -0.5320  0.0791
 2823SOL    HW111874   5.095   4.555   9.320 -0.5588  0.0845  0.9488
 2823SOL    HW211875   5.172   4.490   9.433  0.1049 -0.2903  0.2862
 2824SOL     OW11876   4.131   4.237   0.409 -0.4662  0.0247 -0.5313
 2824SOL    HW111877   4.126   4.194   0.494  0.3887 -1.3160 -1.1566
 2824SOL    HW211878   4.040   4.242   0.379 -0.8407  1.0657  0.7217
 2825SOL     OW11879   4.568   7.419   8.517 -0.0382  0.2490 -0.0549
 2825SOL    HW111880   4.628   7.404   8.444 -0.9785 -2.5457 -0.2856
 2825SOL    HW211881   4.625   7.432   8.592  0.8896 -0.0711 -0.6926
 2826SOL     OW11882   1.292   9.907   5.383 -0.4584  0.1818  0.1519
 2826SOL    HW111883   1.322   9.827   5.339 -0.6395  0.8643 -1.2328
 2826SOL    HW211884   1.303   9.889   5.476  0.8827 -0.9119 -0.2119
 2827SOL     OW11885   5.844   8.712   5.803 -0.4078  0.2045  0.4927
 2827SOL    HW111886   5.757   8.704   5.765 -0.0851 -3.0114  0.3623
 2827SOL    HW211887   5.899   8.743   5.730 -0.9215 -0.2579 -0.0938
 2828SOL     OW11888  10.511   2.689   3.280 -0.2616  0.1021 -0.3438
 2828SOL    HW111889  10.559   2.767   3.253  0.3808 -0.0287  0.4103
 2828SOL    HW211890  10.521   2.628   3.207 -0.4329  0.5808 -0.7671
 2829SOL     OW11891   5.543   3.008  10.231  0.4303  0.0084 -0.4727
 2829SOL    HW111892   5.628   3.043  10.257  1.8239 -0.8615 -3.6482
 2829SOL    HW211893   5.509   3.072  10.169 -0.9350  0.0031  0.2548
 2830SOL     OW11894   8.958   7.394   7.306 -0.1547 -0.0592 -0.5213
 2830SOL    HW111895   8.867   7.395   7.275 -0.0695  0.3097 -0.7590
 2830SOL    HW211896   8.973   7.482   7.338 -0.6376 -0.7575  1.7193
 2831SOL     OW11897   1.537   1.777   5.324 -0.1577  0.3297  0.0648
 2831SOL    HW111898   1.514   1.833   5.398 -0.0428 -0.7249  0.9129
 2831SOL    HW211899   1.610   1.822   5.282 -0.0090  0.7640  0.7801
 2832SOL     OW11900  10.688   3.355   8.562 -0.3744  0.1216 -0.2342
 2832SOL    HW111901  10.630   3.281   8.545 -0.2748  0.2691 -1.2182
 2832SOL    HW211902  10.633   3.418   8.609 -1.1350  0.4281 -1.5026
 2833SOL     OW11903   6.827   3.425  10.913 -0.2572 -0.3040 -0.0606
 2833SOL    HW111904   6.856   3.423  11.005  2.2730 -0.2739 -0.8012
 2833SOL    HW211905   6.809   3.334  10.892 -1.4599 -0.2361  0.6355
 2834SOL     OW11906   7.679   0.237   1.430  0.1573 -0.2248 -0.5148
 2834SOL    HW111907   7.769   0.268   1.415 -0.5262  1.9533 -0.2673
 2834SOL    HW211908   7.624   0.306   1.393 -1.4201 -1.0402  0.2911
 2835SOL     OW11909   6.147   7.255   3.019 -0.4092  0.4110  0.3838
 2835SOL    HW111910   6.114   7.339   2.986  0.0163  0.0982 -0.8625
 2835SOL    HW211911   6.071   7.215   3.061 -0.7725  1.1429  0.4436
 2836SOL     OW11912  10.553  10.101   3.503  0.3258 -0.5689 -0.1006
 2836SOL    HW111913  10.460  10.113   3.522  0.3478 -2.0387  1.0490
 2836SOL    HW211914  10.561  10.121   3.410 -1.1652 -0.5362 -0.2430
 2837SOL     OW11915   8.862   3.671   5.087 -0.2140 -0.3098  0.4465
 2837SOL    HW111916   8.769   3.662   5.068 -0.2069 -0.9287  0.6817
 2837SOL    HW211917   8.867   3.740   5.153 -0.2646  1.6484 -1.5847
 2838SOL     OW11918   0.115   5.840  10.491  0.2117 -0.7963 -0.2544
 2838SOL    HW111919   0.139   5.865  10.401 -0.5283 -1.3989 -0.6330
 2838SOL    HW211920   0.063   5.914  10.523 -0.1747 -0.9165 -0.6023
 2839SOL     OW11921   3.695   0.295   4.493  0.2757  0.1393 -0.3476
 2839SOL    HW111922   3.747   0.372   4.468  0.5220 -0.3659 -1.4018
 2839SOL    HW211923   3.759   0.225   4.504  0.0233  0.0224  0.3553
 2840SOL     OW11924   9.346   5.563   1.715 -0.0121 -1.0152 -0.0420
 2840SOL    HW111925   9.284   5.497   1.747 -0.6362 -0.1358  0.5837
 2840SOL    HW211926   9.290   5.633   1.681  0.6096  0.5129  2.0211
 2841SOL     OW11927   1.220   5.229   7.265  0.5877  0.6408 -0.1966
 2841SOL    HW111928   1.137   5.211   7.220  0.2842  0.7531  0.3190
 2841SOL    HW211929   1.225   5.325   7.267 -0.9005  0.6990  2.7542
 2842SOL     OW11930   5.825   9.208   9.037  0.0110 -0.1094 -0.3288
 2842SOL    HW111931   5.730   9.195   9.041 -0.2149  1.8548  1.2923
 2842SOL    HW211932   5.838   9.269   8.964 -0.1492  1.0180  0.5741
 2843SOL     OW11933   6.584  10.411   3.088  0.4350 -0.9766 -0.0633
 2843SOL    HW111934   6.568  10.351   3.161 -2.1869  0.2364  0.4187
 2843SOL    HW211935   6.504  10.407   3.036 -0.7330  3.6561  1.1675
 2844SOL     OW11936  10.673   9.225   7.764  0.3437  0.0276  0.0255
 2844SOL    HW111937  10.584   9.230   7.800 -0.4032 -0.2928 -1.6867
 2844SOL    HW211938  10.715   9.305   7.794 -1.3055  1.3493 -1.0702
 2845SOL     OW11939   1.878   0.585   0.214  0.0424  0.1551 -0.1048
 2845SOL    HW111940   1.940   0.589   0.141  0.3818  3.3699  0.3195
 2845SOL    HW211941   1.934   0.582   0.293 -0.3525 -0.9996  0.1525
 2846SOL     OW11942   3.874   4.950   0.993 -0.1074  0.8104  0.3553
 2846SOL    HW111943   3.925   4.962   1.073  0.2130 -1.0202  0.4534
 2846SOL    HW211944   3.783   4.944   1.022  0.2424 -2.9363  0.9935
 2847SOL     OW11945  10.419   0.258   8.655  0.0229  0.4338  0.4049
 2847SOL    HW111946  10.387   0.348   8.643 -2.6612 -0.4430  0.7438
 2847SOL    HW211947  10.394   0.235   8.744  1.3957 -0.4069  0.5862
 2848SOL     OW11948   3.229   6.983  10.218  0.3034 -0.0085  0.5609
 2848SOL    HW111949   3.291   7.002  10.288 -0.2102  0.8133  0.8070
 2848SOL    HW211950   3.272   6.917  10.164  1.0425 -0.0415  1.1882
 2849SOL     OW11951   8.955   7.017   6.249  0.9891 -0.1086 -0.2243
 2849SOL    HW111952   8.887   7.046   6.311  0.3483  1.3660 -1.5922
 2849SOL    HW211953   8.946   6.922   6.248  0.6986 -0.1221  1.6049
 2850SOL     OW11954   6.745   6.053   3.554  0.1499  0.0630  0.3325
 2850SOL    HW111955   6.657   6.022   3.578  1.1011 -1.0414  2.5015
 2850SOL    HW211956   6.804   5.995   3.601  2.0791  0.2847 -1.7672
 2851SOL     OW11957  10.286   6.251   1.711  0.3032 -0.1906 -1.1437
 2851SOL    HW111958  10.213   6.220   1.764  1.7915 -1.8067  0.0129
 2851SOL    HW211959  10.309   6.336   1.749 -0.6392  0.1000 -1.2109
 2852SOL     OW11960   4.637   8.343   1.905  0.1614 -0.2995 -0.7638
 2852SOL    HW111961   4.688   8.366   1.983  0.9035 -0.4762 -1.1831
 2852SOL    HW211962   4.569   8.410   1.901  1.2339  0.8182 -0.9807
 2853SOL     OW11963   9.096   8.455   0.951  0.5880  0.2011  0.0424
 2853SOL    HW111964   9.031   8.478   1.018  1.4281  1.3007  0.4916
 2853SOL    HW211965   9.173   8.506   0.974  1.0656  0.1812 -1.4638
 2854SOL     OW11966   9.126   7.236   9.158 -0.5054  0.1021 -0.3555
 2854SOL    HW111967   9.178   7.158   9.178 -0.1926  0.3842 -0.0533
 2854SOL    HW211968   9.050   7.230   9.215 -1.2221 -0.7309 -1.3779
 2855SOL     OW11969   0.224   7.358   5.969  0.3025  0.1625  0.2587
 2855SOL    HW111970   0.252   7.282   5.917  1.0558 -0.8715  2.1082
 2855SOL    HW211971   0.304   7.409   5.982 -0.0773  0.9424 -0.4315
 2856SOL     OW11972   4.310   3.211  10.838 -0.5130  0.3278  0.1856
 2856SOL    HW111973   4.364   3.243  10.766 -1.2056  1.3127  0.0898
 2856SOL    HW211974   4.220   3.231  10.812 -1.1769 -3.5245 -0.8024
 2857SOL     OW11975   2.243  10.976   5.665  0.4739 -0.4697  1.2809
 2857SOL    HW111976   2.285  10.912   5.607  1.1263 -0.1597  1.4014
 2857SOL    HW211977   2.314  11.036   5.688 -0.0094 -0.0354  1.6219
 2858SOL     OW11978   2.814   4.525   1.745  0.0408 -0.5256  0.2231
 2858SOL    HW111979   2.880   4.593   1.734  1.4229 -1.4225  2.4137
 2858SOL    HW211980   2.829   4.492   1.834 -1.6827 -2.5238 -0.1823
 2859SOL     OW11981   3.080   6.838   2.505  0.0253 -0.0180 -0.1627
 2859SOL    HW111982   3.069   6.911   2.566 -0.8045 -1.0387  0.9263
 2859SOL    HW211983   3.174   6.822   2.503  0.3861  2.0643 -1.5877
 2860SOL     OW11984   0.141   0.453   4.625  0.1930 -0.0960  0.2339
 2860SOL    HW111985   0.049   0.426   4.629  0.3495 -0.6499  0.1811
 2860SOL    HW211986   0.180   0.393   4.561  0.2702  1.0944 -0.8558
 2861SOL     OW11987   7.944   4.017   7.490  0.0257 -0.1129  0.0733
 2861SOL    HW111988   7.873   4.034   7.429  0.2885  1.8597  0.2764
 2861SOL    HW211989   8.011   3.973   7.438 -0.3046  0.3453 -0.7347
 2862SOL     OW11990   8.050   8.385   6.205 -0.5316 -0.1222 -0.2126
 2862SOL    HW111991   8.037   8.290   6.214  1.0767 -0.2820  0.6608
 2862SOL    HW211992   8.093   8.411   6.287 -0.9916  1.3704 -0.4332
 2863SOL     OW11993   1.557   3.218   3.533  0.0154 -0.0970  0.7957
 2863SOL    HW111994   1.558   3.130   3.494 -0.5246  0.4635 -0.5220
 2863SOL    HW211995   1.554   3.203   3.627 -1.9262 -1.5021  0.5332
 2864SOL     OW11996  10.728   9.586   9.098  0.1469  0.3721 -0.3495
 2864SOL    HW111997  10.648   9.534   9.108 -0.2097  0.8214 -0.8719
 2864SOL    HW211998  10.799   9.522   9.108 -0.2888 -0.2740 -1.2581
 2865SOL     OW11999   2.851   8.792   0.377  0.1052  0.2673  0.0381
 2865SOL    HW112000   2.757   8.805   0.369  0.2718  1.1574 -0.4904
 2865SOL    HW212001   2.881   8.865   0.431  0.1991 -1.1614  1.9686
 2866SOL     OW12002   9.866   4.313   3.304  0.0714 -0.4750 -0.5404
 2866SOL    HW112003   9.915   4.315   3.386 -1.0273  0.6229  0.0984
 2866SOL    HW212004   9.784   4.357   3.324  0.1236  0.5210 -2.4470
 2867SOL     OW12005   5.661   1.367   8.206  0.0147  0.4869  0.4519
 2867SOL    HW112006   5.612   1.306   8.260 -1.1837  0.8193 -0.2549
 2867SOL    HW212007   5.659   1.329   8.118  0.7523  0.6657  0.3519
 2868SOL     OW12008   4.882   8.643   3.365  0.3138  0.5785  0.4922
 2868SOL    HW112009   4.845   8.643   3.453  1.4739  1.3116  0.9895
 2868SOL    HW212010   4.953   8.579   3.368  2.4994  2.9244  1.0413
 2869SOL     OW12011   7.367   3.393   1.591 -0.6664  0.2913 -0.1498
 2869SOL    HW112012   7.435   3.438   1.542 -1.1066 -0.0101 -1.0446
 2869SOL    HW212013   7.414   3.323   1.638  0.2710  2.6488  2.5489
 2870SOL     OW12014   6.723   0.008   1.155  0.3943  0.4508 -0.2193
 2870SOL    HW112015   6.637  -0.032   1.149  1.5865 -2.1531 -0.7038
 2870SOL    HW212016   6.706   0.101   1.170 -2.4670 -0.0886  0.0420
 2871SOL     OW12017   2.800   4.847   3.436  0.1218  0.2712  0.2417
 2871SOL    HW112018   2.869   4.908   3.462 -0.4307  1.3109 -0.6736
 2871SOL    HW212019   2.817   4.831   3.343 -0.3317 -0.1904  0.2368
 2872SOL     OW12020   5.510   3.967   1.682 -0.1501 -0.1974  0.0517
 2872SOL    HW112021   5.495   3.962   1.587  0.6265 -0.8352 -0.0525
 2872SOL    HW212022   5.542   3.879   1.705  1.1642  0.4088  0.6268
 2873SOL     OW12023  10.631   8.329   9.581 -0.8413 -0.4913 -0.1200
 2873SOL    HW112024  10.671   8.247   9.611 -1.0215 -1.0019 -1.2328
 2873SOL    HW212025  10.542   8.326   9.615 -0.8772 -0.8050 -0.2418
 2874SOL     OW12026  10.667   2.081   0.729 -0.1347  0.0417  0.2174
 2874SOL    HW112027  10.656   2.018   0.657  2.0567  0.7992 -0.8304
 2874SOL    HW212028  10.697   2.027   0.803  1.7416 -0.1869 -0.6768
 2875SOL     OW12029   4.429   9.652   4.342  0.4585 -0.2012 -0.3895
 2875SOL    HW112030   4.467   9.606   4.267 -0.1827 -2.2388  0.4906
 2875SOL    HW212031   4.501   9.702   4.380  0.9346  0.3222 -1.9770
 2876SOL     OW12032   5.313  10.010   6.245  0.0408 -0.7707  0.5750
 2876SOL    HW112033   5.368  10.053   6.311  3.1456 -1.1109 -1.6736
 2876SOL    HW212034   5.259  10.081   6.209  1.5450  0.3232  0.3973
 2877SOL     OW12035   8.011   2.485   5.496  0.1952 -0.1236 -0.1744
 2877SOL    HW112036   8.017   2.458   5.404  0.0621 -2.7681  0.5615
 2877SOL    HW212037   8.031   2.406   5.546  2.4363  1.7919  2.1157
 2878SOL     OW12038   2.880   8.426   0.062  0.2341 -0.0805  0.2191
 2878SOL    HW112039   2.881   8.473  -0.022  0.7133 -0.8088 -0.1846
 2878SOL    HW212040   2.825   8.349   0.046  0.3986 -0.2647  0.5490
 2879SOL     OW12041   0.644   6.385   4.572 -0.5462  0.2610 -0.3147
 2879SOL    HW112042   0.592   6.433   4.637  1.6181  3.8793 -1.0660
 2879SOL    HW212043   0.681   6.311   4.620 -1.8611  0.8498  1.6465
 2880SOL     OW12044   7.510   4.665  10.336 -0.3514 -0.0318  0.1271
 2880SOL    HW112045   7.536   4.704  10.419 -1.1403  0.9868 -0.0845
 2880SOL    HW212046   7.592   4.648  10.290  0.0183  2.6353 -0.3190
 2881SOL     OW12047   2.261   6.332   9.912 -0.3139 -0.0562 -0.3198
 2881SOL    HW112048   2.271   6.377   9.996 -0.7572  0.5922 -0.6060
 2881SOL    HW212049   2.208   6.392   9.859 -1.7356 -1.3437 -0.3923
 2882SOL     OW12050  10.822   8.643   7.419 -0.2379  0.1227 -0.1728
 2882SOL    HW112051  10.826   8.738   7.409 -0.2158  0.1978  0.5157
 2882SOL    HW212052  10.730   8.624   7.435 -0.1818  0.0723  0.0986
 2883SOL     OW12053   8.418   8.318   3.864 -0.6612 -0.2815 -0.0321
 2883SOL    HW112054   8.324   8.335   3.861 -0.2351  2.2530 -0.2596
 2883SOL    HW212055   8.440   8.323   3.957 -1.0548 -2.8101  0.2207
 2884SOL     OW12056   5.236  10.564   5.926 -0.1601  0.1220 -0.4003
 2884SOL    HW112057   5.271  10.613   5.852  0.2250  0.1115 -0.2267
 2884SOL    HW212058   5.183  10.628   5.974  1.5030  0.7534  0.6230
 2885SOL     OW12059   2.248   9.372   0.874 -0.1380  0.3185 -0.1199
 2885SOL    HW112060   2.300   9.297   0.843 -1.8414 -0.6522 -0.6878
 2885SOL    HW212061   2.232   9.352   0.966  2.3430  1.7100  0.6547
 2886SOL     OW12062   1.247   3.760   3.032  0.2309 -0.5398  0.3025
 2886SOL    HW112063   1.170   3.751   3.088 -0.6934 -0.1843 -0.8996
 2886SOL    HW212064   1.288   3.674   3.033  0.2808 -0.5239  1.5767
 2887SOL     OW12065   0.073   0.447   1.940  0.3594  0.4661  0.1048
 2887SOL    HW112066   0.151   0.425   1.889  0.1354 -1.5594  0.6030
 2887SOL    HW212067   0.015   0.490   1.878  1.4396  1.0337 -0.5265
 2888SOL     OW12068   8.473   7.337  10.062 -0.8050 -0.0359  0.5169
 2888SOL    HW112069   8.406   7.289  10.112 -1.7712 -0.4645 -1.1483
 2888SOL    HW212070   8.546   7.276  10.057 -1.2164 -0.5166  0.2562
 2889SOL     OW12071   4.434   8.051   9.531 -0.3526 -0.3294  0.2195
 2889SOL    HW112072   4.404   7.972   9.487  0.1256 -0.3169 -0.1416
 2889SOL    HW212073   4.516   8.073   9.487  0.1071 -0.2832  1.0952
 2890SOL     OW12074   3.516   9.516   9.376 -0.1168  0.4345  0.3299
 2890SOL    HW112075   3.514   9.612   9.372 -1.6563  0.4376  0.8302
 2890SOL    HW212076   3.440   9.489   9.324 -0.9769 -0.4557  2.0343
 2891SOL     OW12077   9.972   3.336   5.369 -0.2136  0.5473  0.0106
 2891SOL    HW112078   9.946   3.292   5.449 -0.3880  0.1068 -0.2840
 2891SOL    HW212079   9.916   3.298   5.301 -0.0643  0.9086 -0.3191
 2892SOL     OW12080   0.363   4.313   7.646  0.4869 -0.0805  0.0762
 2892SOL    HW112081   0.391   4.285   7.733  1.0118  0.6583  0.1389
 2892SOL    HW212082   0.380   4.407   7.643 -0.5794  0.1120 -0.4206
 2893SOL     OW12083   2.420   9.956   3.853 -0.5591  0.7829 -0.1222
 2893SOL    HW112084   2.374   9.873   3.843  0.6739 -0.0521  0.9094
 2893SOL    HW212085   2.365  10.007   3.911  0.1616 -0.5151  1.7522
 2894SOL     OW12086   1.264  10.722   8.138  0.1689 -0.4218 -0.3220
 2894SOL    HW112087   1.280  10.709   8.044  0.7106  1.4928 -0.5150
 2894SOL    HW212088   1.336  10.778   8.167 -1.1977  0.8216  0.7550
 2895SOL     OW12089   0.365   5.196   6.777  0.1740  0.3764 -0.6296
 2895SOL    HW112090   0.339   5.148   6.698 -2.6104  0.8980 -0.0792
 2895SOL    HW212091   0.414   5.132   6.829  0.5739 -0.4610 -2.0210
 2896SOL     OW12092   0.624   6.233   8.929 -0.1132  0.0512  0.0786
 2896SOL    HW112093   0.683   6.196   8.994  2.6798  0.0596 -2.3352
 2896SOL    HW212094   0.575   6.158   8.895  0.0217 -0.2759  0.6010
 2897SOL     OW12095   6.062   4.341  10.391  0.2938  0.0550  0.5503
 2897SOL    HW112096   6.055   4.314  10.300  0.1824  1.4327  0.1306
 2897SOL    HW212097   6.155   4.338  10.411  0.3397 -0.0424  0.3143
 2898SOL     OW12098   1.931   0.802   6.680  0.2943 -0.1630  0.0084
 2898SOL    HW112099   1.967   0.763   6.760  2.4334  0.0486 -0.8261
 2898SOL    HW212100   1.886   0.730   6.637  0.3840 -0.6390  0.6862
 2899SOL     OW12101   0.491   9.435   9.513 -0.4369  0.1464  0.4544
 2899SOL    HW112102   0.494   9.437   9.608 -2.5815  0.4251  0.5256
 2899SOL    HW212103   0.483   9.527   9.487 -1.5714 -0.0464  0.0819
 2900SOL     OW12104   7.116   7.425   9.858 -0.6499  0.1762 -0.2812
 2900SOL    HW112105   7.174   7.471   9.917 -0.5515  0.6433 -0.7434
 2900SOL    HW212106   7.082   7.352   9.910 -0.5702  0.5853  0.3496
 2901SOL     OW12107   4.344   7.255   2.742 -0.0257 -0.3575  0.6054
 2901SOL    HW112108   4.389   7.240   2.659 -0.4633  2.5705 -0.2261
 2901SOL    HW212109   4.388   7.197   2.804  1.5184 -1.2572 -1.2597
 2902SOL     OW12110   6.132  10.576   3.725 -0.1000 -0.1406  0.4435
 2902SOL    HW112111   6.183  10.616   3.655 -1.7890  1.2233 -0.0583
 2902SOL    HW212112   6.145  10.482   3.714  0.8430  0.1196 -0.7721
 2903SOL     OW12113  10.283   6.168   3.225  0.2478  0.0870  0.1456
 2903SOL    HW112114  10.280   6.234   3.293  2.4046  1.1686 -0.7793
 2903SOL    HW212115  10.233   6.206   3.152  1.1414  0.5316 -0.2376
 2904SOL     OW12116   0.455  10.782   8.839  0.0674 -0.1797  0.4580
 2904SOL    HW112117   0.471  10.753   8.928 -0.2141  0.6090  0.7745
 2904SOL    HW212118   0.374  10.833   8.845 -0.8112 -1.4215 -0.5233
 2905SOL     OW12119   2.928   7.427   6.132 -0.4441  0.1008 -0.0862
 2905SOL    HW112120   2.989   7.442   6.204 -0.2073  0.8289 -0.4363
 2905SOL    HW212121   2.983   7.422   6.054 -0.6915 -0.7632 -0.2196
 2906SOL     OW12122   9.099   5.840   0.869  0.2242  0.1889 -0.0816
 2906SOL    HW112123   9.093   5.748   0.896  0.4970  0.0393 -0.5223
 2906SOL    HW212124   9.190   5.851   0.843 -0.1787  0.1661 -1.5236
 2907SOL     OW12125   8.493   5.461  10.250  0.0312 -0.1301  0.2604
 2907SOL    HW112126   8.432   5.512  10.303 -1.0821 -2.6630  1.5251
 2907SOL    HW212127   8.548   5.415  10.314  3.2225  1.9858 -0.8554
 2908SOL     OW12128   0.608   1.476   1.638 -0.6919  0.1377  0.3191
 2908SOL    HW112129   0.561   1.418   1.578 -0.7613  0.8069 -0.2861
 2908SOL    HW212130   0.668   1.418   1.686  0.5714 -0.1999 -1.5827
 2909SOL     OW12131   5.811   5.140   9.930 -0.2391 -0.3419 -0.0307
 2909SOL    HW112132   5.787   5.119   9.840 -0.6091  0.1802 -0.0590
 2909SOL    HW212133   5.823   5.235   9.930  2.9488 -0.7002 -0.2564
 2910SOL     OW12134   5.727   8.996   3.877 -0.0403 -0.1298  0.1035
 2910SOL    HW112135   5.689   8.997   3.789  0.6066 -2.3185 -0.2448
 2910SOL    HW212136   5.797   8.930   3.871 -0.5018 -0.8570  2.4705
 2911SOL     OW12137  10.367   4.987   0.758  0.0084 -0.2622  0.4883
 2911SOL    HW112138  10.411   4.931   0.822  1.5815  1.6215  1.1114
 2911SOL    HW212139  10.410   4.967   0.675 -1.7062 -2.3559  0.0500
 2912SOL     OW12140   3.626   0.564   1.567 -0.2559  0.3663 -0.9879
 2912SOL    HW112141   3.678   0.516   1.632 -0.9580  0.5892 -0.2597
 2912SOL    HW212142   3.535   0.551   1.594 -0.4633  2.0396 -0.8139
 2913SOL     OW12143   5.076  10.869  10.108  0.0773 -0.1797  0.0147
 2913SOL    HW112144   5.039  10.783  10.127  0.4261 -0.0123  1.6009
 2913SOL    HW212145   5.165  10.864  10.143  1.1710 -0.2083 -2.7227
 2914SOL     OW12146   6.143   0.851   8.947  0.2613  0.5816  0.2068
 2914SOL    HW112147   6.152   0.946   8.955 -0.3914  0.6027  0.6954
 2914SOL    HW212148   6.086   0.839   8.871  1.8865  0.5206 -1.0448
 2915SOL     OW12149   1.411   1.477   6.098 -0.3529 -0.6441  0.0381
 2915SOL    HW112150   1.458   1.423   6.160  1.1263 -0.3477 -0.7983
 2915SOL    HW212151   1.416   1.429   6.015 -2.2787 -1.0265  0.1015
 2916SOL     OW12152   1.421   0.498   8.818 -0.1989  0.3180 -0.1667
 2916SOL    HW112153   1.366   0.483   8.896  1.9907  1.6054  1.6962
 2916SOL    HW212154   1.421   0.413   8.773 -3.4828  0.2309 -0.1003
 2917SOL     OW12155   7.227   6.877   2.602  0.0544  0.6365 -0.4777
 2917SOL    HW112156   7.265   6.913   2.522  1.8396  0.2819  0.1790
 2917SOL    HW212157   7.261   6.787   2.607 -2.0272 -0.1887 -0.5985
 2918SOL     OW12158   5.378   5.396   0.429  0.8433 -0.5820 -0.2093
 2918SOL    HW112159   5.433   5.443   0.492 -0.6846  0.3847  0.4504
 2918SOL    HW212160   5.386   5.304   0.453 -1.1197 -0.0694  2.5744
 2919SOL     OW12161   1.231   4.868   1.615 -0.1264  0.1165 -0.2582
 2919SOL    HW112162   1.258   4.954   1.584  0.3843  0.1367  0.2236
 2919SOL    HW212163   1.232   4.876   1.710  1.6811 -0.9337 -0.1603
 2920SOL     OW12164   0.034   7.258  10.015 -1.0971 -0.3144 -0.0609
 2920SOL    HW112165   0.030   7.351   9.995 -0.3006 -0.2675 -0.0033
 2920SOL    HW212166   0.030   7.214   9.930  2.1000 -0.1220 -0.3722
 2921SOL     OW12167   5.162   7.586   2.541  0.4319 -0.9301  0.6828
 2921SOL    HW112168   5.081   7.596   2.591 -0.6774 -0.4709 -1.1577
 2921SOL    HW212169   5.133   7.581   2.449  2.4697 -0.9169  0.0166
 2922SOL     OW12170   7.612   6.849   6.534 -0.1918 -0.3192  0.7404
 2922SOL    HW112171   7.644   6.770   6.579  0.2089 -0.8220 -0.4122
 2922SOL    HW212172   7.550   6.888   6.596 -1.2015 -2.1135  0.8971
 2923SOL     OW12173   2.974   1.418   3.769 -0.2855  0.1465  0.0253
 2923SOL    HW112174   3.023   1.481   3.821 -0.4025  0.7649 -0.6060
 2923SOL    HW212175   2.893   1.403   3.818 -0.1996  0.3875  0.2377
 2924SOL     OW12176   0.289   0.700   2.929 -0.2849 -0.0075  0.1448
 2924SOL    HW112177   0.304   0.786   2.968  1.1228  0.1291 -0.6502
 2924SOL    HW212178   0.357   0.692   2.862  0.1293 -2.0701  0.7520
 2925SOL     OW12179   7.739   7.537   8.081 -0.6357  0.4532  0.0775
 2925SOL    HW112180   7.700   7.587   8.153  0.3921  0.6742  0.4894
 2925SOL    HW212181   7.829   7.569   8.076  0.5942 -2.6995  1.5595
 2926SOL     OW12182   6.155   1.856   7.311  0.1138  0.6084 -0.3161
 2926SOL    HW112183   6.064   1.868   7.337  0.1568  0.8162 -0.2562
 2926SOL    HW212184   6.151   1.833   7.218  0.0837  2.2304 -0.7309
 2927SOL     OW12185   8.570   9.560   1.834 -0.3620 -0.0509 -0.2636
 2927SOL    HW112186   8.532   9.520   1.912 -0.9520 -0.7517 -0.9067
 2927SOL    HW212187   8.664   9.545   1.842 -0.2685  1.0645  0.9818
 2928SOL     OW12188   4.220  10.872   9.214  0.4022  0.4602  0.7444
 2928SOL    HW112189   4.235  10.811   9.286 -1.1133 -0.4050  0.3513
 2928SOL    HW212190   4.144  10.924   9.241 -0.8041 -0.5395 -0.6262
 2929SOL     OW12191   7.372  10.915   5.798  0.2330  0.4812 -0.0607
 2929SOL    HW112192   7.437  10.960   5.744  1.2869 -0.9591 -0.0016
 2929SOL    HW212193   7.423  10.873   5.867 -1.1305  2.8237  2.4924
 2930SOL     OW12194   5.794   1.891  10.713 -0.4085  0.1957 -0.4408
 2930SOL    HW112195   5.861   1.893  10.781 -0.6152  1.4692 -0.2552
 2930SOL    HW212196   5.811   1.811  10.665  1.0020  0.3051 -0.1491
 2931SOL     OW12197   5.140   6.402   8.122  0.2448 -0.1907  0.4129
 2931SOL    HW112198   5.096   6.437   8.045 -0.7437  0.4982  1.2816
 2931SOL    HW212199   5.124   6.307   8.118  1.5727 -0.3752 -1.0769
 2932SOL     OW12200   8.412   4.680   7.802  0.1071 -0.1675  0.3957
 2932SOL    HW112201   8.391   4.617   7.871  1.5117  0.8040  1.7259
 2932SOL    HW212202   8.361   4.650   7.726 -0.6817 -1.8137  1.5497
 2933SOL     OW12203   1.326   9.982   2.355  0.4053  0.3323  0.4442
 2933SOL    HW112204   1.237   9.946   2.360  0.5105  0.0416  0.2577
 2933SOL    HW212205   1.364   9.965   2.441  1.2512 -2.1116 -0.3546
 2934SOL     OW12206   4.046   2.626   4.145  0.5881 -0.4485 -0.0099
 2934SOL    HW112207   3.993   2.637   4.066  0.9358 -1.0687 -0.3386
 2934SOL    HW212208   3.992   2.662   4.215  1.1230  2.0101 -0.8057
 2935SOL     OW12209   3.781  10.311   6.062  0.0417 -0.2979  0.1744
 2935SOL    HW112210   3.760  10.232   6.014  0.0220 -0.2489  0.1033
 2935SOL    HW212211   3.699  10.337   6.104  0.2521 -0.7982  0.9009
 2936SOL     OW12212   9.807   8.429   1.765  0.3826  0.1351  0.4654
 2936SOL    HW112213   9.740   8.475   1.816  1.0127  0.2722  1.1702
 2936SOL    HW212214   9.758   8.363   1.717 -0.4245  1.0221  0.0484
 2937SOL     OW12215   7.333   5.145   4.693  0.0454  0.1584  0.5987
 2937SOL    HW112216   7.323   5.116   4.783  0.2499  0.2449  0.6512
 2937SOL    HW212217   7.245   5.144   4.656  0.1011 -0.9617  0.4639
 2938SOL     OW12218   0.516   5.728   7.225 -0.0435 -0.5564  0.2921
 2938SOL    HW112219   0.602   5.711   7.263  0.2312 -0.4093 -0.2509
 2938SOL    HW212220   0.498   5.820   7.246 -0.5480 -0.8944  1.3351
 2939SOL     OW12221   4.356   0.151   3.860 -0.0433  0.6813 -0.8335
 2939SOL    HW112222   4.400   0.071   3.888 -0.7780  0.4578 -0.2814
 2939SOL    HW212223   4.410   0.222   3.895 -0.5657  0.4059  0.5707
 2940SOL     OW12224   5.980   7.324   9.882 -1.1063  0.0810 -0.1129
 2940SOL    HW112225   5.914   7.257   9.898  0.1383 -1.1863 -0.1702
 2940SOL    HW212226   5.939   7.406   9.910 -2.9441 -0.5822 -0.8057
 2941SOL     OW12227   5.925   6.188   1.376  0.6975 -0.9508 -0.2125
 2941SOL    HW112228   6.009   6.213   1.415  0.8360  0.8514 -1.6450
 2941SOL    HW212229   5.860   6.218   1.439  0.9106  2.1326 -1.4076
 2942SOL     OW12230   7.178   7.944   6.571  0.0872  0.3279  0.2007
 2942SOL    HW112231   7.103   7.995   6.602  0.5206  1.2166 -0.2191
 2942SOL    HW212232   7.208   7.989   6.492  0.4350 -0.6081 -0.2192
 2943SOL     OW12233   0.878  10.530   5.746 -0.0796  0.0466 -0.3560
 2943SOL    HW112234   0.939  10.456   5.744 -0.1438 -0.0290  0.4366
 2943SOL    HW212235   0.887  10.566   5.834  0.2786  1.2606 -0.8702
 2944SOL     OW12236   1.362   0.152   6.372  0.4130  0.4610  0.1662
 2944SOL    HW112237   1.381   0.117   6.459  1.3488  1.0317  0.1989
 2944SOL    HW212238   1.446   0.185   6.341 -0.0928  1.0341 -0.6040
 2945SOL     OW12239   8.176   5.575  10.004 -0.0369 -0.2656  0.1907
 2945SOL    HW112240   8.236   5.500  10.000  0.3193 -0.0262  0.8978
 2945SOL    HW212241   8.233   5.652  10.005 -0.3871 -0.0039 -0.0877
 2946SOL     OW12242   2.395   5.252   7.568 -0.1291 -0.4307 -0.3286
 2946SOL    HW112243   2.330   5.304   7.616  0.1708  0.6879 -1.1001
 2946SOL    HW212244   2.424   5.185   7.630 -0.2911  0.5352  0.8028
 2947SOL     OW12245   1.754   6.150  10.286 -0.2730 -0.0309  0.4039
 2947SOL    HW112246   1.830   6.098  10.313 -0.9284 -1.6991 -0.8603
 2947SOL    HW212247   1.790   6.215  10.225  0.0264 -1.5587 -1.1116
 2948SOL     OW12248   8.064   5.270   3.558  0.1211 -0.4417 -0.1728
 2948SOL    HW112249   8.070   5.287   3.652 -2.1691 -1.7423  0.2362
 2948SOL    HW212250   8.067   5.175   3.551 -1.0611 -0.4065 -1.3011
 2949SOL     OW12251   2.481   8.818  10.387  0.2054  0.3250  0.2578
 2949SOL    HW112252   2.539   8.842  10.315 -0.9795  1.8470 -0.2339
 2949SOL    HW212253   2.529   8.843  10.466  1.7368 -1.8535  0.0513
 2950SOL     OW12254   9.909   2.088   2.476  0.0392 -0.1936 -0.0978
 2950SOL    HW112255   9.940   2.165   2.524 -0.5782  0.1484 -0.2405
 2950SOL    HW212256   9.842   2.122   2.416  1.6966 -0.4127 -2.1168
 2951SOL     OW12257   1.815   5.656   1.777  0.3877  0.0880 -0.4490
 2951SOL    HW112258   1.849   5.673   1.864  0.5627 -1.1468 -0.2572
 2951SOL    HW212259   1.893   5.651   1.721  0.2710  0.9594 -0.6960
 2952SOL     OW12260   1.376   2.139   0.340 -0.2908  0.4281 -0.1387
 2952SOL    HW112261   1.289   2.135   0.301 -0.3737 -0.6379  0.1217
 2952SOL    HW212262   1.383   2.227   0.376 -1.8259  0.0568  1.1249
 2953SOL     OW12263   4.993   8.145   2.452 -0.3735  0.1472 -0.6879
 2953SOL    HW112264   5.021   8.056   2.473  1.5560  0.9117  0.0979
 2953SOL    HW212265   4.897   8.141   2.455 -0.2980 -1.6062  0.5553
 2954SOL     OW12266   2.261   8.505   6.845 -0.1578  0.9594 -0.2012
 2954SOL    HW112267   2.286   8.469   6.760  0.5230 -0.1297  0.4496
 2954SOL    HW212268   2.182   8.456   6.869 -0.2551  1.1524 -0.1288
 2955SOL     OW12269   3.530   6.285   2.288 -0.0060 -0.5627  0.0767
 2955SOL    HW112270   3.514   6.297   2.382  1.9108 -0.0570  0.3501
 2955SOL    HW212271   3.443   6.292   2.248 -0.5941  1.4019  1.5981
 2956SOL     OW12272   9.890   9.781   4.609  0.0037 -0.2196  0.2768
 2956SOL    HW112273   9.899   9.829   4.691 -0.8868  0.0527  0.2130
 2956SOL    HW212274   9.980   9.777   4.574  0.5982 -1.5010  1.9006
 2957SOL     OW12275  10.785   9.999   8.195  0.2865  0.5373 -0.0453
 2957SOL    HW112276  10.783  10.094   8.203  0.9164  0.4781  0.8686
 2957SOL    HW212277  10.770   9.967   8.284 -0.4299 -0.2261 -0.4268
 2958SOL     OW12278   1.754   8.098   2.060  0.2078  0.6480 -0.5278
 2958SOL    HW112279   1.759   8.032   2.129 -1.1591  0.7701 -0.3102
 2958SOL    HW212280   1.795   8.175   2.099  0.4612  0.3793 -0.2529
 2959SOL     OW12281   7.059   0.492   3.646 -0.0970  0.1519  0.8599
 2959SOL    HW112282   6.982   0.546   3.627 -0.5993  0.0128  2.3975
 2959SOL    HW212283   7.100   0.535   3.722  1.7246  0.5967 -0.3280
 2960SOL     OW12284   9.360   8.363   5.106  0.5893  0.1128 -0.8369
 2960SOL    HW112285   9.340   8.359   5.012  3.0405  1.2422 -1.4676
 2960SOL    HW212286   9.455   8.377   5.109  0.6223 -0.4904  1.8399
 2961SOL     OW12287   2.438   9.598   4.099  0.4622  0.4127  0.6439
 2961SOL    HW112288   2.528   9.581   4.071 -0.4229 -2.2417 -0.8301
 2961SOL    HW212289   2.408   9.668   4.041  0.8226 -0.3883 -0.5417
 2962SOL     OW12290   8.989   9.445   1.261  0.0818  0.3336  0.6183
 2962SOL    HW112291   8.954   9.423   1.348  0.3022 -2.2577  0.0944
 2962SOL    HW212292   8.915   9.431   1.202  0.8356 -1.2144  0.0074
 2963SOL     OW12293   8.978   8.488  10.169 -0.0180 -0.2282  0.2957
 2963SOL    HW112294   8.945   8.406  10.207 -0.4645 -0.1376  0.1127
 2963SOL    HW212295   8.925   8.500  10.090 -0.2241  0.4417  0.5325
 2964SOL     OW12296   9.566   0.944   3.304  0.0060  0.5463  0.2133
 2964SOL    HW112297   9.610   0.861   3.320  0.5943  0.4524 -1.7111
 2964SOL    HW212298   9.476   0.919   3.283  0.4769  0.2729 -1.5674
 2965SOL     OW12299   0.345   0.104   7.145  0.2989  0.2897  0.2494
 2965SOL    HW112300   0.439   0.106   7.162  0.4234 -0.4028 -0.3127
 2965SOL    HW212301   0.322   0.011   7.149 -0.4128  0.4812  0.6629
 2966SOL     OW12302   2.318   6.262   1.141 -0.8477 -0.3608 -0.1386
 2966SOL    HW112303   2.405   6.230   1.116  0.7432  2.4474  1.5551
 2966SOL    HW212304   2.309   6.346   1.097 -1.2761  0.9415  2.3300
 2967SOL     OW12305   4.561   7.709   1.052  0.2086 -0.1230 -0.2205
 2967SOL    HW112306   4.523   7.657   1.123  0.0093  0.2276 -0.0662
 2967SOL    HW212307   4.633   7.656   1.018 -0.1591 -0.6086 -0.2358
 2968SOL     OW12308   3.195   2.562   3.691 -0.5360 -0.0193  0.4343
 2968SOL    HW112309   3.184   2.482   3.741 -1.8849 -0.2606 -0.2310
 2968SOL    HW212310   3.106   2.592   3.673 -0.0537  1.0088 -0.3022
 2969SOL     OW12311   4.979   4.313   7.578  0.1345 -0.2934  0.3393
 2969SOL    HW112312   5.026   4.230   7.571 -0.6037 -0.7406  0.7026
 2969SOL    HW212313   4.993   4.341   7.668 -0.0718 -0.2924  0.3704
 2970SOL     OW12314   7.165   5.222   5.139 -1.0739  0.1460 -0.4331
 2970SOL    HW112315   7.240   5.266   5.177 -1.7962  0.6087  0.4739
 2970SOL    HW212316   7.102   5.215   5.211 -1.4219 -1.3356 -0.8538
 2971SOL     OW12317  10.659   6.810   3.108  1.2092  0.3955  0.0250
 2971SOL    HW112318  10.590   6.848   3.163  0.3427 -1.4177  0.2359
 2971SOL    HW212319  10.736   6.807   3.165  0.8311  0.3243  0.5451
 2972SOL     OW12320  10.860   1.240   3.543  0.0204 -0.6956  0.1882
 2972SOL    HW112321  10.809   1.178   3.490  0.7663 -1.0800 -0.1022
 2972SOL    HW212322  10.857   1.204   3.631 -0.1593 -0.7530  0.1592
 2973SOL     OW12323   5.632   1.101   6.446 -0.6422 -0.4882  0.6030
 2973SOL    HW112324   5.700   1.033   6.438 -2.1687 -1.8919 -0.8818
 2973SOL    HW212325   5.573   1.068   6.514 -0.7814 -0.1199  0.6575
 2974SOL     OW12326   7.162   4.411   6.565 -0.2669  0.0841 -0.7645
 2974SOL    HW112327   7.110   4.343   6.606  0.8223 -0.0458  0.4068
 2974SOL    HW212328   7.152   4.395   6.471  0.6178 -2.1528 -0.4853
 2975SOL     OW12329   2.201   5.630   2.200 -0.6897 -0.3101 -0.0997
 2975SOL    HW112330   2.206   5.722   2.174 -1.1566  0.2554  1.7505
 2975SOL    HW212331   2.292   5.606   2.220 -0.8059  0.3054  1.2272
 2976SOL     OW12332   7.356   2.977   6.351 -0.0593 -0.0252  0.1096
 2976SOL    HW112333   7.314   3.031   6.417 -1.4520 -0.7235 -0.1835
 2976SOL    HW212334   7.437   2.946   6.392 -1.2911 -1.0939  1.7754
 2977SOL     OW12335  10.867   8.644   0.170  0.2380 -0.0473  0.2433
 2977SOL    HW112336  10.796   8.683   0.222  1.0045 -0.2062  1.4226
 2977SOL    HW212337  10.929   8.611   0.235  0.2576 -2.0289 -0.7478
 2978SOL     OW12338   1.819   3.021   5.716  0.2238 -0.2485 -0.4234
 2978SOL    HW112339   1.858   3.084   5.776  1.0046  0.4428 -1.6427
 2978SOL    HW212340   1.725   3.032   5.728  0.3627  0.0397  0.5006
 2979SOL     OW12341   7.148   5.387   0.728  0.0078 -0.3895  0.6726
 2979SOL    HW112342   7.054   5.378   0.744 -0.0511 -0.7941  0.1220
 2979SOL    HW212343   7.169   5.315   0.668  0.5535  0.0510  0.3297
 2980SOL     OW12344   3.540   4.999   5.642  0.0589  0.4316 -0.0844
 2980SOL    HW112345   3.507   4.911   5.620  1.0843 -0.3048  1.2983
 2980SOL    HW212346   3.634   4.987   5.653  0.1487  1.6560  0.4555
 2981SOL     OW12347  10.880   6.369   9.799  0.1005  0.1988  0.0764
 2981SOL    HW112348  10.847   6.442   9.850  1.7417  1.4010 -0.5384
 2981SOL    HW212349  10.975   6.380   9.799  0.6765 -3.7035  2.6068
 2982SOL     OW12350   5.329   8.188   8.114  0.0228  0.1814 -0.1323
 2982SOL    HW112351   5.328   8.169   8.020 -0.4879 -1.1353  0.1257
 2982SOL    HW212352   5.404   8.139   8.147 -0.5469 -0.3676  0.3463
 2983SOL     OW12353   7.117   7.791   5.561  0.3086  0.0072 -0.3967
 2983SOL    HW112354   7.129   7.748   5.646  2.6947 -0.1161 -0.7688
 2983SOL    HW212355   7.080   7.724   5.504 -0.6983 -0.0879  0.3470
 2984SOL     OW12356   9.267   6.144   5.550  0.3945 -0.0652 -0.2704
 2984SOL    HW112357   9.281   6.224   5.501  1.5210 -1.1003 -1.6864
 2984SOL    HW212358   9.321   6.154   5.629  0.2880  0.6831 -0.2908
 2985SOL     OW12359   4.007   6.555   4.359 -0.4363  0.0035  0.0010
 2985SOL    HW112360   3.954   6.615   4.412  0.1650  0.1644  0.4206
 2985SOL    HW212361   4.093   6.556   4.400  0.1870  0.5475 -1.2920
 2986SOL     OW12362   6.034   5.882   4.964 -0.5199 -0.2723 -0.0809
 2986SOL    HW112363   5.977   5.818   5.007  0.1286 -0.6938  0.1545
 2986SOL    HW212364   5.973   5.948   4.929 -1.1718 -0.8729 -0.0987
 2987SOL     OW12365   0.301   1.322   3.668  0.1792 -0.2296  0.1383
 2987SOL    HW112366   0.326   1.413   3.682  1.2966 -0.5683  0.3864
 2987SOL    HW212367   0.227   1.326   3.607  1.7284  0.7261 -1.7183
 2988SOL     OW12368   4.368   4.934   2.700  0.6119 -0.3305 -0.4859
 2988SOL    HW112369   4.382   4.928   2.606 -0.4710 -1.6801 -0.5697
 2988SOL    HW212370   4.423   4.865   2.737  1.2653  0.3908 -0.0989
 2989SOL     OW12371   2.499   8.870   9.194 -0.0025 -0.0807 -0.0803
 2989SOL    HW112372   2.487   8.961   9.222  1.3973 -0.4542  1.8548
 2989SOL    HW212373   2.592   8.853   9.208 -0.0618 -1.5467 -1.3158
 2990SOL     OW12374   6.284   5.231   1.824 -0.4206 -0.7175 -0.2056
 2990SOL    HW112375   6.287   5.199   1.914  0.4017  0.4531  0.2008
 2990SOL    HW212376   6.246   5.318   1.831 -0.7550 -0.7974 -1.0462
 2991SOL     OW12377   3.459   0.947   3.148  0.1556 -0.0958 -0.3617
 2991SOL    HW112378   3.395   1.000   3.100 -1.3003  0.5238  2.1881
 2991SOL    HW212379   3.504   1.009   3.205  0.0561 -1.2096  0.9556
 2992SOL     OW12380   5.513   0.963   6.785  0.0011 -0.0201 -0.0113
 2992SOL    HW112381   5.524   0.885   6.732  0.6225 -0.7152  1.1240
 2992SOL    HW212382   5.593   0.969   6.836 -0.0939  1.2932 -0.0032
 2993SOL     OW12383   3.425   8.099   2.832  0.0564  0.1446 -0.7935
 2993SOL    HW112384   3.500   8.049   2.799  0.3497 -1.2597  1.8929
 2993SOL    HW212385   3.350   8.040   2.820 -0.0365  0.1228 -0.0862
 2994SOL     OW12386   0.110   0.033   4.038 -0.0566 -0.3997  0.4127
 2994SOL    HW112387   0.109  -0.009   3.952 -1.2014 -0.1960  0.3105
 2994SOL    HW212388   0.147  -0.033   4.097 -0.6593 -1.0971  0.0259
 2995SOL     OW12389   9.309   2.216   5.977  0.0423 -0.2785  0.2776
 2995SOL    HW112390   9.386   2.272   5.965 -0.2390  0.0856  0.1809
 2995SOL    HW212391   9.274   2.204   5.889 -0.9859  0.9280  0.5134
 2996SOL     OW12392   5.528   2.867   0.287  0.0871  0.4044  0.5744
 2996SOL    HW112393   5.492   2.877   0.199 -1.0695  0.2654  1.0117
 2996SOL    HW212394   5.608   2.816   0.276 -0.3989 -0.1717 -0.3160
 2997SOL     OW12395   9.631   0.013   7.576 -0.0772  0.0240  0.3122
 2997SOL    HW112396   9.554  -0.021   7.623 -0.5919  0.2768 -0.3410
 2997SOL    HW212397   9.604   0.100   7.546  0.2540 -0.1381 -0.4531
 2998SOL     OW12398   7.332   1.653   0.104  0.1878 -0.6166  0.0574
 2998SOL    HW112399   7.406   1.674   0.161 -1.1501  0.5936  1.3729
 2998SOL    HW212400   7.261   1.708   0.135 -1.6829 -2.7602 -0.3084
 2999SOL     OW12401   4.979   6.711   5.458  0.2991  0.2631  0.1693
 2999SOL    HW112402   4.964   6.616   5.454  3.5669 -0.2437 -1.2242
 2999SOL    HW212403   5.040   6.722   5.531  0.5162  1.2128 -0.1548
 3000SOL     OW12404   5.050   7.646   3.039  0.2405 -0.7067  0.3135
 3000SOL    HW112405   5.016   7.580   3.099  0.8198 -1.5014 -0.2235
 3000SOL    HW212406   5.127   7.606   3.000  0.1988  0.0206 -0.5444
 3001SOL     OW12407   0.508   8.726   3.512 -0.5814  0.5350  0.0163
 3001SOL    HW112408   0.458   8.687   3.584 -1.0865 -0.3094 -0.7813
 3001SOL    HW212409   0.562   8.793   3.554  0.4903 -1.1872  1.4755
 3002SOL     OW12410  10.757   3.937   8.360 -0.1220  0.3405  0.1393
 3002SOL    HW112411  10.819   3.864   8.349  1.3752  1.6372 -0.2072
 3002SOL    HW212412  10.813   4.013   8.379 -1.6980  1.2785  1.1359
 3003SOL     OW12413   9.779   6.372   7.050  0.4194  0.4377  0.3932
 3003SOL    HW112414   9.718   6.435   7.090 -1.3673 -0.8661 -0.2206
 3003SOL    HW212415   9.829   6.338   7.124 -0.7865  0.2704  1.1523
 3004SOL     OW12416   5.505   8.354   5.978  0.3804  0.1728  0.0719
 3004SOL    HW112417   5.473   8.328   6.064  1.4846  0.1842  0.5043
 3004SOL    HW212418   5.577   8.415   5.997  0.2970  0.5734 -0.8665
 3005SOL     OW12419  10.191  10.537   3.155  0.1968 -0.7729 -0.1858
 3005SOL    HW112420  10.285  10.542   3.141  0.0203 -0.2827 -1.2792
 3005SOL    HW212421  10.156  10.504   3.072 -0.8119  1.3740 -0.6629
 3006SOL     OW12422   0.482   1.693   9.909 -0.0647 -0.1667  0.2207
 3006SOL    HW112423   0.404   1.666   9.958 -0.0349 -1.5071 -0.4566
 3006SOL    HW212424   0.454   1.694   9.818  0.4631  0.2796  0.0591
 3007SOL     OW12425   4.002   5.439   9.001  0.0406  0.2927 -0.2350
 3007SOL    HW112426   3.955   5.392   8.932  0.8855  0.5100 -0.9648
 3007SOL    HW212427   4.044   5.512   8.956 -0.8411  1.4685  0.8024
 3008SOL     OW12428   7.814   6.038   2.678  0.0407  0.3445  0.5773
 3008SOL    HW112429   7.781   6.089   2.604  0.2694  2.2193  1.7411
 3008SOL    HW212430   7.741   5.982   2.702 -0.4558  0.5995 -0.2984
 3009SOL     OW12431   0.708   3.341  10.067  0.0726  0.1300 -0.2737
 3009SOL    HW112432   0.687   3.392  10.145  0.7031 -0.3979  0.2442
 3009SOL    HW212433   0.627   3.293  10.047 -0.2802  0.7352 -0.3132
 3010SOL     OW12434   4.973   6.516   0.637  0.1399 -0.6724  0.2674
 3010SOL    HW112435   5.023   6.443   0.602  0.4176 -0.7990  0.9306
 3010SOL    HW212436   5.035   6.564   0.692 -0.3402 -0.5719  0.7250
 3011SOL     OW12437   7.675  10.769   2.703  0.5325 -0.1850  0.8704
 3011SOL    HW112438   7.742  10.776   2.636 -0.1791  1.9294  0.3384
 3011SOL    HW212439   7.715  10.808   2.781  0.6366 -0.7596  1.1031
 3012SOL     OW12440   2.665   3.685   5.339 -0.0708 -0.0292 -0.0551
 3012SOL    HW112441   2.718   3.666   5.416  0.2433  0.9946 -0.0054
 3012SOL    HW212442   2.610   3.608   5.327  0.9519 -0.8152  0.2968
 3013SOL     OW12443   6.384   8.264  10.705  0.3011 -0.4896  0.1508
 3013SOL    HW112444   6.431   8.334  10.750 -0.1959 -0.1192  0.0868
 3013SOL    HW212445   6.450   8.195  10.694  1.2460  0.6053 -1.2744
 3014SOL     OW12446  10.162   5.754  10.381  0.0109  0.0499 -0.3624
 3014SOL    HW112447  10.161   5.848  10.364 -0.9096  0.2935  1.0344
 3014SOL    HW212448  10.252   5.728  10.361  0.2191  1.1824 -0.9703
 3015SOL     OW12449   1.315  10.868   3.915 -0.0407  0.3515 -0.4205
 3015SOL    HW112450   1.386  10.808   3.937 -0.6177 -0.0707  0.3235
 3015SOL    HW212451   1.337  10.901   3.829  0.2267 -1.0380 -0.8978
 3016SOL     OW12452   2.424  10.659  10.269 -0.4705 -0.0604 -0.1899
 3016SOL    HW112453   2.463  10.576  10.241 -0.5328 -0.2197  0.2035
 3016SOL    HW212454   2.331  10.650  10.246 -0.1157  0.7227 -2.0913
 3017SOL     OW12455   8.631   3.488   7.875  0.7310 -0.6132  0.0425
 3017SOL    HW112456   8.594   3.445   7.798  0.6399 -0.3292 -0.0764
 3017SOL    HW212457   8.590   3.575   7.876 -0.8809 -1.3656  1.6220
 3018SOL     OW12458   3.063   5.662   1.688  0.1090  0.2402  0.1320
 3018SOL    HW112459   3.023   5.748   1.675 -2.6199 -0.7796  1.3859
 3018SOL    HW212460   3.093   5.636   1.601 -0.9099  1.5794 -0.6386
 3019SOL     OW12461   6.604   8.229   5.012  0.0831  0.4293  0.2631
 3019SOL    HW112462   6.549   8.307   5.013  0.1761  0.5859 -2.8282
 3019SOL    HW212463   6.581   8.183   5.093  0.8335  4.1265  2.6901
 3020SOL     OW12464   8.724   4.132   2.471 -0.4434 -0.5504  0.2013
 3020SOL    HW112465   8.747   4.196   2.539  0.0894 -0.5827  0.0541
 3020SOL    HW212466   8.731   4.182   2.389  3.6495 -1.7161 -0.2658
 3021SOL     OW12467   8.853   6.741   8.561 -0.5051  0.3952  0.4517
 3021SOL    HW112468   8.942   6.710   8.545  0.3584  2.4965  1.1293
 3021SOL    HW212469   8.829   6.788   8.481 -0.8964  0.1409  0.4127
 3022SOL     OW12470   1.868   2.816   5.263  0.0574 -0.1132  0.2222
 3022SOL    HW112471   1.934   2.815   5.332 -0.4317 -1.0384  0.6845
 3022SOL    HW212472   1.787   2.842   5.307 -0.5001 -1.8078  0.2347
 3023SOL     OW12473   9.350   6.642   0.063  0.0452 -0.4687  0.5271
 3023SOL    HW112474   9.429   6.592   0.085  0.6321  0.2379  0.0551
 3023SOL    HW212475   9.350   6.647  -0.032 -0.5834 -0.4834  0.5260
 3024SOL     OW12476   7.816   9.145   2.834 -0.0709  0.0200 -0.2042
 3024SOL    HW112477   7.799   9.227   2.881 -0.4204  0.2397 -0.7029
 3024SOL    HW212478   7.788   9.163   2.744  0.4177 -0.4526 -0.4545
 3025SOL     OW12479   5.441   4.351  10.667  0.5940 -0.0697  0.1231
 3025SOL    HW112480   5.376   4.296  10.622 -0.2940  1.4545 -0.5072
 3025SOL    HW212481   5.418   4.343  10.760  0.7100 -1.0423  0.0773
 3026SOL     OW12482   4.747   7.437   8.716  0.2996  0.2587 -0.3238
 3026SOL    HW112483   4.809   7.508   8.704 -0.3575  0.9734  0.4900
 3026SOL    HW212484   4.698   7.460   8.795 -1.2034 -0.1371 -1.1218
 3027SOL     OW12485   4.247   9.089   9.950 -0.0922  0.6351  0.1360
 3027SOL    HW112486   4.333   9.106   9.911  0.1499  0.9603  0.8035
 3027SOL    HW212487   4.266   9.031  10.024 -0.5300  0.1553 -0.1219
 3028SOL     OW12488   0.548  10.509   9.550  0.6855 -0.0252  0.9678
 3028SOL    HW112489   0.600  10.441   9.508  2.2061  0.9323  1.2647
 3028SOL    HW212490   0.507  10.557   9.477  1.3355  0.0908  0.6781
 3029SOL     OW12491   0.902   0.978   1.257  0.2271 -0.1799  0.3474
 3029SOL    HW112492   0.959   0.901   1.266  0.3233 -0.2454 -0.6716
 3029SOL    HW212493   0.920   1.010   1.169 -0.1193  0.7734  0.6229
 3030SOL     OW12494  10.193   5.360   5.924  0.4191  0.0873  0.7539
 3030SOL    HW112495  10.123   5.316   5.972 -0.6163 -0.2495 -1.0018
 3030SOL    HW212496  10.259   5.292   5.909 -0.3721 -0.4432 -0.4072
 3031SOL     OW12497   3.525   9.203  10.004 -0.4442 -0.3109  0.1150
 3031SOL    HW112498   3.592   9.266  10.028  1.7770 -2.1707 -0.9474
 3031SOL    HW212499   3.543   9.126  10.059 -1.8271 -0.7880 -0.0646
 3032SOL     OW12500   6.945   4.069   6.831  0.2612 -0.4554  0.0698
 3032SOL    HW112501   6.974   4.120   6.755  1.2341  1.0650  1.4339
 3032SOL    HW212502   6.875   4.121   6.870 -0.0628 -1.1091  0.3772
 3033SOL     OW12503   7.245  10.749   2.629  0.3160  0.5450 -0.2598
 3033SOL    HW112504   7.255  10.827   2.575 -2.6343  0.5747 -0.8733
 3033SOL    HW212505   7.159  10.715   2.605  1.2226 -2.4688  0.5578
 3034SOL     OW12506   9.969   2.030   6.413 -0.3108 -0.2108 -0.0777
 3034SOL    HW112507   9.978   1.935   6.408  1.1202 -0.0611 -0.5959
 3034SOL    HW212508   9.891   2.044   6.467 -0.3293 -1.6748  0.2973
 3035SOL     OW12509   8.730   1.380   4.277 -0.1527  0.4197 -0.0085
 3035SOL    HW112510   8.769   1.348   4.196 -0.4248 -0.7927  0.3280
 3035SOL    HW212511   8.642   1.408   4.252  0.4313  1.8649 -0.4970
 3036SOL     OW12512   1.738   2.167   3.723  0.0659 -0.2708 -0.5131
 3036SOL    HW112513   1.669   2.101   3.728 -2.4661  2.3021 -0.5838
 3036SOL    HW212514   1.725   2.210   3.639  1.7171  0.3074 -0.4889
 3037SOL     OW12515   4.202   8.985   4.307 -0.3627  0.0563  0.5312
 3037SOL    HW112516   4.218   9.077   4.289 -2.5753  0.3585 -0.0943
 3037SOL    HW212517   4.210   8.977   4.402  0.1534  0.8286  0.5564
 3038SOL     OW12518   1.433   1.744   4.320  0.3961  0.3459  0.1952
 3038SOL    HW112519   1.480   1.720   4.400 -1.2061 -0.3171  0.9643
 3038SOL    HW212520   1.354   1.690   4.322 -0.8639  2.1315 -0.5741
 3039SOL     OW12521  10.541   5.418   4.840  0.0486  0.0721  0.6152
 3039SOL    HW112522  10.580   5.436   4.925  0.7855 -2.9452  0.9445
 3039SOL    HW212523  10.449   5.446   4.850  0.2891  0.3722  2.1504
 3040SOL     OW12524   2.365   5.862   1.116  0.4248 -0.0287 -0.2953
 3040SOL    HW112525   2.311   5.812   1.178  1.6348 -1.6819 -0.5580
 3040SOL    HW212526   2.393   5.939   1.167  0.7721 -0.9749  0.9764
 3041SOL     OW12527   8.990   0.621   1.267  0.3012  0.6291 -0.6373
 3041SOL    HW112528   8.903   0.613   1.228  0.7850  0.0576 -1.6385
 3041SOL    HW212529   9.001   0.540   1.317 -0.3515  1.3997  0.7665
 3042SOL     OW12530   0.216   5.912  10.745  0.4483  0.0728  0.2548
 3042SOL    HW112531   0.166   5.992  10.765  1.3872  0.5335  0.7568
 3042SOL    HW212532   0.172   5.876  10.668 -0.6403  0.5023  0.6598
 3043SOL     OW12533   5.469   0.409   9.219  0.0073  0.3663  0.2970
 3043SOL    HW112534   5.554   0.393   9.261  0.0151  0.9541  0.5096
 3043SOL    HW212535   5.405   0.372   9.280 -0.1210  2.9270  1.7974
 3044SOL     OW12536   5.601   6.409   3.673 -0.1258 -0.7794  0.0608
 3044SOL    HW112537   5.579   6.500   3.692 -0.3561 -0.5855 -1.0781
 3044SOL    HW212538   5.670   6.387   3.735 -1.6768 -0.5661  1.9085
 3045SOL     OW12539   5.876   3.049  10.924  0.0980 -0.3254  0.9528
 3045SOL    HW112540   5.781   3.061  10.925  0.0628 -0.4196 -0.7207
 3045SOL    HW212541   5.889   2.957  10.948 -0.2675 -0.5395  0.3175
 3046SOL     OW12542   6.784   7.576   6.245  0.4792 -0.3144  0.5112
 3046SOL    HW112543   6.829   7.635   6.305  0.5684 -0.6769  0.8031
 3046SOL    HW212544   6.742   7.634   6.182  0.1920  0.0822  1.0570
 3047SOL     OW12545  10.381   5.220   0.250  0.2004  0.7786  0.4558
 3047SOL    HW112546  10.342   5.245   0.334 -1.7376 -0.2787 -0.0897
 3047SOL    HW212547  10.333   5.272   0.185 -0.1163 -0.3018 -0.2001
 3048SOL     OW12548   8.103  10.960  10.495  0.1781 -0.0879  0.0838
 3048SOL    HW112549   8.035  10.926  10.437  1.1129 -0.0797 -1.0483
 3048SOL    HW212550   8.096  11.055  10.488  0.3128 -0.0870 -0.0520
 3049SOL     OW12551   9.152   1.561   7.976 -0.2697  0.0780  0.8933
 3049SOL    HW112552   9.092   1.616   7.926  0.6233  1.1931  1.0271
 3049SOL    HW212553   9.236   1.605   7.969  0.8094 -2.1164 -0.3017
 3050SOL     OW12554   5.351   4.613   5.022  0.7067  0.4057  0.4272
 3050SOL    HW112555   5.364   4.555   5.097  2.0573 -1.8982 -1.5345
 3050SOL    HW212556   5.260   4.600   4.997  0.1479  1.4408  1.8233
 3051SOL     OW12557   7.134   9.289   4.653 -0.3167 -0.2195  0.0715
 3051SOL    HW112558   7.167   9.356   4.593 -0.2609 -1.6819 -1.5647
 3051SOL    HW212559   7.124   9.211   4.599 -0.2392 -1.5903  1.9721
 3052SOL     OW12560   3.492   3.405  10.354  0.2549  0.1032  0.2289
 3052SOL    HW112561   3.527   3.490  10.330 -2.2785  0.9080 -0.8657
 3052SOL    HW212562   3.430   3.423  10.425 -1.6266 -0.4975 -1.1875
 3053SOL     OW12563  10.059   5.061   2.660  0.3588 -0.6514  0.1270
 3053SOL    HW112564  10.053   4.966   2.670 -1.6795 -0.7196 -1.5278
 3053SOL    HW212565  10.120   5.075   2.588  2.5952 -0.5862  1.9559
 3054SOL     OW12566   2.618   8.659   1.788  0.3987 -0.3854 -0.2924
 3054SOL    HW112567   2.676   8.649   1.713  0.1875  2.6180 -0.9364
 3054SOL    HW212568   2.666   8.716   1.848 -0.7574 -0.1161  0.3995
 3055SOL     OW12569   1.528  10.034   3.869  0.1923  0.0259  0.3105
 3055SOL    HW112570   1.452  10.022   3.812  0.0989  1.0318  0.2147
 3055SOL    HW212571   1.491  10.044   3.956  0.3800 -2.4410  0.7240
 3056SOL     OW12572   2.948   2.820   7.290  0.0612 -0.0232  0.0851
 3056SOL    HW112573   2.896   2.872   7.352 -0.1761 -2.2312  1.8212
 3056SOL    HW212574   2.898   2.823   7.208 -2.3792 -1.2907  1.4433
 3057SOL     OW12575   4.061   7.125   7.709 -0.0542 -0.3621 -0.4585
 3057SOL    HW112576   4.136   7.137   7.650  0.0526 -1.1454 -0.4900
 3057SOL    HW212577   4.090   7.163   7.792 -0.2334  0.8076 -0.9338
 3058SOL     OW12578   9.150   4.222   9.742  0.4827  0.6512 -0.4937
 3058SOL    HW112579   9.154   4.135   9.783  1.2234  0.4468 -0.9695
 3058SOL    HW212580   9.101   4.208   9.661  0.2589  0.7569 -0.3771
 3059SOL     OW12581   6.500   5.841   6.674 -0.4595  0.2095 -0.2016
 3059SOL    HW112582   6.421   5.891   6.691  0.7838  1.8068  1.0886
 3059SOL    HW212583   6.545   5.890   6.604  0.7508  0.9260  1.0510
 3060SOL     OW12584   3.615   0.889   8.930 -0.0641  0.3710 -0.1721
 3060SOL    HW112585   3.642   0.955   8.867  1.5804 -0.8934 -0.8076
 3060SOL    HW212586   3.695   0.842   8.953 -0.7884  0.1348  2.0877
 3061SOL     OW12587   6.380  10.634   4.861 -0.3629 -0.1811 -0.3996
 3061SOL    HW112588   6.384  10.539   4.853 -0.9243 -0.1181 -1.4976
 3061SOL    HW212589   6.433  10.668   4.789 -1.3085  0.3420 -0.8707
 3062SOL     OW12590   6.920   3.436   5.281 -0.7396  0.3168  0.5116
 3062SOL    HW112591   6.928   3.356   5.229  1.0119  1.2986 -0.7781
 3062SOL    HW212592   6.979   3.423   5.355  0.6515  0.9951 -0.4683
 3063SOL     OW12593   0.138   0.424   9.688  0.2904 -0.0168 -0.3846
 3063SOL    HW112594   0.131   0.465   9.774  0.0647  2.2592 -1.4525
 3063SOL    HW212595   0.221   0.375   9.692  0.4263  0.2986  1.0189
 3064SOL     OW12596   4.886   7.425   7.477  0.2490  0.0587 -0.0519
 3064SOL    HW112597   4.891   7.362   7.406 -1.2989 -0.5837  0.3873
 3064SOL    HW212598   4.977   7.442   7.501  0.6958 -1.3722 -0.7264
 3065SOL     OW12599  10.838   8.561   0.802 -0.3661  0.2700 -0.2664
 3065SOL    HW112600  10.868   8.638   0.753 -0.1873 -0.2384 -0.9587
 3065SOL    HW212601  10.874   8.573   0.890  0.0752  0.7333 -0.5060
 3066SOL     OW12602   0.469   8.123   6.170  0.2842  0.3398 -0.0230
 3066SOL    HW112603   0.422   8.163   6.096 -0.1060  0.3189  0.2104
 3066SOL    HW212604   0.521   8.195   6.207 -1.2954  0.9273  1.0981
 3067SOL     OW12605   7.027  10.960   7.576  0.6340  0.5164  0.3124
 3067SOL    HW112606   7.112  10.974   7.616 -0.2940 -0.8772  2.8632
 3067SOL    HW212607   6.967  11.014   7.627 -0.4405 -0.6673  0.3126
 3068SOL     OW12608   9.535   4.647   5.055  0.4967  0.0688  0.3367
 3068SOL    HW112609   9.544   4.653   5.150  2.4132  0.6738  0.1472
 3068SOL    HW212610   9.465   4.709   5.034 -0.6973 -0.8657  1.4404
 3069SOL     OW12611  10.686   8.563   1.368  0.4166  0.2698 -0.3027
 3069SOL    HW112612  10.638   8.522   1.297  0.3226  0.9507 -0.6437
 3069SOL    HW212613  10.775   8.572   1.334  0.6470 -0.4675  0.1096
 3070SOL     OW12614   5.736   8.040   1.293  0.0176 -0.3859  0.3325
 3070SOL    HW112615   5.739   8.080   1.206 -0.6279 -1.5236 -0.2196
 3070SOL    HW212616   5.693   8.106   1.348 -1.2666 -0.4035 -0.6233
 3071SOL     OW12617  10.502   7.468   2.662 -0.1194 -0.0500 -0.2716
 3071SOL    HW112618  10.519   7.548   2.612 -1.3696  0.4205  0.0456
 3071SOL    HW212619  10.563   7.403   2.625  1.5838  1.2932  0.1206
 3072SOL     OW12620   7.871   3.291   8.253  0.6427  0.0495  0.1025
 3072SOL    HW112621   7.791   3.330   8.289  0.2326 -0.7242  0.0423
 3072SOL    HW212622   7.913   3.250   8.328 -0.9486 -2.8352 -0.4923
 3073SOL     OW12623   5.135   6.492   2.995 -0.5354 -0.6589 -0.9223
 3073SOL    HW112624   5.046   6.458   2.986 -0.7724 -0.0289 -0.9673
 3073SOL    HW212625   5.161   6.470   3.084 -0.9878 -0.2315 -0.6871
 3074SOL     OW12626   2.701   2.685  10.281  0.3037 -0.4971  0.1729
 3074SOL    HW112627   2.700   2.598  10.242  0.7123 -0.3557 -0.1540
 3074SOL    HW212628   2.698   2.745  10.206  1.7434 -0.2235  0.3247
 3075SOL     OW12629   9.685   8.860   9.300 -0.1111 -0.1639 -0.5701
 3075SOL    HW112630   9.634   8.936   9.329  0.3658 -0.2569  0.5003
 3075SOL    HW212631   9.645   8.785   9.344 -1.2465 -0.6992 -2.4267
 3076SOL     OW12632   7.771   7.833   4.721  0.5425 -0.1204 -0.7030
 3076SOL    HW112633   7.849   7.789   4.685 -0.6391 -3.1159  0.2466
 3076SOL    HW212634   7.699   7.802   4.665 -0.5797 -0.8631  1.1289
 3077SOL     OW12635   0.128   3.497   3.415 -0.0354  0.2082  0.0067
 3077SOL    HW112636   0.207   3.469   3.460 -0.0766  1.3853  0.8491
 3077SOL    HW212637   0.068   3.423   3.423  1.0547 -0.7972 -0.8777
 3078SOL     OW12638  10.303   0.185  10.961  0.1024  0.0393 -0.1371
 3078SOL    HW112639  10.314   0.158  11.052  3.1516 -1.2459 -0.8135
 3078SOL    HW212640  10.236   0.253  10.964 -0.1857 -0.3025  2.9995
 3079SOL     OW12641   6.079   8.325   2.909  0.2969  0.0019 -0.6155
 3079SOL    HW112642   6.135   8.325   2.832 -0.0419  0.2313 -0.8626
 3079SOL    HW212643   6.065   8.418   2.929 -0.3053 -0.0509 -0.7813
 3080SOL     OW12644   0.299   2.759   0.342 -0.2347 -0.0198  0.3137
 3080SOL    HW112645   0.318   2.774   0.249  1.7635 -2.0088  0.3638
 3080SOL    HW212646   0.383   2.774   0.385 -0.2528 -2.7910  1.3543
 3081SOL     OW12647   7.866   0.249   3.861  0.0971  0.4156 -0.1214
 3081SOL    HW112648   7.797   0.258   3.927 -1.5299  0.4000 -1.7932
 3081SOL    HW212649   7.925   0.183   3.898 -0.5900  0.6649  1.4793
 3082SOL     OW12650   5.623   7.926   5.202  0.1250  0.4260  0.1003
 3082SOL    HW112651   5.549   7.928   5.142  1.6444  0.7836 -1.7909
 3082SOL    HW212652   5.585   7.899   5.286 -1.9789 -0.2996 -1.0577
 3083SOL     OW12653   8.180   9.719   0.840 -0.6819  0.3181  0.6743
 3083SOL    HW112654   8.151   9.787   0.779 -2.1229  0.1587  1.1660
 3083SOL    HW212655   8.230   9.658   0.786 -0.6169  0.9992 -0.0426
 3084SOL     OW12656   8.298   6.863   6.082 -0.0018  0.0293  0.2728
 3084SOL    HW112657   8.315   6.945   6.037 -1.3887  0.2932  0.2071
 3084SOL    HW212658   8.378   6.812   6.070  1.4080  1.8669  1.4561
 3085SOL     OW12659   2.108   9.402  10.047 -0.5898  0.2870  0.3882
 3085SOL    HW112660   2.074   9.472  10.103  1.2448  0.6989  1.0421
 3085SOL    HW212661   2.185   9.369  10.094 -0.5278 -1.1322 -0.6580
 3086SOL     OW12662   2.846   5.905   0.651 -0.3307  0.1529  0.1109
 3086SOL    HW112663   2.758   5.902   0.689 -0.2723 -1.5513  0.1887
 3086SOL    HW212664   2.886   5.823   0.680  1.9579  1.7428  1.6270
 3087SOL     OW12665   4.694  10.433   4.538  0.1324 -0.4192 -0.1912
 3087SOL    HW112666   4.712  10.512   4.589 -0.4612 -0.6230  0.3344
 3087SOL    HW212667   4.640  10.379   4.596  0.1273 -0.9956 -0.7345
 3088SOL     OW12668   0.406  10.817   0.086 -0.2361 -0.1967  0.0902
 3088SOL    HW112669   0.337  10.835   0.022  0.0788 -1.0516 -0.4974
 3088SOL    HW212670   0.359  10.784   0.163 -0.8154  2.9662  1.1554
 3089SOL     OW12671  10.831   9.034   3.278 -0.0625  0.3325 -0.2874
 3089SOL    HW112672  10.829   9.062   3.370  1.2389 -1.4401  0.3115
 3089SOL    HW212673  10.871   9.108   3.232 -3.3209  2.4296  0.0640
 3090SOL     OW12674   1.767   5.797   1.146  0.4242  0.2203  0.2573
 3090SOL    HW112675   1.840   5.832   1.198  2.0118 -0.8619 -1.1830
 3090SOL    HW212676   1.746   5.866   1.083 -0.2449  0.7917  1.1019
 3091SOL     OW12677   0.364   4.821   6.494 -0.1581 -0.1674  0.1935
 3091SOL    HW112678   0.378   4.782   6.580  0.0196  0.6244  0.5253
 3091SOL    HW212679   0.350   4.914   6.512 -0.5139 -0.0686 -0.5980
 3092SOL     OW12680   5.679   4.272   9.576 -0.2591  0.1186  1.2454
 3092SOL    HW112681   5.687   4.210   9.649 -2.4717 -1.4288  0.2640
 3092SOL    HW212682   5.664   4.357   9.617 -1.6995 -0.7726  2.6287
 3093SOL     OW12683   0.719   9.321   7.839 -0.2684  0.1804 -0.1869
 3093SOL    HW112684   0.790   9.313   7.903  0.8253 -0.9514 -1.5077
 3093SOL    HW212685   0.639   9.321   7.891  0.6895  1.4912  1.3358
 3094SOL     OW12686  10.708   1.519   8.682 -0.6357  0.4122 -0.0396
 3094SOL    HW112687  10.655   1.577   8.737  0.2104 -0.0631  1.3114
 3094SOL    HW212688  10.649   1.447   8.660 -0.6169 -0.0475  1.3471
 3095SOL     OW12689   4.160   3.125   2.041  0.2580  0.1202  0.2118
 3095SOL    HW112690   4.239   3.176   2.021  0.7473 -0.9042 -0.5193
 3095SOL    HW212691   4.182   3.078   2.122  0.4249 -0.2180 -0.0294
 3096SOL     OW12692  10.544   7.617   3.175  0.4009  0.2516  0.1184
 3096SOL    HW112693  10.465   7.565   3.158 -0.4351  2.0429 -1.6700
 3096SOL    HW212694  10.514   7.689   3.230  0.9389  0.5504  0.0256
 3097SOL     OW12695   9.566   7.950   1.004 -0.4207 -0.3630 -0.1616
 3097SOL    HW112696   9.546   7.911   0.919  1.5039 -1.7867  0.0092
 3097SOL    HW212697   9.499   7.915   1.062  0.1649 -1.9582 -0.4183
 3098SOL     OW12698   9.220   3.716   5.957 -0.4234  0.1997  0.0749
 3098SOL    HW112699   9.192   3.643   6.013  1.3951 -0.0926  0.6272
 3098SOL    HW212700   9.297   3.683   5.910  2.4897  2.7627  2.7821
 3099SOL     OW12701   2.163   9.623   2.354  0.0952 -0.0562 -0.4446
 3099SOL    HW112702   2.203   9.605   2.440  0.6702  0.2501 -0.6415
 3099SOL    HW212703   2.184   9.546   2.302  0.0961 -0.0688 -0.4257
 3100SOL     OW12704   9.554   3.319   8.287  0.4199  0.3654  0.0176
 3100SOL    HW112705   9.619   3.371   8.241  1.0370 -0.3949  0.0303
 3100SOL    HW212706   9.604   3.270   8.353 -0.1887 -0.0557  0.1720
 3101SOL     OW12707   3.219   5.258  10.193 -0.0339 -0.1125 -0.2735
 3101SOL    HW112708   3.176   5.337  10.227  0.0457 -0.8939  1.7225
 3101SOL    HW212709   3.244   5.209  10.271 -3.8132 -4.1602 -1.3813
 3102SOL     OW12710   8.094   4.652   5.262  0.1889  0.5574 -0.0944
 3102SOL    HW112711   8.133   4.726   5.308  0.2487 -0.2343  1.1356
 3102SOL    HW212712   8.168   4.592   5.246  0.1686  0.8217 -1.2085
 3103SOL     OW12713   1.383   5.682   3.822  0.0616 -0.0657 -0.4267
 3103SOL    HW112714   1.419   5.717   3.741 -0.2620 -1.1043 -1.0315
 3103SOL    HW212715   1.372   5.588   3.805  1.9586 -0.6898  1.5378
 3104SOL     OW12716   7.193   4.509   9.398 -0.0865 -0.1302 -0.4601
 3104SOL    HW112717   7.223   4.489   9.309  1.5412 -2.4361  0.5490
 3104SOL    HW212718   7.161   4.426   9.432  0.9563  0.3236  1.7127
 3105SOL     OW12719   4.882   5.417   1.282  0.3425 -0.3294  0.8655
 3105SOL    HW112720   4.840   5.384   1.361 -0.8804 -0.7222  0.0642
 3105SOL    HW212721   4.847   5.506   1.272 -0.6046 -0.7944 -0.0105
 3106SOL     OW12722   5.574   3.325   5.604 -0.6813  0.2455 -0.0843
 3106SOL    HW112723   5.538   3.413   5.601 -1.6459 -0.1743 -1.8250
 3106SOL    HW212724   5.501   3.271   5.634 -0.4561 -0.1176 -0.1888
 3107SOL     OW12725   0.034   1.306   0.927 -0.0377 -0.6944  0.0137
 3107SOL    HW112726   0.011   1.338   1.014 -1.1674  0.9895 -0.8567
 3107SOL    HW212727   0.127   1.286   0.932  0.1008  0.2346  1.3551
 3108SOL     OW12728  10.815   1.876   0.954  0.1976 -0.6877  0.3685
 3108SOL    HW112729  10.798   1.813   0.884  0.5791 -0.8539  0.4250
 3108SOL    HW212730  10.780   1.835   1.033 -1.0542 -0.1082  0.1274
 3109SOL     OW12731   9.178   0.806  10.678 -0.2494  0.4110  0.1628
 3109SOL    HW112732   9.134   0.722  10.663 -1.9143  0.8468  2.2909
 3109SOL    HW212733   9.268   0.783  10.700 -1.3444 -1.0923  3.4963
 3110SOL     OW12734   3.661   9.434   1.482  0.5468 -0.5305 -0.5371
 3110SOL    HW112735   3.679   9.515   1.435 -1.2242  0.3958  0.3547
 3110SOL    HW212736   3.701   9.446   1.568  2.4000 -1.5986 -1.2137
 3111SOL     OW12737   5.084   6.487   9.738  0.3388  0.0306  1.2312
 3111SOL    HW112738   5.048   6.406   9.774 -1.1016 -0.3435 -0.9658
 3111SOL    HW212739   5.177   6.470   9.728 -0.1336 -1.7806 -0.2748
 3112SOL     OW12740   2.058   0.432   1.927  0.1350 -0.1210  0.1921
 3112SOL    HW112741   2.016   0.484   1.858 -0.3716 -0.7181  0.0390
 3112SOL    HW212742   2.104   0.496   1.981  1.5213  0.2321 -1.3716
 3113SOL     OW12743   3.666   3.783   9.186 -0.0890 -0.5552  0.3241
 3113SOL    HW112744   3.694   3.733   9.110  1.0244 -0.8902  0.9467
 3113SOL    HW212745   3.698   3.872   9.169  3.4183 -1.3902  2.0404
 3114SOL     OW12746   1.909   6.106   9.951  0.4675 -0.0311 -0.2561
 3114SOL    HW112747   1.904   6.188   9.999 -0.0711 -0.2534  0.0666
 3114SOL    HW212748   1.946   6.130   9.866 -0.2853  0.6452 -0.3967
 3115SOL     OW12749   5.811   2.889   7.924  0.1744  0.2388  0.5469
 3115SOL    HW112750   5.823   2.869   7.831  0.1554 -1.2903  0.8552
 3115SOL    HW212751   5.864   2.823   7.969 -1.4392 -0.2949  1.6772
 3116SOL     OW12752   7.392  10.080  10.331  1.1717  0.5808  0.3734
 3116SOL    HW112753   7.476  10.118  10.357  1.1396  0.7897  0.1775
 3116SOL    HW212754   7.327  10.145  10.358  1.0573  0.3288  0.6993
 3117SOL     OW12755   4.383   9.627   7.198 -0.3650 -0.5475 -0.1778
 3117SOL    HW112756   4.322   9.555   7.216 -1.5823  0.3656 -0.5424
 3117SOL    HW212757   4.454   9.587   7.147 -1.8165 -1.1928 -1.7586
 3118SOL     OW12758   3.356   9.420   9.163 -0.8330 -0.5380 -0.1006
 3118SOL    HW112759   3.392   9.372   9.089  0.0717 -1.4038  0.8867
 3118SOL    HW212760   3.279   9.369   9.189 -0.5000 -0.8583  0.2616
 3119SOL     OW12761   1.155   5.694   4.816  0.4219  0.2314 -0.1052
 3119SOL    HW112762   1.139   5.635   4.889  2.9832  1.7100  1.7334
 3119SOL    HW212763   1.199   5.640   4.750 -0.1830 -0.6551  0.2129
 3120SOL     OW12764   5.668  10.106  10.527 -0.3233  0.1022  0.6452
 3120SOL    HW112765   5.646  10.197  10.548 -0.1757  0.5092 -0.9600
 3120SOL    HW212766   5.680  10.064  10.613 -0.2457  1.6214  1.3844
 3121SOL     OW12767  10.202   9.346   1.007  0.0534 -0.4263  0.1442
 3121SOL    HW112768  10.255   9.425   0.996  0.9344 -1.0457 -0.0680
 3121SOL    HW212769  10.241   9.300   1.081  0.5728 -1.5030 -0.7963
 3122SOL     OW12770   3.081   0.178   1.305 -0.7090 -0.2059 -0.2012
 3122SOL    HW112771   3.068   0.248   1.241  1.7477  0.2114 -0.2712
 3122SOL    HW212772   3.133   0.219   1.374  2.9575 -2.6117 -1.4526
 3123SOL     OW12773   2.670   5.784   4.100 -0.0374  0.4390  0.5083
 3123SOL    HW112774   2.613   5.740   4.163  1.3413 -0.4066  1.1595
 3123SOL    HW212775   2.742   5.819   4.152 -0.2736  2.0982 -0.2258
 3124SOL     OW12776   9.669   8.276   1.446 -0.5617  0.1612  0.0415
 3124SOL    HW112777   9.639   8.188   1.424  0.0640 -0.1147  0.2891
 3124SOL    HW212778   9.614   8.303   1.519  1.7396 -1.5048  2.4690
 3125SOL     OW12779   0.928   6.064   2.670 -0.1265 -0.0456  0.5374
 3125SOL    HW112780   0.937   6.124   2.744 -0.0584  1.3001 -0.5498
 3125SOL    HW212781   0.835   6.040   2.669 -0.0554 -0.3679  1.2754
 3126SOL     OW12782   4.262   4.985   7.871 -0.6283 -0.0251  0.5905
 3126SOL    HW112783   4.253   4.922   7.799 -2.5055 -0.6814  1.3625
 3126SOL    HW212784   4.295   5.064   7.829 -1.4994 -0.4652 -0.9720
 3127SOL     OW12785   5.904   5.487   0.921  0.2430 -0.2027 -0.3915
 3127SOL    HW112786   5.867   5.576   0.917 -0.9668 -0.5954  1.4414
 3127SOL    HW212787   5.997   5.501   0.937  0.0291  0.7420  0.0907
 3128SOL     OW12788  10.362   1.626  10.557  0.5275 -0.1544 -0.1337
 3128SOL    HW112789  10.267   1.625  10.549  0.3348  1.0603  1.7328
 3128SOL    HW212790  10.391   1.700  10.505  0.3873 -0.0517 -0.0629
 3129SOL     OW12791   4.325   8.437   2.908 -0.0678  0.0929  0.1300
 3129SOL    HW112792   4.292   8.456   2.996  0.6064  2.2271 -0.0642
 3129SOL    HW212793   4.247   8.440   2.852 -0.3178 -0.1166  0.4633
 3130SOL     OW12794   9.431   1.443   0.092  0.0441 -0.0064 -0.2747
 3130SOL    HW112795   9.375   1.367   0.107 -0.2174 -0.0840 -1.5732
 3130SOL    HW212796   9.520   1.406   0.088 -0.0205 -0.1644 -0.2790
 3131SOL     OW12797   1.097   1.182   4.634  0.0584 -0.3106  0.5477
 3131SOL    HW112798   1.180   1.212   4.596 -0.7881 -0.6146 -1.6368
 3131SOL    HW212799   1.065   1.257   4.684  1.2335  0.0966  0.7011
 3132SOL     OW12800   7.538   2.976  10.423  0.6848  0.2361 -0.1108
 3132SOL    HW112801   7.491   3.038  10.477 -0.8859 -1.1553  0.1483
 3132SOL    HW212802   7.482   2.963  10.347  1.4600 -0.1154 -0.6252
 3133SOL     OW12803   8.650   4.075   2.033  0.3499 -0.0827  0.1119
 3133SOL    HW112804   8.735   4.032   2.023 -0.4196 -1.3682 -1.2119
 3133SOL    HW212805   8.609   4.031   2.107  0.1237 -0.6970 -0.3736
 3134SOL     OW12806   2.105   6.539   7.502  0.3777 -0.2491 -0.1630
 3134SOL    HW112807   2.184   6.499   7.538  1.2309 -0.0697 -1.8152
 3134SOL    HW212808   2.118   6.538   7.407 -1.1241  0.7703 -0.3982
 3135SOL     OW12809   9.678   2.462   3.482  0.3271 -0.1213  0.1105
 3135SOL    HW112810   9.718   2.540   3.518 -0.5546  0.9140 -1.1079
 3135SOL    HW212811   9.726   2.445   3.401 -0.4256  0.0130 -0.3699
 3136SOL     OW12812   5.139   3.529   3.980 -0.2065 -0.0361 -0.2055
 3136SOL    HW112813   5.106   3.587   3.911  0.0070  0.4745  0.1149
 3136SOL    HW212814   5.093   3.446   3.967 -0.4742  0.1947 -0.7023
 3137SOL     OW12815   8.221   2.561   7.547 -0.3542  0.1778  0.5763
 3137SOL    HW112816   8.267   2.612   7.614 -0.0099  2.0707 -1.0725
 3137SOL    HW212817   8.278   2.485   7.533 -0.2537 -0.0636  2.1631
 3138SOL     OW12818  10.206   9.456   8.565  0.1489  0.5248  0.4318
 3138SOL    HW112819  10.173   9.511   8.494 -0.6708  1.7059  1.6853
 3138SOL    HW212820  10.235   9.376   8.523  0.5361  1.5726 -1.3445
 3139SOL     OW12821   6.541   6.460   4.439  0.2266  0.0041 -0.1215
 3139SOL    HW112822   6.490   6.533   4.474 -0.6971 -0.1979 -1.0123
 3139SOL    HW212823   6.618   6.501   4.400 -0.7194  0.6030 -1.3994
 3140SOL     OW12824   6.769   9.934   8.586  0.0144 -0.1339 -0.7129
 3140SOL    HW112825   6.702   9.966   8.645  1.4148  1.2664  0.1716
 3140SOL    HW212826   6.738   9.848   8.557 -1.3489 -0.2143  0.9437
 3141SOL     OW12827   8.467   5.733   4.209 -0.1107 -0.3050  0.0355
 3141SOL    HW112828   8.554   5.744   4.171  1.2710 -2.0584  2.5423
 3141SOL    HW212829   8.480   5.748   4.303 -2.2718 -1.7368  0.5999
 3142SOL     OW12830   2.322   7.782   8.378 -0.5068 -0.2517  0.0092
 3142SOL    HW112831   2.298   7.731   8.455 -0.2107  1.1311  1.0412
 3142SOL    HW212832   2.256   7.759   8.312 -1.1710 -0.9242  0.9023
 3143SOL     OW12833   8.681   5.965   5.258  0.3533 -0.4884 -0.0103
 3143SOL    HW112834   8.753   6.007   5.212  0.8628 -1.4349 -0.0997
 3143SOL    HW212835   8.672   5.880   5.215 -1.1783 -0.1611 -0.3536
 3144SOL     OW12836   0.181  10.904   3.804  0.2568 -0.1360 -0.3875
 3144SOL    HW112837   0.271  10.899   3.834 -0.1342 -0.7899  0.7073
 3144SOL    HW212838   0.186  10.892   3.709  1.3601  0.3441 -0.3888
 3145SOL     OW12839   8.941   1.885   2.497 -0.0850  0.2190  0.0918
 3145SOL    HW112840   8.849   1.859   2.496 -0.1733  0.5403 -0.1744
 3145SOL    HW212841   8.961   1.898   2.590 -0.3479  0.2870  0.1396
 3146SOL     OW12842   6.144   0.697   8.324 -0.1535 -0.1521  0.6104
 3146SOL    HW112843   6.076   0.679   8.259 -0.1866  1.2665  0.2292
 3146SOL    HW212844   6.216   0.638   8.301 -0.3140  0.0692 -0.4978
 3147SOL     OW12845   2.270   1.048   1.126  0.3681  0.4222  0.0216
 3147SOL    HW112846   2.310   1.069   1.210 -0.3994  3.3172 -0.2942
 3147SOL    HW212847   2.216   0.971   1.143  2.4294 -0.7472  1.4857
 3148SOL     OW12848  10.176   3.795   7.348 -0.0136  0.4001 -0.4594
 3148SOL    HW112849  10.100   3.840   7.384 -0.0751  0.5632 -0.7879
 3148SOL    HW212850  10.193   3.840   7.265  1.2759  1.2760  0.2580
 3149SOL     OW12851   7.790   0.625   6.580  0.2234  0.2510  0.3291
 3149SOL    HW112852   7.802   0.667   6.495 -2.1048  0.3121  0.0034
 3149SOL    HW212853   7.876   0.631   6.622  1.3396  0.4424 -1.9036
 3150SOL     OW12854   2.761   1.408   7.903  0.3565 -0.6523  0.4221
 3150SOL    HW112855   2.689   1.353   7.872  0.4648 -1.1832  1.0977
 3150SOL    HW212856   2.763   1.482   7.843 -1.4384 -0.0924  1.0303
 3151SOL     OW12857   5.002   1.471  10.371 -0.1702  0.1301  0.4695
 3151SOL    HW112858   5.078   1.416  10.388  0.1614  1.1683  2.5000
 3151SOL    HW212859   5.036   1.542  10.316  0.2362  0.3413  0.9873
 3152SOL     OW12860   6.672   8.333   7.986  0.6028 -0.9368  0.1502
 3152SOL    HW112861   6.672   8.321   7.891  0.5858 -0.1427  0.0429
 3152SOL    HW212862   6.765   8.333   8.010  0.5434 -3.2908  0.4290
 3153SOL     OW12863   6.737   9.892   3.891  0.1169  0.2854 -0.1306
 3153SOL    HW112864   6.643   9.892   3.910  0.0532  0.1665 -0.4477
 3153SOL    HW212865   6.743   9.902   3.796  0.4210  0.1899 -0.1227
 3154SOL     OW12866   5.440   1.215   2.086  0.0882 -0.1660  0.9773
 3154SOL    HW112867   5.490   1.135   2.072  1.6875  1.2468 -1.7612
 3154SOL    HW212868   5.357   1.201   2.040  0.2453 -0.3492  0.7534
 3155SOL     OW12869   5.438   3.352   2.326  0.1235 -0.2761  0.1426
 3155SOL    HW112870   5.351   3.390   2.311  0.9178  1.5365 -0.0425
 3155SOL    HW212871   5.464   3.318   2.240  0.0262  0.1129 -0.0429
 3156SOL     OW12872   6.245   1.966  10.803  0.0572 -0.1473  0.3586
 3156SOL    HW112873   6.264   1.876  10.776  1.2936  0.2853 -0.1934
 3156SOL    HW212874   6.278   2.021  10.733 -1.4785  0.7185  0.2779
 3157SOL     OW12875   7.960   2.482   7.182  0.2442 -0.3208  0.6633
 3157SOL    HW112876   7.926   2.537   7.253 -3.0031 -0.5148 -0.6385
 3157SOL    HW212877   7.912   2.400   7.190 -0.5034 -0.2103 -1.9366
 3158SOL     OW12878   6.340   4.345   5.613 -0.0551 -0.2506  0.3237
 3158SOL    HW112879   6.354   4.294   5.533  0.0727 -0.2120  0.3205
 3158SOL    HW212880   6.334   4.279   5.682  1.0270 -0.2296  0.4481
 3159SOL     OW12881   3.665   2.577   3.507 -0.1688  0.1228 -0.1182
 3159SOL    HW112882   3.682   2.506   3.569  0.6653 -0.6546 -1.2082
 3159SOL    HW212883   3.584   2.617   3.537  0.3182 -0.1365  1.5700
 3160SOL     OW12884   1.061   8.407   1.867 -0.0886  0.0143  0.3372
 3160SOL    HW112885   1.123   8.460   1.917 -0.6210  1.3112 -0.3188
 3160SOL    HW212886   1.052   8.454   1.784  0.1151 -1.6261 -0.6249
 3161SOL     OW12887   2.807   4.738   5.688 -0.3216  0.1508  0.1342
 3161SOL    HW112888   2.856   4.798   5.744 -1.4213  1.0111  0.1867
 3161SOL    HW212889   2.867   4.666   5.672  0.4928  0.5600  1.2891
 3162SOL     OW12890  10.083   1.341   6.615 -0.4231 -0.1647 -0.0418
 3162SOL    HW112891   9.995   1.311   6.591  0.1527 -2.4320  0.5813
 3162SOL    HW212892  10.086   1.335   6.710  0.5152 -0.3847 -0.0758
 3163SOL     OW12893   8.946   4.061   0.143  0.0049 -0.5039 -0.2395
 3163SOL    HW112894   8.898   4.122   0.089  0.6312 -0.7521 -1.0862
 3163SOL    HW212895   9.012   4.023   0.085 -0.5112 -2.1450  0.2094
 3164SOL     OW12896   2.275   0.685   3.147  0.3416 -0.0224 -0.1482
 3164SOL    HW112897   2.370   0.683   3.153  0.2730 -0.6592  1.0396
 3164SOL    HW212898   2.249   0.594   3.161 -0.4643  0.2414  0.0915
 3165SOL     OW12899   9.938  10.608   5.793  0.3383 -0.5408  0.5230
 3165SOL    HW112900   9.866  10.663   5.762 -0.5111 -1.5382  0.7428
 3165SOL    HW212901   9.896  10.535   5.837  1.4891 -1.0522  0.7828
 3166SOL     OW12902   5.319   7.966   3.345  0.2701  0.1838  0.0873
 3166SOL    HW112903   5.313   8.027   3.272 -1.0030  2.3208  1.9225
 3166SOL    HW212904   5.232   7.926   3.351  0.4597 -0.2099  0.2626
 3167SOL     OW12905   8.400   1.572   5.468  0.1324  0.0968  0.1441
 3167SOL    HW112906   8.492   1.549   5.452  0.2552  0.4391  0.3638
 3167SOL    HW212907   8.373   1.515   5.540 -0.2868 -1.1194 -0.9427
 3168SOL     OW12908   6.445   6.908   8.771  0.0692 -0.3286 -0.2192
 3168SOL    HW112909   6.469   6.817   8.788 -0.5417 -0.2911  0.9207
 3168SOL    HW212910   6.507   6.959   8.822 -0.5215 -0.1592  0.3435
 3169SOL     OW12911   3.821   5.968   8.057  0.0157  0.4605  0.3131
 3169SOL    HW112912   3.884   5.896   8.048 -2.0042 -1.5181  1.6018
 3169SOL    HW212913   3.810   5.979   8.152 -0.6765  1.6222  0.1098
 3170SOL     OW12914   8.137   0.316   8.740  0.3767  0.3990  0.0449
 3170SOL    HW112915   8.129   0.410   8.751  0.5645  0.1857  2.1417
 3170SOL    HW212916   8.169   0.284   8.825 -3.5439 -2.0145  0.7295
 3171SOL     OW12917   3.086   6.808   8.410 -0.0181  0.5690  0.5913
 3171SOL    HW112918   3.179   6.788   8.400 -0.1209 -0.2979  1.3576
 3171SOL    HW212919   3.043   6.723   8.416 -0.8690  0.9616  0.2588
 3172SOL     OW12920   9.603   1.288   6.621  0.3932  0.1500  0.6348
 3172SOL    HW112921   9.513   1.323   6.623  0.2054 -0.2390 -0.6766
 3172SOL    HW212922   9.623   1.269   6.713 -0.5227  1.1227  1.0487
 3173SOL     OW12923   3.974  10.879   1.716  0.0049  0.0113  0.5496
 3173SOL    HW112924   3.954  10.862   1.808  1.7363 -0.6697  0.8078
 3173SOL    HW212925   3.996  10.793   1.680 -0.4004  0.3098 -0.4502
 3174SOL     OW12926   5.755  10.903   4.927  0.3494  0.0597  0.2158
 3174SOL    HW112927   5.668  10.898   4.886 -0.0989 -1.2046  1.2787
 3174SOL    HW212928   5.738  10.933   5.016  1.3088  2.6234 -0.4053
 3175SOL     OW12929   8.804   5.265   2.078 -0.0474 -0.3535 -0.3689
 3175SOL    HW112930   8.868   5.226   2.138  1.5071  0.4109 -1.5163
 3175SOL    HW212931   8.797   5.202   2.007  2.5468  1.4279 -2.2778
 3176SOL     OW12932   6.592   4.953  10.206 -0.4680  0.3939 -0.5548
 3176SOL    HW112933   6.531   4.949  10.279 -0.5113 -0.7379 -0.6325
 3176SOL    HW212934   6.550   4.900  10.138  0.3818  0.0058 -0.7785
 3177SOL     OW12935   9.030   7.904   5.312  0.2069  0.2944  0.0283
 3177SOL    HW112936   9.015   7.979   5.254  1.9415 -0.3489 -1.3004
 3177SOL    HW212937   8.955   7.846   5.295 -0.1091  0.8221 -0.3972
 3178SOL     OW12938   9.888   9.640   7.168 -0.5144  0.0050 -0.1620
 3178SOL    HW112939   9.961   9.677   7.119  0.3527 -1.4883 -0.0083
 3178SOL    HW212940   9.881   9.550   7.138 -2.5498  0.2179 -0.4573
 3179SOL     OW12941  10.180   3.458  10.461 -0.3193  0.1161 -0.2409
 3179SOL    HW112942  10.163   3.435  10.552 -0.3983  0.4901 -0.1614
 3179SOL    HW212943  10.272   3.487  10.460 -0.4742  0.6224 -0.1756
 3180SOL     OW12944   7.688   9.469   3.295 -0.0474  0.6346 -0.0695
 3180SOL    HW112945   7.628   9.463   3.370 -0.3441 -0.9482 -0.4274
 3180SOL    HW212946   7.765   9.419   3.321 -0.0665  0.2555 -0.7380
 3181SOL     OW12947   5.877  10.588   6.628  0.0572  0.0614 -0.1289
 3181SOL    HW112948   5.922  10.660   6.584  1.6042 -0.5860  0.3344
 3181SOL    HW212949   5.901  10.598   6.720  1.3815 -1.7708 -0.2336
 3182SOL     OW12950   2.804   9.521   4.183  0.9706  0.4194  0.3297
 3182SOL    HW112951   2.732   9.483   4.234  2.5338  0.6944  2.8582
 3182SOL    HW212952   2.823   9.604   4.227  0.8760  1.7976 -2.1370
 3183SOL     OW12953   0.155   2.704   1.123 -0.5915 -0.1029 -0.1149
 3183SOL    HW112954   0.135   2.796   1.109 -1.0042 -0.1903 -0.1048
 3183SOL    HW212955   0.234   2.688   1.072  0.1261  0.5369  0.7968
 3184SOL     OW12956  10.767   7.029  10.219 -0.4150  0.5476  0.4687
 3184SOL    HW112957  10.742   6.939  10.199 -0.3197  0.8281 -0.9764
 3184SOL    HW212958  10.860   7.033  10.196 -0.5770  1.1860 -0.0838
 3185SOL     OW12959   5.733   1.272   5.543 -0.1572 -0.2157 -0.6350
 3185SOL    HW112960   5.812   1.287   5.492  0.9631  1.1064  1.4303
 3185SOL    HW212961   5.662   1.273   5.479  1.2967  0.5863 -2.2520
 3186SOL     OW12962   9.548   3.671   0.629 -0.7317  0.2595  0.2121
 3186SOL    HW112963   9.601   3.729   0.683 -1.0879  0.8447 -0.0636
 3186SOL    HW212964   9.480   3.638   0.688 -0.4519  0.0251  0.4011
 3187SOL     OW12965   7.858   3.046   7.787  0.2785 -0.1130  0.7665
 3187SOL    HW112966   7.907   3.081   7.712 -1.5149 -2.7079 -1.7498
 3187SOL    HW212967   7.912   3.067   7.863  3.5698  0.2236 -1.5368
 3188SOL     OW12968   6.029  10.241  10.977  0.5262  0.2680 -0.0282
 3188SOL    HW112969   6.064  10.314  11.027  1.1969 -0.7912  1.0954
 3188SOL    HW212970   6.105  10.206  10.930  0.3112  0.0022 -0.1790
 3189SOL     OW12971   0.797   3.892   1.723 -0.5512  0.1847  0.3358
 3189SOL    HW112972   0.748   3.923   1.799 -0.0340  0.8566  0.3961
 3189SOL    HW212973   0.769   3.801   1.712 -2.9226  0.9858 -0.5375
 3190SOL     OW12974   7.463   8.001   0.534 -0.0037 -0.8657  0.4854
 3190SOL    HW112975   7.471   8.081   0.586  0.1057 -0.2684 -0.4377
 3190SOL    HW212976   7.401   7.947   0.582 -2.1110  0.8607 -0.2394
 3191SOL     OW12977   9.897   7.453   3.788  0.7730 -0.0911 -0.2378
 3191SOL    HW112978   9.924   7.426   3.701 -0.3737 -0.6533 -0.4346
 3191SOL    HW212979   9.912   7.377   3.843 -0.4828 -0.4551 -0.3757
 3192SOL     OW12980   5.224   0.154   6.930 -0.0818 -0.2625 -0.8426
 3192SOL    HW112981   5.221   0.082   6.867  2.4122 -0.0302 -1.3148
 3192SOL    HW212982   5.300   0.134   6.985 -2.4850 -0.6891  2.4309
 3193SOL     OW12983   6.055  10.484   5.897 -0.4580  0.7074  0.2969
 3193SOL    HW112984   6.127  10.499   5.959 -0.1888  1.4922 -0.1990
 3193SOL    HW212985   6.067  10.394   5.867 -1.0999  0.0080  2.0467
 3194SOL     OW12986   3.277   2.297   8.222  0.2481 -0.1411 -0.1636
 3194SOL    HW112987   3.257   2.205   8.208 -1.1155  0.1099  0.0903
 3194SOL    HW212988   3.332   2.322   8.147  0.3848 -1.0740 -0.3724
 3195SOL     OW12989   9.387  10.294   0.898 -0.0498 -0.2140  0.1837
 3195SOL    HW112990   9.448  10.221   0.892 -0.9212 -1.0739  1.6445
 3195SOL    HW212991   9.301  10.256   0.880 -0.7560  0.0453  2.7989
 3196SOL     OW12992   2.025   8.869  10.746  0.0433  0.0761  0.6199
 3196SOL    HW112993   2.016   8.880  10.840 -2.1124 -2.2392  0.7074
 3196SOL    HW212994   1.936   8.870  10.712  0.7038 -0.6790 -1.2290
 3197SOL     OW12995   7.217   7.605   2.959  0.1558  0.5120  0.2154
 3197SOL    HW112996   7.134   7.558   2.951 -0.4889  1.9540 -2.1341
 3197SOL    HW212997   7.239   7.599   3.051 -2.0690 -0.7306  0.7090
 3198SOL     OW12998   3.916   7.993   4.428 -0.1569  0.1352  0.4249
 3198SOL    HW112999   3.944   7.903   4.410 -0.0593  0.2246  0.1226
 3198SOL    HW213000   3.997   8.044   4.423 -0.0471  0.0929  1.5927
 3199SOL     OW13001   4.557   1.491   3.623 -0.6523  0.2024 -0.4648
 3199SOL    HW113002   4.529   1.563   3.681 -1.3607 -0.6295  0.2468
 3199SOL    HW213003   4.650   1.480   3.643 -0.5098  0.9903 -0.6590
 3200SOL     OW13004   4.146   9.145   1.362 -0.7174 -0.0829  0.5722
 3200SOL    HW113005   4.085   9.114   1.428  0.3542  1.6084  2.4015
 3200SOL    HW213006   4.156   9.238   1.380  0.7693  0.0942 -1.0221
 3201SOL     OW13007   2.181   1.645  10.206 -0.5911  0.1972  0.1104
 3201SOL    HW113008   2.187   1.739  10.185  0.3246 -0.0154 -0.5964
 3201SOL    HW213009   2.261   1.627  10.256 -0.9048 -0.1462  0.4868
 3202SOL     OW13010   4.333   7.319   3.388  0.4227  0.2282 -0.4733
 3202SOL    HW113011   4.276   7.244   3.370  1.9534 -1.0813 -0.0289
 3202SOL    HW213012   4.283   7.373   3.448 -0.4101 -0.8623 -0.1698
 3203SOL     OW13013   7.211   1.872   1.021 -0.3631 -1.0845 -0.1469
 3203SOL    HW113014   7.133   1.906   0.978 -0.7378 -1.8200 -0.0677
 3203SOL    HW213015   7.252   1.815   0.955  0.9313  0.4786 -0.7111
 3204SOL     OW13016  10.813   1.536   8.421  0.9554  0.2846 -0.0399
 3204SOL    HW113017  10.785   1.519   8.511 -0.4595 -0.4747 -0.6069
 3204SOL    HW213018  10.879   1.470   8.403  2.8633  1.8078  1.1608
 3205SOL     OW13019   8.308   4.048   0.741  0.0135  0.3070 -0.1780
 3205SOL    HW113020   8.290   3.958   0.768  0.3601  0.3707  0.2705
 3205SOL    HW213021   8.397   4.045   0.705  0.5273  0.7233  1.0376
 3206SOL     OW13022   8.426   9.385   9.618  0.7118  0.5549  0.8125
 3206SOL    HW113023   8.365   9.358   9.687  1.4927  0.1552  1.3488
 3206SOL    HW213024   8.486   9.311   9.608  0.7517  0.7088 -0.1305
 3207SOL     OW13025   8.886   7.733   9.688  0.3309 -0.2692 -0.4103
 3207SOL    HW113026   8.909   7.754   9.779  1.7596 -1.6437 -0.4140
 3207SOL    HW213027   8.791   7.728   9.688  0.3805 -2.5070  1.5785
 3208SOL     OW13028   9.852   5.849   6.237 -0.3660 -0.1509 -0.2275
 3208SOL    HW113029   9.855   5.762   6.198 -1.3007 -0.8369  1.1868
 3208SOL    HW213030   9.759   5.865   6.251 -0.0147 -0.1526  2.1937
 3209SOL     OW13031  10.770   0.978   0.629 -0.2967  0.3888  0.2261
 3209SOL    HW113032  10.787   0.886   0.649  0.2027  0.4636  0.1523
 3209SOL    HW213033  10.679   0.980   0.602 -0.6090  0.0768  1.2257
 3210SOL     OW13034   5.716   9.074   6.525 -0.0005  0.3047 -0.1365
 3210SOL    HW113035   5.706   9.164   6.556  0.5538  0.6688 -0.9900
 3210SOL    HW213036   5.802   9.073   6.482 -1.0854  0.0176 -2.3446
 3211SOL     OW13037   2.551   7.571   8.089  0.0094 -0.0687  0.1168
 3211SOL    HW113038   2.621   7.573   8.155 -0.2920 -1.6808  0.4970
 3211SOL    HW213039   2.583   7.511   8.022 -0.3941  0.3121 -0.4212
 3212SOL     OW13040   2.492   8.190  10.433 -0.0559  0.1611  0.1722
 3212SOL    HW113041   2.461   8.271  10.474  1.4329  1.1632 -0.6401
 3212SOL    HW213042   2.462   8.121  10.492  0.7306  1.4750  2.1688
 3213SOL     OW13043   1.703   1.323   6.507  0.6463  0.2784  0.3533
 3213SOL    HW113044   1.673   1.295   6.593  1.6122 -1.4829  0.1399
 3213SOL    HW213045   1.780   1.378   6.525 -0.1534  1.2921  0.6869
 3214SOL     OW13046   4.280   6.750   7.621 -0.2272 -0.3139 -0.0744
 3214SOL    HW113047   4.190   6.736   7.591 -0.2014 -0.8171  0.0841
 3214SOL    HW213048   4.273   6.754   7.717 -0.1620  0.2588 -0.0907
 3215SOL     OW13049   7.442   1.047   8.860  0.0201  0.5515 -0.1907
 3215SOL    HW113050   7.384   0.971   8.862  0.5437  0.1528 -0.0006
 3215SOL    HW213051   7.390   1.117   8.820 -0.3930  0.0337 -0.5524
 3216SOL     OW13052   4.870   5.596   2.552  0.1877 -0.7183  0.0433
 3216SOL    HW113053   4.966   5.601   2.549  0.1405  0.0283 -0.1420
 3216SOL    HW213054   4.851   5.505   2.529  0.9052 -1.2265  1.3747
 3217SOL     OW13055   3.503   6.148   5.705 -0.1555  0.3178 -0.8026
 3217SOL    HW113056   3.542   6.061   5.700  0.8780  0.7371 -0.3205
 3217SOL    HW213057   3.534   6.193   5.626  0.6417  0.7613 -0.2499
 3218SOL     OW13058   6.642  10.155   7.792  0.6097 -0.6503  0.7987
 3218SOL    HW113059   6.703  10.220   7.824 -0.2981  0.6351 -0.0208
 3218SOL    HW213060   6.661  10.148   7.698 -0.7371  0.0486  0.4564
 3219SOL     OW13061   9.623   5.370   6.306 -0.2667 -0.5593  0.6031
 3219SOL    HW113062   9.674   5.412   6.238 -0.4410 -0.7361  0.3610
 3219SOL    HW213063   9.574   5.301   6.261 -0.5532 -0.5325  0.8664
 3220SOL     OW13064   5.509  10.837   6.886  0.0436  0.1053 -0.9854
 3220SOL    HW113065   5.433  10.853   6.829 -0.3861  0.4716 -0.3250
 3220SOL    HW213066   5.549  10.758   6.852 -2.0975 -1.5282  0.1768
 3221SOL     OW13067   4.029   7.921   9.218 -0.5508  0.0954  0.2119
 3221SOL    HW113068   4.034   7.947   9.310 -0.2297 -0.4259  0.3453
 3221SOL    HW213069   4.104   7.862   9.206  0.5420  1.6555 -0.8657
 3222SOL     OW13070   0.268   5.650   5.444 -0.6692 -0.0346  0.6062
 3222SOL    HW113071   0.198   5.688   5.392 -2.0728 -1.7787  1.1681
 3222SOL    HW213072   0.287   5.567   5.401  0.1359 -0.1819  1.2292
 3223SOL     OW13073  10.186   4.293   5.944  0.2371  0.0739  0.4898
 3223SOL    HW113074  10.210   4.246   6.024 -0.8233 -1.3569 -0.0109
 3223SOL    HW213075  10.095   4.320   5.958 -0.4858 -1.5650 -0.8451
 3224SOL     OW13076   5.805   0.972  10.010  0.6078  0.1839 -0.1571
 3224SOL    HW113077   5.814   0.877  10.013 -0.1755 -0.1700 -5.0545
 3224SOL    HW213078   5.713   0.987   9.986  0.8927  2.1432 -0.1249
 3225SOL     OW13079   8.026  10.301   4.494  0.0075  0.6562 -0.4778
 3225SOL    HW113080   8.061  10.266   4.412  0.4207  0.9856 -0.4480
 3225SOL    HW213081   8.102  10.303   4.553 -0.4706 -0.3657  0.1776
 3226SOL     OW13082   7.588   5.715   9.325  0.0469 -0.2716  0.2004
 3226SOL    HW113083   7.532   5.688   9.252  2.0322 -4.4804  0.1141
 3226SOL    HW213084   7.673   5.733   9.284 -0.3073  2.9824  0.7632
 3227SOL     OW13085   8.161   2.907   5.100 -0.1911  0.5239  0.2193
 3227SOL    HW113086   8.193   2.978   5.044 -0.5681 -0.2908 -1.0436
 3227SOL    HW213087   8.066   2.919   5.102 -0.7086 -2.1562 -3.1661
 3228SOL     OW13088   0.169   7.511   1.926  0.3598 -0.3645  1.1738
 3228SOL    HW113089   0.087   7.537   1.883  0.3294 -1.1610  0.7412
 3228SOL    HW213090   0.200   7.436   1.875  1.2355 -0.2161  1.4825
 3229SOL     OW13091   4.336   6.179   9.801  0.2751  0.1042 -0.6279
 3229SOL    HW113092   4.410   6.230   9.836 -0.0458 -0.2320  0.5634
 3229SOL    HW213093   4.350   6.091   9.835  0.0315 -0.2661 -1.4876
 3230SOL     OW13094   3.645   6.771   4.276  0.1084  0.1372  0.0617
 3230SOL    HW113095   3.708   6.825   4.229 -0.5626  1.3716  0.5610
 3230SOL    HW213096   3.626   6.820   4.356 -1.2948 -0.3299  0.0258
 3231SOL     OW13097   6.291   5.154   8.717  0.1488  0.0566  0.5158
 3231SOL    HW113098   6.229   5.209   8.669  0.1554  0.4241  0.9228
 3231SOL    HW213099   6.247   5.070   8.726 -0.2578  0.2890  0.7201
 3232SOL     OW13100   6.264   7.696   8.138 -0.2514 -0.0354  0.5632
 3232SOL    HW113101   6.350   7.686   8.098 -0.8917  0.4906 -0.9558
 3232SOL    HW213102   6.255   7.790   8.154 -0.7519 -0.0354  0.2747
 3233SOL     OW13103   3.200   6.379   9.495  0.6555  0.4071  0.2855
 3233SOL    HW113104   3.278   6.413   9.450  1.3563 -0.2907  0.9315
 3233SOL    HW213105   3.204   6.284   9.479 -1.0179  0.5643 -1.1242
 3234SOL     OW13106  10.952   3.960   4.304 -0.2614 -0.2778 -0.5697
 3234SOL    HW113107  10.896   3.940   4.230  0.5056 -0.9646 -0.9759
 3234SOL    HW213108  10.975   4.053   4.293 -2.2086  0.3217  0.2226
 3235SOL     OW13109  10.422   6.896   9.110  0.3191  0.1628  0.4696
 3235SOL    HW113110  10.369   6.825   9.147  0.3069  1.2967  2.7118
 3235SOL    HW213111  10.506   6.889   9.154  0.6830  0.8893 -0.0959
 3236SOL     OW13112   6.279   7.505   9.935  0.0223 -0.1542 -0.2068
 3236SOL    HW113113   6.308   7.554   9.858 -0.6674 -0.1624 -0.4757
 3236SOL    HW213114   6.274   7.414   9.905 -3.8615  0.3060 -1.2581
 3237SOL     OW13115   1.423   8.308   3.926  0.4625 -0.4167 -0.5165
 3237SOL    HW113116   1.338   8.278   3.892 -0.8499  1.5666  0.8932
 3237SOL    HW213117   1.443   8.386   3.873  0.5498  0.1181  0.3012
 3238SOL     OW13118   6.263   9.774   9.908 -0.5880  0.3920  0.5823
 3238SOL    HW113119   6.350   9.811   9.895 -0.2475 -0.0655  1.5527
 3238SOL    HW213120   6.208   9.821   9.845  0.6790 -0.5033 -1.2764
 3239SOL     OW13121   2.959   0.016   8.851  0.9441 -0.6608  0.4954
 3239SOL    HW113122   2.965   0.030   8.946  0.9201 -1.0008  0.5471
 3239SOL    HW213123   2.977  -0.077   8.839  0.1569 -0.7870  0.2385
 3240SOL     OW13124  10.757  10.443   5.852 -0.3089 -0.0728  0.3405
 3240SOL    HW113125  10.686  10.431   5.789 -0.0826 -1.7110  0.3764
 3240SOL    HW213126  10.731  10.390   5.927  0.1847  0.6128  0.9905
 3241SOL     OW13127   6.822   0.646   8.901  0.2907 -0.5640 -0.4997
 3241SOL    HW113128   6.784   0.608   8.980  1.9887  0.0382  0.6465
 3241SOL    HW213129   6.834   0.739   8.922  1.7883 -0.6164 -1.0195
 3242SOL     OW13130   6.121   6.742   1.964  0.1413 -1.0079  0.3292
 3242SOL    HW113131   6.053   6.806   1.941 -0.9471 -2.3687 -0.3080
 3242SOL    HW213132   6.166   6.781   2.039 -1.1550  0.0477  0.5853
 3243SOL     OW13133  10.509   3.028   0.356  0.6831  0.1108 -0.0587
 3243SOL    HW113134  10.485   2.940   0.385  0.8154  0.5300  1.3765
 3243SOL    HW213135  10.470   3.086   0.421  2.2282  1.0080  0.1010
 3244SOL     OW13136   9.568   6.740   9.033  0.0631 -0.5500 -0.3698
 3244SOL    HW113137   9.527   6.689   9.103 -1.6144  1.0562 -0.1447
 3244SOL    HW213138   9.650   6.694   9.015 -0.2441 -1.9067  1.5264
 3245SOL     OW13139   8.970   2.021   3.661 -0.0268 -0.7342 -0.2201
 3245SOL    HW113140   8.981   1.942   3.714 -1.0911 -1.0426 -0.4356
 3245SOL    HW213141   8.913   2.077   3.714  0.1162 -0.4230 -0.3938
 3246SOL     OW13142   6.597   4.672   4.807 -0.5692 -0.0832 -0.0541
 3246SOL    HW113143   6.588   4.592   4.755 -0.7571  0.0428 -0.2159
 3246SOL    HW213144   6.538   4.734   4.765 -1.5257 -0.2966  0.9374
 3247SOL     OW13145   5.802   1.860   6.036  0.0183 -0.2009  0.6503
 3247SOL    HW113146   5.741   1.794   6.069 -0.1576 -0.7332 -0.7216
 3247SOL    HW213147   5.766   1.943   6.067 -0.9049 -0.5804  0.6215
 3248SOL     OW13148   6.528   5.251   7.964  0.2594  0.2864  0.0998
 3248SOL    HW113149   6.440   5.267   7.928  0.8551  0.6086 -1.2605
 3248SOL    HW213150   6.537   5.315   8.035 -0.7587 -0.0215  0.5138
 3249SOL     OW13151   8.876   9.060   3.103  0.1445  0.3105 -0.1838
 3249SOL    HW113152   8.811   9.113   3.151 -0.9959  0.3741 -1.7613
 3249SOL    HW213153   8.847   9.064   3.012  0.1446 -2.9188 -0.3587
 3250SOL     OW13154   3.897   2.617   6.767 -0.4416 -0.5858  0.0197
 3250SOL    HW113155   3.872   2.525   6.780  0.4863 -1.0645 -1.3707
 3250SOL    HW213156   3.992   2.617   6.776 -0.5419  0.4518  1.1354
 3251SOL     OW13157   5.454   4.579   9.465 -0.0791  0.0102  0.2280
 3251SOL    HW113158   5.393   4.580   9.391  1.2372  0.3428 -0.8704
 3251SOL    HW213159   5.537   4.550   9.427  0.9952  1.6572  1.2620
 3252SOL     OW13160   7.310   5.329   9.251  0.1713  0.5089  0.0306
 3252SOL    HW113161   7.342   5.250   9.295  0.3129  0.7203  0.3102
 3252SOL    HW213162   7.227   5.302   9.211  0.6448 -0.0214 -0.6190
 3253SOL     OW13163   7.385   9.638   2.957  0.1002  0.3795 -0.0324
 3253SOL    HW113164   7.358   9.643   3.049  0.2777  0.4544  0.0171
 3253SOL    HW213165   7.304   9.644   2.908 -0.0839 -0.5584  0.1389
 3254SOL     OW13166   8.046   2.520   5.010  1.0872 -0.1304 -0.0847
 3254SOL    HW113167   8.045   2.614   4.993  0.6612 -0.1990 -0.4532
 3254SOL    HW213168   8.092   2.482   4.935 -0.5655 -0.4078 -0.9935
 3255SOL     OW13169   6.626   7.640  10.759 -0.1090  0.5070  0.0769
 3255SOL    HW113170   6.595   7.722  10.798  1.1263  0.3814  1.3686
 3255SOL    HW213171   6.721   7.643  10.769 -0.0896 -1.3218  0.6369
 3256SOL     OW13172   1.787   9.786  10.669 -0.4057 -0.6809  0.7366
 3256SOL    HW113173   1.789   9.795  10.765  0.2050 -2.4494  0.8979
 3256SOL    HW213174   1.694   9.777  10.648 -0.5681 -0.0021  1.1174
 3257SOL     OW13175   1.235   1.054   1.042 -0.7929  0.1796 -0.0548
 3257SOL    HW113176   1.267   1.141   1.061 -2.2997  1.0100 -1.1323
 3257SOL    HW213177   1.252   1.042   0.948  1.9166 -1.7989  0.6367
 3258SOL     OW13178   4.747   7.648   6.479  0.6749 -0.5367 -0.1116
 3258SOL    HW113179   4.812   7.617   6.416  0.5798  0.9265 -0.9592
 3258SOL    HW213180   4.699   7.716   6.432 -0.5152 -0.6012  0.9913
 3259SOL     OW13181   2.989   9.194   0.846  0.5088 -0.0253 -0.2045
 3259SOL    HW113182   2.974   9.203   0.940 -2.3496 -0.8241 -0.5608
 3259SOL    HW213183   3.077   9.230   0.833  0.5832  0.9419  2.6226
 3260SOL     OW13184   8.513   3.668   5.306 -0.3847 -0.0797 -0.2180
 3260SOL    HW113185   8.544   3.614   5.378  0.9313 -1.1149 -1.5170
 3260SOL    HW213186   8.518   3.758   5.339 -0.2018 -0.5684  1.1126
 3261SOL     OW13187   6.971   2.324   0.823 -0.6469 -0.0634  0.3959
 3261SOL    HW113188   7.050   2.378   0.833  0.6244 -1.6033 -1.0278
 3261SOL    HW213189   6.952   2.327   0.730 -0.7954 -1.7385  0.3628
 3262SOL     OW13190   4.035   6.383  10.584  0.1635 -0.5215  0.2990
 3262SOL    HW113191   4.002   6.295  10.571  0.4981 -0.5196 -0.6207
 3262SOL    HW213192   4.020   6.428  10.500  1.0285 -0.0543  0.3812
 3263SOL     OW13193   9.397   3.011   8.296 -0.5159 -0.3819 -0.4798
 3263SOL    HW113194   9.379   2.944   8.230  1.0379  0.5979 -1.9557
 3263SOL    HW213195   9.477   2.981   8.339 -0.6762 -0.2537 -0.0912
 3264SOL     OW13196   4.737   7.736   4.478 -0.3809  0.9383  0.2835
 3264SOL    HW113197   4.763   7.823   4.448 -2.7722  1.5863 -0.0415
 3264SOL    HW213198   4.664   7.753   4.539 -1.5132 -0.8757 -0.5432
 3265SOL     OW13199   7.214   8.259   3.912  0.0404  0.2566  0.2528
 3265SOL    HW113200   7.285   8.238   3.852  0.6453 -1.1232  1.4234
 3265SOL    HW213201   7.205   8.181   3.967 -2.3530  0.4057  0.1600
 3266SOL     OW13202  10.898   3.630   3.698 -0.2885  0.4446  0.2473
 3266SOL    HW113203  10.859   3.543   3.693  0.9628 -0.1656  0.7724
 3266SOL    HW213204  10.891   3.665   3.609 -0.1597 -0.4864 -0.1380
 3267SOL     OW13205   0.317   5.476   4.923  0.4763 -0.5995 -0.5149
 3267SOL    HW113206   0.243   5.504   4.976  1.1486 -0.4892  0.3769
 3267SOL    HW213207   0.278   5.433   4.847 -0.4821 -1.2227  0.3334
 3268SOL     OW13208   9.976   4.303   2.180 -0.6370 -0.2224  0.0007
 3268SOL    HW113209  10.040   4.231   2.181 -3.1836 -2.5518  1.8153
 3268SOL    HW213210   9.944   4.305   2.090  0.9481  0.0158 -0.5681
 3269SOL     OW13211  10.504   1.309   7.419 -0.5415  0.1681 -0.1413
 3269SOL    HW113212  10.577   1.256   7.387 -0.3092 -0.2638  1.0915
 3269SOL    HW213213  10.517   1.395   7.378  0.4343 -0.0267 -0.2455
 3270SOL     OW13214   1.225   9.919   1.035 -0.0447  0.0892  0.1718
 3270SOL    HW113215   1.225   9.839   0.984  0.4426 -0.2472  0.6976
 3270SOL    HW213216   1.298   9.970   1.002 -0.9861  0.7888 -0.8814
 3271SOL     OW13217   0.818   9.727   0.536 -0.1402 -0.2500  0.3780
 3271SOL    HW113218   0.786   9.690   0.454  0.8308 -0.5730  0.1421
 3271SOL    HW213219   0.756   9.696   0.602 -0.5729 -0.4939 -0.1363
 3272SOL     OW13220   2.556   5.244   6.488 -0.4259  0.0931 -0.3702
 3272SOL    HW113221   2.472   5.247   6.533 -0.1651  0.3932  0.0980
 3272SOL    HW213222   2.601   5.324   6.514  0.8348 -1.0232  1.0259
 3273SOL     OW13223   9.181   3.961   5.911  0.0103  0.1544  0.3069
 3273SOL    HW113224   9.110   3.990   5.969 -0.7125 -1.0775  0.0578
 3273SOL    HW213225   9.194   3.869   5.933 -0.4001 -0.3868 -1.5976
 3274SOL     OW13226   5.759   4.027   6.179  0.0340  0.0502 -0.0193
 3274SOL    HW113227   5.733   3.939   6.151 -0.3651  0.0635  0.3136
 3274SOL    HW213228   5.739   4.083   6.104  0.2674 -0.1383 -0.2224
 3275SOL     OW13229   0.219   0.669   7.465 -0.4156 -0.6557 -0.2470
 3275SOL    HW113230   0.314   0.658   7.472 -0.4535 -0.6746  0.2663
 3275SOL    HW213231   0.208   0.748   7.412 -0.1257 -1.4827 -1.5771
 3276SOL     OW13232   8.292  10.155   1.177  0.3782 -0.2989  0.0917
 3276SOL    HW113233   8.299  10.063   1.152 -0.6888 -0.3441 -0.0489
 3276SOL    HW213234   8.235  10.194   1.111  1.4081  0.6334 -0.2660
 3277SOL     OW13235  10.926   2.632   2.421 -0.1287 -0.5932 -0.2874
 3277SOL    HW113236  10.992   2.595   2.480  0.4691 -0.4890 -0.8860
 3277SOL    HW213237  10.972   2.644   2.338 -1.3156 -1.9837 -1.1694
 3278SOL     OW13238  10.423  10.050   0.132 -0.4766 -0.2769  0.1910
 3278SOL    HW113239  10.386   9.964   0.114 -0.7076 -0.2344  0.4855
 3278SOL    HW213240  10.386  10.106   0.064  1.6114 -0.9352 -1.5606
 3279SOL     OW13241   5.517   2.815   7.143  0.5431  0.2469 -0.1360
 3279SOL    HW113242   5.555   2.891   7.098 -0.1555 -0.1291 -1.3918
 3279SOL    HW213243   5.530   2.834   7.236  2.4091  0.8324 -0.4927
 3280SOL     OW13244   5.317   9.036   0.600 -0.5469 -0.0843 -0.1112
 3280SOL    HW113245   5.344   9.127   0.589  0.8425 -0.5735 -1.0549
 3280SOL    HW213246   5.303   9.005   0.510 -0.9117 -0.8149  0.1993
 3281SOL     OW13247   0.390   3.833   5.207 -0.4612  0.1862 -0.0233
 3281SOL    HW113248   0.457   3.883   5.160 -0.0714 -0.2938  0.0162
 3281SOL    HW213249   0.320   3.896   5.223  0.7255  1.1675  1.4782
 3282SOL     OW13250   8.550   7.337  10.376  0.3267  0.0212 -0.1827
 3282SOL    HW113251   8.463   7.316  10.411  0.6877  2.1946  2.1635
 3282SOL    HW213252   8.609   7.279  10.424  0.2194 -1.3940 -1.7152
 3283SOL     OW13253   0.824   2.242   9.056 -0.3245  0.2766  0.2505
 3283SOL    HW113254   0.855   2.205   9.139  0.2374  0.8764  0.3111
 3283SOL    HW213255   0.792   2.166   9.007  2.9319 -0.6697 -0.5643
 3284SOL     OW13256   4.083  10.720   8.236 -0.0169 -0.0769  0.2867
 3284SOL    HW113257   4.115  10.631   8.224 -1.5582 -0.5641 -0.3754
 3284SOL    HW213258   4.129  10.771   8.170  1.2296 -0.2776  0.9809
 3285SOL     OW13259  10.976   7.201  10.562 -1.0323 -0.1173  0.4552
 3285SOL    HW113260  10.919   7.251  10.621 -0.1662 -1.6556  2.6870
 3285SOL    HW213261  11.034   7.266  10.523 -0.7143  0.8022  2.3961
 3286SOL     OW13262   6.259   1.388   0.214 -0.1202  0.1818  0.5085
 3286SOL    HW113263   6.342   1.400   0.167 -0.3064  2.2352  0.6687
 3286SOL    HW213264   6.205   1.337   0.154 -0.0449  2.0175 -1.1662
 3287SOL     OW13265   4.970   1.305   4.744 -0.0726 -0.0892  0.0486
 3287SOL    HW113266   5.009   1.242   4.683 -0.2728 -0.0674 -0.1036
 3287SOL    HW213267   4.940   1.376   4.688  1.1857  0.6844  0.3324
 3288SOL     OW13268   6.906   3.766   7.949 -0.0107  0.1148 -0.2542
 3288SOL    HW113269   6.837   3.785   8.013  0.6920 -0.8549  0.7933
 3288SOL    HW213270   6.946   3.685   7.979  1.3563  0.4665 -1.0650
 3289SOL     OW13271   2.728   3.825   7.701  0.1477  0.1710  0.0492
 3289SOL    HW113272   2.743   3.866   7.615 -3.3518  0.9314 -0.2857
 3289SOL    HW213273   2.755   3.892   7.764 -2.2874  1.7568 -0.5123
 3290SOL     OW13274   0.362   0.564  10.726  0.1365 -1.1648  0.5722
 3290SOL    HW113275   0.376   0.491  10.666  1.1462 -0.0404 -0.5700
 3290SOL    HW213276   0.320   0.632  10.673  0.8097 -0.2585  1.1898
 3291SOL     OW13277   9.552   1.336   6.090 -0.0399  0.0804  0.0778
 3291SOL    HW113278   9.479   1.374   6.140 -0.1515  0.1571 -0.1464
 3291SOL    HW213279   9.565   1.397   6.017  0.0402 -0.1059 -0.0619
 3292SOL     OW13280  10.284   5.219  10.740  0.4344  0.3946  0.3664
 3292SOL    HW113281  10.191   5.197  10.753  0.7147 -0.2397  1.4424
 3292SOL    HW213282  10.302   5.194  10.650 -0.2573 -0.1981  0.3801
 3293SOL     OW13283   4.044   1.177   1.748 -0.3602  0.2215  0.0110
 3293SOL    HW113284   4.124   1.136   1.784  1.1331  0.5202 -2.8158
 3293SOL    HW213285   3.999   1.105   1.704  0.2303  0.7824 -1.5292
 3294SOL     OW13286   5.484   7.325   4.326  0.2871 -0.3097 -0.3419
 3294SOL    HW113287   5.472   7.249   4.270  0.2572  0.2884 -1.1551
 3294SOL    HW213288   5.482   7.400   4.266  0.2419  0.3369  0.4550
 3295SOL     OW13289   9.124   1.146   5.615 -0.1491  0.6195 -0.2706
 3295SOL    HW113290   9.163   1.064   5.646  1.5665  1.5240  0.0128
 3295SOL    HW213291   9.058   1.118   5.552 -1.0578 -1.0669  1.3814
 3296SOL     OW13292  10.419   4.982   7.269 -0.0272  0.0296  0.3448
 3296SOL    HW113293  10.458   5.050   7.323  0.3720  0.0548  0.0236
 3296SOL    HW213294  10.325   4.999   7.273  0.0200  0.1855  0.8232
 3297SOL     OW13295   3.948   9.907  10.686 -0.1758 -0.2925 -0.2512
 3297SOL    HW113296   3.955   9.943  10.597  3.1538 -2.1448 -0.8273
 3297SOL    HW213297   3.987   9.973  10.742  2.9947 -1.5200 -0.9206
 3298SOL     OW13298   2.789   1.614   1.486  0.6333 -0.3790  0.4171
 3298SOL    HW113299   2.851   1.610   1.414 -0.6906 -0.2221 -0.7537
 3298SOL    HW213300   2.753   1.703   1.482 -0.1236 -0.6640  0.6862
 3299SOL     OW13301   7.774   2.804   3.358  0.4703 -0.1490  0.5154
 3299SOL    HW113302   7.853   2.749   3.359  0.0559 -0.8172 -1.9646
 3299SOL    HW213303   7.723   2.772   3.284  0.7596  4.3149 -1.7549
 3300SOL     OW13304   9.281   2.943   1.896 -0.4891 -0.5363 -0.0203
 3300SOL    HW113305   9.258   2.888   1.972  1.2635  1.1370  1.7746
 3300SOL    HW213306   9.368   2.913   1.871  0.5596  1.5229  1.0939
 3301SOL     OW13307   9.033   7.621  10.252 -0.2695  0.6912  0.3270
 3301SOL    HW113308   9.044   7.557  10.322  0.6319  2.3032  1.6894
 3301SOL    HW213309   8.943   7.654  10.264 -1.7904 -2.3360 -2.1501
 3302SOL     OW13310   2.008   7.901  10.421  0.4502  0.4937  0.4625
 3302SOL    HW113311   2.054   7.855  10.491  0.1148 -0.5895 -0.0103
 3302SOL    HW213312   1.974   7.831  10.365 -1.2115  1.2733  0.4541
 3303SOL     OW13313   2.297   3.821   2.319 -0.5218  0.0686 -0.2972
 3303SOL    HW113314   2.384   3.824   2.279 -0.6902  0.4465 -0.6361
 3303SOL    HW213315   2.289   3.732   2.353 -0.3829 -0.2556 -1.1176
 3304SOL     OW13316   0.162   1.273   3.437  0.2580  0.5335  0.0194
 3304SOL    HW113317   0.169   1.364   3.409 -1.3676  0.6029 -0.2310
 3304SOL    HW213318   0.068   1.260   3.451  0.4107 -1.2827 -0.5593
 3305SOL     OW13319   0.199   6.229   4.307  0.2760  0.1751 -0.3912
 3305SOL    HW113320   0.157   6.268   4.384 -0.4771  0.4622 -0.9383
 3305SOL    HW213321   0.266   6.293   4.281  1.1505 -0.3428  0.5594
 3306SOL     OW13322  10.687   7.677   8.226  0.2420 -0.2815 -0.2745
 3306SOL    HW113323  10.746   7.615   8.183  1.0166  0.1626  0.1267
 3306SOL    HW213324  10.722   7.763   8.203 -0.4206 -0.0102 -0.2653
 3307SOL     OW13325   9.081   6.327   5.937 -0.6159 -0.4580  0.0711
 3307SOL    HW113326   9.047   6.249   5.980  1.5743 -1.2131  0.5063
 3307SOL    HW213327   9.070   6.308   5.843  0.1649 -1.4345  0.1612
 3308SOL     OW13328   7.309   2.158   2.965 -0.3578  0.4167  0.3259
 3308SOL    HW113329   7.235   2.204   2.924 -0.6706  0.3734  0.8457
 3308SOL    HW213330   7.384   2.178   2.908 -1.2907 -1.7673 -1.7599
 3309SOL     OW13331   0.250   9.166   7.755 -0.2257  0.4113  0.0690
 3309SOL    HW113332   0.190   9.236   7.730  0.6251  0.4219 -2.0719
 3309SOL    HW213333   0.334   9.210   7.770  0.2467 -0.0774 -1.0246
 3310SOL     OW13334   3.489   2.139   6.654  1.0094  0.7928 -0.1368
 3310SOL    HW113335   3.457   2.095   6.732 -0.4949 -0.2335 -1.2975
 3310SOL    HW213336   3.572   2.094   6.634  1.4582  1.1440  0.9297
 3311SOL     OW13337   1.523  10.018  10.523 -0.2935 -0.0928  0.4488
 3311SOL    HW113338   1.543  10.018  10.617  0.4998  0.3636  0.2876
 3311SOL    HW213339   1.465  10.093  10.511  0.9673  0.8824  0.3091
 3312SOL     OW13340   2.975   1.428   0.004 -0.3780 -0.1902 -0.4937
 3312SOL    HW113341   3.050   1.478  -0.027 -0.6955 -0.0419 -1.0408
 3312SOL    HW213342   2.900   1.468  -0.040 -0.7336 -0.5808 -0.2497
 3313SOL     OW13343   8.375   6.616   1.995 -0.2704  0.2372 -0.2274
 3313SOL    HW113344   8.405   6.674   1.924  0.8852  0.7730  0.6828
 3313SOL    HW213345   8.282   6.638   2.006 -0.0770  1.2511 -0.5300
 3314SOL     OW13346   2.864   6.379   5.506  0.1125  0.0982  0.1839
 3314SOL    HW113347   2.903   6.424   5.432 -0.6037  2.8102  1.4112
 3314SOL    HW213348   2.919   6.402   5.581 -1.8224  1.1752  1.3141
 3315SOL     OW13349   0.969   5.902   3.146 -0.3022 -0.7225 -0.1868
 3315SOL    HW113350   1.010   5.988   3.151  3.1708 -2.3746  0.8424
 3315SOL    HW213351   0.907   5.901   3.219  0.0464  0.6837  0.1480
 3316SOL     OW13352   4.293   2.024   2.612  0.1414 -0.1750  0.3280
 3316SOL    HW113353   4.223   2.038   2.676  0.9585 -0.2873  1.2785
 3316SOL    HW213354   4.356   2.094   2.631  0.0660  0.2129 -0.8263
 3317SOL     OW13355  10.596   5.199   1.914  0.3963  0.0011 -0.5648
 3317SOL    HW113356  10.600   5.110   1.947 -1.5864 -0.0023 -0.2837
 3317SOL    HW213357  10.598   5.255   1.992 -2.8409  0.0322 -0.4213
 3318SOL     OW13358   9.271   3.882   2.421  0.2593 -0.2967  0.1737
 3318SOL    HW113359   9.322   3.882   2.502  0.5499 -2.3147  0.0271
 3318SOL    HW213360   9.313   3.815   2.366  0.5831  1.6363 -1.9906
 3319SOL     OW13361   8.619   6.279   7.404  0.2073  0.3819  0.1506
 3319SOL    HW113362   8.543   6.257   7.350  0.7515 -0.7567 -0.1639
 3319SOL    HW213363   8.582   6.319   7.482 -0.7470 -0.6344  0.2302
 3320SOL     OW13364   1.646   7.365   3.346 -0.4736 -0.4015  0.1000
 3320SOL    HW113365   1.560   7.343   3.382 -0.3228 -1.2097 -0.0086
 3320SOL    HW213366   1.627   7.412   3.265 -0.8123  1.0620  1.0252
 3321SOL     OW13367   0.318   1.381   8.553 -0.0894 -0.0188  0.5387
 3321SOL    HW113368   0.379   1.309   8.569  0.0821  0.1956  0.8476
 3321SOL    HW213369   0.330   1.440   8.627 -1.0981 -0.2655  0.8930
 3322SOL     OW13370   4.119   3.842   9.526 -0.3544 -0.1485  0.3525
 3322SOL    HW113371   4.122   3.773   9.459 -0.0929 -0.1705  0.3851
 3322SOL    HW213372   4.130   3.924   9.476 -1.6050 -0.0588  0.2045
 3323SOL     OW13373   2.814   0.249   8.249 -0.2420  0.2251  0.3138
 3323SOL    HW113374   2.753   0.289   8.187 -0.4213  0.8166  0.8573
 3323SOL    HW213375   2.861   0.183   8.198 -0.0966  0.9848 -0.5481
 3324SOL     OW13376   4.209   5.430   4.734 -0.2660 -0.5609  0.3628
 3324SOL    HW113377   4.210   5.382   4.651 -1.4796 -1.0102  0.5985
 3324SOL    HW213378   4.139   5.388   4.785  0.1473  0.0269  1.4229
 3325SOL     OW13379   4.166   3.908   0.360  0.0883 -0.2280  0.1501
 3325SOL    HW113380   4.207   3.890   0.444 -0.3004  0.6356  0.5405
 3325SOL    HW213381   4.078   3.938   0.383  0.0610  0.2428 -0.5509
 3326SOL     OW13382   1.144   8.333   9.955  0.1331 -0.5987  0.0753
 3326SOL    HW113383   1.174   8.242   9.948 -0.1544 -0.6075 -1.3909
 3326SOL    HW213384   1.211   8.377  10.006  1.2908 -1.2047 -0.8934
 3327SOL     OW13385   5.716   0.868   5.709  0.0425  0.0602  0.2000
 3327SOL    HW113386   5.790   0.840   5.654  0.7621  1.4128  0.4432
 3327SOL    HW213387   5.756   0.890   5.793 -1.0804 -2.1423  1.3437
 3328SOL     OW13388  10.961   8.514   6.597  0.1792  0.0212  0.2833
 3328SOL    HW113389  10.932   8.559   6.676  0.0206 -0.4819  0.5174
 3328SOL    HW213390  11.057   8.514   6.604  0.1767  0.2945  0.3003
 3329SOL     OW13391   5.279   5.135   3.474 -0.0630 -0.3355 -0.2299
 3329SOL    HW113392   5.282   5.228   3.454  0.3863 -0.4885 -0.8689
 3329SOL    HW213393   5.367   5.114   3.505 -0.3077 -0.4375  0.4076
 3330SOL     OW13394   3.420   4.610   9.947 -0.2445  0.2656 -0.0295
 3330SOL    HW113395   3.471   4.529   9.942  1.6370  1.2565  2.0709
 3330SOL    HW213396   3.408   4.637   9.856  1.0153 -1.2103 -0.6614
 3331SOL     OW13397   3.812   5.290   2.529  0.2073 -0.0490  0.4607
 3331SOL    HW113398   3.827   5.227   2.599 -1.4314  0.3218  1.1804
 3331SOL    HW213399   3.734   5.338   2.557 -0.5191  0.0589 -1.6448
 3332SOL     OW13400   1.610   4.636   5.408  0.3210  0.3801  0.2470
 3332SOL    HW113401   1.627   4.581   5.484 -0.6096 -0.0430  0.1587
 3332SOL    HW213402   1.514   4.639   5.402  0.3832 -0.2901 -1.3917
 3333SOL     OW13403   9.902   8.474   3.950 -0.1296 -0.1397  0.0635
 3333SOL    HW113404   9.880   8.453   3.859  0.0685 -1.0257  0.2172
 3333SOL    HW213405   9.836   8.538   3.976  1.0438  1.6830 -1.3510
 3334SOL     OW13406   9.958   2.481  10.354 -0.0113 -0.5855 -0.2636
 3334SOL    HW113407  10.035   2.535  10.370 -0.1494 -0.4740  0.0442
 3334SOL    HW213408   9.885   2.535  10.386 -0.2686 -0.4734 -1.0250
 3335SOL     OW13409   6.865   0.811   2.042 -0.6348 -0.9682 -0.2093
 3335SOL    HW113410   6.899   0.834   1.955 -2.2532  0.9553 -0.3867
 3335SOL    HW213411   6.910   0.870   2.102 -0.7647 -1.1208  0.0395
 3336SOL     OW13412   2.857   3.999   8.345 -0.6284 -0.1421 -0.5498
 3336SOL    HW113413   2.778   4.052   8.334 -0.0399  0.3277 -2.7555
 3336SOL    HW213414   2.886   3.981   8.256  1.2329 -1.1041  0.2262
 3337SOL     OW13415   3.078   2.542   8.444  0.2723  0.0051  0.4284
 3337SOL    HW113416   3.052   2.455   8.414  0.6325 -0.1185  0.4768
 3337SOL    HW213417   3.055   2.542   8.537  1.2079 -0.3976  0.6620
 3338SOL     OW13418   2.902   5.300   3.418  0.2141  0.4118 -0.7952
 3338SOL    HW113419   2.873   5.361   3.486  1.0381 -0.0634 -0.0067
 3338SOL    HW213420   2.852   5.325   3.341 -2.1621 -0.2454  0.4624
 3339SOL     OW13421   7.888   0.353   1.731  0.4576  0.2057  0.0974
 3339SOL    HW113422   7.975   0.390   1.744  1.0843 -1.5412  1.0397
 3339SOL    HW213423   7.905   0.264   1.698 -0.9496 -0.2927  0.6981
 3340SOL     OW13424   8.452   7.189   3.279 -0.2337  0.0946 -0.1649
 3340SOL    HW113425   8.509   7.129   3.327 -0.5475 -0.3427 -0.3337
 3340SOL    HW213426   8.503   7.214   3.202  1.1375  2.5265  1.4942
 3341SOL     OW13427   0.180   3.674   9.202 -0.1308 -0.3078 -0.1216
 3341SOL    HW113428   0.123   3.654   9.276  1.0131 -1.0502  0.5675
 3341SOL    HW213429   0.137   3.633   9.127 -0.9694 -0.0821  0.2301
 3342SOL     OW13430   0.075   1.182   4.227 -0.1534 -0.0502  0.1620
 3342SOL    HW113431   0.086   1.276   4.210  1.9518 -0.3882 -0.4927
 3342SOL    HW213432  -0.013   1.175   4.265  0.4371  2.4553  2.1583
 3343SOL     OW13433   6.157   1.947   8.626  0.2066  0.5625 -0.5972
 3343SOL    HW113434   6.108   1.966   8.546 -1.3262 -0.3119  0.1126
 3343SOL    HW213435   6.152   2.027   8.678 -0.4158  0.4976 -0.5564
 3344SOL     OW13436   7.155   3.807   7.038  0.0271  0.2486 -0.4240
 3344SOL    HW113437   7.165   3.714   7.059 -1.0863  0.0746 -0.6664
 3344SOL    HW213438   7.165   3.810   6.943 -2.2279  0.0725 -0.6724
 3345SOL     OW13439   2.351   5.589   1.217 -0.2855  0.7046  0.0343
 3345SOL    HW113440   2.326   5.509   1.171  0.1492 -0.5618  1.9279
 3345SOL    HW213441   2.445   5.598   1.199  0.0739 -0.2636  1.3035
 3346SOL     OW13442   0.637   8.695   3.112  0.0761 -0.3951 -0.1724
 3346SOL    HW113443   0.687   8.771   3.083 -0.0355 -0.0348  0.5767
 3346SOL    HW213444   0.670   8.623   3.058 -0.1666  0.2709 -1.2210
 3347SOL     OW13445   8.209   0.467   1.408  0.2614  0.2580 -0.3718
 3347SOL    HW113446   8.165   0.489   1.326 -2.1836  0.4539  0.9359
 3347SOL    HW213447   8.284   0.526   1.411 -0.4203  1.2356 -1.8233
 3348SOL     OW13448   4.948   9.833   9.581 -0.1828 -0.0788 -0.3336
 3348SOL    HW113449   4.974   9.817   9.672 -1.6127  1.0240  0.3014
 3348SOL    HW213450   5.027   9.866   9.538  0.3946 -0.1984  0.6312
 3349SOL     OW13451   0.209   3.775   1.887  0.3292  0.0404  0.6386
 3349SOL    HW113452   0.280   3.772   1.951 -0.0457 -1.0826  1.0280
 3349SOL    HW213453   0.236   3.841   1.824  2.6434 -1.6831 -0.2728
 3350SOL     OW13454   2.615   7.144   5.717 -0.0467 -0.5063  0.0583
 3350SOL    HW113455   2.622   7.120   5.624 -0.7179 -0.0096 -0.1227
 3350SOL    HW213456   2.522   7.160   5.731 -0.1500 -1.9550  1.1760
 3351SOL     OW13457   5.573   0.378   5.851  0.4783  0.2835 -0.6071
 3351SOL    HW113458   5.582   0.349   5.761  1.6228 -2.1189  0.2483
 3351SOL    HW213459   5.645   0.441   5.863  0.0384  0.9593 -1.4911
 3352SOL     OW13460   1.586   1.463   7.938 -0.1146  0.1180 -0.4609
 3352SOL    HW113461   1.608   1.419   8.021  2.0129  2.3466  0.2339
 3352SOL    HW213462   1.549   1.394   7.883  0.8383 -1.9885  1.4504
 3353SOL     OW13463  10.014   0.058   6.315  0.6738 -0.1069  0.4367
 3353SOL    HW113464  10.002   0.116   6.240 -1.5833 -1.6493 -0.4647
 3353SOL    HW213465  10.100   0.019   6.301  0.8604  0.6470 -0.6239
 3354SOL     OW13466   9.012   9.220   2.730  0.3239 -0.1710 -0.6320
 3354SOL    HW113467   9.032   9.197   2.821 -0.0659 -0.3218 -0.5803
 3354SOL    HW213468   8.921   9.252   2.733 -0.1622 -1.4495 -1.1719
 3355SOL     OW13469   1.775   4.435   4.122 -0.4259  0.3739  0.0975
 3355SOL    HW113470   1.770   4.470   4.211  0.9317 -0.3417  0.4674
 3355SOL    HW213471   1.869   4.432   4.103 -0.6554 -0.6480 -0.8884
 3356SOL     OW13472   9.505   7.349  10.184 -0.4410 -0.1374  0.6781
 3356SOL    HW113473   9.433   7.413  10.183  1.8569  2.5494  2.0442
 3356SOL    HW213474   9.539   7.351  10.094 -1.5544 -0.8630  0.2236
 3357SOL     OW13475   7.570   6.709   0.144 -0.2623 -0.0358 -0.0137
 3357SOL    HW113476   7.648   6.655   0.132  0.5975  1.1777  0.0213
 3357SOL    HW213477   7.504   6.648   0.175  0.8833 -0.9420  0.7054
 3358SOL     OW13478   1.317   6.422   6.387  0.2564 -0.3496  0.1674
 3358SOL    HW113479   1.258   6.362   6.433 -1.0814  1.2588  0.6088
 3358SOL    HW213480   1.381   6.365   6.345 -0.4439 -2.0350  1.3166
 3359SOL     OW13481  10.301   2.099   6.356  0.0391 -0.0497  0.3290
 3359SOL    HW113482  10.311   2.194   6.364 -0.9745  0.1983 -1.1397
 3359SOL    HW213483  10.258   2.072   6.438 -0.2208  0.8383  0.4910
 3360SOL     OW13484   0.417   2.267   0.235 -0.6430 -0.0385  0.6837
 3360SOL    HW113485   0.363   2.238   0.161  0.4214  1.7075 -0.7947
 3360SOL    HW213486   0.361   2.329   0.282  0.0109  1.7250 -0.8136
 3361SOL     OW13487   5.619   2.282   8.255 -0.5325 -0.8284  0.0248
 3361SOL    HW113488   5.700   2.263   8.208 -0.1241  1.5022 -0.2990
 3361SOL    HW213489   5.648   2.331   8.332 -1.4966 -1.5809  0.8842
 3362SOL     OW13490   3.742   9.642   5.590  0.6581  0.5125  0.0842
 3362SOL    HW113491   3.655   9.643   5.551  1.5983  0.3664 -2.0551
 3362SOL    HW213492   3.746   9.559   5.638 -0.2941  0.4162 -0.0100
 3363SOL     OW13493  10.842   3.176   7.301  0.1817 -0.0840 -0.0752
 3363SOL    HW113494  10.820   3.101   7.245  1.8849  0.4201 -1.4385
 3363SOL    HW213495  10.899   3.231   7.248 -1.2906  2.3753  0.8046
 3364SOL     OW13496  10.861   5.364   3.140 -0.2794  0.2389  0.0245
 3364SOL    HW113497  10.886   5.311   3.215 -0.0101  0.1907 -0.0976
 3364SOL    HW213498  10.787   5.318   3.101 -0.7411  0.5320  0.5549
 3365SOL     OW13499   5.805   5.038   8.443  0.4490 -0.1147 -0.0031
 3365SOL    HW113500   5.847   5.088   8.513 -1.5789 -2.0982  2.7480
 3365SOL    HW213501   5.713   5.033   8.470 -0.2203 -1.6079 -2.4479
 3366SOL     OW13502   1.960   5.018   0.847 -0.5288  0.0139  0.6788
 3366SOL    HW113503   1.906   5.096   0.834 -1.9604 -0.6909  2.2860
 3366SOL    HW213504   2.050   5.051   0.841 -1.1094  1.5357 -0.0700
 3367SOL     OW13505   4.289   9.394   7.295  0.5851 -0.5698 -0.2811
 3367SOL    HW113506   4.257   9.349   7.373 -0.3460  0.3132 -0.1350
 3367SOL    HW213507   4.351   9.333   7.256  0.4117 -1.3833  0.6764
 3368SOL     OW13508  10.087   1.121   4.054 -0.1190 -0.5197  0.0338
 3368SOL    HW113509  10.007   1.102   4.004 -0.5695 -0.5414  0.7456
 3368SOL    HW213510  10.156   1.127   3.988 -0.7274 -0.4069 -0.6019
 3369SOL     OW13511   6.199   3.920   4.155  0.0501 -0.1631 -0.8559
 3369SOL    HW113512   6.267   3.974   4.195  0.1609 -0.5895 -0.4676
 3369SOL    HW213513   6.193   3.843   4.211 -0.9840  0.0210 -0.7018
 3370SOL     OW13514   8.789   1.618   8.140 -0.3070 -0.2662 -0.3858
 3370SOL    HW113515   8.865   1.667   8.169 -1.0526  0.3407  0.5386
 3370SOL    HW213516   8.765   1.658   8.056  0.0838 -0.1397 -0.4390
 3371SOL     OW13517   4.250   9.853   7.309  0.2253  0.1019  0.5946
 3371SOL    HW113518   4.292   9.778   7.267  0.3402  0.3105  0.3398
 3371SOL    HW213519   4.299   9.866   7.390  0.6100  0.3025  0.3319
 3372SOL     OW13520   7.842   8.194   7.345 -0.1075  0.2340 -0.1139
 3372SOL    HW113521   7.924   8.196   7.297 -0.1027 -0.6863 -0.1486
 3372SOL    HW213522   7.786   8.257   7.300  0.4752  0.6428 -0.2704
 3373SOL     OW13523   7.665   0.033   7.079  0.4228 -0.8610 -0.3957
 3373SOL    HW113524   7.678  -0.047   7.129  0.5258  0.8656  2.4736
 3373SOL    HW213525   7.743   0.086   7.097  0.1428  0.0838 -1.8433
 3374SOL     OW13526   7.420   7.008   9.650  0.4360 -0.2502  0.2671
 3374SOL    HW113527   7.489   7.060   9.609  0.2934 -0.8439 -0.7291
 3374SOL    HW213528   7.346   7.068   9.657  0.8999  0.2526  0.9133
 3375SOL     OW13529   4.422   2.834   6.039  0.2793 -0.8816  0.3066
 3375SOL    HW113530   4.444   2.741   6.030 -1.3787 -1.1660 -1.0547
 3375SOL    HW213531   4.336   2.843   5.997 -0.1012  1.0579  1.4364
 3376SOL     OW13532   9.084   2.092   2.728  0.4047  0.0680 -0.0655
 3376SOL    HW113533   9.040   2.118   2.809  0.6042  0.3329 -0.0428
 3376SOL    HW213534   9.167   2.139   2.730  0.5640 -0.2039 -0.2505
 3377SOL     OW13535   7.052  10.691   3.011 -0.2068  0.1953  0.4201
 3377SOL    HW113536   7.134  10.647   3.031 -0.8121 -0.3745  1.7363
 3377SOL    HW213537   7.076  10.782   2.996  0.6021  0.1608  1.4375
 3378SOL     OW13538   0.236   6.650   8.113 -0.5005 -0.1011  0.3149
 3378SOL    HW113539   0.283   6.570   8.088  0.6318  0.2917  1.1086
 3378SOL    HW213540   0.243   6.653   8.209  0.2960  1.4226  0.2305
 3379SOL     OW13541   8.011   3.916   2.198  0.3073  0.2097 -0.0439
 3379SOL    HW113542   7.978   3.887   2.283  1.4660  0.2098  0.4054
 3379SOL    HW213543   7.968   4.000   2.183  0.6305  0.5347  0.8617
 3380SOL     OW13544   9.631   1.680   3.470  0.2747 -0.1804  0.4391
 3380SOL    HW113545   9.614   1.675   3.376  0.1461 -2.0842  0.5354
 3380SOL    HW213546   9.689   1.755   3.480 -0.4217  0.5726 -1.0528
 3381SOL     OW13547   4.531  10.458   5.851  0.2924 -0.3205  1.1233
 3381SOL    HW113548   4.548  10.550   5.831 -0.6037 -0.0096  1.7645
 3381SOL    HW213549   4.527  10.454   5.946 -2.3024 -0.5064  1.0483
 3382SOL     OW13550   0.650   5.887   8.646  0.2794  0.5042  0.5855
 3382SOL    HW113551   0.728   5.872   8.699 -1.0272 -0.9327  2.1441
 3382SOL    HW213552   0.644   5.810   8.590  0.6421  1.1905 -0.4294
 3383SOL     OW13553  10.211   7.950   2.862 -0.2009 -0.0674  0.0576
 3383SOL    HW113554  10.144   7.950   2.930 -1.8763 -2.1241 -1.5210
 3383SOL    HW213555  10.267   7.876   2.883 -1.0745 -1.0746 -1.1145
 3384SOL     OW13556   9.664   5.624   6.430 -0.1166  0.0043 -0.2881
 3384SOL    HW113557   9.623   5.684   6.366  0.2771  1.6587  0.9748
 3384SOL    HW213558   9.628   5.538   6.408 -2.2922  1.0158 -0.8543
 3385SOL     OW13559   2.036   4.054   1.258  0.1248  0.5495 -0.1893
 3385SOL    HW113560   2.052   3.982   1.196  1.3900  0.3199  0.3757
 3385SOL    HW213561   2.107   4.116   1.241  0.5963  0.3940  1.1368
 3386SOL     OW13562   0.430   5.398   9.279 -0.5879 -0.3273 -0.2480
 3386SOL    HW113563   0.446   5.371   9.369  1.2122  0.6724 -0.2527
 3386SOL    HW213564   0.345   5.442   9.283 -0.3775  0.0019  1.0408
 3387SOL     OW13565   0.450   5.528   1.926  0.1076  0.5038  0.4429
 3387SOL    HW113566   0.464   5.561   1.838 -2.1317  1.6879  0.5048
 3387SOL    HW213567   0.363   5.490   1.925  0.8357 -1.3095  1.6295
 3388SOL     OW13568   8.971   7.892   7.992 -0.0284 -0.0051  0.4591
 3388SOL    HW113569   9.045   7.857   7.943 -0.2777  1.3773 -0.9288
 3388SOL    HW213570   9.006   7.907   8.080  1.1468 -0.0709  0.0171
 3389SOL     OW13571   9.648  10.931   5.176  0.6460  0.2997  0.6568
 3389SOL    HW113572   9.684  10.865   5.235  1.5930  1.4218  1.3549
 3389SOL    HW213573   9.571  10.890   5.138  0.2912 -0.6055  2.3256
 3390SOL     OW13574   5.634   3.296   5.297 -0.0841  0.1375 -0.3443
 3390SOL    HW113575   5.709   3.284   5.354  0.6552 -0.8218 -1.4823
 3390SOL    HW213576   5.558   3.283   5.354  0.5941  1.5418  0.8973
 3391SOL     OW13577  10.844   6.212   9.238 -0.3462  0.3438  0.2754
 3391SOL    HW113578  10.753   6.214   9.210  0.3055 -2.2370 -2.2651
 3391SOL    HW213579  10.892   6.258   9.168  0.7530 -2.0537 -0.6049
 3392SOL     OW13580   7.260   9.021   8.244 -0.9165  0.1047  0.0081
 3392SOL    HW113581   7.170   9.006   8.215 -0.4940 -0.9816 -0.7700
 3392SOL    HW213582   7.300   9.070   8.172 -0.7319  0.1254  0.1263
 3393SOL     OW13583   3.940  10.660   8.466  0.1059  0.1540  0.5624
 3393SOL    HW113584   4.023  10.673   8.512 -0.3177 -0.7652  1.6283
 3393SOL    HW213585   3.957  10.685   8.376  2.1449 -2.0135  0.3089
 3394SOL     OW13586   5.539   4.919   4.212  0.0132 -0.2289  0.7165
 3394SOL    HW113587   5.478   4.862   4.166 -0.4656  0.4187  0.5366
 3394SOL    HW213588   5.603   4.860   4.250 -0.4809 -0.8851  0.5399
 3395SOL     OW13589   5.929   8.838   3.411  0.1249  0.4723 -0.0563
 3395SOL    HW113590   5.844   8.863   3.376  0.1876  1.4484  0.4860
 3395SOL    HW213591   5.910   8.763   3.468 -0.3783  0.7472  0.1410
 3396SOL     OW13592   0.066   1.584   9.846  0.2021 -0.6440  0.5637
 3396SOL    HW113593   0.045   1.491   9.852  0.1971 -0.7129 -0.5036
 3396SOL    HW213594  -0.018   1.629   9.842  0.2045 -0.7297 -0.8100
 3397SOL     OW13595   7.614   7.042   8.902  0.3643  0.0245 -0.8705
 3397SOL    HW113596   7.691   7.065   8.954 -0.1201 -0.0197 -0.1224
 3397SOL    HW213597   7.594   7.121   8.852  1.6297 -0.3521 -2.0165
 3398SOL     OW13598   3.657   3.622   8.225  0.3003 -0.3536 -0.3841
 3398SOL    HW113599   3.615   3.536   8.225  1.4458 -0.9204 -0.6377
 3398SOL    HW213600   3.585   3.684   8.217 -0.5597 -1.2764  0.0798
 3399SOL     OW13601   7.094   1.360   2.121  0.1543 -0.5120  0.4903
 3399SOL    HW113602   7.137   1.412   2.189 -3.2150  2.9624  0.1321
 3399SOL    HW213603   7.001   1.366   2.143 -0.6130 -3.3009 -1.7731
 3400SOL     OW13604   6.972   5.012   2.881  0.2267  0.2922  0.2276
 3400SOL    HW113605   6.915   5.088   2.894  1.1326  1.0171  0.0242
 3400SOL    HW213606   7.051   5.048   2.840  1.6264 -0.3796  2.2555
 3401SOL     OW13607   8.203   3.982   4.884  0.0521 -0.0146 -0.3820
 3401SOL    HW113608   8.161   3.927   4.950 -1.7105  0.7563 -0.8255
 3401SOL    HW213609   8.275   4.025   4.930 -2.1692  1.7984  1.5361
 3402SOL     OW13610   8.090   6.030   2.346  0.3907 -0.2715  0.3398
 3402SOL    HW113611   8.004   6.004   2.315  1.3381 -3.0767 -0.0811
 3402SOL    HW213612   8.140   6.048   2.267  0.7164 -0.4208  0.5099
 3403SOL     OW13613   2.551   9.069   6.408  0.3444 -0.2883 -0.3121
 3403SOL    HW113614   2.569   9.028   6.493 -0.4339  0.3327  0.1603
 3403SOL    HW213615   2.480   9.131   6.426  0.6784  0.3777 -1.2713
 3404SOL     OW13616   6.452   9.442   2.758 -0.0106 -0.2029  0.2117
 3404SOL    HW113617   6.382   9.378   2.753  0.3945 -0.4545 -3.0452
 3404SOL    HW213618   6.525   9.402   2.711  0.6146  2.1617 -0.8993
 3405SOL     OW13619   3.494   5.047   3.976 -0.9988  0.1284  0.1600
 3405SOL    HW113620   3.587   5.064   3.989 -1.0743  0.8623 -0.2368
 3405SOL    HW213621   3.450   5.119   4.021 -1.3448  0.3731 -0.5517
 3406SOL     OW13622   5.987   9.755   3.314 -0.0420 -0.5090 -0.1917
 3406SOL    HW113623   5.927   9.681   3.312 -1.2312  0.3604  1.7193
 3406SOL    HW213624   6.018   9.759   3.404 -1.9126  2.7661  0.4200
 3407SOL     OW13625   0.591   4.219   2.840  0.4939 -0.0120  0.1367
 3407SOL    HW113626   0.514   4.164   2.858  0.9397 -1.3817 -2.0048
 3407SOL    HW213627   0.665   4.169   2.875  0.5927  0.6753  0.9472
 3408SOL     OW13628   6.170   0.015   2.742 -0.5229 -0.3641 -0.1067
 3408SOL    HW113629   6.102   0.020   2.675 -1.7248 -0.0483  1.1040
 3408SOL    HW213630   6.226   0.090   2.726 -0.7300 -0.3612 -0.8312
 3409SOL     OW13631   7.164   6.043   9.660 -0.2087 -0.3214  0.1287
 3409SOL    HW113632   7.238   6.094   9.626  0.9552 -1.1816  1.3372
 3409SOL    HW213633   7.088   6.078   9.613  1.2184 -0.8602 -2.6763
 3410SOL     OW13634   3.002   5.113   6.317  0.1947 -0.6604  0.0729
 3410SOL    HW113635   2.947   5.166   6.375  1.0546 -0.0673  0.3529
 3410SOL    HW213636   3.045   5.176   6.260  0.7727 -1.1073  0.0118
 3411SOL     OW13637   6.324  10.235   0.918  0.0825 -0.3476  0.4225
 3411SOL    HW113638   6.266  10.307   0.941  3.2839  1.6431  2.6131
 3411SOL    HW213639   6.380  10.270   0.849  2.4086 -0.2679  2.2847
 3412SOL     OW13640   4.707   4.541   8.053 -0.2139 -0.1188  0.1543
 3412SOL    HW113641   4.671   4.541   7.964  0.7820 -0.2990 -0.2616
 3412SOL    HW213642   4.673   4.461   8.092  0.9959 -1.1264 -0.7761
 3413SOL     OW13643   0.723   4.538   7.059 -0.6464 -0.2510 -0.0026
 3413SOL    HW113644   0.818   4.535   7.067 -0.6132 -2.3758 -1.0479
 3413SOL    HW213645   0.705   4.506   6.971 -2.3143  0.4555  0.0638
 3414SOL     OW13646   8.630   7.234   9.793 -0.5504  0.2803 -0.9305
 3414SOL    HW113647   8.673   7.248   9.877  0.4888 -1.4923 -1.1439
 3414SOL    HW213648   8.698   7.250   9.728 -1.2485  1.2697 -1.4360
 3415SOL     OW13649   1.392   3.600   6.103  0.1167  0.0116 -0.0538
 3415SOL    HW113650   1.398   3.687   6.142 -0.2632  0.1215 -0.2400
 3415SOL    HW213651   1.482   3.566   6.106  0.6670  1.2481 -1.9458
 3416SOL     OW13652   6.595   1.179  10.497  0.1723 -0.3491  0.2441
 3416SOL    HW113653   6.621   1.088  10.512  2.8639  0.4755  0.9118
 3416SOL    HW213654   6.506   1.185  10.532 -0.0236 -2.6886  0.2460
 3417SOL     OW13655   8.140   5.569   3.482 -0.0750 -0.0634 -0.3747
 3417SOL    HW113656   8.129   5.474   3.470  1.4703 -0.3068  0.0451
 3417SOL    HW213657   8.067   5.594   3.539  0.3224 -1.2534  0.6801
 3418SOL     OW13658   6.818   2.058   8.509 -0.3341 -0.1195 -0.6824
 3418SOL    HW113659   6.764   2.001   8.454 -2.1610 -0.4844  1.4123
 3418SOL    HW213660   6.817   2.017   8.595  0.9361  1.4152  0.0938
 3419SOL     OW13661   6.584   3.053   8.062  0.0351 -0.1139 -0.8246
 3419SOL    HW113662   6.544   3.026   7.979  0.2218 -2.2264 -0.2700
 3419SOL    HW213663   6.651   3.116   8.037 -0.7996  0.2867 -2.1476
 3420SOL     OW13664   0.583   3.433   8.560 -0.2291 -0.0086  0.2758
 3420SOL    HW113665   0.650   3.378   8.602  1.7906  0.6627 -1.9245
 3420SOL    HW213666   0.540   3.479   8.633  0.6499 -1.6187  1.8493
 3421SOL     OW13667   9.271   4.875  10.756  0.1945  0.2865  0.1397
 3421SOL    HW113668   9.194   4.932  10.757  0.3155  0.4482  0.3053
 3421SOL    HW213669   9.332   4.917  10.817  0.2993  0.0002  0.2335
 3422SOL     OW13670  10.586  10.329   4.625 -0.4111 -0.0220  0.4373
 3422SOL    HW113671  10.582  10.387   4.701  3.2111 -1.1427  1.5663
 3422SOL    HW213672  10.635  10.379   4.559  0.0949 -0.6677  0.3274
 3423SOL     OW13673  10.073   7.370   0.052  0.1720  0.1260  0.1672
 3423SOL    HW113674   9.992   7.347   0.007  0.2625  0.3325 -0.1094
 3423SOL    HW213675  10.048   7.382   0.143 -0.2316  0.8333 -0.0296
 3424SOL     OW13676   7.124   2.532   6.257 -0.3620  0.2189 -0.5354
 3424SOL    HW113677   7.213   2.503   6.276 -0.3522  0.9054  0.5123
 3424SOL    HW213678   7.118   2.530   6.161  0.2950 -1.2426 -0.5548
 3425SOL     OW13679   8.946  10.868   3.310 -0.1989  0.0637  0.3815
 3425SOL    HW113680   8.860  10.898   3.281 -0.5316 -1.1639  0.0511
 3425SOL    HW213681   8.927  10.789   3.362  0.6555  0.3126  1.0886
 3426SOL     OW13682   9.960   4.726   7.170 -0.4607  0.2107 -0.4062
 3426SOL    HW113683   9.915   4.681   7.240 -0.5022 -0.1264 -0.6509
 3426SOL    HW213684   9.892   4.779   7.128 -0.1385  1.5691  0.7389
 3427SOL     OW13685   9.884   6.197   9.092  0.3923 -0.3695 -0.8740
 3427SOL    HW113686   9.931   6.171   9.171 -0.1709  2.5439  0.4737
 3427SOL    HW213687   9.953   6.209   9.026  1.1970  0.5188  0.1275
 3428SOL     OW13688   5.815   7.800   9.736 -0.4579 -0.0456 -0.2907
 3428SOL    HW113689   5.779   7.724   9.782  0.6782 -1.3600 -1.5417
 3428SOL    HW213690   5.788   7.787   9.645  2.4195 -0.6148 -1.1047
 3429SOL     OW13691   1.829   9.677   0.258  0.7253  0.0016 -0.3467
 3429SOL    HW113692   1.844   9.643   0.347  0.4919  0.8340  0.0202
 3429SOL    HW213693   1.907   9.730   0.240  0.1506  0.9491 -0.0860
 3430SOL     OW13694   0.539   1.611   6.248 -1.0157 -0.5524 -0.1091
 3430SOL    HW113695   0.634   1.598   6.257 -1.1132 -0.7205  0.7015
 3430SOL    HW213696   0.530   1.662   6.167 -0.2849 -1.1809 -0.5927
 3431SOL     OW13697   4.416   4.469   2.071  0.7389  0.3751 -0.2169
 3431SOL    HW113698   4.363   4.439   2.145  2.5567  0.2632  1.0879
 3431SOL    HW213699   4.352   4.499   2.006 -0.9030  0.4152  1.3677
 3432SOL     OW13700   0.135   8.402  10.516  0.5508 -0.2963  0.0650
 3432SOL    HW113701   0.097   8.456  10.585  2.2591  0.8276  0.1646
 3432SOL    HW213702   0.139   8.314  10.554  1.1742  0.2484  1.2872
 3433SOL     OW13703   1.683   5.675   2.603  0.1055  0.3664  0.4835
 3433SOL    HW113704   1.615   5.610   2.620  0.1150  0.6227  1.5444
 3433SOL    HW213705   1.726   5.645   2.522  0.0672 -0.8984  0.9213
 3434SOL     OW13706   8.899   2.061   5.424 -0.0971 -0.2782  0.0953
 3434SOL    HW113707   8.880   2.131   5.362  0.6961 -1.1503 -1.1735
 3434SOL    HW213708   8.992   2.042   5.411 -0.5129 -2.2387 -0.3444
 3435SOL     OW13709   7.301   9.287   0.249 -0.1461 -0.1983 -0.3157
 3435SOL    HW113710   7.250   9.366   0.231 -0.5388 -0.0895  1.1698
 3435SOL    HW213711   7.386   9.319   0.278  0.1363 -0.3485 -0.9710
 3436SOL     OW13712   5.016   4.768   8.771  0.7547  0.8064 -0.0965
 3436SOL    HW113713   5.009   4.810   8.686  0.2951  1.7133  0.3695
 3436SOL    HW213714   5.014   4.674   8.753 -0.5914  0.9937 -0.9936
 3437SOL     OW13715   8.927   6.810   6.944  0.3612 -0.0807  0.4173
 3437SOL    HW113716   8.924   6.761   6.861 -0.4177  0.2090  0.2674
 3437SOL    HW213717   8.932   6.902   6.917 -0.9484  0.0748  0.6841
 3438SOL     OW13718   5.604   3.386   4.740  0.7219 -0.1010  0.0809
 3438SOL    HW113719   5.583   3.445   4.812  1.1110  0.2481 -0.0922
 3438SOL    HW213720   5.530   3.324   4.737  0.8013 -0.2364  0.8983
 3439SOL     OW13721   9.480   3.512   7.964 -0.1160 -0.4807 -0.3494
 3439SOL    HW113722   9.434   3.490   7.883 -0.2429 -0.7562 -0.2034
 3439SOL    HW213723   9.431   3.468   8.033  0.8042 -1.4024 -0.2697
 3440SOL     OW13724   0.984   8.418   5.867  0.1535  0.3613  0.1743
 3440SOL    HW113725   0.976   8.446   5.959 -0.7352  1.8181 -0.3314
 3440SOL    HW213726   0.912   8.356   5.856  0.1589  0.3092  0.4097
 3441SOL     OW13727   7.542   2.435   8.751 -0.2986 -0.9877 -0.2439
 3441SOL    HW113728   7.618   2.435   8.809  1.4595 -0.9085 -2.4624
 3441SOL    HW213729   7.532   2.344   8.724 -1.4876 -1.1275  0.6534
 3442SOL     OW13730   1.145   7.882   6.191 -0.2011  0.1204  0.0421
 3442SOL    HW113731   1.179   7.895   6.280  0.0562 -0.1619 -0.0122
 3442SOL    HW213732   1.065   7.934   6.188 -0.1625  0.2052  0.4109
 3443SOL     OW13733   0.487  10.748   3.498 -0.4617  0.7736 -0.1470
 3443SOL    HW113734   0.482  10.841   3.476 -0.8259  0.4530 -1.4424
 3443SOL    HW213735   0.410  10.732   3.553  0.7791  1.7101  1.9607
 3444SOL     OW13736   7.897   8.383   5.781 -0.5471  0.0704 -0.0229
 3444SOL    HW113737   7.893   8.414   5.690 -1.0107  0.2477  0.0537
 3444SOL    HW213738   7.989   8.394   5.806 -0.0037 -1.8364 -1.0961
 3445SOL     OW13739   0.482   9.174   3.333  0.0245  0.1023 -0.2810
 3445SOL    HW113740   0.393   9.140   3.329 -0.1026  0.2222  1.3005
 3445SOL    HW213741   0.538   9.102   3.305 -0.2265 -1.5326  3.1528
 3446SOL     OW13742   9.380  10.350   1.238  0.0831 -0.1299 -0.2213
 3446SOL    HW113743   9.341  10.436   1.252  0.7257  0.0403  0.5770
 3446SOL    HW213744   9.359  10.328   1.147 -2.5639 -0.4243  0.4406
 3447SOL     OW13745   8.959   0.552  10.749  0.0925  0.5177 -0.1882
 3447SOL    HW113746   8.987   0.563  10.839  0.2200  0.4274 -0.2172
 3447SOL    HW213747   8.964   0.457  10.734 -0.2603  0.4973 -0.1790
 3448SOL     OW13748   7.894   8.575   6.425 -0.6438  0.0678  0.1332
 3448SOL    HW113749   7.950   8.649   6.450  0.3974 -0.1078 -1.5637
 3448SOL    HW213750   7.936   8.499   6.464 -0.0152  0.0081 -0.6497
 3449SOL     OW13751   4.028   7.974   8.578 -0.2460  0.0175 -0.0454
 3449SOL    HW113752   4.017   7.879   8.587 -1.1230  0.0100 -1.1444
 3449SOL    HW213753   4.122   7.988   8.592  0.2549 -1.2515 -1.9992
 3450SOL     OW13754   9.562   5.718   0.992 -0.8400 -0.3381 -0.1367
 3450SOL    HW113755   9.493   5.743   1.054 -0.1827 -0.7407  0.7677
 3450SOL    HW213756   9.559   5.622   0.991  0.3169 -0.3968  0.6299
 3451SOL     OW13757   2.832   6.430   8.626 -0.7660 -0.5313 -0.4798
 3451SOL    HW113758   2.846   6.373   8.551 -0.4813 -0.4153 -0.5145
 3451SOL    HW213759   2.882   6.509   8.606 -2.1737  0.2359 -1.0080
 3452SOL     OW13760   4.848   6.224   1.637  0.7977  0.7121  0.0800
 3452SOL    HW113761   4.929   6.246   1.682 -0.0017  0.4772  1.6689
 3452SOL    HW213762   4.780   6.272   1.684 -0.4604 -1.9370  1.1279
 3453SOL     OW13763   8.981  10.771   6.214  0.1068  0.3832  0.7583
 3453SOL    HW113764   8.974  10.826   6.136  2.3463  1.9675  1.6139
 3453SOL    HW213765   9.002  10.833   6.284 -3.6115 -0.7762  3.0064
 3454SOL     OW13766   2.905   7.174   5.299 -0.2233  0.2251  0.2192
 3454SOL    HW113767   2.885   7.081   5.303  0.8121  0.0205  0.8996
 3454SOL    HW213768   2.933   7.189   5.209 -1.0919  0.0331 -0.0861
 3455SOL     OW13769   1.786  10.266  10.498 -0.1721 -0.1605 -0.1961
 3455SOL    HW113770   1.839  10.227  10.567 -0.4925 -0.3518 -0.0608
 3455SOL    HW213771   1.754  10.192  10.447  0.8571  0.0268 -1.1329
 3456SOL     OW13772  10.311   6.314   7.206 -0.1621 -0.2383  0.0618
 3456SOL    HW113773  10.367   6.385   7.176 -1.5127  0.8786  0.1079
 3456SOL    HW213774  10.311   6.323   7.302 -1.3058  0.4886  0.0086
 3457SOL     OW13775   7.167   9.949   3.919  0.1107 -0.0692 -0.1150
 3457SOL    HW113776   7.108   9.878   3.895  2.6584 -1.9774 -0.9407
 3457SOL    HW213777   7.220   9.964   3.841  1.8542  0.4343  1.1226
 3458SOL     OW13778   8.382  10.315   8.648 -0.0211  0.3192  0.0431
 3458SOL    HW113779   8.419  10.263   8.720  2.8257  1.0971 -0.8128
 3458SOL    HW213780   8.366  10.401   8.687 -0.0700  0.2465  0.1816
 3459SOL     OW13781   0.070   6.671   6.685  0.4334 -0.1993  0.9884
 3459SOL    HW113782   0.153   6.629   6.661  1.5111  1.6065  1.3699
 3459SOL    HW213783   0.067   6.665   6.780 -0.6560 -1.6522  0.8648
 3460SOL     OW13784   8.055   4.697   2.918 -0.3277  0.0473  0.3322
 3460SOL    HW113785   7.984   4.738   2.870 -0.5394 -2.0209 -1.2188
 3460SOL    HW213786   8.115   4.768   2.939 -1.0192  1.2381 -1.6279
 3461SOL     OW13787   9.703  10.192   7.062 -0.2572 -0.1176  0.2705
 3461SOL    HW113788   9.761  10.245   7.116 -0.7230 -0.0398  0.6996
 3461SOL    HW213789   9.629  10.250   7.042 -0.0065 -0.0903 -0.5859
 3462SOL     OW13790   3.394   1.244   9.843 -0.2339  0.1309  0.5083
 3462SOL    HW113791   3.337   1.278   9.774 -0.6858 -2.1473 -0.2946
 3462SOL    HW213792   3.466   1.307   9.849 -0.9507  1.1061 -1.0213
 3463SOL     OW13793  10.292   4.120   3.884  0.5369  0.4438  0.1273
 3463SOL    HW113794  10.257   4.180   3.949 -2.0141 -0.2726 -0.5119
 3463SOL    HW213795  10.268   4.159   3.800 -1.0316 -1.3546 -0.2909
 3464SOL     OW13796  10.268   4.157   2.751 -0.2549  0.2043 -0.7352
 3464SOL    HW113797  10.292   4.144   2.659  0.7170 -0.7081 -0.3616
 3464SOL    HW213798  10.320   4.233   2.779  1.2625 -0.9806 -0.2856
 3465SOL     OW13799   5.074   3.563   7.081  0.1599 -0.4622  0.3791
 3465SOL    HW113800   5.090   3.527   7.168  0.6675 -0.6586  0.2050
 3465SOL    HW213801   5.152   3.615   7.062 -0.3543  0.3361  0.4260
 3466SOL     OW13802   3.332   6.582   0.479 -0.1469  0.0074 -0.1943
 3466SOL    HW113803   3.408   6.524   0.484  0.0459  0.2452 -0.3862
 3466SOL    HW213804   3.302   6.591   0.569  0.0954 -0.0289 -0.1106
 3467SOL     OW13805   3.503   0.225   4.310 -0.4872 -0.0681  0.3751
 3467SOL    HW113806   3.574   0.245   4.371 -0.2962 -0.4664  0.2818
 3467SOL    HW213807   3.492   0.305   4.259  0.7276 -0.4101 -0.4557
 3468SOL     OW13808   8.153   6.837   1.307  0.0267  0.6145 -0.7189
 3468SOL    HW113809   8.214   6.892   1.356  1.6562 -1.4528 -0.3426
 3468SOL    HW213810   8.110   6.783   1.373 -0.5353  0.4461 -1.2159
 3469SOL     OW13811  10.928   8.598   5.915 -0.2292  0.0399 -0.7673
 3469SOL    HW113812  10.916   8.504   5.923  0.0464 -0.1577 -2.3372
 3469SOL    HW213813  10.840   8.633   5.903 -0.4315  0.1094  0.9269
 3470SOL     OW13814   0.319   4.532   2.850  0.0891 -0.3084  0.3641
 3470SOL    HW113815   0.333   4.626   2.837  1.3576 -0.4587  0.6111
 3470SOL    HW213816   0.373   4.510   2.926  1.3160 -1.6118 -0.8495
 3471SOL     OW13817   9.558   9.929   1.384  0.3033  0.0992  0.2344
 3471SOL    HW113818   9.631   9.913   1.324  0.2108  0.8460 -0.0807
 3471SOL    HW213819   9.579   9.876   1.461  0.0974 -1.4008 -0.7022
 3472SOL     OW13820  10.663   0.709   7.681  0.2243 -0.0171  0.1770
 3472SOL    HW113821  10.618   0.768   7.741  2.1525  1.6851  0.0162
 3472SOL    HW213822  10.697   0.766   7.612  1.5245 -1.4019 -0.3672
 3473SOL     OW13823  10.128  10.508   9.218  0.0320 -0.1010 -0.0815
 3473SOL    HW113824  10.218  10.483   9.195  0.4836  2.0713 -0.7502
 3473SOL    HW213825  10.075  10.480   9.143  0.2198 -0.8795  0.0715
 3474SOL     OW13826  10.765   4.088   3.324  0.0004  0.2233  0.2986
 3474SOL    HW113827  10.733   4.135   3.401  1.8031  2.1350 -0.0873
 3474SOL    HW213828  10.720   4.003   3.328 -0.7539  0.6894  2.8507
 3475SOL     OW13829   0.093  10.695   7.111 -0.3638 -0.6089  0.5768
 3475SOL    HW113830   0.108  10.602   7.126 -0.3890 -0.9829 -1.4912
 3475SOL    HW213831   0.008  10.713   7.151 -0.5843 -1.5889  0.5629
 3476SOL     OW13832   1.244   9.712   9.486  0.2036 -0.2051  0.4276
 3476SOL    HW113833   1.279   9.664   9.561 -1.2581  0.5992  1.6553
 3476SOL    HW213834   1.280   9.801   9.496  0.4380 -0.2378 -0.1215
 3477SOL     OW13835   5.969  10.676   6.929 -0.0488 -0.8838 -1.1817
 3477SOL    HW113836   6.008  10.762   6.911 -1.4679 -0.7093 -3.6794
 3477SOL    HW213837   6.041  10.625   6.967  0.4626  1.7804  1.6968
 3478SOL     OW13838   0.600   7.204   3.333 -0.0885  0.0757 -0.0246
 3478SOL    HW113839   0.553   7.192   3.251  0.6870 -0.4190 -0.3997
 3478SOL    HW213840   0.593   7.119   3.377  0.8987 -0.1545 -0.3130
 3479SOL     OW13841   3.852   8.959   2.607 -0.0083  0.1757 -0.8553
 3479SOL    HW113842   3.873   9.042   2.563 -2.3140 -0.2522 -2.8819
 3479SOL    HW213843   3.808   8.907   2.539  4.0841 -3.9549 -0.6011
 3480SOL     OW13844   0.661   9.815   5.515 -0.0624  0.4015  0.4611
 3480SOL    HW113845   0.642   9.737   5.567  0.5999  0.8737  1.4462
 3480SOL    HW213846   0.642   9.790   5.425 -0.0424 -0.8343  0.7883
 3481SOL     OW13847   8.577   2.775   2.182  1.0962  0.4754  0.3033
 3481SOL    HW113848   8.623   2.782   2.098  0.4358  0.8166 -0.0372
 3481SOL    HW213849   8.647   2.764   2.247  1.5371 -1.3412 -0.4472
 3482SOL     OW13850   9.028   9.524   7.381 -0.3048 -0.0791  0.0102
 3482SOL    HW113851   9.122   9.538   7.394  0.0091 -1.3993 -0.7358
 3482SOL    HW213852   9.014   9.546   7.288 -0.5898 -0.5797 -0.0665
 3483SOL     OW13853   1.538   0.153   9.353  0.0374  0.5558  0.4068
 3483SOL    HW113854   1.459   0.109   9.321  1.1240 -0.9105 -0.2909
 3483SOL    HW213855   1.581   0.185   9.273  1.0794 -0.2440  0.6423
 3484SOL     OW13856   3.630  10.869  10.593  0.4631  0.0590 -0.2712
 3484SOL    HW113857   3.715  10.885  10.633 -1.2854  1.0211  3.2925
 3484SOL    HW213858   3.581  10.950  10.605 -2.0256 -1.4905  0.7590
 3485SOL     OW13859   3.913   2.184   0.498  0.4807  0.3511 -0.1547
 3485SOL    HW113860   3.916   2.095   0.534  2.6121  1.0423  1.4874
 3485SOL    HW213861   3.899   2.240   0.574  0.4167  1.5222 -1.0138
 3486SOL     OW13862   2.254   2.599   9.868 -0.4517  0.2084 -0.3334
 3486SOL    HW113863   2.237   2.506   9.882 -2.1665  0.5977  0.3481
 3486SOL    HW213864   2.331   2.618   9.921 -0.8519 -0.5508  0.5352
 3487SOL     OW13865   6.091   3.998  10.207 -0.0897  0.1759  0.2482
 3487SOL    HW113866   6.108   3.919  10.155  0.7942  0.2498  0.4122
 3487SOL    HW213867   6.007   3.981  10.250 -0.3522 -0.2930 -0.4374
 3488SOL     OW13868  10.809   4.731   2.152  0.3488 -0.2800  0.2978
 3488SOL    HW113869  10.777   4.769   2.070 -2.5275 -2.3747  0.3944
 3488SOL    HW213870  10.865   4.799   2.190 -0.4498  1.7606 -2.0678
 3489SOL     OW13871   5.373   3.148   5.656  0.1028  0.3813  0.0142
 3489SOL    HW113872   5.345   3.056   5.652  0.4612  0.2607  0.3226
 3489SOL    HW213873   5.323   3.185   5.728  0.0489  0.4001 -0.0320
 3490SOL     OW13874   8.665   0.825   9.674  0.4120  0.3932  0.5183
 3490SOL    HW113875   8.591   0.777   9.711  0.5346  0.8846  1.4065
 3490SOL    HW213876   8.655   0.816   9.579  0.1040 -0.8965  0.6604
 3491SOL     OW13877   9.213   6.127   5.219 -0.0611  0.5308 -0.0223
 3491SOL    HW113878   9.220   6.055   5.282  0.9207 -0.2510 -1.0271
 3491SOL    HW213879   9.155   6.190   5.263 -0.2276 -0.4615  1.2319
 3492SOL     OW13880   9.102   7.316   9.783 -0.3120 -0.0107  0.7607
 3492SOL    HW113881   9.149   7.400   9.786 -0.1841 -0.0572  0.1344
 3492SOL    HW213882   9.116   7.278   9.870 -0.7121  0.7990  1.1852
 3493SOL     OW13883  10.574   1.352   5.003 -0.8769  0.7030  0.8747
 3493SOL    HW113884  10.558   1.296   5.079  0.3846  0.5730  1.0433
 3493SOL    HW213885  10.486   1.371   4.969 -1.4316  0.4724  2.1503
 3494SOL     OW13886   0.730   8.838   3.767 -0.2412 -0.1067  0.0509
 3494SOL    HW113887   0.732   8.756   3.817 -0.5906 -0.3805 -0.3815
 3494SOL    HW213888   0.656   8.886   3.804 -0.9695 -0.6320 -0.6995
 3495SOL     OW13889   2.142   5.679   0.312  0.0533  0.5410  0.2032
 3495SOL    HW113890   2.233   5.673   0.282  0.3558 -0.3838  1.2571
 3495SOL    HW213891   2.090   5.649   0.237  0.6526  0.6270 -0.2467
 3496SOL     OW13892   2.422   8.118   5.584 -0.3068 -0.1056 -0.0102
 3496SOL    HW113893   2.497   8.128   5.525 -0.5077  2.4127  0.1024
 3496SOL    HW213894   2.368   8.195   5.566 -1.8226 -0.8228  1.4078
 3497SOL     OW13895   2.538   3.473   9.201 -0.5273 -0.2332 -0.4674
 3497SOL    HW113896   2.450   3.499   9.226 -0.3154  1.2615 -1.2358
 3497SOL    HW213897   2.538   3.475   9.106  0.4498  0.1576 -0.4655
 3498SOL     OW13898   0.840   9.836   9.870  0.0751 -0.5533  0.3363
 3498SOL    HW113899   0.770   9.890   9.834  0.9246  1.3945  1.5165
 3498SOL    HW213900   0.796   9.756   9.899 -1.0567 -0.9255 -2.2763
 3499SOL     OW13901   2.202   0.341   2.292 -0.0476 -0.1178 -0.0697
 3499SOL    HW113902   2.290   0.377   2.286 -0.0773  0.2207  1.5365
 3499SOL    HW213903   2.197   0.279   2.219  1.0664  0.8096 -0.9472
 3500SOL     OW13904   1.796   4.392   0.758  0.1874  0.3884 -0.8846
 3500SOL    HW113905   1.809   4.302   0.791  0.9404  1.1376  0.9477
 3500SOL    HW213906   1.701   4.403   0.756  0.0848 -0.5152 -1.2826
 3501SOL     OW13907   9.987   2.583   4.840 -0.1797 -0.0553  0.4208
 3501SOL    HW113908   9.963   2.611   4.752  0.0100 -1.0845  0.0370
 3501SOL    HW213909   9.916   2.614   4.896 -0.9667 -0.5620 -0.2924
 3502SOL     OW13910   7.019  10.283   1.469 -0.4370  0.3651 -0.1946
 3502SOL    HW113911   7.082  10.355   1.467  0.2827 -0.2842 -1.2799
 3502SOL    HW213912   7.070  10.205   1.447 -1.2873 -0.4227  0.5974
 3503SOL     OW13913   9.290   1.854   0.032 -0.0894 -0.1983  0.7040
 3503SOL    HW113914   9.285   1.946   0.059  0.6661  0.1951 -0.4580
 3503SOL    HW213915   9.226   1.846  -0.039  1.1873 -0.0673 -0.5099
 3504SOL     OW13916   1.637   4.896   5.463  0.3793 -0.0056  0.0983
 3504SOL    HW113917   1.556   4.938   5.432  0.6331  1.3008  1.1455
 3504SOL    HW213918   1.621   4.803   5.451 -0.7380  0.3063 -1.0204
 3505SOL     OW13919   4.317   7.952  10.632 -0.0705 -0.1708  0.0229
 3505SOL    HW113920   4.350   7.909  10.710 -0.2598 -1.5289 -0.6312
 3505SOL    HW213921   4.389   7.946  10.569 -1.0358 -1.9083 -0.9488
 3506SOL     OW13922   8.592   3.625   8.631 -0.1660  0.2170  0.7198
 3506SOL    HW113923   8.612   3.536   8.659 -1.9246 -0.5829 -0.4780
 3506SOL    HW213924   8.559   3.668   8.709  1.7927  0.1963  1.5911
 3507SOL     OW13925   4.370   8.789   2.227 -0.1713 -0.0704  0.7266
 3507SOL    HW113926   4.398   8.701   2.202  1.7272  0.7963 -0.3292
 3507SOL    HW213927   4.320   8.821   2.152  0.3763  0.2755  0.5029
 3508SOL     OW13928   8.544   8.901   5.682  0.5816 -0.6507 -0.2016
 3508SOL    HW113929   8.613   8.883   5.619  0.8736 -0.4237  0.0557
 3508SOL    HW213930   8.561   8.991   5.712 -0.0245 -0.4615 -0.4005
 3509SOL     OW13931   3.074   0.688   1.099 -0.2229 -0.4290  0.0551
 3509SOL    HW113932   3.024   0.621   1.052 -0.1636 -0.5503  0.1686
 3509SOL    HW213933   3.165   0.674   1.073 -0.2529 -0.1678 -0.2012
 3510SOL     OW13934   4.308   9.379   5.668  0.4989  0.1557  0.4259
 3510SOL    HW113935   4.378   9.328   5.628 -0.9515 -0.4318 -1.4389
 3510SOL    HW213936   4.231   9.360   5.615 -0.8653  1.5627  1.8336
 3511SOL     OW13937   1.085   0.893   7.391  0.2123 -0.4244  0.0665
 3511SOL    HW113938   1.068   0.849   7.307  1.8214 -1.1836  0.1318
 3511SOL    HW213939   1.070   0.986   7.373  0.5367 -0.5856 -1.0484
 3512SOL     OW13940   6.897   9.608  10.441  0.4731 -0.3718 -0.6013
 3512SOL    HW113941   6.899   9.603  10.536  1.6553 -0.5452 -0.6266
 3512SOL    HW213942   6.935   9.694  10.420 -0.1993 -0.1435 -0.8975
 3513SOL     OW13943   4.647   0.445  10.285 -0.2238  0.1592  0.1960
 3513SOL    HW113944   4.573   0.383  10.287 -0.4594  0.4055 -0.8547
 3513SOL    HW213945   4.707   0.408  10.221 -0.5107  1.1841 -0.6665
 3514SOL     OW13946  10.636   5.696   8.635  0.1731 -0.4861 -0.1949
 3514SOL    HW113947  10.654   5.786   8.608 -0.1355 -0.8930 -1.8527
 3514SOL    HW213948  10.542   5.685   8.619  0.3685 -1.3421 -0.7765
 3515SOL     OW13949   4.000   6.770   6.698  0.0140 -0.9196  0.6351
 3515SOL    HW113950   4.078   6.763   6.753 -0.8045  0.4658  2.0286
 3515SOL    HW213951   3.960   6.683   6.702 -0.2823 -0.7224  2.6647
 3516SOL     OW13952   8.729   8.066   3.208  0.5720  0.1179  0.5631
 3516SOL    HW113953   8.676   8.142   3.232  0.5202 -0.0194  0.8981
 3516SOL    HW213954   8.765   8.087   3.122 -1.3876 -0.4878 -0.4379
 3517SOL     OW13955  10.313   6.475   0.041  0.6325  0.4918 -0.2496
 3517SOL    HW113956  10.361   6.524   0.107 -0.9429  1.0120  0.5443
 3517SOL    HW213957  10.378   6.415   0.004  1.3123 -0.6187  2.5585
 3518SOL     OW13958   9.007  10.141   3.154  0.4960 -0.3199 -0.3192
 3518SOL    HW113959   9.017  10.219   3.100 -0.0619 -0.3865 -0.5267
 3518SOL    HW213960   9.088  10.136   3.204  0.9889 -0.2224 -1.0978
 3519SOL     OW13961   0.860   1.090   0.679 -0.2159  0.0920  0.2915
 3519SOL    HW113962   0.802   1.160   0.646  0.3989  0.2518 -0.4687
 3519SOL    HW213963   0.830   1.075   0.768 -2.3396 -0.7914 -0.5304
 3520SOL     OW13964   6.507   5.591   1.458 -0.1181 -0.1730 -0.6664
 3520SOL    HW113965   6.572   5.522   1.445 -0.9548 -0.9593 -0.7214
 3520SOL    HW213966   6.536   5.636   1.537  0.5962 -0.4002 -0.7961
 3521SOL     OW13967  10.365   9.065  10.299 -0.2222 -0.4589 -0.4179
 3521SOL    HW113968  10.398   8.975  10.296 -0.6814 -0.5790 -2.7545
 3521SOL    HW213969  10.305   9.067  10.373  0.2052 -1.9238 -0.0253
 3522SOL     OW13970   1.000   5.745   8.536  0.1003 -0.0732 -0.6161
 3522SOL    HW113971   1.028   5.691   8.462 -1.6395 -0.3074 -1.1157
 3522SOL    HW213972   1.024   5.834   8.511  0.6782 -0.3040 -0.8964
 3523SOL     OW13973   4.634   7.122   4.887  0.0132 -0.3066 -0.0079
 3523SOL    HW113974   4.579   7.134   4.965 -0.0837  2.3504 -0.4500
 3523SOL    HW213975   4.682   7.040   4.904 -1.3269 -0.7079  2.0214
 3524SOL     OW13976   0.878   4.385   7.462  0.4389  0.2959  1.1505
 3524SOL    HW113977   0.848   4.295   7.469  2.9357 -0.6377  0.3735
 3524SOL    HW213978   0.972   4.380   7.479  1.2737  2.2005 -2.5228
 3525SOL     OW13979   5.385   4.324   2.509  0.0386 -0.5482 -0.4033
 3525SOL    HW113980   5.423   4.326   2.421 -0.9788 -0.0728 -0.8408
 3525SOL    HW213981   5.445   4.270   2.560  1.5343  0.5361 -0.9755
 3526SOL     OW13982  10.282   6.684   9.223 -0.1073 -0.2100  0.1356
 3526SOL    HW113983  10.199   6.636   9.226 -0.4763  0.3780 -0.4760
 3526SOL    HW213984  10.339   6.638   9.284 -0.1104 -2.0850 -1.2404
 3527SOL     OW13985   7.279   0.282  10.111  0.9623 -0.4695 -0.1341
 3527SOL    HW113986   7.201   0.231  10.090  1.3883 -1.9991  1.8348
 3527SOL    HW213987   7.312   0.243  10.192  2.5220  1.5800  0.2565
 3528SOL     OW13988   5.824   5.919   8.600 -0.0496 -0.1354  0.1216
 3528SOL    HW113989   5.819   5.878   8.514  1.4106 -0.5895  0.2373
 3528SOL    HW213990   5.733   5.934   8.625 -0.4883 -0.2202 -1.3950
 3529SOL     OW13991   4.467   3.731   5.318  0.3365 -0.6167 -0.1893
 3529SOL    HW113992   4.534   3.662   5.324  1.3188  0.3253 -0.1350
 3529SOL    HW213993   4.509   3.800   5.266 -0.4111  0.2107  0.2938
 3530SOL     OW13994   5.346   0.750   0.831 -0.1179 -0.1211 -0.1614
 3530SOL    HW113995   5.419   0.689   0.840 -1.1854 -1.1940  1.3931
 3530SOL    HW213996   5.387   0.837   0.827  1.2416 -0.7215  0.5669
 3531SOL     OW13997   1.515  10.666   6.712 -0.2190  0.5805  0.0350
 3531SOL    HW113998   1.563  10.653   6.630  1.5602 -1.9905  1.3993
 3531SOL    HW213999   1.481  10.579   6.733 -2.1932  1.5940  1.1102
 3532SOL     OW14000   5.411   8.996   7.089  0.0287 -0.1635  0.2633
 3532SOL    HW114001   5.434   9.003   6.996  1.6087 -0.8443  0.6002
 3532SOL    HW214002   5.361   8.915   7.095 -0.6584  0.2266 -0.1021
 3533SOL     OW14003   5.912   6.292  10.563  0.1300  0.1872  0.1375
 3533SOL    HW114004   5.899   6.260  10.652  1.7379 -2.1909 -0.4413
 3533SOL    HW214005   5.840   6.253  10.513 -1.8055  2.9337  0.6776
 3534SOL     OW14006   4.281   1.501  10.168 -0.0562 -0.2744 -0.6967
 3534SOL    HW114007   4.304   1.575  10.112  0.2511  0.2732  0.1497
 3534SOL    HW214008   4.361   1.448  10.172 -0.1965 -0.5203 -1.0892
 3535SOL     OW14009   1.437   7.181   5.693 -0.3043 -0.0246 -0.8511
 3535SOL    HW114010   1.473   7.264   5.663  0.9149  0.1621  1.0624
 3535SOL    HW214011   1.499   7.149   5.759 -2.5743 -0.6784  1.0783
 3536SOL     OW14012   7.198  10.121  10.839  0.3675  0.5739  0.3195
 3536SOL    HW114013   7.147  10.042  10.861  1.5214 -0.1788  0.3221
 3536SOL    HW214014   7.139  10.172  10.784 -1.3845  0.9651  2.4723
 3537SOL     OW14015   8.732   5.156   7.444 -0.0733 -0.5995 -0.1435
 3537SOL    HW114016   8.794   5.149   7.517 -0.8990 -0.5322  0.5726
 3537SOL    HW214017   8.662   5.211   7.478 -1.4291 -2.1893 -0.3253
 3538SOL     OW14018   0.661   9.340   5.092 -0.1142  0.2213 -0.6265
 3538SOL    HW114019   0.732   9.350   5.029  2.1981  2.1890  2.1589
 3538SOL    HW214020   0.598   9.408   5.069  0.5633  0.7206 -1.0084
 3539SOL     OW14021   9.626   4.682   1.285 -0.4463  0.0277 -0.3253
 3539SOL    HW114022   9.551   4.667   1.229 -0.8076 -0.5147  0.3018
 3539SOL    HW214023   9.675   4.600   1.284  0.9064  0.8283 -1.8587
 3540SOL     OW14024   8.200   3.678   6.633 -0.2842  0.2685 -0.0678
 3540SOL    HW114025   8.141   3.635   6.571 -1.4091  0.8661  0.5568
 3540SOL    HW214026   8.161   3.660   6.719  0.0784  1.2490  0.3037
 3541SOL     OW14027   7.819   3.513   0.904  0.0354  0.0230  0.0521
 3541SOL    HW114028   7.736   3.467   0.918  0.1834  0.3652  2.1789
 3541SOL    HW214029   7.862   3.464   0.834 -1.2476 -1.1142  0.0374
 3542SOL     OW14030   4.635   6.368   1.716  0.2229  0.5347 -0.1676
 3542SOL    HW114031   4.616   6.404   1.803 -0.9312  0.1130 -0.2455
 3542SOL    HW214032   4.604   6.435   1.655  0.4991  0.5691 -0.2743
 3543SOL     OW14033   0.167  10.687   6.398 -0.0885 -0.4164 -0.2677
 3543SOL    HW114034   0.085  10.709   6.442  1.0206  1.8958  0.7651
 3543SOL    HW214035   0.157  10.718   6.309  0.1242  1.0853  0.2170
 3544SOL     OW14036   2.801   7.206  10.198  0.6940  0.0427  0.0121
 3544SOL    HW114037   2.887   7.167  10.182  1.3982  0.9592  1.4440
 3544SOL    HW214038   2.795   7.277  10.134  0.2220 -1.1547 -1.3003
 3545SOL     OW14039   0.118   6.775   9.735  0.7624 -0.0710  0.0020
 3545SOL    HW114040   0.133   6.696   9.683 -3.0572 -0.5959 -0.3898
 3545SOL    HW214041   0.093   6.744   9.821 -1.5987  0.6441 -0.3883
 3546SOL     OW14042   8.964   1.835   5.020  0.5897 -0.2911  0.2018
 3546SOL    HW114043   8.932   1.756   4.975  1.2825  0.5179 -1.7518
 3546SOL    HW214044   8.887   1.892   5.025  0.7820  0.0960 -1.0545
 3547SOL     OW14045   5.996   6.827   5.188  0.6727 -0.1132 -0.8389
 3547SOL    HW114046   6.060   6.888   5.225  1.4315 -0.4549 -1.5754
 3547SOL    HW214047   5.931   6.883   5.145  1.8348  0.1654 -2.2712
 3548SOL     OW14048   3.350   8.131   9.958 -0.5212 -0.0516 -0.0003
 3548SOL    HW114049   3.375   8.048   9.999  1.2340  0.2177 -0.4667
 3548SOL    HW214050   3.427   8.156   9.906 -0.6933  2.2971  0.8181
 3549SOL     OW14051   2.906   1.849   2.419  0.3402  0.2817 -0.1220
 3549SOL    HW114052   2.891   1.783   2.488  0.2058  0.0898 -0.3344
 3549SOL    HW214053   3.001   1.853   2.410  0.3108 -0.7246 -0.9213
 3550SOL     OW14054   6.770   1.319  10.356 -0.4305 -0.6913 -0.4490
 3550SOL    HW114055   6.827   1.246  10.329 -0.4786 -1.2871  1.0068
 3550SOL    HW214056   6.702   1.277  10.408 -0.7555  0.3389 -0.0463
 3551SOL     OW14057   1.569   0.412   1.598  0.0676 -0.1471  0.0149
 3551SOL    HW114058   1.607   0.421   1.511  0.2653  1.2159  0.2387
 3551SOL    HW214059   1.477   0.434   1.586  0.1563  0.3212  0.2104
 3552SOL     OW14060   8.433  10.156   2.254 -0.1169  0.1810 -0.1160
 3552SOL    HW114061   8.519  10.188   2.226  0.1535 -0.5280 -0.1158
 3552SOL    HW214062   8.419  10.077   2.201  0.5064 -1.3153  1.9003
 3553SOL     OW14063   8.962   1.928   0.426 -0.2582 -0.5095 -0.0718
 3553SOL    HW114064   8.993   1.983   0.355 -3.1986  0.1390 -0.9318
 3553SOL    HW214065   8.995   1.970   0.505  0.8315  0.2381 -0.9173
 3554SOL     OW14066  10.350   4.467   9.248  0.7029 -0.1861 -0.4058
 3554SOL    HW114067  10.335   4.420   9.165  1.0519 -0.8357 -0.1028
 3554SOL    HW214068  10.415   4.533   9.226 -0.7161  0.9788 -1.1292
 3555SOL     OW14069   5.823   2.827   8.290  0.0037 -0.0463 -0.0078
 3555SOL    HW114070   5.744   2.880   8.304 -0.0873  0.2815 -1.6711
 3555SOL    HW214071   5.791   2.743   8.258  0.2668 -0.3030  0.4047
 3556SOL     OW14072   0.898   5.553   8.745 -0.0525  0.0004  0.1654
 3556SOL    HW114073   0.860   5.493   8.681 -1.7951  0.9122  0.2963
 3556SOL    HW214074   0.950   5.614   8.692 -0.1883 -0.2177 -0.2262
 3557SOL     OW14075   3.743   2.210   3.937  0.7884  0.4693 -0.4428
 3557SOL    HW114076   3.680   2.185   4.005 -0.9408  1.6598 -1.5616
 3557SOL    HW214077   3.727   2.149   3.865 -2.0013  3.2389 -2.3437
 3558SOL     OW14078   5.169   4.060   5.492 -0.3008 -0.2051 -0.2323
 3558SOL    HW114079   5.261   4.035   5.502 -0.4445 -1.5825 -2.0511
 3558SOL    HW214080   5.128   3.984   5.450 -2.2102  0.5126  0.2835
 3559SOL     OW14081   0.825   7.718  10.942  0.2568  0.0570  0.3670
 3559SOL    HW114082   0.903   7.683  10.985  0.4950 -0.6444 -0.6020
 3559SOL    HW214083   0.802   7.651  10.878 -0.7244  0.5886  0.1548
 3560SOL     OW14084   6.108   7.467   7.214 -0.6392  0.0303 -0.1313
 3560SOL    HW114085   6.084   7.492   7.125 -1.6347 -1.8188 -0.4290
 3560SOL    HW214086   6.135   7.548   7.256 -2.7335  1.3830 -1.3188
 3561SOL     OW14087   5.868   5.246   9.123  0.1103  0.2593 -0.0887
 3561SOL    HW114088   5.793   5.284   9.169  1.2709  1.1294  1.1122
 3561SOL    HW214089   5.944   5.286   9.164  1.2891 -1.6743 -0.3423
 3562SOL     OW14090   4.094   4.335   9.536  0.0631  0.0513  0.2449
 3562SOL    HW114091   4.003   4.360   9.521 -0.8626 -1.2809  3.4111
 3562SOL    HW214092   4.142   4.380   9.466 -2.8153  1.9569 -0.6108
 3563SOL     OW14093   3.408   7.795   8.701  0.4260  0.3868 -0.0081
 3563SOL    HW114094   3.378   7.768   8.787 -1.1550 -0.2745 -0.7599
 3563SOL    HW214095   3.501   7.772   8.699  0.3045 -0.2073  1.2555
 3564SOL     OW14096   9.353   0.920   4.512  0.0528  0.0662 -1.2044
 3564SOL    HW114097   9.388   0.858   4.447  1.1609 -0.0427 -0.5247
 3564SOL    HW214098   9.406   0.999   4.501 -0.2043  0.2845 -0.8978
 3565SOL     OW14099   9.189   6.792  10.530 -0.4250 -0.1675  0.3970
 3565SOL    HW114100   9.280   6.817  10.512 -0.7101  0.3474 -0.3894
 3565SOL    HW214101   9.146   6.875  10.554 -0.6413 -0.4398  0.9525
 3566SOL     OW14102   9.961   3.875   4.293  0.3948  0.1334 -0.2943
 3566SOL    HW114103   9.952   3.968   4.315 -0.7352 -0.3197  1.1895
 3566SOL    HW214104   9.984   3.875   4.200  2.0453  1.9658  0.0749
 3567SOL     OW14105   8.184   8.417   6.460 -0.1494 -0.3412  0.3829
 3567SOL    HW114106   8.279   8.428   6.466  0.0477 -2.4644  1.7853
 3567SOL    HW214107   8.171   8.322   6.454 -2.1395 -0.0141 -1.0661
 3568SOL     OW14108   1.389   1.136   1.501  0.9379 -0.0322  0.0672
 3568SOL    HW114109   1.434   1.159   1.420  1.5309  0.5546  0.5567
 3568SOL    HW214110   1.459   1.124   1.565  0.5195 -1.2430  0.3173
 3569SOL     OW14111   5.258   8.181   3.210  0.2473  0.3026  0.1516
 3569SOL    HW114112   5.179   8.235   3.218 -0.2923 -0.6029  0.9289
 3569SOL    HW214113   5.290   8.199   3.121 -2.4855 -1.5972 -1.2841
 3570SOL     OW14114   5.756   4.631   8.843 -0.1472 -0.5163  0.1216
 3570SOL    HW114115   5.770   4.693   8.915  1.1480 -0.5700 -0.0722
 3570SOL    HW214116   5.708   4.682   8.778 -0.0343 -0.0264  0.4102
 3571SOL     OW14117   1.054   5.091  10.144 -0.1525  0.5032  0.7693
 3571SOL    HW114118   1.048   5.132  10.230 -3.4424  2.3405 -0.2586
 3571SOL    HW214119   1.065   5.164  10.083  0.6934 -0.6747 -0.5179
 3572SOL     OW14120   4.416   3.786   4.797  0.1561  0.4997 -0.4671
 3572SOL    HW114121   4.490   3.728   4.779  0.3093  0.7717 -0.7216
 3572SOL    HW214122   4.381   3.756   4.881  0.0202 -0.1802 -0.7636
 3573SOL     OW14123   4.523   9.778   1.604 -0.1008 -0.4352 -0.0440
 3573SOL    HW114124   4.592   9.775   1.536  0.8078 -2.2332  0.9009
 3573SOL    HW214125   4.446   9.741   1.560  0.4932 -1.6304 -0.1274
 3574SOL     OW14126   2.451   2.325   5.611  0.2076 -0.0709  0.3432
 3574SOL    HW114127   2.539   2.287   5.600 -0.0243 -0.5735  0.2048
 3574SOL    HW214128   2.395   2.271   5.556 -0.2084  0.1853  0.5184
 3575SOL     OW14129   4.091   7.784   1.925  0.2802 -0.1432  0.1196
 3575SOL    HW114130   4.061   7.743   1.844  0.2368 -0.9353  0.5268
 3575SOL    HW214131   4.079   7.716   1.992  1.3971  0.0982  0.5791
 3576SOL     OW14132   0.148  10.917   5.329 -0.3806  0.4929 -0.3379
 3576SOL    HW114133   0.094  10.968   5.389  0.5662  2.8046 -1.3953
 3576SOL    HW214134   0.222  10.974   5.308  0.6321 -1.2456 -1.7098
 3577SOL     OW14135   9.456   6.978   5.447 -0.2362 -0.0535 -0.1020
 3577SOL    HW114136   9.486   6.900   5.495  1.6560  1.1939  0.7913
 3577SOL    HW214137   9.517   7.047   5.473 -2.6280  2.0549  0.0803
 3578SOL     OW14138   3.516  10.935   2.735  0.3226 -0.0257  0.6530
 3578SOL    HW114139   3.439  10.909   2.785  0.4554 -1.1844  0.2698
 3578SOL    HW214140   3.573  10.977   2.799 -1.9561  3.7856  0.3533
 3579SOL     OW14141   2.611   2.121   6.401  0.6301  0.1607 -0.0515
 3579SOL    HW114142   2.554   2.104   6.476  0.2472 -0.1530 -0.4066
 3579SOL    HW214143   2.626   2.215   6.402  0.1014  0.2431  0.0460
 3580SOL     OW14144   9.408   4.197  10.329  0.4469 -0.0636  0.2621
 3580SOL    HW114145   9.340   4.132  10.316 -1.5896  1.6443  1.8940
 3580SOL    HW214146   9.449   4.208  10.243 -1.6597 -0.7999 -0.8611
 3581SOL     OW14147   0.001   9.044  10.470 -0.3199 -0.0025 -0.3912
 3581SOL    HW114148   0.033   8.978  10.531  0.5647  0.1219 -0.7036
 3581SOL    HW214149   0.068   9.047  10.402 -0.5223  0.9638 -0.5539
 3582SOL     OW14150   9.062   8.074   5.573 -0.3163  0.1903  0.2469
 3582SOL    HW114151   9.090   8.162   5.547 -0.5554 -0.0650 -0.8984
 3582SOL    HW214152   9.056   8.026   5.491 -0.6934 -0.7510  0.8247
 3583SOL     OW14153   3.789   4.197   8.544 -0.2159 -0.3819 -0.0777
 3583SOL    HW114154   3.752   4.189   8.631  1.7993 -0.8310  0.7686
 3583SOL    HW214155   3.873   4.241   8.557  0.3164 -0.8600 -1.7168
 3584SOL     OW14156   3.266   9.267   4.240  0.0953  0.1051  0.6864
 3584SOL    HW114157   3.186   9.319   4.246 -0.9149 -1.2347 -0.8248
 3584SOL    HW214158   3.312   9.305   4.164 -0.8481 -1.4218 -0.6892
 3585SOL     OW14159   7.293   0.943   9.916  0.4787  0.3964  0.2158
 3585SOL    HW114160   7.306   1.021   9.968  1.3120  0.3921  0.0188
 3585SOL    HW214161   7.317   0.969   9.827 -0.1693  0.1870 -0.0222
 3586SOL     OW14162  10.279   9.804   6.122 -0.0126 -0.1696  0.2588
 3586SOL    HW114163  10.203   9.764   6.164  0.3547 -0.1004  0.9869
 3586SOL    HW214164  10.244   9.882   6.079  0.2203  1.7025  3.3794
 3587SOL     OW14165   0.896   0.172   6.290 -0.5380 -0.1358 -0.0562
 3587SOL    HW114166   0.851   0.089   6.275  0.1646 -0.8906  1.8453
 3587SOL    HW214167   0.983   0.160   6.251  0.0820 -0.8566  1.4918
 3588SOL     OW14168   7.465   8.978   4.097 -0.1045  0.1323  0.4170
 3588SOL    HW114169   7.450   9.068   4.068  0.6179  0.3882  0.8205
 3588SOL    HW214170   7.404   8.925   4.045 -0.3994  0.8325  0.0470
 3589SOL     OW14171   8.420   1.902   9.738  0.3476 -0.1123 -0.2170
 3589SOL    HW114172   8.443   1.993   9.718 -0.1746  0.3901  1.4141
 3589SOL    HW214173   8.328   1.894   9.712 -0.2751  0.4885  1.6875
 3590SOL     OW14174   4.879  10.538   0.339  0.0998 -0.3843  0.3605
 3590SOL    HW114175   4.799  10.581   0.370  1.2617  0.7118  1.9529
 3590SOL    HW214176   4.928  10.518   0.420  1.2547 -1.4010 -0.5658
 3591SOL     OW14177   0.625   9.378   4.253 -0.6261 -0.2533 -0.4946
 3591SOL    HW114178   0.594   9.459   4.213 -1.0770 -0.1718  0.0070
 3591SOL    HW214179   0.557   9.356   4.317 -0.0780 -0.5502 -0.0079
 3592SOL     OW14180   2.934   2.700   8.090 -0.2259 -0.1618  0.0355
 3592SOL    HW114181   2.955   2.776   8.145  1.4701 -0.5971 -0.0022
 3592SOL    HW214182   2.987   2.629   8.126 -0.6960 -0.9777 -0.8675
 3593SOL     OW14183  10.283   1.551   9.998 -0.5045  0.4846  0.1742
 3593SOL    HW114184  10.246   1.532  10.084  0.8239  0.4830  0.7637
 3593SOL    HW214185  10.211   1.537   9.937 -0.9557 -1.3860  1.0980
 3594SOL     OW14186   8.910   1.434   4.690  0.2230  0.2306  0.7925
 3594SOL    HW114187   8.840   1.411   4.629 -0.8638  1.2299  1.6524
 3594SOL    HW214188   8.937   1.351   4.729  0.6185 -0.3586 -0.7048
 3595SOL     OW14189  10.100   1.126   3.279 -0.2057 -0.1224 -0.1098
 3595SOL    HW114190  10.158   1.074   3.335 -0.7377 -0.9271 -0.3007
 3595SOL    HW214191  10.160   1.181   3.228  0.3767 -0.7745 -0.1382
 3596SOL     OW14192  10.655   2.293   2.177 -0.3661  0.0413  0.2684
 3596SOL    HW114193  10.708   2.285   2.097  0.3465  0.8801  0.6505
 3596SOL    HW214194  10.654   2.204   2.213  0.7978  0.0182  0.2686
 3597SOL     OW14195   1.583   8.958   0.907  0.4463 -0.4012 -0.2743
 3597SOL    HW114196   1.667   8.946   0.863  0.2909 -1.0937 -0.3808
 3597SOL    HW214197   1.517   8.947   0.839  0.3013  1.2413 -0.4132
 3598SOL     OW14198   6.319  10.279   8.594 -0.3028 -0.0697  0.3489
 3598SOL    HW114199   6.300  10.360   8.547 -1.4601  1.2417  2.9327
 3598SOL    HW214200   6.362  10.308   8.675 -2.0035 -1.8692  1.9788
 3599SOL     OW14201   9.805   8.027   4.984 -0.0263  0.2197 -0.4879
 3599SOL    HW114202   9.833   7.936   4.974 -0.0221 -0.0024  1.3170
 3599SOL    HW214203   9.724   8.033   4.934  1.4454 -0.0122 -2.9866
 3600SOL     OW14204   1.054   2.599   4.074  0.0399  0.4252 -0.0531
 3600SOL    HW114205   1.018   2.554   3.997  1.3085 -1.9636  0.6952
 3600SOL    HW214206   1.002   2.565   4.147  1.2682 -0.1183  0.5727
 3601SOL     OW14207   9.174   6.355   6.540 -0.5097 -0.3941 -0.2608
 3601SOL    HW114208   9.259   6.397   6.554 -0.8887  0.4661 -0.4967
 3601SOL    HW214209   9.179   6.321   6.450 -0.4562 -0.2567 -0.3095
 3602SOL     OW14210   9.050  10.394   5.673  0.5436 -0.2546  0.0679
 3602SOL    HW114211   9.049  10.472   5.728  0.8965 -0.5029  0.4330
 3602SOL    HW214212   8.959  10.381   5.648  0.5432  0.5406 -0.3773
 3603SOL     OW14213   8.580   5.756   8.311 -0.3358 -0.7274  0.4070
 3603SOL    HW114214   8.601   5.843   8.346 -0.7895 -1.5160  2.7425
 3603SOL    HW214215   8.665   5.711   8.306 -0.4185 -1.0540  1.7821
 3604SOL     OW14216   7.091   3.799  10.094 -0.0874 -0.2563 -0.7198
 3604SOL    HW114217   7.009   3.844  10.112 -0.3816 -1.3817  0.9194
 3604SOL    HW214218   7.087   3.721  10.149  1.6354 -0.8405 -1.4025
 3605SOL     OW14219   1.529   5.772   9.823 -0.0640  0.3789  0.5229
 3605SOL    HW114220   1.582   5.702   9.859 -0.0653  0.2123  0.2088
 3605SOL    HW214221   1.509   5.829   9.897 -0.1452 -0.0067  0.7986
 3606SOL     OW14222   5.131   7.086   3.811 -0.2125  0.7704 -0.0819
 3606SOL    HW114223   5.109   7.013   3.869 -0.9176  0.1355 -1.1309
 3606SOL    HW214224   5.223   7.104   3.829 -0.9894  2.0036  2.7786
 3607SOL     OW14225   2.933   0.225   4.778 -0.4165 -0.2324 -0.0192
 3607SOL    HW114226   2.929   0.286   4.704  2.9097  0.1701  0.0801
 3607SOL    HW214227   2.904   0.278   4.853 -2.3745 -0.2334 -0.7354
 3608SOL     OW14228   4.836   0.526   3.196  0.2919 -0.0514 -0.2144
 3608SOL    HW114229   4.915   0.546   3.245  0.5628 -1.7194  0.0450
 3608SOL    HW214230   4.767   0.521   3.262  0.3185 -0.4921 -0.2229
 3609SOL     OW14231   9.925   9.256   1.054 -0.3055  0.2031 -0.1219
 3609SOL    HW114232  10.016   9.260   1.022 -0.4294  1.7587 -0.3154
 3609SOL    HW214233   9.914   9.165   1.081  0.8049 -0.4080 -1.6048
 3610SOL     OW14234   7.307   6.800   4.298  0.0567 -0.1850 -0.0575
 3610SOL    HW114235   7.364   6.814   4.373  0.5235  0.2552 -0.4904
 3610SOL    HW214236   7.228   6.760   4.334 -0.2397  1.1934  0.8315
 3611SOL     OW14237   5.489   7.845   2.929 -0.5009 -0.2261  0.3847
 3611SOL    HW114238   5.470   7.789   3.005  0.3410 -2.1547 -0.8009
 3611SOL    HW214239   5.580   7.827   2.908  0.3123  2.9081  1.0244
 3612SOL     OW14240   7.436   5.436   2.829  0.3985  0.7160 -0.6391
 3612SOL    HW114241   7.446   5.521   2.872  0.8369  0.7298 -0.7584
 3612SOL    HW214242   7.482   5.374   2.886 -0.5841  0.4286 -0.1611
 3613SOL     OW14243   2.146   6.005   9.432 -0.1415  0.0748 -0.2715
 3613SOL    HW114244   2.235   6.000   9.467  0.1695  0.0573 -1.0621
 3613SOL    HW214245   2.093   6.035   9.506  0.6050  0.5956  0.0540
 3614SOL     OW14246   1.399   6.205   9.646  0.1525 -0.1681  0.3016
 3614SOL    HW114247   1.385   6.189   9.553  1.0940  1.0258 -0.0635
 3614SOL    HW214248   1.382   6.121   9.688 -0.9883 -0.5344 -0.8622
 3615SOL     OW14249   8.128   7.853   4.237  0.0479  0.0762  0.3168
 3615SOL    HW114250   8.136   7.793   4.163 -0.7399  0.1191  0.1963
 3615SOL    HW214251   8.086   7.800   4.306 -1.5512  0.7622 -0.1150
 3616SOL     OW14252   0.747   7.464   3.358  0.0951  0.2227 -0.0495
 3616SOL    HW114253   0.678   7.530   3.356 -0.3949 -0.3032 -0.9436
 3616SOL    HW214254   0.704   7.383   3.331  0.6891 -0.4683  1.0213
 3617SOL     OW14255   5.905   4.082   1.769 -0.2724  0.5641  0.1817
 3617SOL    HW114256   5.996   4.092   1.743 -0.1726 -0.2849  0.2022
 3617SOL    HW214257   5.858   4.151   1.721  0.1279 -0.0371 -1.0745
 3618SOL     OW14258   2.720   7.023  10.621  0.4459  0.4399 -0.6475
 3618SOL    HW114259   2.692   7.074  10.697 -2.1529  0.5286 -1.6117
 3618SOL    HW214260   2.804   6.985  10.647 -0.2419  0.7163  2.1545
 3619SOL     OW14261   1.747   1.494   7.392 -0.1030 -0.5387 -0.2457
 3619SOL    HW114262   1.779   1.404   7.399  0.0464 -0.5668 -1.2081
 3619SOL    HW214263   1.668   1.495   7.446  0.8297 -0.7807  1.1779
 3620SOL     OW14264   2.813   0.910   5.395 -0.0041  0.2442 -0.4842
 3620SOL    HW114265   2.867   0.863   5.331  0.1051 -1.3432  0.7556
 3620SOL    HW214266   2.797   0.995   5.354  1.5939 -0.0711 -1.8254
 3621SOL     OW14267   3.676   7.916   5.230  0.1880  0.5821 -0.2996
 3621SOL    HW114268   3.764   7.892   5.201  0.3221 -1.3693  1.5740
 3621SOL    HW214269   3.628   7.833   5.230 -1.4190  1.5001 -0.5038
 3622SOL     OW14270   0.570   3.908   9.759  0.1036  0.0801 -0.1168
 3622SOL    HW114271   0.564   3.917   9.664 -0.6604  1.8238  0.0823
 3622SOL    HW214272   0.598   3.994   9.790  2.0742 -0.9674  1.1136
 3623SOL     OW14273   8.026  10.880   4.556 -0.3800 -0.0551 -0.2715
 3623SOL    HW114274   8.097  10.816   4.565 -1.9123 -1.7062  0.3002
 3623SOL    HW214275   8.038  10.940   4.629 -0.4575 -1.2267  0.7194
 3624SOL     OW14276   1.292   4.173   0.484  0.0296 -0.6189 -0.3155
 3624SOL    HW114277   1.213   4.172   0.430 -0.5284  2.0848  0.3610
 3624SOL    HW214278   1.336   4.255   0.462  1.5340 -1.0678  0.8797
 3625SOL     OW14279   9.341   1.729   4.874  0.6223 -0.2431  0.2638
 3625SOL    HW114280   9.436   1.735   4.865  0.5695 -0.6870 -0.6645
 3625SOL    HW214281   9.306   1.789   4.808  0.2580  0.6252  1.2329
 3626SOL     OW14282   8.158   3.059   4.034 -0.2262  0.2537 -0.4453
 3626SOL    HW114283   8.108   3.129   3.991 -1.9526 -1.3363 -1.1198
 3626SOL    HW214284   8.098   3.026   4.101  0.7994 -0.1976  0.2455
 3627SOL     OW14285   2.277   0.019   1.681 -0.0201 -0.3284  0.0534
 3627SOL    HW114286   2.302   0.101   1.638 -0.7540 -1.2908 -2.3388
 3627SOL    HW214287   2.360  -0.021   1.707  0.4644  0.3215 -0.4698
 3628SOL     OW14288   2.562   5.272   9.714  0.0918  0.1278  0.4459
 3628SOL    HW114289   2.480   5.321   9.723 -1.0487 -1.8340  0.9013
 3628SOL    HW214290   2.538   5.193   9.666  1.9112 -0.0155 -0.2754
 3629SOL     OW14291   9.577   2.963   4.836 -0.3860 -0.5107 -0.4404
 3629SOL    HW114292   9.516   3.033   4.816 -0.8118 -0.0817  2.1514
 3629SOL    HW214293   9.662   2.994   4.804 -0.5890  1.1901  0.6411
 3630SOL     OW14294   2.833   5.979   8.982  0.1474  0.7542  0.1441
 3630SOL    HW114295   2.746   5.942   8.967  0.3273  0.5060 -0.3092
 3630SOL    HW214296   2.874   5.979   8.895  0.7090  0.5966  0.4073
 3631SOL     OW14297   3.043   6.052   6.928 -0.7075 -0.2276 -0.2889
 3631SOL    HW114298   2.967   6.107   6.913 -1.0509 -1.0241 -1.4766
 3631SOL    HW214299   3.090   6.095   7.000 -1.2734  1.2844 -0.8106
 3632SOL     OW14300   1.112   9.671   4.237 -0.4051  0.0697 -0.0580
 3632SOL    HW114301   1.131   9.633   4.323 -1.6193  0.3273  0.3298
 3632SOL    HW214302   1.126   9.598   4.175  0.7140 -0.0442  0.3156
 3633SOL     OW14303   5.896   7.780   4.456 -0.2008  0.4889  0.1547
 3633SOL    HW114304   5.822   7.745   4.505 -0.0371 -1.5360 -1.0005
 3633SOL    HW214305   5.930   7.850   4.511 -1.7750  0.1584  1.5867
 3634SOL     OW14306   1.530   2.830   8.433 -0.3626  0.2296  0.3128
 3634SOL    HW114307   1.610   2.873   8.463 -0.2195 -0.4656  0.9595
 3634SOL    HW214308   1.460   2.875   8.479 -0.3984  1.3144 -0.8055
 3635SOL     OW14309   8.648   7.513   4.881  0.1562 -0.0833  0.0437
 3635SOL    HW114310   8.597   7.570   4.823 -2.4466 -3.7234 -1.4211
 3635SOL    HW214311   8.724   7.489   4.829 -0.6021 -0.8390 -0.7409
 3636SOL     OW14312   0.360   8.448   2.786 -0.0830  0.2408 -0.6083
 3636SOL    HW114313   0.326   8.521   2.735 -1.0492 -0.7862 -1.4445
 3636SOL    HW214314   0.372   8.484   2.874 -3.8227  0.5129 -0.1630
 3637SOL     OW14315  10.815   1.245   5.411  0.2649  0.3939 -0.4751
 3637SOL    HW114316  10.834   1.321   5.355 -1.2840  0.7919 -0.4703
 3637SOL    HW214317  10.839   1.274   5.499 -1.8555  1.4839 -0.2199
 3638SOL     OW14318  10.559   6.716   3.790  0.4279  0.4375 -0.2351
 3638SOL    HW114319  10.590   6.654   3.857 -1.6246  0.5125  0.8345
 3638SOL    HW214320  10.590   6.679   3.707 -2.0283 -2.9440  0.2102
 3639SOL     OW14321   1.573   8.074   3.953 -0.2066  0.0099 -0.2591
 3639SOL    HW114322   1.531   8.160   3.957  1.5686  0.8449  1.7679
 3639SOL    HW214323   1.553   8.033   4.037  0.6090 -0.7423 -0.4238
 3640SOL     OW14324   9.507   7.498   3.608 -0.1879  1.0099  0.2184
 3640SOL    HW114325   9.561   7.422   3.626 -0.6092  1.0000  1.4613
 3640SOL    HW214326   9.421   7.476   3.644 -0.7927  1.3734 -0.9589
 3641SOL     OW14327  10.039   1.748   3.477  0.5854  0.1320  0.6215
 3641SOL    HW114328   9.995   1.682   3.531 -2.3478  0.7555 -0.8968
 3641SOL    HW214329  10.013   1.726   3.387  1.6141  1.8792 -0.1292
 3642SOL     OW14330   5.792   7.447   6.692  0.5696  0.6892 -0.0154
 3642SOL    HW114331   5.878   7.407   6.679  0.8973  1.2423  0.4465
 3642SOL    HW214332   5.758   7.405   6.771  1.1673  1.7495  0.8126
 3643SOL     OW14333   4.216   5.656   8.998  0.3690  0.9544  0.5251
 3643SOL    HW114334   4.275   5.590   9.035  0.8406  1.4935  0.7460
 3643SOL    HW214335   4.238   5.659   8.905 -0.3168  0.1163  0.3313
 3644SOL     OW14336   8.180   7.224   7.491 -0.3763  0.0428 -0.3718
 3644SOL    HW114337   8.192   7.188   7.579  0.7656  1.4623  0.0695
 3644SOL    HW214338   8.242   7.175   7.437 -0.4647 -0.2362 -0.2194
 3645SOL     OW14339   1.186  10.835   0.909  0.1942 -0.1109 -0.1596
 3645SOL    HW114340   1.161  10.782   0.833  1.3658 -0.6716 -0.1662
 3645SOL    HW214341   1.103  10.860   0.949 -0.4201 -0.2388 -1.3359
 3646SOL     OW14342   8.407  10.032  10.797  0.3343 -0.5405 -0.2749
 3646SOL    HW114343   8.318  10.066  10.805  0.6290  0.0179  0.5887
 3646SOL    HW214344   8.422  10.025  10.703  0.0025  0.9967 -0.4449
 3647SOL     OW14345   9.535   0.804   8.134 -0.1475 -0.0234 -0.3113
 3647SOL    HW114346   9.563   0.883   8.088 -0.1980  0.8293  1.1032
 3647SOL    HW214347   9.463   0.770   8.081 -0.0297  0.7922 -1.0106
 3648SOL     OW14348   7.624   8.668   0.051 -0.5072 -0.1175 -0.9346
 3648SOL    HW114349   7.598   8.577   0.035 -0.4671 -0.3069  0.0831
 3648SOL    HW214350   7.563   8.720  -0.002 -1.3327 -0.6721 -0.5375
 3649SOL     OW14351   1.500   1.796   1.654  0.0980 -0.1248 -0.9803
 3649SOL    HW114352   1.526   1.705   1.645 -0.8513 -0.4844 -0.1785
 3649SOL    HW214353   1.451   1.799   1.736  1.5398  1.4294 -0.1425
 3650SOL     OW14354   2.997   8.938   2.407 -0.9442 -0.4766  0.2594
 3650SOL    HW114355   3.067   8.904   2.351 -1.0811 -1.7120  0.8199
 3650SOL    HW214356   2.917   8.926   2.356 -0.9475 -0.6473  0.3040
 3651SOL     OW14357   0.111   9.427  10.530  0.2830  0.3473  0.4941
 3651SOL    HW114358   0.061   9.357  10.572  0.7630  0.2074  0.8436
 3651SOL    HW214359   0.081   9.428  10.439 -0.0776  0.0145  0.6110
 3652SOL     OW14360   1.558   3.970   7.789  0.3116 -0.4484 -0.1736
 3652SOL    HW114361   1.567   3.878   7.765  3.7813 -0.4845  1.0929
 3652SOL    HW214362   1.582   3.974   7.881  1.4776  1.9205 -0.5415
 3653SOL     OW14363   2.968   2.710   3.862 -0.4227 -0.1678  0.0083
 3653SOL    HW114364   2.960   2.631   3.915 -1.8500  0.2938  0.5081
 3653SOL    HW214365   2.966   2.678   3.772 -0.3130 -0.7619  0.2124
 3654SOL     OW14366   1.206   1.277   9.392  0.3137 -0.2158  0.2735
 3654SOL    HW114367   1.182   1.319   9.309  0.4083 -0.0321  0.3388
 3654SOL    HW214368   1.128   1.227   9.417 -0.4073  1.2612  1.0469
 3655SOL     OW14369   3.639   2.389   3.744  0.2356 -0.7916  0.1187
 3655SOL    HW114370   3.703   2.338   3.793  0.1692  0.3065  1.3825
 3655SOL    HW214371   3.560   2.335   3.743 -0.1900 -0.2787  2.4262
 3656SOL     OW14372   1.216   0.003   2.040  0.1093 -0.1681  0.6901
 3656SOL    HW114373   1.220  -0.076   1.985  0.4753 -0.2027  0.7656
 3656SOL    HW214374   1.303   0.041   2.033 -0.2820  0.6184  0.0923
 3657SOL     OW14375   1.530   1.996   5.829  0.4299  0.2419  0.2467
 3657SOL    HW114376   1.504   2.088   5.836  1.5995  0.4689  1.6903
 3657SOL    HW214377   1.586   1.981   5.905 -1.2774 -2.1840  1.0650
 3658SOL     OW14378   5.207  10.377   1.082 -0.0461  0.4317  1.0695
 3658SOL    HW114379   5.239  10.467   1.092 -1.4586  0.8902  1.4878
 3658SOL    HW214380   5.223  10.356   0.990 -0.0887  1.2471  0.8753
 3659SOL     OW14381   0.978   6.583   0.381 -0.6471  0.2530  0.0440
 3659SOL    HW114382   1.056   6.529   0.390 -0.0139  1.2950  0.8761
 3659SOL    HW214383   0.919   6.551   0.449 -0.7532 -0.1892 -0.2504
 3660SOL     OW14384   0.230   2.475   0.766 -0.5880  0.3139 -0.0684
 3660SOL    HW114385   0.282   2.438   0.695 -1.4827  1.3564 -1.2841
 3660SOL    HW214386   0.252   2.568   0.767 -2.1916  0.7229 -0.4257
 3661SOL     OW14387   5.162   3.748   7.926 -0.4201  0.4110 -0.0210
 3661SOL    HW114388   5.250   3.785   7.930 -0.0742 -0.5947  2.0951
 3661SOL    HW214389   5.118   3.781   8.005 -1.6086  0.0603 -0.5258
 3662SOL     OW14390   6.818   1.670  10.692  0.6925 -0.3362 -0.0216
 3662SOL    HW114391   6.859   1.722  10.623 -0.1871  0.7372  0.2484
 3662SOL    HW214392   6.724   1.686  10.681  0.4928 -0.8901  0.8399
 3663SOL     OW14393   3.114   7.282   3.054  0.1025  0.4453 -0.3495
 3663SOL    HW114394   3.139   7.190   3.047  0.8207  0.5356  0.9836
 3663SOL    HW214395   3.141   7.308   3.142  1.3631  2.3568 -1.2708
 3664SOL     OW14396   6.057   2.614   9.040 -0.0012  0.4082  0.3292
 3664SOL    HW114397   6.092   2.701   9.019  2.8177 -0.6970  0.1591
 3664SOL    HW214398   6.028   2.621   9.131  0.3303  1.4980  0.3643
 3665SOL     OW14399   2.003   5.567   6.162 -0.0888 -0.3239 -0.2405
 3665SOL    HW114400   2.047   5.538   6.083  1.8081  0.6826  0.4056
 3665SOL    HW214401   1.985   5.660   6.147  1.4935  0.2228  0.9842
 3666SOL     OW14402   7.661   1.166   2.401  0.1249 -0.1058  0.4634
 3666SOL    HW114403   7.728   1.202   2.460  0.0024 -1.5237  1.5010
 3666SOL    HW214404   7.701   1.173   2.314  1.1045  0.2454  0.9224
 3667SOL     OW14405   2.209  10.616   9.922 -0.5566  0.6598 -0.3072
 3667SOL    HW114406   2.245  10.699   9.890 -0.9834  0.2105 -1.9817
 3667SOL    HW214407   2.274  10.550   9.896 -1.8001  0.0500 -1.9413
 3668SOL     OW14408   1.007   4.253   8.013  0.1500 -0.0733  0.2566
 3668SOL    HW114409   0.939   4.186   8.005  0.2417 -0.1847  0.4200
 3668SOL    HW214410   1.077   4.224   7.954 -0.3204  0.5046 -0.6115
 3669SOL     OW14411   2.288   4.269   7.710 -0.5003  0.5342 -0.3778
 3669SOL    HW114412   2.214   4.231   7.663 -0.0269 -2.3232  1.0755
 3669SOL    HW214413   2.276   4.241   7.801  1.1299  1.9779  0.3125
 3670SOL     OW14414   3.028   1.779   0.451 -0.0778 -0.4683 -0.2235
 3670SOL    HW114415   3.060   1.769   0.362 -0.0904  1.4078 -0.4467
 3670SOL    HW214416   2.963   1.849   0.446 -0.0997 -0.3577  1.2497
 3671SOL     OW14417   5.434   8.158   9.437  0.0395  0.1160  0.3833
 3671SOL    HW114418   5.463   8.082   9.387 -0.2393  0.4216 -0.2435
 3671SOL    HW214419   5.479   8.232   9.396  1.6615  0.1176  2.0480
 3672SOL     OW14420   2.465   2.072   5.248  0.3901  0.0562 -0.5103
 3672SOL    HW114421   2.385   2.028   5.277  1.7433 -0.4669  2.5142
 3672SOL    HW214422   2.531   2.049   5.313  2.2424  3.0192 -1.2424
 3673SOL     OW14423  10.136   2.770   1.354  0.4052  0.1166 -0.0127
 3673SOL    HW114424  10.076   2.763   1.428 -0.4760  2.2560 -0.5018
 3673SOL    HW214425  10.106   2.703   1.293  0.3174 -0.7578  0.9730
 3674SOL     OW14426   5.155   0.674   5.233 -0.6079  0.0920  1.0129
 3674SOL    HW114427   5.205   0.634   5.304  0.9928  0.6215  0.2214
 3674SOL    HW214428   5.130   0.760   5.266  1.5002  0.9774  0.4028
 3675SOL     OW14429   8.487   2.992   4.561  0.0001  0.3401  0.7826
 3675SOL    HW114430   8.397   2.997   4.529  0.4145 -0.4464 -0.5492
 3675SOL    HW214431   8.496   2.902   4.592  0.4948  0.2429  0.3659
 3676SOL     OW14432   6.721   2.308   2.087 -0.3394 -0.2171  0.6664
 3676SOL    HW114433   6.637   2.352   2.099  1.1947  2.2234  2.9503
 3676SOL    HW214434   6.715   2.231   2.144 -1.2684 -0.3723  0.3633
 3677SOL     OW14435   1.967   2.141   3.008 -0.4402 -0.3268 -0.1405
 3677SOL    HW114436   2.011   2.055   3.015  0.9230  0.3140 -0.7063
 3677SOL    HW214437   1.937   2.146   2.917 -1.6548 -0.7273  0.2222
 3678SOL     OW14438   7.785   2.008   8.004 -0.8881  0.2401 -0.2062
 3678SOL    HW114439   7.880   2.008   8.004 -0.7078 -4.5562  2.3076
 3678SOL    HW214440   7.760   1.978   7.917  0.0407 -0.9823 -0.0655
 3679SOL     OW14441   0.581   0.457   3.136 -0.2657  0.1642  0.1681
 3679SOL    HW114442   0.545   0.535   3.179  0.4117  0.6562 -0.1397
 3679SOL    HW214443   0.511   0.428   3.077 -0.0596  1.3164 -0.6768
 3680SOL     OW14444   1.167  10.365   9.540  0.3922  0.3220  0.0279
 3680SOL    HW114445   1.104  10.437   9.529 -0.3162 -0.2359  0.4000
 3680SOL    HW214446   1.166  10.347   9.634 -0.7102 -1.3158 -0.2825
 3681SOL     OW14447   0.775   7.141   6.096 -0.6496 -0.4781 -0.1785
 3681SOL    HW114448   0.715   7.130   6.022 -1.2564  0.2822  0.1901
 3681SOL    HW214449   0.726   7.108   6.172 -0.1166 -1.0439 -0.0819
 3682SOL     OW14450   1.854   0.291  10.224 -0.4269  0.0792  0.0607
 3682SOL    HW114451   1.908   0.292  10.144 -0.0181  1.4757  0.3331
 3682SOL    HW214452   1.807   0.208  10.220  3.3509 -2.2208  0.8968
 3683SOL     OW14453   9.781  10.056   0.041  0.0242 -0.0142  0.1955
 3683SOL    HW114454   9.800  10.060  -0.053 -0.0411 -2.4035  0.0509
 3683SOL    HW214455   9.844  10.117   0.080 -0.4609  1.6100 -1.4401
 3684SOL     OW14456   5.441   7.536   6.528  0.0426 -0.2942 -0.1028
 3684SOL    HW114457   5.528   7.554   6.493  0.1331 -1.0341 -0.2640
 3684SOL    HW214458   5.383   7.545   6.453  0.2701 -2.1546 -0.5094
 3685SOL     OW14459   5.573   1.834   1.673  0.0878  0.1422  0.1661
 3685SOL    HW114460   5.594   1.762   1.732  0.1912 -0.3522 -0.4647
 3685SOL    HW214461   5.477   1.840   1.676  0.0506 -0.3081 -0.1134
 3686SOL     OW14462   5.210   7.701   4.472 -0.0172  0.1171  0.7044
 3686SOL    HW114463   5.301   7.726   4.484 -0.7067  2.4796  1.1504
 3686SOL    HW214464   5.160   7.778   4.498 -2.1032 -0.6134 -1.0031
 3687SOL     OW14465   8.231   7.631   3.032 -0.6170 -0.0242  0.0176
 3687SOL    HW114466   8.262   7.631   3.123  0.3407 -1.2453 -0.2941
 3687SOL    HW214467   8.175   7.553   3.026  1.1834 -1.2704 -1.0283
 3688SOL     OW14468   7.677   1.728  10.042 -0.2944 -0.2987  0.0385
 3688SOL    HW114469   7.591   1.739  10.083  0.1188 -1.2110  1.1990
 3688SOL    HW214470   7.702   1.638  10.063  0.1448 -0.6360 -1.8448
 3689SOL     OW14471   1.986   5.810   2.433 -0.2729 -0.5277  0.1903
 3689SOL    HW114472   1.919   5.809   2.365  0.2233 -1.0830 -0.2975
 3689SOL    HW214473   2.053   5.748   2.402  0.0927 -0.5675  1.0406
 3690SOL     OW14474   1.344   4.655   7.871  0.7546 -0.4820 -0.0906
 3690SOL    HW114475   1.349   4.632   7.779 -0.8208 -0.0478 -0.2915
 3690SOL    HW214476   1.278   4.724   7.876  1.7934  0.4484  1.1841
 3691SOL     OW14477   8.138   6.108   4.411 -0.6683  0.2633  0.3536
 3691SOL    HW114478   8.131   6.104   4.316 -1.5759  0.1018  0.4231
 3691SOL    HW214479   8.155   6.018   4.438 -1.4163  0.1438  0.4218
 3692SOL     OW14480   0.345   4.151   3.814 -0.3874 -0.0479  0.4413
 3692SOL    HW114481   0.351   4.131   3.720  1.1056  1.3042  0.2369
 3692SOL    HW214482   0.305   4.237   3.818  1.9210  1.0305  0.9201
 3693SOL     OW14483  10.301   5.575   0.565 -0.1958 -0.1393  0.5291
 3693SOL    HW114484  10.276   5.567   0.657  0.6802 -1.0194  0.6999
 3693SOL    HW214485  10.346   5.659   0.559  1.0232 -0.7253  1.2173
 3694SOL     OW14486   9.063   0.446   7.730 -0.2608 -0.2180  0.7957
 3694SOL    HW114487   9.014   0.449   7.812 -2.5060  0.3011 -0.5000
 3694SOL    HW214488   9.061   0.354   7.704  0.2903 -0.3518  1.2098
 3695SOL     OW14489   5.999   9.481  10.683  0.6014  0.2073 -0.3265
 3695SOL    HW114490   6.094   9.490  10.679  0.5958  0.1293 -0.6472
 3695SOL    HW214491   5.983   9.420  10.755  0.7885  0.3320 -0.1809
 3696SOL     OW14492   4.847   4.884   7.914  0.5547 -0.2622 -0.4830
 3696SOL    HW114493   4.898   4.806   7.896  2.2764  0.6515  0.3473
 3696SOL    HW214494   4.900   4.956   7.880  0.3273  0.7870  1.3283
 3697SOL     OW14495   1.374   5.758   9.078  0.0078 -0.5484  0.4564
 3697SOL    HW114496   1.322   5.788   9.004 -0.2860 -0.5694  0.6573
 3697SOL    HW214497   1.345   5.669   9.095  0.5896 -0.8032  0.1280
 3698SOL     OW14498   8.834   3.902   9.194  0.2329 -0.3295  0.5421
 3698SOL    HW114499   8.791   3.941   9.271 -0.7417  1.4407 -0.8563
 3698SOL    HW214500   8.765   3.852   9.151 -0.1026  1.3533 -0.9320
 3699SOL     OW14501   0.256   0.316   5.685  0.0397  0.3196 -0.6351
 3699SOL    HW114502   0.349   0.322   5.706  0.1325  0.1208 -0.9747
 3699SOL    HW214503   0.251   0.338   5.592 -0.2851  0.5835 -0.5555
 3700SOL     OW14504   6.299   0.903  10.833  0.1725  0.2934  0.2321
 3700SOL    HW114505   6.390   0.924  10.853 -0.1777 -0.6050  3.0716
 3700SOL    HW214506   6.256   0.989  10.824  1.1241  0.7170 -0.3173
 3701SOL     OW14507   3.351   5.592  10.552 -0.2831  0.1221  0.2157
 3701SOL    HW114508   3.400   5.515  10.580  0.8454  0.4751 -0.7516
 3701SOL    HW214509   3.412   5.641  10.497 -1.3240  1.1918 -0.0147
 3702SOL     OW14510   0.099   0.898   0.938 -0.1071  0.3698 -0.3098
 3702SOL    HW114511   0.170   0.834   0.944 -1.9013 -1.6456  0.0047
 3702SOL    HW214512   0.037   0.858   0.876 -0.7372  2.3301 -0.9710
 3703SOL     OW14513   2.876   8.712   4.832  0.0287 -0.3302  0.3099
 3703SOL    HW114514   2.832   8.775   4.775  0.9623  0.5661  0.5693
 3703SOL    HW214515   2.937   8.765   4.884  1.2293 -1.5269  0.1334
 3704SOL     OW14516   2.721   5.843   2.188  0.0213 -0.6119  0.5269
 3704SOL    HW114517   2.792   5.900   2.159  1.0598 -1.9430  0.4013
 3704SOL    HW214518   2.644   5.872   2.138  0.6080  0.4806  0.2631
 3705SOL     OW14519   7.328   3.619   9.547 -0.4450 -0.1179  0.4322
 3705SOL    HW114520   7.314   3.683   9.617  0.6192  2.4629 -1.6002
 3705SOL    HW214521   7.246   3.619   9.498 -0.6882 -0.8212  0.8483
 3706SOL     OW14522   7.364   6.436   1.564 -0.2988  0.4061  0.5048
 3706SOL    HW114523   7.343   6.392   1.482  0.9554  2.2758 -0.8747
 3706SOL    HW214524   7.284   6.482   1.588 -0.8487 -0.6121  0.6657
 3707SOL     OW14525   8.632   3.257   9.847  0.1345  0.0513 -0.8213
 3707SOL    HW114526   8.607   3.240   9.938  1.0143  0.7989 -0.4373
 3707SOL    HW214527   8.549   3.279   9.804 -0.6028 -2.2971 -0.6883
 3708SOL     OW14528   6.095   1.520   4.613 -0.4493  0.0378 -0.8789
 3708SOL    HW114529   6.173   1.512   4.557 -1.0956 -1.5300 -1.5653
 3708SOL    HW214530   6.030   1.562   4.556 -0.5634  0.0155 -0.7642
 3709SOL     OW14531   3.341   9.104   6.817  0.4301  0.0735 -0.2486
 3709SOL    HW114532   3.262   9.144   6.780 -0.5081 -1.2186  0.2903
 3709SOL    HW214533   3.387   9.176   6.859 -1.3459  0.5639  0.9030
 3710SOL     OW14534   1.336   1.152   9.026 -0.2254  0.0260  0.1403
 3710SOL    HW114535   1.310   1.232   9.072 -1.5941 -0.0502 -0.4648
 3710SOL    HW214536   1.292   1.082   9.074 -1.0883 -0.1181 -0.8409
 3711SOL     OW14537   8.785   8.775   9.891  0.0491 -0.0027  0.2531
 3711SOL    HW114538   8.706   8.764   9.944 -0.4216 -2.0610 -0.8005
 3711SOL    HW214539   8.833   8.845   9.934 -1.8727  0.6083  1.4954
 3712SOL     OW14540   1.105   5.429   4.200 -0.0323 -0.3796  0.3129
 3712SOL    HW114541   1.195   5.398   4.207 -0.2080 -1.2157 -0.9346
 3712SOL    HW214542   1.073   5.431   4.290  1.1145 -0.4441  0.7254
 3713SOL     OW14543   0.708   7.267  10.935 -0.1722 -0.4066  0.1548
 3713SOL    HW114544   0.705   7.174  10.912 -3.7375 -0.0478 -1.0410
 3713SOL    HW214545   0.675   7.271  11.024 -1.3683 -0.1655 -0.2891
 3714SOL     OW14546   7.997   9.186   0.923 -0.5518  0.9019  0.7331
 3714SOL    HW114547   8.020   9.267   0.877 -1.3401  1.3841  1.1950
 3714SOL    HW214548   7.996   9.119   0.854  1.2634  1.0481  0.5321
 3715SOL     OW14549   9.742  10.480   7.768  0.8485  0.7531  0.4714
 3715SOL    HW114550   9.792  10.449   7.692 -0.7738  0.4915 -0.5026
 3715SOL    HW214551   9.714  10.568   7.743  1.3889  1.1612  1.2942
 3716SOL     OW14552  10.416   2.702   8.250 -0.0044  0.1841  0.4610
 3716SOL    HW114553  10.347   2.640   8.225 -0.4823  1.4011 -1.3889
 3716SOL    HW214554  10.488   2.683   8.190  0.9313 -0.4519  1.7645
 3717SOL     OW14555   2.462   9.961   6.387 -0.8031 -0.4152 -0.2357
 3717SOL    HW114556   2.395   9.942   6.452 -0.0636  0.5971  0.8703
 3717SOL    HW214557   2.468   9.883   6.333 -1.2001 -1.4137  1.1548
 3718SOL     OW14558   4.666   5.247   2.907  0.3932 -0.4053 -0.0527
 3718SOL    HW114559   4.728   5.174   2.906  0.5974 -0.2304 -0.5015
 3718SOL    HW214560   4.719   5.324   2.890  0.2551 -0.0817  0.9838
 3719SOL     OW14561   4.703   0.478   1.971 -0.2128 -0.1380  0.1188
 3719SOL    HW114562   4.702   0.390   2.008  0.4497 -0.5770 -0.8750
 3719SOL    HW214563   4.673   0.534   2.042 -1.2350 -1.2388  0.5838
 3720SOL     OW14564   0.997   0.351   6.957  0.1771  0.1179 -0.0500
 3720SOL    HW114565   1.058   0.278   6.941 -0.1872 -0.5032  1.3036
 3720SOL    HW214566   0.947   0.359   6.876 -1.1868 -2.4967  0.4625
 3721SOL     OW14567   5.358   3.151   6.119  0.3753 -0.9382  0.1466
 3721SOL    HW114568   5.299   3.085   6.083  3.0853 -3.1675 -0.3597
 3721SOL    HW214569   5.369   3.215   6.048 -1.8780 -0.1645  0.4707
 3722SOL     OW14570   9.492   1.983   4.193 -0.3913 -0.1116 -0.0565
 3722SOL    HW114571   9.551   1.998   4.266  0.0451 -0.4358 -0.3385
 3722SOL    HW214572   9.547   1.943   4.125 -0.9458 -0.4865 -0.2929
 3723SOL     OW14573   4.718   6.112   6.844 -0.0823  0.2665  0.6358
 3723SOL    HW114574   4.772   6.130   6.768  0.5657 -2.8876  0.2917
 3723SOL    HW214575   4.780   6.105   6.917 -0.3729  0.1383  0.8749
 3724SOL     OW14576   0.822   6.644   8.742 -0.0497  0.0516 -0.6637
 3724SOL    HW114577   0.757   6.710   8.717  1.8123  2.5666  0.8925
 3724SOL    HW214578   0.900   6.667   8.691  0.5163 -1.1392 -0.3457
 3725SOL     OW14579   7.402   5.231   2.624 -0.3095 -0.1476  0.1819
 3725SOL    HW114580   7.398   5.314   2.670  1.4892 -0.3516  0.7251
 3725SOL    HW214581   7.491   5.225   2.592 -0.8456 -1.1768 -1.1646
 3726SOL     OW14582   0.378   2.052   1.044 -0.2779  0.6113  0.1823
 3726SOL    HW114583   0.326   2.027   0.967  0.2114 -1.0442  0.3623
 3726SOL    HW214584   0.326   2.119   1.087 -1.2999  0.4433 -0.7624
 3727SOL     OW14585   0.041  10.192  10.346  0.4185  0.0233 -0.4789
 3727SOL    HW114586   0.109  10.134  10.383  0.1389  0.2657  0.4326
 3727SOL    HW214587   0.083  10.232  10.270  0.9703 -0.5792 -0.5047
 3728SOL     OW14588   6.858  10.573   7.694  0.4904 -0.2124 -0.4232
 3728SOL    HW114589   6.879  10.567   7.787 -0.9921 -4.0005 -0.2425
 3728SOL    HW214590   6.898  10.655   7.666 -0.6202  1.9869  3.9194
 3729SOL     OW14591   7.924   1.655   0.465 -0.3060  0.7013 -0.0293
 3729SOL    HW114592   7.965   1.741   0.475 -0.1473  0.4446  1.6959
 3729SOL    HW214593   7.954   1.605   0.541 -0.9720 -0.6541 -0.6307
 3730SOL     OW14594   6.712   9.419   3.086 -0.6529 -0.0600 -0.4396
 3730SOL    HW114595   6.765   9.495   3.061  0.2489 -0.6945 -0.5071
 3730SOL    HW214596   6.634   9.456   3.127  0.1273  0.8862  0.2122
 3731SOL     OW14597  10.738   6.302  10.895  0.7345  0.3175  0.0519
 3731SOL    HW114598  10.681   6.238  10.853  2.7476 -1.3702 -0.1937
 3731SOL    HW214599  10.712   6.301  10.987 -1.9455  2.1432 -0.6089
 3732SOL     OW14600   5.295   6.910   6.004  0.1213 -0.3434 -0.3242
 3732SOL    HW114601   5.357   6.838   5.994 -0.4362 -0.9137  0.3128
 3732SOL    HW214602   5.343   6.976   6.054 -0.5910 -1.8036  2.3573
 3733SOL     OW14603   2.828   7.432   7.333 -0.4039 -0.2488  0.1093
 3733SOL    HW114604   2.797   7.522   7.344  1.1427  0.3174  0.0106
 3733SOL    HW214605   2.761   7.390   7.278 -0.3742  1.2908 -1.1523
 3734SOL     OW14606   7.667   5.510   9.529 -0.0855 -0.5174  0.3292
 3734SOL    HW114607   7.628   5.595   9.508  1.5141  0.0057 -0.6058
 3734SOL    HW214608   7.616   5.478   9.603 -1.2086  0.9029  0.1967
 3735SOL     OW14609   6.261   1.233  10.337 -0.3380 -0.2561 -0.2643
 3735SOL    HW114610   6.214   1.283  10.271  0.1394 -0.2801 -0.6260
 3735SOL    HW214611   6.232   1.271  10.421 -0.7214 -0.0355 -0.4965
 3736SOL     OW14612   7.937   6.103  10.062 -0.1077  0.2746 -0.0974
 3736SOL    HW114613   7.910   6.069   9.976  3.2054  0.0227 -1.1370
 3736SOL    HW214614   7.957   6.024  10.113 -3.1897  0.3807  1.3613
 3737SOL     OW14615   3.653  10.216  10.519 -0.0005 -0.1667  0.3231
 3737SOL    HW114616   3.690  10.217  10.607 -0.7474 -1.3971  0.6659
 3737SOL    HW214617   3.644  10.124  10.498 -0.0486  0.1237 -0.9604
 3738SOL     OW14618   1.957   4.499  10.907  0.2059 -0.1926  1.2119
 3738SOL    HW114619   2.033   4.449  10.878 -0.8547 -0.7993 -0.5818
 3738SOL    HW214620   1.957   4.577  10.850  1.2577  1.3757  3.2938
 3739SOL     OW14621   2.878   3.955   2.271  0.1557  0.3601  0.4257
 3739SOL    HW114622   2.869   3.937   2.364 -1.8387  1.6150  0.5114
 3739SOL    HW214623   2.856   4.048   2.262  0.8699  0.3870 -1.2252
 3740SOL     OW14624   9.033   6.769   1.366 -0.5918  0.0494 -0.0813
 3740SOL    HW114625   9.024   6.848   1.313 -1.0233  0.4888  0.6393
 3740SOL    HW214626   8.968   6.709   1.331 -1.2267  0.5228  0.2750
 3741SOL     OW14627   9.020   6.565  10.714 -0.8553  0.6353 -0.5250
 3741SOL    HW114628   9.068   6.518  10.646 -1.3871 -0.2973 -0.2599
 3741SOL    HW214629   9.087   6.595  10.775 -0.5866 -0.5148 -0.2470
 3742SOL     OW14630   8.356  10.732   0.402 -0.2034  0.1362  0.2983
 3742SOL    HW114631   8.375  10.641   0.425 -0.4406  0.2816  1.0985
 3742SOL    HW214632   8.264  10.744   0.427  0.5101  1.2990  2.5636
 3743SOL     OW14633   8.758  10.351   5.635 -0.1701  0.3015  0.4913
 3743SOL    HW114634   8.761  10.408   5.712  0.3621  1.1623 -0.1564
 3743SOL    HW214635   8.705  10.400   5.572  2.5777  1.3846 -1.0774
 3744SOL     OW14636   7.868   3.550   1.425 -0.0481  0.7588  0.1858
 3744SOL    HW114637   7.814   3.579   1.352  0.7017  2.4722  0.2794
 3744SOL    HW214638   7.896   3.631   1.468  0.8371 -0.1704  1.4101
 3745SOL     OW14639   9.046   6.740   7.180 -0.0532 -0.3740  0.7914
 3745SOL    HW114640   9.121   6.797   7.200 -0.6506  0.3944  0.8562
 3745SOL    HW214641   9.004   6.782   7.105  0.4657 -1.6437 -0.2402
 3746SOL     OW14642   2.039   2.607   2.020  0.0454 -0.5384  0.2410
 3746SOL    HW114643   1.944   2.599   2.028 -0.2868 -0.0873 -2.8283
 3746SOL    HW214644   2.068   2.518   2.003  0.1062 -0.5459  0.3790
 3747SOL     OW14645   0.928   0.159   6.557 -0.1577 -0.0383 -0.4160
 3747SOL    HW114646   0.846   0.112   6.542 -0.8698  0.3818  2.0154
 3747SOL    HW214647   0.950   0.195   6.471 -2.6655  0.0995 -1.0528
 3748SOL     OW14648   7.689   3.037   5.908  0.0696  0.0448  0.0863
 3748SOL    HW114649   7.593   3.032   5.906  0.0992 -0.8271  0.5917
 3748SOL    HW214650   7.717   3.009   5.821 -0.0781 -1.2074  0.4351
 3749SOL     OW14651   4.849   5.324   2.472  0.3710 -0.1598  0.8079
 3749SOL    HW114652   4.774   5.265   2.463 -1.0617  1.5480  1.2113
 3749SOL    HW214653   4.906   5.282   2.536 -0.1541 -1.5664  0.3649
 3750SOL     OW14654   5.087   0.113   1.599 -0.0394  0.3953  0.2096
 3750SOL    HW114655   5.053   0.049   1.661 -0.6312 -0.9489 -1.4690
 3750SOL    HW214656   5.010   0.158   1.565  0.2964  1.2441  0.5474
 3751SOL     OW14657   0.121   7.691   0.163  0.6539 -0.5049 -0.1645
 3751SOL    HW114658   0.151   7.601   0.153  1.3192 -0.3903  0.8224
 3751SOL    HW214659   0.190   7.744   0.122  0.0836 -0.4644 -1.0803
 3752SOL     OW14660   0.320   2.768   1.399 -0.6220 -0.2287 -0.0746
 3752SOL    HW114661   0.242   2.720   1.368 -0.7249  0.2027 -0.4871
 3752SOL    HW214662   0.315   2.852   1.354 -0.5719  0.2649  0.8458
 3753SOL     OW14663   4.089   4.493   9.931 -0.1258 -0.0852  0.1071
 3753SOL    HW114664   4.120   4.405   9.907  1.4008  0.3934  0.2795
 3753SOL    HW214665   4.152   4.552   9.891 -0.8640  0.9259  0.4218
 3754SOL     OW14666   6.454   7.872   0.944 -0.6213  0.1722  0.0298
 3754SOL    HW114667   6.505   7.845   1.020 -3.1529 -1.6170  1.1662
 3754SOL    HW214668   6.449   7.967   0.951 -0.0170  0.1016  1.5468
 3755SOL     OW14669   3.421   8.027   3.311  0.2923  0.9352  0.0334
 3755SOL    HW114670   3.336   7.983   3.303  0.8869 -0.1995 -0.1214
 3755SOL    HW214671   3.433   8.072   3.228  0.5945 -0.2895 -0.6032
 3756SOL     OW14672   5.216   5.912   9.643  0.4683 -0.1170 -0.0561
 3756SOL    HW114673   5.220   5.928   9.549  0.7724 -1.5896 -0.3087
 3756SOL    HW214674   5.298   5.949   9.677  0.8802 -0.5806 -0.5351
 3757SOL     OW14675   7.424   2.289   1.619  0.2279 -0.2278  0.6667
 3757SOL    HW114676   7.393   2.248   1.538  1.2463 -1.3423  0.8330
 3757SOL    HW214677   7.405   2.225   1.687  0.7228  0.0825  1.0946
 3758SOL     OW14678   9.628   2.470   6.350  0.1491 -0.6230  0.2321
 3758SOL    HW114679   9.634   2.383   6.311  2.4781 -1.1256  1.6118
 3758SOL    HW214680   9.703   2.518   6.315  0.5064 -0.1032  1.6474
 3759SOL     OW14681   9.731   1.192   1.531  0.0717 -0.6877 -0.1011
 3759SOL    HW114682   9.726   1.097   1.530 -1.0588 -0.6436 -3.3011
 3759SOL    HW214683   9.643   1.220   1.555  0.4080 -0.4333  0.8559
 3760SOL     OW14684   1.260   9.973   4.549  0.1230 -0.3954  0.2838
 3760SOL    HW114685   1.178   9.954   4.593  0.8293 -1.2899  1.2301
 3760SOL    HW214686   1.237   9.982   4.457 -0.8505 -1.7085  0.4009
 3761SOL     OW14687   4.434   7.600   1.983  0.2476 -0.1624 -0.7520
 3761SOL    HW114688   4.343   7.572   1.972  0.8238 -2.0695 -0.8714
 3761SOL    HW214689   4.462   7.625   1.895 -0.2738  0.8083 -0.6476
 3762SOL     OW14690   1.656   8.450   7.428 -0.4180 -0.4110 -0.0760
 3762SOL    HW114691   1.618   8.366   7.407  0.7027 -1.4655  1.8918
 3762SOL    HW214692   1.750   8.440   7.411 -0.2413  0.3390  0.3730
 3763SOL     OW14693   3.372   8.272   0.331 -0.0364  0.1978 -0.1083
 3763SOL    HW114694   3.449   8.217   0.346  0.3501  0.6728 -0.3285
 3763SOL    HW214695   3.408   8.357   0.305 -0.5949  1.0304  1.7648
 3764SOL     OW14696   5.643   4.397   0.835 -0.2994  0.2246  0.8951
 3764SOL    HW114697   5.562   4.379   0.786 -1.1114  2.7304  1.2762
 3764SOL    HW214698   5.670   4.483   0.805  0.9855  0.3873  2.4881
 3765SOL     OW14699   2.342   2.159  10.342  0.1460  0.4806 -0.1557
 3765SOL    HW114700   2.379   2.216  10.275  1.8545  0.8099  1.0605
 3765SOL    HW214701   2.274   2.212  10.385  0.3736  0.9207 -0.3390
 3766SOL     OW14702   1.889   8.998   1.068 -0.1049 -0.2372 -0.0865
 3766SOL    HW114703   1.966   8.959   1.027  1.4586  2.4119  0.2052
 3766SOL    HW214704   1.870   9.075   1.014 -0.6326  0.8753  1.6471
 3767SOL     OW14705   9.090   2.590   2.350  0.0005 -0.0375  0.0272
 3767SOL    HW114706   9.156   2.622   2.288  1.1931  1.8448  2.1997
 3767SOL    HW214707   9.128   2.510   2.385  0.5334  0.3167  0.2701
 3768SOL     OW14708  10.422   6.310  10.073 -0.0053  0.0175 -0.0012
 3768SOL    HW114709  10.516   6.301  10.055 -0.1054  1.0691 -1.1042
 3768SOL    HW214710  10.379   6.259  10.005 -0.3225  2.3763 -1.6333
 3769SOL     OW14711   3.421  10.308   3.320 -0.9345  0.4643 -0.2156
 3769SOL    HW114712   3.467  10.370   3.264 -2.2768 -0.9864 -3.0368
 3769SOL    HW214713   3.340  10.353   3.344 -1.2855  0.3224 -1.1340
 3770SOL     OW14714   0.098   9.053   0.711  0.0524 -0.3850 -0.0340
 3770SOL    HW114715   0.165   9.122   0.711 -1.8850  1.5488  0.7276
 3770SOL    HW214716   0.146   8.975   0.738  2.3902  0.5369 -1.3048
 3771SOL     OW14717   4.709   4.161  10.131  0.1436 -0.0071  0.0296
 3771SOL    HW114718   4.660   4.201  10.059  3.4993  3.8952 -0.2516
 3771SOL    HW214719   4.780   4.113  10.088  0.6578  0.2018  0.6435
 3772SOL     OW14720   5.477   6.294   8.915 -0.3522 -0.1752 -0.2891
 3772SOL    HW114721   5.416   6.268   8.983 -0.8248  2.7741  0.4608
 3772SOL    HW214722   5.559   6.311   8.961  0.6112 -2.3906 -1.0703
 3773SOL     OW14723   9.575   9.380   6.705 -0.0826  0.0596 -1.0071
 3773SOL    HW114724   9.557   9.473   6.686 -0.0989  0.7764  2.2312
 3773SOL    HW214725   9.536   9.366   6.791 -0.1886 -3.0284 -1.5219
 3774SOL     OW14726   3.216   5.416   4.342  0.2495  0.1889 -0.0758
 3774SOL    HW114727   3.283   5.480   4.363  0.7114 -0.1915 -0.3848
 3774SOL    HW214728   3.141   5.468   4.314  0.8444  0.5745 -0.9714
 3775SOL     OW14729   1.571   9.575   9.974  0.0619 -0.0189  0.8857
 3775SOL    HW114730   1.626   9.537  10.043  0.6319 -0.7360  0.0491
 3775SOL    HW214731   1.543   9.500   9.921  0.4693  0.6176 -0.2572
 3776SOL     OW14732   2.788   8.311   7.189 -0.3932 -0.0559  0.7549
 3776SOL    HW114733   2.721   8.261   7.143  0.9654  0.0055 -1.3611
 3776SOL    HW214734   2.744   8.391   7.216 -0.9421  0.4115 -1.4552
 3777SOL     OW14735   5.099   4.736   5.269 -0.1743  0.3653 -0.5211
 3777SOL    HW114736   5.168   4.801   5.280 -0.7803  0.8939  0.1808
 3777SOL    HW214737   5.086   4.699   5.356  1.2574 -1.8398 -1.1820
 3778SOL     OW14738   8.857   6.029   5.516 -0.6414  0.5834  0.2616
 3778SOL    HW114739   8.786   6.037   5.579 -1.3645  1.3148 -0.6443
 3778SOL    HW214740   8.822   5.975   5.445 -0.4096  1.2269 -0.3507
 3779SOL     OW14741   4.920   7.395  10.640 -0.2437 -0.8647  0.1961
 3779SOL    HW114742   4.929   7.321  10.700 -3.3310 -1.0109  0.5787
 3779SOL    HW214743   4.850   7.368  10.580  0.3238  0.7497 -1.2277
 3780SOL     OW14744   6.146   7.333   1.026 -0.3742 -0.3544  0.1331
 3780SOL    HW114745   6.149   7.428   1.039 -2.1600 -0.0881 -1.1342
 3780SOL    HW214746   6.237   7.307   1.016  0.1976  1.0864  1.4634
 3781SOL     OW14747   9.292   7.895   5.335 -0.1841  0.2391 -0.1534
 3781SOL    HW114748   9.200   7.887   5.312 -1.4368  2.7027  3.5377
 3781SOL    HW214749   9.320   7.805   5.352 -1.7643 -0.5813 -1.6958
 3782SOL     OW14750   8.410   5.303   2.644 -0.3910 -0.3000  0.2228
 3782SOL    HW114751   8.455   5.227   2.607  0.0572 -0.2816  0.7190
 3782SOL    HW214752   8.377   5.351   2.568  0.2632 -0.4196 -0.1385
 3783SOL     OW14753   0.128   2.404   5.528  0.6080 -0.6728  0.0413
 3783SOL    HW114754   0.198   2.464   5.502  1.5794 -2.3760 -1.3572
 3783SOL    HW214755   0.048   2.445   5.496  1.2172  0.0604 -0.5496
 3784SOL     OW14756  10.098   7.867   6.063 -0.0376 -0.1362 -0.2911
 3784SOL    HW114757  10.086   7.897   6.153 -0.1380 -0.8103 -0.0765
 3784SOL    HW214758  10.034   7.916   6.012  0.1835  0.4254 -0.0323
 3785SOL     OW14759   7.440   3.959  10.815  0.6573  0.3479 -0.4208
 3785SOL    HW114760   7.452   4.016  10.739  0.2763 -2.1724 -2.4135
 3785SOL    HW214761   7.346   3.943  10.819  0.6054  0.9270  0.9453
 3786SOL     OW14762   9.258   1.662   2.604 -0.8611 -0.7545 -0.1971
 3786SOL    HW114763   9.246   1.574   2.639  0.1764 -0.6183  0.5307
 3786SOL    HW214764   9.190   1.714   2.647  0.4696 -0.5650  1.7593
 3787SOL     OW14765   2.248   7.427   6.710 -0.0265  0.3101  0.5052
 3787SOL    HW114766   2.263   7.334   6.722  0.2378  0.0875 -1.4224
 3787SOL    HW214767   2.159   7.433   6.675 -0.3068  0.8491  1.2723
 3788SOL     OW14768   1.982  10.789   1.514  0.4463 -0.4772 -0.2531
 3788SOL    HW114769   1.963  10.881   1.493  1.0029 -0.2895  0.0285
 3788SOL    HW214770   1.989  10.788   1.610 -1.9129 -1.2892 -0.0594
 3789SOL     OW14771   8.048   7.805   6.149  0.1261 -0.0696 -0.2118
 3789SOL    HW114772   7.968   7.832   6.194  0.4746 -0.1698  0.4603
 3789SOL    HW214773   8.076   7.725   6.194  0.6569  0.0111 -0.3946
 3790SOL     OW14774   7.998   8.753   2.442 -0.1246  0.6101 -0.2320
 3790SOL    HW114775   7.964   8.795   2.363  2.5491 -0.4884 -2.0255
 3790SOL    HW214776   7.961   8.665   2.441 -0.3859  0.7149 -0.0406
 3791SOL     OW14777   1.127   4.489   1.731 -0.5456 -0.5697 -0.2530
 3791SOL    HW114778   1.176   4.478   1.650 -0.9059 -0.2480 -0.5124
 3791SOL    HW214779   1.049   4.433   1.720 -1.3930  0.7087 -0.7710
 3792SOL     OW14780  10.015   3.253   2.211 -0.1365 -0.2104  0.6044
 3792SOL    HW114781  10.065   3.332   2.192 -0.5372 -0.6712 -2.6124
 3792SOL    HW214782  10.045   3.188   2.147 -2.9666 -1.2820  0.2575
 3793SOL     OW14783   3.650  10.355   2.796  0.5297 -0.2079 -0.2442
 3793SOL    HW114784   3.687  10.267   2.795  0.3212 -0.3173  1.2715
 3793SOL    HW214785   3.720  10.411   2.828 -0.2294 -0.2490  1.5427
 3794SOL     OW14786   8.230   7.176   9.696  0.2133 -0.0244  0.7829
 3794SOL    HW114787   8.184   7.150   9.617  2.8938 -2.3085 -0.1337
 3794SOL    HW214788   8.225   7.099   9.753  0.6590  0.6107  1.7078
 3795SOL     OW14789   8.365   2.119   2.661  0.1223 -0.2042  0.2140
 3795SOL    HW114790   8.376   2.161   2.747 -0.6083  1.0487 -0.3038
 3795SOL    HW214791   8.277   2.144   2.633  0.0908 -1.1890 -0.6063
 3796SOL     OW14792   0.805   8.530   7.258  0.0664  0.2164  0.4482
 3796SOL    HW114793   0.810   8.528   7.353  0.2846  0.4027  0.4422
 3796SOL    HW214794   0.744   8.601   7.238  0.5540  0.6377  0.4362
 3797SOL     OW14795   8.677   9.124   4.445 -0.0381 -0.0339 -0.3046
 3797SOL    HW114796   8.616   9.170   4.388  0.3860 -0.0064 -0.7436
 3797SOL    HW214797   8.700   9.188   4.513 -0.0311  0.1524 -0.4833
 3798SOL     OW14798  10.230   3.268   6.303 -0.0386 -0.0846  0.1044
 3798SOL    HW114799  10.140   3.288   6.277  0.4654  1.3149 -0.6598
 3798SOL    HW214800  10.278   3.264   6.220  0.8330  0.3659  0.5825
 3799SOL     OW14801   5.359  10.907  10.636 -0.1122  0.1202 -0.3238
 3799SOL    HW114802   5.436  10.945  10.679 -2.0010  1.4116  2.0082
 3799SOL    HW214803   5.383  10.904  10.543  2.0473  2.2143  0.1199
 3800SOL     OW14804  10.831   2.720  10.143  0.2970  0.0723 -0.5336
 3800SOL    HW114805  10.888   2.644  10.135  1.8168  0.9034  1.8761
 3800SOL    HW214806  10.845   2.770  10.063  0.0177 -1.6599 -1.6900
 3801SOL     OW14807   0.930   2.736   8.845  0.1566  0.2322 -0.5320
 3801SOL    HW114808   0.917   2.644   8.867  0.5258 -0.1364 -1.7859
 3801SOL    HW214809   0.954   2.778   8.928 -0.4087 -0.7215  0.1174
 3802SOL     OW14810   8.760   7.618  10.805 -0.0873  0.1214  0.4950
 3802SOL    HW114811   8.750   7.638  10.898 -0.7932 -0.0579  0.4638
 3802SOL    HW214812   8.811   7.537  10.803  0.8544  0.7044  0.6907
 3803SOL     OW14813   4.459   5.678   7.845 -0.1166  0.1826 -0.4552
 3803SOL    HW114814   4.400   5.698   7.917  1.7561  2.3013  0.5268
 3803SOL    HW214815   4.422   5.725   7.770  0.0464  1.0999  0.0392
 3804SOL     OW14816   5.363   7.610   0.600  0.7443  0.6491 -0.0653
 3804SOL    HW114817   5.338   7.543   0.663  2.4205 -1.7365 -1.8109
 3804SOL    HW214818   5.406   7.677   0.652  2.3283 -1.3794  1.3299
 3805SOL     OW14819   3.345   4.399   7.940  0.2185  0.3365 -0.0020
 3805SOL    HW114820   3.382   4.450   7.868  1.4135  0.3107  0.5788
 3805SOL    HW214821   3.333   4.312   7.903  1.3331  0.1829 -0.0348
 3806SOL     OW14822   7.147   3.922   8.106  0.4494 -0.1102  0.0685
 3806SOL    HW114823   7.111   3.842   8.069  0.0108 -0.9490  2.2157
 3806SOL    HW214824   7.238   3.923   8.077 -0.3345  0.1979 -2.4624
 3807SOL     OW14825   0.124   9.964   6.600 -0.5397 -0.0512 -0.0066
 3807SOL    HW114826   0.196   9.932   6.546  0.0145  0.2861  0.5406
 3807SOL    HW214827   0.058   9.993   6.536 -0.3799 -0.7721 -0.5044
 3808SOL     OW14828   3.050   7.370   6.655 -0.0784  0.2193  0.6020
 3808SOL    HW114829   3.081   7.423   6.728 -0.1428  0.2954  0.5739
 3808SOL    HW214830   2.955   7.369   6.664 -0.2215  1.7900 -0.5398
 3809SOL     OW14831   5.871  10.193   6.833 -0.1284  0.6252 -0.0160
 3809SOL    HW114832   5.901  10.213   6.922 -1.6317 -0.5490  0.7740
 3809SOL    HW214833   5.951  10.175   6.784  0.5278 -2.1657  1.9737
 3810SOL     OW14834  10.926   6.801   1.210  0.2478  0.2108 -0.1621
 3810SOL    HW114835  10.846   6.815   1.261  0.0393 -1.8412  0.1192
 3810SOL    HW214836  10.926   6.708   1.190  2.8776  0.0619  0.3283
 3811SOL     OW14837   6.754   2.718   4.755 -0.2086  0.2080 -0.2882
 3811SOL    HW114838   6.758   2.645   4.817 -1.4147  0.1021 -0.3332
 3811SOL    HW214839   6.664   2.750   4.760  0.2234  1.4973 -0.5025
 3812SOL     OW14840   1.274   4.369   4.957  0.3253  0.5022  0.0330
 3812SOL    HW114841   1.229   4.285   4.958 -0.7404  1.0219  3.2046
 3812SOL    HW214842   1.364   4.348   4.982  0.3401  0.1585 -0.3101
 3813SOL     OW14843   8.447   1.012   0.307  0.4763  0.1248  0.2651
 3813SOL    HW114844   8.391   0.937   0.285  1.2169 -0.1881 -0.5912
 3813SOL    HW214845   8.385   1.081   0.332 -0.3481 -0.0313 -1.2258
 3814SOL     OW14846   8.823  10.940   8.450  0.1664 -0.0762 -0.9768
 3814SOL    HW114847   8.734  10.906   8.458  0.7528 -1.2244  0.8900
 3814SOL    HW214848   8.880  10.867   8.476  1.6046  1.1089 -0.7230
 3815SOL     OW14849   5.108   2.848   1.966  0.3235  0.4013 -0.2473
 3815SOL    HW114850   5.099   2.812   1.878 -2.5260  0.7108 -0.1387
 3815SOL    HW214851   5.044   2.920   1.969 -0.2250 -0.1330  2.3006
 3816SOL     OW14852   1.009   1.806   2.806 -0.7366  0.2547  0.0373
 3816SOL    HW114853   1.027   1.712   2.816  0.7290  0.3303 -1.6248
 3816SOL    HW214854   1.084   1.849   2.846  0.3330  0.6382 -2.2675
 3817SOL     OW14855   0.272   2.314   9.086 -0.2197  0.3616 -0.7936
 3817SOL    HW114856   0.357   2.334   9.125  0.2582  0.5164 -1.8850
 3817SOL    HW214857   0.278   2.221   9.063 -0.5470  0.2381 -0.3877
 3818SOL     OW14858   5.703   8.557   6.705 -0.0353  0.1431 -0.1512
 3818SOL    HW114859   5.746   8.635   6.669 -0.0599  0.0428 -0.3946
 3818SOL    HW214860   5.622   8.550   6.655  0.6759 -0.9238 -1.1689
 3819SOL     OW14861   2.281  10.454   9.003  0.0517  0.8155 -0.0268
 3819SOL    HW114862   2.233  10.532   9.029  0.2888  0.4936  1.3769
 3819SOL    HW214863   2.327  10.426   9.082  0.5705 -0.3149 -0.7142
 3820SOL     OW14864   9.356   1.632   6.853 -0.0514  0.5870  0.2696
 3820SOL    HW114865   9.439   1.630   6.902 -0.1546 -1.0887  0.4088
 3820SOL    HW214866   9.300   1.569   6.899 -1.1065  1.0814 -0.3401
 3821SOL     OW14867  10.337   5.971   2.494  0.4711  0.6569 -0.6779
 3821SOL    HW114868  10.431   5.955   2.484  0.3008 -1.6616  1.0240
 3821SOL    HW214869  10.330   6.066   2.502  2.5771  0.9299 -1.6158
 3822SOL     OW14870   1.382   1.833   1.920 -0.4628  0.5939  0.1322
 3822SOL    HW114871   1.293   1.798   1.918 -0.5903  0.7502  1.8424
 3822SOL    HW214872   1.373   1.925   1.896 -0.7719  0.6011  0.2693
 3823SOL     OW14873   5.622   1.748  10.862 -0.1981 -0.6089  0.0581
 3823SOL    HW114874   5.704   1.787  10.831  0.9830 -0.3672  3.2355
 3823SOL    HW214875   5.568   1.823  10.887 -1.1831 -0.7934 -1.4475
 3824SOL     OW14876   8.715   3.250   6.789 -0.2469 -0.4021 -0.1125
 3824SOL    HW114877   8.623   3.226   6.782  0.0054 -0.9473 -1.6150
 3824SOL    HW214878   8.752   3.184   6.848 -1.1544  0.7904  1.8227
 3825SOL     OW14879   7.596   8.125   3.387  0.0963  0.2419 -0.2248
 3825SOL    HW114880   7.658   8.149   3.456 -1.7265  1.0861  1.1870
 3825SOL    HW214881   7.566   8.037   3.411  1.5307 -0.6309 -1.5189
 3826SOL     OW14882  10.610   7.729  10.603 -0.3458  0.0467  0.2462
 3826SOL    HW114883  10.590   7.734  10.697 -1.2229 -1.5708  0.1679
 3826SOL    HW214884  10.528   7.755  10.560 -1.2099 -3.0576 -0.0680
 3827SOL     OW14885   6.960   3.019   1.290 -0.1847 -0.1888  0.3576
 3827SOL    HW114886   7.026   3.082   1.320  0.3329  0.1844 -1.5427
 3827SOL    HW214887   6.986   2.936   1.331 -0.9218  0.8052  2.9530
 3828SOL     OW14888   8.522   6.545   3.604  0.2965 -0.0475  0.1201
 3828SOL    HW114889   8.594   6.591   3.559  1.5266  0.0621  2.1439
 3828SOL    HW214890   8.531   6.571   3.695 -0.2989 -2.6476  0.9546
 3829SOL     OW14891   2.028   8.054   0.884  0.2730 -0.0686 -0.0151
 3829SOL    HW114892   2.092   8.084   0.948  0.2774 -0.1715  0.0304
 3829SOL    HW214893   2.044   8.106   0.806 -0.8980  1.3220  0.6399
 3830SOL     OW14894  10.245   8.099   5.559  0.6369 -0.0995 -0.1338
 3830SOL    HW114895  10.290   8.087   5.475  1.1345 -0.0315  0.1252
 3830SOL    HW214896  10.281   8.031   5.616 -0.0754 -0.4706 -0.1289
 3831SOL     OW14897   0.299   2.816   9.627 -0.3963  0.2652 -0.0635
 3831SOL    HW114898   0.205   2.823   9.615 -0.2423  0.8873 -0.9106
 3831SOL    HW214899   0.313   2.725   9.655 -1.4909  0.8781  2.5737
 3832SOL     OW14900  10.529   5.140   8.794 -0.3720  1.0837 -0.4995
 3832SOL    HW114901  10.484   5.121   8.713 -0.3761 -1.9008  0.1387
 3832SOL    HW214902  10.543   5.055   8.835  1.6232  2.3178  1.5652
 3833SOL     OW14903   0.581   5.612   2.156 -0.5955  0.0297  0.4826
 3833SOL    HW114904   0.510   5.577   2.101 -0.2344 -0.6556  0.4417
 3833SOL    HW214905   0.596   5.700   2.122  0.3910 -0.7815 -1.2900
 3834SOL     OW14906   6.751   8.377   8.931 -0.2808  0.0916 -0.4669
 3834SOL    HW114907   6.734   8.466   8.965 -1.7502 -0.2408 -0.2952
 3834SOL    HW214908   6.696   8.370   8.853  0.4335 -0.4022 -0.9340
 3835SOL     OW14909   2.521   3.218   7.374  0.3621  0.5388 -0.6702
 3835SOL    HW114910   2.545   3.258   7.291  0.4803  1.3250 -0.2628
 3835SOL    HW214911   2.464   3.282   7.416 -0.1642 -0.1090 -0.3979
 3836SOL     OW14912   3.990   7.330   0.357  0.2211 -0.5210 -0.0297
 3836SOL    HW114913   3.928   7.309   0.426  0.9000  1.6083  1.2599
 3836SOL    HW214914   4.071   7.286   0.383  0.6877  0.8892  0.9295
 3837SOL     OW14915   9.719   2.360   9.607  1.1527  0.5358  0.1188
 3837SOL    HW114916   9.665   2.380   9.683  1.4572  0.3699  0.3798
 3837SOL    HW214917   9.808   2.384   9.633  1.5950 -1.4531  0.5694
 3838SOL     OW14918   0.715   8.105   1.787  0.6169  0.2270  0.2802
 3838SOL    HW114919   0.633   8.079   1.745  0.1664  1.8026  0.1464
 3838SOL    HW214920   0.694   8.185   1.835  1.6272 -0.3991  1.8216
 3839SOL     OW14921   1.162   1.012   0.059 -0.5269 -0.5936  0.1824
 3839SOL    HW114922   1.121   0.968  -0.014  2.0661 -2.2272 -0.3339
 3839SOL    HW214923   1.158   0.949   0.131  0.6771 -0.5953  0.2505
 3840SOL     OW14924   7.475   1.982   3.292 -0.1614  0.3813  0.2293
 3840SOL    HW114925   7.507   2.055   3.238  0.5560 -0.0339  0.0928
 3840SOL    HW214926   7.383   2.003   3.307 -0.3085  0.6455 -0.9337
 3841SOL     OW14927  10.235   2.121   9.289  0.2647  0.0069 -0.0905
 3841SOL    HW114928  10.234   2.026   9.276  0.8604  0.0078 -0.1596
 3841SOL    HW214929  10.183   2.136   9.367 -1.0559 -0.2520 -0.9120
 3842SOL     OW14930   6.054   8.433   1.385  0.1041 -0.2477 -0.0600
 3842SOL    HW114931   6.060   8.474   1.471 -0.8028 -0.9311  0.3331
 3842SOL    HW214932   5.976   8.472   1.345  0.1557 -0.4055 -0.3142
 3843SOL     OW14933   8.088   6.755   3.543 -0.3436  0.1976 -0.4390
 3843SOL    HW114934   8.052   6.669   3.564  0.3483 -0.0875 -0.4189
 3843SOL    HW214935   8.029   6.817   3.586  0.3622 -0.3379  1.3159
 3844SOL     OW14936   0.760   1.646   4.119  0.3346  0.2019  0.3892
 3844SOL    HW114937   0.834   1.663   4.178 -0.4586  0.2413  1.3785
 3844SOL    HW214938   0.710   1.728   4.120  1.0588  0.6883 -1.4265
 3845SOL     OW14939   2.908   8.269   4.317  0.3753 -0.5091  0.2143
 3845SOL    HW114940   2.831   8.217   4.340 -0.7599  0.9858 -0.0963
 3845SOL    HW214941   2.948   8.291   4.402  0.1705 -0.8465  0.3989
 3846SOL     OW14942   5.929   8.804   0.012  0.4762 -0.0289  0.3613
 3846SOL    HW114943   5.920   8.791  -0.083  0.4777  0.4958  0.2861
 3846SOL    HW214944   5.935   8.715   0.048  0.0180 -0.2469 -0.0878
 3847SOL     OW14945   1.459   7.307   9.597 -0.4763 -0.2037 -0.9283
 3847SOL    HW114946   1.509   7.238   9.554 -0.8743 -1.2032  0.1550
 3847SOL    HW214947   1.373   7.267   9.614 -1.2416  1.0881 -1.7002
 3848SOL     OW14948   7.446   3.820   9.025 -0.6300  0.5141 -0.1662
 3848SOL    HW114949   7.379   3.783   9.082  0.0877 -0.9555 -0.2464
 3848SOL    HW214950   7.521   3.837   9.083  0.0866 -0.9493 -0.6258
 3849SOL     OW14951   5.205   9.481   0.168  0.3799 -0.7091 -0.0500
 3849SOL    HW114952   5.187   9.560   0.116  2.6463  1.1023  1.7921
 3849SOL    HW214953   5.223   9.413   0.103 -1.0952  0.3987 -1.6669
 3850SOL     OW14954   3.913   7.180  10.054 -0.3444  0.3705 -0.4481
 3850SOL    HW114955   4.008   7.193  10.060 -0.3229  0.5187 -1.0427
 3850SOL    HW214956   3.883   7.178  10.145  0.3607 -0.6718 -0.2290
 3851SOL     OW14957   5.326   7.813   0.360 -0.4793 -0.1280 -0.0439
 3851SOL    HW114958   5.335   7.756   0.283 -0.9841 -0.8882  0.4593
 3851SOL    HW214959   5.346   7.756   0.434  0.3193  0.6862  0.3772
 3852SOL     OW14960   0.338  10.739   1.146  0.0418 -0.2025 -0.7840
 3852SOL    HW114961   0.387  10.720   1.226 -0.9601  0.6135  0.0341
 3852SOL    HW214962   0.273  10.669   1.141  0.3380 -0.4595 -1.0906
 3853SOL     OW14963   1.512   6.189   8.552  0.1790  0.3349 -0.0733
 3853SOL    HW114964   1.435   6.215   8.603  1.6899  0.9579  1.9439
 3853SOL    HW214965   1.550   6.272   8.524  2.7539  0.2742  2.9800
 3854SOL     OW14966   2.252   0.979   7.892  0.0512 -0.1408  0.5116
 3854SOL    HW114967   2.196   1.056   7.880  0.7327  0.3078  0.1484
 3854SOL    HW214968   2.231   0.947   7.980 -0.5172  0.2284  0.5121
 3855SOL     OW14969   7.886   6.313   5.521 -0.2188 -0.3701  0.2617
 3855SOL    HW114970   7.898   6.370   5.597 -1.6091 -0.9067  0.9088
 3855SOL    HW214971   7.791   6.315   5.505 -0.3325 -2.7641  0.5026
 3856SOL     OW14972   2.343   1.470  10.646  0.1126 -0.2611  0.5263
 3856SOL    HW114973   2.309   1.406  10.583  0.2211  1.5768 -1.4729
 3856SOL    HW214974   2.405   1.421  10.700 -1.1569 -2.2446  0.2430
 3857SOL     OW14975   6.630   7.623   2.217  0.6930 -0.4620 -0.2009
 3857SOL    HW114976   6.646   7.663   2.132 -1.3046  1.9308  0.4795
 3857SOL    HW214977   6.710   7.641   2.267  1.1442 -0.2611 -0.9937
 3858SOL     OW14978   1.094   3.232   8.612 -0.4856  0.7503  0.0725
 3858SOL    HW114979   1.000   3.242   8.594 -0.1763  1.1334 -1.3105
 3858SOL    HW214980   1.137   3.246   8.528  0.7745 -0.2120  0.5398
 3859SOL     OW14981   6.754   5.835   3.970 -0.2151  0.0095 -0.2034
 3859SOL    HW114982   6.843   5.806   3.990 -0.2892  0.9494  1.5537
 3859SOL    HW214983   6.698   5.789   4.033 -0.8397  0.3671 -0.4887
 3860SOL     OW14984   7.047   9.228  10.144 -0.5940 -0.3148 -0.7105
 3860SOL    HW114985   6.997   9.303  10.176 -1.2993 -1.9151  2.0651
 3860SOL    HW214986   7.121   9.267  10.097 -0.2292  2.1311  1.7856
 3861SOL     OW14987   8.232   0.209   4.235 -0.6156  0.1029 -0.2247
 3861SOL    HW114988   8.220   0.300   4.208  1.0907  0.5065  0.3497
 3861SOL    HW214989   8.157   0.190   4.291 -1.2796  0.9659 -0.8065
 3862SOL     OW14990   4.043   7.120  10.910  0.1180  0.0453 -0.0456
 3862SOL    HW114991   4.040   7.211  10.881 -0.4154  0.3914  1.0793
 3862SOL    HW214992   4.019   7.070  10.832 -1.1241  0.9575 -0.2747
 3863SOL     OW14993   1.203   6.680   7.095  0.2519 -0.8996  0.3650
 3863SOL    HW114994   1.111   6.702   7.107 -0.3192 -2.8746 -0.2967
 3863SOL    HW214995   1.245   6.764   7.076 -1.4744 -0.0506  0.2156
 3864SOL     OW14996   4.534   0.975   6.099  0.0147  0.7067  0.2283
 3864SOL    HW114997   4.610   1.032   6.089 -0.5601  1.1575 -1.7433
 3864SOL    HW214998   4.566   0.902   6.151  1.7547  0.9820 -0.4173
 3865SOL     OW14999   7.141   3.359   3.759  0.8096  0.1247  0.2687
 3865SOL    HW115000   7.096   3.276   3.776 -0.6295  1.2216  2.1690
 3865SOL    HW215001   7.156   3.395   3.846  0.3090  2.3978 -0.5595
 3866SOL     OW15002   9.790   0.477   2.126 -0.0504  0.0089  0.2340
 3866SOL    HW115003   9.739   0.505   2.202 -0.6993 -0.8687  0.1253
 3866SOL    HW215004   9.726   0.466   2.056  0.7522  2.4685 -0.9404
 3867SOL     OW15005  10.440   8.019   5.946  0.0689 -0.2818 -0.5552
 3867SOL    HW115006  10.372   8.078   5.981  0.0003 -0.4283 -0.4372
 3867SOL    HW215007  10.478   8.068   5.873  1.9201  1.0707  1.2561
 3868SOL     OW15008   6.819   7.535   9.095 -0.2912  0.0249 -0.1994
 3868SOL    HW115009   6.730   7.560   9.120  0.0662  1.1125  0.0407
 3868SOL    HW215010   6.866   7.529   9.178 -0.1072 -0.4111 -0.3368
 3869SOL     OW15011   0.645   1.015   8.997 -0.3489 -0.1093 -0.0869
 3869SOL    HW115012   0.640   1.098   8.949 -4.5937  0.4713  1.1711
 3869SOL    HW215013   0.681   0.953   8.934 -1.4644  1.6573 -2.5298
 3870SOL     OW15014   9.625   2.322   2.569  0.2109 -0.3632 -0.1947
 3870SOL    HW115015   9.634   2.256   2.501 -1.0929  0.2289 -0.9547
 3870SOL    HW215016   9.587   2.275   2.644 -0.4906 -0.5153 -0.6493
 3871SOL     OW15017   0.878   4.459   6.692  0.3935 -0.4473 -0.2721
 3871SOL    HW115018   0.915   4.394   6.751 -0.8798 -0.7336  0.2332
 3871SOL    HW215019   0.953   4.493   6.644  0.9976 -2.7371 -1.0035
 3872SOL     OW15020   2.439   7.751   0.668  0.2897  0.2882  0.6924
 3872SOL    HW115021   2.496   7.723   0.740  1.6675 -3.9942 -1.8440
 3872SOL    HW215022   2.499   7.774   0.598 -1.0419 -0.7262 -0.8091
 3873SOL     OW15023   5.233   8.088   0.682  0.2132  0.3307  0.2010
 3873SOL    HW115024   5.220   8.102   0.588  0.6794  1.8375  0.3530
 3873SOL    HW215025   5.328   8.090   0.693  0.1573  0.1817  0.7210
 3874SOL     OW15026   3.841   8.172   8.636  0.0969 -0.0507 -0.7924
 3874SOL    HW115027   3.900   8.101   8.610  0.5121 -1.0369  2.6474
 3874SOL    HW215028   3.756   8.146   8.601  1.0043 -0.2970 -2.8875
 3875SOL     OW15029   4.144   3.017   4.267 -0.0788 -0.0150  0.2332
 3875SOL    HW115030   4.107   3.096   4.306  0.7608  1.9902 -2.8942
 3875SOL    HW215031   4.207   2.987   4.333 -1.3318  1.1462  2.0301
 3876SOL     OW15032   8.861   3.293   2.260 -0.0718  0.2976  0.1248
 3876SOL    HW115033   8.945   3.312   2.301 -0.3283 -0.7733  1.1815
 3876SOL    HW215034   8.798   3.349   2.306 -0.2035 -0.1777  0.5302
 3877SOL     OW15035   0.389  10.027  10.770 -0.4363 -0.0581  0.7737
 3877SOL    HW115036   0.472  10.060  10.806 -0.0205 -1.7373  1.4053
 3877SOL    HW215037   0.325  10.046  10.838 -0.1789 -0.6529  1.1851
 3878SOL     OW15038   1.942   8.398   7.677  0.3221 -0.4028 -0.2491
 3878SOL    HW115039   1.886   8.405   7.755  2.1754  1.0696  1.0042
 3878SOL    HW215040   1.881   8.405   7.603 -1.1540  1.3143  1.0694
 3879SOL     OW15041   0.076   6.666   3.192  0.0893  0.7356  0.4655
 3879SOL    HW115042   0.126   6.583   3.193  1.4594  1.5400  0.4918
 3879SOL    HW215043   0.099   6.706   3.108 -1.9420  0.2912 -0.3313
 3880SOL     OW15044   1.993   5.381   3.787 -0.3568  0.0127 -0.2053
 3880SOL    HW115045   1.920   5.442   3.782  0.6549  1.1889 -0.9852
 3880SOL    HW215046   2.013   5.375   3.880 -1.2600 -0.1049 -0.0113
 3881SOL     OW15047   3.535   9.387   5.648 -0.0654  0.4800  0.6842
 3881SOL    HW115048   3.557   9.467   5.696 -0.1747  1.0435 -0.1799
 3881SOL    HW215049   3.502   9.419   5.563 -0.3885 -0.4727  0.4448
 3882SOL     OW15050   2.219   0.714   0.897 -0.1694 -0.2864 -0.2740
 3882SOL    HW115051   2.206   0.622   0.876  1.0105 -0.4817 -0.1770
 3882SOL    HW215052   2.261   0.713   0.983 -1.1606  0.3802  0.2347
 3883SOL     OW15053   5.939   4.823   8.622 -0.4552 -0.2060 -0.1897
 3883SOL    HW115054   5.950   4.797   8.531 -0.0996 -0.3701 -0.1010
 3883SOL    HW215055   5.844   4.819   8.638 -0.4197 -1.2145 -0.2453
 3884SOL     OW15056   6.391   2.849  10.076 -0.4965  0.2454 -0.1688
 3884SOL    HW115057   6.450   2.813  10.142 -0.0015  0.3582 -0.5486
 3884SOL    HW215058   6.362   2.933  10.113  1.5314  1.3790 -1.0673
 3885SOL     OW15059   7.541   9.915   3.808 -0.4417 -0.2465 -0.2691
 3885SOL    HW115060   7.554   9.823   3.785  0.2488 -0.6910  1.7594
 3885SOL    HW215061   7.457   9.938   3.769 -1.3941 -2.2035  0.5512
 3886SOL     OW15062   8.622   0.789   4.854  0.2122  0.1150  0.3749
 3886SOL    HW115063   8.678   0.734   4.799 -0.4417 -0.8348  0.6457
 3886SOL    HW215064   8.579   0.848   4.792 -0.4018 -0.8451 -0.1399
 3887SOL     OW15065   5.037   7.894   2.190  0.0378 -0.0166  0.0599
 3887SOL    HW115066   5.040   7.936   2.105 -0.6930  1.0461  0.5538
 3887SOL    HW215067   5.105   7.937   2.241 -1.0308  0.9135  0.7175
 3888SOL     OW15068   1.584   3.059   5.823  0.6506  0.0937 -0.2902
 3888SOL    HW115069   1.601   3.143   5.867  0.0874  0.2295 -0.3234
 3888SOL    HW215070   1.515   3.018   5.875  0.2548  0.0817 -0.8216
 3889SOL     OW15071  10.764   3.613   5.887 -0.2169 -0.0748  0.6492
 3889SOL    HW115072  10.833   3.617   5.821  0.5335  0.7438  1.4698
 3889SOL    HW215073  10.793   3.672   5.956 -0.4949 -1.7100  2.1942
 3890SOL     OW15074   7.325   2.873   9.241 -0.3231 -0.7711  0.0223
 3890SOL    HW115075   7.415   2.899   9.222 -0.8838 -1.2904 -3.7459
 3890SOL    HW215076   7.327   2.777   9.235 -0.5858 -0.9683  2.6998
 3891SOL     OW15077   6.963   5.874   1.543 -0.3619 -0.7491 -0.6067
 3891SOL    HW115078   6.982   5.818   1.468 -1.3710 -1.6689 -0.1746
 3891SOL    HW215079   6.962   5.816   1.618  1.5910  0.3132  0.2875
 3892SOL     OW15080   1.822   0.171   2.302 -0.0589  0.1416  0.4033
 3892SOL    HW115081   1.898   0.128   2.341  0.4131  0.2170 -0.4098
 3892SOL    HW215082   1.852   0.260   2.284 -1.2428  1.0407  2.7086
 3893SOL     OW15083   9.479   9.122   5.929  0.4652 -0.0221  0.2290
 3893SOL    HW115084   9.564   9.085   5.904 -0.1452 -1.0249 -0.3982
 3893SOL    HW215085   9.499   9.210   5.959  1.9815 -0.8840  1.8585
 3894SOL     OW15086   0.473   1.968   4.623  0.6909 -0.4607  0.1811
 3894SOL    HW115087   0.437   2.027   4.557  2.8559  0.2564 -0.4063
 3894SOL    HW215088   0.561   2.002   4.639 -0.4517  0.5916  4.8978
 3895SOL     OW15089   2.358   7.525   3.513 -0.5284 -0.4391  0.0466
 3895SOL    HW115090   2.374   7.451   3.571 -3.0150  0.2546  1.6675
 3895SOL    HW215091   2.408   7.597   3.552  1.1420 -0.9970 -1.0160
 3896SOL     OW15092  10.706   5.180   3.784 -0.2142  0.0126  0.3610
 3896SOL    HW115093  10.692   5.106   3.843 -0.8752 -1.6697 -1.8331
 3896SOL    HW215094  10.720   5.255   3.842  1.3347 -1.9651  2.6537
 3897SOL     OW15095   9.661   1.533   1.537  0.1925 -0.3003 -0.4619
 3897SOL    HW115096   9.602   1.474   1.584 -0.6070  0.1005 -0.9557
 3897SOL    HW215097   9.699   1.479   1.468  1.0090 -0.7649  0.3237
 3898SOL     OW15098   2.111   7.923   7.056  0.2223 -0.3218 -0.1222
 3898SOL    HW115099   2.138   7.876   6.977  1.1438 -0.7260  0.4144
 3898SOL    HW215100   2.125   8.015   7.036  1.8346 -0.5061  0.0554
 3899SOL     OW15101   4.125   7.627  10.747 -0.0903 -0.3736  0.5595
 3899SOL    HW115102   4.040   7.613  10.704  0.0717 -0.6198  0.3170
 3899SOL    HW215103   4.189   7.604  10.681  0.2019  2.0069 -0.0422
 3900SOL     OW15104   4.172   8.368   4.979  0.1974  0.0545 -0.2618
 3900SOL    HW115105   4.127   8.403   4.903 -0.8751 -4.0469 -1.6500
 3900SOL    HW215106   4.104   8.357   5.045  0.5569  0.7002  0.2238
 3901SOL     OW15107   4.902  10.925   1.767 -0.3588  0.6867 -0.8066
 3901SOL    HW115108   4.827  10.904   1.712 -0.0169  3.3634 -2.3525
 3901SOL    HW215109   4.937  10.839   1.794 -1.4966 -0.6376 -3.4137
 3902SOL     OW15110   1.002   5.099   2.655  0.2013  0.3434  0.0781
 3902SOL    HW115111   1.037   5.085   2.743 -0.6375  3.5611  0.9976
 3902SOL    HW215112   1.078   5.126   2.603  0.2774  0.7391  0.3952
 3903SOL     OW15113   9.165   5.423   4.249 -0.4743  0.3625 -0.0964
 3903SOL    HW115114   9.207   5.338   4.238 -1.2839  0.1191 -1.3878
 3903SOL    HW215115   9.079   5.403   4.286  0.1143  0.7883  1.5804
 3904SOL     OW15116   0.184   1.090   5.752 -0.3881 -0.0207 -0.4828
 3904SOL    HW115117   0.143   1.094   5.665  1.0554  0.7914 -1.1507
 3904SOL    HW215118   0.209   0.998   5.762 -0.4395 -0.0954 -1.0103
 3905SOL     OW15119  10.615   9.263   1.058  0.3271  0.3706  0.3604
 3905SOL    HW115120  10.675   9.193   1.031 -0.3663 -0.2770  0.4795
 3905SOL    HW215121  10.622   9.329   0.990  2.2157  0.9347  1.0543
 3906SOL     OW15122   9.812   8.773   8.795  0.3555  0.1962  0.6418
 3906SOL    HW115123   9.830   8.853   8.844 -1.4573  0.0161  1.6556
 3906SOL    HW215124   9.770   8.715   8.859 -0.3733 -0.7318 -0.6487
 3907SOL     OW15125   1.463  10.667   1.911 -0.3809  0.0490  0.8112
 3907SOL    HW115126   1.380  10.706   1.885 -0.7112 -0.9700  0.3377
 3907SOL    HW215127   1.446  10.624   1.994 -0.3465 -0.2170  0.6819
 3908SOL     OW15128   2.352   1.656   1.767 -0.0868 -0.3033  0.6440
 3908SOL    HW115129   2.365   1.731   1.709 -0.8732  0.2485  1.1584
 3908SOL    HW215130   2.437   1.642   1.808  0.2177 -0.0786  0.0935
 3909SOL     OW15131   1.689   9.013   3.747  0.0464 -0.2201  0.1190
 3909SOL    HW115132   1.672   9.019   3.653 -0.5146  0.7831  0.2759
 3909SOL    HW215133   1.617   9.062   3.788  0.1944 -0.7839  1.0803
 3910SOL     OW15134   7.427   8.924   7.948 -0.0451  0.1460  0.0920
 3910SOL    HW115135   7.434   9.017   7.924 -1.8806  0.3236  0.1234
 3910SOL    HW215136   7.392   8.882   7.869  2.6463 -0.8997 -0.5996
 3911SOL     OW15137   5.975   6.386   3.992  0.0859 -0.0450 -0.4427
 3911SOL    HW115138   5.950   6.299   3.961  0.3318 -0.5982  0.8765
 3911SOL    HW215139   6.067   6.394   3.967  0.5571 -0.8807  0.9605
 3912SOL     OW15140   6.225  10.100   3.048  0.1993 -0.4455 -0.4481
 3912SOL    HW115141   6.231  10.035   2.978 -0.0495 -1.4954  0.4735
 3912SOL    HW215142   6.211  10.047   3.127  1.3362  0.6614  0.5120
 3913SOL     OW15143   5.077   5.764   2.234  0.4641  0.6557 -0.0083
 3913SOL    HW115144   5.138   5.799   2.168 -1.3782 -0.1212 -2.2013
 3913SOL    HW215145   5.095   5.670   2.236  2.3784  1.0290  2.6480
 3914SOL     OW15146  10.656   7.012   4.957 -0.4073 -0.1375 -0.2754
 3914SOL    HW115147  10.644   6.946   4.889  1.1088 -0.3960 -0.3170
 3914SOL    HW215148  10.733   6.981   5.006 -0.8786  0.5651  0.9292
 3915SOL     OW15149   5.759   8.151   7.481 -0.2045  0.3809 -0.4543
 3915SOL    HW115150   5.728   8.096   7.408 -1.7044 -0.0909  0.5116
 3915SOL    HW215151   5.746   8.097   7.559 -0.4568  1.6065  0.3683
 3916SOL     OW15152   0.508   4.497   6.430  0.0035  0.5746 -0.4420
 3916SOL    HW115153   0.534   4.561   6.363  0.3653 -0.6213 -1.4856
 3916SOL    HW215154   0.450   4.437   6.383 -1.3379  0.8619  0.8473
 3917SOL     OW15155   5.332   7.445  10.452 -0.0448  0.1894 -0.0726
 3917SOL    HW115156   5.420   7.478  10.471 -0.4657  1.6213 -0.5118
 3917SOL    HW215157   5.321   7.460  10.358 -1.4011  1.6382  0.3084
 3918SOL     OW15158   9.751   2.583   3.858 -0.0621  0.0865  0.2424
 3918SOL    HW115159   9.720   2.493   3.848 -1.6216  0.7314 -0.9664
 3918SOL    HW215160   9.840   2.582   3.822 -0.3579 -0.8157 -0.4976
 3919SOL     OW15161   3.624   7.518   2.023  0.0952 -0.2150 -0.7209
 3919SOL    HW115162   3.635   7.425   2.003 -0.4201 -0.0059 -1.9961
 3919SOL    HW215163   3.559   7.549   1.960  0.4724  1.0819 -0.4813
 3920SOL     OW15164   8.042   3.095   3.711 -0.1590  0.2487  0.0839
 3920SOL    HW115165   8.002   3.073   3.795 -0.7286  1.7569  0.2329
 3920SOL    HW215166   7.969   3.119   3.654  0.3178  0.4993 -0.4355
 3921SOL     OW15167  10.887   6.043   8.441 -0.1471 -0.0057 -0.0381
 3921SOL    HW115168  10.961   5.982   8.440 -0.4453 -0.3666 -1.5100
 3921SOL    HW215169  10.927   6.128   8.459  0.6478 -0.1714 -0.9854
 3922SOL     OW15170   1.743   8.512   2.295 -0.8034 -0.6224 -0.0610
 3922SOL    HW115171   1.691   8.471   2.364 -0.6158  0.6861  0.8701
 3922SOL    HW215172   1.699   8.596   2.279 -1.4715 -1.3600 -2.2849
 3923SOL     OW15173   5.677   9.078   4.773  0.2118 -0.3645 -0.0236
 3923SOL    HW115174   5.653   9.154   4.720  0.3983  1.6569  2.6761
 3923SOL    HW215175   5.600   9.063   4.828  0.7149 -1.2410  0.4409
 3924SOL     OW15176   6.246   1.393   6.888  0.0280  0.2288  0.2507
 3924SOL    HW115177   6.188   1.415   6.816 -0.2257  0.5709  0.5549
 3924SOL    HW215178   6.244   1.297   6.893 -0.0663  0.2145 -0.1021
 3925SOL     OW15179   8.295  10.016   7.484 -0.3467  0.3019  0.0260
 3925SOL    HW115180   8.286  10.099   7.531  1.9008  0.2999  0.5143
 3925SOL    HW215181   8.368   9.972   7.527 -1.4762 -1.9331 -0.2589
 3926SOL     OW15182   2.046   1.925   2.027  0.0414  0.1532  0.0980
 3926SOL    HW115183   2.104   1.996   1.999 -0.4405  0.1405 -0.9787
 3926SOL    HW215184   2.032   1.939   2.121 -1.1537  2.2883 -0.3747
 3927SOL     OW15185   4.353   1.162   3.412  0.3107  0.2329  0.1516
 3927SOL    HW115186   4.374   1.089   3.471  0.6708 -0.3088 -0.6426
 3927SOL    HW215187   4.427   1.166   3.351 -0.1789  0.6313 -0.4198
 3928SOL     OW15188   5.663   1.556   3.565 -0.2653  0.0051  0.4224
 3928SOL    HW115189   5.615   1.617   3.621 -0.5009 -0.0260  0.2499
 3928SOL    HW215190   5.627   1.569   3.478 -0.2925 -0.3593  0.3789
 3929SOL     OW15191   8.455   2.573   0.620  0.6585  0.3135 -0.6307
 3929SOL    HW115192   8.541   2.539   0.644  0.4595 -0.6276 -1.1854
 3929SOL    HW215193   8.400   2.555   0.696  0.1981 -2.0211 -1.4484
 3930SOL     OW15194   8.004   3.507   6.556 -0.0908  0.1128  0.0399
 3930SOL    HW115195   8.002   3.413   6.573 -1.8024  0.2030  0.3935
 3930SOL    HW215196   7.942   3.544   6.619 -1.5942  1.1767 -2.0231
 3931SOL     OW15197   0.414  10.231   0.409 -0.6340 -0.6034  0.5879
 3931SOL    HW115198   0.435  10.165   0.344 -0.2309  0.2099 -0.1263
 3931SOL    HW215199   0.349  10.190   0.465 -1.7228 -0.9714 -0.9211
 3932SOL     OW15200   1.746   9.969   6.112  0.4801 -0.7325  0.1264
 3932SOL    HW115201   1.795   9.944   6.191  1.0936 -1.1028 -0.3739
 3932SOL    HW215202   1.791   9.925   6.041 -0.9914 -1.6129 -0.2623
 3933SOL     OW15203   1.741   8.421   1.243  0.1990  0.1684  0.3979
 3933SOL    HW115204   1.775   8.373   1.318 -0.5670 -1.8448 -0.4852
 3933SOL    HW215205   1.646   8.405   1.245  0.0718  0.7614 -0.5157
 3934SOL     OW15206   2.985   9.331   9.263  0.2279  0.0184  0.2621
 3934SOL    HW115207   3.057   9.276   9.230  0.4308 -1.8198  3.6203
 3934SOL    HW215208   2.907   9.276   9.255 -0.4559  1.1576 -1.1498
 3935SOL     OW15209  10.316   4.953   7.611 -0.4379  0.0015  0.3729
 3935SOL    HW115210  10.325   5.048   7.615  0.6739 -0.0422 -0.7047
 3935SOL    HW215211  10.265   4.936   7.532  0.3108 -0.3370 -0.0481
 3936SOL     OW15212   5.686   9.447   5.323 -0.0339 -0.3459  0.8047
 3936SOL    HW115213   5.711   9.540   5.329  0.7011 -0.5719  1.3409
 3936SOL    HW215214   5.763   9.400   5.355  0.1128 -1.1987 -0.7721
 3937SOL     OW15215   4.162   2.376   8.599  0.4270  0.0496  0.1496
 3937SOL    HW115216   4.095   2.397   8.664 -0.5250 -1.8287 -0.1776
 3937SOL    HW215217   4.243   2.369   8.649 -0.4360 -2.1542  1.2958
 3938SOL     OW15218  10.968   7.506   3.022  0.0504 -0.1482  0.5952
 3938SOL    HW115219  10.992   7.592   3.055  0.2993  0.0797 -0.1730
 3938SOL    HW215220  10.885   7.519   2.977  0.0383 -0.3343  0.5627
 3939SOL     OW15221   1.915   7.381   2.041  0.2729  0.3334 -0.0869
 3939SOL    HW115222   1.836   7.344   2.078 -0.3724  1.5297 -0.2252
 3939SOL    HW215223   1.986   7.348   2.096 -0.3991 -0.1169  0.5127
 3940SOL     OW15224   0.288   4.645   1.802 -0.5469  0.5062 -0.2441
 3940SOL    HW115225   0.246   4.667   1.885 -1.8905  0.6204 -0.9398
 3940SOL    HW215226   0.237   4.572   1.767  0.1420  0.3113 -0.8717
 3941SOL     OW15227   8.943   8.620   1.859  0.1008 -0.0240  0.1645
 3941SOL    HW115228   8.891   8.676   1.801  0.1258 -0.1979 -0.0283
 3941SOL    HW215229   8.894   8.537   1.861 -0.5596  0.3871  1.3810
 3942SOL     OW15230  10.405  10.829   2.994 -0.2636  0.3204 -0.0300
 3942SOL    HW115231  10.458  10.899   3.032 -0.5963  1.6283 -1.8889
 3942SOL    HW215232  10.444  10.815   2.908 -2.3015  0.6153 -1.0245
 3943SOL     OW15233   6.514   2.514   0.061 -0.1226  0.1616  0.7423
 3943SOL    HW115234   6.424   2.503   0.090  0.2247  0.9211  2.1871
 3943SOL    HW215235   6.538   2.430   0.021 -1.8183  0.3275 -0.7015
 3944SOL     OW15236   4.658   5.554  10.107 -0.2580 -0.5236  0.0288
 3944SOL    HW115237   4.683   5.483  10.165  3.0294  0.5007 -0.0521
 3944SOL    HW215238   4.574   5.586  10.142 -0.0139 -2.1243  2.1375
 3945SOL     OW15239   2.585   5.971   6.829  0.0872  1.0128 -0.2315
 3945SOL    HW115240   2.672   5.944   6.857 -1.2776 -1.2124  2.0800
 3945SOL    HW215241   2.560   6.041   6.889 -1.0870 -0.7581  1.3901
 3946SOL     OW15242   3.933  10.629   2.077 -0.2231  0.0569  0.0358
 3946SOL    HW115243   3.851  10.619   2.027  0.0169  0.0803 -0.3649
 3946SOL    HW215244   3.969  10.712   2.046 -0.8174  0.8227  1.3354
 3947SOL     OW15245   9.338   2.059   8.077 -0.1622 -0.2044 -0.2889
 3947SOL    HW115246   9.352   2.064   7.982 -0.4855  0.5117 -0.3022
 3947SOL    HW215247   9.269   1.993   8.087 -1.0981  0.6877 -0.6625
 3948SOL     OW15248   7.213   7.158   2.106 -0.0604 -0.3642  0.0009
 3948SOL    HW115249   7.141   7.166   2.169  0.1854  0.4811  0.1762
 3948SOL    HW215250   7.192   7.221   2.037 -1.3028 -2.6095 -1.7325
 3949SOL     OW15251  10.467   6.632   9.424 -0.1151  0.3931 -0.2368
 3949SOL    HW115252  10.444   6.606   9.513 -2.4332  0.2285 -0.8604
 3949SOL    HW215253  10.558   6.659   9.431 -0.2915  0.5280  2.2207
 3950SOL     OW15254  10.667   7.245   1.609  0.0029  0.4932 -0.3505
 3950SOL    HW115255  10.603   7.304   1.571 -1.1291  0.5803  1.6355
 3950SOL    HW215256  10.619   7.163   1.624  0.2728  0.6230  1.3476
 3951SOL     OW15257   3.254   1.788  10.146  0.1272  0.2356  0.7088
 3951SOL    HW115258   3.234   1.875  10.113 -0.0981  0.3232  1.0720
 3951SOL    HW215259   3.350   1.786  10.154  0.1399  0.4035  0.5738
 3952SOL     OW15260   7.507   1.996   9.149  0.1087 -0.8056  0.3898
 3952SOL    HW115261   7.553   1.915   9.124 -0.0473 -0.7409 -0.1279
 3952SOL    HW215262   7.454   1.971   9.225 -1.2543 -1.6520 -0.7909
 3953SOL     OW15263  10.578   4.590   7.458 -0.3447  0.1915  0.4147
 3953SOL    HW115264  10.539   4.663   7.506  1.0538  1.3791 -0.2380
 3953SOL    HW215265  10.509   4.563   7.396 -1.1883  0.3503  1.2682
 3954SOL     OW15266   0.623   0.299  10.665 -0.7902 -0.6375 -0.4809
 3954SOL    HW115267   0.574   0.256  10.595 -0.5189 -2.0976  0.2114
 3954SOL    HW215268   0.623   0.237  10.737  1.0452 -0.1700 -0.0414
 3955SOL     OW15269   0.364   5.311   0.813 -0.3484 -0.0655  0.0708
 3955SOL    HW115270   0.341   5.376   0.747  0.3696 -0.2759 -0.3888
 3955SOL    HW215271   0.406   5.362   0.883 -0.2656  0.0344 -0.0514
 3956SOL     OW15272   9.802   3.429   6.528  0.6591  0.0366 -0.3326
 3956SOL    HW115273   9.813   3.403   6.436  0.7700 -2.1131  0.2518
 3956SOL    HW215274   9.707   3.425   6.542  0.6400  0.3917 -0.3659
 3957SOL     OW15275   0.480   2.860   2.490  0.3160  0.2664  0.9831
 3957SOL    HW115276   0.524   2.783   2.527  0.0690 -0.0289  0.6660
 3957SOL    HW215277   0.511   2.864   2.400 -1.0805 -0.5514  0.4385
 3958SOL     OW15278   3.930   4.269   0.692 -0.0441  0.2196  0.3968
 3958SOL    HW115279   3.938   4.311   0.777 -0.7931  1.5128 -0.1639
 3958SOL    HW215280   3.863   4.319   0.646 -0.7397 -1.4056 -0.4006
 3959SOL     OW15281   4.119   4.677   0.092 -0.3616  0.3402 -0.0540
 3959SOL    HW115282   4.151   4.595   0.132 -1.8698 -1.0932 -1.7323
 3959SOL    HW215283   4.040   4.698   0.141 -1.4195 -0.6496 -1.2909
 3960SOL     OW15284   8.440   8.752   5.075 -0.5226 -0.1639  0.3363
 3960SOL    HW115285   8.382   8.716   5.008  0.3234  0.2129 -0.5919
 3960SOL    HW215286   8.496   8.814   5.029  2.1784 -2.1760  0.7961
 3961SOL     OW15287   8.166   7.653   1.559  0.2257  0.1505  0.4761
 3961SOL    HW115288   8.181   7.563   1.586 -2.2230 -0.3311  0.3325
 3961SOL    HW215289   8.148   7.648   1.466  0.8173  0.8827  0.3149
 3962SOL     OW15290   1.117   6.185   2.521  0.0769 -0.3216  0.0115
 3962SOL    HW115291   1.064   6.137   2.585  0.0171  0.2314  0.3760
 3962SOL    HW215292   1.068   6.264   2.502  0.6074  0.0275  0.0873
 3963SOL     OW15293   5.287   3.445   9.650  0.7477  0.3070  0.0812
 3963SOL    HW115294   5.347   3.518   9.662  0.5370  0.7161 -1.2980
 3963SOL    HW215295   5.308   3.385   9.721  1.6395  1.2151  0.5978
 3964SOL     OW15296  10.445  10.881   4.118 -0.4541  0.2970  0.4813
 3964SOL    HW115297  10.459  10.874   4.213 -0.4604  1.6608  0.5979
 3964SOL    HW215298  10.356  10.914   4.109  0.0155  1.4623  0.0451
 3965SOL     OW15299   6.667   2.123   2.270 -0.0738  0.4173 -0.2509
 3965SOL    HW115300   6.655   2.193   2.335 -0.1322 -0.5000  0.7418
 3965SOL    HW215301   6.612   2.051   2.302  0.2549 -0.2096 -1.0830
 3966SOL     OW15302   3.314  10.806   0.140  0.3881  0.0237 -0.8032
 3966SOL    HW115303   3.258  10.751   0.086 -0.2961 -0.7678  0.6751
 3966SOL    HW215304   3.254  10.867   0.183  0.4038 -1.8081  1.9611
 3967SOL     OW15305   9.437   5.888   9.887  0.5514  0.5409  0.0185
 3967SOL    HW115306   9.395   5.954   9.832 -0.2061 -1.0951 -1.3917
 3967SOL    HW215307   9.366   5.854   9.943  0.4128 -0.7611 -0.9292
 3968SOL     OW15308   6.569   7.818   8.496 -0.3789  0.5282  0.3035
 3968SOL    HW115309   6.620   7.864   8.430  0.3915  0.7196  1.0223
 3968SOL    HW215310   6.477   7.836   8.473 -0.1639 -0.8369 -1.7049
 3969SOL     OW15311   8.245   4.203   2.369  0.1177  0.0468 -0.1889
 3969SOL    HW115312   8.163   4.251   2.362 -0.1862 -0.2605  1.1740
 3969SOL    HW215313   8.312   4.270   2.380 -0.1095  0.2293  0.0664
 3970SOL     OW15314   6.653   7.728   8.164  0.1997 -0.5957 -0.1510
 3970SOL    HW115315   6.741   7.701   8.191  1.8543  2.2836 -2.3626
 3970SOL    HW215316   6.637   7.809   8.214 -0.2309  0.1133 -1.4190
 3971SOL     OW15317   1.439   9.024   8.575  0.4290 -0.0961 -0.6328
 3971SOL    HW115318   1.372   9.084   8.541  0.9362  1.0036  0.2680
 3971SOL    HW215319   1.511   9.031   8.513  0.3684 -0.0012 -0.6939
 3972SOL     OW15320   0.471   9.585   6.703 -0.1453  0.3976 -0.0744
 3972SOL    HW115321   0.381   9.612   6.723 -0.0946  1.1556 -0.8662
 3972SOL    HW215322   0.471   9.490   6.719 -0.7655  0.5750  1.0828
 3973SOL     OW15323   7.266   2.968   2.548 -0.2283 -0.1049 -0.4972
 3973SOL    HW115324   7.343   2.917   2.522 -0.6909 -0.4069 -1.2814
 3973SOL    HW215325   7.297   3.022   2.621  0.0398 -2.1687  0.9806
 3974SOL     OW15326  10.667   5.099  10.079  0.0469  0.1769 -0.4831
 3974SOL    HW115327  10.697   5.028  10.135 -0.7794 -0.2601 -0.5878
 3974SOL    HW215328  10.743   5.120  10.025  0.4364 -0.3125 -0.1306
 3975SOL     OW15329   7.570   3.546   0.679 -0.2803 -0.5456 -0.0242
 3975SOL    HW115330   7.628   3.481   0.719 -0.8401 -2.1309 -1.7561
 3975SOL    HW215331   7.544   3.603   0.752  0.7955 -1.8214  1.3725
 3976SOL     OW15332   6.216   0.179   3.211 -0.1197 -0.4512  0.2249
 3976SOL    HW115333   6.131   0.215   3.236 -0.5446 -1.3684  0.1222
 3976SOL    HW215334   6.204   0.084   3.217  1.4094 -0.5419  1.8678
 3977SOL     OW15335   2.054   7.346   8.629 -0.0507 -0.1003  0.1387
 3977SOL    HW115336   2.003   7.426   8.642 -0.6718 -0.7498  1.8748
 3977SOL    HW215337   2.037   7.293   8.707 -0.7052 -2.5153 -1.5698
 3978SOL     OW15338  10.722   7.613   4.651 -0.8113  0.2082  0.0058
 3978SOL    HW115339  10.629   7.603   4.669 -1.1521 -2.6753 -2.8755
 3978SOL    HW215340  10.765   7.554   4.713 -1.0286  0.3531  0.2918
 3979SOL     OW15341   3.546   4.138  10.384 -0.2026  0.2304 -0.1263
 3979SOL    HW115342   3.591   4.198  10.325  1.6905 -1.6465 -0.6072
 3979SOL    HW215343   3.588   4.053  10.371 -1.2115 -0.7057  2.3248
 3980SOL     OW15344   5.488   0.936   2.067 -0.2512 -0.0769 -0.5287
 3980SOL    HW115345   5.541   0.857   2.070 -0.3162 -0.1209 -0.5528
 3980SOL    HW215346   5.399   0.905   2.050 -0.4105 -0.0602  0.2510
 3981SOL     OW15347   2.376   7.688   1.929  0.0985 -0.0447 -0.3695
 3981SOL    HW115348   2.343   7.777   1.932  0.7657  0.1388  2.0416
 3981SOL    HW215349   2.397   7.666   2.020  3.3293 -1.3584 -1.3283
 3982SOL     OW15350   3.029   3.430  10.154  0.6176  0.6958  0.3755
 3982SOL    HW115351   2.935   3.443  10.162  0.6114  0.7188  0.2591
 3982SOL    HW215352   3.045   3.422  10.060  0.5157 -0.9378  0.4739
 3983SOL     OW15353  10.788   7.778  10.077 -0.2033  0.2360 -0.3551
 3983SOL    HW115354  10.751   7.741  10.157 -0.3022 -1.5993 -1.2245
 3983SOL    HW215355  10.715   7.779  10.015  0.1929  0.4324 -0.8205
 3984SOL     OW15356   3.398  10.748   3.736 -0.0809 -0.0114  0.2759
 3984SOL    HW115357   3.364  10.659   3.746 -0.0466 -0.3170 -1.9189
 3984SOL    HW215358   3.461  10.741   3.664 -0.6311  1.9262 -0.4313
 3985SOL     OW15359   4.405   3.317   9.420 -0.1483  0.1063 -0.7958
 3985SOL    HW115360   4.342   3.387   9.434 -0.5355 -0.3365 -0.2849
 3985SOL    HW215361   4.359   3.254   9.365 -0.7759 -1.0308  0.9776
 3986SOL     OW15362   8.007   0.153   4.401 -0.1123 -0.1456  0.0112
 3986SOL    HW115363   7.911   0.156   4.392 -0.1692  1.2949  0.8949
 3986SOL    HW215364   8.024   0.075   4.453 -1.0103  1.0703  2.1616
 3987SOL     OW15365   4.373   5.915   7.360  0.3182  0.2544 -0.0311
 3987SOL    HW115366   4.360   5.824   7.331 -2.5267  0.7645 -0.5720
 3987SOL    HW215367   4.464   5.935   7.338  0.8886 -2.3557 -0.2154
 3988SOL     OW15368   1.900   6.474   3.006 -0.7495  0.0100  0.2986
 3988SOL    HW115369   1.905   6.400   2.945 -0.8952  0.7757 -0.6516
 3988SOL    HW215370   1.827   6.527   2.974 -1.4861 -0.1123  1.7488
 3989SOL     OW15371   0.752   3.820   8.861 -0.7473  0.8114  0.4214
 3989SOL    HW115372   0.682   3.834   8.924 -1.1100  2.6259 -0.3353
 3989SOL    HW215373   0.708   3.815   8.776  0.0070  1.7088 -0.0332
 3990SOL     OW15374   0.712   9.611   3.688 -0.2025  0.2295 -0.0374
 3990SOL    HW115375   0.711   9.538   3.626 -0.0103  0.1737  0.0284
 3990SOL    HW215376   0.693   9.688   3.634 -0.9924  0.0573 -0.0138
 3991SOL     OW15377   2.044   5.736   9.539 -0.7464 -0.0903  0.0712
 3991SOL    HW115378   1.996   5.778   9.467 -0.6497 -1.0360 -0.5585
 3991SOL    HW215379   2.002   5.769   9.618 -1.7231 -0.0485 -0.4551
 3992SOL     OW15380   7.493   9.337   3.163  0.5227 -0.3528  0.5214
 3992SOL    HW115381   7.572   9.377   3.199 -0.4613  2.1189  0.0471
 3992SOL    HW215382   7.436   9.325   3.239  0.8105 -0.8409  0.6624
 3993SOL     OW15383   5.951   3.843   8.596  0.2528  0.1771 -0.5857
 3993SOL    HW115384   5.974   3.757   8.630  0.3730 -0.1206 -1.4090
 3993SOL    HW215385   6.017   3.861   8.529 -0.2438  0.5600 -0.9809
 3994SOL     OW15386   0.636  10.653   0.360  0.3798 -0.3744 -0.1673
 3994SOL    HW115387   0.676  10.636   0.445  1.5292  0.6693 -0.4970
 3994SOL    HW215388   0.620  10.747   0.359  0.6050 -0.3407 -1.1991
 3995SOL     OW15389  10.183   4.734   5.047 -0.3286  0.0879  0.3703
 3995SOL    HW115390  10.212   4.806   5.102 -0.4553  0.4459 -0.0306
 3995SOL    HW215391  10.100   4.706   5.086 -1.1693  1.3157 -0.5090
 3996SOL     OW15392   3.118   5.420   0.897 -0.3297  0.5560  0.0104
 3996SOL    HW115393   3.207   5.418   0.861  0.1180  2.1011  0.9668
 3996SOL    HW215394   3.064   5.375   0.832  0.7189  1.8804 -1.8305
 3997SOL     OW15395  10.197   7.175   7.307 -0.1779  0.5036  0.2808
 3997SOL    HW115396  10.137   7.249   7.314  2.0490  2.3720  0.4824
 3997SOL    HW215397  10.243   7.190   7.224 -0.1021 -0.9467  0.0605
 3998SOL     OW15398   8.188   2.108   8.833 -0.1501 -0.5484 -0.0380
 3998SOL    HW115399   8.147   2.064   8.907 -0.9723 -0.4520 -0.4236
 3998SOL    HW215400   8.233   2.039   8.785 -0.6249 -0.8162 -0.1043
 3999SOL     OW15401   2.390   1.353   8.522 -0.0698  0.6419  0.4571
 3999SOL    HW115402   2.342   1.331   8.443  1.0790  0.5043 -0.2151
 3999SOL    HW215403   2.393   1.271   8.572 -2.3685  1.1605  1.5237
 4000SOL     OW15404   0.878   5.272   1.608 -0.4417  0.1492  0.0290
 4000SOL    HW115405   0.788   5.241   1.619 -0.9446  1.0578 -1.3768
 4000SOL    HW215406   0.924   5.198   1.568 -0.1493 -0.8910  2.2193
 4001SOL     OW15407   4.147   2.119   6.785  0.7478  0.4651 -0.1764
 4001SOL    HW115408   4.136   2.040   6.838 -0.4241 -0.4007 -1.6545
 4001SOL    HW215409   4.242   2.131   6.780  0.9114 -0.2048  0.9902
 4002SOL     OW15410   6.725   2.157   5.399  0.1450  0.0831  0.7277
 4002SOL    HW115411   6.695   2.103   5.326 -1.4862 -0.9596  2.1062
 4002SOL    HW215412   6.819   2.165   5.387  0.3374 -2.5930  0.1457
 4003SOL     OW15413   6.650   8.979   0.895 -0.0374  0.1143 -0.5494
 4003SOL    HW115414   6.629   9.043   0.963  1.8931 -0.1197  0.3139
 4003SOL    HW215415   6.591   8.906   0.912  0.1253  0.2452  0.6339
 4004SOL     OW15416   9.472   6.508   8.850 -0.3137  0.1534 -0.0206
 4004SOL    HW115417   9.464   6.495   8.756  0.7475  0.4677 -0.1626
 4004SOL    HW215418   9.506   6.598   8.859 -2.8738  1.0894  0.7456
 4005SOL     OW15419   9.191   0.493  10.455  0.4582 -0.1185  0.0008
 4005SOL    HW115420   9.098   0.508  10.443  0.2732  0.3886  1.9665
 4005SOL    HW215421   9.204   0.401  10.430 -0.7939 -0.5544  0.9450
 4006SOL     OW15422   3.559  10.752   4.704 -0.5250 -0.5951  0.3004
 4006SOL    HW115423   3.548  10.794   4.619 -1.4314  0.3518  0.8726
 4006SOL    HW215424   3.654  10.750   4.718 -0.4217  0.2026 -0.2621
 4007SOL     OW15425   9.541   8.210   5.582 -1.0206  0.1241  0.3380
 4007SOL    HW115426   9.472   8.198   5.518 -1.0180 -0.0330  0.3619
 4007SOL    HW215427   9.617   8.164   5.545 -1.4220 -1.2087  1.1083
 4008SOL     OW15428   7.062   1.204   3.652 -0.6912 -0.0347  0.1466
 4008SOL    HW115429   7.151   1.187   3.684 -1.3372 -1.3336  1.3012
 4008SOL    HW215430   7.024   1.117   3.642 -2.3552  0.5641  1.1315
 4009SOL     OW15431   4.647   8.652   1.412  0.8823  0.5240 -0.3091
 4009SOL    HW115432   4.659   8.647   1.507  0.3973  0.4288 -0.2497
 4009SOL    HW215433   4.552   8.647   1.400  0.8931  1.4552 -0.7524
 4010SOL     OW15434  10.171   0.291  10.535  0.2377  0.0869 -0.4282
 4010SOL    HW115435  10.174   0.236  10.458  0.4803 -0.3842 -0.0854
 4010SOL    HW215436  10.097   0.258  10.586 -0.0553  0.5338 -0.5628
 4011SOL     OW15437   2.472   1.160   0.597  0.9880 -0.2700 -0.2423
 4011SOL    HW115438   2.539   1.149   0.665  0.6202 -0.4414  0.0879
 4011SOL    HW215439   2.401   1.101   0.622 -0.0100  1.1477  0.3001
 4012SOL     OW15440   2.996   9.444  10.621 -0.7763 -0.1524  0.2581
 4012SOL    HW115441   2.975   9.390  10.698  0.0570  2.1026  2.1405
 4012SOL    HW215442   2.945   9.523  10.633  0.1511  0.6471 -1.0007
 4013SOL     OW15443   5.996   4.142   0.407  0.7496  0.0861 -0.6043
 4013SOL    HW115444   5.962   4.078   0.344  1.0346  0.3251 -1.0107
 4013SOL    HW215445   5.919   4.191   0.436  0.1624 -2.1355  1.6758
 4014SOL     OW15446   4.925   5.175   2.185 -0.4741 -0.2453  0.2771
 4014SOL    HW115447   4.890   5.123   2.257 -1.4497  0.0821  0.0548
 4014SOL    HW215448   5.020   5.166   2.192 -0.5419  0.0683  1.8251
 4015SOL     OW15449   2.770   1.403   6.617 -0.1217 -0.5041  0.6602
 4015SOL    HW115450   2.823   1.479   6.594 -0.2341 -0.2017  1.3802
 4015SOL    HW215451   2.744   1.418   6.708 -1.3449 -0.7014  0.3567
 4016SOL     OW15452   4.842   9.021   6.824  0.4517 -0.5440 -0.2258
 4016SOL    HW115453   4.797   8.956   6.876  0.3737 -1.4127 -1.3524
 4016SOL    HW215454   4.922   9.040   6.873 -0.0845 -0.6215  0.6810
 4017SOL     OW15455   3.758   0.741  10.881 -0.4002  0.2076 -0.2701
 4017SOL    HW115456   3.681   0.795  10.869 -0.2075  0.5896  0.1998
 4017SOL    HW215457   3.805   0.782  10.954  0.9891  0.8418 -1.4927
 4018SOL     OW15458   9.673   4.931   2.887  0.0146  0.0119 -0.4092
 4018SOL    HW115459   9.749   4.880   2.914  1.3779  3.0345  1.7163
 4018SOL    HW215460   9.707   4.990   2.820 -1.1608 -0.7137 -1.6488
 4019SOL     OW15461   3.946   5.097   1.437  0.3198 -0.0839 -0.0327
 4019SOL    HW115462   3.905   5.164   1.491 -1.3949 -1.5233  0.5213
 4019SOL    HW215463   3.962   5.024   1.497  0.7399 -0.7420 -0.9332
 4020SOL     OW15464   2.469   0.286   4.397  0.0508  0.4439  0.3281
 4020SOL    HW115465   2.495   0.202   4.434 -1.6095  0.4461  1.5521
 4020SOL    HW215466   2.551   0.335   4.387  0.8415 -0.6964  1.1733
 4021SOL     OW15467   6.554   4.839   7.904 -0.0685 -0.3923  0.9913
 4021SOL    HW115468   6.470   4.804   7.877 -0.2293 -0.4279  1.5459
 4021SOL    HW215469   6.549   4.846   7.999 -0.0316  1.1033  0.9017
 4022SOL     OW15470   8.827   2.406   9.211 -0.2263  0.3539  0.0869
 4022SOL    HW115471   8.763   2.341   9.240 -0.5053  0.1285 -1.0207
 4022SOL    HW215472   8.852   2.377   9.123  2.7497 -0.5649  1.1971
 4023SOL     OW15473  10.953   2.992   5.975 -0.2433  0.2650  0.1921
 4023SOL    HW115474  10.968   2.951   6.061  1.3569  0.7774  0.1760
 4023SOL    HW215475  10.864   2.966   5.951  0.1887 -1.9125  0.8877
 4024SOL     OW15476   7.029   6.630   7.065  0.6486  0.3744 -0.2614
 4024SOL    HW115477   7.059   6.548   7.103  0.1308  1.7678  3.4399
 4024SOL    HW215478   7.108   6.683   7.057  0.5813  0.5724  0.3000
 4025SOL     OW15479   8.735   1.944   3.951  0.3735  0.1686 -0.1837
 4025SOL    HW115480   8.805   1.970   4.011  0.9655  1.1037 -1.2654
 4025SOL    HW215481   8.744   1.849   3.942 -0.0486 -0.0580  1.5993
 4026SOL     OW15482   8.915  10.907   6.906  0.1275  0.6957 -0.1435
 4026SOL    HW115483   8.883  10.832   6.857  0.1521 -0.9798  2.2931
 4026SOL    HW215484   8.840  10.967   6.909 -0.0591  0.5554 -1.6630
 4027SOL     OW15485  10.740   8.902   7.368  0.1380 -0.5708 -0.4850
 4027SOL    HW115486  10.716   8.927   7.457  1.6481  0.0961 -0.2351
 4027SOL    HW215487  10.657   8.893   7.322 -0.6091  1.4001  0.3952
 4028SOL     OW15488   5.183   7.666   1.585 -0.6161  0.0005 -0.0189
 4028SOL    HW115489   5.094   7.678   1.620 -0.3872  2.0982 -0.0547
 4028SOL    HW215490   5.203   7.750   1.543  0.7915 -0.9843 -1.3819
 4029SOL     OW15491   4.420   9.420  10.949  0.0340 -0.6004  0.1187
 4029SOL    HW115492   4.384   9.342  10.990 -1.5276 -0.6467 -1.3023
 4029SOL    HW215493   4.413   9.404  10.855  0.7973  0.7477 -0.1855
 4030SOL     OW15494   3.973   8.072   1.059 -0.5816 -0.0565  0.0445
 4030SOL    HW115495   3.935   8.110   0.980  0.5744  0.7325 -0.1534
 4030SOL    HW215496   4.004   7.986   1.032 -0.8690 -0.0879 -0.1786
 4031SOL     OW15497   9.250   0.668   1.869  0.3472  0.1059  0.1833
 4031SOL    HW115498   9.331   0.620   1.852  0.9793  0.8466  1.0722
 4031SOL    HW215499   9.232   0.654   1.962  0.0031  0.7648  0.2239
 4032SOL     OW15500   8.016   5.039   9.679  0.1693 -0.5531  0.4821
 4032SOL    HW115501   8.075   5.114   9.683 -0.2285 -0.2373  0.4128
 4032SOL    HW215502   8.056   4.973   9.736 -0.2583  0.2426  1.7004
 4033SOL     OW15503   9.457   2.287   9.399 -0.0542  0.5233  0.0952
 4033SOL    HW115504   9.514   2.359   9.426  0.5149  0.0917  0.0550
 4033SOL    HW215505   9.473   2.219   9.464  1.5496 -0.6390 -1.4818
 4034SOL     OW15506   9.857   7.648   3.051 -0.0627  0.3424 -0.4638
 4034SOL    HW115507   9.764   7.634   3.034 -0.2117  1.3111 -0.4331
 4034SOL    HW215508   9.884   7.570   3.101 -1.4577  1.2372  1.7357
 4035SOL     OW15509   6.285   9.848   4.654  0.7214  0.4677 -0.3456
 4035SOL    HW115510   6.271   9.758   4.627 -0.7680  0.8708 -0.9860
 4035SOL    HW215511   6.368   9.873   4.614  1.2518 -0.6883  0.0327
 4036SOL     OW15512   6.671   8.324   1.380 -0.1484 -0.0610 -0.4454
 4036SOL    HW115513   6.745   8.363   1.425 -1.0282 -0.5403  1.4770
 4036SOL    HW215514   6.604   8.393   1.380 -0.9292 -0.8022  0.9866
 4037SOL     OW15515   4.907   9.002   6.567 -0.0133 -0.4037  0.1685
 4037SOL    HW115516   4.879   9.030   6.654  1.1753  2.1251 -0.1988
 4037SOL    HW215517   4.859   9.059   6.507  1.1689 -0.3091 -0.7084
 4038SOL     OW15518   4.967   0.260   9.519  0.1602 -0.6732 -0.7547
 4038SOL    HW115519   4.944   0.222   9.434  1.2509 -1.3383 -0.7556
 4038SOL    HW215520   5.010   0.343   9.498  0.2591 -0.7475 -0.8448
 4039SOL     OW15521   9.497   3.519   5.420  0.4587 -0.1365  0.4466
 4039SOL    HW115522   9.523   3.485   5.334  0.7978 -0.5452  0.7103
 4039SOL    HW215523   9.442   3.595   5.400 -0.0670 -0.6672 -0.1494
 4040SOL     OW15524   9.338   8.044  10.163  1.1306  0.1986  0.1733
 4040SOL    HW115525   9.401   7.980  10.195  1.0651 -0.2411 -0.5761
 4040SOL    HW215526   9.253   8.002  10.175  1.1827 -0.4836 -1.7432
 4041SOL     OW15527   3.372   7.352   2.447  1.0075  0.3912 -0.6367
 4041SOL    HW115528   3.451   7.298   2.460  1.0702  0.3285 -1.2330
 4041SOL    HW215529   3.403   7.427   2.396  1.0804  1.4148  0.8932
 4042SOL     OW15530  10.276  10.358   2.414 -0.3342 -0.2910 -0.1818
 4042SOL    HW115531  10.347  10.341   2.352 -0.4525 -2.3025  0.1989
 4042SOL    HW215532  10.319  10.398   2.489  0.2032 -0.3025 -0.4807
 4043SOL     OW15533   2.307   5.703   3.175  0.4726 -0.1738  0.3866
 4043SOL    HW115534   2.239   5.770   3.185  0.4961 -0.1534  0.4126
 4043SOL    HW215535   2.301   5.651   3.255  1.2269  0.5069  0.8900
 4044SOL     OW15536  10.448   5.408   8.107 -0.1386 -0.5004 -0.3503
 4044SOL    HW115537  10.361   5.395   8.071 -0.2637 -0.7652  0.0437
 4044SOL    HW215538  10.451   5.502   8.127 -0.1552 -0.4007 -0.8115
 4045SOL     OW15539   1.627   7.558   3.129  0.2041  0.5175  0.4529
 4045SOL    HW115540   1.707   7.583   3.083 -0.8627  0.4218 -1.5399
 4045SOL    HW215541   1.575   7.639   3.131 -0.9867 -0.1901 -1.1688
 4046SOL     OW15542   1.016   8.369   9.364 -0.6953  0.3417  0.1016
 4046SOL    HW115543   1.016   8.406   9.276  0.4319  0.3483  0.0906
 4046SOL    HW215544   1.093   8.312   9.365  0.5766  2.0349  1.7727
 4047SOL     OW15545  10.025  10.414   0.424 -0.3766  0.2115  0.2510
 4047SOL    HW115546   9.951  10.371   0.466  0.1207 -0.3361  0.5689
 4047SOL    HW215547  10.021  10.384   0.333 -0.1384 -0.3650  0.4285
 4048SOL     OW15548   1.256   7.783   8.524  0.2111  0.5075  0.2538
 4048SOL    HW115549   1.310   7.824   8.456 -1.1007  0.3231 -0.9425
 4048SOL    HW215550   1.260   7.690   8.503  0.5797  0.3568  1.0130
 4049SOL     OW15551  10.977   3.111   4.205  0.1540  0.0127  0.1606
 4049SOL    HW115552  11.009   3.152   4.124  0.8012 -3.2135 -1.3211
 4049SOL    HW215553  10.896   3.157   4.225 -0.1570  0.7269 -2.4945
 4050SOL     OW15554   5.883   4.891   6.452 -0.2571 -0.8649  0.1406
 4050SOL    HW115555   5.908   4.921   6.539  2.2740 -1.3154 -0.4009
 4050SOL    HW215556   5.804   4.839   6.467 -0.6943  0.2754  1.9556
 4051SOL     OW15557   4.501   9.082   7.070  0.5541 -0.4109 -0.5062
 4051SOL    HW115558   4.535   9.111   6.985  2.4889 -2.2268 -0.3931
 4051SOL    HW215559   4.504   9.161   7.124  1.6196  0.2026 -1.4225
 4052SOL     OW15560   6.042   0.211   1.241 -0.6611  0.0803 -0.3122
 4052SOL    HW115561   6.056   0.251   1.155  1.7378  1.1138  0.5285
 4052SOL    HW215562   5.987   0.274   1.288 -1.5187 -0.2288 -0.8949
 4053SOL     OW15563   6.778   5.103  10.891 -0.3289  0.0278 -0.4357
 4053SOL    HW115564   6.822   5.112  10.807 -1.2550 -1.2958 -1.0910
 4053SOL    HW215565   6.843   5.130  10.956  1.1295 -1.0205 -1.4385
 4054SOL     OW15566   5.795   3.533   2.012  0.0262 -0.3272 -0.2838
 4054SOL    HW115567   5.713   3.582   2.024  1.2777  2.1532 -1.4657
 4054SOL    HW215568   5.854   3.570   2.077  0.0452 -2.6147  1.0643
 4055SOL     OW15569   9.694   2.404   2.259 -0.4967  0.3481 -0.2472
 4055SOL    HW115570   9.715   2.315   2.234  1.2950  0.8494 -0.5908
 4055SOL    HW215571   9.660   2.396   2.348  1.7565 -0.4520  0.5706
 4056SOL     OW15572   0.548   4.596   6.190  0.2239  0.2268 -0.3655
 4056SOL    HW115573   0.471   4.573   6.138  1.4773  0.6531 -2.4539
 4056SOL    HW215574   0.619   4.542   6.154  1.4111  1.4997  0.0162
 4057SOL     OW15575   3.625  10.834   1.975 -0.1808 -0.6262 -0.1173
 4057SOL    HW115576   3.694  10.783   1.932  0.4107 -0.3453  0.5033
 4057SOL    HW215577   3.662  10.859   2.059 -0.6865  0.3494 -0.1810
 4058SOL     OW15578   3.067   9.344   2.008 -0.7427 -0.4094 -0.3818
 4058SOL    HW115579   2.989   9.379   2.050 -0.1475  1.4738 -0.8166
 4058SOL    HW215580   3.088   9.407   1.939  0.2931 -1.6736 -1.2470
 4059SOL     OW15581   9.196   8.806   5.761 -0.3724  0.6724 -0.0907
 4059SOL    HW115582   9.167   8.743   5.827  0.7629  1.2690  0.9885
 4059SOL    HW215583   9.202   8.889   5.809 -0.1991  1.2457 -1.1078
 4060SOL     OW15584  10.132  10.212   3.193 -0.0638 -0.2644 -0.5507
 4060SOL    HW115585  10.163  10.185   3.107 -0.3554  0.2115 -0.8055
 4060SOL    HW215586  10.116  10.306   3.185  0.2871 -0.1446  0.1376
 4061SOL     OW15587   7.672   3.804  10.379 -0.0271 -0.2679 -0.0909
 4061SOL    HW115588   7.750   3.846  10.343 -0.4509 -0.9967 -1.9473
 4061SOL    HW215589   7.599   3.859  10.349 -0.4427 -1.2951 -1.0142
 4062SOL     OW15590  10.374   9.508   5.439  0.5349  0.5318 -0.1466
 4062SOL    HW115591  10.300   9.448   5.443  2.0766 -1.4454 -0.7398
 4062SOL    HW215592  10.335   9.593   5.418 -1.6303 -0.3329  0.3058
 4063SOL     OW15593   9.680   5.045   6.764  0.0325 -0.2914  0.3583
 4063SOL    HW115594   9.713   5.125   6.805 -0.6112 -0.8068  1.9008
 4063SOL    HW215595   9.718   4.974   6.816  1.1147 -1.0299 -1.3806
 4064SOL     OW15596   4.960   2.320   7.318  0.3458 -0.2984  0.7717
 4064SOL    HW115597   4.884   2.360   7.276 -0.1331 -1.0217  0.9410
 4064SOL    HW215598   4.965   2.233   7.280  1.5517  0.0206  0.1975
 4065SOL     OW15599   8.216   6.863   6.856 -1.0478 -0.2703 -0.0258
 4065SOL    HW115600   8.274   6.882   6.930 -2.0215  0.5078  0.5505
 4065SOL    HW215601   8.194   6.771   6.866 -0.0777 -0.5277 -0.1401
 4066SOL     OW15602   5.370   2.918   9.828  0.0028  0.3301  0.3769
 4066SOL    HW115603   5.379   2.845   9.766 -2.2802 -0.2937  0.7430
 4066SOL    HW215604   5.382   2.996   9.774  0.9760 -0.2751 -0.3001
 4067SOL     OW15605   1.689   5.567   1.167  0.2418 -0.0080 -0.2627
 4067SOL    HW115606   1.634   5.592   1.242  0.8814 -1.3589  0.6530
 4067SOL    HW215607   1.724   5.651   1.135 -1.7266  0.8060 -0.3988
 4068SOL     OW15608   2.363   7.144   7.773 -0.0520 -0.1732  0.6172
 4068SOL    HW115609   2.290   7.084   7.759  0.0187 -0.5060  1.6985
 4068SOL    HW215610   2.441   7.090   7.768  0.0281 -0.1191  1.3016
 4069SOL     OW15611   8.016   7.950   9.026  0.7530 -0.5964  0.4474
 4069SOL    HW115612   8.094   7.968   9.079  0.0551  1.4891  0.8016
 4069SOL    HW215613   7.957   7.904   9.085  1.4185 -1.5848  0.3705
 4070SOL     OW15614   8.843   0.449   6.654 -0.2423 -0.4007 -0.2125
 4070SOL    HW115615   8.840   0.355   6.636  0.6509 -1.0404  2.7130
 4070SOL    HW215616   8.761   0.483   6.618 -0.8446 -2.3769 -0.7786
 4071SOL     OW15617   6.634   9.709   3.438  0.1177  0.1666 -0.0330
 4071SOL    HW115618   6.676   9.787   3.474 -1.3743 -0.6143  3.6318
 4071SOL    HW215619   6.565   9.744   3.381  0.6857  1.4912  0.0763
 4072SOL     OW15620   0.488   8.915   3.866 -0.0750  0.6538  0.2767
 4072SOL    HW115621   0.488   8.983   3.933  0.6099  0.7078  0.2212
 4072SOL    HW215622   0.433   8.845   3.903 -0.5386  1.1158  0.4543
 4073SOL     OW15623  10.626   6.641   3.499 -0.0166  0.6806 -0.0126
 4073SOL    HW115624  10.695   6.584   3.534 -0.3904  1.2731  1.6986
 4073SOL    HW215625  10.672   6.698   3.437  0.7523  0.0283 -0.0524
 4074SOL     OW15626   9.729   5.366  10.969  0.0888 -0.7373 -0.7738
 4074SOL    HW115627   9.806   5.356  11.025  1.3470 -1.7432 -2.6175
 4074SOL    HW215628   9.669   5.299  11.001  0.0961 -0.1764  0.4582
 4075SOL     OW15629   3.817   1.988   6.391  0.1101 -0.3155 -0.4660
 4075SOL    HW115630   3.884   2.054   6.376  1.6446 -1.7587 -0.0464
 4075SOL    HW215631   3.865   1.907   6.408 -1.6734 -1.0575  1.3864
 4076SOL     OW15632   3.222   6.644   6.859  0.1597  0.0653 -0.2494
 4076SOL    HW115633   3.296   6.683   6.815 -1.0333 -0.4676 -2.8055
 4076SOL    HW215634   3.231   6.550   6.843  0.5819 -0.3290  2.0587
 4077SOL     OW15635   0.178   7.236   0.810 -0.8873  0.5513 -0.4574
 4077SOL    HW115636   0.217   7.157   0.773 -0.6288  0.3499  0.2453
 4077SOL    HW215637   0.084   7.227   0.791 -0.5637  1.2109 -2.4649
 4078SOL     OW15638   9.359   4.169   5.927  0.0057 -0.1274  0.4428
 4078SOL    HW115639   9.423   4.156   5.857  0.0081  1.0914  0.2008
 4078SOL    HW215640   9.307   4.089   5.928  0.9514 -0.7499  0.0268
 4079SOL     OW15641   3.344  10.878   9.685 -0.0682  0.5898 -0.0245
 4079SOL    HW115642   3.262  10.905   9.726  0.6986  0.8933  1.3170
 4079SOL    HW215643   3.382  10.816   9.746 -0.2657 -1.1296 -1.6018
 4080SOL     OW15644   4.527  10.558   9.852  0.1685 -0.1710  0.3170
 4080SOL    HW115645   4.474  10.509   9.916  0.0270 -0.9890 -0.4158
 4080SOL    HW215646   4.517  10.650   9.878 -0.1067 -0.4698  1.3041
 4081SOL     OW15647   1.653   4.975   6.523 -0.0311 -0.2671 -0.4761
 4081SOL    HW115648   1.705   5.041   6.477 -0.1294 -0.8246 -1.3963
 4081SOL    HW215649   1.706   4.895   6.517 -0.1792 -0.4103  0.1296
 4082SOL     OW15650   9.766   8.925   5.138 -0.3102 -0.6980 -0.2620
 4082SOL    HW115651   9.753   8.867   5.063  1.7344 -2.0930  0.4314
 4082SOL    HW215652   9.727   9.008   5.110 -0.5902 -1.5140 -2.4356
 4083SOL     OW15653   9.724  10.675   9.664 -0.1957  0.9105  0.5784
 4083SOL    HW115654   9.797  10.718   9.708  0.8221  0.1433 -0.3243
 4083SOL    HW215655   9.754  10.662   9.574 -0.2929 -2.0159  0.9014
 4084SOL     OW15656   1.171   1.998   1.119  0.3512 -0.5694  0.1073
 4084SOL    HW115657   1.137   2.084   1.093  2.2838  0.7573  1.7924
 4084SOL    HW215658   1.093   1.946   1.140 -0.7670  1.4045  0.9649
 4085SOL     OW15659  10.502   2.526   0.183 -0.0227  0.0510  0.5612
 4085SOL    HW115660  10.443   2.545   0.110 -1.5762 -2.2058  1.1662
 4085SOL    HW215661  10.540   2.611   0.206 -1.5604  1.2301 -1.1240
 4086SOL     OW15662   9.738   8.946   0.101  0.7730 -0.0305 -0.1509
 4086SOL    HW115663   9.721   8.910   0.188 -0.1692 -0.0249 -0.3202
 4086SOL    HW215664   9.742   8.869   0.044  0.0850  0.0452 -0.3041
 4087SOL     OW15665   7.829   5.612   6.826  1.1294 -0.0250 -0.5898
 4087SOL    HW115666   7.868   5.695   6.798  0.8492  0.2769 -0.0763
 4087SOL    HW215667   7.735   5.626   6.820  1.0920 -0.6810 -1.6007
 4088SOL     OW15668   3.044   4.550   7.141 -0.3627  0.7176 -0.1181
 4088SOL    HW115669   3.089   4.485   7.195 -0.7547  0.3460 -0.2301
 4088SOL    HW215670   3.042   4.629   7.195 -1.1573  0.2187  0.6100
 4089SOL     OW15671   9.236   9.697   0.530  0.0592 -0.1679 -0.4726
 4089SOL    HW115672   9.270   9.607   0.533 -0.4413 -0.3356  0.4626
 4089SOL    HW215673   9.201   9.706   0.442  2.9723  0.1919 -1.6459
 4090SOL     OW15674   2.015   0.275   5.651 -0.3076  0.8385 -0.4144
 4090SOL    HW115675   2.016   0.187   5.688  0.1994  1.0192  0.0098
 4090SOL    HW215676   2.108   0.298   5.641 -0.4357  1.3194 -0.5302
 4091SOL     OW15677   1.250   2.427   2.098 -0.2765  0.7270  0.3851
 4091SOL    HW115678   1.274   2.335   2.084 -0.9259  0.7649 -1.0536
 4091SOL    HW215679   1.207   2.427   2.183 -2.0627 -0.6829 -0.4594
 4092SOL     OW15680   4.348   5.643   4.792  0.3271  0.7701  0.1371
 4092SOL    HW115681   4.308   5.559   4.769  0.4223  0.8874 -0.4847
 4092SOL    HW215682   4.409   5.623   4.863 -0.7284  0.5645  0.9998
 4093SOL     OW15683   4.092   3.534   0.767  0.4843  0.0590  0.2075
 4093SOL    HW115684   4.058   3.623   0.754 -2.3215 -1.0226 -0.3300
 4093SOL    HW215685   4.163   3.525   0.704  0.2950  1.6603 -0.2501
 4094SOL     OW15686   8.319   1.388   0.002 -0.7514 -0.4545 -0.2790
 4094SOL    HW115687   8.241   1.442  -0.009  0.0279  0.6983 -0.2883
 4094SOL    HW215688   8.390   1.451   0.014  0.2904 -1.4764 -0.9802
 4095SOL     OW15689  10.120   9.067   0.540  0.7426  0.0002 -0.2672
 4095SOL    HW115690  10.095   8.995   0.598 -0.4747  0.6229 -0.0184
 4095SOL    HW215691  10.125   9.144   0.598  0.0708  0.5137 -0.8891
 4096SOL     OW15692   0.662  10.673   3.889  0.0720  0.0236 -0.1276
 4096SOL    HW115693   0.725  10.716   3.831 -1.7425  0.2032 -2.0185
 4096SOL    HW215694   0.690  10.582   3.891 -0.0941 -0.0736 -1.6595
 4097SOL     OW15695  10.437   3.731   4.174  0.4161 -0.4675  0.0046
 4097SOL    HW115696  10.487   3.780   4.239  0.9894 -1.3527  0.2329
 4097SOL    HW215697  10.387   3.668   4.225  0.3112 -0.6794 -0.3614
 4098SOL     OW15698   6.218   5.907   5.523  0.4934 -0.2803  0.1756
 4098SOL    HW115699   6.152   5.972   5.499 -1.4454 -1.6385  1.6904
 4098SOL    HW215700   6.213   5.902   5.618  3.5231  0.3183  0.4053
 4099SOL     OW15701   5.174  10.872   8.408 -0.2930 -0.2663 -0.0411
 4099SOL    HW115702   5.256  10.909   8.377 -0.1209  0.3031  1.0629
 4099SOL    HW215703   5.199  10.786   8.443 -0.0404  0.2120  0.9664
 4100SOL     OW15704   2.394   7.173   6.739 -0.2491 -0.1768  0.3227
 4100SOL    HW115705   2.401   7.220   6.822 -0.9290 -0.5630  0.6024
 4100SOL    HW215706   2.359   7.087   6.763  0.5815 -0.6757 -0.2387
 4101SOL     OW15707   4.201   1.173   9.310 -0.6671  0.3345  0.5055
 4101SOL    HW115708   4.229   1.088   9.344  2.6967  0.9771 -0.4837
 4101SOL    HW215709   4.203   1.231   9.386  0.9280  0.4051  0.4204
 4102SOL     OW15710   2.416   2.016   5.526  0.6051 -0.3447  0.0700
 4102SOL    HW115711   2.391   1.964   5.602 -0.3762  2.0730  1.4790
 4102SOL    HW215712   2.335   2.059   5.498  0.9837 -1.0420 -2.2479
 4103SOL     OW15713   3.192   9.603   7.887  0.3360 -0.2881 -1.1204
 4103SOL    HW115714   3.179   9.684   7.936 -3.1405 -1.7171  0.5012
 4103SOL    HW215715   3.248   9.550   7.944  2.4395  0.8514 -2.0906
 4104SOL     OW15716  10.639   8.874   9.712  0.3200 -0.4457 -0.3588
 4104SOL    HW115717  10.714   8.835   9.757 -0.1005 -0.6748  0.1492
 4104SOL    HW215718  10.576   8.803   9.703 -0.3359  0.0335  0.3325
 4105SOL     OW15719   7.326   4.505   3.592 -0.2288 -0.4394  0.2499
 4105SOL    HW115720   7.356   4.500   3.683 -0.8223  1.5431  0.5791
 4105SOL    HW215721   7.349   4.593   3.564  0.4537 -1.2104 -1.7402
 4106SOL     OW15722   6.918   1.735   2.178  0.7327  0.1578 -0.3587
 4106SOL    HW115723   6.922   1.825   2.145  0.6566  0.3714  0.2112
 4106SOL    HW215724   6.857   1.739   2.251  1.4720 -0.1666  0.2832
 4107SOL     OW15725   5.865   2.285   9.091  0.1960 -0.2570 -0.2695
 4107SOL    HW115726   5.855   2.377   9.116  1.4747  0.0533 -0.8833
 4107SOL    HW215727   5.775   2.251   9.089 -0.2503  0.8496  0.4211
 4108SOL     OW15728   4.440   6.300   6.469  0.1349 -0.0019  0.2433
 4108SOL    HW115729   4.421   6.270   6.558  0.1310 -1.3294 -0.1824
 4108SOL    HW215730   4.472   6.221   6.424 -1.0955  0.3447 -1.2897
 4109SOL     OW15731   5.239   6.302  10.234  0.0205 -0.0171 -0.2033
 4109SOL    HW115732   5.228   6.295  10.139 -0.8249  1.0585 -0.1914
 4109SOL    HW215733   5.279   6.218  10.260 -0.8734 -0.8040 -1.3365
 4110SOL     OW15734   7.870   8.772   3.474  0.4066  0.0816 -0.2466
 4110SOL    HW115735   7.814   8.699   3.447  1.3883 -1.6398  2.1857
 4110SOL    HW215736   7.941   8.773   3.410  0.6397 -1.4305 -0.0288
 4111SOL     OW15737   7.699   7.552   4.149 -0.2364 -0.4121 -0.0840
 4111SOL    HW115738   7.764   7.490   4.182  0.6765  0.4405 -0.2551
 4111SOL    HW215739   7.721   7.562   4.057 -0.5503 -0.0462 -0.1176
 4112SOL     OW15740   1.858   0.467   0.996 -0.9885 -0.3160  0.5654
 4112SOL    HW115741   1.898   0.484   0.911 -0.4070  2.1937  1.3175
 4112SOL    HW215742   1.763   0.471   0.980 -0.8739  1.1454  0.2124
 4113SOL     OW15743   0.187   2.179   1.698 -0.1353 -0.0782  0.0226
 4113SOL    HW115744   0.198   2.186   1.603 -0.0796 -0.0437  0.0312
 4113SOL    HW215745   0.122   2.111   1.710 -2.2595  1.8688 -0.1495
 4114SOL     OW15746  10.457   3.980   8.254  0.0451 -0.0298 -0.2368
 4114SOL    HW115747  10.427   3.966   8.344 -0.1832  1.1749 -0.1283
 4114SOL    HW215748  10.532   4.039   8.262  0.0704  0.0258 -0.8296
 4115SOL     OW15749   4.998   6.395   2.266  0.1654 -0.1136  0.5702
 4115SOL    HW115750   5.052   6.473   2.281  0.4547  0.3943 -2.8136
 4115SOL    HW215751   5.060   6.322   2.269  0.6085  0.2093 -0.5284
 4116SOL     OW15752   8.530   4.291   1.925 -0.0421  0.2744 -0.0774
 4116SOL    HW115753   8.592   4.224   1.955 -1.5754 -1.3420 -0.4231
 4116SOL    HW215754   8.449   4.271   1.972 -0.4115  2.1828  0.1451
 4117SOL     OW15755   8.668   1.525   5.058  0.0776 -0.3357 -0.2362
 4117SOL    HW115756   8.631   1.497   4.974  1.1652  0.8818 -1.1274
 4117SOL    HW215757   8.602   1.584   5.094  0.9598  1.5628 -1.6687
 4118SOL     OW15758   3.588   6.714   0.768 -0.1327  0.1567  0.1306
 4118SOL    HW115759   3.557   6.797   0.730 -0.5809  0.6663  1.5701
 4118SOL    HW215760   3.682   6.727   0.778 -0.4697  1.2604  2.1522
 4119SOL     OW15761   5.827   6.802   5.558 -0.0269 -0.7319  0.2600
 4119SOL    HW115762   5.786   6.854   5.489 -1.3006 -1.6677  0.2848
 4119SOL    HW215763   5.753   6.761   5.604  0.8329 -0.4749  1.8841
 4120SOL     OW15764   9.523   5.654   5.286 -0.0659  0.1472  0.5166
 4120SOL    HW115765   9.495   5.566   5.265 -1.4978  1.2971 -2.6594
 4120SOL    HW215766   9.617   5.647   5.301 -0.0714 -1.7945 -0.3356
 4121SOL     OW15767   6.183   1.710   1.454  0.0414  0.3261 -0.0035
 4121SOL    HW115768   6.262   1.672   1.492 -0.5655 -0.4704  0.4694
 4121SOL    HW215769   6.116   1.643   1.466 -0.8415  1.2210  0.0874
 4122SOL     OW15770   1.045   0.125   9.070  0.4569  0.3761 -0.1902
 4122SOL    HW115771   0.984   0.080   9.130  1.6220 -1.3500 -0.2653
 4122SOL    HW215772   0.989   0.184   9.020 -1.0892 -0.7510  0.1419
 4123SOL     OW15773   9.017   2.410   3.465 -0.1521  0.1219 -0.2376
 4123SOL    HW115774   9.035   2.317   3.475 -0.2740  0.1110 -0.1165
 4123SOL    HW215775   8.946   2.415   3.402 -0.7051  0.0905  0.3837
 4124SOL     OW15776   9.607   4.935   3.229 -0.1031  0.1239 -0.0398
 4124SOL    HW115777   9.659   4.995   3.284  0.2040  1.1149 -1.3950
 4124SOL    HW215778   9.618   4.968   3.140 -0.5856 -1.4875 -0.7145
 4125SOL     OW15779   0.504  10.214   4.696 -0.2265 -0.3812 -0.0811
 4125SOL    HW115780   0.453  10.232   4.618 -0.8732 -1.2657  0.1271
 4125SOL    HW215781   0.570  10.150   4.668 -0.7455 -1.0424  0.1967
 4126SOL     OW15782   7.695   7.480   8.967 -0.2511 -0.2939 -0.1174
 4126SOL    HW115783   7.619   7.527   8.933 -1.1943 -1.6199  0.1595
 4126SOL    HW215784   7.660   7.399   9.003  1.5300 -1.9203 -1.8825
 4127SOL     OW15785   6.520   2.755   9.081 -0.1677  0.0157 -0.5813
 4127SOL    HW115786   6.511   2.750   8.986 -0.7327  1.8491 -0.6516
 4127SOL    HW215787   6.439   2.796   9.110  0.3919  0.3003  0.6064
 4128SOL     OW15788   6.416   1.859   7.246 -0.1510  0.1159  0.6529
 4128SOL    HW115789   6.426   1.934   7.188  1.1522 -0.7130 -0.2455
 4128SOL    HW215790   6.329   1.868   7.284  0.0328  2.1096  0.6243
 4129SOL     OW15791   7.435   2.665  10.658 -0.0511  0.2267  0.7249
 4129SOL    HW115792   7.491   2.589  10.671  1.9091  1.2414 -1.3322
 4129SOL    HW215793   7.355   2.630  10.618  0.5687 -0.8287  0.3819
 4130SOL     OW15794   4.975   2.534   1.359  0.0523 -0.4732  0.2423
 4130SOL    HW115795   5.057   2.528   1.408 -0.6323  0.3931  1.5419
 4130SOL    HW215796   4.912   2.572   1.421 -1.0474 -0.0752 -1.0644
 4131SOL     OW15797   4.902   3.132  10.125  0.0405 -0.3847  0.0137
 4131SOL    HW115798   4.934   3.109  10.213  0.5858 -2.0147 -0.5787
 4131SOL    HW215799   4.967   3.092  10.066 -1.2321 -0.7572 -1.1512
 4132SOL     OW15800   8.142   8.465   4.008 -0.1053  0.1067 -0.2043
 4132SOL    HW115801   8.223   8.508   3.980  0.8659 -1.1278  0.6634
 4132SOL    HW215802   8.073   8.510   3.959  1.1860  0.5916 -1.6312
 4133SOL     OW15803   0.068  10.392   9.538  0.2047 -0.1838  0.1358
 4133SOL    HW115804  -0.006  10.334   9.555 -1.8622  1.7486 -2.0157
 4133SOL    HW215805   0.101  10.364   9.452  2.1716 -1.1765  1.1684
 4134SOL     OW15806   1.339   1.353   5.863 -0.5897 -0.1402  0.0682
 4134SOL    HW115807   1.349   1.391   5.775 -1.0548 -2.3982 -0.9999
 4134SOL    HW215808   1.247   1.326   5.867 -0.3105 -0.9721  0.8790
 4135SOL     OW15809   6.025   1.498   7.131  0.2272  1.3547  0.1402
 4135SOL    HW115810   5.954   1.534   7.184 -1.2549 -1.1257 -0.0773
 4135SOL    HW215811   6.087   1.463   7.194 -0.5190  0.2895  0.3005
 4136SOL     OW15812   0.987   5.202   4.061 -0.1523 -0.4074  1.0576
 4136SOL    HW115813   0.956   5.148   4.134  1.1944 -1.5757  0.7967
 4136SOL    HW215814   1.014   5.284   4.102  0.0755 -0.8480  1.8100
 4137SOL     OW15815   2.389   0.563   0.041  0.3345 -0.0276  0.8301
 4137SOL    HW115816   2.465   0.508   0.020 -0.1002  0.5057 -2.2812
 4137SOL    HW215817   2.314   0.515   0.006 -0.1855  1.9272 -0.8273
 4138SOL     OW15818   5.210   2.134   7.299 -0.2429 -0.0375 -0.4901
 4138SOL    HW115819   5.271   2.193   7.255 -0.8735 -1.2564 -3.1057
 4138SOL    HW215820   5.137   2.190   7.325  0.7817  0.9563  0.3286
 4139SOL     OW15821   5.278   8.835   5.630  0.0231  0.1296 -0.1069
 4139SOL    HW115822   5.293   8.928   5.645 -0.1508 -0.0180  1.0903
 4139SOL    HW215823   5.283   8.796   5.718  1.9672 -1.2627 -0.7867
 4140SOL     OW15824   0.811  10.648   5.129 -0.0772 -0.5020  0.4296
 4140SOL    HW115825   0.890  10.600   5.106  0.1277 -0.1313  0.3562
 4140SOL    HW215826   0.775  10.677   5.045 -1.4404 -2.4537  0.2944
 4141SOL     OW15827   7.339  10.136   6.345 -0.0626 -0.4735  0.5302
 4141SOL    HW115828   7.380  10.221   6.357  0.9658 -0.8639 -0.1099
 4141SOL    HW215829   7.293  10.142   6.262  1.5840 -1.1243 -0.4635
 4142SOL     OW15830   0.723  10.602   8.481  0.4388 -0.2793 -0.0714
 4142SOL    HW115831   0.664  10.654   8.535 -0.2493 -0.6024 -0.5146
 4142SOL    HW215832   0.715  10.513   8.516  0.3451 -0.4039 -0.4135
 4143SOL     OW15833   2.911   8.579   9.681 -0.3424  0.0070  0.1787
 4143SOL    HW115834   2.862   8.510   9.725 -0.1963  0.0008  0.3362
 4143SOL    HW215835   2.954   8.535   9.608 -0.4717 -0.0123  0.1147
 4144SOL     OW15836   0.880   4.544   5.658  0.0134  0.2471  0.4042
 4144SOL    HW115837   0.798   4.496   5.645 -0.5441  1.2869  0.0757
 4144SOL    HW215838   0.948   4.476   5.655 -0.9111 -0.7740  1.8023
 4145SOL     OW15839   5.188   4.227   6.114 -0.5013 -0.0386  0.1788
 4145SOL    HW115840   5.183   4.182   6.198 -2.7721  0.9264  0.6008
 4145SOL    HW215841   5.105   4.274   6.107 -0.4850 -0.3505 -2.7499
 4146SOL     OW15842   2.070   4.522   0.458  0.6069  0.0532 -0.4032
 4146SOL    HW115843   2.140   4.520   0.523  2.5717 -1.4243 -2.4686
 4146SOL    HW215844   2.052   4.430   0.441 -0.4737  0.4330 -1.3218
 4147SOL     OW15845   4.605   7.128   6.287 -0.2637 -0.1742  0.3930
 4147SOL    HW115846   4.555   7.087   6.358 -1.6217 -1.0281 -1.0413
 4147SOL    HW215847   4.558   7.210   6.269 -0.7784 -0.6578 -0.5010
 4148SOL     OW15848   3.515   6.838   1.140  0.6508  0.3703  0.3054
 4148SOL    HW115849   3.479   6.779   1.206  1.5299  0.2487  0.6883
 4148SOL    HW215850   3.558   6.907   1.191 -2.0102  2.4325 -0.1011
 4149SOL     OW15851   9.881   2.080   5.773  0.3206 -0.0650  0.0305
 4149SOL    HW115852   9.932   2.122   5.842 -1.9222 -0.1626  1.7844
 4149SOL    HW215853   9.839   2.152   5.726  1.6269 -0.0151 -1.1155
 4150SOL     OW15854  10.705   8.788   8.057  0.1730 -0.4274 -0.8985
 4150SOL    HW115855  10.640   8.720   8.042  1.3412 -1.8157  0.2144
 4150SOL    HW215856  10.767   8.749   8.119  1.6109  1.1606 -1.2992
 4151SOL     OW15857   6.584   8.008   9.473  0.2364 -0.4603 -0.1883
 4151SOL    HW115858   6.581   7.913   9.461 -0.0611 -0.3222 -1.3060
 4151SOL    HW215859   6.494   8.037   9.458 -0.0911 -0.2155  2.1675
 4152SOL     OW15860  10.313   6.661   5.232  0.3342 -0.0021 -0.1675
 4152SOL    HW115861  10.279   6.742   5.270  0.4806 -0.1607  0.2952
 4152SOL    HW215862  10.408   6.667   5.244  0.2881 -0.5592  0.4762
 4153SOL     OW15863  10.421   1.023   3.208  0.1247 -0.1091 -0.0705
 4153SOL    HW115864  10.414   0.932   3.182  0.9425 -0.0910 -0.3653
 4153SOL    HW215865  10.463   1.020   3.295 -1.4548 -0.1054  0.7042
 4154SOL     OW15866   7.487   2.291   5.254 -0.1131 -0.2556 -0.0613
 4154SOL    HW115867   7.394   2.313   5.247 -0.3023 -1.5678 -2.1514
 4154SOL    HW215868   7.512   2.264   5.166  2.0813 -0.6206  0.6395
 4155SOL     OW15869   0.287   7.144   1.944  0.4938  0.8204 -0.1899
 4155SOL    HW115870   0.245   7.059   1.958 -0.5331  1.4073  0.3111
 4155SOL    HW215871   0.376   7.131   1.977  0.1332  0.1448  0.5615
 4156SOL     OW15872   9.821   3.411  10.507 -0.3278 -0.1414 -0.3168
 4156SOL    HW115873   9.871   3.449  10.580 -1.4069 -0.7856  0.7718
 4156SOL    HW215874   9.735   3.393  10.543  0.3472 -4.3650 -0.5349
 4157SOL     OW15875   1.791   3.007   0.043 -0.1576 -0.6888 -0.0286
 4157SOL    HW115876   1.840   2.937   0.085 -2.4895 -1.8428  0.8680
 4157SOL    HW215877   1.806   2.995  -0.051  0.2687 -1.7564  0.1733
 4158SOL     OW15878   1.705   5.467   8.565 -0.0482 -0.3916 -0.7016
 4158SOL    HW115879   1.640   5.399   8.582  1.4032 -0.8926  3.4537
 4158SOL    HW215880   1.664   5.548   8.598  0.4974 -0.3103 -0.2061
 4159SOL     OW15881   6.772   7.434   7.475  0.0129 -0.4937 -0.1492
 4159SOL    HW115882   6.748   7.381   7.551  1.5612  0.3166  0.9405
 4159SOL    HW215883   6.695   7.487   7.457 -0.1301 -0.2099  1.2774
 4160SOL     OW15884   3.034   2.011   7.877 -0.0121  0.1194  0.4649
 4160SOL    HW115885   3.064   2.099   7.896  0.7825  0.1826 -1.0148
 4160SOL    HW215886   3.111   1.955   7.890  1.2385  0.4369 -4.5436
 4161SOL     OW15887  10.972   7.793   7.239  0.1114 -0.0408 -0.3000
 4161SOL    HW115888  10.945   7.836   7.158 -0.5246 -2.2729 -1.2989
 4161SOL    HW215889  10.951   7.857   7.308 -1.2960  1.0350 -1.6933
 4162SOL     OW15890   2.956   1.258   8.655 -0.0589  0.1474  0.2512
 4162SOL    HW115891   2.887   1.255   8.722  0.2604 -0.4297  0.5493
 4162SOL    HW215892   2.950   1.174   8.611 -1.1845  1.0438 -1.3818
 4163SOL     OW15893   0.694   1.286   9.192  0.2996 -0.4683  0.0811
 4163SOL    HW115894   0.677   1.261   9.283  1.6609 -0.7467  0.2750
 4163SOL    HW215895   0.777   1.244   9.171  2.5484  3.5780  0.3128
 4164SOL     OW15896   5.374   4.808   2.122  0.0081  0.0824 -0.2253
 4164SOL    HW115897   5.467   4.796   2.104  0.0261  0.5682 -0.4620
 4164SOL    HW215898   5.345   4.872   2.056  0.0226  1.7530  1.3621
 4165SOL     OW15899   9.478   7.373   8.489  0.4716 -0.0557 -0.4585
 4165SOL    HW115900   9.455   7.370   8.582 -1.0166 -1.1106 -0.8557
 4165SOL    HW215901   9.484   7.281   8.462  0.5093  0.2462 -1.5102
 4166SOL     OW15902   8.455   8.544   6.981 -0.1191  0.2602 -0.1485
 4166SOL    HW115903   8.486   8.461   7.016 -0.5699 -0.4462 -1.3901
 4166SOL    HW215904   8.535   8.594   6.965  0.1174  0.3187  1.2200
 4167SOL     OW15905   6.379   8.952   0.778  0.0393 -0.2315  0.5327
 4167SOL    HW115906   6.329   8.929   0.699 -1.6085 -1.7422  1.9901
 4167SOL    HW215907   6.435   9.024   0.749 -2.8262  1.4242 -1.2424
 4168SOL     OW15908   2.989   7.212  10.762 -0.3041 -0.5270 -0.0635
 4168SOL    HW115909   3.079   7.181  10.764 -0.4495 -1.0196 -0.7308
 4168SOL    HW215910   2.962   7.202  10.670 -1.0961 -0.5682  0.1639
 4169SOL     OW15911   0.794   6.701   9.276  0.2548  0.3864  0.1694
 4169SOL    HW115912   0.759   6.643   9.209 -0.0859 -0.0322  0.7099
 4169SOL    HW215913   0.840   6.770   9.227 -1.7840  1.2535 -0.5603
 4170SOL     OW15914   4.988   8.566   1.523  0.8939 -0.2364 -0.0670
 4170SOL    HW115915   4.899   8.583   1.494  0.2456  0.0205  1.9992
 4170SOL    HW215916   5.025   8.508   1.456 -0.4863  0.4397 -1.4408
 4171SOL     OW15917   3.161   2.114   4.857 -0.1689  0.0027 -0.0653
 4171SOL    HW115918   3.106   2.190   4.875 -2.2160 -1.5119  0.2099
 4171SOL    HW215919   3.136   2.085   4.770 -2.2491 -2.6870  1.3622
 4172SOL     OW15920  10.361   8.557   0.968 -0.5055 -0.1938 -0.0622
 4172SOL    HW115921  10.434   8.580   0.911  0.9106 -1.8187  1.0585
 4172SOL    HW215922  10.284   8.559   0.911  0.7202 -0.6035 -1.7487
 4173SOL     OW15923   2.313   0.657   3.866 -0.3212 -0.3288 -0.0456
 4173SOL    HW115924   2.346   0.732   3.816 -0.2923  0.4879  1.1789
 4173SOL    HW215925   2.349   0.581   3.821  0.9262  0.4562 -0.4004
 4174SOL     OW15926   2.713   4.838  10.702  0.1945  0.1207  0.1008
 4174SOL    HW115927   2.701   4.778  10.629 -1.2046  0.5018 -0.0072
 4174SOL    HW215928   2.627   4.840  10.745  0.0968  2.3313 -0.1332
 4175SOL     OW15929   7.051   5.202  10.179 -0.2426 -0.0466  0.4580
 4175SOL    HW115930   7.041   5.298  10.182  0.4796  0.1056 -1.3631
 4175SOL    HW215931   6.962   5.170  10.166 -0.4313  0.4028  0.6132
 4176SOL     OW15932   1.251   6.178   9.043  0.3172 -0.3154  0.4332
 4176SOL    HW115933   1.268   6.110   8.979  1.0273  0.9629 -0.7704
 4176SOL    HW215934   1.185   6.141   9.102 -0.5607 -1.3845 -1.1991
 4177SOL     OW15935   5.773   4.151   1.428  0.4211  0.3012  0.2180
 4177SOL    HW115936   5.801   4.222   1.370  0.1625 -0.2205 -0.5646
 4177SOL    HW215937   5.845   4.087   1.423 -0.0144 -0.1613 -0.2653
 4178SOL     OW15938   6.918   5.477   7.030 -0.3896 -0.2127 -0.3648
 4178SOL    HW115939   6.955   5.539   6.968 -0.4478 -0.7897 -0.9776
 4178SOL    HW215940   6.993   5.444   7.080 -0.5171  1.3752  0.9029
 4179SOL     OW15941   6.745   5.559   1.981  0.6251  0.4355  0.4794
 4179SOL    HW115942   6.672   5.593   1.930  0.8623  0.4928  0.1757
 4179SOL    HW215943   6.707   5.535   2.065  0.1395 -0.1030  0.1065
 4180SOL     OW15944   5.703   6.333   9.048  0.0314 -0.0542 -0.3656
 4180SOL    HW115945   5.732   6.423   9.034 -0.7008  0.1690 -0.4363
 4180SOL    HW215946   5.745   6.307   9.130  0.5403  0.2196 -0.5332
 4181SOL     OW15947   4.686   9.178  10.241 -0.2480 -0.1717 -0.4533
 4181SOL    HW115948   4.625   9.226  10.297 -1.8820 -2.1429 -0.5139
 4181SOL    HW215949   4.763   9.164  10.297 -0.8093  0.1846  0.4233
 4182SOL     OW15950   2.335   5.065   3.612  0.2458  0.6838  0.2324
 4182SOL    HW115951   2.256   5.092   3.660  0.9306  1.3143  1.0235
 4182SOL    HW215952   2.407   5.107   3.659  1.1216 -0.4443 -0.0682
 4183SOL     OW15953   0.326   7.212   3.284 -0.0774 -0.3114 -0.2219
 4183SOL    HW115954   0.329   7.199   3.189 -0.0932 -2.5064  0.0565
 4183SOL    HW215955   0.246   7.261   3.300 -0.1499 -0.0671 -1.3243
 4184SOL     OW15956   9.807   3.343   4.608  0.0693  0.4000  0.3791
 4184SOL    HW115957   9.740   3.379   4.666 -0.6453  0.8748 -0.7260
 4184SOL    HW215958   9.795   3.248   4.614 -0.9037  0.4861 -0.0172
 4185SOL     OW15959   9.210   8.492   9.664 -0.9203  0.4241 -0.4065
 4185SOL    HW115960   9.237   8.582   9.681  0.0830  0.0671 -0.0443
 4185SOL    HW215961   9.240   8.443   9.741 -0.5371 -0.3969 -1.0610
 4186SOL     OW15962   9.010   0.306  10.266 -0.8478 -0.0815  0.0567
 4186SOL    HW115963   9.076   0.240  10.286 -1.7183 -1.2432 -0.8679
 4186SOL    HW215964   9.028   0.331  10.175 -0.6790  0.7904  0.3192
 4187SOL     OW15965   9.033   6.308   4.511 -0.3209  0.1867 -0.0336
 4187SOL    HW115966   9.126   6.319   4.490 -0.1349 -1.1656  0.0654
 4187SOL    HW215967   9.026   6.218   4.541 -1.4057  0.7272  1.3782
 4188SOL     OW15968   1.570   6.454   8.479 -0.5112 -0.0463  0.4871
 4188SOL    HW115969   1.662   6.467   8.502 -0.7010  1.6435  0.3425
 4188SOL    HW215970   1.523   6.520   8.530 -1.5073 -0.0059 -0.4729
 4189SOL     OW15971   7.853   6.949   6.407  0.0262  0.0610  0.8738
 4189SOL    HW115972   7.841   6.980   6.317  1.9433  1.1790  0.9737
 4189SOL    HW215973   7.764   6.929   6.438 -0.7317  0.5016 -0.9571
 4190SOL     OW15974   3.850   0.146   1.625  0.5257  0.3679  0.1828
 4190SOL    HW115975   3.881   0.061   1.658 -1.5664 -0.2138  0.6960
 4190SOL    HW215976   3.909   0.165   1.552  0.6839 -1.8180 -0.3170
 4191SOL     OW15977   5.585   5.254   9.538 -0.5595 -1.1042 -0.5442
 4191SOL    HW115978   5.561   5.162   9.524 -1.3088 -0.8295 -1.0789
 4191SOL    HW215979   5.507   5.293   9.576 -0.1662 -0.7331 -0.1152
 4192SOL     OW15980  10.206  10.030   3.826 -0.0976  0.2668 -0.2928
 4192SOL    HW115981  10.114  10.040   3.851 -0.1483  1.1673 -0.8310
 4192SOL    HW215982  10.209   9.948   3.777 -0.3829 -0.4066  0.8024
 4193SOL     OW15983   8.139   4.146   1.228 -0.2767 -0.0978  0.0812
 4193SOL    HW115984   8.161   4.074   1.170  0.3072 -0.3694  0.6348
 4193SOL    HW215985   8.108   4.215   1.170 -0.3286 -0.5986 -0.4941
 4194SOL     OW15986   7.594   0.244  10.078  0.0897  0.4014  0.5747
 4194SOL    HW115987   7.550   0.302  10.139 -2.2705  0.2924 -0.9521
 4194SOL    HW215988   7.687   0.256  10.096 -0.4740  2.2149  2.4683
 4195SOL     OW15989   7.971   5.200   3.296  0.5186  0.8796 -0.4462
 4195SOL    HW115990   7.913   5.270   3.265 -0.7373  0.4092  0.7801
 4195SOL    HW215991   8.010   5.235   3.376  0.6815  0.5848 -0.3967
 4196SOL     OW15992  10.788   5.122   7.384  0.5231  0.7704 -0.0426
 4196SOL    HW115993  10.753   5.097   7.470  0.7855  0.0143 -0.1478
 4196SOL    HW215994  10.741   5.202   7.362 -0.3966  0.3398  0.2899
 4197SOL     OW15995   7.914   9.445   1.571  0.8449  0.1935 -1.1527
 4197SOL    HW115996   7.890   9.534   1.594 -1.1198 -0.4460 -0.6129
 4197SOL    HW215997   7.949   9.451   1.482  0.0369  1.3832 -1.3838
 4198SOL     OW15998   7.574   4.906   1.658 -0.2529  0.8931  0.3409
 4198SOL    HW115999   7.598   4.915   1.566  0.7187 -1.2900  0.3377
 4198SOL    HW216000   7.647   4.859   1.697 -0.9267  1.2798  2.1023
 4199SOL     OW16001   6.207   6.719   4.178 -0.2338  0.0673  0.3085
 4199SOL    HW116002   6.173   6.795   4.226  3.4789  1.7257  0.4980
 4199SOL    HW216003   6.189   6.739   4.086  2.3244  2.0862  0.2142
 4200SOL     OW16004   4.615   0.209   1.465  0.5369 -0.9361 -0.8835
 4200SOL    HW116005   4.641   0.119   1.445  0.0396 -1.3314  0.2249
 4200SOL    HW216006   4.692   0.262   1.441  0.1286 -1.4267 -3.3747
 4201SOL     OW16007  10.235   8.194   3.381 -0.4965 -0.0066  0.0755
 4201SOL    HW116008  10.262   8.151   3.462  3.1929  2.9741  0.5671
 4201SOL    HW216009  10.283   8.147   3.312 -0.1005  0.3553  0.1054
 4202SOL     OW16010   2.148   6.530   1.894  0.0517 -0.0435  0.4132
 4202SOL    HW116011   2.157   6.470   1.968  3.1368 -0.2443 -0.0568
 4202SOL    HW216012   2.183   6.613   1.926 -0.9449  0.5675 -0.0539
 4203SOL     OW16013   4.646   8.607  10.955 -0.5434  0.0070  0.7918
 4203SOL    HW116014   4.640   8.524  11.001 -1.9003  0.7075  1.9018
 4203SOL    HW216015   4.640   8.674  11.023 -0.1992  1.0349 -0.1568
 4204SOL     OW16016   2.254   9.498   1.960 -0.3026  0.4021 -0.5358
 4204SOL    HW116017   2.171   9.492   1.912 -1.1355  0.2745  0.9148
 4204SOL    HW216018   2.233   9.469   2.048  1.1631  0.9523  0.0031
 4205SOL     OW16019   6.036   2.389   4.896  0.0700  0.0511  0.1823
 4205SOL    HW116020   6.031   2.484   4.896 -0.2218  0.0384  0.1795
 4205SOL    HW216021   6.033   2.364   4.989 -1.6321 -0.0289  0.1270
 4206SOL     OW16022   2.699   8.666   1.326 -0.1509 -0.3424 -0.2791
 4206SOL    HW116023   2.680   8.748   1.281 -0.1337  0.0386  0.3996
 4206SOL    HW216024   2.764   8.623   1.270  0.8522  0.7242  0.0223
 4207SOL     OW16025   1.629   6.066   6.094 -0.3003 -0.1766 -0.3017
 4207SOL    HW116026   1.640   6.138   6.032  0.5602  0.0330  0.0889
 4207SOL    HW216027   1.683   5.996   6.060 -0.8684 -0.5183 -0.4968
 4208SOL     OW16028   2.418   6.418   1.827 -0.6622  0.0491  0.2684
 4208SOL    HW116029   2.369   6.498   1.809 -0.1739  0.1178 -0.7968
 4208SOL    HW216030   2.367   6.348   1.785  0.4220  0.1971 -1.3632
 4209SOL     OW16031   3.244   4.636   7.686 -0.1359 -1.0651  0.2502
 4209SOL    HW116032   3.234   4.659   7.778  2.0527 -0.7253  0.4298
 4209SOL    HW216033   3.188   4.697   7.639  1.5393  1.1772  1.1133
 4210SOL     OW16034   0.590   6.846   6.150  0.2776  0.3355  0.0234
 4210SOL    HW116035   0.640   6.781   6.100 -3.0112 -2.5553  0.2799
 4210SOL    HW216036   0.520   6.873   6.090 -0.5055  0.9353  1.1873
 4211SOL     OW16037   6.113   8.768  10.084 -0.1991 -0.4882 -0.5229
 4211SOL    HW116038   6.088   8.742   9.995 -1.6244  1.0504 -0.5823
 4211SOL    HW216039   6.205   8.794  10.076 -0.2942 -0.4170 -1.5302
 4212SOL     OW16040   9.918   3.143   7.340  0.1498 -0.3926 -0.4809
 4212SOL    HW116041   9.920   3.188   7.256  0.5612 -0.5675 -0.5633
 4212SOL    HW216042   9.868   3.063   7.323 -2.8251  1.2273  0.2517
 4213SOL     OW16043   8.105   3.893   0.435  0.2640  0.1160 -0.1259
 4213SOL    HW116044   8.177   3.848   0.391  0.1576 -1.6258  1.4407
 4213SOL    HW216045   8.040   3.824   0.451 -1.4835  1.5360 -0.9311
 4214SOL     OW16046   6.590   8.722   8.364 -0.8945  0.2745  0.3108
 4214SOL    HW116047   6.649   8.683   8.429 -1.9817 -0.9682  0.5774
 4214SOL    HW216048   6.508   8.737   8.413 -2.2787 -2.1898 -1.1072
 4215SOL     OW16049   9.153   5.949   6.904 -0.1838 -0.0449  0.2479
 4215SOL    HW116050   9.134   6.013   6.836  0.1997  1.3103  1.4025
 4215SOL    HW216051   9.247   5.934   6.898 -0.2481 -0.3917  0.0789
 4216SOL     OW16052   4.651   2.177   3.505  0.4106 -0.0788  0.7279
 4216SOL    HW116053   4.721   2.133   3.553  0.9009  0.9055  0.9296
 4216SOL    HW216054   4.615   2.240   3.568 -0.8348 -0.7625  0.7121
 4217SOL     OW16055  10.385   9.786   0.546  0.2763 -0.4000 -0.4966
 4217SOL    HW116056  10.316   9.823   0.491  1.7456  1.2551 -1.3071
 4217SOL    HW216057  10.460   9.778   0.487  1.6533  0.6480  1.0620
 4218SOL     OW16058   7.402   9.157   4.474 -0.1265  0.2379  0.5370
 4218SOL    HW116059   7.400   9.159   4.378  1.2687  0.0875  0.4975
 4218SOL    HW216060   7.414   9.064   4.495 -0.0375  0.3239  0.8585
 4219SOL     OW16061   3.280   2.398   1.673  0.0432 -0.2836 -0.0192
 4219SOL    HW116062   3.276   2.402   1.577  0.1275  0.2742 -0.0016
 4219SOL    HW216063   3.215   2.332   1.697 -0.3094 -0.0904 -0.4328
 4220SOL     OW16064   7.850   1.250  10.216 -0.0960 -0.7074  0.3608
 4220SOL    HW116065   7.930   1.302  10.221  0.8191 -2.0263 -0.2624
 4220SOL    HW216066   7.810   1.260  10.303  0.8515 -0.2080  0.7478
 4221SOL     OW16067   8.775   9.594   2.793 -0.0161 -0.2593 -1.1477
 4221SOL    HW116068   8.772   9.651   2.870  1.5141  0.1741 -1.3856
 4221SOL    HW216069   8.831   9.642   2.731 -0.8284 -0.8336 -2.3390
 4222SOL     OW16070   2.142   6.232   4.317 -0.3626  0.1942 -0.3064
 4222SOL    HW116071   2.155   6.260   4.227  2.1967  1.0952  0.3019
 4222SOL    HW216072   2.182   6.302   4.370  1.5204 -2.0604  1.3909
 4223SOL     OW16073   7.034   3.181   5.987 -0.0201  0.4828 -0.7255
 4223SOL    HW116074   6.970   3.248   6.012 -0.0878  0.4205 -0.7304
 4223SOL    HW216075   7.029   3.116   6.057 -0.5084  0.1009 -1.1152
 4224SOL     OW16076   4.413   3.697   1.890 -0.1173 -0.2655 -0.4174
 4224SOL    HW116077   4.470   3.621   1.897 -0.6878 -0.8034 -1.5080
 4224SOL    HW216078   4.363   3.698   1.972 -1.0826 -1.8617 -0.9624
 4225SOL     OW16079   6.581   9.584   1.053 -0.3394 -0.0112 -0.4934
 4225SOL    HW116080   6.566   9.677   1.068  4.0418  0.7256 -0.0257
 4225SOL    HW216081   6.548   9.541   1.131 -1.4719  1.2350 -0.2708
 4226SOL     OW16082   6.838   1.444   7.684 -0.1247 -0.7865 -0.3799
 4226SOL    HW116083   6.778   1.395   7.740  0.5064 -0.1291  0.8916
 4226SOL    HW216084   6.856   1.525   7.732  0.9686 -0.5104 -1.2157
 4227SOL     OW16085   2.139   0.804   4.477 -0.5104 -0.3084  0.0935
 4227SOL    HW116086   2.132   0.844   4.390  4.1511 -1.0194 -0.7136
 4227SOL    HW216087   2.137   0.710   4.460 -0.4674 -0.4455  0.8429
 4228SOL     OW16088   6.756  10.324   7.960  0.3698 -0.0061 -0.6604
 4228SOL    HW116089   6.678  10.291   8.005  0.8864 -1.4671 -0.8334
 4228SOL    HW216090   6.829  10.296   8.014  0.7022  3.4064  0.7851
 4229SOL     OW16091   5.862   4.916   1.816  0.3833 -0.1797 -0.4389
 4229SOL    HW116092   5.797   4.934   1.748  0.6546 -0.2676 -0.7221
 4229SOL    HW216093   5.887   5.003   1.848 -0.7171 -0.1810  0.4742
 4230SOL     OW16094   3.779   6.812   8.862  0.2212 -0.1356 -0.5901
 4230SOL    HW116095   3.770   6.907   8.863  0.8254 -0.0744 -0.8996
 4230SOL    HW216096   3.835   6.792   8.936  0.5439 -0.2045 -0.8516
 4231SOL     OW16097   4.548   8.194   8.936 -0.2445 -0.7919 -0.3286
 4231SOL    HW116098   4.505   8.248   9.002  1.0432  0.6963 -0.6793
 4231SOL    HW216099   4.482   8.180   8.869 -1.2685 -1.5083  0.8055
 4232SOL     OW16100   4.976  10.897   3.815  0.0669 -0.7252  0.8414
 4232SOL    HW116101   4.948  10.914   3.725  1.3799 -0.0353  0.5610
 4232SOL    HW216102   5.069  10.879   3.808  0.0907 -1.0841  2.0238
 4233SOL     OW16103   5.629   6.088   4.743  0.2973  0.1743 -0.5240
 4233SOL    HW116104   5.604   6.050   4.659 -2.1493  1.8120 -0.6123
 4233SOL    HW216105   5.571   6.047   4.807 -0.0358  1.2186 -0.1294
 4234SOL     OW16106   5.769   9.919   4.061 -1.3086  0.2432  0.2016
 4234SOL    HW116107   5.824   9.889   4.134  2.7918  1.7320 -2.0762
 4234SOL    HW216108   5.694   9.960   4.103  1.0184  1.1970  3.6915
 4235SOL     OW16109   7.552   4.810   3.075 -0.2481 -0.3029 -0.1851
 4235SOL    HW116110   7.574   4.895   3.114  0.0007 -1.3274  1.9645
 4235SOL    HW216111   7.519   4.832   2.987  2.8622  1.7689 -0.9059
 4236SOL     OW16112   4.051   5.110   0.566 -0.3304  0.0048 -0.2379
 4236SOL    HW116113   4.044   5.120   0.661  0.1279 -3.1861  0.2106
 4236SOL    HW216114   3.961   5.096   0.537 -0.3147 -0.6059 -0.0188
 4237SOL     OW16115   3.876   6.853   2.073 -0.0313 -0.0389 -0.1456
 4237SOL    HW116116   3.839   6.768   2.097  0.0750  0.2755  1.2058
 4237SOL    HW216117   3.969   6.835   2.056 -0.3573 -0.4702 -1.4886
 4238SOL     OW16118   9.896   0.598   7.654  0.0229  0.2489 -0.1129
 4238SOL    HW116119   9.866   0.658   7.586  1.8236  0.7767 -0.4694
 4238SOL    HW216120   9.881   0.645   7.736  2.6056  1.7389 -0.4621
 4239SOL     OW16121   3.059   2.039   0.838 -0.4271  0.1845  0.1334
 4239SOL    HW116122   2.997   1.967   0.832  1.4982 -1.4397 -0.8807
 4239SOL    HW216123   3.141   1.999   0.868  0.3568  2.1445  0.7263
 4240SOL     OW16124   8.193   0.921   6.743  0.2165 -0.3144 -0.0691
 4240SOL    HW116125   8.164   0.997   6.792 -1.5634  0.1903 -1.8427
 4240SOL    HW216126   8.287   0.915   6.761  0.0262  1.2129  1.5085
 4241SOL     OW16127   4.301   6.575  10.961  0.3481 -0.0145 -0.0542
 4241SOL    HW116128   4.320   6.548  10.872  1.4732  1.3722 -0.2623
 4241SOL    HW216129   4.362   6.524  11.015  0.3293 -0.1568 -0.1678
 4242SOL     OW16130   6.748   1.731   3.302  0.4430  0.3652 -0.0412
 4242SOL    HW116131   6.816   1.723   3.234  0.1414  0.1222 -0.3147
 4242SOL    HW216132   6.672   1.764   3.255  0.5579  1.2244  0.3857
 4243SOL     OW16133  10.679   4.443   8.218 -0.2327 -0.1697  0.4676
 4243SOL    HW116134  10.706   4.454   8.309 -2.0859  1.3634  0.8748
 4243SOL    HW216135  10.753   4.475   8.166 -0.5339  2.3449  1.5135
 4244SOL     OW16136   1.044   1.375   6.138 -0.1828  0.0478 -0.4146
 4244SOL    HW116137   1.105   1.306   6.164 -0.2724  0.3020  0.4750
 4244SOL    HW216138   1.098   1.454   6.133 -0.1991  0.0353 -0.8539
 4245SOL     OW16139   7.945   5.173   6.964 -0.2502 -0.1081 -0.1510
 4245SOL    HW116140   7.992   5.158   6.882  0.0423  1.4545 -0.2867
 4245SOL    HW216141   7.874   5.233   6.941 -0.6518 -0.2911  0.5825
 4246SOL     OW16142   3.704   9.754   0.519 -0.1171 -0.2237 -0.0667
 4246SOL    HW116143   3.666   9.837   0.550  1.0776  0.6558 -0.9058
 4246SOL    HW216144   3.714   9.702   0.599 -0.0628  0.7822  0.6062
 4247SOL     OW16145   7.304   7.634   4.504 -0.0027  0.0852  0.6657
 4247SOL    HW116146   7.333   7.627   4.413 -1.7249  0.9433  0.0354
 4247SOL    HW216147   7.385   7.647   4.554  1.1526 -2.1038 -0.5206
 4248SOL     OW16148   2.592   5.600   5.628  0.1551  0.6942  0.0401
 4248SOL    HW116149   2.566   5.509   5.642 -0.4097  1.1289  2.0025
 4248SOL    HW216150   2.510   5.649   5.633  0.7457  1.5613  1.4752
 4249SOL     OW16151   0.980   7.287   6.745  0.0939  0.2350  0.6868
 4249SOL    HW116152   0.894   7.329   6.740 -0.2286 -0.3809  0.9779
 4249SOL    HW216153   1.003   7.269   6.654 -1.4952 -2.4070  0.7337
 4250SOL     OW16154   8.457   1.755   8.835 -0.8420  0.0646 -0.4361
 4250SOL    HW116155   8.388   1.689   8.830  0.9830 -2.0522  1.0645
 4250SOL    HW216156   8.477   1.762   8.929  0.2717  1.3968 -0.7517
 4251SOL     OW16157   8.324   7.761   8.960 -0.8515  0.2639 -0.6385
 4251SOL    HW116158   8.386   7.812   9.012  0.7564 -1.3277 -0.9201
 4251SOL    HW216159   8.270   7.716   9.025  0.0469 -0.3885 -0.3169
 4252SOL     OW16160   2.455   4.948   2.079 -0.2851  0.3063  0.9550
 4252SOL    HW116161   2.399   4.873   2.058 -1.0550  0.7405  1.4388
 4252SOL    HW216162   2.467   4.993   1.996  0.9731 -0.8862  0.4802
 4253SOL     OW16163   4.787   3.768   0.368  0.1906  0.4410 -0.3765
 4253SOL    HW116164   4.712   3.716   0.338  0.2526  0.2645 -0.2235
 4253SOL    HW216165   4.819   3.722   0.446  1.0601 -0.0179 -1.0008
 4254SOL     OW16166   0.060   8.410   9.728 -0.3072 -0.3158 -0.2468
 4254SOL    HW116167   0.142   8.397   9.775 -0.6455 -3.6901 -0.4861
 4254SOL    HW216168  -0.007   8.410   9.796 -0.4596 -1.6053 -0.3839
 4255SOL     OW16169   2.028   8.355  10.173  0.1733 -0.1117 -0.3003
 4255SOL    HW116170   2.102   8.355  10.233  0.6930 -0.2473 -0.9436
 4255SOL    HW216171   1.962   8.302  10.218  0.9036 -1.0064 -0.2724
 4256SOL     OW16172  10.488   1.244   8.276 -0.4835 -0.6082  0.0116
 4256SOL    HW116173  10.434   1.279   8.347  1.1477  0.6125  0.6658
 4256SOL    HW216174  10.496   1.315   8.213 -1.2000 -1.4081 -1.0072
 4257SOL     OW16175  10.625   4.157   7.497 -0.2349 -0.7532  0.1691
 4257SOL    HW116176  10.613   4.112   7.414 -0.4125 -0.9781  0.3144
 4257SOL    HW216177  10.594   4.094   7.563 -1.3913 -0.0602  0.3113
 4258SOL     OW16178   7.966   8.266   8.874  0.1022 -0.3895  0.5657
 4258SOL    HW116179   7.905   8.233   8.809 -0.1895 -0.0051  0.6429
 4258SOL    HW216180   7.967   8.361   8.861  1.4551 -0.4820 -0.1094
 4259SOL     OW16181  10.430   1.110   4.048 -0.3819 -0.2585 -0.5136
 4259SOL    HW116182  10.419   1.170   4.122  0.0884  0.7268 -1.2239
 4259SOL    HW216183  10.524   1.098   4.039 -0.4804 -1.3535 -0.1953
 4260SOL     OW16184  10.365   1.107   4.812 -0.7840 -0.1559 -0.9519
 4260SOL    HW116185  10.337   1.037   4.753 -1.9695  1.0871 -1.9147
 4260SOL    HW216186  10.287   1.163   4.820 -0.4337  0.0581  1.2740
 4261SOL     OW16187   3.725   3.625   7.826 -0.0915  0.3551  0.0109
 4261SOL    HW116188   3.725   3.686   7.753 -2.5790 -1.6100 -1.7332
 4261SOL    HW216189   3.796   3.564   7.806  0.4252  0.8992  0.1876
 4262SOL     OW16190   0.043   3.270   6.362  0.1244 -0.2303  0.2055
 4262SOL    HW116191   0.110   3.202   6.362 -0.0815 -0.4362  0.0933
 4262SOL    HW216192   0.024   3.285   6.455  0.9182  0.4201  0.2592
 4263SOL     OW16193   8.808   2.329   2.555 -0.1911 -0.0628 -0.1285
 4263SOL    HW116194   8.780   2.269   2.486 -0.6334  1.8219 -1.6464
 4263SOL    HW216195   8.752   2.308   2.630 -1.3751 -0.5438 -1.1254
 4264SOL     OW16196   6.160   8.224   3.768  0.3606  0.2183 -0.1161
 4264SOL    HW116197   6.126   8.152   3.714  1.5115 -0.5156  0.1404
 4264SOL    HW216198   6.142   8.197   3.858  1.5409 -0.1322  0.0174
 4265SOL     OW16199   0.210   6.403   4.996 -0.5977  0.1766 -0.1884
 4265SOL    HW116200   0.281   6.383   5.057 -0.6902  1.9708  0.5252
 4265SOL    HW216201   0.223   6.342   4.923  1.4354  0.2375  0.1064
 4266SOL     OW16202   0.459   7.496  10.694  0.1696 -0.1040  0.0843
 4266SOL    HW116203   0.550   7.497  10.664 -0.6256  1.2671 -2.4183
 4266SOL    HW216204   0.430   7.586  10.686 -1.5731 -0.6240  0.3474
 4267SOL     OW16205   5.521   0.787   8.501 -0.3117 -0.3342  0.0780
 4267SOL    HW116206   5.568   0.731   8.562  1.7850  1.2022 -0.0904
 4267SOL    HW216207   5.479   0.853   8.557  0.6489  0.3784 -0.0286
 4268SOL     OW16208  10.545   8.425   2.971  0.2568 -0.5735 -0.1312
 4268SOL    HW116209  10.513   8.414   2.881  0.6798  0.0525 -0.3609
 4268SOL    HW216210  10.628   8.379   2.973  0.6027  0.0341 -0.2723
 4269SOL     OW16211  10.127   4.081   2.189 -0.0690  0.2114  0.3833
 4269SOL    HW116212  10.154   4.054   2.277  1.4635  1.1109  0.2044
 4269SOL    HW216213  10.062   4.015   2.163  0.2660 -0.6884  1.7477
 4270SOL     OW16214   4.301   2.309   3.541  0.1205 -0.4905  0.4923
 4270SOL    HW116215   4.346   2.345   3.464 -1.0385  0.7335  0.3776
 4270SOL    HW216216   4.299   2.214   3.525  3.0609 -0.6417  0.7346
 4271SOL     OW16217   0.942   6.695   7.947  0.5917  0.3233 -0.0932
 4271SOL    HW116218   0.933   6.608   7.985 -0.8224  0.9108  0.9771
 4271SOL    HW216219   0.950   6.680   7.853  1.9414 -1.0372  0.2331
 4272SOL     OW16220   8.052   7.108  10.747  0.3534 -0.2875  0.0009
 4272SOL    HW116221   8.107   7.083  10.821 -0.4955 -1.8227  0.1324
 4272SOL    HW216222   7.997   7.031  10.732  0.3030  0.1329 -2.0218
 4273SOL     OW16223   3.281   1.213   2.502  0.1284 -0.4676 -0.4925
 4273SOL    HW116224   3.374   1.209   2.480  0.6492  2.7816  0.9202
 4273SOL    HW216225   3.275   1.173   2.588  0.6231  1.4680  0.4641
 4274SOL     OW16226   7.296   8.132   1.779 -0.6776  0.3142 -0.8692
 4274SOL    HW116227   7.332   8.046   1.802  0.9239  1.1119 -0.3709
 4274SOL    HW216228   7.274   8.172   1.863  0.6456  1.2737 -0.9682
 4275SOL     OW16229   8.453  10.112   2.614  0.4710 -0.1675 -0.2409
 4275SOL    HW116230   8.448  10.181   2.679 -1.2740  1.7881 -2.3410
 4275SOL    HW216231   8.539  10.123   2.573  0.6853 -0.0228  0.2476
 4276SOL     OW16232   5.598  10.071   8.401 -0.4516  0.7938  0.1096
 4276SOL    HW116233   5.674  10.117   8.437 -1.1797  1.0134  1.3812
 4276SOL    HW216234   5.603   9.984   8.440 -0.8095  0.7794  0.1186
 4277SOL     OW16235   1.487   7.562   0.984 -0.0673 -0.1797  0.6556
 4277SOL    HW116236   1.435   7.639   0.960 -0.3668 -0.6692 -0.3021
 4277SOL    HW216237   1.572   7.576   0.943 -0.1738 -0.4261  0.3432
 4278SOL     OW16238  10.123   2.997  10.761  0.2303  0.3246 -0.0884
 4278SOL    HW116239  10.047   3.055  10.771  0.0604  0.0499  0.2185
 4278SOL    HW216240  10.192   3.053  10.725 -0.3458  0.3979 -1.0962
 4279SOL     OW16241   6.808   9.671   2.703  0.2556  0.2773 -1.1011
 4279SOL    HW116242   6.765   9.587   2.688 -0.6902  1.1022 -3.1172
 4279SOL    HW216243   6.901   9.654   2.685  0.3230 -0.7230  0.1332
 4280SOL     OW16244   0.813   0.209   9.665  0.0417  0.2609 -0.3930
 4280SOL    HW116245   0.841   0.130   9.620 -1.4608 -0.4185 -0.1613
 4280SOL    HW216246   0.817   0.187   9.758 -0.0282  0.5701 -0.3150
 4281SOL     OW16247   8.420   2.307   3.446 -0.0229 -0.2517  0.0042
 4281SOL    HW116248   8.508   2.271   3.456 -0.7438 -2.4702 -1.2987
 4281SOL    HW216249   8.429   2.399   3.469  2.7962 -0.2801 -0.8349
 4282SOL     OW16250   1.440   0.093   9.806 -0.1866  0.9938  0.3300
 4282SOL    HW116251   1.465   0.185   9.807 -1.4026  1.3348  0.3681
 4282SOL    HW216252   1.512   0.048   9.851 -0.1658  2.0781  1.3999
 4283SOL     OW16253   5.783   1.901   9.092  0.1813  0.4003 -0.1516
 4283SOL    HW116254   5.821   1.954   9.022 -1.1122 -0.2208 -1.3655
 4283SOL    HW216255   5.855   1.884   9.152  0.9720  2.2131 -0.5584
 4284SOL     OW16256  10.566   8.573  10.643 -0.2435 -0.3032 -0.1635
 4284SOL    HW116257  10.623   8.633  10.594 -0.6825 -0.8322 -1.3409
 4284SOL    HW216258  10.517   8.630  10.701  0.0802  0.3747 -0.5441
 4285SOL     OW16259   0.074   9.741   8.815 -0.6780  0.1529 -0.4384
 4285SOL    HW116260   0.025   9.659   8.819 -1.7821  0.7630 -1.0967
 4285SOL    HW216261   0.045   9.790   8.891  0.3497 -0.2662  0.2241
 4286SOL     OW16262   1.203   8.665   6.942  0.3160  0.0988 -0.1524
 4286SOL    HW116263   1.116   8.633   6.918 -0.0801  1.7442 -0.9350
 4286SOL    HW216264   1.190   8.712   7.025  0.5114  0.1382 -0.1435
 4287SOL     OW16265  10.085   6.781   1.319 -0.3682  0.2140 -0.0626
 4287SOL    HW116266  10.036   6.700   1.332  0.8265 -0.1387  2.6600
 4287SOL    HW216267  10.149   6.759   1.251 -2.0814 -0.1508 -1.6006
 4288SOL     OW16268   6.260   1.863   3.660 -0.1523  0.2665  0.3271
 4288SOL    HW116269   6.228   1.932   3.603  0.0567  1.4267  1.5945
 4288SOL    HW216270   6.349   1.846   3.631  0.2696  1.4978  0.9108
 4289SOL     OW16271   6.469   6.205   5.386  0.4129  0.3727 -0.5872
 4289SOL    HW116272   6.388   6.247   5.355  0.4526  0.6724 -0.2804
 4289SOL    HW216273   6.458   6.197   5.480  0.4237 -0.2759 -0.6335
 4290SOL     OW16274   1.109   0.798   2.982 -0.5415  0.5999 -0.8029
 4290SOL    HW116275   1.162   0.751   2.918 -0.0619  0.2644 -0.1628
 4290SOL    HW216276   1.024   0.753   2.981 -0.1000 -0.2480 -0.2197
 4291SOL     OW16277   2.822   8.047   8.820 -0.4777  0.8135 -0.2596
 4291SOL    HW116278   2.870   8.084   8.895 -1.1118  2.8417 -0.8128
 4291SOL    HW216279   2.879   8.064   8.745 -0.3059 -0.2936 -0.3851
 4292SOL     OW16280   1.900   5.492   1.306  0.0622  0.0864 -0.0298
 4292SOL    HW116281   1.829   5.531   1.256  0.1260  0.6566  0.3145
 4292SOL    HW216282   1.967   5.561   1.310 -0.0528  0.1454  1.0648
 4293SOL     OW16283   1.164   9.432   6.793  0.0441 -0.0214  0.8849
 4293SOL    HW116284   1.146   9.341   6.772 -0.4394  0.4923 -1.0062
 4293SOL    HW216285   1.184   9.473   6.709 -2.1704  2.1379  1.3548
 4294SOL     OW16286   4.779   7.373   7.728  0.3040 -0.6540  0.1223
 4294SOL    HW116287   4.807   7.412   7.645 -1.4015  0.4101  0.0177
 4294SOL    HW216288   4.725   7.298   7.702  1.0135 -1.2300  0.2962
 4295SOL     OW16289   3.323   6.143   4.613 -0.4751 -0.3559  0.4402
 4295SOL    HW116290   3.254   6.080   4.635 -1.5569  0.4579 -0.5818
 4295SOL    HW216291   3.397   6.089   4.588 -1.2930 -1.2364 -0.1104
 4296SOL     OW16292   8.976   4.819   9.720  0.7265  0.0662 -0.1321
 4296SOL    HW116293   8.962   4.900   9.770  2.3536  0.3740 -0.1653
 4296SOL    HW216294   8.960   4.749   9.784  1.2649  0.4407  0.4182
 4297SOL     OW16295   2.387   6.665   4.259  0.4422 -0.5574 -0.5598
 4297SOL    HW116296   2.446   6.622   4.320  0.3607 -0.1000 -0.1577
 4297SOL    HW216297   2.413   6.631   4.173  1.1830 -0.4845 -0.3729
 4298SOL     OW16298   3.492   5.516   7.145 -0.2189  0.1572 -0.6111
 4298SOL    HW116299   3.475   5.492   7.054  1.0387  0.6357 -0.9862
 4298SOL    HW216300   3.586   5.502   7.157 -0.4595 -0.3971  0.7743
 4299SOL     OW16301  10.031   6.074   0.403 -1.0947 -0.8033 -0.2422
 4299SOL    HW116302   9.969   6.023   0.350 -1.7364 -1.2684  0.9270
 4299SOL    HW216303   9.976   6.140   0.446 -0.5959 -0.5211 -0.0365
 4300SOL     OW16304   1.166  10.002   6.767  0.0240  0.3459  0.7232
 4300SOL    HW116305   1.213   9.930   6.808  0.2399 -0.6997 -1.3012
 4300SOL    HW216306   1.098   9.960   6.714 -0.3900  1.6558  0.1783
 4301SOL     OW16307   5.820   0.112   3.754  0.5136 -0.6299  0.7881
 4301SOL    HW116308   5.910   0.140   3.735  0.3031 -0.1695  0.4647
 4301SOL    HW216309   5.793   0.165   3.829 -0.6088  1.5434 -1.0947
 4302SOL     OW16310   8.517   5.473   7.124 -0.4838  0.4214 -0.2210
 4302SOL    HW116311   8.457   5.418   7.072 -1.3371  0.9238  0.2172
 4302SOL    HW216312   8.601   5.427   7.119 -1.0367 -0.6042 -0.3721
 4303SOL     OW16313   1.227   2.799  10.767  0.4146 -0.3911  0.0837
 4303SOL    HW116314   1.258   2.728  10.823 -1.5551 -2.1081 -0.9430
 4303SOL    HW216315   1.150   2.834  10.811  1.3617  1.1462  0.5752
 4304SOL     OW16316   7.328   8.369   2.246  0.5548 -0.1751  0.1298
 4304SOL    HW116317   7.394   8.331   2.304 -0.1716 -0.9056  0.4966
 4304SOL    HW216318   7.378   8.421   2.183  1.6357 -2.1960 -0.7357
 4305SOL     OW16319   7.849   3.438   7.224  0.0339 -0.1935  0.0319
 4305SOL    HW116320   7.937   3.418   7.255 -1.0570 -2.2935  1.9465
 4305SOL    HW216321   7.844   3.533   7.226  2.4896 -0.0101 -0.8126
 4306SOL     OW16322   3.325  10.378   1.580 -0.2704 -0.1658  0.2135
 4306SOL    HW116323   3.245  10.325   1.574  0.5356 -1.3557 -0.1125
 4306SOL    HW216324   3.345  10.380   1.673 -0.0963 -0.7551  0.1923
 4307SOL     OW16325   9.027   1.052   6.818 -0.1649  0.5714 -0.4777
 4307SOL    HW116326   9.104   0.999   6.835  1.2565  2.6021 -0.3275
 4307SOL    HW216327   8.955   1.007   6.862  1.1369 -0.8078  0.2401
 4308SOL     OW16328   1.932   7.894   9.184 -0.2660  0.4185  0.1948
 4308SOL    HW116329   2.005   7.934   9.231 -0.5739  0.0500  0.9990
 4308SOL    HW216330   1.861   7.892   9.247 -0.3778 -1.0270  0.0508
 4309SOL     OW16331  10.968   5.504   3.969 -0.2946  0.7839  0.4467
 4309SOL    HW116332  10.891   5.515   3.914  0.2601 -1.0379 -0.7623
 4309SOL    HW216333  10.984   5.409   3.969  2.0296  1.1367  0.5225
 4310SOL     OW16334   1.302   2.897   2.949  0.1017 -0.1263 -0.2402
 4310SOL    HW116335   1.241   2.903   3.023  0.7629 -0.7167  0.3623
 4310SOL    HW216336   1.338   2.985   2.941 -1.7462  0.5467 -1.4020
 4311SOL     OW16337   7.941   0.506   0.306 -0.2125 -0.3172 -0.4023
 4311SOL    HW116338   7.919   0.483   0.216  1.1333  0.8419 -1.0439
 4311SOL    HW216339   7.922   0.600   0.311  2.4889  0.2584 -0.3522
 4312SOL     OW16340   4.998  10.323   2.912  0.8262 -0.1497  0.1411
 4312SOL    HW116341   4.927  10.388   2.912  0.7092 -0.2582 -0.7788
 4312SOL    HW216342   5.025  10.316   3.003  0.8689  1.2308  0.2464
 4313SOL     OW16343   7.356   7.798   2.836  0.1072 -0.7938 -0.2498
 4313SOL    HW116344   7.301   7.724   2.861  0.3776 -1.1958 -0.8247
 4313SOL    HW216345   7.355   7.856   2.912  0.0970 -1.5066  0.2990
 4314SOL     OW16346   7.953   0.894   6.027 -0.3885  0.4121 -0.1163
 4314SOL    HW116347   8.037   0.874   6.070  1.3524  3.7742 -1.8457
 4314SOL    HW216348   7.912   0.808   6.017  2.7080 -1.3128  0.9983
 4315SOL     OW16349   0.475   1.569   5.130 -0.1980  0.3345  0.0526
 4315SOL    HW116350   0.468   1.664   5.145  1.3986  0.5876 -0.6947
 4315SOL    HW216351   0.558   1.545   5.170 -0.1546 -0.5731 -0.5734
 4316SOL     OW16352   0.419   7.118   3.945 -0.4169  0.0932  0.4499
 4316SOL    HW116353   0.383   7.035   3.914 -1.1411  0.4243  0.3769
 4316SOL    HW216354   0.513   7.105   3.948 -0.2174  0.4567 -3.0407
 4317SOL     OW16355  10.489   6.805   0.647  0.0080 -0.0380 -0.0587
 4317SOL    HW116356  10.483   6.864   0.723 -0.2820 -0.0093 -0.1032
 4317SOL    HW216357  10.483   6.718   0.685  0.0268 -0.0280 -0.0329
 4318SOL     OW16358   9.923   4.354   9.143 -0.4097  0.0606  0.1086
 4318SOL    HW116359   9.936   4.277   9.088 -2.2790 -0.0810 -0.1512
 4318SOL    HW216360   9.891   4.320   9.226  0.6200  0.4254  0.6702
 4319SOL     OW16361   9.434   2.038   7.800  0.4821  0.3255 -0.4599
 4319SOL    HW116362   9.359   2.098   7.801  1.0554  1.0480 -0.4362
 4319SOL    HW216363   9.446   2.016   7.708  0.8688  1.0127 -0.5772
 4320SOL     OW16364   2.589   3.903   7.201 -0.4704  0.3128  0.3257
 4320SOL    HW116365   2.584   3.997   7.216 -2.0706  0.3680 -0.4552
 4320SOL    HW216366   2.552   3.890   7.113  1.3993 -0.8532 -0.3170
 4321SOL     OW16367   9.399   6.219   7.481 -0.1192 -0.0595  0.2421
 4321SOL    HW116368   9.425   6.145   7.427 -0.4863 -0.4407  0.5813
 4321SOL    HW216369   9.304   6.212   7.487 -0.2377  0.9390 -0.4434
 4322SOL     OW16370   3.745   4.827   2.622 -0.3653 -0.2575 -0.0996
 4322SOL    HW116371   3.743   4.784   2.536 -0.0370 -0.1271 -0.1722
 4322SOL    HW216372   3.837   4.822   2.649 -0.2691  0.6859 -0.2456
 4323SOL     OW16373  10.521   4.290  10.014 -0.0632  0.5095 -0.0853
 4323SOL    HW116374  10.496   4.365  10.069 -1.5318  0.3551 -0.5336
 4323SOL    HW216375  10.451   4.284   9.949  0.1343 -1.1680 -0.1507
 4324SOL     OW16376   7.571  10.434   8.205  0.7825 -0.4741  0.3212
 4324SOL    HW116377   7.558  10.339   8.194 -1.1235 -0.3550  1.3645
 4324SOL    HW216378   7.630  10.441   8.280 -0.1558 -0.8188  1.1074
 4325SOL     OW16379   5.318   0.122   6.516 -0.1158  0.1895 -0.0394
 4325SOL    HW116380   5.304   0.213   6.488  1.8337  0.6531  0.4225
 4325SOL    HW216381   5.405   0.099   6.483 -0.7194 -1.6261 -0.4048
 4326SOL     OW16382   6.190   6.632   9.779  0.2098  0.2072  0.5088
 4326SOL    HW116383   6.177   6.675   9.864 -0.9249 -1.2036  1.0734
 4326SOL    HW216384   6.221   6.701   9.721 -0.4374  1.5161  1.7046
 4327SOL     OW16385   7.959   5.960   0.713 -0.3082  0.1348  0.1499
 4327SOL    HW116386   7.943   6.055   0.712  1.7006  0.4995  0.1329
 4327SOL    HW216387   7.882   5.923   0.756  0.4675  2.1191  3.4375
 4328SOL     OW16388  10.752   4.384  10.937 -0.3745 -0.6578 -0.0897
 4328SOL    HW116389  10.824   4.373  10.875 -1.2878 -0.5661 -1.1623
 4328SOL    HW216390  10.792   4.429  11.012  0.2432  1.1558 -1.4898
 4329SOL     OW16391   8.393   8.811   4.709 -0.6375  0.0121 -0.3950
 4329SOL    HW116392   8.364   8.828   4.620  1.1636  1.1751 -0.7912
 4329SOL    HW216393   8.454   8.882   4.728  0.6972 -1.4673  0.9673
 4330SOL     OW16394   7.776   1.852   8.858 -0.0775 -0.2472  0.7919
 4330SOL    HW116395   7.718   1.788   8.899 -0.3619 -0.9462 -0.6964
 4330SOL    HW216396   7.770   1.834   8.765  1.9905  0.1466  0.5665
 4331SOL     OW16397   1.032   2.969  10.279 -0.0562  0.3372  0.0515
 4331SOL    HW116398   0.961   2.943  10.338 -0.1959 -0.3249 -0.4056
 4331SOL    HW216399   1.105   2.991  10.337 -0.5925  0.9022  0.5206
 4332SOL     OW16400   4.343   8.672   1.434  0.3912  0.0197  0.0157
 4332SOL    HW116401   4.325   8.759   1.470 -0.1127 -0.3152  0.5918
 4332SOL    HW216402   4.276   8.615   1.474  0.0227 -0.4227 -1.2187
 4333SOL     OW16403   1.872   7.947   5.286  0.3241 -0.1446  0.2115
 4333SOL    HW116404   1.818   7.970   5.362  0.3058  0.6502 -0.0357
 4333SOL    HW216405   1.869   8.025   5.231  1.0455 -0.4035 -0.1963
 4334SOL     OW16406   2.726   9.307   0.414 -0.8684  0.1943  0.1067
 4334SOL    HW116407   2.707   9.273   0.502  1.5610 -1.6983 -0.0675
 4334SOL    HW216408   2.820   9.298   0.404 -0.8397  2.3068 -1.9531
 4335SOL     OW16409   2.400   0.737   5.012 -0.5732  0.1673 -0.0099
 4335SOL    HW116410   2.432   0.789   4.939 -1.6839  0.8785 -0.0078
 4335SOL    HW216411   2.365   0.658   4.971  0.3193 -0.1854 -0.0931
 4336SOL     OW16412   3.140   1.770   4.279 -0.1296 -0.2126 -0.1477
 4336SOL    HW116413   3.067   1.822   4.247  0.3017  1.1970  1.0711
 4336SOL    HW216414   3.107   1.729   4.359 -0.8329 -2.7719 -1.7099
 4337SOL     OW16415   7.032   2.713   5.416 -0.1672  0.1388  0.4805
 4337SOL    HW116416   6.954   2.663   5.437  0.5018 -1.7832 -1.4383
 4337SOL    HW216417   7.103   2.667   5.461  0.5123 -0.9537 -1.6426
 4338SOL     OW16418   1.804   6.159   6.800 -0.2823 -0.2277  1.0801
 4338SOL    HW116419   1.824   6.069   6.773  0.1638  0.0306  0.5623
 4338SOL    HW216420   1.746   6.148   6.875 -1.1201 -0.9547  0.3499
 4339SOL     OW16421  10.458   4.958   0.272  0.3456  0.2090 -0.1770
 4339SOL    HW116422  10.395   4.912   0.217  1.8226 -1.3785 -0.5841
 4339SOL    HW216423  10.424   5.047   0.277 -1.9271 -0.5937 -0.3798
 4340SOL     OW16424   8.490   8.115   6.869  0.7379 -0.4429 -0.1987
 4340SOL    HW116425   8.540   8.194   6.849 -0.8948  0.0805 -2.5790
 4340SOL    HW216426   8.492   8.064   6.787 -0.8665 -1.3515  0.3027
 4341SOL     OW16427   4.456   2.058   6.166  0.2329  0.2221 -0.1186
 4341SOL    HW116428   4.461   1.964   6.147 -0.2280  0.8199 -3.5340
 4341SOL    HW216429   4.381   2.066   6.224 -0.9869 -1.3197 -1.4195
 4342SOL     OW16430   9.189  10.845   7.819 -0.3142  0.3897 -0.1034
 4342SOL    HW116431   9.099  10.816   7.808 -0.1427  0.5584 -2.0533
 4342SOL    HW216432   9.203  10.844   7.914 -2.0437 -0.5767  0.1545
 4343SOL     OW16433   6.622   6.390   2.334 -0.2258 -0.4267 -0.0284
 4343SOL    HW116434   6.590   6.461   2.278  0.6035  0.1028  0.1558
 4343SOL    HW216435   6.673   6.435   2.402 -0.9385 -1.0819  0.9682
 4344SOL     OW16436   7.374   6.021   6.521 -0.6493  0.8416  0.6592
 4344SOL    HW116437   7.403   6.105   6.487  0.0854 -0.0209 -0.8734
 4344SOL    HW216438   7.306   5.993   6.460  0.5598 -0.6435 -0.0139
 4345SOL     OW16439   3.572   0.269   0.928 -0.3886  0.5472 -0.0173
 4345SOL    HW116440   3.625   0.348   0.937 -0.7260  0.8334 -0.5266
 4345SOL    HW216441   3.604   0.211   0.997 -2.0500  2.2057  2.2010
 4346SOL     OW16442   0.056   5.756   2.795  0.4432 -0.1216  0.6836
 4346SOL    HW116443   0.041   5.760   2.701  1.9495  2.4943  0.5044
 4346SOL    HW216444  -0.000   5.825   2.831  0.8060 -0.2697  1.5541
 4347SOL     OW16445   2.943   7.170   9.614  0.1766 -0.3333  0.3192
 4347SOL    HW116446   2.936   7.086   9.660 -0.9504  0.5436  1.8242
 4347SOL    HW216447   3.003   7.153   9.541 -0.6032 -2.6221  0.1641
 4348SOL     OW16448   2.970   0.565   8.928 -0.5508  0.1314  0.6763
 4348SOL    HW116449   2.986   0.539   8.837 -0.4306  0.7144  0.5298
 4348SOL    HW216450   2.903   0.504   8.959 -2.2710  1.3979 -0.5191
 4349SOL     OW16451   3.363   3.332   9.184 -0.1517  0.8389 -0.0986
 4349SOL    HW116452   3.450   3.296   9.201 -0.8607 -0.6536  0.5154
 4349SOL    HW216453   3.354   3.403   9.248  0.3818  0.5986  0.2549
 4350SOL     OW16454   0.218   0.341   3.430  0.2532 -0.3522 -0.4258
 4350SOL    HW116455   0.301   0.324   3.385  0.9769 -0.8454  1.0535
 4350SOL    HW216456   0.235   0.317   3.521 -1.1675  0.6670  0.1265
 4351SOL     OW16457   9.844   1.714   2.080  0.2058 -0.4309  0.1714
 4351SOL    HW116458   9.936   1.735   2.099 -0.0156  1.0455 -0.3479
 4351SOL    HW216459   9.848   1.634   2.028  1.2478  0.0947 -0.5796
 4352SOL     OW16460   4.885   1.965   1.337  0.0919 -0.2628 -0.2920
 4352SOL    HW116461   4.961   1.908   1.323  1.0435 -0.2322  4.1617
 4352SOL    HW216462   4.810   1.906   1.327  0.8533 -1.1557 -0.8830
 4353SOL     OW16463   8.028   4.551   1.948  0.7454 -0.2159 -0.3974
 4353SOL    HW116464   7.955   4.593   1.994  1.3546  0.0780  0.2981
 4353SOL    HW216465   7.988   4.475   1.905 -0.2352  0.7170 -1.1558
 4354SOL     OW16466   0.112   3.972   6.649 -0.2219  0.4047 -0.1030
 4354SOL    HW116467   0.125   3.906   6.581 -3.7340 -0.1548 -0.3146
 4354SOL    HW216468   0.128   4.055   6.604  0.4857 -0.0905 -0.7911
 4355SOL     OW16469   3.624   2.519   1.141  0.2367 -0.6652  0.2822
 4355SOL    HW116470   3.703   2.515   1.194 -0.4120  0.8892  1.4158
 4355SOL    HW216471   3.611   2.613   1.123 -0.8935 -0.9642 -0.5774
 4356SOL     OW16472   1.579   9.236   6.289 -0.1203 -0.3890 -0.3069
 4356SOL    HW116473   1.626   9.257   6.209 -0.9614  1.3243 -0.3734
 4356SOL    HW216474   1.494   9.203   6.259  0.0805 -1.0753 -0.1352
 4357SOL     OW16475   6.850   8.625   3.800  0.2962 -0.1886 -0.2663
 4357SOL    HW116476   6.883   8.712   3.778 -1.9167  1.0310  0.9591
 4357SOL    HW216477   6.810   8.593   3.719  0.3794  0.3001 -0.5015
 4358SOL     OW16478   9.823   7.672   8.429 -0.2035 -0.1290  0.2156
 4358SOL    HW116479   9.857   7.733   8.363 -2.3527  1.2755  0.3624
 4358SOL    HW216480   9.770   7.610   8.379  0.4725 -0.7712  0.2902
 4359SOL     OW16481  10.333   2.007   7.496  0.3505  0.5686 -0.1913
 4359SOL    HW116482  10.374   2.089   7.470 -0.7052  0.9887 -0.5737
 4359SOL    HW216483  10.243   2.032   7.518 -0.0286 -0.5189 -0.4912
 4360SOL     OW16484   1.494   4.156   9.838 -0.2140  0.8921 -0.6668
 4360SOL    HW116485   1.494   4.063   9.815 -1.0771  0.7360 -0.0175
 4360SOL    HW216486   1.584   4.173   9.867 -0.6465 -0.2926  1.4489
 4361SOL     OW16487   3.086   8.189  10.450  0.6493  0.3143  0.2100
 4361SOL    HW116488   3.076   8.094  10.440  0.4447  0.4890 -1.2829
 4361SOL    HW216489   3.167   8.199  10.501  0.7573 -0.6550  0.2410
 4362SOL     OW16490   4.538   3.253   6.203 -0.3679  0.4669 -0.5098
 4362SOL    HW116491   4.446   3.235   6.184 -0.4122  0.5043 -0.3383
 4362SOL    HW216492   4.540   3.269   6.298 -0.1669  0.3589 -0.4947
 4363SOL     OW16493   6.892   5.065   4.073  0.0726  0.1638  0.1515
 4363SOL    HW116494   6.813   5.046   4.023  0.4735  0.6539 -0.6875
 4363SOL    HW216495   6.898   4.993   4.136 -1.5189  0.6014  0.8301
 4364SOL     OW16496   1.646   5.546   4.685  0.0629 -0.5578  0.3241
 4364SOL    HW116497   1.587   5.572   4.614 -0.6112 -0.0498  1.0611
 4364SOL    HW216498   1.592   5.493   4.744  0.1971  0.3608  1.2841
 4365SOL     OW16499   0.765   8.031   3.608 -0.1481 -0.5834 -0.4232
 4365SOL    HW116500   0.848   8.006   3.568  0.8724  0.8896  0.7283
 4365SOL    HW216501   0.762   7.983   3.690  0.2891  0.5106  0.2469
 4366SOL     OW16502   8.545   4.989   5.635 -0.0451 -0.2945 -0.5030
 4366SOL    HW116503   8.594   4.963   5.713  0.8110 -0.1582 -0.9907
 4366SOL    HW216504   8.594   4.953   5.562  0.7619  2.0335 -1.1515
 4367SOL     OW16505   7.952   1.872   2.566  0.1399 -0.1847 -0.2107
 4367SOL    HW116506   7.976   1.819   2.642  1.9271  0.2633 -0.4363
 4367SOL    HW216507   7.947   1.961   2.600 -0.6610 -0.1893 -0.2994
 4368SOL     OW16508   9.169   0.240   1.295  0.1162 -0.4219 -0.4989
 4368SOL    HW116509   9.115   0.304   1.341  0.1507 -0.6229 -0.1769
 4368SOL    HW216510   9.250   0.288   1.274 -0.4350  0.0656 -1.5484
 4369SOL     OW16511   2.549   9.930   3.049  0.2598 -0.0629 -0.7652
 4369SOL    HW116512   2.496   9.986   3.105 -0.3409 -1.1082 -0.2627
 4369SOL    HW216513   2.610   9.888   3.108 -0.9330 -1.8152 -0.7338
 4370SOL     OW16514   6.087   4.571   8.549  0.3616 -0.5147 -0.7349
 4370SOL    HW116515   6.182   4.575   8.543  0.4597 -0.9620  0.3837
 4370SOL    HW216516   6.068   4.593   8.640 -0.6249 -0.0433 -1.0524
 4371SOL     OW16517   4.350   1.571   3.078  0.4172  0.0376 -0.2778
 4371SOL    HW116518   4.413   1.572   3.006  0.2152 -2.9828 -0.5646
 4371SOL    HW216519   4.266   1.553   3.037 -0.1161  0.8054  0.4556
 4372SOL     OW16520   5.639   7.333   0.710 -0.6199 -0.5345 -0.2368
 4372SOL    HW116521   5.622   7.255   0.763 -1.3133 -0.7232 -0.7153
 4372SOL    HW216522   5.638   7.406   0.772  2.1735 -1.1193  0.5382
 4373SOL     OW16523   2.974   6.551   8.407  0.2798 -0.5773 -0.1532
 4373SOL    HW116524   3.026   6.471   8.397  0.5909 -0.1949 -1.7148
 4373SOL    HW216525   2.892   6.533   8.360  0.8488  0.4460 -1.5773
 4374SOL     OW16526   8.776   4.944   8.779  0.3881  0.2078 -0.1943
 4374SOL    HW116527   8.794   4.860   8.821  0.7813  0.6319  0.4851
 4374SOL    HW216528   8.730   4.921   8.698 -1.3010 -0.5569  0.9509
 4375SOL     OW16529   4.467   8.858   1.244  0.2642  0.1520 -0.0821
 4375SOL    HW116530   4.506   8.822   1.164  2.0965 -1.5230  1.5288
 4375SOL    HW216531   4.441   8.781   1.295  0.4205  1.1670  1.5673
 4376SOL     OW16532  10.077   5.650   4.030  0.7557  0.0240 -0.0597
 4376SOL    HW116533  10.073   5.694   3.945 -0.2627 -0.5856 -0.3313
 4376SOL    HW216534  10.013   5.696   4.085 -1.1944 -1.8434 -0.7049
 4377SOL     OW16535   2.872   3.713   8.718  0.2530 -0.7814  0.1759
 4377SOL    HW116536   2.824   3.782   8.672  0.8798  0.2244  1.0174
 4377SOL    HW216537   2.903   3.655   8.648 -0.2622 -0.2041 -0.5363
 4378SOL     OW16538   1.518  10.820   8.183 -0.3131 -0.0192  0.4225
 4378SOL    HW116539   1.530  10.845   8.092 -1.3127 -1.9380 -0.2471
 4378SOL    HW216540   1.606  10.808   8.217  0.0635  0.8755 -0.2233
 4379SOL     OW16541   7.085   7.573   6.834  0.0864 -0.7634 -0.5914
 4379SOL    HW116542   7.058   7.577   6.926 -1.2525 -0.7840 -0.9779
 4379SOL    HW216543   7.150   7.642   6.826  0.5146 -1.0251  0.4715
 4380SOL     OW16544   4.431   8.564   4.250 -0.0807 -0.1040  0.5074
 4380SOL    HW116545   4.411   8.656   4.238 -0.7936 -0.3857 -0.5066
 4380SOL    HW216546   4.526   8.562   4.268  0.9080  0.4607 -4.0949
 4381SOL     OW16547   6.659   9.038   3.826 -0.7525  0.2500  0.4374
 4381SOL    HW116548   6.674   9.119   3.777 -1.6645  0.7670  1.0002
 4381SOL    HW216549   6.702   9.053   3.910  0.5746 -0.5309 -0.0747
 4382SOL     OW16550   1.963   9.502  10.849 -0.2450  0.3599  0.0976
 4382SOL    HW116551   1.873   9.518  10.878  0.6028 -0.6636  3.4341
 4382SOL    HW216552   1.960   9.415  10.810 -1.0354  1.0628 -1.4796
 4383SOL     OW16553   4.281   1.145   1.408  0.4153 -0.2393 -0.2131
 4383SOL    HW116554   4.199   1.172   1.448  0.3879 -2.3095  1.1992
 4383SOL    HW216555   4.348   1.167   1.472  0.5443 -2.0605  0.3008
 4384SOL     OW16556   2.419   1.266   0.118  0.3533 -0.1172  0.2540
 4384SOL    HW116557   2.364   1.242   0.192  0.4978  0.0016  0.3983
 4384SOL    HW216558   2.490   1.317   0.156  1.4891 -1.6981  0.3038
 4385SOL     OW16559   2.952   6.828   2.909  0.1166 -0.4486  0.4944
 4385SOL    HW116560   2.957   6.751   2.965 -0.4234  0.6851  2.1233
 4385SOL    HW216561   2.858   6.848   2.904  0.2662  0.2123  0.2362
 4386SOL     OW16562   6.174   5.680   9.533 -0.1452  0.2766 -0.5273
 4386SOL    HW116563   6.176   5.744   9.604  1.2764 -0.8167  0.4680
 4386SOL    HW216564   6.081   5.658   9.523 -0.3894  0.6196  0.8523
 4387SOL     OW16565   0.771   3.572   5.157  0.0920  0.5278 -0.1315
 4387SOL    HW116566   0.815   3.624   5.224 -0.5379 -1.9003  2.2327
 4387SOL    HW216567   0.794   3.481   5.178  0.1308 -0.2855 -3.3963
 4388SOL     OW16568   6.302   3.152   4.521  0.8545  0.7723  0.2435
 4388SOL    HW116569   6.210   3.144   4.493  0.4755  0.0366  1.6435
 4388SOL    HW216570   6.303   3.229   4.576  0.3536 -1.0759  2.9365
 4389SOL     OW16571   4.581   5.281  10.213 -0.7199 -0.1113 -0.4159
 4389SOL    HW116572   4.643   5.246  10.276 -1.2322 -1.5153 -0.6689
 4389SOL    HW216573   4.618   5.259  10.127 -0.8108  0.4016 -0.5935
 4390SOL     OW16574   9.704   8.101   4.358  0.0091  0.4848  0.0497
 4390SOL    HW116575   9.784   8.050   4.363  1.4466  2.6282 -0.5052
 4390SOL    HW216576   9.731   8.186   4.324 -2.2157  1.8255  1.4413
 4391SOL     OW16577   6.857   9.622   3.010  0.2844  0.1783  0.3919
 4391SOL    HW116578   6.941   9.615   2.965 -0.0060 -0.7697 -0.0078
 4391SOL    HW216579   6.825   9.709   2.988  0.3341 -0.1178 -0.9189
 4392SOL     OW16580   3.422   6.505   0.871 -0.0732  0.2391  0.6735
 4392SOL    HW116581   3.489   6.447   0.907 -1.5345 -3.1233 -1.7654
 4392SOL    HW216582   3.471   6.570   0.820  1.3981 -1.1840  0.2458
 4393SOL     OW16583   2.201   1.370   2.534  0.6004 -0.3042  0.0826
 4393SOL    HW116584   2.145   1.300   2.567  2.5154 -1.9730 -0.1198
 4393SOL    HW216585   2.152   1.407   2.460 -1.5758  0.3302  1.7727
 4394SOL     OW16586   4.161   3.886  10.081 -0.6056 -0.2337 -0.0451
 4394SOL    HW116587   4.159   3.791  10.095  0.1844 -0.1825  0.4577
 4394SOL    HW216588   4.248   3.903  10.046 -0.6431  0.3422  0.1378
 4395SOL     OW16589   7.986   3.616   0.493  0.3652 -0.0135  0.4746
 4395SOL    HW116590   7.900   3.602   0.455  1.1628 -1.5856 -0.8287
 4395SOL    HW216591   8.044   3.556   0.444  1.9852  0.2284  2.0402
 4396SOL     OW16592   5.037   0.861   9.411 -0.6042 -0.1379  0.1935
 4396SOL    HW116593   5.049   0.925   9.480  0.8178 -0.2987  0.1092
 4396SOL    HW216594   4.987   0.790   9.451 -0.7749  0.2878  0.7298
 4397SOL     OW16595  10.566   9.197   6.958 -0.0772 -0.1270 -0.1018
 4397SOL    HW116596  10.644   9.234   6.916  1.7872 -2.1012  1.5250
 4397SOL    HW216597  10.496   9.259   6.936  2.0764  2.1112 -0.9428
 4398SOL     OW16598   6.470   0.660   4.842 -0.0250 -0.5628  0.7617
 4398SOL    HW116599   6.416   0.721   4.791 -0.0266 -0.7261  0.5667
 4398SOL    HW216600   6.428   0.575   4.831  1.1418 -0.9780 -0.6738
 4399SOL     OW16601   9.090   8.911   9.178 -0.2816  0.5423  0.5791
 4399SOL    HW116602   9.055   8.861   9.252  0.2757 -1.0254 -0.1833
 4399SOL    HW216603   9.113   8.996   9.214  0.3991 -0.3581  2.3038
 4400SOL     OW16604   0.213   3.292   9.858  0.3683  0.3820 -0.4921
 4400SOL    HW116605   0.299   3.334   9.861  1.2276 -1.3979  0.7908
 4400SOL    HW216606   0.233   3.199   9.846 -1.3261 -0.2258  1.2729
 4401SOL     OW16607   1.572   7.910   4.159  0.1979 -0.3576 -0.1498
 4401SOL    HW116608   1.498   7.855   4.184 -1.2877  0.8826 -1.7181
 4401SOL    HW216609   1.634   7.850   4.120 -0.7644 -1.1429 -0.4773
 4402SOL     OW16610   8.742   3.008  10.615 -0.6559 -0.0167 -0.0507
 4402SOL    HW116611   8.815   2.997  10.677 -2.4078  0.8089  2.2342
 4402SOL    HW216612   8.759   2.943  10.547  0.6333 -1.9390  2.0125
 4403SOL     OW16613   3.789   7.297   3.026 -0.1686 -0.7085 -0.1223
 4403SOL    HW116614   3.882   7.307   3.044 -0.2648 -2.0403  1.2355
 4403SOL    HW216615   3.785   7.254   2.940  0.5059 -1.7336  0.3524
 4404SOL     OW16616   5.336   1.069   4.653  0.5259  0.1627  0.3112
 4404SOL    HW116617   5.394   1.142   4.673  0.3894  0.0837  1.0005
 4404SOL    HW216618   5.248   1.101   4.673  0.6179 -0.7674  2.3611
 4405SOL     OW16619   9.747   6.694   6.611  0.2322 -0.1803 -0.1600
 4405SOL    HW116620   9.670   6.723   6.562 -0.3263  2.1068  1.9620
 4405SOL    HW216621   9.721   6.609   6.647 -1.4119  0.6627  0.7087
 4406SOL     OW16622   3.421   8.945   1.573 -0.3453  0.4591 -0.0285
 4406SOL    HW116623   3.390   9.033   1.598 -0.1106  0.3400  0.6854
 4406SOL    HW216624   3.483   8.922   1.641 -0.6406 -0.3977 -0.0507
 4407SOL     OW16625   0.108   6.581   6.954 -0.1725  0.1876  0.0985
 4407SOL    HW116626   0.176   6.642   6.984 -0.5867  0.1059  1.2230
 4407SOL    HW216627   0.027   6.615   6.991 -0.3031 -1.4686  1.4092
 4408SOL     OW16628   7.754   6.617  10.111 -0.4383 -0.0820  0.0377
 4408SOL    HW116629   7.760   6.585  10.021 -0.1735  0.4522 -0.1369
 4408SOL    HW216630   7.724   6.541  10.162 -0.3031 -0.4656 -0.4527
 4409SOL     OW16631   7.606  10.775   2.155 -0.6481 -0.9754 -0.4562
 4409SOL    HW116632   7.570  10.700   2.203 -0.7630  0.1907  1.3422
 4409SOL    HW216633   7.615  10.843   2.221  0.2839  0.3254 -1.8903
 4410SOL     OW16634  10.308   0.003   2.246 -0.5780  0.3452  0.2430
 4410SOL    HW116635  10.352  -0.068   2.293 -0.4912 -0.5790 -1.1986
 4410SOL    HW216636  10.215  -0.022   2.246 -0.5403  0.2011 -0.3170
 4411SOL     OW16637  10.018   2.111   4.418  0.2289  0.0119 -0.9561
 4411SOL    HW116638  10.025   2.151   4.505 -0.5208  1.2041 -1.4190
 4411SOL    HW216639  10.107   2.116   4.382  0.4206  0.0352 -0.4832
 4412SOL     OW16640   1.155   2.845   0.877 -0.1807  0.1496  0.3140
 4412SOL    HW116641   1.127   2.854   0.786 -0.5230 -1.1268  0.2841
 4412SOL    HW216642   1.094   2.899   0.927 -1.6764 -1.3115  0.0755
 4413SOL     OW16643  10.074   6.687  10.334  0.3732 -0.6446 -0.1931
 4413SOL    HW116644  10.084   6.755  10.401 -1.1872  0.8500 -1.4546
 4413SOL    HW216645  10.049   6.609  10.384 -0.7171  0.4414  0.9970
 4414SOL     OW16646   1.560   9.172   0.395  0.1134 -0.0483 -0.5091
 4414SOL    HW116647   1.471   9.158   0.364 -0.2239  1.2826 -0.1679
 4414SOL    HW216648   1.551   9.233   0.469  1.1463 -1.1961  0.5863
 4415SOL     OW16649   8.739   2.582   3.717 -0.0910 -0.9932 -0.2550
 4415SOL    HW116650   8.774   2.493   3.712  0.3204 -0.8422 -0.1094
 4415SOL    HW216651   8.812   2.634   3.749  0.1090 -0.3518 -1.7091
 4416SOL     OW16652   2.893  10.311   0.520  0.2200  0.3939  0.2662
 4416SOL    HW116653   2.888  10.313   0.425  0.9755  0.0115  0.2084
 4416SOL    HW216654   2.944  10.388   0.543  2.9757 -1.2969  0.1109
 4417SOL     OW16655   0.774   8.043   7.214  0.6713  0.6419  0.0795
 4417SOL    HW116656   0.865   8.065   7.234  1.0032  0.8534 -1.6289
 4417SOL    HW216657   0.734   8.126   7.188 -0.0419  0.5616  0.8770
 4418SOL     OW16658   6.368   3.371   5.126 -0.0368  0.2534  0.4231
 4418SOL    HW116659   6.289   3.318   5.125 -0.3579  0.7411 -0.5447
 4418SOL    HW216660   6.357   3.433   5.053  1.7195 -0.4093 -0.4428
 4419SOL     OW16661   7.722  10.551   7.774 -0.2155  0.2347  0.0759
 4419SOL    HW116662   7.652  10.533   7.836 -0.5674  0.3800 -0.2810
 4419SOL    HW216663   7.698  10.634   7.733  0.1929  0.3178 -0.0001
 4420SOL     OW16664   0.259   4.841   1.628 -0.1132 -0.0514 -0.1668
 4420SOL    HW116665   0.277   4.786   1.704 -1.8087  0.1550  0.4130
 4420SOL    HW216666   0.251   4.780   1.555  0.3807 -0.3496  0.0264
 4421SOL     OW16667   7.866   3.599   8.641  0.7636  0.5620 -0.2235
 4421SOL    HW116668   7.877   3.658   8.716  0.1550  0.0562  0.2660
 4421SOL    HW216669   7.925   3.526   8.659 -1.7019 -1.1454  1.3876
 4422SOL     OW16670   8.678   4.101   4.456  0.2424  0.1364  0.2285
 4422SOL    HW116671   8.597   4.058   4.427  0.0757  1.1750 -0.9141
 4422SOL    HW216672   8.747   4.061   4.402  0.6666 -1.5291  1.9623
 4423SOL     OW16673   7.447   1.135   1.468 -0.0532  0.2454 -0.7755
 4423SOL    HW116674   7.536   1.098   1.464 -0.2593 -0.3840  0.3264
 4423SOL    HW216675   7.460   1.229   1.452  0.9608  0.3537  0.5555
 4424SOL     OW16676   2.104  10.636   4.398  0.1907 -0.2819 -0.0297
 4424SOL    HW116677   2.061  10.590   4.325 -0.1931 -1.9992  1.2487
 4424SOL    HW216678   2.174  10.577   4.425 -1.6644 -1.1714  3.0579
 4425SOL     OW16679  10.480   3.569   8.715 -0.4117  0.1666  0.3590
 4425SOL    HW116680  10.468   3.608   8.802  2.5238  0.9053  0.4899
 4425SOL    HW216681  10.485   3.645   8.657 -1.7484 -0.3072 -0.3714
 4426SOL     OW16682   5.708   8.661   2.084 -0.4088  0.3660  0.7081
 4426SOL    HW116683   5.751   8.585   2.124  0.2251 -0.1268 -0.8585
 4426SOL    HW216684   5.730   8.734   2.143  0.1729 -0.4000  1.4598
 4427SOL     OW16685   8.844   3.359   1.238 -0.6562 -0.1027 -0.0692
 4427SOL    HW116686   8.821   3.407   1.158  1.8812 -0.9270 -1.3689
 4427SOL    HW216687   8.770   3.301   1.253 -1.2441  0.1765 -1.7663
 4428SOL     OW16688   8.530   5.561   1.544  0.6041 -0.2498 -0.2986
 4428SOL    HW116689   8.617   5.523   1.535  0.6594  0.0558 -1.0370
 4428SOL    HW216690   8.524   5.624   1.472 -0.3441 -0.4971 -0.4368
 4429SOL     OW16691   8.900   4.496   6.169 -0.0013 -0.0260 -0.4886
 4429SOL    HW116692   8.807   4.498   6.189  0.3145  0.4714  1.0136
 4429SOL    HW216693   8.935   4.429   6.228  0.5998 -0.1435 -0.9791
 4430SOL     OW16694   9.829   4.113   6.575 -0.0319 -0.1901 -0.5952
 4430SOL    HW116695   9.839   4.023   6.607  2.5121  0.1095 -0.4382
 4430SOL    HW216696   9.770   4.105   6.501 -0.3563 -1.9049 -0.1846
 4431SOL     OW16697   2.205   3.655   3.360 -0.7747  0.0259  0.0449
 4431SOL    HW116698   2.112   3.649   3.381 -1.0431 -1.0916 -1.3737
 4431SOL    HW216699   2.211   3.629   3.268  0.7744  1.4443 -0.2929
 4432SOL     OW16700   6.704   8.547   0.745  0.0114 -0.4404  0.4059
 4432SOL    HW116701   6.682   8.632   0.707  0.4126  0.2485  1.6877
 4432SOL    HW216702   6.778   8.565   0.803 -0.6770 -1.4427  1.6252
 4433SOL     OW16703   2.472   5.662   4.277 -0.8282  0.4623  0.6906
 4433SOL    HW116704   2.465   5.679   4.371 -1.9687 -0.9853  0.8810
 4433SOL    HW216705   2.383   5.674   4.243 -0.6518 -0.1576 -0.0128
 4434SOL     OW16706   8.688   0.284   0.933 -0.3597  0.2480 -0.4991
 4434SOL    HW116707   8.646   0.250   1.011 -0.1461 -0.7227 -0.7888
 4434SOL    HW216708   8.640   0.364   0.911 -0.6095  0.3514  0.4421
 4435SOL     OW16709   1.823   7.019   3.592 -0.6329  0.0307 -0.6386
 4435SOL    HW116710   1.754   6.987   3.650 -0.7124 -2.6923 -2.1598
 4435SOL    HW216711   1.904   6.993   3.634 -0.5497  1.5070  0.1623
 4436SOL     OW16712   3.459   1.601   4.968  0.1423  0.2250 -0.0375
 4436SOL    HW116713   3.507   1.682   4.986  0.7455  0.1759 -1.3690
 4436SOL    HW216714   3.517   1.551   4.911  0.2699 -1.6721  1.6843
 4437SOL     OW16715   0.221   6.381   5.524  0.0868 -0.1907  0.2843
 4437SOL    HW116716   0.202   6.301   5.474  1.5977  0.3097 -1.1679
 4437SOL    HW216717   0.167   6.448   5.483  0.9782  0.1218 -0.4078
 4438SOL     OW16718   6.680  10.671   9.725 -0.2867  0.2296 -0.2730
 4438SOL    HW116719   6.632  10.635   9.799  3.8837 -1.1089  1.9534
 4438SOL    HW216720   6.626  10.651   9.649 -3.7210 -0.1400  2.1853
 4439SOL     OW16721   4.362  10.527   1.415  0.1402  0.2914 -0.3408
 4439SOL    HW116722   4.329  10.458   1.473 -0.1562  1.0562  0.4180
 4439SOL    HW216723   4.457  10.514   1.415  0.1396  0.2528  0.2833
 4440SOL     OW16724   3.306   5.196   3.171 -0.3501 -0.2314  0.1650
 4440SOL    HW116725   3.214   5.185   3.193  0.1378 -3.5339  0.7436
 4440SOL    HW216726   3.325   5.129   3.106  1.7605  0.0706  0.4092
 4441SOL     OW16727   8.914   9.945   0.853 -0.1022 -0.3182  0.4198
 4441SOL    HW116728   8.841   9.988   0.809 -0.3273 -1.2134 -0.0975
 4441SOL    HW216729   8.957   9.894   0.784  0.4873 -0.4782  0.9029
 4442SOL     OW16730   8.863   7.923   8.701 -0.8141 -0.2016 -0.4267
 4442SOL    HW116731   8.768   7.931   8.716 -0.7728  0.7937 -0.6640
 4442SOL    HW216732   8.881   7.830   8.716 -1.9204 -0.5133 -0.9060
 4443SOL     OW16733   7.725   8.040   1.259 -0.1119 -0.6905 -0.3259
 4443SOL    HW116734   7.632   8.054   1.237 -0.2920  1.0181  1.4044
 4443SOL    HW216735   7.728   7.951   1.294 -1.1535 -0.6794 -0.1867
 4444SOL     OW16736   1.192   3.259  10.764 -0.7503  0.4220 -0.2282
 4444SOL    HW116737   1.118   3.211  10.726 -0.3012 -0.3010 -0.1937
 4444SOL    HW216738   1.162   3.282  10.852 -0.7570 -0.2819 -0.0457
 4445SOL     OW16739   0.240   6.874   1.918  0.4158  0.1550  0.8764
 4445SOL    HW116740   0.278   6.786   1.912  0.1472 -0.0971  2.4537
 4445SOL    HW216741   0.205   6.878   2.007  2.2466  2.6124  1.5318
 4446SOL     OW16742   6.596   5.933   0.405  0.3796 -0.3036 -0.0093
 4446SOL    HW116743   6.598   5.907   0.313 -0.7954 -1.3681  0.2512
 4446SOL    HW216744   6.658   5.874   0.448  1.3425  0.5580 -0.1963
 4447SOL     OW16745   1.729   5.769   2.883 -0.5438  0.2264 -0.1750
 4447SOL    HW116746   1.708   5.745   2.793 -2.8203  0.3973  0.2903
 4447SOL    HW216747   1.651   5.748   2.933  1.1560 -1.1102  2.0284
 4448SOL     OW16748   9.491   5.120   8.640  0.8316  0.7194 -0.0561
 4448SOL    HW116749   9.492   5.063   8.716 -1.4032 -1.1492 -1.3415
 4448SOL    HW216750   9.516   5.206   8.673 -0.4612  0.0103  2.8511
 4449SOL     OW16751   3.916   5.776   1.888  0.0976  0.2236 -0.6938
 4449SOL    HW116752   3.955   5.691   1.868 -0.1903  0.2778 -1.4902
 4449SOL    HW216753   3.977   5.816   1.950  1.3223  0.2946 -1.9055
 4450SOL     OW16754   2.929   4.714  10.492 -0.1679 -0.2266 -0.2143
 4450SOL    HW116755   2.837   4.742  10.487 -0.2153 -0.2296  0.5296
 4450SOL    HW216756   2.942   4.694  10.585  0.0824 -1.9596 -0.6217
 4451SOL     OW16757   3.126   8.396   6.688  0.9714 -1.0169  0.0414
 4451SOL    HW116758   3.072   8.376   6.764  0.4984  0.2292  0.0498
 4451SOL    HW216759   3.213   8.413   6.725  0.8436 -0.8396  0.2627
 4452SOL     OW16760   5.380   3.475   0.681  0.2302 -0.0616 -0.2785
 4452SOL    HW116761   5.387   3.570   0.697 -0.4923 -0.0653  0.0910
 4452SOL    HW216762   5.313   3.468   0.612  0.4922 -0.2889 -0.5111
 4453SOL     OW16763   4.976   5.254   8.729  0.4258  0.2731 -0.3407
 4453SOL    HW116764   4.902   5.273   8.673  0.6765  0.2581 -0.6778
 4453SOL    HW216765   5.050   5.300   8.689  1.2447 -2.1311 -1.6963
 4454SOL     OW16766   0.008   6.934  10.923  0.1523 -0.1147  0.6762
 4454SOL    HW116767  -0.076   6.939  10.879  0.3236  3.3494  0.5802
 4454SOL    HW216768   0.073   6.950  10.854  0.5759  2.2775  1.5788
 4455SOL     OW16769   6.463   3.197   3.632 -0.1870  0.6012  0.1085
 4455SOL    HW116770   6.527   3.136   3.669 -2.2736 -1.6118  0.1524
 4455SOL    HW216771   6.435   3.157   3.550 -2.4951  0.8304  0.7360
 4456SOL     OW16772   7.326   0.724   0.804 -0.2020  0.0674 -0.0266
 4456SOL    HW116773   7.293   0.796   0.750 -1.1313  2.0632  3.0750
 4456SOL    HW216774   7.248   0.672   0.824  0.1893 -0.8336 -0.7943
 4457SOL     OW16775   1.488   6.145   7.705 -0.1206  0.0509  0.6322
 4457SOL    HW116776   1.561   6.154   7.765  1.5731 -3.0205 -0.8533
 4457SOL    HW216777   1.437   6.072   7.740 -1.7869  1.3243  0.9374
 4458SOL     OW16778   9.967   6.036   1.164  0.4584 -0.1563 -0.8171
 4458SOL    HW116779   9.901   6.020   1.097 -0.0809 -1.8274  0.0911
 4458SOL    HW216780  10.033   5.968   1.150 -0.1095 -1.0754  0.9054
 4459SOL     OW16781   7.601   1.623   7.755  0.3520 -0.5748  0.1475
 4459SOL    HW116782   7.617   1.531   7.777  1.4163 -0.3089  0.5452
 4459SOL    HW216783   7.598   1.668   7.840  0.0266 -0.2220 -0.0535
 4460SOL     OW16784   8.587   0.623   6.393 -0.1148 -0.4323 -0.1622
 4460SOL    HW116785   8.495   0.616   6.368 -0.0532 -1.4428 -0.1294
 4460SOL    HW216786   8.585   0.664   6.480 -0.5301 -0.4432 -0.1645
 4461SOL     OW16787   8.802   6.155   2.630  0.1054 -0.6529 -0.1435
 4461SOL    HW116788   8.818   6.178   2.721 -0.0397 -1.0556 -0.0150
 4461SOL    HW216789   8.724   6.205   2.606  1.3525  1.0830 -0.6804
 4462SOL     OW16790   0.061   5.963   9.652  0.0805 -0.5977  0.0247
 4462SOL    HW116791   0.063   5.925   9.564  0.0391 -0.0410 -0.2178
 4462SOL    HW216792   0.094   6.052   9.641  2.4304 -1.3078  0.9774
 4463SOL     OW16793  10.269   3.511   9.173 -0.5110  0.5106 -0.1536
 4463SOL    HW116794  10.206   3.544   9.238  1.1933 -0.3167  2.0000
 4463SOL    HW216795  10.248   3.418   9.165  0.9335  0.0472  1.2103
 4464SOL     OW16796   7.853   3.986  10.288 -0.5012 -0.3728  0.4173
 4464SOL    HW116797   7.870   3.963  10.197 -0.3066 -2.3549  0.9236
 4464SOL    HW216798   7.922   3.941  10.337 -1.1113 -0.0241  1.6085
 4465SOL     OW16799   4.190   8.417   2.307  0.1788 -0.1095 -0.2270
 4465SOL    HW116800   4.098   8.442   2.305  0.3744  0.6596  0.1966
 4465SOL    HW216801   4.221   8.429   2.218  0.0480  0.3297 -0.2145
 4466SOL     OW16802   3.789   2.330   8.987 -0.1873  0.2171  0.3072
 4466SOL    HW116803   3.829   2.341   9.073  1.0443 -2.1261  0.0871
 4466SOL    HW216804   3.711   2.278   9.003 -0.3518  0.3987  0.0994
 4467SOL     OW16805   5.778   7.122   0.894  0.0851 -0.2327 -0.1504
 4467SOL    HW116806   5.801   7.203   0.940  0.1336 -0.8799  0.9796
 4467SOL    HW216807   5.765   7.058   0.963 -0.3560 -1.0989 -1.0227
 4468SOL     OW16808   3.730   4.318   3.192  0.1665  0.2525  0.1354
 4468SOL    HW116809   3.704   4.403   3.227 -1.6253  0.2610 -1.1780
 4468SOL    HW216810   3.708   4.322   3.099  0.8349 -1.3485 -0.1109
 4469SOL     OW16811  10.678   3.950   9.945 -0.2092  0.7200 -0.1499
 4469SOL    HW116812  10.677   3.971  10.038  0.1580  0.1032  0.0011
 4469SOL    HW216813  10.603   3.893   9.932  1.4001 -1.6032  0.3772
 4470SOL     OW16814   2.847   3.851   1.476  0.3170  0.8502 -0.4738
 4470SOL    HW116815   2.905   3.918   1.512 -0.8745  1.8854 -0.4424
 4470SOL    HW216816   2.771   3.851   1.535 -0.3572  0.5332 -1.3226
 4471SOL     OW16817   0.894   8.030   0.494  0.4069  0.0678  0.4572
 4471SOL    HW116818   0.945   8.057   0.417  2.2308 -0.6538  1.3787
 4471SOL    HW216819   0.821   7.979   0.457  1.7558 -1.0332 -0.7686
 4472SOL     OW16820  10.943   6.234   5.619 -0.4563 -0.3826 -0.0016
 4472SOL    HW116821  10.985   6.159   5.575 -1.4042 -1.2397  0.5477
 4472SOL    HW216822  10.986   6.238   5.705 -1.8891 -1.6429  0.8016
 4473SOL     OW16823   9.858   2.527   1.946 -0.1351  0.2192 -0.3913
 4473SOL    HW116824   9.905   2.600   1.985 -1.3081  0.3449  0.7907
 4473SOL    HW216825   9.894   2.449   1.990 -0.2012  0.2288 -0.3187
 4474SOL     OW16826   8.805   8.911   5.054 -0.5075 -0.1844  0.2826
 4474SOL    HW116827   8.874   8.879   4.996  1.2457  2.8003  0.6494
 4474SOL    HW216828   8.835   8.887   5.142 -1.1209 -0.9736  0.2858
 4475SOL     OW16829   1.776   5.167   8.019 -0.1668 -0.6615 -0.5693
 4475SOL    HW116830   1.803   5.241   8.074 -0.2004 -0.3442 -0.9760
 4475SOL    HW216831   1.744   5.102   8.081  1.2695 -0.9366 -0.1018
 4476SOL     OW16832   3.365   7.872   7.551  0.3657 -0.0179  0.0905
 4476SOL    HW116833   3.384   7.966   7.552  0.4040 -0.0270  0.3081
 4476SOL    HW216834   3.270   7.866   7.553  0.3128  0.0359 -1.8672
 4477SOL     OW16835   1.349   2.247   4.792 -0.5211 -0.1541 -0.2686
 4477SOL    HW116836   1.390   2.326   4.827  2.4971 -1.6677 -0.1823
 4477SOL    HW216837   1.409   2.218   4.723 -2.3335 -1.5859 -1.2988
 4478SOL     OW16838   5.498  10.609   4.811 -0.1753  0.2319  0.0693
 4478SOL    HW116839   5.520  10.561   4.891 -2.7012 -0.5478  0.3318
 4478SOL    HW216840   5.477  10.698   4.841  1.9997  0.8504 -0.1307
 4479SOL     OW16841  10.766   1.380   0.419  0.0960 -0.2037 -0.6319
 4479SOL    HW116842  10.827   1.419   0.357 -0.2972 -0.8692 -1.4335
 4479SOL    HW216843  10.822   1.348   0.490  0.3661  2.6018  0.4808
 4480SOL     OW16844   3.453   2.496   4.512  0.4391  0.2573  0.2019
 4480SOL    HW116845   3.536   2.504   4.465 -0.2393  2.3435 -0.7154
 4480SOL    HW216846   3.395   2.560   4.470 -0.8677  0.6128  2.4511
 4481SOL     OW16847   3.364   2.230   9.043  0.5573  0.0953  0.2628
 4481SOL    HW116848   3.460   2.227   9.050  0.7394  1.4241 -1.2646
 4481SOL    HW216849   3.347   2.219   8.950 -0.8169 -0.7741  0.6096
 4482SOL     OW16850   0.124   8.118   0.326  0.0645  0.0400  0.2600
 4482SOL    HW116851   0.095   8.047   0.384 -0.5746 -0.6932 -0.9317
 4482SOL    HW216852   0.155   8.074   0.248 -0.5694  1.0890 -0.5963
 4483SOL     OW16853   1.394   7.989   6.657  0.1062  0.4825 -0.0896
 4483SOL    HW116854   1.391   8.082   6.636  0.5447  0.4158 -0.4633
 4483SOL    HW216855   1.479   7.977   6.700 -0.7872  0.6196  1.7777
 4484SOL     OW16856   9.928   9.253   9.186  0.3225 -0.7782 -0.1051
 4484SOL    HW116857   9.928   9.170   9.233 -0.2103 -1.3347 -1.0691
 4484SOL    HW216858   9.838   9.284   9.192  0.1189 -1.1264 -1.2067
 4485SOL     OW16859   7.810   3.641   8.187  0.1253  0.1488 -0.4622
 4485SOL    HW116860   7.763   3.626   8.268  1.5467  0.0712  0.3733
 4485SOL    HW216861   7.902   3.630   8.210  0.8253  3.6613 -1.2557
 4486SOL     OW16862   5.780   6.112   8.202  0.0288  0.0526  0.0997
 4486SOL    HW116863   5.745   6.026   8.223 -0.9080  0.7160  1.3637
 4486SOL    HW216864   5.782   6.115   8.107 -3.0173 -0.1750 -0.0299
 4487SOL     OW16865   7.831   2.782   8.128  0.4180 -0.4278 -0.2201
 4487SOL    HW116866   7.771   2.784   8.054  2.1638  0.4649 -1.6699
 4487SOL    HW216867   7.858   2.691   8.137 -2.0324 -1.0423  1.2106
 4488SOL     OW16868   6.414   6.222   4.380 -0.4612  0.5327  0.0971
 4488SOL    HW116869   6.333   6.226   4.432  0.4569  1.1793  1.5086
 4488SOL    HW216870   6.457   6.305   4.398  1.5477 -0.6863  1.0360
 4489SOL     OW16871   6.384   9.823   6.388  0.9911 -0.5686 -0.5183
 4489SOL    HW116872   6.449   9.765   6.348 -0.8915 -1.9803 -1.5886
 4489SOL    HW216873   6.315   9.832   6.323 -0.5281 -0.1630  1.0925
 4490SOL     OW16874   6.794   7.802  10.300  0.4955 -0.1882 -0.2934
 4490SOL    HW116875   6.755   7.717  10.282 -0.4600  0.5623 -1.8124
 4490SOL    HW216876   6.859   7.815  10.231 -0.2382  0.8569 -0.8045
 4491SOL     OW16877   6.916   5.395   8.153 -0.6853  0.3456  0.1882
 4491SOL    HW116878   6.833   5.403   8.106 -0.3297 -0.1946 -0.5479
 4491SOL    HW216879   6.938   5.485   8.178 -0.7939  0.6589 -0.8373
 4492SOL     OW16880   4.642   9.961  10.450  0.0663 -0.1865  0.7386
 4492SOL    HW116881   4.580   9.896  10.416  0.5813  0.2529 -1.1032
 4492SOL    HW216882   4.655  10.022  10.377  1.3401  0.7007  1.6861
 4493SOL     OW16883   7.089   9.037   0.521  0.4364  0.5569  0.2111
 4493SOL    HW116884   7.096   8.964   0.460  1.1897  1.3834 -0.7123
 4493SOL    HW216885   7.060   9.111   0.466 -0.6892  0.8638  1.1951
 4494SOL     OW16886   9.097   5.628  10.026 -0.2508  0.2236  0.1361
 4494SOL    HW116887   9.073   5.619   9.934 -2.0918  0.0637  0.5998
 4494SOL    HW216888   9.013   5.628  10.072  0.5405  2.1126  1.6708
 4495SOL     OW16889   5.838   4.548   1.823  0.1782 -0.1095  0.2885
 4495SOL    HW116890   5.912   4.601   1.795  0.6858 -0.6590  0.5735
 4495SOL    HW216891   5.813   4.585   1.908  0.4071 -0.2058  0.3976
 4496SOL     OW16892   2.139   5.530   4.874 -0.5356  0.5400 -0.3925
 4496SOL    HW116893   2.065   5.482   4.910  0.5186 -1.0647 -0.3399
 4496SOL    HW216894   2.176   5.578   4.949 -0.5315  0.0567 -0.0859
 4497SOL     OW16895  10.898   4.962  10.567 -0.4800  0.1136  0.4069
 4497SOL    HW116896  10.927   5.044  10.607  0.8061 -0.2309  0.1870
 4497SOL    HW216897  10.931   4.893  10.625  0.3598 -0.3334 -0.5769
 4498SOL     OW16898   3.190   3.040   3.515 -0.4226 -0.2555  0.2258
 4498SOL    HW116899   3.239   3.094   3.577  0.0817 -0.2172 -0.2049
 4498SOL    HW216900   3.137   3.103   3.466  1.5432  0.0679 -1.5395
 4499SOL     OW16901   7.456   9.551   0.654 -0.0086 -0.5268  0.1584
 4499SOL    HW116902   7.414   9.630   0.687  0.7615 -0.1325  0.2175
 4499SOL    HW216903   7.387   9.485   0.653 -0.5662  0.0506  0.4616
 4500SOL     OW16904  10.427   6.559   9.698  0.2624 -0.0417 -0.1931
 4500SOL    HW116905  10.339   6.544   9.732  0.2177  1.4729  0.3789
 4500SOL    HW216906  10.485   6.531   9.768  0.2620 -1.2108 -0.6392
 4501SOL     OW16907   9.019   6.205   2.469 -0.2817  0.1412  0.1665
 4501SOL    HW116908   9.071   6.242   2.540  0.5417  0.3563 -0.5415
 4501SOL    HW216909   8.937   6.178   2.511  0.1348  0.4023  1.1643
 4502SOL     OW16910   4.861   1.196   7.618  0.8071 -0.8707  0.6390
 4502SOL    HW116911   4.940   1.214   7.567  1.0248  0.8252  1.5506
 4502SOL    HW216912   4.812   1.279   7.617 -1.2118 -2.0265 -0.3270
 4503SOL     OW16913   2.181   5.368   6.293  0.3760 -0.6438 -0.7906
 4503SOL    HW116914   2.252   5.423   6.323 -1.2530  0.5771  0.9336
 4503SOL    HW216915   2.112   5.429   6.268 -1.4347 -1.8535  1.0997
 4504SOL     OW16916   2.149   2.838   0.330 -0.6258  0.0153  0.6376
 4504SOL    HW116917   2.161   2.930   0.353 -0.1716  0.6556 -1.9701
 4504SOL    HW216918   2.196   2.790   0.398  2.4429  1.8739 -0.0574
 4505SOL     OW16919   3.518   2.760   6.262  0.1214  0.7437 -0.0138
 4505SOL    HW116920   3.536   2.723   6.176  2.1110 -0.1200  0.7264
 4505SOL    HW216921   3.590   2.822   6.276  0.1997  0.3615  1.3153
 4506SOL     OW16922   9.679   3.432   9.106 -0.4833 -0.0177 -0.1529
 4506SOL    HW116923   9.661   3.438   9.012 -1.3251  2.4835  0.1201
 4506SOL    HW216924   9.767   3.468   9.115  0.1641 -1.6069 -0.1517
 4507SOL     OW16925   4.251   0.546   4.815  0.6362  0.7767  0.3272
 4507SOL    HW116926   4.335   0.509   4.789  0.9554  1.7183  0.0159
 4507SOL    HW216927   4.249   0.536   4.910  1.0919  0.7477  0.3345
 4508SOL     OW16928  10.481   2.236   4.367 -0.0987  0.0346  0.5582
 4508SOL    HW116929  10.414   2.199   4.310 -1.4857  0.3883  1.9276
 4508SOL    HW216930  10.454   2.326   4.383  0.9575  0.3349  0.7382
 4509SOL     OW16931   4.580   2.560   7.036 -0.0179 -0.1950  0.8036
 4509SOL    HW116932   4.642   2.614   6.988 -0.6499 -0.6908 -0.6141
 4509SOL    HW216933   4.526   2.520   6.968 -0.2581 -1.7559  1.8834
 4510SOL     OW16934   2.485   9.087   5.062 -0.2110 -0.0724 -0.4777
 4510SOL    HW116935   2.493   9.016   5.126  0.0302 -1.0515 -1.5787
 4510SOL    HW216936   2.395   9.117   5.070 -0.6702 -1.3231 -0.8450
 4511SOL     OW16937   4.734   9.445   9.437 -0.1495  0.3486 -0.0028
 4511SOL    HW116938   4.776   9.370   9.478 -1.0432 -0.7296 -1.0385
 4511SOL    HW216939   4.803   9.511   9.432  1.0417 -0.9086 -0.3992
 4512SOL     OW16940   7.244   8.674   6.472 -0.4196 -0.0468 -0.1728
 4512SOL    HW116941   7.261   8.766   6.452 -1.2936  0.6410  2.1909
 4512SOL    HW216942   7.224   8.672   6.565  0.9878 -2.8327  0.1381
 4513SOL     OW16943   3.120   0.773   1.648 -0.4432  0.5633  0.3714
 4513SOL    HW116944   3.159   0.854   1.679 -0.8627  0.9946 -0.2236
 4513SOL    HW216945   3.048   0.756   1.710  0.1664  0.2010  0.9832
 4514SOL     OW16946   3.387   4.967   9.105 -0.2715 -0.3510  0.2377
 4514SOL    HW116947   3.450   5.023   9.059 -0.0207  0.7375  1.8742
 4514SOL    HW216948   3.307   5.020   9.109 -0.3842 -0.5594  0.7759
 4515SOL     OW16949   6.958   8.332   0.646  0.0448  0.1490  0.2639
 4515SOL    HW116950   7.052   8.343   0.661  0.0767 -0.0604  0.2249
 4515SOL    HW216951   6.944   8.361   0.556  0.0473  0.3228  0.3199
 4516SOL     OW16952  10.562   8.936   6.272 -0.6720  0.1032 -0.3106
 4516SOL    HW116953  10.491   8.890   6.317  0.1113 -1.2814 -0.4739
 4516SOL    HW216954  10.622   8.867   6.244  1.7148  1.3826  1.4590
 4517SOL     OW16955   4.749   2.227   9.302  0.5827 -0.7758 -0.2382
 4517SOL    HW116956   4.741   2.132   9.299  0.6315 -0.8839  2.5594
 4517SOL    HW216957   4.660   2.258   9.319  0.4911 -0.2727 -1.5478
 4518SOL     OW16958   0.595   5.094   3.621  0.4117 -0.2712 -0.3442
 4518SOL    HW116959   0.652   5.135   3.687  0.4829  0.6754 -0.9751
 4518SOL    HW216960   0.647   5.023   3.584  0.4448 -0.6792  0.4813
 4519SOL     OW16961   5.138   9.593   3.567  0.7343  0.2224 -0.5960
 4519SOL    HW116962   5.187   9.666   3.605  2.6687 -0.6655 -1.3107
 4519SOL    HW216963   5.189   9.515   3.591 -0.6933 -0.7875 -0.7898
 4520SOL     OW16964   1.808  10.353   5.557  0.4478  0.0494  0.2566
 4520SOL    HW116965   1.775  10.425   5.611 -0.7312  0.2138 -0.6850
 4520SOL    HW216966   1.764  10.362   5.473  0.4856 -1.6149  0.0295
 4521SOL     OW16967   9.554   1.389  10.000  0.0627  0.1004 -0.2435
 4521SOL    HW116968   9.590   1.317   9.947 -2.9583 -0.1408 -2.1186
 4521SOL    HW216969   9.496   1.346  10.063 -0.2340  0.7230 -0.0837
 4522SOL     OW16970   1.436   4.419   0.956 -1.1316 -1.0745 -0.1631
 4522SOL    HW116971   1.364   4.481   0.962  0.0707  0.3406 -0.1931
 4522SOL    HW216972   1.484   4.428   1.039  0.2606 -0.4297 -1.0166
 4523SOL     OW16973   5.801   2.082   8.830  0.7656  0.7583 -0.5973
 4523SOL    HW116974   5.796   2.041   8.744  0.1760 -1.3979  0.4046
 4523SOL    HW216975   5.718   2.058   8.872  0.9992  1.8733  0.5240
 4524SOL     OW16976   2.908   7.618   3.211 -0.3164 -0.0546  0.0704
 4524SOL    HW116977   2.930   7.709   3.189 -2.1954 -0.0429 -2.0037
 4524SOL    HW216978   2.951   7.566   3.143 -1.5238 -0.4719 -0.3982
 4525SOL     OW16979   4.307   8.149   3.982  0.5970  0.2812 -0.2955
 4525SOL    HW116980   4.246   8.106   4.042  0.7201  0.4043 -0.0797
 4525SOL    HW216981   4.313   8.239   4.014 -1.0624  0.9735 -1.8261
 4526SOL     OW16982   7.100  10.642   7.242  0.0409  0.5632 -0.1069
 4526SOL    HW116983   7.143  10.726   7.228 -1.6072  1.6021  0.8329
 4526SOL    HW216984   7.116  10.622   7.334  0.2104 -0.0158 -0.2625
 4527SOL     OW16985   7.553   2.099   1.287  0.3795 -0.6188 -0.4046
 4527SOL    HW116986   7.646   2.084   1.302 -0.1862 -0.7828  3.4305
 4527SOL    HW216987   7.546   2.194   1.274  1.0419 -0.5619 -0.3452
 4528SOL     OW16988   6.646   8.261  10.127 -0.3479 -0.7842 -0.2948
 4528SOL    HW116989   6.658   8.260  10.222 -0.9269  0.2504 -0.1982
 4528SOL    HW216990   6.587   8.335  10.111  1.3792  0.3512 -1.6521
 4529SOL     OW16991   2.558   5.616   8.352  0.5561  0.2902 -0.2439
 4529SOL    HW116992   2.598   5.620   8.265 -0.1003 -0.6072 -0.5867
 4529SOL    HW216993   2.605   5.545   8.396 -0.2905 -0.4105 -0.4654
 4530SOL     OW16994   2.795   0.239   2.806 -0.8400  0.2060 -0.2035
 4530SOL    HW116995   2.717   0.274   2.850  0.6020  2.1065  0.9273
 4530SOL    HW216996   2.833   0.315   2.761  2.0955  0.0477  1.8754
 4531SOL     OW16997  10.937   5.482   7.535 -0.2630 -0.2439  0.2650
 4531SOL    HW116998  10.987   5.462   7.614 -0.1686  1.8415  0.7708
 4531SOL    HW216999  10.848   5.498   7.567 -0.0706  1.3313  0.0860
 4532SOL     OW17000   9.335   4.034   6.699 -0.0125  0.1053 -0.4634
 4532SOL    HW117001   9.362   3.945   6.723  0.0041  0.2103 -0.0763
 4532SOL    HW217002   9.357   4.042   6.606  2.7275  0.7000  0.1706
 4533SOL     OW17003   1.390   4.726   0.427  0.0730 -0.7151  0.2492
 4533SOL    HW117004   1.329   4.759   0.361 -1.0841 -0.6630  1.3233
 4533SOL    HW217005   1.465   4.695   0.377 -1.7638 -2.8760 -1.2759
 4534SOL     OW17006   9.246   2.201   3.675  0.0001 -0.6515  0.3597
 4534SOL    HW117007   9.265   2.109   3.658  0.2016 -0.4805 -0.3440
 4534SOL    HW217008   9.196   2.201   3.757 -2.9922 -1.6763 -1.4167
 4535SOL     OW17009  10.757   6.671   7.738 -0.1377  0.5491  0.0258
 4535SOL    HW117010  10.803   6.754   7.726 -0.8450  0.9238 -0.1140
 4535SOL    HW217011  10.681   6.693   7.792  0.2994 -0.2189  0.9797
 4536SOL     OW17012   4.313   3.210   3.705  0.6196  0.2197  0.0690
 4536SOL    HW117013   4.274   3.192   3.619  0.2688  0.6375  0.1391
 4536SOL    HW217014   4.405   3.187   3.694  0.2124 -1.5038  0.1194
 4537SOL     OW17015   5.783   2.802   9.946 -0.3022  0.2334  0.7714
 4537SOL    HW117016   5.688   2.786   9.946 -0.5245  1.4379 -0.7216
 4537SOL    HW217017   5.807   2.799  10.038 -1.5646 -1.3621  1.0823
 4538SOL     OW17018   7.571   6.927   4.017  0.1915 -0.3572 -0.0671
 4538SOL    HW117019   7.575   6.908   3.923  2.0037 -0.6900  0.0527
 4538SOL    HW217020   7.616   6.853   4.058 -0.8159 -0.3434  1.0855
 4539SOL     OW17021   4.272   0.544  10.417  0.2570  0.2201 -0.1585
 4539SOL    HW117022   4.270   0.532  10.512  1.4817  0.5271 -0.0966
 4539SOL    HW217023   4.277   0.639  10.405 -1.2417  0.2742 -0.5641
 4540SOL     OW17024   2.225   4.175  10.280 -0.1854 -0.3602  0.1317
 4540SOL    HW117025   2.213   4.261  10.320  1.0644 -0.1823  0.1367
 4540SOL    HW217026   2.274   4.125  10.345  2.8640  0.2852 -1.5895
 4541SOL     OW17027   0.333   5.082   6.551  0.0227  0.1915  0.0749
 4541SOL    HW117028   0.238   5.089   6.556 -0.0991 -0.9827 -0.4371
 4541SOL    HW217029   0.354   5.111   6.462 -0.0846 -1.7612 -0.6020
 4542SOL     OW17030   1.645   4.068   9.099 -0.1379 -0.4834 -0.0598
 4542SOL    HW117031   1.700   4.115   9.036 -0.3832 -1.1339 -0.7728
 4542SOL    HW217032   1.707   4.020   9.154  0.0817  0.1373  0.2420
 4543SOL     OW17033   7.912   1.999   9.430  0.6513  0.1333 -0.2035
 4543SOL    HW117034   7.878   1.958   9.351  0.7823 -0.4830  0.0578
 4543SOL    HW217035   7.934   2.088   9.403  0.2143  0.0826 -0.7330
 4544SOL     OW17036   9.986  10.364   6.230 -0.0728  0.1351  0.1522
 4544SOL    HW117037  10.034  10.326   6.303 -0.0793  0.1590  0.1693
 4544SOL    HW217038   9.934  10.435   6.269 -0.4910 -0.1989  0.2126
 4545SOL     OW17039   3.803   5.904   3.927  0.1774  0.1798  0.1168
 4545SOL    HW117040   3.728   5.922   3.984  0.8573  1.1751  0.7146
 4545SOL    HW217041   3.872   5.874   3.986 -0.1654 -2.1096 -0.5988
 4546SOL     OW17042   4.983   7.596   8.750 -0.6005 -0.0384  0.5272
 4546SOL    HW117043   5.036   7.517   8.741 -0.0071  0.2142  1.6700
 4546SOL    HW217044   5.041   7.660   8.789 -0.7629  1.3396 -1.4326
 4547SOL     OW17045   5.365   5.106  10.616  0.6724  0.1789 -0.3473
 4547SOL    HW117046   5.285   5.062  10.586  1.6346 -0.1048 -2.6191
 4547SOL    HW217047   5.434   5.072  10.559  2.3438  0.7901  1.2517
 4548SOL     OW17048   1.597   5.917  10.840 -0.3123 -0.1538 -0.3000
 4548SOL    HW117049   1.503   5.907  10.853 -0.6158 -1.2480 -2.9784
 4548SOL    HW217050   1.634   5.833  10.865 -0.1372 -0.0009 -0.0417
 4549SOL     OW17051   4.537   4.901   2.026  0.7966  0.0237  0.4995
 4549SOL    HW117052   4.617   4.945   1.997  1.6172 -1.3763  0.5824
 4549SOL    HW217053   4.568   4.834   2.088 -0.4154 -0.6336  0.4095
 4550SOL     OW17054   7.933   6.538   9.611  0.1287  0.0600  0.1895
 4550SOL    HW117055   7.924   6.631   9.590 -0.2849  0.0340  0.2476
 4550SOL    HW217056   7.955   6.496   9.528 -0.2201  0.1360  0.0575
 4551SOL     OW17057   3.898   7.050   1.082 -0.2907 -0.2938  0.0892
 4551SOL    HW117058   3.870   7.032   1.172 -2.6397 -1.9571 -0.9044
 4551SOL    HW217059   3.989   7.022   1.078 -0.6303 -1.6645  1.5720
 4552SOL     OW17060   6.314   2.994   9.450 -0.2105  0.1605  0.3765
 4552SOL    HW117061   6.250   3.060   9.473 -1.2607 -0.6248 -0.2575
 4552SOL    HW217062   6.265   2.929   9.399  1.3329  0.1478 -1.1160
 4553SOL     OW17063   8.584   3.929  10.370  0.5240  1.0160  0.0028
 4553SOL    HW117064   8.583   3.895  10.459 -0.0765 -0.1923 -0.4376
 4553SOL    HW217065   8.584   3.850  10.315  1.0310  1.7431 -1.0580
 4554SOL     OW17066   2.954   8.600   7.349 -0.8198  0.1214  0.3870
 4554SOL    HW117067   2.870   8.568   7.318 -0.9664  0.5336  0.3573
 4554SOL    HW217068   2.933   8.654   7.425 -0.5827  0.2207  0.3834
 4555SOL     OW17069   0.963   0.292   7.751  0.8557 -0.1227  0.0250
 4555SOL    HW117070   0.871   0.267   7.759  0.8690 -0.5208 -0.9465
 4555SOL    HW217071   1.005   0.250   7.826  0.7794 -2.6766 -1.2786
 4556SOL     OW17072  10.805   8.306   1.868  0.4079  0.2404  0.9438
 4556SOL    HW117073  10.826   8.314   1.775  0.0886  1.5975  0.9699
 4556SOL    HW217074  10.714   8.338   1.874  0.4890  0.3283  1.7383
 4557SOL     OW17075   3.776   1.040  10.018  0.3121  0.0189  0.0810
 4557SOL    HW117076   3.726   1.042  10.100  1.1017 -1.3456  0.6116
 4557SOL    HW217077   3.868   1.041  10.046  0.5851 -0.0626 -0.7974
 4558SOL     OW17078   4.541   9.810   2.557 -0.6877 -0.1672 -0.0661
 4558SOL    HW117079   4.584   9.728   2.582 -1.0747 -0.4391 -0.2929
 4558SOL    HW217080   4.472   9.821   2.621 -0.2747  0.2774  0.3026
 4559SOL     OW17081   2.001   1.399   4.871 -0.5563 -0.6306 -0.2637
 4559SOL    HW117082   1.937   1.424   4.805  0.2681 -0.4419 -1.0004
 4559SOL    HW217083   2.013   1.305   4.858 -1.2877 -0.8270  0.4182
 4560SOL     OW17084   0.595   0.191   2.186 -0.0160  0.3868 -0.0855
 4560SOL    HW117085   0.585   0.134   2.262 -1.0596 -0.0333 -0.5272
 4560SOL    HW217086   0.601   0.132   2.112  2.9700  0.7200 -0.1733
 4561SOL     OW17087   6.787  10.000   9.764 -0.0707  0.0067  0.1965
 4561SOL    HW117088   6.743   9.953   9.835 -1.3046  1.7933  0.6329
 4561SOL    HW217089   6.741   9.972   9.684  0.5945 -1.1368  0.1930
 4562SOL     OW17090   5.895   9.828   7.937  0.1947  0.3675  0.5168
 4562SOL    HW117091   5.962   9.841   7.870  1.1750  1.8700  1.7627
 4562SOL    HW217092   5.892   9.910   7.985 -2.8554  0.4548  0.2463
 4563SOL     OW17093   6.522   3.106   4.641  0.1233 -0.3492 -0.0156
 4563SOL    HW117094   6.450   3.112   4.578 -0.7315  3.4817  1.1552
 4563SOL    HW217095   6.601   3.106   4.588 -0.6395  0.4405 -1.1650
 4564SOL     OW17096   0.995   4.880   5.864  0.1021 -0.2550  0.0555
 4564SOL    HW117097   0.975   4.914   5.951  0.6861  1.5750 -0.4979
 4564SOL    HW217098   1.090   4.893   5.854  0.3315 -1.9346 -0.2510
 4565SOL     OW17099   4.782  10.890   5.108 -0.3992  0.0375  0.6589
 4565SOL    HW117100   4.850  10.924   5.166 -0.4707  1.7952 -0.2549
 4565SOL    HW217101   4.826  10.821   5.058  0.3400  0.2210  1.0487
 4566SOL     OW17102  10.389   8.986   9.595  0.3329  0.1125  0.1769
 4566SOL    HW117103  10.399   9.056   9.530 -0.1739  0.6397  0.6725
 4566SOL    HW217104  10.363   8.909   9.543  2.0009 -0.0162 -0.5125
 4567SOL     OW17105   4.655   5.104   9.064  0.3268  0.7020  0.3645
 4567SOL    HW117106   4.673   5.102   8.970  0.6315  1.2889  0.4120
 4567SOL    HW217107   4.589   5.036   9.077  2.1619 -1.1690  0.1140
 4568SOL     OW17108   0.641   4.009   1.917  0.0147 -0.3113 -0.4245
 4568SOL    HW117109   0.668   4.082   1.973  0.3945 -1.0627  0.3881
 4568SOL    HW217110   0.587   3.954   1.974  0.0888 -0.8933 -0.9107
 4569SOL     OW17111   2.432   1.365   9.849 -0.4957  0.0935 -0.5365
 4569SOL    HW117112   2.415   1.271   9.845  0.4765 -0.0381 -1.9291
 4569SOL    HW217113   2.526   1.373   9.835 -0.2465  1.1526  1.6803
 4570SOL     OW17114   6.053   3.778   1.218  0.0896 -0.2447 -0.5151
 4570SOL    HW117115   6.088   3.690   1.229  1.0543 -0.0323 -1.7448
 4570SOL    HW217116   6.074   3.801   1.127  0.5172  1.5508  0.0164
 4571SOL     OW17117   3.343   8.298   8.515 -0.2002 -0.1896 -0.0393
 4571SOL    HW117118   3.305   8.214   8.541  0.5471 -0.5443 -0.0670
 4571SOL    HW217119   3.268   8.354   8.496 -0.6933 -1.0986 -0.7829
 4572SOL     OW17120   7.951   8.509  10.703  0.1269 -0.2404 -0.2541
 4572SOL    HW117121   7.951   8.414  10.718 -2.4292 -0.3646 -0.9438
 4572SOL    HW217122   8.006   8.544  10.774  0.9625 -2.2008  0.1005
 4573SOL     OW17123   5.848   2.167   7.034  0.3152  0.7558  0.0545
 4573SOL    HW117124   5.857   2.074   7.058 -1.4775  0.8228  1.0705
 4573SOL    HW217125   5.889   2.173   6.948  3.4803 -0.2726  1.3997
 4574SOL     OW17126   1.289   9.301   9.880 -0.4304  0.1213 -0.9653
 4574SOL    HW117127   1.198   9.308   9.908 -0.4146 -2.4198 -0.0869
 4574SOL    HW217128   1.288   9.231   9.814  0.6605  1.0806 -2.0192
 4575SOL     OW17129   8.133   4.848   2.345 -0.3255  0.7485  0.3291
 4575SOL    HW117130   8.099   4.768   2.385  0.9604  0.5471  1.0351
 4575SOL    HW217131   8.225   4.829   2.327 -0.1905  1.8217 -0.1668
 4576SOL     OW17132   0.532   4.995  10.096  0.1947  0.1893  0.4386
 4576SOL    HW117133   0.452   4.944  10.085 -0.8553  1.8304  0.2142
 4576SOL    HW217134   0.554   5.026  10.008  0.3313  0.8017  0.6805
 4577SOL     OW17135   1.425   4.285   9.081 -0.1725  0.2387  0.3204
 4577SOL    HW117136   1.484   4.210   9.086 -0.0740  0.4003  2.2315
 4577SOL    HW217137   1.338   4.248   9.096 -0.1431  0.4570  1.0816
 4578SOL     OW17138   5.980   3.566   8.732 -0.4529 -0.2631  0.3100
 4578SOL    HW117139   6.067   3.598   8.756  0.1830 -0.4902 -1.5716
 4578SOL    HW217140   5.964   3.492   8.791  1.0881 -0.8817 -0.0321
 4579SOL     OW17141   5.498   3.477   3.054 -0.3106  0.0440 -0.1895
 4579SOL    HW117142   5.472   3.501   3.143 -1.0868  0.6216 -0.5698
 4579SOL    HW217143   5.587   3.443   3.064  0.4755  2.2300  0.4954
 4580SOL     OW17144   3.436   8.945   2.459  0.2267 -0.2684 -0.1172
 4580SOL    HW117145   3.409   8.868   2.510 -0.7796 -0.6505 -1.1960
 4580SOL    HW217146   3.373   9.012   2.483 -0.2851 -0.4666 -0.8761
 4581SOL     OW17147   5.306  10.155   1.192  0.6867 -0.0660  0.2453
 4581SOL    HW117148   5.279  10.241   1.161 -2.3078 -0.2031  2.1448
 4581SOL    HW217149   5.331  10.107   1.114  1.5321  2.2428 -0.9300
 4582SOL     OW17150   3.296   8.389   5.694 -0.0440 -0.0584  0.3103
 4582SOL    HW117151   3.372   8.335   5.716  0.0765  0.4909  1.2507
 4582SOL    HW217152   3.326   8.443   5.620 -0.4418 -1.8777 -1.2133
 4583SOL     OW17153  10.146   9.717   7.379  0.8888  0.5820  0.2419
 4583SOL    HW117154  10.230   9.729   7.334  1.4476 -0.3525  1.0427
 4583SOL    HW217155  10.099   9.654   7.325  1.1616  0.2247  0.4223
 4584SOL     OW17156   8.555   3.905   9.839 -0.2616 -0.6085 -0.2749
 4584SOL    HW117157   8.592   3.991   9.821 -1.1020 -0.4677 -1.4538
 4584SOL    HW217158   8.531   3.871   9.752 -1.4854 -1.3045  0.3237
 4585SOL     OW17159   3.254   7.324   9.294 -0.2598 -0.5721  0.1699
 4585SOL    HW117160   3.312   7.349   9.223 -0.3248 -0.6505  0.0889
 4585SOL    HW217161   3.311   7.319   9.371 -0.2582 -0.1248  0.1979
 4586SOL     OW17162   1.811   7.107   2.414 -0.0829  0.5269  0.2173
 4586SOL    HW117163   1.764   7.154   2.345  0.6244  0.3618 -0.3902
 4586SOL    HW217164   1.903   7.119   2.392  0.1060 -1.2334  0.0025
 4587SOL     OW17165   4.594   4.993   7.283  0.6535  0.3750  0.2613
 4587SOL    HW117166   4.612   4.899   7.282 -1.2404 -0.0272  1.5302
 4587SOL    HW217167   4.666   5.031   7.234  2.8688 -1.4883  1.9185
 4588SOL     OW17168   2.778   6.581   2.912  0.2063  0.8854 -0.1954
 4588SOL    HW117169   2.695   6.547   2.878  0.7488 -0.9587  0.2462
 4588SOL    HW217170   2.841   6.511   2.894  1.5396  2.0368 -0.0120
 4589SOL     OW17171   4.821   9.566   3.708 -0.0203  0.7675  0.2630
 4589SOL    HW117172   4.769   9.578   3.629 -1.0842 -1.5327  0.5599
 4589SOL    HW217173   4.896   9.514   3.680 -0.8285 -0.7750  0.8917
 4590SOL     OW17174   0.657   9.145   9.821 -0.1249 -0.1242 -0.1396
 4590SOL    HW117175   0.618   9.129   9.907 -2.3518 -0.3940 -1.1592
 4590SOL    HW217176   0.699   9.062   9.798  0.0257 -0.2166  0.4494
 4591SOL     OW17177  10.073   6.689   4.182 -0.0581 -0.1749  0.1801
 4591SOL    HW117178  10.082   6.635   4.261 -1.1203  0.9076  1.0619
 4591SOL    HW217179  10.061   6.778   4.215  1.6511  0.6097 -1.2712
 4592SOL     OW17180   3.266   4.360   5.157 -0.2146 -0.0360  0.1304
 4592SOL    HW117181   3.204   4.409   5.103 -2.0126 -0.1117  2.0597
 4592SOL    HW217182   3.350   4.403   5.142 -1.2558  1.8952 -0.3377
 4593SOL     OW17183   8.931   5.052   8.014 -0.2646  0.1706  0.0822
 4593SOL    HW117184   9.006   5.109   8.027 -0.7051  0.0838  3.2994
 4593SOL    HW217185   8.967   4.963   8.015 -0.2004  0.1908 -0.2029
 4594SOL     OW17186   0.712   9.097   7.035  0.3988  0.3015  0.2691
 4594SOL    HW117187   0.619   9.086   7.052  0.2053  1.7998  0.2747
 4594SOL    HW217188   0.754   9.021   7.077 -0.4837  1.4953  3.4413
 4595SOL     OW17189  10.920   4.678   0.935  0.2603 -0.3312  0.4491
 4595SOL    HW117190  10.858   4.644   1.000 -1.5624  0.6015 -0.7594
 4595SOL    HW217191  10.939   4.767   0.965 -0.1923 -0.0771 -0.0136
 4596SOL     OW17192   3.816   4.266   8.084  0.1365  0.2398 -0.2972
 4596SOL    HW117193   3.797   4.203   8.015 -0.5807 -0.1368  0.2350
 4596SOL    HW217194   3.730   4.291   8.118  0.4932  0.2105  0.6355
 4597SOL     OW17195   7.907   3.614   0.206  0.3367  0.2670 -0.0880
 4597SOL    HW117196   7.981   3.555   0.222  0.1883 -0.2529 -1.2065
 4597SOL    HW217197   7.946   3.688   0.159  0.7483  1.7105  2.4625
 4598SOL     OW17198   5.551   9.992   4.527  0.0918  0.6621  0.2028
 4598SOL    HW117199   5.464  10.008   4.563 -0.8356  1.7106 -2.3833
 4598SOL    HW217200   5.587   9.922   4.581 -2.0494  0.7275  1.7859
 4599SOL     OW17201   5.587   3.741   8.797 -0.2693  0.0845  0.8678
 4599SOL    HW117202   5.608   3.652   8.825 -1.9380 -0.5702  0.0846
 4599SOL    HW217203   5.610   3.795   8.872 -0.0553 -1.1001  1.6808
 4600SOL     OW17204   4.914   1.584  10.930  0.1368 -0.2252  0.2532
 4600SOL    HW117205   5.006   1.574  10.953  0.2977 -0.9001 -0.6554
 4600SOL    HW217206   4.883   1.656  10.985  1.5576  0.9574 -0.4642
 4601SOL     OW17207   5.048   6.182   4.493  0.0424  0.4969  0.2909
 4601SOL    HW117208   5.077   6.125   4.565  0.2084  1.9232  1.3797
 4601SOL    HW217209   4.981   6.132   4.448 -2.0250  0.6033  3.0989
 4602SOL     OW17210   4.501   2.602   8.649  0.2609  0.2791  0.2001
 4602SOL    HW117211   4.537   2.521   8.684 -1.1757 -0.0315  1.0127
 4602SOL    HW217212   4.477   2.582   8.559 -0.3803 -0.2847  0.5000
 4603SOL     OW17213   1.584   5.647   9.593  0.2090 -0.1157  0.1902
 4603SOL    HW117214   1.532   5.694   9.658 -0.6067  2.6137 -2.3198
 4603SOL    HW217215   1.621   5.572   9.641  0.4443  2.3066  3.9809
 4604SOL     OW17216   7.218   3.770   4.669 -0.5533  0.3265 -0.2921
 4604SOL    HW117217   7.248   3.683   4.643 -2.4227 -0.7152  0.9241
 4604SOL    HW217218   7.151   3.793   4.605 -2.5790 -0.6888  1.3909
 4605SOL     OW17219   2.642   5.193   9.353 -0.0724  0.1002  0.1670
 4605SOL    HW117220   2.638   5.266   9.291 -0.2760  1.1281  1.3834
 4605SOL    HW217221   2.555   5.189   9.392  0.1737 -0.2985  0.6873
 4606SOL     OW17222   4.296   2.987   6.367 -0.4391  0.8973  0.3085
 4606SOL    HW117223   4.378   3.014   6.328 -0.3573 -0.4848 -0.4948
 4606SOL    HW217224   4.260   3.067   6.406  1.3415  1.4710  0.7972
 4607SOL     OW17225   6.538   4.200   8.964  0.2743 -0.3142 -0.2258
 4607SOL    HW117226   6.557   4.125   9.020 -0.8393  1.0821  2.1141
 4607SOL    HW217227   6.610   4.261   8.979 -0.4435  0.4138  0.3576
 4608SOL     OW17228   3.141   0.596   2.394  0.1245 -0.5940 -0.5070
 4608SOL    HW117229   3.143   0.691   2.385 -0.4398 -0.5021  0.2818
 4608SOL    HW217230   3.226   0.567   2.359  0.5455  0.2390 -0.1990
 4609SOL     OW17231   6.594   7.655   4.934 -0.4468 -0.0662 -0.3007
 4609SOL    HW117232   6.669   7.705   4.967  0.3616 -1.5605  0.1831
 4609SOL    HW217233   6.559   7.708   4.862 -0.0306  1.5054  0.6351
 4610SOL     OW17234   7.401   1.386   1.074  0.4216  0.3262 -0.3277
 4610SOL    HW117235   7.368   1.463   1.120  1.6163 -0.9340  2.7162
 4610SOL    HW217236   7.328   1.359   1.018 -0.9062  2.1592  0.4551
 4611SOL     OW17237   2.193   3.097   3.022 -0.5100  0.2355 -0.1569
 4611SOL    HW117238   2.176   3.101   2.928  0.2008  1.4151 -0.2526
 4611SOL    HW217239   2.107   3.110   3.062 -0.4636  2.2082 -0.6483
 4612SOL     OW17240   5.257  10.176   4.746 -0.6281  0.4599  0.8248
 4612SOL    HW117241   5.319  10.137   4.808  0.1182 -1.8558 -1.3124
 4612SOL    HW217242   5.204  10.235   4.800  1.2505 -0.0225  3.3070
 4613SOL     OW17243   7.973   3.587   9.473  0.2811  0.2180 -0.3238
 4613SOL    HW117244   7.881   3.563   9.482  0.6283 -0.7811  0.5679
 4613SOL    HW217245   7.975   3.680   9.495 -0.4928  0.2224 -0.2353
 4614SOL     OW17246   6.491   6.249   6.590  0.0785  0.5145  0.2196
 4614SOL    HW117247   6.509   6.212   6.677  2.3533  0.1718 -0.3787
 4614SOL    HW217248   6.465   6.339   6.607  0.0973  0.3292  1.2757
 4615SOL     OW17249   1.808   8.147   3.840  0.0723 -0.0145  0.4213
 4615SOL    HW117250   1.870   8.144   3.913 -0.0867  0.5969  0.5856
 4615SOL    HW217251   1.723   8.130   3.880  0.4042 -3.2709 -0.1612
 4616SOL     OW17252   2.465   5.151   0.486 -0.4068 -0.2918 -0.1405
 4616SOL    HW117253   2.462   5.164   0.391  1.8013 -0.5841 -0.2892
 4616SOL    HW217254   2.553   5.116   0.503  0.0541  1.8204  2.2399
 4617SOL     OW17255   8.522   5.787   9.510  0.2136 -0.1712 -0.5441
 4617SOL    HW117256   8.522   5.692   9.501 -3.4923 -0.1945 -0.9791
 4617SOL    HW217257   8.603   5.815   9.467  1.4542 -3.1011 -0.2463
 4618SOL     OW17258   7.212   2.591   9.282  0.1072 -0.4093 -0.1609
 4618SOL    HW117259   7.186   2.620   9.194  0.9360 -2.1748 -1.0032
 4618SOL    HW217260   7.234   2.499   9.272 -0.5257 -0.8339  2.0776
 4619SOL     OW17261   3.764  10.466   2.509 -0.3148  0.2937  0.1760
 4619SOL    HW117262   3.747  10.450   2.602 -0.1621  0.8910  0.3092
 4619SOL    HW217263   3.690  10.519   2.480  0.1798  1.0124  0.2175
 4620SOL     OW17264   0.349   7.552   0.603 -0.7967  0.2168  0.4915
 4620SOL    HW117265   0.308   7.492   0.540 -0.7315  0.2899  0.3799
 4620SOL    HW217266   0.342   7.506   0.687  2.2439 -1.4807 -0.0893
 4621SOL     OW17267   6.338  10.009   0.600 -0.3207  0.3967  0.5511
 4621SOL    HW117268   6.338   9.952   0.677 -1.3869  2.5139  2.1670
 4621SOL    HW217269   6.352   9.949   0.527 -0.2314 -1.7970  2.2912
 4622SOL     OW17270   3.643   3.907   1.410 -0.1984 -0.3108 -0.7341
 4622SOL    HW117271   3.621   3.961   1.486 -0.7147  1.6125 -2.1880
 4622SOL    HW217272   3.585   3.831   1.416  0.7302 -0.8750  1.5114
 4623SOL     OW17273   6.064   6.182   6.734 -0.6838 -0.6858 -0.6156
 4623SOL    HW117274   6.129   6.111   6.735 -1.0553 -1.0240  1.0119
 4623SOL    HW217275   5.984   6.141   6.766 -0.9214  0.4472  0.2701
 4624SOL     OW17276  10.730   5.799   2.938  0.1876  0.5035  0.0778
 4624SOL    HW117277  10.674   5.811   2.862  0.6697  0.7184 -0.2463
 4624SOL    HW217278  10.683   5.844   3.009 -1.0242 -1.0613  0.2800
 4625SOL     OW17279   9.518   1.102  10.111 -0.0051  0.5879  0.2228
 4625SOL    HW117280   9.480   1.116  10.198 -0.6962  2.3334 -0.3353
 4625SOL    HW217281   9.478   1.020  10.081 -1.2542  0.9720  0.7756
 4626SOL     OW17282   6.521   2.892  10.709 -0.2440 -0.5402 -0.7352
 4626SOL    HW117283   6.540   2.922  10.798  1.1200 -3.3207 -0.0349
 4626SOL    HW217284   6.510   2.972  10.659 -1.6604  1.1020  2.0618
 4627SOL     OW17285   8.573   0.975   0.547 -0.2696  0.1676 -0.4653
 4627SOL    HW117286   8.507   0.940   0.486 -0.5458  0.4143 -0.3099
 4627SOL    HW217287   8.651   0.923   0.529 -0.4592 -0.0211 -0.7655
 4628SOL     OW17288   9.214   9.963   2.452 -0.5550 -0.6631  0.1756
 4628SOL    HW117289   9.266   9.968   2.532  0.2675  1.7391 -0.4751
 4628SOL    HW217290   9.129  10.001   2.475 -0.3700 -0.1104 -0.0467
 4629SOL     OW17291   2.126   8.890   8.786  0.5282  0.2083  0.8794
 4629SOL    HW117292   2.106   8.908   8.694  1.1022 -0.1970  0.6717
 4629SOL    HW217293   2.140   8.796   8.789 -0.0410  0.1343  1.4950
 4630SOL     OW17294   3.936   6.883   8.386 -0.3730  0.2900 -0.0247
 4630SOL    HW117295   3.887   6.801   8.378  0.1862  0.0030 -0.4980
 4630SOL    HW217296   4.006   6.864   8.448  0.0360  0.2815 -0.4933
 4631SOL     OW17297   7.362   4.653   8.410  0.3721  0.4205 -0.3906
 4631SOL    HW117298   7.403   4.698   8.484  0.4250 -0.9672  0.4576
 4631SOL    HW217299   7.269   4.651   8.432  0.6956 -2.4100  1.0399
 4632SOL     OW17300   6.006   4.822   0.544 -0.6132  0.3209  0.3228
 4632SOL    HW117301   5.999   4.898   0.602 -0.5894  0.9386 -0.4793
 4632SOL    HW217302   6.053   4.854   0.468  1.2860 -1.0538  0.8952
 4633SOL     OW17303   6.136   3.151   0.260 -0.0471  0.1782 -0.3703
 4633SOL    HW117304   6.153   3.083   0.195 -0.7698  0.6963 -1.1027
 4633SOL    HW217305   6.222   3.169   0.298  0.2102 -0.8528 -0.4633
 4634SOL     OW17306   1.362   1.876   0.405  0.2010 -0.0214  0.3391
 4634SOL    HW117307   1.271   1.898   0.423 -0.2204 -2.4563  1.4127
 4634SOL    HW217308   1.403   1.959   0.380 -2.6564  0.8440 -1.6943
 4635SOL     OW17309   5.261   0.445   1.915 -0.2929  0.1683 -0.2144
 4635SOL    HW117310   5.232   0.380   1.978 -0.3265  0.6571  0.2742
 4635SOL    HW217311   5.300   0.394   1.844 -1.9504 -0.4727 -0.6798
 4636SOL     OW17312   9.687  10.658   4.188 -0.2689 -0.2065  0.1599
 4636SOL    HW117313   9.734  10.575   4.198  0.1258  0.1951  1.8428
 4636SOL    HW217314   9.596  10.633   4.178 -0.3045 -0.8382  1.7832
 4637SOL     OW17315   4.058   3.637   1.023 -0.1693  0.5746  0.1897
 4637SOL    HW117316   4.055   3.585   0.942  1.0441 -0.0958  0.5605
 4637SOL    HW217317   4.006   3.588   1.085  0.6999 -0.0319  0.4423
 4638SOL     OW17318   0.816   5.228   4.543 -0.2560  0.1606 -0.4798
 4638SOL    HW117319   0.899   5.204   4.585  0.8206  1.4917 -1.8390
 4638SOL    HW217320   0.764   5.266   4.614  1.4163  2.0717 -0.2474
 4639SOL     OW17321   4.877  10.528   1.197  0.7266  0.2022 -0.7905
 4639SOL    HW117322   4.873  10.527   1.102  0.4851 -0.1020 -0.7760
 4639SOL    HW217323   4.914  10.443   1.220 -2.4364 -1.1137 -0.4459
 4640SOL     OW17324   1.960   8.489   3.689  0.6151 -1.1821 -0.1676
 4640SOL    HW117325   2.016   8.563   3.668 -0.8270 -0.4886 -1.7689
 4640SOL    HW217326   1.962   8.482   3.785  1.1015  0.6418 -0.0432
 4641SOL     OW17327   9.508   3.423   1.442 -0.6123  0.1434  0.4989
 4641SOL    HW117328   9.462   3.415   1.525 -0.7997 -0.6622  0.3263
 4641SOL    HW217329   9.441   3.404   1.376 -0.2579 -0.0929  0.2029
 4642SOL     OW17330   9.744   4.394   1.238  0.3828  0.2084  0.3448
 4642SOL    HW117331   9.830   4.366   1.268 -0.3373 -2.0650  0.3606
 4642SOL    HW217332   9.683   4.335   1.282 -0.9960 -0.1605 -1.9863
 4643SOL     OW17333   4.351   0.777   9.838  0.1875  0.0350 -0.0148
 4643SOL    HW117334   4.380   0.712   9.774  0.5895  0.9640 -0.7895
 4643SOL    HW217335   4.398   0.857   9.814 -1.4296  1.0080  0.0094
 4644SOL     OW17336   1.223  10.191   5.013 -0.3402 -0.1695  0.4287
 4644SOL    HW117337   1.153  10.222   5.071 -0.5243  1.9009 -0.8386
 4644SOL    HW217338   1.202  10.228   4.928  2.4799  0.8190  0.1004
 4645SOL     OW17339   8.638   3.253  10.463 -0.0350  0.0135 -0.2729
 4645SOL    HW117340   8.546   3.229  10.474  0.2015  0.4905  3.2049
 4645SOL    HW217341   8.686   3.182  10.505  1.0806  1.0676  0.2475
 4646SOL     OW17342   8.977  10.064   7.769 -0.8198 -0.0949  0.1768
 4646SOL    HW117343   8.993  10.143   7.716  0.7207 -0.1583  0.5091
 4646SOL    HW217344   9.062  10.019   7.769 -1.7540 -1.8484 -0.1777
 4647SOL     OW17345   1.641   3.495   1.747  0.0204  0.0190 -0.0551
 4647SOL    HW117346   1.694   3.415   1.752  1.4703  1.0106  0.4246
 4647SOL    HW217347   1.661   3.543   1.827 -1.8509  0.2771  0.2917
 4648SOL     OW17348   8.897  10.640   3.444 -0.4542  0.2951 -0.9648
 4648SOL    HW117349   8.858  10.557   3.415  0.7308 -0.7645  0.3624
 4648SOL    HW217350   8.871  10.648   3.535  3.4211 -1.1517  0.3900
 4649SOL     OW17351   0.087   7.882   4.154  0.0117 -0.2095 -0.4375
 4649SOL    HW117352   0.092   7.851   4.245  1.0522 -1.6371 -0.9713
 4649SOL    HW217353  -0.001   7.857   4.126 -0.0385 -0.4671 -0.0665
 4650SOL     OW17354   1.855   1.372   5.122 -0.0615 -0.0821  0.7306
 4650SOL    HW117355   1.826   1.445   5.177  0.9393  0.5590  0.4292
 4650SOL    HW217356   1.894   1.414   5.046  0.3022 -0.9465  0.4387
 4651SOL     OW17357   3.620   7.079   0.063  0.4196 -0.1791  0.3583
 4651SOL    HW117358   3.677   7.020   0.113 -1.7203 -1.3588  1.4429
 4651SOL    HW217359   3.587   7.141   0.127  0.1440  0.2405 -0.1862
 4652SOL     OW17360   3.947   7.573   5.653 -0.1447 -0.0668  0.1268
 4652SOL    HW117361   3.972   7.602   5.565  1.1019  0.7825  0.7463
 4652SOL    HW217362   3.973   7.481   5.655  0.5424  0.1097 -0.1437
 4653SOL     OW17363   3.665   0.357  10.159  0.2578  0.0982 -0.7517
 4653SOL    HW117364   3.588   0.409  10.135  0.4579  1.2405  1.0016
 4653SOL    HW217365   3.738   0.419  10.152  1.0058 -0.9362 -2.2540
 4654SOL     OW17366   7.200   0.742   6.501  0.3813 -0.5522 -0.5728
 4654SOL    HW117367   7.279   0.789   6.526  0.2292 -0.5391 -0.1143
 4654SOL    HW217368   7.231   0.662   6.459  0.6668  0.9112 -3.2555
 4655SOL     OW17369   7.116  10.565   3.879 -0.1844 -0.0588  0.2795
 4655SOL    HW117370   7.063  10.589   3.955 -0.3713  0.6059 -0.0587
 4655SOL    HW217371   7.093  10.629   3.812  0.5149 -0.2014 -0.1031
 4656SOL     OW17372   9.534   6.567   4.488  0.2820  0.2235  0.6771
 4656SOL    HW117373   9.563   6.561   4.579  1.0985  1.1438  0.4803
 4656SOL    HW217374   9.521   6.661   4.473  1.6293  0.2139 -0.6224
 4657SOL     OW17375   2.371   9.707   6.235 -0.3488  0.0036  0.6447
 4657SOL    HW117376   2.321   9.626   6.234 -2.0961  1.0448  0.5577
 4657SOL    HW217377   2.353   9.748   6.150  0.7040  0.3650  0.5855
 4658SOL     OW17378   5.510   1.225   0.705  0.0416  0.0023 -0.0283
 4658SOL    HW117379   5.506   1.320   0.689  2.7087 -0.1033 -1.5622
 4658SOL    HW217380   5.603   1.204   0.702 -0.6387 -2.9879 -1.5382
 4659SOL     OW17381   8.912   3.734   5.965 -0.0839  0.0612 -0.3308
 4659SOL    HW117382   8.894   3.750   6.057  1.2528  0.7935 -0.1865
 4659SOL    HW217383   9.007   3.742   5.957  0.3374 -4.2615 -0.9245
 4660SOL     OW17384   4.221   2.615   3.473 -0.1144  0.0998 -0.1269
 4660SOL    HW117385   4.154   2.554   3.505  0.2680  0.5163  1.5287
 4660SOL    HW217386   4.238   2.673   3.548 -0.4014  2.1797 -1.6395
 4661SOL     OW17387   8.863   2.005   8.985 -0.2703  0.0807 -0.0605
 4661SOL    HW117388   8.771   2.023   8.967 -0.1869 -0.9970 -1.5825
 4661SOL    HW217389   8.862   1.937   9.052 -0.5653  0.1654  0.0212
 4662SOL     OW17390   3.116   0.368   9.058 -0.6569 -0.1828  0.3080
 4662SOL    HW117391   3.085   0.444   9.008  0.1780  1.0160  1.5731
 4662SOL    HW217392   3.149   0.405   9.140  0.5405 -1.8247  0.5937
 4663SOL     OW17393   9.016   6.997   3.829  0.0684 -0.8044  0.0035
 4663SOL    HW117394   8.979   6.909   3.816 -1.4634 -0.1339 -0.3509
 4663SOL    HW217395   8.958   7.038   3.893  1.0134 -0.1845  0.4706
 4664SOL     OW17396   7.263   4.693  10.069 -0.0389 -0.0536  0.0720
 4664SOL    HW117397   7.185   4.746  10.053  0.5006  0.6317 -0.3185
 4664SOL    HW217398   7.328   4.756  10.102  0.2539 -0.6717  0.6853
 4665SOL     OW17399   4.891   8.914   1.819  0.0439  0.4154 -0.3862
 4665SOL    HW117400   4.924   8.996   1.856 -0.9869 -0.8731  3.6065
 4665SOL    HW217401   4.967   8.855   1.822 -0.5117 -0.2443  1.5640
 4666SOL     OW17402   9.591   6.929   2.766 -0.2981  0.5555 -0.5041
 4666SOL    HW117403   9.674   6.900   2.805 -1.2730  0.5891  1.6343
 4666SOL    HW217404   9.559   6.851   2.719 -1.3683 -0.9514  2.6220
 4667SOL     OW17405   7.119   6.994   2.819  0.1584 -0.4032  0.2058
 4667SOL    HW117406   7.070   6.925   2.865  0.7075 -1.0745 -0.2086
 4667SOL    HW217407   7.139   6.956   2.733 -0.4773  0.6764 -0.4353
 4668SOL     OW17408   8.870   7.140   2.324 -0.1242  0.7746 -0.7327
 4668SOL    HW117409   8.947   7.096   2.288 -0.2231  0.9477 -1.1559
 4668SOL    HW217410   8.808   7.143   2.252 -0.8680 -0.1490 -0.1435
 4669SOL     OW17411   6.967   0.552   9.490  0.6683  0.5347 -0.1903
 4669SOL    HW117412   6.914   0.609   9.546 -1.4415 -0.7875 -0.7902
 4669SOL    HW217413   6.994   0.607   9.418 -1.0148  0.9084 -0.5535
 4670SOL     OW17414   3.046   8.649   5.487  0.0597  0.2178  0.0445
 4670SOL    HW117415   2.951   8.639   5.478 -0.1147  0.9710  1.0091
 4670SOL    HW217416   3.066   8.615   5.574  0.7892 -0.6368 -0.4469
 4671SOL     OW17417   9.212   2.278  10.340  0.1329  0.0753 -0.0049
 4671SOL    HW117418   9.193   2.263  10.248  0.8806  0.7537 -0.2755
 4671SOL    HW217419   9.305   2.303  10.342 -0.2921  1.6821  0.7441
 4672SOL     OW17420   8.130  10.608  10.787 -0.5334  0.2260 -0.2389
 4672SOL    HW117421   8.195  10.670  10.753 -0.2536  0.3808  0.5489
 4672SOL    HW217422   8.083  10.657  10.854 -0.1895 -0.4629  0.5194
 4673SOL     OW17423   2.220   2.406   1.672  0.0742  0.0234  0.1482
 4673SOL    HW117424   2.132   2.389   1.704  0.1941 -0.2293  0.3496
 4673SOL    HW217425   2.273   2.336   1.710  0.4699  0.5162  0.5096
 4674SOL     OW17426  10.504   0.681   1.959 -0.3173 -0.1934  0.2863
 4674SOL    HW117427  10.556   0.760   1.946  0.6286 -0.9141 -0.2963
 4674SOL    HW217428  10.489   0.678   2.053 -2.0950  1.7768  0.1245
 4675SOL     OW17429   6.805   7.264   2.919  0.4596 -0.1150  0.0589
 4675SOL    HW117430   6.881   7.221   2.957  0.8544  1.5180  1.2084
 4675SOL    HW217431   6.737   7.197   2.917  0.8592 -0.6389  2.3708
 4676SOL     OW17432   3.494   4.639  10.375  0.8864 -0.5701 -0.2532
 4676SOL    HW117433   3.490   4.578  10.301  0.3461 -1.8276  0.7768
 4676SOL    HW217434   3.515   4.724  10.336 -0.3805 -1.0103 -1.9574
 4677SOL     OW17435   8.670   0.706   4.161  0.1545  0.2151  0.3610
 4677SOL    HW117436   8.759   0.681   4.186 -0.2496 -0.2066  1.4116
 4677SOL    HW217437   8.617   0.629   4.181 -0.5410  0.6702  0.2948
 4678SOL     OW17438   7.109   6.714   0.848 -0.5703  0.2334 -0.2817
 4678SOL    HW117439   7.182   6.765   0.884 -0.5728 -0.6216  0.9678
 4678SOL    HW217440   7.149   6.632   0.820 -1.0146 -0.1808  0.2761
 4679SOL     OW17441   2.713   4.400   4.832  0.5329  0.5398  0.3256
 4679SOL    HW117442   2.765   4.389   4.752 -0.9365 -1.6829 -0.3473
 4679SOL    HW217443   2.654   4.326   4.833 -2.4891  2.8675  1.2364
 4680SOL     OW17444   4.346   9.436   6.494  0.1599 -0.3917  0.1848
 4680SOL    HW117445   4.400   9.364   6.528 -0.3667 -1.6008 -1.4608
 4680SOL    HW217446   4.274   9.445   6.556  0.5427 -0.9067  0.7015
 4681SOL     OW17447   4.622   4.582   2.664 -0.4498  0.8651 -0.6690
 4681SOL    HW117448   4.658   4.660   2.621  1.0673  0.9468  0.7072
 4681SOL    HW217449   4.694   4.519   2.665 -1.7846 -0.7249 -2.1223
 4682SOL     OW17450   3.337   6.716   1.391  0.3681  0.0739 -0.6833
 4682SOL    HW117451   3.249   6.690   1.419  0.5479 -0.0288 -0.2116
 4682SOL    HW217452   3.339   6.810   1.405  0.1083  0.1754 -1.3138
 4683SOL     OW17453   1.907  10.818  10.704  0.0220 -0.5163  0.3263
 4683SOL    HW117454   1.887  10.855  10.790  0.5889 -1.0428  0.6900
 4683SOL    HW217455   1.992  10.856  10.681 -0.9085  0.9564 -0.7804
 4684SOL     OW17456   7.544   6.973  10.792 -0.2693 -0.1382 -0.2318
 4684SOL    HW117457   7.559   6.983  10.886  1.8938 -1.0001 -0.4570
 4684SOL    HW217458   7.588   7.049  10.753  0.6239 -0.8855 -0.6828
 4685SOL     OW17459   9.378   3.863   7.753 -0.4533 -0.8493 -0.3022
 4685SOL    HW117460   9.305   3.832   7.807 -0.9763  1.4823  0.3683
 4685SOL    HW217461   9.456   3.847   7.807 -0.9192  0.9273  0.9193
 4686SOL     OW17462   5.365   0.855   5.476 -0.2818 -0.0518 -0.2005
 4686SOL    HW117463   5.417   0.900   5.409 -1.0562  1.1894  0.0033
 4686SOL    HW217464   5.337   0.926   5.535  1.5850 -1.2857  2.2584
 4687SOL     OW17465   1.598   3.906   0.300  0.4468 -0.3431  0.0482
 4687SOL    HW117466   1.629   3.985   0.255  2.6831 -1.7674 -0.9762
 4687SOL    HW217467   1.644   3.907   0.384  1.5353 -1.2140 -0.5123
 4688SOL     OW17468   6.730   7.758   0.791  0.0928 -0.0600  0.0321
 4688SOL    HW117469   6.746   7.781   0.882 -0.6084  0.7981 -0.0566
 4688SOL    HW217470   6.702   7.840   0.750 -0.0554 -0.5428 -0.8451
 4689SOL     OW17471   9.853   2.455   1.561  0.2638 -0.8849  0.3028
 4689SOL    HW117472   9.818   2.381   1.611  1.8979 -1.7384  0.2168
 4689SOL    HW217473   9.877   2.417   1.476 -0.0247  0.0077 -0.1839
 4690SOL     OW17474   6.485   5.659   3.497  0.2315  0.4075  0.9889
 4690SOL    HW117475   6.453   5.729   3.554  1.4438 -0.6047  2.9385
 4690SOL    HW217476   6.452   5.579   3.537  2.8164 -0.4517  1.4421
 4691SOL     OW17477   0.103   9.786  10.158 -0.3361  0.3166  0.0954
 4691SOL    HW117478   0.052   9.722  10.108  0.8318 -1.1519  0.7216
 4691SOL    HW217479   0.134   9.738  10.235  0.4458  1.6826  0.6600
 4692SOL     OW17480   4.889   2.037   6.206 -0.0391  0.2654  0.2874
 4692SOL    HW117481   4.977   2.063   6.180  0.3153 -0.5085  0.6858
 4692SOL    HW217482   4.855   2.112   6.256  0.4428  0.5111  0.2477
 4693SOL     OW17483  10.310   5.287   6.719  0.6232  0.2445  0.1529
 4693SOL    HW117484  10.220   5.315   6.733  1.0338  0.8264  1.7768
 4693SOL    HW217485  10.306   5.225   6.646 -1.0457  0.4528  0.0687
 4694SOL     OW17486   7.706   7.490   1.459 -0.2299 -0.0150  0.3305
 4694SOL    HW117487   7.633   7.440   1.421  0.7091 -0.3300 -1.0893
 4694SOL    HW217488   7.776   7.427   1.469 -0.6094 -0.0526  3.1360
 4695SOL     OW17489   3.631   5.374   8.083  0.7563 -0.6534  0.6828
 4695SOL    HW117490   3.665   5.364   8.172 -0.2154 -0.3282  1.0985
 4695SOL    HW217491   3.536   5.370   8.093  0.6715 -1.6567 -0.4735
 4696SOL     OW17492   4.526  10.277   2.848  0.5663 -0.5660  0.2714
 4696SOL    HW117493   4.591  10.334   2.806 -0.6778  0.4916 -0.2627
 4696SOL    HW217494   4.476  10.240   2.775  0.0881 -0.7870  0.7106
 4697SOL     OW17495   6.003   0.379   5.376  0.1797  0.1363 -0.1626
 4697SOL    HW117496   6.030   0.454   5.323  0.1845  0.0462 -0.2872
 4697SOL    HW217497   5.912   0.362   5.349  0.0925  0.2628  0.0541
 4698SOL     OW17498   1.186   0.529  10.481  0.3942  0.5763 -0.7991
 4698SOL    HW117499   1.154   0.443  10.455  1.3248 -0.5165  1.5488
 4698SOL    HW217500   1.276   0.532  10.451  0.4573  0.5950 -0.6119
 4699SOL     OW17501   8.227   3.620   9.856  0.1393  0.3466  0.5474
 4699SOL    HW117502   8.141   3.660   9.843 -1.8120 -2.1379  4.6824
 4699SOL    HW217503   8.268   3.673   9.925 -0.2449 -1.4924  2.2201
 4700SOL     OW17504   7.376   0.111   0.000 -0.3018  0.2992  0.0339
 4700SOL    HW117505   7.314   0.182  -0.016  0.4459  1.4438  1.9963
 4700SOL    HW217506   7.329   0.050   0.057 -0.5152 -0.1536 -0.6241
 4701SOL     OW17507   0.192   3.064   0.444  0.2421 -0.1909  0.4683
 4701SOL    HW117508   0.173   3.136   0.504 -0.2001 -0.5219  0.7254
 4701SOL    HW217509   0.286   3.049   0.454  0.8481  1.9812 -1.3946
 4702SOL     OW17510   5.243  10.455   2.830  0.1864 -0.1770  0.1336
 4702SOL    HW117511   5.288  10.395   2.890 -0.1407 -1.5333 -0.9359
 4702SOL    HW217512   5.151  10.429   2.835  0.1389 -0.2134 -0.8505
 4703SOL     OW17513   5.276   2.171   1.505  0.1721 -0.1733 -0.0739
 4703SOL    HW117514   5.227   2.215   1.436  0.0212 -0.9454 -0.4645
 4703SOL    HW217515   5.339   2.117   1.458  0.4785 -0.2362  0.4072
 4704SOL     OW17516   1.744   6.738   5.018  0.2169 -0.3325 -0.1583
 4704SOL    HW117517   1.679   6.668   5.013  0.4867 -0.4904 -1.6360
 4704SOL    HW217518   1.698   6.816   4.988  0.6284 -0.3830 -0.9223
 4705SOL     OW17519   3.066   1.453   5.875  0.3958 -0.4953  0.1174
 4705SOL    HW117520   3.026   1.505   5.944  0.0072 -0.6931  0.0414
 4705SOL    HW217521   3.159   1.474   5.880  0.1482  0.7512 -0.3788
 4706SOL     OW17522   5.355   3.603   4.185 -0.2096  0.3491  0.0685
 4706SOL    HW117523   5.271   3.632   4.220  0.1667 -1.0683  2.2171
 4706SOL    HW217524   5.336   3.576   4.095 -2.1844 -0.5247  0.7335
 4707SOL     OW17525   4.277   1.318   4.535 -0.2184 -0.4257  0.5074
 4707SOL    HW117526   4.357   1.312   4.483 -0.7516  1.8037 -0.6513
 4707SOL    HW217527   4.306   1.351   4.620  0.1681  0.0517  0.1965
 4708SOL     OW17528  10.613   2.629   4.366  0.3837  0.1862  0.3126
 4708SOL    HW117529  10.550   2.701   4.370  0.3195  0.0523  2.4360
 4708SOL    HW217530  10.560   2.550   4.370  0.6610  0.0719  1.9450
 4709SOL     OW17531   6.639  10.675   5.435  0.1490 -0.2731  0.5047
 4709SOL    HW117532   6.601  10.749   5.386  2.1199  0.6834  0.3918
 4709SOL    HW217533   6.676  10.618   5.368 -0.3241 -0.7873  0.6741
 4710SOL     OW17534   4.023   2.235  10.885 -0.9667  0.7109  0.2173
 4710SOL    HW117535   4.076   2.250  10.963 -0.3248  0.0737 -0.0969
 4710SOL    HW217536   3.967   2.161  10.908  1.2814 -1.3836 -0.9532
 4711SOL     OW17537   4.820   3.342   2.223 -0.4493 -0.0439  0.1451
 4711SOL    HW117538   4.849   3.361   2.312  0.0427 -0.9754  0.1856
 4711SOL    HW217539   4.831   3.248   2.213 -0.8807 -0.0096 -0.7708
 4712SOL     OW17540  10.642   0.575   0.282 -0.1496 -0.0367 -0.2995
 4712SOL    HW117541  10.653   0.480   0.287  1.1614  0.1198 -0.0823
 4712SOL    HW217542  10.709   0.604   0.220 -0.3315  0.7859 -0.1169
 4713SOL     OW17543   3.331   5.628   5.439  0.3555 -0.1102 -0.6156
 4713SOL    HW117544   3.237   5.625   5.452  0.3487  0.2056 -0.5949
 4713SOL    HW217545   3.342   5.639   5.344  0.3504  1.3370 -0.4499
 4714SOL     OW17546  10.083   0.461   4.630  0.7968 -0.0780 -0.1456
 4714SOL    HW117547  10.068   0.400   4.558 -1.3671  0.3125 -0.0582
 4714SOL    HW217548  10.132   0.533   4.591 -0.4410  0.1775 -1.2600
 4715SOL     OW17549   2.288   1.399   0.796  0.3438 -0.2565  0.5443
 4715SOL    HW117550   2.364   1.439   0.839  1.4270 -0.2195 -1.3612
 4715SOL    HW217551   2.264   1.327   0.855  1.1545  0.4262  1.7406
 4716SOL     OW17552   9.295   0.665   3.632  0.0516 -0.0353 -0.0773
 4716SOL    HW117553   9.252   0.676   3.717  0.3649 -0.7053  0.1685
 4716SOL    HW217554   9.383   0.700   3.644  0.2930 -0.6858  0.0445
 4717SOL     OW17555   9.493   0.472  10.449 -1.0631 -0.6403 -0.2603
 4717SOL    HW117556   9.450   0.557  10.458  0.1917  0.1693 -1.6156
 4717SOL    HW217557   9.483   0.450  10.356 -1.0079 -1.7681 -0.0048
 4718SOL     OW17558   3.760   4.362   6.552  0.1456  0.3845 -0.2026
 4718SOL    HW117559   3.764   4.280   6.502  1.4893  0.6276 -0.4971
 4718SOL    HW217560   3.851   4.382   6.573 -0.2426  1.4089  0.5197
 4719SOL     OW17561   5.018   5.728   9.658 -0.5631 -0.4001  0.2998
 4719SOL    HW117562   5.097   5.756   9.612 -0.6848 -1.8761 -0.8524
 4719SOL    HW217563   5.033   5.754   9.749  0.0080  1.8707 -0.4144
 4720SOL     OW17564   1.265   2.296   6.304 -0.1455 -0.3010 -0.2172
 4720SOL    HW117565   1.302   2.258   6.383  0.5340 -0.7128 -0.7280
 4720SOL    HW217566   1.173   2.312   6.325  0.5560  1.7274  1.4326
 4721SOL     OW17567   4.143   4.231   4.150  0.7991 -0.2448  0.4139
 4721SOL    HW117568   4.110   4.219   4.238  0.9673 -0.0461  0.5051
 4721SOL    HW217569   4.080   4.186   4.094 -0.0616  0.8040  0.5095
 4722SOL     OW17570   9.224   7.327   7.711 -0.3196 -0.9427  0.1000
 4722SOL    HW117571   9.198   7.321   7.619  2.8018 -0.3901 -0.8715
 4722SOL    HW217572   9.202   7.241   7.748 -2.2621 -0.9260 -0.9476
 4723SOL     OW17573   5.295   1.675   3.536 -0.0659 -0.4398 -0.4221
 4723SOL    HW117574   5.301   1.769   3.520  1.3195 -0.1737  1.4323
 4723SOL    HW217575   5.279   1.668   3.631  0.3586 -2.0768 -0.4564
 4724SOL     OW17576   7.835   7.515   5.578 -0.8892 -0.0956 -0.1696
 4724SOL    HW117577   7.755   7.543   5.533 -0.7284 -1.4094 -1.3194
 4724SOL    HW217578   7.804   7.470   5.657 -1.2255  0.8976  0.2705
 4725SOL     OW17579   4.419   3.213   3.987  0.3857 -0.3689  0.1512
 4725SOL    HW117580   4.455   3.130   3.956 -0.3602 -1.0685  1.1035
 4725SOL    HW217581   4.359   3.241   3.918 -0.2208 -1.2078  0.3338
 4726SOL     OW17582   4.521   3.357   8.808 -0.3869  0.9570 -0.0457
 4726SOL    HW117583   4.527   3.442   8.762 -0.4952  0.7153 -0.5120
 4726SOL    HW217584   4.612   3.337   8.832 -0.1942  0.6140 -1.0300
 4727SOL     OW17585   8.847   4.890   5.980 -0.2065 -0.1288  0.6840
 4727SOL    HW117586   8.880   4.806   5.949  0.0974  0.5314 -0.8967
 4727SOL    HW217587   8.877   4.952   5.913 -1.8090  0.9835  0.9839
 4728SOL     OW17588   6.316   4.600   9.630  0.3104 -0.0238  0.0336
 4728SOL    HW117589   6.385   4.650   9.587 -0.4339  3.1116  2.2564
 4728SOL    HW217590   6.357   4.565   9.709 -0.0934  0.1548  0.3248
 4729SOL     OW17591   8.493   9.097   6.010 -0.9464  0.0934 -0.5735
 4729SOL    HW117592   8.541   9.134   6.085  0.1059 -0.7395 -0.8256
 4729SOL    HW217593   8.402   9.124   6.025 -0.3935  1.7945 -0.1540
 4730SOL     OW17594  10.553   4.502   1.375 -0.3531 -0.2507 -0.3886
 4730SOL    HW117595  10.533   4.412   1.349  0.5146 -0.3314 -0.7912
 4730SOL    HW217596  10.481   4.527   1.432 -0.2448 -1.4433  0.2769
 4731SOL     OW17597   4.976   8.143   5.607 -0.3246 -0.3310 -0.7308
 4731SOL    HW117598   5.068   8.119   5.602  0.3211  2.2566 -2.3705
 4731SOL    HW217599   4.956   8.144   5.700  0.9336 -2.2050 -0.4223
 4732SOL     OW17600   8.900   5.059   5.788 -0.1814  0.0425  0.0152
 4732SOL    HW117601   8.971   5.117   5.812  0.3394 -0.2956 -0.6776
 4732SOL    HW217602   8.838   5.114   5.739  0.3162  0.0147 -0.6498
 4733SOL     OW17603   3.555   2.780   1.749 -0.3037 -0.1285  0.2659
 4733SOL    HW117604   3.490   2.843   1.781  0.8834  1.3316 -0.1312
 4733SOL    HW217605   3.512   2.695   1.758 -2.6399  0.8782 -0.9256
 4734SOL     OW17606  10.080   2.918   6.633  0.4852  0.4472 -0.2406
 4734SOL    HW117607  10.122   2.997   6.600 -0.8454  1.0724 -0.4472
 4734SOL    HW217608  10.131   2.846   6.594  1.6902  1.1825 -0.0506
 4735SOL     OW17609   7.468   2.696   2.059 -0.0943 -0.5623  0.0095
 4735SOL    HW117610   7.442   2.708   2.150  0.5253  1.2003 -0.0440
 4735SOL    HW217611   7.385   2.682   2.013 -0.4285 -1.2471  0.7916
 4736SOL     OW17612   5.000   8.123   7.327  0.7972  0.2539 -0.7690
 4736SOL    HW117613   5.042   8.165   7.252  0.0117  0.8681 -0.8749
 4736SOL    HW217614   4.908   8.114   7.301  0.6716 -0.2152 -0.1765
 4737SOL     OW17615   8.313   7.221   7.089  0.2242 -0.6209 -0.2130
 4737SOL    HW117616   8.397   7.266   7.078  0.6708 -1.2817  0.3675
 4737SOL    HW217617   8.258   7.255   7.019  1.0342 -0.2983 -0.7079
 4738SOL     OW17618   7.204   7.204   2.624  0.1060 -0.7174  0.0871
 4738SOL    HW117619   7.194   7.164   2.711 -1.4910  0.4009  0.4334
 4738SOL    HW217620   7.285   7.255   2.631  0.0674 -0.7562  0.8591
 4739SOL     OW17621   7.147   8.880   9.243  0.3725 -0.0065 -0.7810
 4739SOL    HW117622   7.128   8.972   9.260 -1.9433 -0.0361 -2.8955
 4739SOL    HW217623   7.151   8.874   9.148 -2.4288 -2.6107 -0.8028
 4740SOL     OW17624   7.562   8.780   6.260  0.0789 -0.6795 -0.3100
 4740SOL    HW117625   7.570   8.874   6.239 -0.1163 -0.5030  0.4014
 4740SOL    HW217626   7.557   8.777   6.355 -1.4122 -1.3196 -0.4056
 4741SOL     OW17627   8.200   7.672   8.709 -0.6052  0.0827  0.0146
 4741SOL    HW117628   8.267   7.717   8.761 -0.7234 -0.2706  0.4852
 4741SOL    HW217629   8.181   7.732   8.637 -1.8967  1.5010  1.4864
 4742SOL     OW17630   1.948   6.470   6.753  0.0132  0.2221 -0.3399
 4742SOL    HW117631   1.877   6.462   6.817  0.4465 -0.1226  0.0963
 4742SOL    HW217632   1.903   6.471   6.669 -0.4940 -0.2423 -0.0782
 4743SOL     OW17633   7.270   0.209   9.410  0.0643 -0.4324  0.1270
 4743SOL    HW117634   7.209   0.275   9.377  0.0717 -0.9094 -0.8871
 4743SOL    HW217635   7.236   0.185   9.496  0.8529  1.8996  1.1410
 4744SOL     OW17636  10.850   1.209   6.912  0.0703  0.0873 -0.1304
 4744SOL    HW117637  10.890   1.220   6.826 -1.9013 -2.6108 -1.4771
 4744SOL    HW217638  10.772   1.264   6.910  0.9353  1.3581  0.5930
 4745SOL     OW17639   8.272   1.662   2.133  0.0032  0.0487 -0.6880
 4745SOL    HW117640   8.338   1.619   2.078 -0.7465 -0.0689 -1.4983
 4745SOL    HW217641   8.270   1.609   2.213 -1.1568 -1.6519 -1.8093
 4746SOL     OW17642  10.762   4.970   4.619 -0.1799  0.1510  0.4543
 4746SOL    HW117643  10.828   4.907   4.590 -0.2357  0.6629 -0.8456
 4746SOL    HW217644  10.807   5.055   4.616 -0.8959  0.5171 -0.5449
 4747SOL     OW17645  10.497   1.205   5.211  0.1250  0.4356  0.5588
 4747SOL    HW117646  10.536   1.160   5.286  0.4430 -1.3835 -0.6692
 4747SOL    HW217647  10.425   1.148   5.184  1.1659  0.1409 -1.6460
 4748SOL     OW17648   2.727   2.847   9.703 -0.5740 -0.3943 -0.1643
 4748SOL    HW117649   2.751   2.932   9.740 -1.3671 -1.0647  1.9924
 4748SOL    HW217650   2.796   2.827   9.640  0.2794  1.2613  0.2324
 4749SOL     OW17651   1.497   3.154   1.745  0.2834  0.7028 -0.3153
 4749SOL    HW117652   1.494   3.185   1.655 -1.6137 -1.4789 -1.0822
 4749SOL    HW217653   1.449   3.220   1.795  0.2178  1.2767 -1.1305
 4750SOL     OW17654   2.277   5.205  10.453  0.1140  0.1357 -0.2023
 4750SOL    HW117655   2.347   5.162  10.404  1.0667  0.9438  0.4198
 4750SOL    HW217656   2.281   5.296  10.424  0.9400  0.6997  1.6333
 4751SOL     OW17657   9.165  10.477   2.419 -0.1370  0.2987 -0.2133
 4751SOL    HW117658   9.130  10.532   2.488  0.6636 -1.7365  1.8582
 4751SOL    HW217659   9.260  10.486   2.426 -0.0317 -0.3666 -0.6712
 4752SOL     OW17660   8.897   3.748   4.697 -0.3166 -0.6912 -0.0121
 4752SOL    HW117661   8.890   3.832   4.652  2.8446 -1.6612 -2.4982
 4752SOL    HW217662   8.931   3.770   4.783 -1.6320  0.7600  0.1611
 4753SOL     OW17663   0.822   5.356   5.047 -0.0128  0.0404  0.3313
 4753SOL    HW117664   0.885   5.339   5.117  0.0576 -0.1956  0.2079
 4753SOL    HW217665   0.737   5.332   5.084  0.1033 -0.7083  0.1051
 4754SOL     OW17666   3.077   1.109   3.897  0.1419 -0.2414  0.0087
 4754SOL    HW117667   2.995   1.093   3.851 -0.2996 -1.0091  1.0334
 4754SOL    HW217668   3.122   1.174   3.845 -1.1049  0.1442 -0.5920
 4755SOL     OW17669   6.211   0.482   3.603 -0.0586  0.6396 -0.1123
 4755SOL    HW117670   6.158   0.463   3.525  2.5360 -2.9722 -1.0847
 4755SOL    HW217671   6.248   0.398   3.629  2.4044  2.4670  2.6473
 4756SOL     OW17672  10.906   3.961   7.323  0.1849 -0.1380  0.1242
 4756SOL    HW117673  10.910   3.899   7.251 -0.6291 -0.6643  0.5306
 4756SOL    HW217674  10.910   4.047   7.281  0.3410 -0.4490 -0.4970
 4757SOL     OW17675   4.261   1.084   1.923 -0.4248  0.6687 -0.1478
 4757SOL    HW117676   4.356   1.094   1.927 -0.6806  3.5097 -0.1345
 4757SOL    HW217677   4.232   1.094   2.014 -0.7353 -0.4159 -0.1207
 4758SOL     OW17678  10.167   8.900   6.127 -0.5081 -0.4664  0.8712
 4758SOL    HW117679  10.189   8.821   6.176 -1.1538 -0.2407  1.5456
 4758SOL    HW217680  10.209   8.971   6.176  0.2276 -0.4068  0.1627
 4759SOL     OW17681   6.174   5.524   5.586  0.0785 -0.4813  0.1111
 4759SOL    HW117682   6.208   5.499   5.672 -0.6931 -0.4344  0.4292
 4759SOL    HW217683   6.080   5.537   5.600 -0.0909 -0.7112 -0.7900
 4760SOL     OW17684   8.663   7.948   4.073  0.6032 -0.0516 -0.1740
 4760SOL    HW117685   8.582   7.958   4.124 -0.5490  0.9366 -2.1538
 4760SOL    HW217686   8.726   7.910   4.135 -2.0059 -2.9973  0.8219
 4761SOL     OW17687   3.208   6.666   2.133 -0.5049  0.8653 -0.4262
 4761SOL    HW117688   3.153   6.744   2.135 -0.9374  0.5854 -1.2153
 4761SOL    HW217689   3.295   6.698   2.158 -0.7693  1.5221 -0.3379
 4762SOL     OW17690   0.623   9.723   6.929 -0.2724  0.0881 -0.0918
 4762SOL    HW117691   0.571   9.657   6.883 -0.4051 -0.8711  1.4184
 4762SOL    HW217692   0.682   9.673   6.986  0.6005  1.2337  0.0371
 4763SOL     OW17693   6.060   2.923   8.448 -0.7905  0.0070  0.3843
 4763SOL    HW117694   5.981   2.917   8.394  0.2962  0.6710 -1.3378
 4763SOL    HW217695   6.087   3.015   8.440  0.2201 -0.2433  0.8408
 4764SOL     OW17696   6.708   6.313  10.758 -0.2054  0.1216  0.0331
 4764SOL    HW117697   6.797   6.344  10.776 -0.1150 -0.5248  0.7185
 4764SOL    HW217698   6.720   6.233  10.707 -0.4266  0.8634 -1.2015
 4765SOL     OW17699   1.347   0.884   3.204 -0.2443  0.7434  0.4750
 4765SOL    HW117700   1.327   0.886   3.110 -0.0069  0.6210  0.4214
 4765SOL    HW217701   1.431   0.929   3.212  0.7318 -1.0088  0.3655
 4766SOL     OW17702   0.142   7.684   5.803  0.7180 -0.3853  0.0247
 4766SOL    HW117703   0.237   7.674   5.810  0.6979 -1.3228 -0.8980
 4766SOL    HW217704   0.129   7.753   5.739  0.7862  0.8944  1.3702
 4767SOL     OW17705   9.191   7.610   1.074 -0.1059  0.3934 -0.3165
 4767SOL    HW117706   9.133   7.629   1.148 -0.2416 -0.3801 -0.2200
 4767SOL    HW217707   9.151   7.535   1.031  1.3028 -0.7435  0.2994
 4768SOL     OW17708   5.483   9.950   0.449  0.3597 -0.1607  0.3464
 4768SOL    HW117709   5.457   9.918   0.536 -1.2588  0.7654  0.2262
 4768SOL    HW217710   5.450   9.884   0.389  2.2643 -1.2527  0.4773
 4769SOL     OW17711   3.047   5.545   4.149  0.7502 -0.0388  0.0480
 4769SOL    HW117712   2.990   5.610   4.191  1.7210 -0.3629  1.9043
 4769SOL    HW217713   2.988   5.471   4.130  0.4525 -0.2124  1.5888
 4770SOL     OW17714   5.389   4.793   8.547 -0.0385  0.2281  0.4105
 4770SOL    HW117715   5.350   4.816   8.462 -2.4447 -1.4593  0.9803
 4770SOL    HW217716   5.351   4.856   8.608  1.0624  0.9288  0.3826
 4771SOL     OW17717   9.060   4.192   8.185 -0.8907 -0.1243  0.1216
 4771SOL    HW117718   9.080   4.111   8.137 -0.7188  0.5926 -1.0418
 4771SOL    HW217719   8.968   4.182   8.210 -1.3630  0.0095 -1.4577
 4772SOL     OW17720   5.754   0.060  10.438 -0.1228 -0.0266 -0.4462
 4772SOL    HW117721   5.790   0.114  10.507  0.8208  1.9775 -2.4483
 4772SOL    HW217722   5.663   0.044  10.463  0.4591 -0.1042  1.6636
 4773SOL     OW17723  10.906   6.907   0.918 -0.7562 -0.5351 -0.4913
 4773SOL    HW117724  10.830   6.963   0.905 -1.7255 -1.8759 -0.6299
 4773SOL    HW217725  10.925   6.914   1.012 -0.4387  0.5619 -0.6285
 4774SOL     OW17726   0.739   5.103   2.647  0.0597 -0.3138 -0.0158
 4774SOL    HW117727   0.724   5.034   2.582  0.4773  1.5012 -2.0811
 4774SOL    HW217728   0.833   5.099   2.664 -0.0198 -0.6612  0.3690
 4775SOL     OW17729   4.154   8.024  10.938  0.0558  0.0312 -0.6199
 4775SOL    HW117730   4.148   7.953  11.002 -0.3315 -0.1917 -0.8985
 4775SOL    HW217731   4.243   8.019  10.904 -0.0151 -0.4138 -0.7445
 4776SOL     OW17732   8.196   8.479   1.247 -0.0243  0.4415  0.7307
 4776SOL    HW117733   8.150   8.406   1.206 -0.6041  1.7059 -0.8782
 4776SOL    HW217734   8.228   8.443   1.330 -1.6744 -1.1848  0.6904
 4777SOL     OW17735   6.969   6.193   1.241 -0.0506 -0.5253 -0.5101
 4777SOL    HW117736   7.056   6.157   1.224 -0.6074 -3.0795  1.7717
 4777SOL    HW217737   6.978   6.236   1.326 -0.6652  0.5169 -0.9615
 4778SOL     OW17738   2.743   5.120   7.105  0.1159 -0.2819  0.2005
 4778SOL    HW117739   2.774   5.210   7.101  0.9032 -0.4358  2.3487
 4778SOL    HW217740   2.810   5.069   7.061 -0.1160  0.1259 -0.6299
 4779SOL     OW17741   4.054  10.185   9.332  0.2394  0.2392 -0.2021
 4779SOL    HW117742   3.968  10.215   9.303 -0.0735  0.3443  0.8031
 4779SOL    HW217743   4.035  10.127   9.406  0.6954 -4.1226 -3.3142
 4780SOL     OW17744   9.009  10.081   9.560 -0.2617 -0.5802 -0.0069
 4780SOL    HW117745   9.056  10.014   9.510  2.0751  2.2048 -1.7321
 4780SOL    HW217746   8.940  10.111   9.501 -2.7432 -2.9292  1.5998
 4781SOL     OW17747   0.890  10.843   8.762  0.4451 -0.4089 -0.4394
 4781SOL    HW117748   0.900  10.824   8.669 -1.0433 -1.2816 -0.4333
 4781SOL    HW217749   0.927  10.767   8.806 -1.0036 -1.0736 -0.3538
 4782SOL     OW17750  10.118   6.082   3.951  0.4618  0.2213  0.3941
 4782SOL    HW117751  10.127   6.177   3.943  0.5333  0.1032 -1.0191
 4782SOL    HW217752  10.077   6.055   3.869 -3.3910 -0.5049  2.4252
 4783SOL     OW17753   4.313   2.989   0.247 -0.3702 -0.1629  0.0239
 4783SOL    HW117754   4.294   2.917   0.187 -1.5668 -0.2378  0.4893
 4783SOL    HW217755   4.391   3.031   0.210 -1.9465  0.7000 -2.3977
 4784SOL     OW17756   8.796   4.721  10.022 -0.4712  0.1621 -0.4269
 4784SOL    HW117757   8.869   4.766  10.065  0.4663 -0.6075 -1.1701
 4784SOL    HW217758   8.834   4.638   9.992 -1.7465 -0.3969 -0.5312
 4785SOL     OW17759   4.102   2.905   8.168 -0.2429  0.2499 -0.6361
 4785SOL    HW117760   4.140   2.840   8.109 -0.7392  1.0209 -1.8232
 4785SOL    HW217761   4.086   2.857   8.249  2.6533 -0.2732 -0.2980
 4786SOL     OW17762   0.901   5.361   2.300 -0.5346  0.3119 -0.1484
 4786SOL    HW117763   0.814   5.401   2.308 -0.8074 -0.3083  0.0841
 4786SOL    HW217764   0.959   5.418   2.349 -0.8588  0.6082 -0.1084
 4787SOL     OW17765   5.280   0.867  10.685 -0.3509 -0.1485  0.1208
 4787SOL    HW117766   5.355   0.868  10.624  1.0831 -0.2872  1.8387
 4787SOL    HW217767   5.224   0.939  10.655  0.6416  0.1948 -0.9706
 4788SOL     OW17768   5.591   8.063   9.904 -0.0169  0.1763 -0.5039
 4788SOL    HW117769   5.626   8.042   9.817  1.5740 -0.7496  0.3333
 4788SOL    HW217770   5.567   7.978   9.941  0.0312  0.4947  0.2640
 4789SOL     OW17771   9.897  10.324   1.371 -0.5621 -0.0032 -0.2233
 4789SOL    HW117772   9.940  10.372   1.301 -1.7484 -0.7959 -1.5206
 4789SOL    HW217773   9.804  10.325   1.347 -1.0856  0.3444  1.7095
 4790SOL     OW17774   8.472   9.666   9.636  0.2748 -0.3724 -0.3402
 4790SOL    HW117775   8.428   9.701   9.559  0.7002  1.0848  0.0596
 4790SOL    HW217776   8.458   9.571   9.631 -0.9170 -0.1556 -1.4384
 4791SOL     OW17777   4.828   1.804   8.704  0.2576 -0.4294 -0.3367
 4791SOL    HW117778   4.782   1.747   8.766  0.0961 -0.1032 -0.1529
 4791SOL    HW217779   4.771   1.806   8.627  0.0084 -0.1120 -0.1502
 4792SOL     OW17780   4.130   1.670   0.513  0.1446  0.2460  0.1491
 4792SOL    HW117781   4.050   1.631   0.477 -0.5216  0.9081  0.8778
 4792SOL    HW217782   4.191   1.596   0.521 -0.0707 -0.1044 -1.2584
 4793SOL     OW17783   7.953   3.608   5.978  0.5376  0.4765  0.0937
 4793SOL    HW117784   7.951   3.548   6.053  1.2188 -0.4046 -0.5819
 4793SOL    HW217785   7.876   3.663   5.989  0.0298 -0.3697  0.8537
 4794SOL     OW17786   4.429   3.953   1.004 -0.4300 -0.6681 -0.1290
 4794SOL    HW117787   4.385   3.960   0.918 -0.6670 -0.7479 -0.0162
 4794SOL    HW217788   4.358   3.967   1.067 -0.0280  0.6227  0.0440
 4795SOL     OW17789   8.167   7.955  10.423  0.3428 -0.2630  0.2211
 4795SOL    HW117790   8.213   7.875  10.398  1.9787  0.1833  1.7639
 4795SOL    HW217791   8.230   8.025  10.407 -0.7899  0.6497 -0.3245
 4796SOL     OW17792   4.554   6.377   0.454  0.0281  0.5618 -0.1894
 4796SOL    HW117793   4.626   6.319   0.431 -1.0394 -0.5560 -0.7467
 4796SOL    HW217794   4.547   6.370   0.550 -0.6733 -0.9132 -0.3459
 4797SOL     OW17795   7.210   3.437   4.278  0.6660  0.0271 -0.1090
 4797SOL    HW117796   7.237   3.528   4.287  1.2146  0.0001 -1.2932
 4797SOL    HW217797   7.150   3.422   4.350  0.1502  1.4933 -0.2142
 4798SOL     OW17798   9.055   3.437   2.378  0.0523  0.3852  0.1988
 4798SOL    HW117799   9.005   3.504   2.331  1.2430  0.5387 -0.8928
 4798SOL    HW217800   9.055   3.467   2.469  1.3094  2.3817 -0.4077
 4799SOL     OW17801   8.455   9.396   6.265 -0.0332  0.0117  0.4091
 4799SOL    HW117802   8.487   9.455   6.198 -0.1100 -2.2627 -1.7015
 4799SOL    HW217803   8.522   9.328   6.273 -2.6545 -3.0234 -1.7444
 4800SOL     OW17804   9.342   3.527   6.738 -0.2671 -0.2159  0.7781
 4800SOL    HW117805   9.309   3.544   6.650  0.3923 -0.7267  0.4329
 4800SOL    HW217806   9.382   3.440   6.733  1.0391  0.3542  1.2252
 4801SOL     OW17807   7.707   7.837   9.371 -0.5173 -0.2261 -0.2789
 4801SOL    HW117808   7.702   7.865   9.463  1.2195  1.8486 -0.7750
 4801SOL    HW217809   7.617   7.845   9.339 -0.6357  1.9090  0.4763
 4802SOL     OW17810   1.682   0.209  10.897  0.3411 -0.1903 -0.3805
 4802SOL    HW117811   1.719   0.275  10.955 -1.9672  0.6998  0.1431
 4802SOL    HW217812   1.690   0.247  10.809 -1.8932  1.2998  0.0120
 4803SOL     OW17813  10.586  10.174   5.528  0.2699 -0.2226  0.1826
 4803SOL    HW117814  10.646  10.145   5.596 -0.8239 -0.0694  1.2335
 4803SOL    HW217815  10.508  10.119   5.540 -0.6502  1.0674  0.2553
 4804SOL     OW17816   4.155   8.405   1.391 -0.3787 -0.3323 -0.1136
 4804SOL    HW117817   4.063   8.426   1.409 -0.3085 -0.1264  0.0191
 4804SOL    HW217818   4.152   8.346   1.316 -0.7409 -2.0159  1.1872
 4805SOL     OW17819   3.853   7.575   8.365  0.3349 -0.2061  0.0918
 4805SOL    HW117820   3.819   7.500   8.413 -1.7786  1.2082  0.8988
 4805SOL    HW217821   3.778   7.606   8.313  1.0660  1.5150  0.0191
 4806SOL     OW17822   3.414   4.040   2.033 -0.2649 -0.2362  0.7865
 4806SOL    HW117823   3.332   3.991   2.021  0.1994 -1.0916  1.0986
 4806SOL    HW217824   3.386   4.121   2.077 -1.3435  0.8554 -1.8053
 4807SOL     OW17825   8.230   0.392   5.869  0.2488  0.0822 -0.8472
 4807SOL    HW117826   8.149   0.377   5.821  0.3219 -1.5637 -0.4817
 4807SOL    HW217827   8.233   0.322   5.934  0.8999  1.3853  0.5647
 4808SOL     OW17828   8.358   2.352   2.087  0.2673 -0.0996  0.1633
 4808SOL    HW117829   8.278   2.347   2.140 -0.2622  1.9044 -0.3949
 4808SOL    HW217830   8.422   2.396   2.143 -0.3588  2.2244 -0.8572
 4809SOL     OW17831   2.440   9.879   9.631  0.3577  0.4917 -0.1129
 4809SOL    HW117832   2.490   9.959   9.611  0.5864  0.7225  1.2750
 4809SOL    HW217833   2.349   9.901   9.610  0.6291  0.5773 -1.2269
 4810SOL     OW17834   9.595   1.432   4.210 -0.8193  0.0006  0.0280
 4810SOL    HW117835   9.647   1.468   4.138 -1.2502  1.1876  0.3022
 4810SOL    HW217836   9.625   1.342   4.218 -0.4807 -0.0237 -1.3736
 4811SOL     OW17837   1.613   8.090   9.756  0.6205  0.1426  0.2533
 4811SOL    HW117838   1.618   8.152   9.683 -1.9147 -0.5230 -0.5418
 4811SOL    HW217839   1.520   8.082   9.774  0.9729 -2.6105  1.0578
 4812SOL     OW17840   4.663   4.365   1.067 -0.8560  0.1777 -1.3445
 4812SOL    HW117841   4.680   4.272   1.079 -2.7278  0.0337  0.5408
 4812SOL    HW217842   4.714   4.408   1.136 -0.6227  0.4892 -1.7099
 4813SOL     OW17843   8.440   6.668   7.076  0.0685 -0.2420 -0.0916
 4813SOL    HW117844   8.507   6.725   7.036 -1.0560  3.6598  3.1900
 4813SOL    HW217845   8.474   6.580   7.065  3.8727  1.3341 -2.0262
 4814SOL     OW17846   2.628   8.602  10.507  0.1374 -0.2677  0.4618
 4814SOL    HW117847   2.700   8.664  10.514 -0.2609  0.3967 -0.9851
 4814SOL    HW217848   2.637   8.564  10.419 -1.2469 -0.1843  0.2643
 4815SOL     OW17849   1.706   3.963   0.606 -0.0885 -0.1627 -0.0158
 4815SOL    HW117850   1.649   4.039   0.593  0.5956  0.2763 -0.5193
 4815SOL    HW217851   1.788   3.987   0.560  0.3124 -0.9844  0.2684
 4816SOL     OW17852   4.155   3.335   2.708  0.1795 -0.2827 -0.1723
 4816SOL    HW117853   4.088   3.303   2.768  1.0636 -1.7712  0.0634
 4816SOL    HW217854   4.160   3.429   2.725 -0.4419 -0.4899  1.2262
 4817SOL     OW17855   2.634   5.250   1.023 -0.1408 -0.1028  0.1831
 4817SOL    HW117856   2.612   5.237   0.931 -2.2693  0.9777  0.4958
 4817SOL    HW217857   2.600   5.337   1.043  0.2832 -0.3420  2.0064
 4818SOL     OW17858  10.138   1.758   7.269 -0.4680  0.2243  0.2193
 4818SOL    HW117859  10.128   1.820   7.197  0.4246  0.6969  0.4895
 4818SOL    HW217860  10.122   1.811   7.348 -1.0901 -0.2110  0.3898
 4819SOL     OW17861   2.926   2.210   3.874 -0.0729  0.0761  0.2979
 4819SOL    HW117862   2.853   2.158   3.840 -1.3545  0.3263  2.5221
 4819SOL    HW217863   2.965   2.155   3.942 -0.1448  1.1997  1.2584
 4820SOL     OW17864   4.057   6.091   5.322  0.5987 -0.0918 -0.3813
 4820SOL    HW117865   4.090   6.057   5.239  0.9929 -0.6830  0.0127
 4820SOL    HW217866   4.105   6.173   5.336  1.4288 -0.6261 -0.1211
 4821SOL     OW17867   6.929   1.950   0.658  0.3369  0.1796 -0.5206
 4821SOL    HW117868   6.938   1.854   0.658  2.1269  0.3398  0.5654
 4821SOL    HW217869   6.979   1.979   0.734  1.1136  2.1064 -1.7460
 4822SOL     OW17870   4.922   2.442   0.494 -0.2645  0.0092  0.6798
 4822SOL    HW117871   4.899   2.431   0.587 -0.5387 -1.4993  0.4458
 4822SOL    HW217872   4.840   2.468   0.452 -0.1527  0.6392  0.8466
 4823SOL     OW17873   9.067   1.804   2.751 -0.2100 -0.0931 -0.4175
 4823SOL    HW117874   9.074   1.896   2.774 -0.5474 -0.3901  0.9114
 4823SOL    HW217875   8.999   1.770   2.808 -0.2842 -1.1061 -1.0938
 4824SOL     OW17876   1.854   7.935   8.119 -0.4688 -0.4420  0.2442
 4824SOL    HW117877   1.890   7.889   8.195 -1.9765 -0.7375  0.8077
 4824SOL    HW217878   1.928   7.984   8.083  0.5524 -1.2739  1.1726
 4825SOL     OW17879  10.165   0.800   4.316  0.4073  1.3133  0.6773
 4825SOL    HW117880  10.086   0.786   4.368 -0.2618  1.5360 -0.2530
 4825SOL    HW217881  10.154   0.888   4.280 -0.5460  0.0909 -2.1753
 4826SOL     OW17882   9.384   4.724   4.334  0.0541  0.1048  0.4107
 4826SOL    HW117883   9.396   4.779   4.257  0.7630 -0.8070 -0.1323
 4826SOL    HW217884   9.444   4.760   4.399  0.2506  0.2019  0.1780
 4827SOL     OW17885   5.867   7.315   1.857  0.0158  0.1718 -0.3333
 4827SOL    HW117886   5.931   7.370   1.812  2.0466 -2.0635 -0.3023
 4827SOL    HW217887   5.860   7.237   1.802 -1.8232 -0.1174  0.2769
 4828SOL     OW17888   1.920   0.834   5.012  0.2542  0.0663  0.0796
 4828SOL    HW117889   1.923   0.744   4.981 -0.1033 -0.6014  1.9543
 4828SOL    HW217890   1.844   0.872   4.968  0.4541 -0.5194 -0.7772
 4829SOL     OW17891   8.024   6.450  10.357 -0.6782  0.0283  0.2107
 4829SOL    HW117892   7.955   6.399  10.314 -1.9252  0.9459  1.0608
 4829SOL    HW217893   7.978   6.498  10.426  1.0263 -0.2179  1.5298
 4830SOL     OW17894   7.438   7.980  10.771  0.6420  0.6211  0.4449
 4830SOL    HW117895   7.467   7.920  10.702  1.5512  1.9118 -0.3052
 4830SOL    HW217896   7.431   8.065  10.728  3.1473  1.8615  2.3199
 4831SOL     OW17897   1.907   3.730   0.925  0.3140 -0.5519  0.2906
 4831SOL    HW117898   1.916   3.802   0.863 -0.6867  1.2125  2.1646
 4831SOL    HW217899   1.990   3.683   0.919  0.2379 -0.4272 -2.3719
 4832SOL     OW17900  10.042  10.939   9.021  0.7205  0.2374 -0.2296
 4832SOL    HW117901  10.074  10.868   8.966  0.6258  0.7498 -0.9422
 4832SOL    HW217902   9.968  10.901   9.068  1.5924 -0.5790  0.5004
 4833SOL     OW17903   4.298   0.214   8.754  0.2776  0.4065 -0.1079
 4833SOL    HW117904   4.235   0.174   8.694  1.0658 -0.5980 -0.2703
 4833SOL    HW217905   4.267   0.304   8.764 -0.3861  0.3238 -1.2974
 4834SOL     OW17906   5.662   6.163   1.606  0.7743 -0.3842 -0.3209
 4834SOL    HW117907   5.608   6.095   1.565 -1.2805  1.0587 -0.0405
 4834SOL    HW217908   5.699   6.120   1.684  1.1432 -1.7809 -1.2396
 4835SOL     OW17909   6.021   2.365   1.584  0.5638 -0.0472 -0.4651
 4835SOL    HW117910   5.932   2.396   1.570  0.5600 -0.7028 -1.9138
 4835SOL    HW217911   6.010   2.291   1.644  0.1762  0.0983 -0.3508
 4836SOL     OW17912   6.578  10.815   8.153  0.7948  0.9371  0.6410
 4836SOL    HW117913   6.633  10.847   8.080  1.4649 -1.1662  0.1918
 4836SOL    HW217914   6.512  10.883   8.164 -0.0402  0.7837 -2.7522
 4837SOL     OW17915   8.908   8.805   8.554 -0.2561 -0.0594  0.5570
 4837SOL    HW117916   8.984   8.771   8.506 -0.4789 -1.4480  1.1579
 4837SOL    HW217917   8.939   8.887   8.594  0.2300  0.5732 -1.0895
 4838SOL     OW17918   5.331   0.860   9.700 -0.2016 -0.3556  0.4568
 4838SOL    HW117919   5.389   0.900   9.636 -2.7848  3.3745  0.2690
 4838SOL    HW217920   5.324   0.925   9.770 -2.3138 -1.6895  1.5533
 4839SOL     OW17921   0.564   8.022   6.532  0.2880 -0.9572 -0.0020
 4839SOL    HW117922   0.506   7.975   6.592  0.0592 -1.4906 -0.6486
 4839SOL    HW217923   0.506   8.057   6.464 -0.0035  2.7649  1.9842
 4840SOL     OW17924   5.102   4.945   5.518 -0.3288 -0.1131 -0.0201
 4840SOL    HW117925   5.098   5.039   5.535  0.7318  0.2112 -1.4658
 4840SOL    HW217926   5.115   4.906   5.604  1.2388  1.2166  0.3805
 4841SOL     OW17927   3.468   9.657   5.495 -0.6465  0.2928  0.0538
 4841SOL    HW117928   3.447   9.746   5.522 -3.9352 -0.4551  0.1625
 4841SOL    HW217929   3.421   9.645   5.413 -1.8712 -2.0038  1.0650
 4842SOL     OW17930   6.585   5.248   6.982  0.4829  0.4628 -0.5601
 4842SOL    HW117931   6.566   5.235   6.889 -1.4872 -0.8365 -0.0210
 4842SOL    HW217932   6.583   5.343   6.994 -1.0883  0.5770 -1.5073
 4843SOL     OW17933   8.503  10.682   5.760  0.0065 -0.2625 -0.1926
 4843SOL    HW117934   8.418  10.674   5.717  0.3092 -1.3756 -0.6256
 4843SOL    HW217935   8.549  10.749   5.709 -0.9760  1.0999  0.6846
 4844SOL     OW17936   6.384   1.605   5.806 -0.1176 -0.0250  0.4242
 4844SOL    HW117937   6.312   1.650   5.850 -1.4153 -0.7128 -0.9734
 4844SOL    HW217938   6.365   1.512   5.818  1.1211 -0.2113  0.9883
 4845SOL     OW17939   8.918   6.004   8.554  0.1292  0.4588 -0.0142
 4845SOL    HW117940   8.873   6.069   8.607 -0.2361  0.6001 -0.4974
 4845SOL    HW217941   8.962   5.947   8.618 -0.3507  0.5955  0.4413
 4846SOL     OW17942   9.577   4.070   3.200 -0.2211 -0.4216  0.0676
 4846SOL    HW117943   9.533   4.029   3.275 -2.2477  0.2285 -0.7266
 4846SOL    HW217944   9.527   4.150   3.184  1.0802  0.1777 -1.0846
 4847SOL     OW17945   0.755   9.653  10.286  0.0403  0.8200 -0.4034
 4847SOL    HW117946   0.803   9.695  10.358  4.4000 -0.7872 -2.2178
 4847SOL    HW217947   0.730   9.725  10.229  0.8011  1.6560  0.2985
 4848SOL     OW17948   0.955   2.947   1.064 -0.3663  0.1093 -0.7513
 4848SOL    HW117949   0.866   2.933   1.096 -0.2059 -1.9231 -1.1251
 4848SOL    HW217950   1.009   2.950   1.143 -0.3167 -2.2493 -0.6615
 4849SOL     OW17951   1.400   4.563   6.629  0.0128  0.3466 -0.1559
 4849SOL    HW117952   1.484   4.604   6.647 -1.0243  3.0803 -1.3136
 4849SOL    HW217953   1.349   4.577   6.708  0.3043 -0.4390  0.1746
 4850SOL     OW17954   8.744   6.597   9.664 -0.3836  0.1949  0.3044
 4850SOL    HW117955   8.699   6.661   9.609 -0.8168  1.4394  2.0399
 4850SOL    HW217956   8.836   6.604   9.639 -0.8108 -0.6132 -1.5547
 4851SOL     OW17957   2.132   5.794   2.959  0.1529 -0.6112 -0.1473
 4851SOL    HW117958   2.163   5.725   3.018  0.1965 -1.0224 -0.6498
 4851SOL    HW217959   2.081   5.748   2.892  1.8482 -0.3888 -1.6362
 4852SOL     OW17960   3.668   4.146   6.031 -0.3549  0.4443  0.4631
 4852SOL    HW117961   3.691   4.177   6.119 -1.8609 -0.9752  1.3910
 4852SOL    HW217962   3.587   4.194   6.010 -0.7319 -0.2118  0.4184
 4853SOL     OW17963   3.285   1.649   6.162  0.0626 -0.1127  0.2276
 4853SOL    HW117964   3.310   1.666   6.253  0.3914  1.1537 -0.0952
 4853SOL    HW217965   3.189   1.647   6.163  0.0471  0.8652  0.4276
 4854SOL     OW17966   1.001   5.278   5.740  0.3945  0.1515 -0.2373
 4854SOL    HW117967   0.952   5.231   5.807  1.8695 -2.0940 -0.7051
 4854SOL    HW217968   1.092   5.278   5.772  0.7877  0.7157 -1.3211
 4855SOL     OW17969   2.293   0.211   3.459  0.0419  0.0581 -0.6194
 4855SOL    HW117970   2.246   0.293   3.471  1.1625  0.6882 -0.4905
 4855SOL    HW217971   2.370   0.235   3.407  1.3435 -0.5759  0.9848
 4856SOL     OW17972  10.264   0.563   0.910  0.1617 -0.5347  0.2722
 4856SOL    HW117973  10.179   0.606   0.896  0.9738  1.5680  1.5420
 4856SOL    HW217974  10.249   0.472   0.883 -2.1411  0.0809 -0.7059
 4857SOL     OW17975   7.540   2.301   3.667 -0.1312  0.0894 -0.0247
 4857SOL    HW117976   7.474   2.238   3.696  0.0584  0.6047  1.6162
 4857SOL    HW217977   7.587   2.257   3.596 -0.4617 -1.3326  0.6266
 4858SOL     OW17978   4.557   5.872   2.240 -0.1532 -0.1834 -0.1272
 4858SOL    HW117979   4.549   5.809   2.168 -0.4667 -0.3927  0.0926
 4858SOL    HW217980   4.624   5.935   2.210 -0.8640  0.1903 -0.9353
 4859SOL     OW17981   7.036   7.765   9.329 -0.7113 -0.1689 -0.2438
 4859SOL    HW117982   6.959   7.787   9.276 -1.0612 -0.3725  0.1845
 4859SOL    HW217983   7.088   7.846   9.330 -1.0128  0.0253 -0.3607
 4860SOL     OW17984   5.059   1.594   7.211 -0.2248 -0.2221 -0.5073
 4860SOL    HW117985   5.110   1.575   7.290  0.4473 -0.2808 -0.9482
 4860SOL    HW217986   5.115   1.653   7.160 -0.6603 -0.1692 -0.9271
 4861SOL     OW17987   2.171   2.377   6.668 -0.1367 -0.0187  0.0122
 4861SOL    HW117988   2.169   2.342   6.579  1.1757  0.2223 -0.1316
 4861SOL    HW217989   2.105   2.446   6.669  1.3875  1.5140 -1.4497
 4862SOL     OW17990   9.093   4.537   0.467  0.2045 -0.4622  0.4060
 4862SOL    HW117991   9.128   4.597   0.533  0.5513 -0.4105  0.1776
 4862SOL    HW217992   9.155   4.542   0.395 -0.4391 -0.1476 -0.1320
 4863SOL     OW17993   2.893   0.760   3.212  0.1688 -0.4377 -0.3906
 4863SOL    HW117994   2.930   0.706   3.281 -0.9867 -0.4300  0.2393
 4863SOL    HW217995   2.948   0.838   3.210 -2.0802  1.3327  3.1421
 4864SOL     OW17996   5.082   9.199   5.727  0.3961  0.0415 -0.1641
 4864SOL    HW117997   5.064   9.235   5.814 -0.1674  0.3111 -0.3851
 4864SOL    HW217998   5.003   9.220   5.676  0.4423 -0.7024 -0.5502
 4865SOL     OW17999   7.249   1.136   8.407 -0.4083  0.1653  0.2057
 4865SOL    HW118000   7.343   1.116   8.408 -0.5182 -0.3547  0.1727
 4865SOL    HW218001   7.233   1.172   8.320 -0.0868  0.9958  0.4843
 4866SOL     OW18002   1.434   8.255   7.368 -0.3069 -0.2698 -1.1124
 4866SOL    HW118003   1.489   8.183   7.398  0.8850  2.0471  2.5252
 4866SOL    HW218004   1.345   8.224   7.379  0.1496 -0.5260  2.4399
 4867SOL     OW18005   6.350   2.767   3.273  0.3599 -0.3801 -0.0457
 4867SOL    HW118006   6.264   2.754   3.313  0.8968  0.4106  1.4084
 4867SOL    HW218007   6.335   2.755   3.180 -1.4682  0.4149  0.1179
 4868SOL     OW18008   3.010   1.789   9.681 -0.1162 -0.0388 -0.1940
 4868SOL    HW118009   3.069   1.766   9.609 -1.1169 -0.5244 -0.8609
 4868SOL    HW218010   3.052   1.753   9.759  0.0799 -1.0689 -0.7674
 4869SOL     OW18011   3.508   8.547  10.606  0.2042 -0.3818  0.1314
 4869SOL    HW118012   3.568   8.478  10.636 -0.7852 -0.9001  0.9408
 4869SOL    HW218013   3.550   8.583  10.528  1.5107 -0.8308  0.6092
 4870SOL     OW18014   3.848   1.591   3.803 -0.4927  0.3126 -0.9265
 4870SOL    HW118015   3.774   1.652   3.798  0.0195  0.7532 -3.7676
 4870SOL    HW218016   3.806   1.505   3.818 -1.1892  1.2865  3.4377
 4871SOL     OW18017   3.802   2.349  10.261 -0.0596  0.1409 -0.3354
 4871SOL    HW118018   3.786   2.427  10.313  0.3882 -1.3653  2.1461
 4871SOL    HW218019   3.716   2.308  10.250 -0.1841  0.5692 -0.9830
 4872SOL     OW18020   5.863   3.849   6.367  0.2464 -0.5307  0.6368
 4872SOL    HW118021   5.896   3.894   6.445 -2.4919 -0.0535  1.5825
 4872SOL    HW218022   5.828   3.919   6.312  1.2410 -0.9678 -0.5487
 4873SOL     OW18023  10.929   7.571   7.112  0.8045 -0.7087 -0.2587
 4873SOL    HW118024  10.958   7.642   7.169  0.9506 -1.5492  0.7295
 4873SOL    HW218025  11.007   7.517   7.099  1.4304  0.8224 -3.3356
 4874SOL     OW18026   3.090   4.588   9.366  0.1102 -0.1107 -0.4404
 4874SOL    HW118027   3.115   4.657   9.427 -3.0386 -0.5201  1.3868
 4874SOL    HW218028   3.032   4.630   9.303  2.8640  0.1690 -2.9236
 4875SOL     OW18029  10.473   1.920   9.950 -0.2489  0.3158 -0.0279
 4875SOL    HW118030  10.418   1.937  10.026 -1.4480  1.3376 -1.0854
 4875SOL    HW218031  10.412   1.917   9.876  1.1674  2.2999 -1.3443
 4876SOL     OW18032   6.448   5.968   4.630 -0.1737 -0.5084 -0.6219
 4876SOL    HW118033   6.390   5.985   4.556 -1.4893 -1.2562  0.2043
 4876SOL    HW218034   6.396   5.993   4.707  1.1382  0.1820  0.0620
 4877SOL     OW18035   7.650   3.527  10.129  0.3567  0.4065  0.6707
 4877SOL    HW118036   7.569   3.511  10.080  0.7758 -0.6269  0.2791
 4877SOL    HW218037   7.621   3.550  10.217 -0.3667 -1.9727  1.1136
 4878SOL     OW18038   3.924   7.924   0.297  0.1072 -0.3709 -0.2649
 4878SOL    HW118039   3.890   7.939   0.209  1.2818  2.1905 -0.3469
 4878SOL    HW218040   4.004   7.874   0.284  1.5248  1.9707 -0.9115
 4879SOL     OW18041  10.811   2.639   1.178 -0.0871  0.5011  0.0231
 4879SOL    HW118042  10.744   2.706   1.167 -0.3088  0.3125  0.1986
 4879SOL    HW218043  10.857   2.664   1.258 -1.8335 -0.9519  1.5296
 4880SOL     OW18044   2.878   7.226   8.000 -0.1649 -0.1444 -0.0616
 4880SOL    HW118045   2.842   7.137   8.001 -1.0939  0.2153 -0.7932
 4880SOL    HW218046   2.908   7.240   8.090 -0.3966 -1.0465  0.1651
 4881SOL     OW18047   3.980  10.294   9.665  0.0833 -0.5060  0.3350
 4881SOL    HW118048   3.930  10.315   9.586  0.3681 -1.1248 -0.0164
 4881SOL    HW218049   3.914  10.284   9.733 -0.1457  0.2917  0.2278
 4882SOL     OW18050   1.740   8.899   3.134  0.2771 -0.6414  0.7290
 4882SOL    HW118051   1.720   8.986   3.168  0.8844 -0.1367 -0.1624
 4882SOL    HW218052   1.655   8.860   3.115  0.0460  0.3852 -0.3734
 4883SOL     OW18053   7.824   8.578   5.059 -0.1961 -0.1056  0.1477
 4883SOL    HW118054   7.876   8.508   5.021 -1.9157 -1.6323  0.5321
 4883SOL    HW218055   7.748   8.586   5.001 -0.0883  1.3739  0.1715
 4884SOL     OW18056   4.533   2.864  10.198 -0.4341  0.0744  0.6521
 4884SOL    HW118057   4.600   2.795  10.197 -1.1086 -0.6218  1.9267
 4884SOL    HW218058   4.471   2.838  10.131  1.4056  1.6208 -1.7630
 4885SOL     OW18059   7.526  10.519   2.241 -0.4750 -1.0118  0.8512
 4885SOL    HW118060   7.445  10.473   2.224 -0.2470 -0.5316 -1.7621
 4885SOL    HW218061   7.591  10.475   2.187  0.0244  1.4659 -0.6557
 4886SOL     OW18062   0.222   5.768   1.854  0.2298  0.0709  0.7320
 4886SOL    HW118063   0.289   5.718   1.808  0.8163  0.9140  0.6608
 4886SOL    HW218064   0.259   5.784   1.941 -0.0087  0.2695  0.7985
 4887SOL     OW18065   6.712   3.174   7.127 -1.0645  0.7390 -0.7566
 4887SOL    HW118066   6.678   3.264   7.127  0.0986  1.1927 -0.5715
 4887SOL    HW218067   6.787   3.178   7.068  0.0827  0.3025  0.6648
 4888SOL     OW18068   7.916   1.062   1.831  0.4748 -0.6008  0.3291
 4888SOL    HW118069   7.895   1.020   1.747 -2.6743 -0.1333  0.8131
 4888SOL    HW218070   7.915   0.990   1.894 -0.5018 -0.4708  0.4694
 4889SOL     OW18071   8.463   9.349   0.893 -0.4418  0.0835 -0.1102
 4889SOL    HW118072   8.547   9.344   0.940 -0.5780 -0.6808  0.0394
 4889SOL    HW218073   8.408   9.282   0.933 -1.0652  0.4528 -0.3416
 4890SOL     OW18074   4.800   7.327   9.226  0.4196  0.0715  0.2643
 4890SOL    HW118075   4.815   7.363   9.314  0.1041  0.2834  0.2284
 4890SOL    HW218076   4.716   7.281   9.233  0.8762 -0.7676  0.3442
 4891SOL     OW18077   9.562   7.692   9.662 -0.3860  0.1551 -0.2542
 4891SOL    HW118078   9.503   7.643   9.719 -0.3085  2.2361  1.6582
 4891SOL    HW218079   9.650   7.661   9.685 -0.4124  0.3840  0.1554
 4892SOL     OW18080   4.504   1.587   9.188 -0.4254  0.4758  0.5111
 4892SOL    HW118081   4.435   1.525   9.212 -0.0259  0.4121  1.4926
 4892SOL    HW218082   4.476   1.671   9.226  0.9085  0.0671  2.4581
 4893SOL     OW18083  10.642   9.452   8.052  0.7159 -0.2840 -0.6721
 4893SOL    HW118084  10.707   9.465   8.121 -0.3000 -1.2471  0.4920
 4893SOL    HW218085  10.559   9.443   8.098  0.4191 -4.0283 -1.7775
 4894SOL     OW18086   8.801   2.991   8.683  0.1103 -0.2675  0.2917
 4894SOL    HW118087   8.763   3.043   8.612  2.4276 -0.1347 -0.8875
 4894SOL    HW218088   8.861   3.051   8.727  2.6821 -1.8394 -0.9706
 4895SOL     OW18089   7.334   9.740   0.233  0.1430 -0.2124 -0.1101
 4895SOL    HW118090   7.401   9.691   0.280  0.6483 -0.3675 -0.9885
 4895SOL    HW218091   7.371   9.828   0.224  0.5899 -0.5085 -1.3072
 4896SOL     OW18092   7.660   3.077   6.668 -0.1861  0.3429  0.1479
 4896SOL    HW118093   7.706   3.092   6.751 -0.4565  0.1647  0.3298
 4896SOL    HW218094   7.662   3.162   6.624 -0.2642  0.4982  0.4485
 4897SOL     OW18095  10.250   4.407   1.310 -0.2466 -0.2011  0.0897
 4897SOL    HW118096  10.313   4.357   1.257  0.1212  0.6663 -0.2925
 4897SOL    HW218097  10.262   4.498   1.283  1.4716  0.5628  3.1667
 4898SOL     OW18098   5.964   7.324   9.600  0.3038 -0.1356 -0.3229
 4898SOL    HW118099   5.984   7.317   9.693  1.8591 -1.2048 -0.7030
 4898SOL    HW218100   6.048   7.306   9.556 -0.0578  1.8620 -1.9029
 4899SOL     OW18101   1.798   9.001  10.254  0.3299  0.5888 -0.2492
 4899SOL    HW118102   1.736   9.007  10.327 -0.2406 -1.5353 -0.5055
 4899SOL    HW218103   1.778   9.075  10.198 -1.7195  0.1659 -0.1002
 4900SOL     OW18104   1.807   8.029   3.578  0.1837 -0.1221 -0.2857
 4900SOL    HW118105   1.786   7.940   3.604  1.9699 -0.7256 -0.8143
 4900SOL    HW218106   1.758   8.084   3.639 -3.0749 -1.3889 -1.6447
 4901SOL     OW18107   9.007   2.691  10.193 -0.4121  0.2545 -0.7589
 4901SOL    HW118108   9.091   2.668  10.233 -0.0200  0.6112 -1.3661
 4901SOL    HW218109   9.031   2.739  10.114 -1.2048  1.5987 -0.1982
 4902SOL     OW18110   3.793  10.638  10.942 -0.0417  0.0170  0.7173
 4902SOL    HW118111   3.857  10.614  10.875 -0.7113  0.7138 -0.1902
 4902SOL    HW218112   3.714  10.589  10.919  0.1016 -0.6654  1.6977
 4903SOL     OW18113   7.084   3.987   3.935 -0.3749  0.1420 -0.2553
 4903SOL    HW118114   7.073   4.057   3.871 -0.9882  0.2506 -0.0343
 4903SOL    HW218115   7.177   3.964   3.930 -0.4373  0.0988 -1.2339
 4904SOL     OW18116   8.330   9.242   3.897 -0.1476  0.4746 -0.2045
 4904SOL    HW118117   8.418   9.275   3.910 -0.3213  1.2273 -0.8754
 4904SOL    HW218118   8.298   9.288   3.819 -0.6428 -0.7841 -0.7565
 4905SOL     OW18119   9.175  10.564   3.225  0.5292 -0.7156 -0.3935
 4905SOL    HW118120   9.269  10.577   3.226  0.6038 -1.1491 -1.2940
 4905SOL    HW218121   9.158  10.507   3.300  0.7799  0.6637  0.7114
 4906SOL     OW18122   7.670   3.650   1.175 -0.5592 -0.2969 -0.3539
 4906SOL    HW118123   7.716   3.730   1.204  0.0026 -1.2853  1.5805
 4906SOL    HW218124   7.593   3.683   1.129  2.3410  1.4226 -4.2678
 4907SOL     OW18125   5.222   3.741   1.897  0.1367  0.4013  0.1022
 4907SOL    HW118126   5.146   3.699   1.937  1.3991 -0.7254  1.4116
 4907SOL    HW218127   5.288   3.739   1.966  1.8353 -0.0178 -1.4960
 4908SOL     OW18128   5.872   0.959   5.908  0.4576  0.1284  0.3887
 4908SOL    HW118129   5.891   1.043   5.867  0.9213  0.1312  0.6119
 4908SOL    HW218130   5.859   0.979   6.000  0.8586 -0.0810  0.4953
 4909SOL     OW18131   9.245   1.217   9.230 -0.0102  0.4984 -0.1695
 4909SOL    HW118132   9.336   1.207   9.257  0.4704  0.3488 -1.7978
 4909SOL    HW218133   9.194   1.176   9.300  1.2228 -0.3027  0.2612
 4910SOL     OW18134   1.437   9.680   6.230 -0.5606 -0.2909 -0.5069
 4910SOL    HW118135   1.370   9.687   6.298  1.0252  0.4534  1.0473
 4910SOL    HW218136   1.518   9.661   6.278  0.5518 -0.0182 -2.2134
 4911SOL     OW18137   0.258   7.813   0.564 -0.1492  0.4217 -0.8894
 4911SOL    HW118138   0.341   7.827   0.518  0.2423 -0.2622 -0.4039
 4911SOL    HW218139   0.263   7.722   0.595 -0.0667  1.0963  1.1722
 4912SOL     OW18140  10.805   1.224   2.389  0.3264  0.1618 -0.3835
 4912SOL    HW118141  10.743   1.222   2.316  0.3875 -0.0900 -0.4275
 4912SOL    HW218142  10.761   1.277   2.456  0.3149  0.4774 -0.6409
 4913SOL     OW18143   3.381   4.631   0.667  0.0605  0.0806  0.6289
 4913SOL    HW118144   3.299   4.637   0.619  0.6145  1.9664 -0.1493
 4913SOL    HW218145   3.448   4.622   0.599  0.6515  0.4414  1.1528
 4914SOL     OW18146   7.991   5.828   0.231  0.6552  0.0663  0.2104
 4914SOL    HW118147   7.955   5.917   0.228  0.6935  0.1418  1.4776
 4914SOL    HW218148   8.033   5.822   0.317  2.0301 -0.6613 -0.4857
 4915SOL     OW18149   3.833   4.573   9.974 -0.0363 -0.5885 -0.1886
 4915SOL    HW118150   3.924   4.565   9.946 -0.5080 -1.5517 -1.4999
 4915SOL    HW218151   3.814   4.667   9.965  0.8170 -0.3840  0.0925
 4916SOL     OW18152   0.432   0.655   8.199  0.2718 -0.2337 -0.6900
 4916SOL    HW118153   0.379   0.696   8.131 -0.9391 -0.4554  0.1108
 4916SOL    HW218154   0.445   0.724   8.264 -2.5989 -1.3358  1.1379
 4917SOL     OW18155   9.129   3.598   7.387 -0.0632  0.3925  0.5634
 4917SOL    HW118156   9.220   3.578   7.367  0.0524  1.1761  0.3021
 4917SOL    HW218157   9.093   3.631   7.305 -0.6915 -0.2988  0.5558
 4918SOL     OW18158   3.950   3.081   5.487 -0.0043 -0.1749 -0.2865
 4918SOL    HW118159   3.987   3.042   5.409  3.2098  1.4446  0.3289
 4918SOL    HW218160   3.945   3.010   5.551 -0.7743 -1.0514 -1.3151
 4919SOL     OW18161   5.805   5.763   8.348 -0.3937  0.1202 -0.1343
 4919SOL    HW118162   5.897   5.752   8.368 -0.1168  2.1265 -0.1410
 4919SOL    HW218163   5.804   5.802   8.260 -1.3561 -2.2953 -1.2609
 4920SOL     OW18164   3.512   0.177   3.477 -0.2278 -0.4140  0.3839
 4920SOL    HW118165   3.551   0.097   3.443 -0.9234 -0.5220 -0.1569
 4920SOL    HW218166   3.429   0.186   3.431 -0.3931  0.3475  0.8094
 4921SOL     OW18167   2.225   6.486   9.242  0.4731 -0.5976  0.2905
 4921SOL    HW118168   2.319   6.472   9.253  0.9295  1.8927 -0.0591
 4921SOL    HW218169   2.212   6.483   9.147  0.5363  0.8226  0.2221
 4922SOL     OW18170  10.649   3.889   0.272  0.1784  0.1365  0.3778
 4922SOL    HW118171  10.711   3.961   0.258 -0.8004  1.2675  1.8155
 4922SOL    HW218172  10.566   3.931   0.292 -0.3577 -1.4011  1.4929
 4923SOL     OW18173   3.927   1.758   8.471  0.2398 -0.3362 -0.4837
 4923SOL    HW118174   3.954   1.696   8.539 -0.9979 -0.8675 -0.4732
 4923SOL    HW218175   4.004   1.813   8.457  0.1634  0.4519  2.0758
 4924SOL     OW18176   7.086   0.394   6.643  0.3294 -0.2332 -0.8542
 4924SOL    HW118177   7.148   0.404   6.715  0.5015 -0.4611 -0.9698
 4924SOL    HW218178   7.133   0.426   6.566 -0.8254  2.7177 -0.4226
 4925SOL     OW18179   1.276   9.782   2.889 -0.6701  0.1583  0.3669
 4925SOL    HW118180   1.256   9.820   2.974  2.0025  1.6138  0.4052
 4925SOL    HW218181   1.201   9.726   2.870 -1.3410 -0.2062  3.6672
 4926SOL     OW18182   0.585   3.333   7.290 -0.3401 -0.0524 -0.1033
 4926SOL    HW118183   0.490   3.325   7.279 -0.0653 -0.0592 -2.8559
 4926SOL    HW218184   0.616   3.243   7.300 -0.3235 -0.3297 -2.3572
 4927SOL     OW18185   8.088   3.029   0.500  0.4312 -0.1358  0.4568
 4927SOL    HW118186   8.111   2.970   0.427  1.5772  0.6918  0.1309
 4927SOL    HW218187   7.993   3.035   0.497  0.4112 -0.7833 -0.4562
 4928SOL     OW18188   2.149   0.435   7.171  0.1633 -0.2230 -0.6750
 4928SOL    HW118189   2.126   0.383   7.248  2.4035  0.8191  0.7660
 4928SOL    HW218190   2.085   0.410   7.104 -0.1773 -3.1613  0.6794
 4929SOL     OW18191   1.404   4.012   7.098  0.0638 -0.2855  0.4747
 4929SOL    HW118192   1.439   4.070   7.166  1.8243  0.0446 -0.6635
 4929SOL    HW218193   1.477   3.999   7.037 -1.4746 -0.5424 -1.3875
 4930SOL     OW18194   9.906   0.392   7.933 -0.2294 -0.5293 -0.2409
 4930SOL    HW118195   9.909   0.337   7.856 -0.6527  0.3776 -0.9140
 4930SOL    HW218196   9.815   0.419   7.940 -0.3136 -1.0862  0.9191
 4931SOL     OW18197   0.775   1.875   7.224 -0.1569 -0.3253  0.0105
 4931SOL    HW118198   0.829   1.915   7.292 -0.6148 -0.6757  0.5843
 4931SOL    HW218199   0.711   1.942   7.202  1.8842  0.9221 -2.2713
 4932SOL     OW18200   4.588   1.779  10.874  0.4713 -0.2981 -0.5126
 4932SOL    HW118201   4.643   1.764  10.950 -1.4003  1.2029  1.1673
 4932SOL    HW218202   4.551   1.693  10.853  0.2006 -0.5230  0.8917
 4933SOL     OW18203   4.717   8.117   9.915 -0.0273 -0.6179  0.1137
 4933SOL    HW118204   4.701   8.085  10.004 -1.5702  2.6275  1.1096
 4933SOL    HW218205   4.750   8.206   9.928  1.2310 -0.6644 -2.5368
 4934SOL     OW18206   7.226   4.319   3.986 -0.5725 -0.1339 -0.2086
 4934SOL    HW118207   7.320   4.336   3.983 -0.7044  1.0496  1.6293
 4934SOL    HW218208   7.205   4.313   4.079 -2.2552 -0.8088 -0.6052
 4935SOL     OW18209   8.438   1.389   4.930  0.8503  0.4222  0.5049
 4935SOL    HW118210   8.421   1.365   5.021  1.1533  1.9696  0.9796
 4935SOL    HW218211   8.354   1.417   4.896  1.1843  2.1351  1.0305
 4936SOL     OW18212   1.062   9.003   9.276 -0.0752 -0.2973  0.0787
 4936SOL    HW118213   1.153   9.025   9.296  0.1590  0.3822 -1.6431
 4936SOL    HW218214   1.048   9.036   9.188 -1.5609 -1.7087 -0.2488
 4937SOL     OW18215   9.170   1.373   1.447 -0.3772  0.1293  0.2693
 4937SOL    HW118216   9.182   1.280   1.463 -0.3731  0.2467  0.9755
 4937SOL    HW218217   9.248   1.399   1.398 -0.4953 -0.2855 -0.1399
 4938SOL     OW18218   6.895   2.153   8.928  0.4039 -0.1274 -0.3749
 4938SOL    HW118219   6.861   2.240   8.905 -2.5163 -1.0996  0.1426
 4938SOL    HW218220   6.937   2.166   9.013 -1.2720  0.5020  0.3719
 4939SOL     OW18221   9.631   8.058   5.813  0.5955  0.1710  0.4588
 4939SOL    HW118222   9.557   8.024   5.863  0.7027 -0.3390  0.2814
 4939SOL    HW218223   9.595   8.131   5.763  0.1783 -0.1463  0.2849
 4940SOL     OW18224   8.473   1.424   9.207 -0.0722 -0.1379 -0.1011
 4940SOL    HW118225   8.559   1.434   9.167  0.4798 -0.0719  1.0816
 4940SOL    HW218226   8.437   1.344   9.167  0.5267 -0.1609 -0.6066
 4941SOL     OW18227   7.092   4.884   1.762  0.2325 -0.1115  0.2722
 4941SOL    HW118228   7.014   4.940   1.769 -0.3919 -0.9866  0.3526
 4941SOL    HW218229   7.165   4.946   1.757 -0.5370  0.7288 -0.8021
 4942SOL     OW18230   6.302   8.602   4.597 -0.2731 -0.9301 -0.4725
 4942SOL    HW118231   6.209   8.622   4.603  0.1209  0.9001 -0.1908
 4942SOL    HW218232   6.324   8.616   4.505  0.0174  0.0355 -0.2619
 4943SOL     OW18233  10.619   4.165  10.842  0.1529  0.6279 -0.2873
 4943SOL    HW118234  10.685   4.100  10.866 -2.0797 -1.1281  1.3175
 4943SOL    HW218235  10.639   4.240  10.899 -0.7299 -0.8431  2.0613
 4944SOL     OW18236   7.701   3.373   8.846  0.2002  0.2092 -0.2447
 4944SOL    HW118237   7.627   3.429   8.822 -0.7268 -0.7342  0.3547
 4944SOL    HW218238   7.745   3.420   8.917  0.6722  1.1697 -1.1694
 4945SOL     OW18239   3.502  10.767   5.357 -0.0337  0.1957 -0.4481
 4945SOL    HW118240   3.442  10.709   5.310  0.0466  1.5514 -2.2831
 4945SOL    HW218241   3.579  10.713   5.374 -0.6027 -0.7129 -0.7074
 4946SOL     OW18242   1.791  10.500   9.530  0.3155 -0.0032  0.0638
 4946SOL    HW118243   1.740  10.579   9.545 -1.4215 -1.0878  0.0242
 4946SOL    HW218244   1.779  10.481   9.437 -1.2029 -1.5682  0.5366
 4947SOL     OW18245  10.769   7.379  10.615 -0.1854  0.3721  0.2831
 4947SOL    HW118246  10.691   7.372  10.561  0.4034  0.0560 -0.5435
 4947SOL    HW218247  10.740   7.423  10.695 -1.1950  0.2722 -0.0284
 4948SOL     OW18248   7.147   1.875   8.078 -0.1183  0.2926 -0.9223
 4948SOL    HW118249   7.162   1.880   7.983 -0.8713  2.3063 -0.9467
 4948SOL    HW218250   7.107   1.959   8.101  0.7765  0.1374  1.3287
 4949SOL     OW18251   0.698   8.587   7.806  0.2102 -0.8427 -0.1570
 4949SOL    HW118252   0.781   8.584   7.854  0.4977  1.5754 -0.4416
 4949SOL    HW218253   0.668   8.496   7.806  2.7733 -1.7487  0.0820
 4950SOL     OW18254   3.695   3.517  10.600  1.0562  0.7830 -0.1070
 4950SOL    HW118255   3.691   3.440  10.657  1.3215  1.2914  0.6127
 4950SOL    HW218256   3.770   3.567  10.633  0.2497  1.8699  0.0963
 4951SOL     OW18257  10.018   7.800   4.073  0.5267 -0.9158 -0.3622
 4951SOL    HW118258   9.932   7.807   4.031  0.7589 -0.4951 -0.7823
 4951SOL    HW218259  10.061   7.728   4.028  0.1786 -1.4972  0.2392
 4952SOL     OW18260  10.978   1.729   9.468 -0.3784  0.6212  0.2469
 4952SOL    HW118261  10.905   1.670   9.449  0.3050  0.5046 -2.2136
 4952SOL    HW218262  10.962   1.759   9.558 -1.5017 -2.1704  1.0111
 4953SOL     OW18263   6.080   4.660   1.237 -0.3199 -0.2912  0.5023
 4953SOL    HW118264   6.133   4.680   1.314 -0.0035 -0.8925  0.4409
 4953SOL    HW218265   6.048   4.746   1.208  2.0916  0.3186 -0.5387
 4954SOL     OW18266   8.874   9.940   6.542  0.0519 -0.9160  0.1339
 4954SOL    HW118267   8.825   9.871   6.587 -2.3083  1.5249  1.4135
 4954SOL    HW218268   8.931   9.977   6.610 -2.1226  1.4869  0.7317
 4955SOL     OW18269   2.718  10.252   1.674 -0.1440  0.4199  0.2774
 4955SOL    HW118270   2.743  10.323   1.614 -0.6691 -0.7079 -1.3273
 4955SOL    HW218271   2.622  10.248   1.667  0.0459 -1.9823 -1.4849
 4956SOL     OW18272   5.155   7.947   6.387  0.0473 -0.1942 -0.1791
 4956SOL    HW118273   5.180   7.868   6.435  0.7070  0.0919 -0.0444
 4956SOL    HW218274   5.156   7.921   6.295  1.2937 -0.0597 -0.2008
 4957SOL     OW18275  10.551   0.342   9.993 -0.1688 -0.0442  0.2142
 4957SOL    HW118276  10.503   0.386  10.064 -2.2970 -0.8462 -0.6999
 4957SOL    HW218277  10.507   0.371   9.913  1.6753  0.1664 -0.7466
 4958SOL     OW18278   2.438   6.929   1.922 -0.1315  0.0653 -0.1320
 4958SOL    HW118279   2.482   7.011   1.944 -1.5932  0.4821  1.3106
 4958SOL    HW218280   2.408   6.941   1.832  1.0421  0.4823 -0.4830
 4959SOL     OW18281   1.388   4.471   2.683  0.2744  0.0216  0.1803
 4959SOL    HW118282   1.434   4.396   2.720  2.2096  1.0642 -0.0679
 4959SOL    HW218283   1.341   4.510   2.757  1.3231  0.0568  0.8283
 4960SOL     OW18284   6.485   1.501   3.906 -0.0193 -0.5707  0.2020
 4960SOL    HW118285   6.550   1.453   3.957  0.7021 -0.7200 -0.8454
 4960SOL    HW218286   6.526   1.514   3.821  0.1527  2.5977  0.6748
 4961SOL     OW18287   3.369  10.553   0.614 -0.6499  0.0343  0.1267
 4961SOL    HW118288   3.367  10.505   0.531  0.8740  0.7817 -0.3543
 4961SOL    HW218289   3.290  10.607   0.612 -1.6512 -1.3910  0.0495
 4962SOL     OW18290   4.815   4.965   7.515  0.2173  0.7707  0.0956
 4962SOL    HW118291   4.771   4.941   7.597 -3.2033  1.3270 -1.4735
 4962SOL    HW218292   4.813   4.885   7.463  0.8816  0.8785 -0.0995
 4963SOL     OW18293   8.172   4.830   7.947 -0.0219  0.0215  0.1697
 4963SOL    HW118294   8.115   4.765   7.906 -0.8603  1.6065 -1.2491
 4963SOL    HW218295   8.203   4.884   7.874  3.6161 -1.0098  0.8598
 4964SOL     OW18296  10.742   5.084   9.640 -0.6452 -0.1352  0.0974
 4964SOL    HW118297  10.717   4.998   9.607 -0.8636 -0.6297  1.5154
 4964SOL    HW218298  10.823   5.105   9.593  0.4634 -1.9787  1.1485
 4965SOL     OW18299   2.252   8.372   8.458 -0.0607 -0.4525 -0.0736
 4965SOL    HW118300   2.345   8.390   8.475  0.0832  0.1854 -1.4153
 4965SOL    HW218301   2.253   8.290   8.408 -0.2959 -1.0248  0.8670
 4966SOL     OW18302   5.443   0.310   2.271 -0.4556 -0.1821 -0.0824
 4966SOL    HW118303   5.535   0.323   2.247 -0.7253  0.3504 -0.8189
 4966SOL    HW218304   5.446   0.287   2.364  0.4184 -0.1045 -0.0875
 4967SOL     OW18305   4.386   8.627   2.559 -0.5872  0.4403  0.2063
 4967SOL    HW118306   4.399   8.534   2.580 -4.3441 -0.5105 -1.2541
 4967SOL    HW218307   4.397   8.632   2.464 -2.6910  1.0275 -0.0160
 4968SOL     OW18308   5.214   0.932  10.371 -0.5001 -0.2711  0.1261
 4968SOL    HW118309   5.232   1.004  10.432  0.5117  1.0250 -1.6635
 4968SOL    HW218310   5.169   0.974  10.298 -0.3597 -1.5582 -0.7051
 4969SOL     OW18311   8.483   2.581   8.089 -0.0137  0.0186 -0.3172
 4969SOL    HW118312   8.547   2.653   8.082 -0.9541  0.9602  0.6351
 4969SOL    HW218313   8.411   2.608   8.032 -0.5866  0.0666  0.4261
 4970SOL     OW18314  10.673   3.305  10.154  0.2684  0.3471  0.3039
 4970SOL    HW118315  10.720   3.326  10.073 -1.0199  0.9187 -0.3033
 4970SOL    HW218316  10.675   3.209  10.158 -0.8261  0.2486 -1.1151
 4971SOL     OW18317   6.902   4.409   7.990 -0.7842 -0.3385  0.0629
 4971SOL    HW118318   6.933   4.487   7.944 -2.2772  0.2441  0.0079
 4971SOL    HW218319   6.887   4.345   7.921 -1.1663 -0.1007 -0.0824
 4972SOL     OW18320   6.282   8.963   5.974  0.5977  0.6442 -0.2027
 4972SOL    HW118321   6.375   8.967   5.951  0.2886  0.5183 -1.5179
 4972SOL    HW218322   6.237   8.997   5.897 -0.3191  3.5616  1.5403
 4973SOL     OW18323   4.793   7.236   6.501 -0.0807  0.3283 -0.2404
 4973SOL    HW118324   4.766   7.191   6.421  0.1560  1.0550 -0.7395
 4973SOL    HW218325   4.726   7.302   6.514 -0.3464 -0.0684  0.4045
 4974SOL     OW18326   5.509   5.225   9.869 -0.5716 -0.3464  0.1812
 4974SOL    HW118327   5.557   5.250   9.949 -1.9534  0.1833  0.8703
 4974SOL    HW218328   5.503   5.130   9.873  0.0019 -0.3767  0.3448
 4975SOL     OW18329   2.062   6.292   5.381  0.3449  0.2138 -0.2421
 4975SOL    HW118330   2.062   6.325   5.471  1.5538  1.4828 -0.6857
 4975SOL    HW218331   2.062   6.371   5.327 -0.7386 -0.5426 -1.3659
 4976SOL     OW18332   1.775   7.012   3.111  0.2668 -0.3530 -0.5335
 4976SOL    HW118333   1.773   7.070   3.035  1.1076  0.4501  0.0560
 4976SOL    HW218334   1.867   6.992   3.125  0.1753  0.0020  0.6566
 4977SOL     OW18335   7.747   4.659   3.530 -0.4909 -0.1311  0.7972
 4977SOL    HW118336   7.838   4.663   3.502 -0.5807 -0.6027  0.4285
 4977SOL    HW218337   7.699   4.636   3.450 -0.7050 -1.9004  1.4180
 4978SOL     OW18338  10.010  10.778   9.691  0.2660  0.5700  0.1002
 4978SOL    HW118339  10.042  10.801   9.604 -1.1134 -1.0232 -0.8682
 4978SOL    HW218340  10.088  10.752   9.740  0.9185  0.4418 -0.9916
 4979SOL     OW18341   2.859  10.455   9.984 -0.0530 -0.1383 -0.8122
 4979SOL    HW118342   2.845  10.438  10.078 -0.2250 -1.9604 -1.1636
 4979SOL    HW218343   2.799  10.528   9.965 -1.3125 -0.9066  0.1010
 4980SOL     OW18344   7.175   9.383   7.860 -0.6065  0.0137  0.6443
 4980SOL    HW118345   7.112   9.438   7.905 -0.5591 -0.7263  1.6428
 4980SOL    HW218346   7.254   9.387   7.915  0.8447  2.3755 -1.5191
 4981SOL     OW18347  10.813   7.285   4.115 -0.7291  0.4002 -0.0482
 4981SOL    HW118348  10.809   7.191   4.094 -2.1211  0.2109  1.0048
 4981SOL    HW218349  10.820   7.287   4.211  2.3361  1.3131 -0.2229
 4982SOL     OW18350   6.141   1.869   5.648 -0.3086  0.1760 -0.6893
 4982SOL    HW118351   6.148   1.957   5.685  2.2845 -0.6219  0.9009
 4982SOL    HW218352   6.150   1.811   5.723  0.8242 -1.4549 -2.0445
 4983SOL     OW18353   8.614   0.431   9.626  0.0097 -0.5285  0.1210
 4983SOL    HW118354   8.639   0.338   9.629  2.1652  0.0654  1.6393
 4983SOL    HW218355   8.656   0.465   9.547 -2.1221 -1.1813 -1.3316
 4984SOL     OW18356   0.850   0.640   2.708 -0.8257 -0.5945  0.3118
 4984SOL    HW118357   0.866   0.644   2.803  1.2333 -0.4136 -0.0057
 4984SOL    HW218358   0.837   0.547   2.691 -0.2842 -0.7426  0.6605
 4985SOL     OW18359   4.130   7.969   2.373  0.0590 -0.1619 -0.1993
 4985SOL    HW118360   4.038   7.970   2.345 -0.2132  0.9002  0.7145
 4985SOL    HW218361   4.130   7.919   2.454 -0.0448  1.5704  0.8890
 4986SOL     OW18362   7.225   2.195   6.257 -0.1544  0.3770 -0.1627
 4986SOL    HW118363   7.268   2.255   6.317 -0.0909  1.6628 -1.4687
 4986SOL    HW218364   7.138   2.234   6.242  0.6626  1.3157 -2.6818
 4987SOL     OW18365   0.800   3.574   0.947 -0.1136 -0.1079  0.4447
 4987SOL    HW118366   0.860   3.588   0.873 -1.8439 -0.9838 -1.1709
 4987SOL    HW218367   0.810   3.652   1.001  2.9253 -0.5053  0.5571
 4988SOL     OW18368   5.578  10.494   3.317  0.3856 -0.5313 -0.3831
 4988SOL    HW118369   5.623  10.516   3.399 -0.6046  1.2128 -0.2915
 4988SOL    HW218370   5.519  10.422   3.340  1.0901 -0.9524  0.1256
 4989SOL     OW18371   3.441   7.591   0.180 -0.4981 -0.5252 -0.3809
 4989SOL    HW118372   3.357   7.590   0.227  0.2425  1.0994  1.0516
 4989SOL    HW218373   3.498   7.534   0.231 -1.1001 -2.7504 -2.1372
 4990SOL     OW18374   6.489   9.033   4.171  0.0122 -0.6788 -0.1744
 4990SOL    HW118375   6.574   9.053   4.130 -0.0661  0.8583  0.4102
 4990SOL    HW218376   6.510   9.017   4.263 -0.7150  2.8353  0.6527
 4991SOL     OW18377   5.234   5.584   3.297  0.3086  0.1578  0.6274
 4991SOL    HW118378   5.196   5.612   3.380  1.0663  2.0246  0.3679
 4991SOL    HW218379   5.170   5.611   3.231  0.6558  0.5423  0.4450
 4992SOL     OW18380   7.866   4.367   1.331 -0.0496  0.8535 -0.1564
 4992SOL    HW118381   7.925   4.376   1.406  0.7541 -0.6182 -0.5966
 4992SOL    HW218382   7.898   4.431   1.268  0.8979  0.2737 -0.2722
 4993SOL     OW18383   9.818   7.767   4.934  0.2854 -0.1190 -0.5086
 4993SOL    HW118384   9.761   7.691   4.929  2.4567 -1.8131 -0.0968
 4993SOL    HW218385   9.904   7.734   4.908  1.2192  2.2458 -0.5259
 4994SOL     OW18386   9.839   0.563   9.635  0.2413 -0.6641 -0.5848
 4994SOL    HW118387   9.885   0.490   9.675  1.6858  0.1027 -0.7911
 4994SOL    HW218388   9.865   0.560   9.543 -0.7388 -0.6714 -0.8698
 4995SOL     OW18389  10.224   6.797   7.899 -0.0848 -0.0951  0.2663
 4995SOL    HW118390  10.244   6.793   7.993  0.9778  1.2965  0.1210
 4995SOL    HW218391  10.214   6.891   7.881  1.6121 -0.2184 -1.3971
 4996SOL     OW18392   3.486   1.518  10.865  0.1940  0.3593 -0.5228
 4996SOL    HW118393   3.451   1.444  10.815  1.5420 -0.5300 -0.1960
 4996SOL    HW218394   3.520   1.578  10.799  0.3664  0.0297 -0.7326
 4997SOL     OW18395   0.335   9.233  10.297 -0.1177  0.2611  0.1014
 4997SOL    HW118396   0.271   9.303  10.310 -1.3699 -0.8119 -0.2767
 4997SOL    HW218397   0.372   9.250  10.210 -0.0020  0.7797  0.2501
 4998SOL     OW18398   4.798   4.933   9.977  0.4497  0.9233  0.3494
 4998SOL    HW118399   4.872   4.971  10.025  0.8577  0.6413 -0.0581
 4998SOL    HW218400   4.815   4.955   9.886  1.6853 -1.8738 -0.1324
 4999SOL     OW18401   3.944   6.609   9.812 -0.3301  0.2140 -0.0143
 4999SOL    HW118402   3.943   6.687   9.867 -1.9758  0.2504 -0.0626
 4999SOL    HW218403   4.030   6.569   9.828  0.6509  2.1841 -0.2317
 5000SOL     OW18404   8.882   4.103   6.994 -0.6173  0.0446 -0.1788
 5000SOL    HW118405   8.804   4.154   6.973  0.5115  2.8211  2.1051
 5000SOL    HW218406   8.855   4.051   7.070 -1.2919 -1.7078 -1.5741
 5001SOL     OW18407   4.561   9.743   5.904  1.1085  0.5161  0.5923
 5001SOL    HW118408   4.547   9.826   5.857  0.9561 -0.0809 -0.4348
 5001SOL    HW218409   4.489   9.687   5.874  3.0825 -1.0753 -1.2454
 5002SOL     OW18410   0.060   5.472   0.850  0.6970 -0.1717  0.9854
 5002SOL    HW118411   0.102   5.428   0.924 -0.2487  0.5541  1.9660
 5002SOL    HW218412  -0.006   5.410   0.819  0.9064 -0.3628  0.9168
 5003SOL     OW18413   5.210   4.462   2.955  1.0532 -0.0869 -0.6657
 5003SOL    HW118414   5.259   4.393   2.910 -0.3186  0.5267 -3.2052
 5003SOL    HW218415   5.138   4.416   2.999  1.4593 -0.5085 -0.4357
 5004SOL     OW18416   5.728   4.868  10.344 -0.1326  0.4252  0.5114
 5004SOL    HW118417   5.728   4.806  10.271  3.3386  0.5379  0.3276
 5004SOL    HW218418   5.729   4.954  10.302  2.7643  0.4882  0.5835
 5005SOL     OW18419   0.985   6.132   0.799 -0.5941  0.0988  0.1018
 5005SOL    HW118420   0.930   6.156   0.874 -0.2450  0.0683  0.3709
 5005SOL    HW218421   1.041   6.061   0.833 -0.9285 -0.4044 -0.3963
 5006SOL     OW18422   1.500   6.978   9.007  0.1323  0.7365  0.0383
 5006SOL    HW118423   1.464   7.046   9.064 -1.0148  1.6484 -1.7115
 5006SOL    HW218424   1.432   6.966   8.940  1.1969 -0.7188 -0.7880
 5007SOL     OW18425   1.830   8.000   3.262 -0.1257 -0.3083 -0.2198
 5007SOL    HW118426   1.820   8.038   3.349  0.2866  1.4079 -0.8994
 5007SOL    HW218427   1.844   7.906   3.278 -1.2795 -0.2119  1.4843
 5008SOL     OW18428   0.896   1.126   0.071 -0.5767 -0.1216 -0.3140
 5008SOL    HW118429   0.940   1.073   0.137 -3.0684  0.6051  2.0274
 5008SOL    HW218430   0.831   1.068   0.032 -2.0389  0.6373  0.9438
 5009SOL     OW18431   8.442   0.244  10.429 -0.0673  0.0447 -0.4144
 5009SOL    HW118432   8.501   0.176  10.396 -0.2884 -0.4721  0.2410
 5009SOL    HW218433   8.468   0.257  10.520 -0.6070  0.1985 -0.2789
 5010SOL     OW18434   7.997  10.233   4.022 -0.0916  0.5164 -0.2484
 5010SOL    HW118435   8.068  10.274   4.072  0.4652  1.3067 -1.6495
 5010SOL    HW218436   7.924  10.295   4.029 -0.3465  0.1472  0.4136
 5011SOL     OW18437   5.809   3.827   8.267 -0.3923  0.4537 -0.2110
 5011SOL    HW118438   5.821   3.733   8.270 -1.8023  0.2226 -1.1361
 5011SOL    HW218439   5.750   3.846   8.340 -0.5491  0.5379 -0.3579
 5012SOL     OW18440   2.044   1.444   5.776  0.1646  0.0925 -0.0263
 5012SOL    HW118441   2.016   1.479   5.860  0.7060  0.0507  0.1769
 5012SOL    HW218442   2.071   1.521   5.726 -0.8674  0.1887 -0.4362
 5013SOL     OW18443   8.224   4.471   7.762 -0.1381 -0.8997 -0.1295
 5013SOL    HW118444   8.138   4.508   7.741  1.5434  3.1459 -0.4188
 5013SOL    HW218445   8.232   4.480   7.857  0.8690  1.0095 -0.3651
 5014SOL     OW18446   0.073   2.175   9.839 -0.1501 -0.4660 -0.6025
 5014SOL    HW118447  -0.016   2.199   9.863  0.2344 -1.3885  1.9849
 5014SOL    HW218448   0.081   2.084   9.867  1.8522 -0.1295 -0.0108
 5015SOL     OW18449  10.816   5.102  10.954 -0.6241 -0.5489 -0.2444
 5015SOL    HW118450  10.884   5.035  10.948  0.4722  0.5941 -0.9605
 5015SOL    HW218451  10.785   5.111  10.864 -0.5802  0.0799 -0.1969
 5016SOL     OW18452  10.377   3.670   6.254 -0.3178  0.2107 -0.3743
 5016SOL    HW118453  10.461   3.710   6.229 -0.6619  1.4988  0.4451
 5016SOL    HW218454  10.367   3.597   6.194  0.4609  1.2269 -1.7961
 5017SOL     OW18455   4.269   1.301   2.644  0.1421 -0.5817 -0.2306
 5017SOL    HW118456   4.342   1.341   2.691  0.9067 -1.1206 -0.9586
 5017SOL    HW218457   4.201   1.369   2.644  0.9166  0.2073 -0.2281
 5018SOL     OW18458   7.215   7.041   1.608  0.2553 -0.7538 -0.0002
 5018SOL    HW118459   7.177   7.112   1.555  0.3372 -0.2807  0.5641
 5018SOL    HW218460   7.240   7.084   1.690 -1.2934 -1.7842  1.0367
 5019SOL     OW18461   6.433   6.773   3.370  0.3585  0.0402  0.6198
 5019SOL    HW118462   6.492   6.833   3.324 -0.1116  0.2414  0.2691
 5019SOL    HW218463   6.455   6.686   3.336  1.8664 -0.1435  2.0087
 5020SOL     OW18464   9.923   4.070   4.013  0.2776  0.2130 -0.1624
 5020SOL    HW118465   9.961   4.150   4.048  0.5985  0.0380 -0.1128
 5020SOL    HW218466   9.997   4.011   4.000  0.0790  0.0375 -0.5031
 5021SOL     OW18467   5.878   4.710  10.572  0.6696 -0.5034 -0.7815
 5021SOL    HW118468   5.876   4.637  10.509  0.5383 -0.5292 -0.7478
 5021SOL    HW218469   5.800   4.762  10.550  1.7968  0.6833 -2.0517
 5022SOL     OW18470  10.186   0.277   7.739  0.0940 -0.0720  0.0819
 5022SOL    HW118471  10.258   0.339   7.745  0.9986 -1.1721  0.9804
 5022SOL    HW218472  10.223   0.194   7.770 -1.5979 -0.6215  0.7139
 5023SOL     OW18473   0.324  10.055   2.296 -0.0609 -0.4313 -0.1158
 5023SOL    HW118474   0.327  10.046   2.391  0.7902  1.0971  0.0241
 5023SOL    HW218475   0.255  10.120   2.280  0.3887 -0.0334 -0.4801
 5024SOL     OW18476   0.198   2.883   5.854 -0.0043  0.4501 -0.3541
 5024SOL    HW118477   0.186   2.918   5.766  1.1497  0.9574 -0.3143
 5024SOL    HW218478   0.124   2.916   5.904 -0.5186  0.3764 -1.0692
 5025SOL     OW18479   0.463   4.698   3.077  0.1776 -0.0496  0.3073
 5025SOL    HW118480   0.416   4.628   3.122 -1.7014  2.7265  2.8663
 5025SOL    HW218481   0.493   4.756   3.147 -0.6723  3.1436 -1.8320
 5026SOL     OW18482   5.352   0.836   5.063 -0.5194 -0.1386 -0.3003
 5026SOL    HW118483   5.275   0.817   5.117 -0.1582 -0.4044  0.1227
 5026SOL    HW218484   5.414   0.877   5.124 -0.4709  0.4234 -0.7254
 5027SOL     OW18485   1.754   0.817   8.342  0.1329 -0.3447 -0.1264
 5027SOL    HW118486   1.714   0.854   8.264  2.4996  0.7689 -0.8485
 5027SOL    HW218487   1.809   0.746   8.310  0.9059 -0.0556  0.5323
 5028SOL     OW18488   9.968   9.424   8.071  0.1822  0.0121  0.4498
 5028SOL    HW118489   9.892   9.481   8.058  0.1986  0.0599  0.5612
 5028SOL    HW218490   9.971   9.369   7.993  1.8524  2.1259 -1.0440
 5029SOL     OW18491   3.593   8.123  10.569 -0.6513  0.1835 -0.1772
 5029SOL    HW118492   3.588   8.064  10.644  3.6089 -0.8131 -0.5451
 5029SOL    HW218493   3.647   8.076  10.505 -0.2674  2.9356 -1.9626
 5030SOL     OW18494   1.128   2.862   7.160  0.6886  0.2960  0.1103
 5030SOL    HW118495   1.133   2.781   7.211  0.4275  1.5968  2.2133
 5030SOL    HW218496   1.218   2.894   7.159  0.9163 -0.3366 -1.2934
 5031SOL     OW18497   8.500   1.637   8.383  0.3402  0.6330 -0.3900
 5031SOL    HW118498   8.468   1.609   8.297 -1.4849 -2.0730  1.0833
 5031SOL    HW218499   8.564   1.570   8.407  1.1445  1.6033  0.1981
 5032SOL     OW18500  10.339   4.259   3.458  0.2305 -0.3139  0.1809
 5032SOL    HW118501  10.429   4.286   3.441 -0.3617  1.0798 -0.7986
 5032SOL    HW218502  10.295   4.339   3.488 -1.0464 -0.6162 -0.8221
 5033SOL     OW18503   9.965   1.377   2.316  0.1311  0.2712 -0.3568
 5033SOL    HW118504   9.941   1.467   2.336 -0.6588 -0.2936  1.3119
 5033SOL    HW218505  10.061   1.377   2.314  0.2151  0.5762  2.4089
 5034SOL     OW18506   0.751   5.063   0.954 -0.0396 -0.2441  0.7679
 5034SOL    HW118507   0.767   5.002   1.026  0.3536  0.6117  1.4206
 5034SOL    HW218508   0.661   5.093   0.966  0.9367  2.1256  2.6541
 5035SOL     OW18509   3.835   6.063   7.452  0.2313 -0.0509 -0.2298
 5035SOL    HW118510   3.785   6.018   7.383  1.6217 -1.2869 -0.4483
 5035SOL    HW218511   3.901   5.999   7.479  0.0951  0.6446  1.8452
 5036SOL     OW18512   1.563   5.107   2.182 -0.5236 -0.0264 -0.1404
 5036SOL    HW118513   1.479   5.092   2.225 -0.3437 -1.3215 -0.2271
 5036SOL    HW218514   1.613   5.027   2.200  0.6465  0.6918 -0.1774
 5037SOL     OW18515   5.213   3.037   0.224  0.3404  0.1791 -0.1984
 5037SOL    HW118516   5.300   3.004   0.248  0.7235  0.7817 -0.7341
 5037SOL    HW218517   5.154   3.001   0.290  0.8276 -1.1800 -0.4829
 5038SOL     OW18518   1.911   1.672   2.080  0.1454 -0.4955  0.0933
 5038SOL    HW118519   2.005   1.678   2.094  0.3919  1.3037 -2.1102
 5038SOL    HW218520   1.880   1.762   2.085 -0.9779 -0.7246 -2.2004
 5039SOL     OW18521   8.442   3.229   8.647  0.6426  0.5686  0.0612
 5039SOL    HW118522   8.426   3.278   8.566  1.4150 -1.1839 -1.1890
 5039SOL    HW218523   8.527   3.260   8.677  0.9244  0.3328 -0.4853
 5040SOL     OW18524   4.602   9.417   5.443  0.3396 -0.3872  0.6091
 5040SOL    HW118525   4.638   9.384   5.361  0.9045  1.2883  0.1713
 5040SOL    HW218526   4.552   9.344   5.478 -1.4686 -0.5328 -2.1351
 5041SOL     OW18527   3.806   8.489   2.573 -0.0353 -0.1268  0.0531
 5041SOL    HW118528   3.734   8.472   2.512 -0.1690  0.3642  0.0673
 5041SOL    HW218529   3.863   8.550   2.526 -0.2736  0.4583  0.5132
 5042SOL     OW18530   1.713   3.400  10.300 -0.1075  0.6907 -0.4246
 5042SOL    HW118531   1.688   3.427  10.389  0.5103  0.9338 -0.3247
 5042SOL    HW218532   1.775   3.466  10.271 -0.8812  1.0297 -1.3345
 5043SOL     OW18533   0.251  10.152   8.844 -0.2720  0.4258  0.5645
 5043SOL    HW118534   0.178  10.210   8.821  1.3816  1.8922 -1.1132
 5043SOL    HW218535   0.272  10.107   8.762  1.7013  1.1403  0.6657
 5044SOL     OW18536   3.922  10.725   9.452  0.8133  0.4472 -0.1378
 5044SOL    HW118537   3.958  10.741   9.539  1.4754 -0.5808 -0.2113
 5044SOL    HW218538   3.848  10.784   9.445 -0.1483 -0.5180  1.6815
 5045SOL     OW18539   0.912   1.724   1.545  0.4701 -0.1011  0.0250
 5045SOL    HW118540   0.877   1.707   1.457  0.9188 -0.8629 -0.0085
 5045SOL    HW218541   0.920   1.820   1.549  0.4273 -0.0594 -0.7559
 5046SOL     OW18542  10.860   5.325   0.700  0.4924 -0.4581  0.0554
 5046SOL    HW118543  10.869   5.234   0.670 -0.0638  0.2518 -2.3624
 5046SOL    HW218544  10.772   5.329   0.738  0.3181 -0.8140 -0.3044
 5047SOL     OW18545   2.205   6.861   7.285 -0.2529 -0.4504 -0.0099
 5047SOL    HW118546   2.130   6.853   7.226  0.4533 -0.2340 -0.9532
 5047SOL    HW218547   2.263   6.789   7.260 -0.8606 -1.5987  1.7965
 5048SOL     OW18548   0.314   2.672   8.302 -0.0864 -0.1170  0.0511
 5048SOL    HW118549   0.257   2.749   8.309 -0.0452 -0.0968  0.1802
 5048SOL    HW218550   0.386   2.701   8.245  0.0601  0.0240  0.3008
 5049SOL     OW18551   3.166   0.188   2.805  0.4237  0.4952  0.3019
 5049SOL    HW118552   3.143   0.097   2.824  1.7241  0.0870 -0.0426
 5049SOL    HW218553   3.141   0.201   2.713  1.3744  0.1161 -0.0105
 5050SOL     OW18554   3.874   7.503  10.635  0.1948 -0.5450  0.2582
 5050SOL    HW118555   3.872   7.409  10.614  0.4392 -0.4670 -0.1235
 5050SOL    HW218556   3.832   7.545  10.560  1.4802 -0.2267 -0.3026
 5051SOL     OW18557   9.478   3.089  10.860  0.2665  0.2541  0.4047
 5051SOL    HW118558   9.554   3.032  10.874  0.0203  0.0529  0.9473
 5051SOL    HW218559   9.433   3.089  10.944 -0.6614 -0.0963 -0.0891
 5052SOL     OW18560   5.529   0.258   4.743  0.1206 -0.5097  0.7098
 5052SOL    HW118561   5.469   0.315   4.792 -0.0170 -0.1897  0.1738
 5052SOL    HW218562   5.587   0.318   4.696 -0.2569 -0.8037 -0.1482
 5053SOL     OW18563   9.228   9.525   8.711  0.1839 -0.3627  0.0388
 5053SOL    HW118564   9.225   9.488   8.800 -1.0934  0.6251  0.4206
 5053SOL    HW218565   9.213   9.618   8.724 -2.6250 -0.5864 -1.4473
 5054SOL     OW18566   2.268   1.110   5.650 -0.0101 -0.1573 -0.2263
 5054SOL    HW118567   2.257   1.053   5.574  0.0719 -0.2600 -0.1600
 5054SOL    HW218568   2.324   1.182   5.618 -1.0847  0.5112 -0.6393
 5055SOL     OW18569   8.773   0.308   9.963 -0.9187  0.0600 -0.4344
 5055SOL    HW118570   8.776   0.328  10.057 -0.3223  0.9362 -0.6371
 5055SOL    HW218571   8.862   0.284   9.941 -1.4875 -2.1937 -0.3460
 5056SOL     OW18572   6.182   9.349  10.393  0.3195  0.4977 -0.1678
 5056SOL    HW118573   6.256   9.358  10.452 -0.5154  1.1019  0.8135
 5056SOL    HW218574   6.194   9.264  10.351  1.6829  0.7003 -0.1919
 5057SOL     OW18575   1.687   0.864  10.023  0.2688  0.1657  0.4720
 5057SOL    HW118576   1.781   0.882  10.030  0.0679  0.6162  2.3674
 5057SOL    HW218577   1.661   0.839  10.112 -1.3585 -0.1762 -0.0854
 5058SOL     OW18578   4.704   7.903   4.936 -0.7866  0.8091 -0.1572
 5058SOL    HW118579   4.690   7.825   4.989  0.5431  1.0329  0.5407
 5058SOL    HW218580   4.753   7.963   4.993  0.6167  1.0634 -1.5941
 5059SOL     OW18581   4.881   3.701   3.153  0.2578  0.5081  0.4585
 5059SOL    HW118582   4.815   3.737   3.212 -0.8525  0.4009 -0.6985
 5059SOL    HW218583   4.883   3.762   3.079  1.5943  0.6079  0.5576
 5060SOL     OW18584  10.946   8.146   1.572 -0.0805 -0.1551 -0.5063
 5060SOL    HW118585  10.943   8.241   1.566 -0.6944  0.0405  2.4397
 5060SOL    HW218586  10.854   8.120   1.585  0.4111 -0.9118  1.6215
 5061SOL     OW18587   5.943   7.192   1.118  0.1774 -0.3250  0.2998
 5061SOL    HW118588   6.011   7.228   1.062 -0.3612  0.9133  0.4319
 5061SOL    HW218589   5.962   7.227   1.205 -2.2890  2.4479 -0.1953
 5062SOL     OW18590   2.582   1.578   0.578  0.3021 -0.1405  0.1252
 5062SOL    HW118591   2.667   1.554   0.616  0.1415 -2.0697 -0.6797
 5062SOL    HW218592   2.603   1.647   0.515  1.2049 -0.2032  0.3498
 5063SOL     OW18593   2.773   6.699  10.492  0.0234  0.6077  0.0545
 5063SOL    HW118594   2.825   6.745  10.558 -2.4371  1.3348  1.5323
 5063SOL    HW218595   2.827   6.623  10.468  2.2606  1.9636  0.6892
 5064SOL     OW18596   7.237   5.758  10.455 -0.3255  0.1108 -0.2415
 5064SOL    HW118597   7.280   5.701  10.391  0.1084  0.7178 -0.4875
 5064SOL    HW218598   7.160   5.791  10.409 -1.4881 -1.5458  0.4317
 5065SOL     OW18599   4.235   1.536   6.591  0.0345 -0.2439 -0.1423
 5065SOL    HW118600   4.144   1.521   6.565 -0.5132 -0.5216  1.8517
 5065SOL    HW218601   4.281   1.555   6.509 -1.9639  0.6913 -1.0744
 5066SOL     OW18602   9.562  10.536   5.032 -0.4108  0.3379 -0.5898
 5066SOL    HW118603   9.623  10.589   4.981  0.9188 -0.0076  0.6067
 5066SOL    HW218604   9.481  10.536   4.981  0.4204  1.2601 -1.9251
 5067SOL     OW18605   3.754   9.274   4.383  0.3045  0.1499 -0.2149
 5067SOL    HW118606   3.687   9.336   4.354 -0.0530 -1.2563 -2.5461
 5067SOL    HW218607   3.730   9.254   4.474 -0.6705  1.9546 -0.0584
 5068SOL     OW18608   0.833   9.370   7.049  0.2677 -0.3466 -0.5323
 5068SOL    HW118609   0.829   9.275   7.043 -1.3119 -0.3022 -0.2393
 5068SOL    HW218610   0.766   9.394   7.113 -0.7153  1.0830 -2.0434
 5069SOL     OW18611   8.389   9.978  10.532  0.0067 -0.1297  0.0366
 5069SOL    HW118612   8.357  10.052  10.479  0.8951  1.7148  2.0369
 5069SOL    HW218613   8.367   9.901  10.479 -1.7029  1.4837 -1.7213
 5070SOL     OW18614   4.301   2.325   3.177  0.0859 -0.0662  0.4102
 5070SOL    HW118615   4.217   2.333   3.223 -0.4760  1.5960 -0.8472
 5070SOL    HW218616   4.295   2.242   3.130 -0.5718 -0.2923  0.8891
 5071SOL     OW18617   1.019   4.416   2.809  0.8772 -0.4696 -0.2825
 5071SOL    HW118618   0.966   4.442   2.884  2.1826 -0.7214  0.7598
 5071SOL    HW218619   1.093   4.478   2.809  0.6377 -0.1672 -1.6526
 5072SOL     OW18620   6.665   1.264   9.463 -0.4046 -0.5295  0.5565
 5072SOL    HW118621   6.608   1.331   9.501 -1.0157  0.0639 -1.3493
 5072SOL    HW218622   6.695   1.303   9.380 -0.2696 -2.3724 -0.2732
 5073SOL     OW18623   7.200   2.290   5.256  0.2411  0.3151  0.3798
 5073SOL    HW118624   7.115   2.247   5.256 -0.2681  1.3029 -0.4728
 5073SOL    HW218625   7.180   2.383   5.264  1.2665  0.5155  0.7223
 5074SOL     OW18626   7.929   2.111   2.345  0.3584  0.1394  0.2652
 5074SOL    HW118627   7.947   2.019   2.366  0.0377  0.1754  0.6984
 5074SOL    HW218628   7.841   2.110   2.307  1.1051  0.0185 -1.4860
 5075SOL     OW18629   8.256   2.658   7.929  0.1462 -0.9185 -0.0079
 5075SOL    HW118630   8.194   2.721   7.966  2.0984  1.0836 -0.1209
 5075SOL    HW218631   8.222   2.640   7.841  0.4968  1.2925 -0.6163
 5076SOL     OW18632   6.656   0.135   3.267  0.4670 -0.0062 -0.2478
 5076SOL    HW118633   6.701   0.075   3.326  0.7185 -0.7018 -1.1334
 5076SOL    HW218634   6.581   0.166   3.317 -0.0202 -1.5546  0.0100
 5077SOL     OW18635   1.463   9.805   1.885  0.5376  0.8743  0.0646
 5077SOL    HW118636   1.554   9.824   1.908 -0.0736  1.5319  2.0318
 5077SOL    HW218637   1.426   9.766   1.964 -0.3959 -1.2110 -1.3352
 5078SOL     OW18638   4.305   8.801   2.757 -0.1449 -0.2236  0.1581
 5078SOL    HW118639   4.324   8.749   2.679 -1.4562 -0.4862 -0.0007
 5078SOL    HW218640   4.222   8.845   2.738  1.0860  2.2136  0.1596
 5079SOL     OW18641   4.786   7.173   8.712  0.1388 -0.4504  0.2984
 5079SOL    HW118642   4.787   7.269   8.708 -1.7175 -0.5004 -2.4616
 5079SOL    HW218643   4.844   7.145   8.641  1.4964 -1.4066  1.7450
 5080SOL     OW18644   6.429   4.409   9.123  0.2730  0.0594  0.2881
 5080SOL    HW118645   6.334   4.400   9.135  0.4987 -1.6154  0.9151
 5080SOL    HW218646   6.462   4.320   9.120  1.9430  0.6264  0.9034
 5081SOL     OW18647   5.462   9.172   3.293 -0.4953 -0.0107 -0.4269
 5081SOL    HW118648   5.448   9.260   3.329 -2.4460  0.1655 -1.5533
 5081SOL    HW218649   5.434   9.113   3.364  0.4938  0.2553  0.2017
 5082SOL     OW18650  10.122   2.104   5.317 -0.2995 -0.2478 -0.1516
 5082SOL    HW118651  10.210   2.136   5.337 -1.3630  1.9548  1.1700
 5082SOL    HW218652  10.085   2.078   5.401 -2.1306  2.0638 -0.1977
 5083SOL     OW18653   7.258   0.438   5.213 -0.0113 -0.7290  0.3089
 5083SOL    HW118654   7.167   0.444   5.241 -0.0204  0.3039  0.0700
 5083SOL    HW218655   7.260   0.366   5.150 -0.3765 -1.7374  1.4399
 5084SOL     OW18656   8.669   4.984   7.247  0.2590 -0.1409  0.6331
 5084SOL    HW118657   8.724   4.908   7.267  0.9439 -0.3964 -2.0514
 5084SOL    HW218658   8.701   5.052   7.306  0.2914 -1.6273  2.3923
 5085SOL     OW18659   9.785   1.087  10.085  0.0178 -0.1422 -0.0132
 5085SOL    HW118660   9.831   1.099  10.168 -0.8004  0.4812  0.3680
 5085SOL    HW218661   9.693   1.082  10.109 -0.7087  4.5121 -1.1799
 5086SOL     OW18662   4.227   5.340   5.584 -0.0677 -0.3526  0.3254
 5086SOL    HW118663   4.308   5.295   5.609  0.2195 -0.8067 -1.3303
 5086SOL    HW218664   4.201   5.297   5.503  0.7039  3.0798 -1.8501
 5087SOL     OW18665   7.026  10.682   1.683  0.3975 -0.2604  0.0545
 5087SOL    HW118666   6.936  10.715   1.689  1.2046  2.0072 -0.0710
 5087SOL    HW218667   7.049  10.691   1.591  0.8747 -0.5181  0.1447
 5088SOL     OW18668   4.632   2.728   7.717  0.3983 -0.0488 -0.4551
 5088SOL    HW118669   4.642   2.652   7.661  0.2086 -1.6999  1.6808
 5088SOL    HW218670   4.540   2.728   7.742  0.5093  0.5733 -0.0120
 5089SOL     OW18671   5.211  10.490  10.081  0.0606  0.3023 -0.3315
 5089SOL    HW118672   5.247  10.464  10.166  0.1683 -1.0040 -0.7593
 5089SOL    HW218673   5.285  10.532  10.036  0.4846 -0.4877 -0.3981
 5090SOL     OW18674   6.678   0.468   9.440  1.0163  0.4154  0.0540
 5090SOL    HW118675   6.718   0.547   9.403  0.5580  0.9637  0.7151
 5090SOL    HW218676   6.603   0.451   9.384  0.8202  0.7473  0.2115
 5091SOL     OW18677   7.025   1.370   0.074 -0.3572 -0.2650 -0.6162
 5091SOL    HW118678   7.003   1.459   0.049 -2.1806 -0.1880  1.1720
 5091SOL    HW218679   6.954   1.343   0.132  0.7042 -2.5162 -0.3170
 5092SOL     OW18680   3.004   2.700   4.209  0.3352 -0.5068 -0.0879
 5092SOL    HW118681   2.957   2.749   4.141 -0.3734 -0.2746  0.5576
 5092SOL    HW218682   3.095   2.701   4.180  0.3356  1.1944 -0.1089
 5093SOL     OW18683   0.704   4.525  10.405 -0.0062  0.5383 -0.0062
 5093SOL    HW118684   0.649   4.542  10.481  1.9327 -0.0976  1.5851
 5093SOL    HW218685   0.726   4.612  10.372  1.1186  0.9218  1.6613
 5094SOL     OW18686  10.422   1.911   8.595 -0.0360  0.4209  0.3914
 5094SOL    HW118687  10.343   1.858   8.610 -1.5537  2.0962 -1.4461
 5094SOL    HW218688  10.399   1.998   8.627  1.3715  0.7133  0.6218
 5095SOL     OW18689   1.379   4.361   4.266  0.1351  0.1461 -0.2734
 5095SOL    HW118690   1.411   4.360   4.176  1.5497 -1.0825  0.2460
 5095SOL    HW218691   1.451   4.397   4.317 -0.6005  0.6722  0.4095
 5096SOL     OW18692   4.254   2.501   5.999 -0.0136  0.5159  0.1600
 5096SOL    HW118693   4.231   2.482   5.908  1.0977 -0.0347 -0.0141
 5096SOL    HW218694   4.346   2.527   5.995 -0.0002  0.6294  1.1129
 5097SOL     OW18695   4.526   2.873   0.448 -0.8060  0.3789 -0.2356
 5097SOL    HW118696   4.444   2.922   0.446 -1.3721 -0.5413  0.3144
 5097SOL    HW218697   4.576   2.907   0.374 -1.7374  0.8489 -0.6558
 5098SOL     OW18698   6.304   3.713   3.809  0.4215  0.2312 -0.7215
 5098SOL    HW118699   6.377   3.682   3.863 -0.1980  2.0507  1.1916
 5098SOL    HW218700   6.322   3.675   3.723  2.0051 -1.8305  0.4519
 5099SOL     OW18701   8.322   4.768   5.537 -0.2029  0.2794  0.4150
 5099SOL    HW118702   8.392   4.781   5.473 -1.1148 -0.9669 -0.8640
 5099SOL    HW218703   8.261   4.839   5.520 -0.3652  0.0431  0.0137
 5100SOL     OW18704   6.693   6.275   9.377 -0.5199  0.1881  0.2203
 5100SOL    HW118705   6.737   6.223   9.445 -0.3591  0.3270  0.2193
 5100SOL    HW218706   6.754   6.346   9.357 -1.3297  1.1992  1.2289
 5101SOL     OW18707   9.709   2.156  10.440  0.0472 -0.4408 -0.1377
 5101SOL    HW118708   9.753   2.105  10.508 -2.0133 -1.4263  0.4929
 5101SOL    HW218709   9.675   2.233  10.486  0.7101  0.0915 -0.5329
 5102SOL     OW18710  10.355   0.679   5.958  0.4192  0.0832  0.3811
 5102SOL    HW118711  10.321   0.707   6.043 -0.0637  0.7831 -0.0337
 5102SOL    HW218712  10.315   0.740   5.895  0.5507 -0.5989 -0.3721
 5103SOL     OW18713   8.012   0.265   5.718 -0.4130 -0.1093  0.1258
 5103SOL    HW118714   7.954   0.305   5.652  0.5973  0.5985 -0.3391
 5103SOL    HW218715   8.080   0.222   5.667 -0.6119 -1.0836  0.6762
 5104SOL     OW18716   6.805   7.965   3.329  0.0835 -0.6314  0.2118
 5104SOL    HW118717   6.784   7.905   3.401  0.8221 -0.3559  0.6587
 5104SOL    HW218718   6.900   7.974   3.332 -0.0524  0.8249  0.3597
 5105SOL     OW18719  10.864   2.616   8.978  0.3978  0.1957  0.8188
 5105SOL    HW118720  10.905   2.540   9.020  0.6985 -0.5853 -0.8528
 5105SOL    HW218721  10.791   2.580   8.929  0.5401  0.9906  0.0151
 5106SOL     OW18722   2.706   5.503   4.501 -0.1407 -0.1314 -0.1551
 5106SOL    HW118723   2.637   5.462   4.449  0.4064  0.3713 -1.3007
 5106SOL    HW218724   2.660   5.566   4.557 -0.7476 -0.7452  0.0362
 5107SOL     OW18725   5.249   5.171   0.162 -0.3617 -0.1246 -0.4034
 5107SOL    HW118726   5.238   5.266   0.168 -1.0231 -0.2153 -0.1517
 5107SOL    HW218727   5.182   5.135   0.220 -0.7243 -0.7768 -1.2246
 5108SOL     OW18728   9.812   8.956   1.416  0.7790 -0.0263  0.1189
 5108SOL    HW118729   9.876   8.885   1.424 -0.8732 -1.8618 -2.0540
 5108SOL    HW218730   9.765   8.956   1.499  1.0970 -1.2020  0.3123
 5109SOL     OW18731   7.808   3.863   3.478 -0.1915 -0.1681 -0.0322
 5109SOL    HW118732   7.845   3.839   3.563 -1.2367  0.8177  0.7160
 5109SOL    HW218733   7.869   3.825   3.414 -0.7274 -3.0826  1.1057
 5110SOL     OW18734   2.265   3.475  10.762  0.4078  0.1158 -0.6264
 5110SOL    HW118735   2.180   3.434  10.749  0.5473 -0.4301  0.0938
 5110SOL    HW218736   2.254   3.565  10.731 -0.5521  0.1757 -0.1427
 5111SOL     OW18737   7.473   4.888   6.783 -0.5302 -0.0344  0.1765
 5111SOL    HW118738   7.520   4.943   6.846 -0.0495  1.1978 -1.2293
 5111SOL    HW218739   7.496   4.798   6.808  2.0187  0.5156 -0.0345
 5112SOL     OW18740   9.854   7.943   0.991  0.6684  0.0688  0.3281
 5112SOL    HW118741   9.857   7.853   0.958  0.4658 -0.7269  2.4062
 5112SOL    HW218742   9.771   7.978   0.959  1.5471  0.1281 -1.9726
 5113SOL     OW18743   2.230   5.444   3.681 -0.5274 -0.0185  0.2112
 5113SOL    HW118744   2.154   5.397   3.713 -1.5637  1.9487  0.7358
 5113SOL    HW218745   2.213   5.536   3.703  2.7181  0.2768  1.8491
 5114SOL     OW18746   7.735   1.726  10.421  0.1759  0.2266  0.3758
 5114SOL    HW118747   7.700   1.688  10.501  0.8084 -0.2683  0.4277
 5114SOL    HW218748   7.820   1.761  10.447  0.6487 -0.4625 -0.1988
 5115SOL     OW18749   9.130   9.619  10.815  0.4018  0.0637 -0.3540
 5115SOL    HW118750   9.206   9.577  10.856  0.4150 -0.3782 -0.8272
 5115SOL    HW218751   9.102   9.557  10.747 -0.3183  0.2722 -0.2539
 5116SOL     OW18752   6.401   9.417  10.108  0.3078 -0.1648  0.7883
 5116SOL    HW118753   6.394   9.323  10.091  0.0706 -0.2518  1.3399
 5116SOL    HW218754   6.458   9.450  10.038 -2.6469 -0.0633 -1.6624
 5117SOL     OW18755  10.671   7.976   7.307  0.7868 -0.0484  0.0703
 5117SOL    HW118756  10.742   7.977   7.242  0.6497 -2.0508 -0.1577
 5117SOL    HW218757  10.675   8.062   7.348  2.4354  0.3875 -0.9346
 5118SOL     OW18758   5.503   2.244   1.029 -0.0502 -0.3108 -0.6329
 5118SOL    HW118759   5.458   2.318   1.070 -2.1657 -2.2150  0.5809
 5118SOL    HW218760   5.589   2.243   1.071 -0.0762  1.2648 -0.4828
 5119SOL     OW18761   9.707   1.533   2.895 -0.0520 -0.3758  0.8619
 5119SOL    HW118762   9.615   1.520   2.870 -0.4242  1.1335  1.3790
 5119SOL    HW218763   9.750   1.559   2.814 -0.4990  0.8709  1.0122
 5120SOL     OW18764   9.582   9.615   2.418  0.3281 -0.6650 -0.7711
 5120SOL    HW118765   9.532   9.678   2.469  1.8603 -0.6938  0.8031
 5120SOL    HW218766   9.669   9.655   2.409  0.8293 -1.8156 -1.1554
 5121SOL     OW18767   6.465   1.214   5.241  0.2439 -0.0876 -0.3028
 5121SOL    HW118768   6.381   1.258   5.246 -1.5453 -3.2313 -0.8926
 5121SOL    HW218769   6.454   1.149   5.171  3.0674 -0.7647 -0.2086
 5122SOL     OW18770   9.962   9.478   2.383  0.2761  0.3467  0.6603
 5122SOL    HW118771   9.975   9.490   2.289 -0.6845 -2.0497  0.1622
 5122SOL    HW218772   9.977   9.384   2.397 -0.8628  0.4300  2.6712
 5123SOL     OW18773  10.326   0.193   0.290  0.4847  1.1658 -0.4792
 5123SOL    HW118774  10.308   0.275   0.336 -0.6151  1.3878 -1.3095
 5123SOL    HW218775  10.295   0.125   0.350 -2.6644  1.5198 -1.6400
 5124SOL     OW18776   2.639   7.263   5.210 -0.1024  0.0546  0.1236
 5124SOL    HW118777   2.680   7.178   5.195 -0.6417 -0.0008 -1.0725
 5124SOL    HW218778   2.666   7.287   5.299  1.3711 -0.6152 -0.1261
 5125SOL     OW18779   1.403   4.711   3.126  0.1732  0.1763  0.6863
 5125SOL    HW118780   1.387   4.652   3.199 -0.8453  1.2481  1.3581
 5125SOL    HW218781   1.458   4.780   3.163 -1.4012  1.3989  0.7864
 5126SOL     OW18782   6.833   9.190   2.450  0.0650 -0.5384 -0.5463
 5126SOL    HW118783   6.834   9.151   2.362 -0.1408 -1.1161 -0.2980
 5126SOL    HW218784   6.926   9.196   2.474  0.0949 -0.9937 -0.5391
 5127SOL     OW18785   8.832   7.312   8.150  0.3308  0.0642 -0.1164
 5127SOL    HW118786   8.805   7.356   8.230  1.3466 -0.5943  0.6057
 5127SOL    HW218787   8.905   7.366   8.117  0.7157 -0.3396  0.0672
 5128SOL     OW18788   0.020   1.836   5.393 -0.3074  0.9459 -0.2469
 5128SOL    HW118789  -0.070   1.858   5.415 -0.6205  1.1448 -1.6446
 5128SOL    HW218790   0.014   1.798   5.305  0.7967 -0.4022  0.2604
 5129SOL     OW18791   7.780  10.176   7.342 -0.4226  0.1171 -0.1442
 5129SOL    HW118792   7.830  10.240   7.392 -0.3518 -1.6935  2.2485
 5129SOL    HW218793   7.845  10.112   7.313 -0.5906  0.7155 -1.9155
 5130SOL     OW18794   1.465   5.686   4.162 -0.6639 -0.4078  0.1591
 5130SOL    HW118795   1.476   5.776   4.195  2.1834  0.1457 -2.0407
 5130SOL    HW218796   1.437   5.698   4.071 -0.8044 -1.7586  0.0207
 5131SOL     OW18797   4.722   4.210   4.035 -0.0797  0.5026 -0.0089
 5131SOL    HW118798   4.697   4.158   4.111 -0.8041 -0.0189 -0.6007
 5131SOL    HW218799   4.770   4.149   3.979  1.2427  1.1108  0.4233
 5132SOL     OW18800   6.653   7.533   2.524  0.1580  0.4292  0.3835
 5132SOL    HW118801   6.648   7.618   2.481 -0.1114  0.5225  0.5920
 5132SOL    HW218802   6.717   7.483   2.473 -0.5859  0.3315 -0.4657
 5133SOL     OW18803   5.366   8.112   2.464  0.5728  0.5926 -0.2888
 5133SOL    HW118804   5.354   8.086   2.373  0.2407 -0.2886 -0.0006
 5133SOL    HW218805   5.281   8.093   2.505  0.0972  2.7872 -0.2199
 5134SOL     OW18806  10.200   6.825   5.929  0.0682 -0.4141 -0.0868
 5134SOL    HW118807  10.190   6.731   5.913  0.0509 -0.5339  0.6106
 5134SOL    HW218808  10.249   6.830   6.010 -0.0980  0.1850 -0.0206
 5135SOL     OW18809   8.377   5.969   2.600  0.3532  0.1913  0.0782
 5135SOL    HW118810   8.285   5.992   2.613  0.9042  1.2698  2.3861
 5135SOL    HW218811   8.415   6.046   2.556  0.6441  0.7513  1.2851
 5136SOL     OW18812  10.723   5.579   3.882 -0.3412  0.2647 -0.2231
 5136SOL    HW118813  10.723   5.608   3.791  0.1274  2.7169  0.5386
 5136SOL    HW218814  10.633   5.550   3.898  0.2575 -3.0224 -2.2908
 5137SOL     OW18815   8.746   8.615   7.254 -0.2438 -0.4743 -0.2605
 5137SOL    HW118816   8.773   8.526   7.277  0.5940  0.4739  2.6815
 5137SOL    HW218817   8.731   8.658   7.338 -2.6420  1.5827 -1.6718
 5138SOL     OW18818   5.994   2.365   3.739  0.2880  0.5481  0.2473
 5138SOL    HW118819   5.960   2.435   3.794  0.4337  0.6574  0.2010
 5138SOL    HW218820   6.057   2.319   3.794  2.9150  2.6908 -0.8299
 5139SOL     OW18821  10.352   4.480   1.977  0.3561  0.0873  0.3008
 5139SOL    HW118822  10.310   4.405   1.935  0.0669 -0.1814  1.0659
 5139SOL    HW218823  10.302   4.495   2.057  0.4014  1.1098  0.1498
 5140SOL     OW18824   3.748   4.511   8.976  0.7050  0.1352  0.1000
 5140SOL    HW118825   3.687   4.462   9.031 -0.1908  1.1759  0.0337
 5140SOL    HW218826   3.796   4.567   9.038  1.8586 -0.9469  0.1992
 5141SOL     OW18827   9.581   7.833   1.694 -0.8330 -0.5270 -0.3923
 5141SOL    HW118828   9.500   7.876   1.668 -1.7146 -1.8285  0.1172
 5141SOL    HW218829   9.562   7.796   1.780  0.9330  0.7764  0.6001
 5142SOL     OW18830   3.289   7.773   4.755  0.1515 -0.5725  0.2248
 5142SOL    HW118831   3.267   7.866   4.756 -1.9722 -1.0138 -1.6371
 5142SOL    HW218832   3.332   7.760   4.670 -0.0680 -1.4040  0.2408
 5143SOL     OW18833   3.063   2.648   1.281 -0.3229 -0.0983 -0.1198
 5143SOL    HW118834   3.085   2.712   1.349 -0.9674  0.6429 -0.5983
 5143SOL    HW218835   3.148   2.620   1.246 -0.0676  2.8701 -2.0749
 5144SOL     OW18836   3.756   9.387   3.213  0.3377  0.1334 -0.7592
 5144SOL    HW118837   3.831   9.422   3.262  1.0155 -1.3340 -0.7137
 5144SOL    HW218838   3.687   9.451   3.226  0.5240 -0.1880  2.1163
 5145SOL     OW18839   9.524   2.329   3.654  0.1440 -0.3505 -0.3613
 5145SOL    HW118840   9.591   2.370   3.600  0.2415 -0.6309 -0.4536
 5145SOL    HW218841   9.442   2.371   3.627  0.2583 -0.1398 -0.3780
 5146SOL     OW18842  10.212   7.909   6.555  0.1482  1.0035 -0.1188
 5146SOL    HW118843  10.299   7.893   6.590 -0.4016  0.3276  0.9693
 5146SOL    HW218844  10.154   7.904   6.631 -0.7935  1.8779 -0.7538
 5147SOL     OW18845   2.783   9.875   0.026 -0.5167 -0.1202 -0.3041
 5147SOL    HW118846   2.764   9.829   0.108 -0.9672 -1.5714 -1.2067
 5147SOL    HW218847   2.697   9.893  -0.012 -0.2773 -1.2564 -1.4270
 5148SOL     OW18848   0.414   4.340   0.430  0.1465  0.2598 -0.0413
 5148SOL    HW118849   0.474   4.266   0.419  0.6708  0.7479 -0.5368
 5148SOL    HW218850   0.463   4.415   0.395  0.0531  1.0442  1.4730
 5149SOL     OW18851  10.231  10.927   1.014  0.7726  0.0281  0.7591
 5149SOL    HW118852  10.325  10.942   1.015  0.5580  1.4755  1.0186
 5149SOL    HW218853  10.204  10.940   1.105  0.2441  0.1809  0.5839
 5150SOL     OW18854   0.161   3.995   5.251 -0.0916  0.1589 -0.2693
 5150SOL    HW118855   0.070   4.010   5.225 -0.2813 -0.5334 -0.0219
 5150SOL    HW218856   0.168   4.036   5.337  0.4678  2.2272 -1.2848
 5151SOL     OW18857   7.548   2.290   2.326 -0.1704  0.3977 -0.2435
 5151SOL    HW118858   7.566   2.207   2.370 -2.1212 -0.0742 -0.2757
 5151SOL    HW218859   7.547   2.268   2.233  1.5859  0.9281 -0.4045
 5152SOL     OW18860   8.257  10.233   6.000  0.2242  0.4980 -0.4222
 5152SOL    HW118861   8.281  10.142   5.984  2.2292  1.1408 -1.3180
 5152SOL    HW218862   8.299  10.281   5.928  0.3119  2.2615  0.7833
 5153SOL     OW18863  10.554   6.272   6.550  0.6659 -0.1609  0.2410
 5153SOL    HW118864  10.515   6.226   6.624  0.5384  0.6604  0.6913
 5153SOL    HW218865  10.637   6.305   6.583  1.7530 -1.9094 -0.7218
 5154SOL     OW18866   8.763   6.552   9.984  0.0052 -0.1993  0.5909
 5154SOL    HW118867   8.677   6.579   9.952 -1.7018 -0.0222  5.0037
 5154SOL    HW218868   8.749   6.464  10.019  1.9482 -0.6558  0.2534
 5155SOL     OW18869   6.543  10.184   8.163  0.5777 -0.0103  0.2463
 5155SOL    HW118870   6.452  10.213   8.156  0.3265 -0.6219  0.9859
 5155SOL    HW218871   6.565  10.195   8.255  0.9378 -0.8215  0.2618
 5156SOL     OW18872   7.437   3.517   2.219 -0.1774 -0.1777 -0.1192
 5156SOL    HW118873   7.467   3.437   2.262  0.2742  0.9180  1.6670
 5156SOL    HW218874   7.516   3.568   2.206 -0.7313  0.9048  0.7239
 5157SOL     OW18875   3.198   1.435   6.942  0.2182 -0.7960  0.1446
 5157SOL    HW118876   3.262   1.422   6.873 -0.4919 -0.8824 -0.5095
 5157SOL    HW218877   3.173   1.346   6.969 -1.0632 -0.7858 -0.9637
 5158SOL     OW18878   1.391  10.739  10.507 -0.2534  0.3605  0.3242
 5158SOL    HW118879   1.367  10.697  10.590 -2.3756  1.3315  0.2361
 5158SOL    HW218880   1.316  10.794  10.486 -0.3152 -0.8439 -2.8925
 5159SOL     OW18881   7.694   2.519   2.032 -0.0117 -0.3990 -0.1521
 5159SOL    HW118882   7.649   2.589   2.080  0.0260  0.2492 -1.0547
 5159SOL    HW218883   7.639   2.442   2.047 -0.1848 -0.1287  0.6504
 5160SOL     OW18884   2.945   4.595   2.859 -0.5341  0.4297 -0.7013
 5160SOL    HW118885   3.015   4.636   2.909 -0.4641  0.2986 -0.6911
 5160SOL    HW218886   2.990   4.541   2.794 -0.6240 -0.9038  0.3191
 5161SOL     OW18887   8.758   8.851   3.548 -0.0902 -0.0549 -0.0290
 5161SOL    HW118888   8.825   8.853   3.616 -0.9293 -0.4031  0.8109
 5161SOL    HW218889   8.740   8.758   3.536 -1.3446  0.1007  0.6533
 5162SOL     OW18890   1.199   0.431   5.092 -0.4409  0.4039  0.0622
 5162SOL    HW118891   1.182   0.363   5.026  0.1508  0.2999  0.0096
 5162SOL    HW218892   1.130   0.495   5.079 -1.5732 -0.6457  0.7257
 5163SOL     OW18893  10.851   3.077   9.080 -0.2386  0.1120  0.5730
 5163SOL    HW118894  10.946   3.066   9.085 -0.2210  0.2089  0.4262
 5163SOL    HW218895  10.816   2.998   9.122 -0.0837  0.5685  1.5806
 5164SOL     OW18896  10.271   8.413  10.748  0.3547  0.4573 -0.6253
 5164SOL    HW118897  10.322   8.475  10.799  0.6675  1.5948 -2.2753
 5164SOL    HW218898  10.243   8.347  10.811 -0.5743  2.6417  1.2996
 5165SOL     OW18899   9.382   9.802   1.719  0.2798  0.5279  0.2696
 5165SOL    HW118900   9.373   9.897   1.713  0.6113  0.6954  2.0855
 5165SOL    HW218901   9.307   9.774   1.771  0.4841 -0.1237  0.2152
 5166SOL     OW18902   7.761   1.622   4.885 -0.3294  0.1720 -0.3439
 5166SOL    HW118903   7.680   1.595   4.843 -0.8971  0.9345  0.2615
 5166SOL    HW218904   7.802   1.540   4.913 -0.8553 -0.2166 -0.7130
 5167SOL     OW18905   3.471  10.431  10.414  0.2996 -0.0206 -0.2932
 5167SOL    HW118906   3.435  10.346  10.390 -0.3670  0.4078 -0.8533
 5167SOL    HW218907   3.561  10.414  10.438  0.3971 -0.7696 -1.1634
 5168SOL     OW18908   4.756   3.721   2.185  0.0180 -0.2970  0.2939
 5168SOL    HW118909   4.690   3.686   2.245 -0.6019 -1.2384 -0.9175
 5168SOL    HW218910   4.707   3.745   2.106  1.0915 -0.8598 -0.5638
 5169SOL     OW18911   3.579   3.344   8.211  0.1004 -0.2909 -0.6467
 5169SOL    HW118912   3.567   3.299   8.127 -2.6063  0.1845 -0.5509
 5169SOL    HW218913   3.491   3.349   8.248  0.9932  1.2365  1.3373
 5170SOL     OW18914   6.514   1.899   2.450 -0.4621 -0.3517  0.1852
 5170SOL    HW118915   6.543   1.844   2.524  1.4406  0.0406 -0.2423
 5170SOL    HW218916   6.426   1.927   2.475 -0.2513 -1.0633  1.8491
 5171SOL     OW18917   4.792   4.757   8.226 -0.0516 -0.5351  0.7490
 5171SOL    HW118918   4.717   4.797   8.270 -0.0997 -0.2702  0.4198
 5171SOL    HW218919   4.754   4.690   8.170 -0.0881 -0.0231  0.1567
 5172SOL     OW18920   0.777   5.208   7.556 -0.6934  0.3106  0.0004
 5172SOL    HW118921   0.824   5.132   7.521 -0.6268  0.7968 -0.9833
 5172SOL    HW218922   0.690   5.203   7.516 -0.7136  0.6993 -0.0026
 5173SOL     OW18923   6.197   7.212   2.239 -0.0418  0.4126  0.0299
 5173SOL    HW118924   6.239   7.149   2.299 -0.7274  0.2002  0.2901
 5173SOL    HW218925   6.266   7.274   2.217  1.1632 -1.4519 -1.6437
 5174SOL     OW18926   2.019   6.958   1.238  0.0637 -0.0503 -0.1904
 5174SOL    HW118927   1.998   7.044   1.202  0.4543  0.2019  0.1615
 5174SOL    HW218928   2.023   6.900   1.162 -2.1655 -0.1838 -0.2456
 5175SOL     OW18929   8.395   0.367  10.916 -0.2225 -0.1049  0.2024
 5175SOL    HW118930   8.319   0.351  10.972  0.6218 -0.6133  1.2226
 5175SOL    HW218931   8.359   0.407  10.837 -1.3540  1.3037  1.4057
 5176SOL     OW18932   2.000   8.968   2.454 -0.0440 -0.1083  0.4871
 5176SOL    HW118933   1.981   8.935   2.541  1.7481  0.0831  0.9711
 5176SOL    HW218934   2.010   8.889   2.400  0.2982 -0.2657  0.7774
 5177SOL     OW18935  10.668  10.166   9.798 -0.9756 -0.1051 -0.0757
 5177SOL    HW118936  10.578  10.197   9.800 -0.7157  0.5908  1.1061
 5177SOL    HW218937  10.665  10.081   9.844 -1.4250 -1.1676 -2.0318
 5178SOL     OW18938   9.563   0.018   3.114 -0.2725  0.0620  0.0263
 5178SOL    HW118939   9.634   0.061   3.066 -0.6184 -0.0756 -0.6065
 5178SOL    HW218940   9.565  -0.073   3.084 -0.7507  0.0668 -0.0253
 5179SOL     OW18941   9.292   2.920   0.874 -0.0216 -0.0503  0.5629
 5179SOL    HW118942   9.222   2.867   0.836 -0.0640  1.3264 -1.3605
 5179SOL    HW218943   9.373   2.872   0.856 -0.2831 -0.6753  1.0538
 5180SOL     OW18944   3.771   5.352   1.056  0.3961  0.2409 -0.6224
 5180SOL    HW118945   3.828   5.294   1.106  0.8653  1.4338  0.2531
 5180SOL    HW218946   3.683   5.314   1.064  0.6237 -0.0806  0.3306
 5181SOL     OW18947   0.721   3.864   5.944  0.1725 -0.6454 -0.5021
 5181SOL    HW118948   0.779   3.871   5.868  0.3531  0.2112 -0.2818
 5181SOL    HW218949   0.775   3.888   6.019 -1.0104  2.3940 -0.5331
 5182SOL     OW18950   2.831   4.391   0.799  0.0660  0.1008 -0.1223
 5182SOL    HW118951   2.868   4.400   0.711 -0.4324  1.1734 -0.2375
 5182SOL    HW218952   2.887   4.327   0.842 -0.0108 -0.8544 -1.3937
 5183SOL     OW18953   9.791   9.706   2.105 -0.0507 -0.2603 -0.1624
 5183SOL    HW118954   9.796   9.617   2.069 -1.4637 -0.4051  0.0020
 5183SOL    HW218955   9.713   9.744   2.065  0.0741  0.6178  0.4250
 5184SOL     OW18956   0.731   4.248   2.320  0.0091  0.4069 -0.1520
 5184SOL    HW118957   0.823   4.229   2.337  0.2466  0.9622 -0.7877
 5184SOL    HW218958   0.686   4.165   2.332  0.7057 -0.0319 -0.5731
 5185SOL     OW18959   3.874   1.849   6.774 -0.0472 -0.4492  0.2287
 5185SOL    HW118960   3.858   1.768   6.822  2.6901 -1.4437 -0.4540
 5185SOL    HW218961   3.954   1.884   6.811  0.5420  0.2579 -1.6495
 5186SOL     OW18962  10.809   1.449   4.419 -0.0782 -0.3989  0.0535
 5186SOL    HW118963  10.778   1.471   4.507  1.5757 -3.0140  1.3404
 5186SOL    HW218964  10.897   1.485   4.415 -0.3190  0.1295 -0.7441
 5187SOL     OW18965   1.074  10.361   2.698  0.3303  0.0165 -0.4537
 5187SOL    HW118966   1.012  10.328   2.764 -1.0357  1.8781 -0.7552
 5187SOL    HW218967   1.086  10.288   2.638 -1.1983 -0.5411 -0.1082
 5188SOL     OW18968  10.823   8.792   5.569  0.5461 -0.1983 -0.2369
 5188SOL    HW118969  10.826   8.729   5.496  1.7660 -0.3058 -0.0998
 5188SOL    HW218970  10.838   8.739   5.647  2.9589  0.4466 -0.2421
 5189SOL     OW18971   7.968   7.070  10.066 -0.4109 -0.3728  0.1662
 5189SOL    HW118972   8.036   7.125  10.028 -0.4395 -1.0119 -0.8271
 5189SOL    HW218973   7.905   7.131  10.102 -1.4792  0.3217 -2.7341
 5190SOL     OW18974   7.431   9.168   0.027  0.3817 -0.4473  0.4462
 5190SOL    HW118975   7.366   9.212   0.082  0.4319 -1.0708  1.0112
 5190SOL    HW218976   7.381   9.129  -0.044  0.1965 -0.4979  0.6059
 5191SOL     OW18977   3.774   0.271   2.693 -0.1148 -0.0267  0.1795
 5191SOL    HW118978   3.767   0.205   2.761  0.8345 -0.6341 -0.2962
 5191SOL    HW218979   3.869   0.283   2.681 -0.2743  0.7494 -0.3703
 5192SOL     OW18980   2.193   8.707  10.589 -0.1458 -0.5004 -0.0678
 5192SOL    HW118981   2.137   8.735  10.661 -0.1828  0.1318 -0.3432
 5192SOL    HW218982   2.280   8.701  10.628  0.1709  1.5947 -0.3766
 5193SOL     OW18983   5.727   9.413  10.221  0.6255 -0.4273 -0.0433
 5193SOL    HW118984   5.731   9.318  10.217  0.8126 -0.4499  0.5974
 5193SOL    HW218985   5.639   9.435  10.190  0.2786 -0.8609  0.6327
 5194SOL     OW18986   8.829   2.913  10.339  0.1159  0.1128  0.5829
 5194SOL    HW118987   8.868   2.996  10.311  0.2158 -0.2663 -0.4102
 5194SOL    HW218988   8.892   2.846  10.314 -0.4827 -0.3668  0.3354
 5195SOL     OW18989   1.154   8.824   6.319 -0.0179 -0.5620  0.1533
 5195SOL    HW118990   1.129   8.793   6.406  0.4901 -0.3568  0.3733
 5195SOL    HW218991   1.076   8.808   6.265  0.1792 -2.0734  0.3020
 5196SOL     OW18992   2.228   6.087  10.497  0.3345 -0.6955 -0.1655
 5196SOL    HW118993   2.234   6.172  10.541  0.9738  0.7351 -2.9623
 5196SOL    HW218994   2.229   6.023  10.569  3.6590  1.4504  1.8264
 5197SOL     OW18995   3.739   0.505   4.909 -0.0913 -0.0279 -0.5759
 5197SOL    HW118996   3.798   0.457   4.852 -0.5202 -0.7014 -0.4725
 5197SOL    HW218997   3.776   0.593   4.915  0.1385 -0.0484 -1.6089
 5198SOL     OW18998   8.760   9.339   2.761 -0.0220 -0.3966 -0.6837
 5198SOL    HW118999   8.726   9.342   2.672  1.8448  0.1337 -1.3963
 5198SOL    HW219000   8.763   9.431   2.788 -0.7521 -0.5681  0.0043
 5199SOL     OW19001   9.525   2.821   1.800 -0.0501 -0.2870  0.1144
 5199SOL    HW119002   9.593   2.765   1.763  0.3345  0.3333 -0.1216
 5199SOL    HW219003   9.558   2.846   1.886  0.4053  0.7065 -0.3485
 5200SOL     OW19004   8.069   1.083   6.525  0.0333 -0.3700 -0.0697
 5200SOL    HW119005   7.989   1.123   6.492  0.6370 -0.2073 -1.3917
 5200SOL    HW219006   8.069   1.102   6.619  0.6365  3.3908 -0.7347
 5201SOL     OW19007  10.186   0.400   2.487 -0.1144  0.2204  0.1843
 5201SOL    HW119008  10.186   0.471   2.422  3.3181  0.2874  0.1741
 5201SOL    HW219009  10.176   0.320   2.435 -1.8064  0.5285  0.0039
 5202SOL     OW19010   9.091   7.183   3.350  0.1937  0.1449  0.4885
 5202SOL    HW119011   9.131   7.182   3.263  0.4351  0.8541  0.5898
 5202SOL    HW219012   9.119   7.266   3.389 -1.8346  0.9154  0.3447
 5203SOL     OW19013   2.570   4.337   7.030 -0.2827  0.2293 -0.0867
 5203SOL    HW119014   2.520   4.364   7.107  0.9657 -0.7531  1.0891
 5203SOL    HW219015   2.535   4.391   6.959 -2.1071  0.4860  0.9591
 5204SOL     OW19016   2.834   6.289   9.638 -0.5106  0.3433 -0.3652
 5204SOL    HW119017   2.895   6.221   9.665 -1.3746  0.2831  1.5342
 5204SOL    HW219018   2.752   6.267   9.682 -1.2332  1.7781 -0.9359
 5205SOL     OW19019   9.572   1.083   0.825 -0.7139  0.4880  0.1809
 5205SOL    HW119020   9.532   1.000   0.800  0.1484 -0.2605  1.2333
 5205SOL    HW219021   9.615   1.114   0.745  1.1987 -1.3915  0.4524
 5206SOL     OW19022   1.799   0.528   9.931 -0.0529  0.6684  0.1133
 5206SOL    HW119023   1.863   0.545  10.000  0.6552 -0.7624 -0.1616
 5206SOL    HW219024   1.826   0.444   9.894  0.3605  2.0028 -2.7729
 5207SOL     OW19025   4.849   9.363   4.509 -0.3087 -0.0884  0.2743
 5207SOL    HW119026   4.756   9.340   4.512  0.2402 -2.4298  0.2837
 5207SOL    HW219027   4.878   9.353   4.600 -0.0326  0.5411  0.2510
 5208SOL     OW19028   9.936   8.239   8.959  0.8142  0.3645 -0.0108
 5208SOL    HW119029  10.029   8.219   8.956  1.0654  1.4540  0.2501
 5208SOL    HW219030   9.893   8.154   8.952  1.8155 -0.1139 -0.4961
 5209SOL     OW19031   3.806   6.644   8.388  0.5312  0.1400 -0.1371
 5209SOL    HW119032   3.780   6.585   8.318  0.4052  1.1008 -0.9173
 5209SOL    HW219033   3.777   6.601   8.469 -0.3023 -0.4590 -0.7518
 5210SOL     OW19034  10.498   0.567   9.144 -0.3031  0.2050  0.2918
 5210SOL    HW119035  10.435   0.631   9.177 -0.5440  0.4667 -0.6594
 5210SOL    HW219036  10.496   0.578   9.049  1.5842  0.5966  0.2777
 5211SOL     OW19037   8.724   2.226   8.413 -0.3486  0.1159  0.3598
 5211SOL    HW119038   8.654   2.199   8.473 -0.3483 -2.4323 -0.7215
 5211SOL    HW219039   8.787   2.154   8.416  0.4206  0.6933 -1.5041
 5212SOL     OW19040   6.228   3.589   2.730  0.0429 -0.2337 -0.3583
 5212SOL    HW119041   6.197   3.537   2.656  0.8648 -2.1376  0.5952
 5212SOL    HW219042   6.291   3.650   2.692  1.4350 -2.0651 -1.1029
 5213SOL     OW19043   5.144   5.879  10.098 -0.1730  0.2650  0.1116
 5213SOL    HW119044   5.121   5.793  10.133  1.3006 -0.2816 -0.2091
 5213SOL    HW219045   5.088   5.890  10.021  0.7108 -1.0872 -0.7428
 5214SOL     OW19046   7.099   5.690   5.577 -0.3939 -0.3881  0.1105
 5214SOL    HW119047   7.117   5.782   5.598  0.0614 -0.4689  0.0944
 5214SOL    HW219048   7.028   5.665   5.635 -0.4192 -0.0636  0.2199
 5215SOL     OW19049   1.706  10.863   3.844  0.3285  0.4906 -0.2545
 5215SOL    HW119050   1.744  10.846   3.757 -0.7364 -0.4609 -0.5519
 5215SOL    HW219051   1.679  10.954   3.841  1.2786  0.7693 -0.5431
 5216SOL     OW19052   1.272   4.065   8.838  0.2437 -0.1163 -0.6551
 5216SOL    HW119053   1.222   4.123   8.896 -1.2537 -0.1765 -1.8322
 5216SOL    HW219054   1.355   4.051   8.883 -0.4463  0.7443  0.9324
 5217SOL     OW19055  10.782   5.540   7.176  0.3388  0.3634  0.1690
 5217SOL    HW119056  10.750   5.452   7.154 -0.1220  0.2340  1.3169
 5217SOL    HW219057  10.877   5.528   7.185  0.5495  0.4174 -1.6501
 5218SOL     OW19058   5.515   5.103   8.505 -0.4352 -0.0521 -0.1470
 5218SOL    HW119059   5.434   5.115   8.555  0.4191 -0.0217  1.2800
 5218SOL    HW219060   5.580   5.153   8.555  0.4321  0.0174 -1.3437
 5219SOL     OW19061   1.615   5.782   5.695 -0.6045  0.3617  0.7463
 5219SOL    HW119062   1.622   5.830   5.778  1.0522 -0.1967  0.9502
 5219SOL    HW219063   1.639   5.847   5.628 -1.7386  0.7550  0.7072
 5220SOL     OW19064   8.535   3.236   7.168 -0.1234  0.2409 -0.0308
 5220SOL    HW119065   8.554   3.328   7.152 -0.3413  0.2909 -0.0094
 5220SOL    HW219066   8.540   3.227   7.263  0.5507  0.0832 -0.0846
 5221SOL     OW19067   7.107   3.097   3.111 -0.1899 -0.3361  0.2559
 5221SOL    HW119068   7.200   3.114   3.126 -0.0895 -0.6457 -0.0126
 5221SOL    HW219069   7.105   3.027   3.046 -0.6199  0.4160 -0.5489
 5222SOL     OW19070   5.147   8.540   4.138  0.7413  0.3957  0.0006
 5222SOL    HW119071   5.152   8.572   4.047  0.3814 -0.0151 -0.1620
 5222SOL    HW219072   5.075   8.477   4.137  0.9685  0.1315  0.4954
 5223SOL     OW19073   2.718   5.622   2.940  0.2276  0.0267  0.1570
 5223SOL    HW119074   2.676   5.704   2.966 -0.4716 -0.0164 -0.7915
 5223SOL    HW219075   2.663   5.589   2.868  0.7802 -1.0190  0.2069
 5224SOL     OW19076   2.827   5.474   3.594 -0.1036 -0.5168  0.4394
 5224SOL    HW119077   2.910   5.497   3.636  0.1972 -1.3931  0.3360
 5224SOL    HW219078   2.778   5.556   3.591  0.2002 -0.2731  1.7775
 5225SOL     OW19079   9.138  10.246   8.070 -0.0632 -0.4909  0.0555
 5225SOL    HW119080   9.060  10.284   8.031 -0.7425 -1.8228  0.1068
 5225SOL    HW219081   9.161  10.307   8.140 -0.9190  0.0305 -0.1111
 5226SOL     OW19082   6.864   5.022   1.677  0.1241 -0.1662  0.3175
 5226SOL    HW119083   6.857   4.991   1.586  1.4512 -0.6595  0.3756
 5226SOL    HW219084   6.789   4.982   1.721 -0.7260  0.3484 -0.6338
 5227SOL     OW19085   9.963   9.509   7.734 -0.3814  0.1294  0.7945
 5227SOL    HW119086   9.891   9.552   7.689  1.3303  1.2014 -1.0198
 5227SOL    HW219087  10.023   9.581   7.758  0.2774 -0.7680  1.9309
 5228SOL     OW19088   2.123   8.020   2.369  0.2060 -0.0258  0.1879
 5228SOL    HW119089   2.206   7.972   2.373 -0.8804 -1.8901  1.4625
 5228SOL    HW219090   2.133   8.091   2.432  0.6168 -0.6459  0.8349
 5229SOL     OW19091   4.814   1.729   9.686 -0.3544  0.2553  0.4296
 5229SOL    HW119092   4.834   1.817   9.652 -1.4699  0.6108  0.6773
 5229SOL    HW219093   4.749   1.694   9.626 -0.7118  0.0217  0.9472
 5230SOL     OW19094  10.888   4.707   0.252  0.4757 -0.3522 -0.0986
 5230SOL    HW119095  10.950   4.766   0.209 -0.4833 -0.7220 -2.0665
 5230SOL    HW219096  10.808   4.714   0.199 -0.3026 -1.8697  0.8419
 5231SOL     OW19097   6.985   6.592  10.375  0.0445 -0.1106 -0.0395
 5231SOL    HW119098   7.043   6.547  10.436  1.1671  1.5865  0.1964
 5231SOL    HW219099   7.036   6.668  10.346 -1.5870  0.7072 -0.8254
 5232SOL     OW19100   3.599   3.892   5.222 -0.4189 -0.2762 -0.3542
 5232SOL    HW119101   3.668   3.939   5.269 -1.3134  1.6373 -0.9113
 5232SOL    HW219102   3.636   3.874   5.136 -0.4075  0.2452 -0.4593
 5233SOL     OW19103   3.131   1.862   5.866  0.7980 -0.4574 -0.4981
 5233SOL    HW119104   3.087   1.794   5.917  0.5128 -0.7067 -1.0644
 5233SOL    HW219105   3.079   1.869   5.786  0.7800  0.4901 -0.4027
 5234SOL     OW19106  10.464   0.258   1.132  0.6810  0.0649  0.2335
 5234SOL    HW119107  10.439   0.173   1.170  0.5489  0.2854  0.6337
 5234SOL    HW219108  10.427   0.255   1.043 -2.1876  1.0331  1.3427
 5235SOL     OW19109   7.138   7.696   0.474 -0.1704 -1.0499 -0.3545
 5235SOL    HW119110   7.049   7.680   0.444 -0.8573  0.0715  1.0270
 5235SOL    HW219111   7.140   7.790   0.494  1.2320 -1.1205 -0.0905
 5236SOL     OW19112   9.998   6.423  10.023  0.3276  0.2621  0.2668
 5236SOL    HW119113   9.904   6.430  10.004  0.4497 -0.8242 -0.8103
 5236SOL    HW219114  10.017   6.500  10.077 -1.5635 -0.4604  2.0540
 5237SOL     OW19115   6.009   9.992   9.167  0.5030 -0.1653  0.4540
 5237SOL    HW119116   6.025  10.049   9.243  4.5480 -1.2505  0.5749
 5237SOL    HW219117   6.080  10.013   9.107 -1.2324 -1.1009 -1.9819
 5238SOL     OW19118   5.295   1.305   6.726 -0.1758  0.4715 -0.0532
 5238SOL    HW119119   5.288   1.348   6.811  1.9160  2.0202 -0.6458
 5238SOL    HW219120   5.242   1.359   6.667  0.7565  1.0405 -0.3615
 5239SOL     OW19121   8.477   8.112   6.046 -0.1013 -0.0776  0.1798
 5239SOL    HW119122   8.531   8.091   5.969 -0.2297  0.7007 -0.1308
 5239SOL    HW219123   8.387   8.105   6.015 -0.1602 -0.3589  0.4188
 5240SOL     OW19124   2.576   2.869   2.524 -0.4745  0.0197  0.1943
 5240SOL    HW119125   2.620   2.783   2.529  0.8297  0.7382  1.4814
 5240SOL    HW219126   2.648   2.932   2.514 -1.4305  0.9616 -0.7733
 5241SOL     OW19127   4.022  10.683   2.712  0.6750 -0.5254  0.0707
 5241SOL    HW119128   3.946  10.741   2.707  0.4959 -0.7530  0.1359
 5241SOL    HW219129   4.050  10.688   2.803  0.6082 -0.6050  0.0961
 5242SOL     OW19130   4.974   5.687   3.244 -0.1976 -0.2483  0.3908
 5242SOL    HW119131   4.915   5.614   3.263  0.4767 -0.3184  2.3905
 5242SOL    HW219132   4.990   5.726   3.330  1.6835  0.5235 -0.3025
 5243SOL     OW19133   5.340   2.633   5.158  0.3151  0.1670  0.4874
 5243SOL    HW119134   5.427   2.643   5.121  0.6964  0.2514  1.3985
 5243SOL    HW219135   5.342   2.682   5.240 -0.5981  0.2005  0.5018
 5244SOL     OW19136  10.715   0.829   6.217  0.1414 -0.3654  0.8422
 5244SOL    HW119137  10.783   0.837   6.150  1.5313 -0.8732  2.1765
 5244SOL    HW219138  10.707   0.735   6.232 -1.6383 -0.3906 -0.0565
 5245SOL     OW19139   4.832   4.178   1.410 -0.2909  0.3128  0.0941
 5245SOL    HW119140   4.860   4.119   1.480 -0.9384 -1.3238 -1.0234
 5245SOL    HW219141   4.781   4.246   1.456 -1.5136 -1.2683  1.1266
 5246SOL     OW19142   6.631   7.471   8.081 -0.2862  0.1815  0.0574
 5246SOL    HW119143   6.674   7.436   8.159  2.1280  1.5050 -0.6303
 5246SOL    HW219144   6.616   7.563   8.102  0.9522  0.6939 -1.2821
 5247SOL     OW19145   4.603   3.908   2.000 -1.0672  0.2398  0.0879
 5247SOL    HW119146   4.560   3.841   1.947 -1.5199  0.6829 -0.1152
 5247SOL    HW219147   4.532   3.966   2.026 -0.8169  0.1179  1.0401
 5248SOL     OW19148  10.718   8.514   1.652  0.1769 -0.4825 -0.0971
 5248SOL    HW119149  10.644   8.551   1.700  2.0274  0.5492  2.1178
 5248SOL    HW219150  10.694   8.521   1.560 -1.9551  0.9494  0.5328
 5249SOL     OW19151   8.866   0.986   4.617  0.2619  0.0868  0.4122
 5249SOL    HW119152   8.960   0.981   4.635  0.3573 -0.6314 -0.2689
 5249SOL    HW219153   8.860   0.993   4.522 -0.3910 -0.4118  0.4161
 5250SOL     OW19154   3.504   3.808   3.437  0.3961  0.2324 -0.2900
 5250SOL    HW119155   3.576   3.845   3.487 -0.1824 -1.8962  2.2175
 5250SOL    HW219156   3.538   3.803   3.347  3.2831 -0.4727  0.7815
 5251SOL     OW19157  10.432   0.289   1.574 -0.1752  0.1246  0.2158
 5251SOL    HW119158  10.428   0.362   1.636  0.0846  0.7942 -0.5458
 5251SOL    HW219159  10.422   0.211   1.628 -0.7863  0.7392  1.0043
 5252SOL     OW19160  10.545   5.375   9.532  0.6402 -0.0269  0.0379
 5252SOL    HW119161  10.554   5.287   9.495  3.2915 -0.4460  1.5805
 5252SOL    HW219162  10.581   5.433   9.465  0.0155 -0.2208 -0.4719
 5253SOL     OW19163   7.546   5.183  10.720  1.0157  0.2814 -0.5709
 5253SOL    HW119164   7.619   5.140  10.764 -0.0568  0.2585  1.2551
 5253SOL    HW219165   7.548   5.273  10.753  0.8817  0.5835 -1.3669
 5254SOL     OW19166   4.220   4.661   2.649 -0.0820  0.1447  0.3763
 5254SOL    HW119167   4.282   4.693   2.714 -0.2916  0.6578  0.3246
 5254SOL    HW219168   4.214   4.731   2.584 -0.4425 -0.0504  0.1947
 5255SOL     OW19169   0.677   4.127   5.585  0.3400 -0.0838 -0.2113
 5255SOL    HW119170   0.716   4.169   5.661  2.4462  0.4504 -1.5587
 5255SOL    HW219171   0.702   4.035   5.593  0.5691 -0.0258 -0.2518
 5256SOL     OW19172  10.621   1.657   2.221 -0.3023 -0.1714  0.0884
 5256SOL    HW119173  10.579   1.733   2.262  0.3336 -0.0796  0.5889
 5256SOL    HW219174  10.712   1.684   2.210 -0.6087  0.0628 -2.0498
 5257SOL     OW19175   6.295   7.928   5.663  0.0643  0.4062  0.1383
 5257SOL    HW119176   6.292   7.833   5.677  0.2790 -0.1729 -3.2871
 5257SOL    HW219177   6.222   7.946   5.604  1.8166  1.9002 -1.6393
 5258SOL     OW19178   5.677   4.888   1.628  0.1110 -0.1616  0.4377
 5258SOL    HW119179   5.648   4.964   1.577 -0.3606 -0.1609  0.7105
 5258SOL    HW219180   5.657   4.813   1.572  0.5460 -0.0915  0.1820
 5259SOL     OW19181   6.228   9.121  10.200 -0.2274 -0.0169 -0.0259
 5259SOL    HW119182   6.303   9.114  10.141 -0.4566 -1.8125 -0.1200
 5259SOL    HW219183   6.151   9.107  10.145 -0.6141  1.3185  0.1625
 5260SOL     OW19184   8.212   9.580   0.564  0.3164  0.1614 -0.3415
 5260SOL    HW119185   8.154   9.652   0.541 -0.0421  0.2749  0.8564
 5260SOL    HW219186   8.167   9.501   0.536  0.7877  0.4040 -1.8150
 5261SOL     OW19187   3.366   4.296   8.997  0.4271  0.5369  0.5682
 5261SOL    HW119188   3.402   4.337   8.919 -0.0003  1.0938  0.6565
 5261SOL    HW219189   3.409   4.211   9.002 -0.6501 -0.1420 -1.1300
 5262SOL     OW19190   3.870  10.865   6.384  0.7610  0.0128  0.3865
 5262SOL    HW119191   3.795  10.888   6.330  1.8239  0.5390 -0.8836
 5262SOL    HW219192   3.884  10.942   6.439  1.3999  0.5818 -0.5562
 5263SOL     OW19193   7.711   0.687   8.279 -0.2835  0.4170  0.3523
 5263SOL    HW119194   7.716   0.710   8.187  0.2442 -0.4791  0.1501
 5263SOL    HW219195   7.778   0.619   8.291 -1.6978 -0.9030  0.9491
 5264SOL     OW19196   0.011   1.461   1.487  0.2378  0.2885 -0.6427
 5264SOL    HW119197  -0.019   1.370   1.485  1.7789 -0.3038  1.5045
 5264SOL    HW219198  -0.034   1.500   1.562 -1.4301  1.6985 -2.3300
 5265SOL     OW19199   7.930   8.963   0.772  0.3097 -0.5337 -0.1536
 5265SOL    HW119200   7.902   9.021   0.701 -0.1205 -0.7368 -0.1543
 5265SOL    HW219201   7.886   8.880   0.754  1.4431 -1.0683 -0.5262
 5266SOL     OW19202   7.849   5.891   9.573 -0.9472 -0.6729 -0.7877
 5266SOL    HW119203   7.776   5.884   9.510 -1.3044 -1.1405 -0.3278
 5266SOL    HW219204   7.914   5.829   9.541 -1.2414 -1.1089 -0.5544
 5267SOL     OW19205   4.458   0.417   0.209 -0.4547 -0.4140  0.6312
 5267SOL    HW119206   4.521   0.478   0.172 -0.3774 -0.8781 -0.0022
 5267SOL    HW219207   4.504   0.377   0.283 -0.7460  0.7933  1.4840
 5268SOL     OW19208   3.182   5.445   9.072 -0.3321 -0.1253 -0.2189
 5268SOL    HW119209   3.247   5.399   9.124 -0.7966 -0.6340 -0.0899
 5268SOL    HW219210   3.171   5.391   8.994 -2.7066 -1.5416  1.0636
 5269SOL     OW19211   7.039   4.379   4.613  0.8124  0.6195  0.0384
 5269SOL    HW119212   7.124   4.334   4.617 -0.1719 -1.3212 -0.3128
 5269SOL    HW219213   6.978   4.318   4.654 -0.3854  2.1187  0.5301
 5270SOL     OW19214   0.865   6.539   4.572 -0.4072 -0.0520  0.2797
 5270SOL    HW119215   0.859   6.579   4.485 -3.1564  2.7754  1.6432
 5270SOL    HW219216   0.787   6.483   4.577  1.7798 -3.2520 -0.4449
 5271SOL     OW19217  10.495   2.286   0.700 -0.2435 -0.2517  0.7071
 5271SOL    HW119218  10.566   2.222   0.710 -1.4093 -1.5215  1.0005
 5271SOL    HW219219  10.427   2.240   0.652  0.2866  1.9121 -2.2634
 5272SOL     OW19220   9.770   0.406   3.677 -0.2631 -0.1564 -0.1004
 5272SOL    HW119221   9.681   0.419   3.646 -0.8464 -1.4017  0.9687
 5272SOL    HW219222   9.785   0.477   3.739 -0.4993  0.0852 -0.3246
 5273SOL     OW19223   8.860  10.441   8.631  0.4300 -0.3074  0.5789
 5273SOL    HW119224   8.782  10.405   8.592  1.6974  0.3256 -2.6835
 5273SOL    HW219225   8.829  10.515   8.684 -1.2268 -0.4769 -0.1537
 5274SOL     OW19226   1.125   6.498   3.090 -0.0656  0.3400 -0.4224
 5274SOL    HW119227   1.166   6.583   3.076 -0.2007  0.6286  0.8182
 5274SOL    HW219228   1.132   6.484   3.185 -1.1993 -0.4296 -0.4443
 5275SOL     OW19229   9.876   9.657   8.666  0.0381  0.2680  0.3167
 5275SOL    HW119230   9.803   9.597   8.682  0.8202 -0.0968  2.8811
 5275SOL    HW219231   9.927   9.614   8.597 -0.2758 -1.2410  0.9993
 5276SOL     OW19232   7.845   4.855   2.819 -0.6127 -0.2984 -0.1836
 5276SOL    HW119233   7.837   4.931   2.876 -0.2930 -0.2914 -0.1452
 5276SOL    HW219234   7.855   4.892   2.731  0.6426 -0.2655 -0.0382
 5277SOL     OW19235   5.765   7.018   0.096 -0.1302 -0.2300  0.0671
 5277SOL    HW119236   5.837   7.007   0.034  1.0765  0.3744  1.3280
 5277SOL    HW219237   5.786   7.099   0.143 -1.3341 -0.3616  0.8568
 5278SOL     OW19238   4.423   2.249   2.697 -0.4304  0.4947  0.6183
 5278SOL    HW119239   4.485   2.314   2.665  3.4931 -2.7292  1.3438
 5278SOL    HW219240   4.416   2.266   2.791  0.4756 -0.0244  0.7816
 5279SOL     OW19241   5.634   0.132   0.785 -0.4819 -0.2564  0.1417
 5279SOL    HW119242   5.558   0.190   0.795 -0.4688 -0.1937 -0.1099
 5279SOL    HW219243   5.691   0.178   0.724 -0.9015 -0.9673 -0.8062
 5280SOL     OW19244   3.530  10.047   1.535  0.4085  0.0380  0.4499
 5280SOL    HW119245   3.624  10.034   1.551  0.8112 -1.3512 -2.7096
 5280SOL    HW219246   3.500   9.963   1.500 -2.2529  0.1722  2.2960
 5281SOL     OW19247  10.583   8.703   3.087 -0.1026  0.1042 -0.4642
 5281SOL    HW119248  10.618   8.742   3.007  0.5158 -0.1821 -0.3343
 5281SOL    HW219249  10.586   8.774   3.151  0.7074 -0.0468 -0.3211
 5282SOL     OW19250   8.128   8.304   2.023  0.4662  0.7734  0.5809
 5282SOL    HW119251   8.082   8.388   2.024 -0.8819  0.0784 -0.7430
 5282SOL    HW219252   8.059   8.239   2.008  1.5768 -0.5143  0.9664
 5283SOL     OW19253   9.804   9.362  10.441 -0.2153  0.3351  0.4102
 5283SOL    HW119254   9.860   9.407  10.377 -0.1836 -0.2706  0.0121
 5283SOL    HW219255   9.860   9.294  10.478 -0.9621 -0.8608 -0.6421
 5284SOL     OW19256   8.715   6.729   0.541 -0.2573  0.1052 -0.8597
 5284SOL    HW119257   8.679   6.685   0.618  1.9036  1.6502  1.1223
 5284SOL    HW219258   8.805   6.697   0.535 -0.2675  0.3226 -2.5370
 5285SOL     OW19259   1.364   7.615   6.506  0.1911  0.0533  0.2476
 5285SOL    HW119260   1.320   7.558   6.569  0.0391 -1.2793 -1.0348
 5285SOL    HW219261   1.423   7.556   6.458  0.4781  1.1011 -0.6940
 5286SOL     OW19262   5.023   6.487   1.879  0.0553 -0.0729  0.2493
 5286SOL    HW119263   5.110   6.526   1.872 -0.4494  1.1579  0.5772
 5286SOL    HW219264   4.967   6.558   1.911 -0.9730 -0.9798  0.5285
 5287SOL     OW19265   2.621   5.599   0.187 -0.6886 -0.6323 -0.1581
 5287SOL    HW119266   2.592   5.613   0.277  0.4536 -0.3993  0.1757
 5287SOL    HW219267   2.669   5.678   0.164 -0.6583 -0.8477 -0.8434
 5288SOL     OW19268   5.022   1.284  10.825 -0.6437 -0.8398  0.2235
 5288SOL    HW119269   4.963   1.356  10.805  1.9803  1.4352  0.2560
 5288SOL    HW219270   4.998   1.214  10.764 -0.9864  1.3683 -2.2556
 5289SOL     OW19271  10.354   1.608   2.119  0.3761 -0.1140 -0.8106
 5289SOL    HW119272  10.446   1.618   2.145  0.5226 -1.5955 -0.7393
 5289SOL    HW219273  10.332   1.518   2.142 -0.9948  0.1192 -1.1728
 5290SOL     OW19274   8.415   7.893   2.391  0.2908 -0.1266  0.4454
 5290SOL    HW119275   8.362   7.863   2.317 -0.9762  1.4126  0.6974
 5290SOL    HW219276   8.455   7.975   2.361  1.6091 -0.6692  0.6796
 5291SOL     OW19277   5.683   1.058   0.374  0.0355  0.3094 -0.3456
 5291SOL    HW119278   5.745   0.989   0.349  0.4343  0.8668 -0.9049
 5291SOL    HW219279   5.716   1.090   0.458 -1.2380 -1.4838  0.8785
 5292SOL     OW19280   4.706   5.358   3.536 -0.4807 -0.4007 -0.1606
 5292SOL    HW119281   4.613   5.334   3.529 -0.2351 -1.1634 -0.9908
 5292SOL    HW219282   4.727   5.346   3.628 -1.1883 -0.3191  0.0155
 5293SOL     OW19283   6.719  10.532   5.149 -0.0061  0.0347 -0.3506
 5293SOL    HW119284   6.674  10.448   5.142 -1.5396  0.4714  3.4365
 5293SOL    HW219285   6.809  10.510   5.172 -0.4412 -0.5563  0.7743
 5294SOL     OW19286   8.370   7.754  10.396 -0.1193  0.1736 -0.5593
 5294SOL    HW119287   8.414   7.826  10.441 -1.3904  0.7087 -0.1238
 5294SOL    HW219288   8.370   7.682  10.459 -0.3773  0.3643 -0.3377
 5295SOL     OW19289   8.629   4.466   1.566  0.0120 -0.0801  0.4226
 5295SOL    HW119290   8.589   4.534   1.620  0.2977  1.0382 -0.7500
 5295SOL    HW219291   8.583   4.385   1.590 -2.5221  1.0633 -0.4523
 5296SOL     OW19292   1.551   1.245   7.762 -0.0507  0.1514  0.0067
 5296SOL    HW119293   1.550   1.204   7.676 -0.2788 -0.8032  0.4506
 5296SOL    HW219294   1.592   1.180   7.819  2.4696  1.7944  0.1443
 5297SOL     OW19295   5.837   2.789   4.199 -0.0902  0.2142  0.6200
 5297SOL    HW119296   5.782   2.711   4.190  0.3783  0.0041 -0.5632
 5297SOL    HW219297   5.918   2.765   4.154 -0.1185  1.5573 -0.1537
 5298SOL     OW19298   8.867   6.488   2.525  0.4262 -0.4105 -0.7306
 5298SOL    HW119299   8.874   6.554   2.593 -1.3843 -0.0873 -0.8317
 5298SOL    HW219300   8.919   6.414   2.558  0.6059  0.2116  0.4064
 5299SOL     OW19301   7.901   1.323   7.187 -0.0538 -0.1183  0.0748
 5299SOL    HW119302   7.899   1.306   7.093  1.4973 -1.0539  0.1996
 5299SOL    HW219303   7.872   1.241   7.228 -0.0019  0.0343  0.4234
 5300SOL     OW19304   1.379   3.223   1.467 -0.3079 -0.2028 -0.0559
 5300SOL    HW119305   1.373   3.292   1.401  0.9166 -0.1711 -0.1488
 5300SOL    HW219306   1.288   3.202   1.488 -0.7842 -1.4076 -3.0366
 5301SOL     OW19307   3.964   5.717   0.509 -0.5615  0.1252  0.1260
 5301SOL    HW119308   3.938   5.625   0.499  0.7965 -0.0993 -1.5299
 5301SOL    HW219309   4.030   5.715   0.578 -1.2252 -0.0034  0.7640
 5302SOL     OW19310   9.403   5.419   5.327 -0.5036  0.3551  0.1232
 5302SOL    HW119311   9.410   5.416   5.423  0.5410 -0.1885  0.0391
 5302SOL    HW219312   9.421   5.329   5.300  0.7240  0.8369 -0.6799
 5303SOL     OW19313   2.215   9.576   5.256  0.2735 -0.8307 -0.3053
 5303SOL    HW119314   2.275   9.629   5.205 -1.2731  0.5457 -0.7379
 5303SOL    HW219315   2.128   9.598   5.222 -0.6542 -1.1315  1.7850
 5304SOL     OW19316   8.046   4.577   8.773  0.2004 -0.0197 -0.0346
 5304SOL    HW119317   8.027   4.551   8.863  0.6626  1.5748  0.5334
 5304SOL    HW219318   7.986   4.649   8.756  2.3139  1.8052  0.1001
 5305SOL     OW19319   3.264   6.440   8.996 -0.2543 -0.1297  0.9083
 5305SOL    HW119320   3.184   6.422   9.045  0.1291  0.2480  1.6669
 5305SOL    HW219321   3.267   6.371   8.929 -2.4972  1.2550 -0.7069
 5306SOL     OW19322  10.840   8.625   3.688 -0.2712 -0.4491  0.7166
 5306SOL    HW119323  10.857   8.533   3.708  0.7096  0.0574  2.3070
 5306SOL    HW219324  10.924   8.659   3.657 -0.6635 -0.1143 -0.0033
 5307SOL     OW19325   3.048   8.582   1.381 -0.5897 -0.4597  0.1330
 5307SOL    HW119326   2.985   8.529   1.333 -1.3655  0.5780 -0.0368
 5307SOL    HW219327   3.027   8.567   1.473 -2.3868  1.3263  0.0734
 5308SOL     OW19328   6.470   6.176   9.887  0.2770 -0.0135 -0.4951
 5308SOL    HW119329   6.474   6.147   9.978  1.0162 -1.3754 -0.9595
 5308SOL    HW219330   6.383   6.215   9.879  0.3000  0.3587  0.8589
 5309SOL     OW19331   7.468   4.127   3.493  0.4284  0.1680 -0.4378
 5309SOL    HW119332   7.511   4.212   3.504  0.8508 -0.3376  2.2685
 5309SOL    HW219333   7.374   4.149   3.492  0.4106  0.5277  2.7333
 5310SOL     OW19334   6.831   4.573   9.242  0.2417  0.1394 -0.6024
 5310SOL    HW119335   6.879   4.629   9.304 -0.2206  1.0932 -1.0861
 5310SOL    HW219336   6.779   4.515   9.297  0.5298  0.3661 -0.0854
 5311SOL     OW19337   4.536  10.922  10.961 -0.4795  0.4803 -0.0566
 5311SOL    HW119338   4.573  11.008  10.979 -0.4649  0.5924 -0.6197
 5311SOL    HW219339   4.520  10.884  11.048 -0.7078  1.1413  0.1914
 5312SOL     OW19340   4.345   0.758   4.368  0.3100  0.3809 -0.6421
 5312SOL    HW119341   4.300   0.780   4.450 -2.0648  0.0660 -1.8253
 5312SOL    HW219342   4.326   0.832   4.310  1.9371  0.5822 -0.9211
 5313SOL     OW19343   5.115   6.129   8.108 -0.5620 -0.1611  0.4479
 5313SOL    HW119344   5.021   6.131   8.128 -0.5147  1.1253  0.6126
 5313SOL    HW219345   5.137   6.036   8.106 -2.5678 -0.6305 -3.0732
 5314SOL     OW19346   0.488   1.797   5.590  0.4247 -0.1572  0.4098
 5314SOL    HW119347   0.398   1.812   5.558  0.8577  0.3803 -0.5786
 5314SOL    HW219348   0.490   1.841   5.675  0.4778  2.0604 -0.6940
 5315SOL     OW19349   5.530   4.205   2.726  0.0447 -0.0058  0.1104
 5315SOL    HW119350   5.521   4.203   2.821  0.5653 -0.0258  0.1613
 5315SOL    HW219351   5.622   4.226   2.711  0.2293 -1.1188 -0.3865
 5316SOL     OW19352   2.193   9.251   1.785 -0.4587 -0.5641  0.1983
 5316SOL    HW119353   2.126   9.267   1.851 -1.2321 -1.2137 -0.4200
 5316SOL    HW219354   2.243   9.332   1.782 -1.2023 -0.0800  0.6889
 5317SOL     OW19355   9.772   6.463   2.848  0.0733 -0.4382 -0.0751
 5317SOL    HW119356   9.850   6.432   2.801 -1.3789 -2.2691 -1.4017
 5317SOL    HW219357   9.713   6.387   2.847 -1.3972  0.6611  1.6150
 5318SOL     OW19358   8.134   7.796   3.918 -0.2457  0.6782  0.6411
 5318SOL    HW119359   8.159   7.812   3.827 -1.5769  0.6991  0.2603
 5318SOL    HW219360   8.127   7.701   3.925  0.9499  0.6071  1.0401
 5319SOL     OW19361   1.111   7.988   1.503 -0.4965 -0.4934  0.6907
 5319SOL    HW119362   1.132   8.058   1.565  0.2703 -2.1675  2.3510
 5319SOL    HW219363   1.146   8.020   1.419  1.7250  0.2334  1.8358
 5320SOL     OW19364   3.813   9.017   9.959 -0.1502 -0.2851 -0.1718
 5320SOL    HW119365   3.832   9.040   9.867 -0.1800 -2.5547 -0.7763
 5320SOL    HW219366   3.875   9.070  10.009  1.1567 -0.3675 -1.6248
 5321SOL     OW19367   1.692   3.740   6.064 -0.2535 -0.1720 -0.2851
 5321SOL    HW119368   1.745   3.711   5.989  0.8242 -0.4942  0.5794
 5321SOL    HW219369   1.723   3.828   6.082 -0.1947 -0.2638  0.0590
 5322SOL     OW19370   7.088  10.599   4.857  0.3944 -0.0644 -0.3329
 5322SOL    HW119371   7.130  10.535   4.914 -0.2317 -2.4706 -2.4767
 5322SOL    HW219372   7.159  10.632   4.802  0.9166  1.9307  1.4886
 5323SOL     OW19373   0.941   7.746   6.419 -0.2115 -0.6438  0.1473
 5323SOL    HW119374   1.018   7.779   6.373  0.2281 -2.7510 -0.6871
 5323SOL    HW219375   0.874   7.812   6.404  1.1659  0.8045  0.1621
 5324SOL     OW19376   2.787   5.676   3.847  0.0630  0.2735  0.2170
 5324SOL    HW119377   2.779   5.583   3.872 -0.0456  0.4166  0.7154
 5324SOL    HW219378   2.769   5.724   3.927 -2.4998  0.7936 -0.6281
 5325SOL     OW19379   1.322   8.267   1.919  0.2720 -0.5548 -0.0697
 5325SOL    HW119380   1.242   8.255   1.969  0.3474 -0.7181  0.0142
 5325SOL    HW219381   1.297   8.322   1.845  0.1657 -0.3061  0.1554
 5326SOL     OW19382   5.302   9.503   3.903  0.4946 -0.1987 -0.0924
 5326SOL    HW119383   5.289   9.585   3.856  0.2400 -0.2891 -0.1807
 5326SOL    HW219384   5.235   9.503   3.972 -0.7624 -1.2030 -1.2877
 5327SOL     OW19385   8.144   4.951   0.281 -0.1461  0.1643  0.2009
 5327SOL    HW119386   8.049   4.955   0.290 -0.0212  0.0466  1.7393
 5327SOL    HW219387   8.159   4.892   0.208 -1.2548  0.0886  0.0303
 5328SOL     OW19388   4.710   1.619   4.353 -0.1376  0.3529  1.1454
 5328SOL    HW119389   4.686   1.529   4.374  4.1078 -0.9173  1.0224
 5328SOL    HW219390   4.668   1.635   4.268 -1.0625 -1.4842  1.2181
 5329SOL     OW19391   0.285   5.221   7.928  0.1421 -0.5293  0.2078
 5329SOL    HW119392   0.270   5.271   8.008 -0.2993 -0.6336  0.1931
 5329SOL    HW219393   0.313   5.286   7.864 -0.0064 -0.3666  0.3072
 5330SOL     OW19394   2.548   8.563   2.568  0.2143  0.4801  0.4480
 5330SOL    HW119395   2.538   8.647   2.613  0.3901  1.0226 -0.5206
 5330SOL    HW219396   2.625   8.523   2.609 -0.2233  0.5312  1.3155
 5331SOL     OW19397   2.131   4.560   4.332 -0.4491  0.4342 -0.0854
 5331SOL    HW119398   2.210   4.509   4.350 -0.4179  0.4556 -0.1585
 5331SOL    HW219399   2.104   4.533   4.244 -0.8046  0.0656  0.1354
 5332SOL     OW19400   4.827   8.836   5.990 -0.5562 -0.6594 -0.2067
 5332SOL    HW119401   4.778   8.826   6.072 -2.1684  1.6060 -0.8308
 5332SOL    HW219402   4.901   8.892   6.014 -1.4100  0.5870 -0.3916
 5333SOL     OW19403   0.304   5.434   2.174 -0.1412 -0.0341 -0.2426
 5333SOL    HW119404   0.361   5.370   2.215 -0.3583 -0.1941 -0.1935
 5333SOL    HW219405   0.327   5.517   2.216 -0.0820 -0.1305 -0.0856
 5334SOL     OW19406   4.067   4.108   1.210  0.4730  0.4665 -0.2185
 5334SOL    HW119407   3.993   4.049   1.198  1.0757  0.0338 -1.9354
 5334SOL    HW219408   4.037   4.193   1.179  0.6127  0.3460 -0.6865
 5335SOL     OW19409   3.838  10.208   1.860 -0.6162 -0.0202  0.3872
 5335SOL    HW119410   3.904  10.268   1.896 -0.9836  0.0501  0.9464
 5335SOL    HW219411   3.833  10.231   1.768 -2.2835  2.2714  1.0118
 5336SOL     OW19412   3.465   3.164   2.866 -0.4056 -0.1976  0.3796
 5336SOL    HW119413   3.514   3.214   2.801 -0.6822 -0.3039  0.0877
 5336SOL    HW219414   3.383   3.140   2.821 -0.7844  0.1023  0.9034
 5337SOL     OW19415   1.737   1.091   8.682  0.2487 -0.2280  0.2958
 5337SOL    HW119416   1.721   1.132   8.766 -0.3425  1.3557 -0.5720
 5337SOL    HW219417   1.650   1.077   8.644  0.5273 -0.4549 -0.2791
 5338SOL     OW19418   4.894   0.915   9.769  0.2738 -0.6312  0.4015
 5338SOL    HW119419   4.950   0.928   9.845  2.5880 -1.0147 -1.2005
 5338SOL    HW219420   4.940   0.957   9.697 -2.7303  1.2798 -0.5022
 5339SOL     OW19421  10.449   9.592   1.994  0.1453  0.0611 -0.0696
 5339SOL    HW119422  10.384   9.549   1.940 -0.4912  0.8779  0.0304
 5339SOL    HW219423  10.405   9.605   2.078  0.9326 -0.6887  0.4598
 5340SOL     OW19424   7.926   6.488   1.208  0.6662 -0.7328  0.2431
 5340SOL    HW119425   7.854   6.460   1.152  1.6211  1.2932 -2.1223
 5340SOL    HW219426   7.958   6.408   1.248 -1.0526 -2.0411 -0.9378
 5341SOL     OW19427   5.521   7.750   0.812  0.7817  0.1268  0.0364
 5341SOL    HW119428   5.461   7.718   0.880  1.3776 -0.8671  0.1047
 5341SOL    HW219429   5.513   7.845   0.816  0.1462  0.0446  0.8944
 5342SOL     OW19430   6.908   4.904   1.172  0.2375  0.0797  0.1157
 5342SOL    HW119431   6.883   4.876   1.084 -0.3398 -0.4870  0.4509
 5342SOL    HW219432   6.997   4.938   1.163  0.8241 -1.5212 -0.4008
 5343SOL     OW19433   1.307  10.380   4.293 -0.6681  0.0095  0.0926
 5343SOL    HW119434   1.313  10.408   4.201 -0.5498  0.8959  0.3639
 5343SOL    HW219435   1.382  10.322   4.305 -1.8985 -1.8716 -0.9590
 5344SOL     OW19436   3.805   1.061   1.215 -0.1206 -0.1819 -0.0055
 5344SOL    HW119437   3.863   1.135   1.195  1.1425 -1.3366 -0.7486
 5344SOL    HW219438   3.724   1.081   1.168  0.0177  0.9605  0.2043
 5345SOL     OW19439  10.672   5.920   1.144  0.1732 -0.4861  0.0259
 5345SOL    HW119440  10.714   5.860   1.205 -1.6995 -3.4480 -1.4525
 5345SOL    HW219441  10.702   5.892   1.058 -1.7467 -0.1618 -0.7778
 5346SOL     OW19442   2.097   8.027   2.917 -0.5566 -0.5659  0.3896
 5346SOL    HW119443   2.008   8.038   2.952 -0.8516  0.9062 -0.7488
 5346SOL    HW219444   2.103   7.933   2.897 -1.7927 -0.7121  0.6415
 5347SOL     OW19445   9.476   1.135   1.630 -0.2905 -0.1290 -0.3680
 5347SOL    HW119446   9.454   1.051   1.669 -1.7720  0.5973  0.3698
 5347SOL    HW219447   9.405   1.152   1.569 -0.4513  1.0022  0.1309
 5348SOL     OW19448   4.493   5.372  10.938  0.4969 -0.4472  0.0638
 5348SOL    HW119449   4.512   5.309  11.007 -2.2697 -0.4300  0.9009
 5348SOL    HW219450   4.521   5.456  10.974 -0.6172 -0.4889  1.0875
 5349SOL     OW19451   0.762   1.312   2.081  0.2037  0.1291  0.8029
 5349SOL    HW119452   0.768   1.327   2.175  0.2215 -2.3371  1.2300
 5349SOL    HW219453   0.706   1.235   2.072  1.2537 -0.4589 -1.1206
 5350SOL     OW19454   6.527   5.934   1.241 -0.2978 -0.3081 -0.2263
 5350SOL    HW119455   6.567   5.919   1.327 -1.9690  1.8367  0.9659
 5350SOL    HW219456   6.444   5.887   1.245 -0.8701  0.6983 -0.2733
 5351SOL     OW19457   3.903   8.323   4.872 -0.5486 -0.3979  0.3635
 5351SOL    HW119458   3.808   8.311   4.871 -0.4838 -0.8943  0.2226
 5351SOL    HW219459   3.938   8.238   4.846 -0.0895  0.0518 -0.4708
 5352SOL     OW19460   9.885   6.101   5.937 -0.4341  0.3369  0.3652
 5352SOL    HW119461   9.904   6.122   6.028 -1.5121 -0.5073  0.8005
 5352SOL    HW219462   9.875   6.005   5.936 -1.7175  0.4596 -0.3764
 5353SOL     OW19463   5.567   7.269   0.207 -0.8778 -0.1911  0.7931
 5353SOL    HW119464   5.568   7.315   0.123  2.5067 -1.9705 -0.2435
 5353SOL    HW219465   5.586   7.338   0.271  1.5415  0.3812 -0.4595
 5354SOL     OW19466   4.688   3.040   4.367  0.0549  0.2153  0.2194
 5354SOL    HW119467   4.617   3.105   4.363  0.5679  1.0337  2.9935
 5354SOL    HW219468   4.672   2.983   4.292 -0.8085  3.1410 -1.9286
 5355SOL     OW19469  10.222   1.568   7.801  0.2423  0.3601  0.1192
 5355SOL    HW119470  10.199   1.483   7.765 -0.8610 -0.1581  1.9900
 5355SOL    HW219471  10.138   1.609   7.822  0.7361  2.0701 -1.0821
 5356SOL     OW19472   3.452   2.013   5.436 -0.1550  0.0230 -0.0653
 5356SOL    HW119473   3.425   1.987   5.347 -0.0876  3.7593 -1.2396
 5356SOL    HW219474   3.376   1.992   5.491 -0.6855 -1.1137 -1.1957
 5357SOL     OW19475   7.776   6.835   4.412  0.0854 -0.4041 -0.0356
 5357SOL    HW119476   7.866   6.844   4.445 -0.6828 -0.5540  2.1744
 5357SOL    HW219477   7.786   6.789   4.328  2.2201  1.3357 -0.7964
 5358SOL     OW19478   0.641   4.553   5.202 -0.0908 -0.5194  0.0775
 5358SOL    HW119479   0.591   4.587   5.128 -0.3666 -1.4812 -0.1913
 5358SOL    HW219480   0.702   4.623   5.225 -0.6476  0.1427 -0.4570
 5359SOL     OW19481   8.295   0.955   7.398  0.8237  0.5714  0.1804
 5359SOL    HW119482   8.340   0.947   7.314  1.7101  0.2203  0.6848
 5359SOL    HW219483   8.283   0.864   7.427  1.5446  0.7241  0.9706
 5360SOL     OW19484   2.701   9.634   9.579  0.1166  0.4399  0.0220
 5360SOL    HW119485   2.656   9.686   9.645  0.5810  2.5613 -1.2995
 5360SOL    HW219486   2.635   9.569   9.551 -1.0134  1.3739  0.4903
 5361SOL     OW19487   1.746   0.620   7.122  0.0150 -0.2237  0.5859
 5361SOL    HW119488   1.789   0.555   7.067  1.3806  0.0593  1.3050
 5361SOL    HW219489   1.765   0.592   7.212 -1.4750 -0.2038  0.9241
 5362SOL     OW19490   7.476   0.027   4.758  0.2545 -0.3154  0.1807
 5362SOL    HW119491   7.428  -0.048   4.792  1.0820 -0.4375  1.1003
 5362SOL    HW219492   7.526   0.060   4.833 -1.5169  2.2971  0.3062
 5363SOL     OW19493   7.089   5.305   4.890  0.1654 -0.2575 -0.3713
 5363SOL    HW119494   6.996   5.296   4.912  0.0229  1.5795 -0.1982
 5363SOL    HW219495   7.135   5.270   4.967 -0.3660  1.2141  0.6232
 5364SOL     OW19496   4.497   0.774   2.310  0.0391  1.1321 -0.2434
 5364SOL    HW119497   4.408   0.766   2.273 -1.0647 -3.2981  2.9567
 5364SOL    HW219498   4.493   0.852   2.365 -1.7936  1.1510 -0.3516
 5365SOL     OW19499   1.185   7.004   3.771 -0.2176  0.5982  0.2631
 5365SOL    HW119500   1.219   7.093   3.780  1.2976  0.3928 -2.8377
 5365SOL    HW219501   1.099   7.006   3.813  0.2691  3.2324  1.1729
 5366SOL     OW19502   0.270   0.980   6.835 -0.1947  0.0946  0.1161
 5366SOL    HW119503   0.353   0.993   6.789 -0.7397  0.6334 -0.7413
 5366SOL    HW219504   0.289   1.002   6.926  1.3069 -2.5805  0.4771
 5367SOL     OW19505   0.114   9.786   2.596  0.4931 -0.4880  0.2258
 5367SOL    HW119506   0.146   9.801   2.507  1.8987 -2.3808  0.3589
 5367SOL    HW219507   0.131   9.868   2.642 -1.2736  0.8865 -1.5208
 5368SOL     OW19508   5.230   4.177   1.206 -0.0895  0.5232 -0.1570
 5368SOL    HW119509   5.144   4.174   1.165  0.4884  0.1482 -1.3497
 5368SOL    HW219510   5.226   4.109   1.274 -0.1619 -0.6858 -1.3532
 5369SOL     OW19511   7.269   2.441   9.028  0.1037  0.0883 -0.4641
 5369SOL    HW119512   7.360   2.458   9.052 -0.0721 -0.0200  0.3291
 5369SOL    HW219513   7.267   2.347   9.009  0.1000  0.0282 -0.1787
 5370SOL     OW19514   0.145   4.000   4.696 -0.5133 -0.4384  0.1863
 5370SOL    HW119515   0.218   4.002   4.758 -1.5878  0.3109  1.4528
 5370SOL    HW219516   0.181   3.958   4.618  0.7515 -1.7747  1.4576
 5371SOL     OW19517   2.372   2.442   3.887  0.0274  0.1724  0.3748
 5371SOL    HW119518   2.423   2.378   3.838 -0.8863 -0.7661  0.6380
 5371SOL    HW219519   2.435   2.480   3.949  0.2561 -1.5227  1.2190
 5372SOL     OW19520   3.133   3.961   7.874 -0.1514  0.0930 -0.5786
 5372SOL    HW119521   3.113   3.868   7.885 -1.9200  0.6017  0.6677
 5372SOL    HW219522   3.228   3.963   7.859  0.3878 -1.6987  2.1717
 5373SOL     OW19523  10.778  10.197   3.285  0.0237  0.1731 -0.1800
 5373SOL    HW119524  10.728  10.277   3.271  2.4964  1.5221 -1.7354
 5373SOL    HW219525  10.777  10.153   3.200 -1.1045 -1.3401  0.5991
 5374SOL     OW19526   4.267   0.608   2.595 -0.1016 -0.1364  0.4462
 5374SOL    HW119527   4.210   0.675   2.557  1.8251  0.8658 -0.7278
 5374SOL    HW219528   4.355   0.645   2.591  0.8253 -2.1681  1.0677
 5375SOL     OW19529   3.926   0.256   4.212 -0.3134 -0.8218  0.4483
 5375SOL    HW119530   3.927   0.166   4.246 -1.5911 -0.2856  1.9772
 5375SOL    HW219531   4.018   0.278   4.201  0.0863 -1.7152  1.8041
 5376SOL     OW19532   8.604  10.574   8.175 -0.6747  0.1336 -0.2520
 5376SOL    HW119533   8.569  10.603   8.259 -0.3547  0.8124 -0.3475
 5376SOL    HW219534   8.601  10.479   8.180 -1.7353  0.1734  0.0684
 5377SOL     OW19535   0.218   1.679   2.006  0.5856  0.6420  0.8645
 5377SOL    HW119536   0.241   1.747   2.069  1.0274 -0.2259  1.6570
 5377SOL    HW219537   0.216   1.598   2.057 -0.3250  0.1138  0.0136
 5378SOL     OW19538   0.575   5.573   8.853  0.9870 -0.9155  0.3361
 5378SOL    HW119539   0.607   5.527   8.776  0.2436  2.0556 -1.8244
 5378SOL    HW219540   0.480   5.560   8.850  0.8430  0.2179  0.0818
 5379SOL     OW19541   4.292   0.466   1.569 -0.6182  0.4040  0.5374
 5379SOL    HW119542   4.338   0.524   1.628 -0.3204  0.6123  0.1040
 5379SOL    HW219543   4.329   0.379   1.586  1.1566  0.8253 -0.9936
 5380SOL     OW19544   7.434   8.593   4.972 -0.2071 -0.1831  0.2951
 5380SOL    HW119545   7.428   8.688   4.978 -1.9925 -0.1557 -1.6382
 5380SOL    HW219546   7.507   8.577   4.912 -2.4174  0.1010 -2.6064
 5381SOL     OW19547   8.690   2.204   3.504  0.1027 -0.5699 -0.0072
 5381SOL    HW119548   8.776   2.192   3.463  0.9612  2.5293  0.7225
 5381SOL    HW219549   8.707   2.200   3.598 -0.2962  1.3223  0.1718
 5382SOL     OW19550  10.884   4.421   9.823  0.4314  0.0835  0.0965
 5382SOL    HW119551  10.868   4.327   9.815  1.7437 -0.0470 -1.4849
 5382SOL    HW219552  10.828   4.460   9.756  0.1833  0.3942  0.4862
 5383SOL     OW19553   6.234  10.126   7.827  0.0245  0.2182 -0.2297
 5383SOL    HW119554   6.249  10.216   7.797  0.8530 -0.3663 -1.5992
 5383SOL    HW219555   6.240  10.132   7.922  1.6389  1.3331 -0.3850
 5384SOL     OW19556   7.169   5.372   2.924  0.3837  0.2440  0.6396
 5384SOL    HW119557   7.248   5.394   2.876  0.7933  0.0194  1.1972
 5384SOL    HW219558   7.191   5.291   2.970 -0.4993 -0.3548  0.0266
 5385SOL     OW19559   9.130   0.764   3.397 -0.0653 -0.2704 -0.4062
 5385SOL    HW119560   9.040   0.741   3.378  0.8335 -2.2108 -2.6021
 5385SOL    HW219561   9.157   0.703   3.466 -0.3632  0.1637  0.0944
 5386SOL     OW19562   1.999   4.495   6.679  0.0020 -0.0504  0.7232
 5386SOL    HW119563   1.940   4.483   6.753  1.2778 -0.9529  1.6081
 5386SOL    HW219564   1.944   4.481   6.602 -1.4382  1.3847  1.4806
 5387SOL     OW19565   9.869   2.313   7.304  0.3415  0.0288 -0.0029
 5387SOL    HW119566   9.860   2.306   7.399  2.1924  1.8374  0.3354
 5387SOL    HW219567   9.940   2.253   7.282  1.9362  1.7697  0.1923
 5388SOL     OW19568   6.320   8.147   6.183  0.1776  0.5280  0.1337
 5388SOL    HW119569   6.301   8.190   6.267 -1.3097  1.3924 -0.6270
 5388SOL    HW219570   6.288   8.209   6.117  0.2724 -0.6721 -1.0498
 5389SOL     OW19571  10.904   6.473   2.867  0.1115 -0.1298  0.1275
 5389SOL    HW119572  10.882   6.407   2.933  1.2354  0.6229  1.2599
 5389SOL    HW219573  10.869   6.555   2.902  1.5473  0.4392  0.2563
 5390SOL     OW19574   0.792   0.637   3.536  0.0646  0.3202 -0.0850
 5390SOL    HW119575   0.882   0.656   3.508  0.4001 -1.3379 -0.1486
 5390SOL    HW219576   0.750   0.723   3.537  1.1712  0.9227 -1.7183
 5391SOL     OW19577   8.577   5.504   2.318 -0.0566 -0.4309 -0.1423
 5391SOL    HW119578   8.568   5.510   2.223  2.3319 -0.3298 -0.3926
 5391SOL    HW219579   8.591   5.411   2.336  0.3088 -0.3447  0.0300
 5392SOL     OW19580   7.235   8.134   2.601  0.1960  0.1270  0.3797
 5392SOL    HW119581   7.197   8.094   2.679 -0.2688 -0.4783 -0.1456
 5392SOL    HW219582   7.321   8.165   2.629  0.4952 -1.0944  0.8450
 5393SOL     OW19583   4.402   5.061   7.631 -0.2990 -0.0994 -0.8521
 5393SOL    HW119584   4.479   5.004   7.628 -0.6202 -0.5208 -1.2000
 5393SOL    HW219585   4.382   5.079   7.539 -0.0536  0.7761 -0.7331
 5394SOL     OW19586   5.715   5.438   0.016 -0.0498 -0.2349  0.0630
 5394SOL    HW119587   5.694   5.379  -0.056  0.7859 -1.9368  1.1755
 5394SOL    HW219588   5.638   5.433   0.074 -0.1265  0.0501 -0.0124
 5395SOL     OW19589   2.923   9.814   0.404 -0.3099  0.3853  1.1104
 5395SOL    HW119590   2.906   9.829   0.497 -0.5803  0.0498  1.1169
 5395SOL    HW219591   2.837   9.823   0.362 -0.1115  0.9816  0.8341
 5396SOL     OW19592   1.183   8.740   7.210 -0.9257  0.0312 -0.0268
 5396SOL    HW119593   1.227   8.708   7.288 -0.6237  2.2643  0.7499
 5396SOL    HW219594   1.090   8.740   7.232 -0.8420  0.6359  0.3273
 5397SOL     OW19595   7.699   2.405   8.955 -0.7497  0.2488 -0.5017
 5397SOL    HW119596   7.790   2.431   8.941 -0.8509  1.3370  0.7209
 5397SOL    HW219597   7.694   2.315   8.921  0.8376  0.0863 -0.3583
 5398SOL     OW19598   0.614   6.302   2.389 -0.2830  0.2876  0.1175
 5398SOL    HW119599   0.622   6.304   2.485 -0.0834 -2.1176  0.1676
 5398SOL    HW219600   0.536   6.249   2.373  0.6830 -0.7852 -1.0932
 5399SOL     OW19601   4.238   2.942   5.638 -0.3956  0.7383  0.1769
 5399SOL    HW119602   4.156   2.966   5.594 -0.1407  0.2811 -0.5645
 5399SOL    HW219603   4.280   3.026   5.657 -1.4245  0.9962  1.3153
 5400SOL     OW19604   1.557   8.641   4.615 -0.3654 -0.0173  0.4615
 5400SOL    HW119605   1.632   8.689   4.579  0.8656  0.5992  3.6518
 5400SOL    HW219606   1.499   8.709   4.649 -1.1499 -0.5806  0.2351
 5401SOL     OW19607   1.712   8.682   8.859  0.1448  0.1366  0.7051
 5401SOL    HW119608   1.695   8.613   8.923  0.6262 -0.1384  0.5351
 5401SOL    HW219609   1.771   8.742   8.905  0.0401  0.2358  0.7113
 5402SOL     OW19610   5.040   9.150   3.384 -0.4583 -0.5773  0.1679
 5402SOL    HW119611   5.134   9.138   3.379 -0.3814  0.3796 -1.0350
 5402SOL    HW219612   5.004   9.063   3.362  0.1336 -0.6875 -0.3958
 5403SOL     OW19613   0.111   7.831  10.332  0.2266  0.3235 -0.0249
 5403SOL    HW119614   0.030   7.806  10.289  1.3488  0.2962 -2.1678
 5403SOL    HW219615   0.118   7.772  10.407 -1.2544 -0.2933 -0.3613
 5404SOL     OW19616   2.794   2.355   5.152 -0.5736  0.1287  0.2915
 5404SOL    HW119617   2.701   2.341   5.133 -0.3729  2.0632 -2.4511
 5404SOL    HW219618   2.796   2.437   5.202 -0.3143  0.2819  0.0314
 5405SOL     OW19619   1.890   7.802   7.173 -0.0404  0.5626 -0.7215
 5405SOL    HW119620   1.897   7.716   7.131 -0.0785  0.6376 -0.8801
 5405SOL    HW219621   1.967   7.850   7.144  1.0874 -0.1329  1.0199
 5406SOL     OW19622   5.385   1.657   0.931 -0.1574 -0.0158 -0.0447
 5406SOL    HW119623   5.341   1.641   0.847  0.6212  0.3963 -0.5454
 5406SOL    HW219624   5.451   1.723   0.910  1.3505 -1.3329  0.4738
 5407SOL     OW19625   4.308   1.224   5.531  0.4654 -0.1788 -0.2543
 5407SOL    HW119626   4.324   1.318   5.524 -1.8747  0.3176  0.5810
 5407SOL    HW219627   4.323   1.191   5.443 -0.7667  1.3394 -1.0585
 5408SOL     OW19628   7.507   4.754   1.993  0.0787  0.1580  0.4700
 5408SOL    HW119629   7.559   4.776   2.071  1.9911  1.4864 -1.1216
 5408SOL    HW219630   7.565   4.700   1.940 -0.8650  0.0683 -0.4813
 5409SOL     OW19631   8.004   0.451  10.797 -0.1468 -0.2311  0.2523
 5409SOL    HW119632   7.982   0.422  10.708  0.7319 -1.7981  0.5381
 5409SOL    HW219633   7.969   0.383  10.854 -0.0755  0.4117  1.0650
 5410SOL     OW19634   9.694   6.361   9.435 -0.2144  0.1370 -0.1151
 5410SOL    HW119635   9.765   6.315   9.480 -0.8520 -0.6402  0.1144
 5410SOL    HW219636   9.669   6.432   9.494  1.1755  1.1662 -0.7294
 5411SOL     OW19637   8.936   0.684   8.944  0.3974 -0.4384  0.9959
 5411SOL    HW119638   9.014   0.739   8.949  0.8408 -1.1433  2.1802
 5411SOL    HW219639   8.928   0.662   8.852  0.6800  0.9378  0.6364
 5412SOL     OW19640  10.737   6.912   6.338 -0.2996  0.1286 -0.2667
 5412SOL    HW119641  10.740   6.838   6.398  0.3344  0.6696  0.3829
 5412SOL    HW219642  10.663   6.965   6.369  1.0247  1.2581  1.0862
 5413SOL     OW19643   3.091   1.361   2.621 -0.0105 -0.4291  0.1539
 5413SOL    HW119644   3.172   1.346   2.572 -0.1579  0.1481 -0.2794
 5413SOL    HW219645   3.060   1.274   2.645  0.2078 -0.7088 -0.5617
 5414SOL     OW19646   4.798   0.227   3.438  0.4750  0.2254  0.0417
 5414SOL    HW119647   4.808   0.163   3.368 -0.4601 -0.2211  0.3003
 5414SOL    HW219648   4.703   0.233   3.451  0.5564  1.7533 -0.0622
 5415SOL     OW19649   1.945   9.882   5.339 -0.1095 -0.4119  0.0819
 5415SOL    HW119650   1.914   9.797   5.370 -0.8135 -0.4547 -0.7227
 5415SOL    HW219651   1.992   9.863   5.258  1.3556 -0.2489  0.8674
 5416SOL     OW19652  10.928   7.016   3.067 -0.7313  0.0165 -0.3210
 5416SOL    HW119653  10.873   7.056   3.134 -0.4394 -0.4690  0.2090
 5416SOL    HW219654  10.873   7.015   2.989 -1.2185  0.2061  0.0179
 5417SOL     OW19655   3.931   5.187   3.888  0.0125 -0.3183  0.1686
 5417SOL    HW119656   3.895   5.099   3.893  1.3084 -0.8561  0.2892
 5417SOL    HW219657   3.979   5.189   3.805  0.9577 -0.1189  0.7086
 5418SOL     OW19658   1.681  10.170   3.026 -0.9579  0.0067  0.3141
 5418SOL    HW119659   1.684  10.153   3.120 -0.0278  1.1295  0.4982
 5418SOL    HW219660   1.773  10.173   2.999 -1.1242  2.6827 -0.0645
 5419SOL     OW19661   6.482   5.081   2.686  0.1074 -0.6424  0.0547
 5419SOL    HW119662   6.556   5.126   2.726 -0.1343  1.8657 -2.1623
 5419SOL    HW219663   6.506   5.074   2.593 -2.2193 -0.1187 -0.6184
 5420SOL     OW19664   4.585  10.801   2.921 -0.0395  0.0415 -0.2470
 5420SOL    HW119665   4.549  10.828   3.006  1.7807 -0.9090  0.8785
 5420SOL    HW219666   4.547  10.715   2.905 -0.6380  0.3629 -0.5596
 5421SOL     OW19667  10.302   0.757   9.192 -0.3452  0.4600  0.4270
 5421SOL    HW119668  10.227   0.817   9.187 -1.1942 -0.4655  1.7421
 5421SOL    HW219669  10.331   0.762   9.283  0.3162 -0.2212  0.2560
 5422SOL     OW19670   5.340   0.219   3.711  0.2487 -0.1020 -0.3625
 5422SOL    HW119671   5.283   0.222   3.634 -0.8781  2.4501  0.5210
 5422SOL    HW219672   5.405   0.287   3.696 -1.3469  2.0163  1.9236
 5423SOL     OW19673  10.524   7.079   5.668 -0.3628 -0.2157 -0.5971
 5423SOL    HW119674  10.480   7.144   5.723 -1.2347 -1.2540 -0.0684
 5423SOL    HW219675  10.463   7.007   5.662  1.3847 -1.8385  0.4452
 5424SOL     OW19676  10.901   8.020   7.989 -0.6945 -0.1491  0.2490
 5424SOL    HW119677  10.898   8.116   7.987  0.3886 -0.0943  1.3304
 5424SOL    HW219678  10.990   7.999   8.018 -0.4185 -1.4996 -1.4843
 5425SOL     OW19679   2.463   1.328   1.397 -0.1877 -0.7096  0.7747
 5425SOL    HW119680   2.507   1.376   1.468  0.2908  0.4159 -0.2741
 5425SOL    HW219681   2.510   1.352   1.318  0.4683 -3.4296  0.2851
 5426SOL     OW19682   6.742   6.778   5.187 -0.2042 -0.4800 -0.0432
 5426SOL    HW119683   6.745   6.864   5.144 -1.5178 -0.5572 -0.3104
 5426SOL    HW219684   6.697   6.794   5.269  1.6019 -0.4911  0.9867
 5427SOL     OW19685   4.413   2.336   5.557 -0.1990 -0.3575  0.0474
 5427SOL    HW119686   4.443   2.406   5.499  0.3096 -0.2503  0.4314
 5427SOL    HW219687   4.410   2.258   5.502  2.7986 -0.8308  0.4624
 5428SOL     OW19688   5.015   8.255   6.966  0.1166 -0.1031 -0.5641
 5428SOL    HW119689   4.998   8.333   6.913  1.1544  0.7554  0.3427
 5428SOL    HW219690   4.940   8.198   6.949 -1.0847  1.4460 -0.5693
 5429SOL     OW19691   0.752   0.890  10.979  0.2769  0.2249  0.1369
 5429SOL    HW119692   0.791   0.805  10.963  0.3050  0.1703  0.4968
 5429SOL    HW219693   0.667   0.886  10.936  0.9723  0.6110 -1.3095
 5430SOL     OW19694   8.106   6.130   5.619  0.2085 -0.6146  0.0943
 5430SOL    HW119695   8.149   6.176   5.547  2.4060  0.3636  1.9596
 5430SOL    HW219696   8.016   6.162   5.618  0.8125  1.1071 -0.8127
 5431SOL     OW19697  10.931  10.407   5.429  0.2471 -0.2877 -0.7581
 5431SOL    HW119698  10.853  10.353   5.415 -1.6056  2.3340 -0.7508
 5431SOL    HW219699  10.898  10.488   5.467  3.0663  0.6341 -0.1507
 5432SOL     OW19700   5.250   5.356  10.454  0.9548 -0.0713  0.0110
 5432SOL    HW119701   5.266   5.450  10.441  0.0510  0.0414 -0.3621
 5432SOL    HW219702   5.237   5.346  10.548  1.7983  0.0625  0.1375
 5433SOL     OW19703   0.164   7.499   4.581 -0.0356  0.4200  0.5489
 5433SOL    HW119704   0.240   7.500   4.522 -0.9256 -0.1512 -0.6319
 5433SOL    HW219705   0.202   7.498   4.668  1.3243  0.4523 -0.0267
 5434SOL     OW19706  10.350   7.689   2.484  0.0672 -0.1462  0.1541
 5434SOL    HW119707  10.318   7.648   2.404 -2.3873  3.6018 -0.9060
 5434SOL    HW219708  10.274   7.691   2.542  1.2643 -0.8883  1.7881
 5435SOL     OW19709   9.209  10.216   0.584 -0.0680  0.8179  0.1287
 5435SOL    HW119710   9.300  10.188   0.581 -0.0226  1.0599 -2.1423
 5435SOL    HW219711   9.211  10.301   0.627  0.5804  0.1301  1.4673
 5436SOL     OW19712   9.161   1.709   7.518  0.1518 -0.0909 -0.1441
 5436SOL    HW119713   9.187   1.782   7.463 -0.3612 -0.7592 -1.2852
 5436SOL    HW219714   9.205   1.633   7.480  0.2765 -0.4600  0.7244
 5437SOL     OW19715   5.351   8.788   7.370 -0.8454  0.0838 -0.6219
 5437SOL    HW119716   5.333   8.694   7.375 -1.4831  0.1832 -1.0339
 5437SOL    HW219717   5.269   8.826   7.340 -0.8915  0.8788  0.4993
 5438SOL     OW19718   8.942   7.398   2.303 -0.0814  0.0555 -0.3652
 5438SOL    HW119719   8.852   7.413   2.273 -0.1686  0.2776  0.0022
 5438SOL    HW219720   8.938   7.314   2.349 -0.2539  0.4144  0.2731
 5439SOL     OW19721   3.077   8.166   1.163 -0.3000  0.7008  0.6231
 5439SOL    HW119722   3.139   8.239   1.172  0.5839 -0.1166  1.4085
 5439SOL    HW219723   3.049   8.147   1.252  0.1152 -0.4439  0.5245
 5440SOL     OW19724   3.535  10.361   9.974  0.0694  0.4366 -0.1927
 5440SOL    HW119725   3.562  10.304  10.046 -2.0503  0.2798  0.5238
 5440SOL    HW219726   3.458  10.408  10.009 -1.0672  0.2505 -2.4062
 5441SOL     OW19727   3.623   7.710   9.098  0.8915  0.3580  0.8412
 5441SOL    HW119728   3.537   7.694   9.136 -0.3404 -2.7945 -2.9332
 5441SOL    HW219729   3.625   7.804   9.080 -1.9064  0.4341  0.7560
 5442SOL     OW19730   1.880   8.017   9.578  0.0888  0.1054  0.3381
 5442SOL    HW119731   1.789   8.044   9.563 -0.3421 -1.4516  0.0792
 5442SOL    HW219732   1.916   8.086   9.634 -0.4237  2.2377 -1.8459
 5443SOL     OW19733   3.095   3.679   7.858 -0.5811 -0.3201  0.2159
 5443SOL    HW119734   3.055   3.620   7.921  1.8548  0.1535  2.2830
 5443SOL    HW219735   3.186   3.650   7.853 -0.4856  0.3018 -2.3309
 5444SOL     OW19736   9.051   7.135   5.380  0.0560  0.1663  0.2090
 5444SOL    HW119737   9.031   7.055   5.429  2.2258 -1.6030 -1.6898
 5444SOL    HW219738   9.122   7.110   5.321 -0.2772  3.1005 -1.5304
 5445SOL     OW19739   7.537   2.567   7.551  0.2542 -0.2643  0.6200
 5445SOL    HW119740   7.473   2.585   7.483 -0.8788 -0.0337  1.7294
 5445SOL    HW219741   7.486   2.564   7.632  1.6489  0.0117  1.5331
 5446SOL     OW19742   6.767   8.991   4.084  0.1443 -0.4771 -0.9298
 5446SOL    HW119743   6.826   8.996   4.159 -0.4444  0.2556 -0.5092
 5446SOL    HW219744   6.756   8.897   4.067 -0.0673 -0.6536  0.1741
 5447SOL     OW19745   0.254   2.569   8.913  0.2126  0.1384 -0.7143
 5447SOL    HW119746   0.184   2.634   8.912 -0.7622 -0.9084 -0.9720
 5447SOL    HW219747   0.238   2.516   8.990  1.0695  0.2517 -0.4471
 5448SOL     OW19748   3.255   7.678   7.870 -0.4155  0.2646  0.3719
 5448SOL    HW119749   3.200   7.718   7.802 -0.2705 -0.4051 -0.1445
 5448SOL    HW219750   3.317   7.624   7.821 -0.3226 -0.2357  1.0430
 5449SOL     OW19751   6.057   1.189   8.008 -0.6439  0.3922  0.0354
 5449SOL    HW119752   6.087   1.191   7.918  0.7157 -0.9549  0.4339
 5449SOL    HW219753   6.013   1.105   8.017 -0.9985  0.6327  0.5469
 5450SOL     OW19754   0.874   8.194   1.550  0.2184  0.2277  0.1363
 5450SOL    HW119755   0.877   8.135   1.475  2.6860 -1.7272  1.7215
 5450SOL    HW219756   0.837   8.141   1.620 -0.6517  1.5944  0.7328
 5451SOL     OW19757   2.939   0.754   8.488 -0.1889  0.4555  0.1719
 5451SOL    HW119758   2.897   0.669   8.500 -0.7989  0.8100  0.5507
 5451SOL    HW219759   3.023   0.733   8.446 -0.3476 -0.3280  0.2331
 5452SOL     OW19760   7.824   1.378   2.565  0.4617 -0.4788 -0.0226
 5452SOL    HW119761   7.842   1.317   2.637  0.2840  0.6441  0.9712
 5452SOL    HW219762   7.911   1.401   2.531  0.5721 -0.5127  0.2388
 5453SOL     OW19763   3.023   3.683   5.387 -0.1874  0.5325  0.3565
 5453SOL    HW119764   2.951   3.663   5.447  0.0996  1.4431  1.0155
 5453SOL    HW219765   3.030   3.778   5.388  0.0332  0.5360 -0.8841
 5454SOL     OW19766   9.935   5.731   1.717 -0.0665  0.2516 -0.6762
 5454SOL    HW119767   9.962   5.770   1.633 -0.3288 -1.1001 -1.3979
 5454SOL    HW219768   9.841   5.750   1.723 -0.5087 -1.5099 -1.7295
 5455SOL     OW19769   0.196   6.904   3.389 -0.0124  0.6625  0.1821
 5455SOL    HW119770   0.243   6.968   3.335 -0.8441  0.2696 -1.0248
 5455SOL    HW219771   0.105   6.933   3.387 -0.0585  0.6391  1.3831
 5456SOL     OW19772   4.121   6.453   3.945  0.8394  0.2234  0.8260
 5456SOL    HW119773   4.131   6.433   4.038  1.5989  0.1207  0.7244
 5456SOL    HW219774   4.210   6.453   3.911  0.4592 -1.4544 -0.2532
 5457SOL     OW19775   5.179   4.255   4.118 -0.3640  0.0560  0.0023
 5457SOL    HW119776   5.152   4.337   4.076  1.8953  1.4908  1.2272
 5457SOL    HW219777   5.117   4.243   4.190 -0.8392  0.5968 -0.3190
 5458SOL     OW19778   5.948   0.587   8.502  0.3921  0.0368  0.2278
 5458SOL    HW119779   5.880   0.570   8.437  1.3220  1.0599 -1.0208
 5458SOL    HW219780   6.018   0.629   8.453  1.2623  0.4681  1.8233
 5459SOL     OW19781   8.830   2.827   1.167 -0.0580 -0.0181  0.0299
 5459SOL    HW119782   8.757   2.845   1.226  0.1957  0.4986  0.1932
 5459SOL    HW219783   8.795   2.844   1.080 -0.6682 -1.5503 -0.0449
 5460SOL     OW19784   3.198   6.244   8.801 -0.1498  0.5110  0.3630
 5460SOL    HW119785   3.143   6.303   8.750 -0.7805 -1.7452 -1.6920
 5460SOL    HW219786   3.136   6.191   8.851  0.1095 -1.2451 -1.0738
 5461SOL     OW19787   8.410   2.357   7.500 -0.5778 -0.0480 -0.1563
 5461SOL    HW119788   8.360   2.277   7.512 -0.9856  0.2698  0.3199
 5461SOL    HW219789   8.479   2.352   7.566 -0.7994  0.1377  0.0930
 5462SOL     OW19790   0.947   7.208   0.419 -0.2801  0.1401 -0.2637
 5462SOL    HW119791   0.892   7.219   0.496  0.2746 -1.7726  0.4250
 5462SOL    HW219792   1.009   7.139   0.443 -1.1716 -1.6827 -3.0030
 5463SOL     OW19793   6.450   0.442   6.621  0.2114  0.2056  0.3875
 5463SOL    HW119794   6.483   0.482   6.540  2.4063 -0.3696  0.9591
 5463SOL    HW219795   6.410   0.360   6.592  0.1905  0.4231 -0.2175
 5464SOL     OW19796   1.792   5.019   9.423 -0.1465 -0.0618  0.3580
 5464SOL    HW119797   1.834   4.952   9.477  0.6192  0.3992  0.3355
 5464SOL    HW219798   1.783   4.978   9.337  0.1852 -0.1973  0.3849
 5465SOL     OW19799   6.014   4.875  10.295 -0.3246 -0.8869  0.0899
 5465SOL    HW119800   6.093   4.875  10.349 -0.1510  0.3807 -0.1405
 5465SOL    HW219801   5.945   4.847  10.355  0.1221 -0.9567  0.5783
 5466SOL     OW19802   2.241   8.514   7.812  0.2256 -0.4504 -0.9622
 5466SOL    HW119803   2.147   8.533   7.812  0.3032 -0.0881  0.1457
 5466SOL    HW219804   2.253   8.456   7.736 -0.9604 -0.8353 -0.8702
 5467SOL     OW19805   8.562   6.602   6.226 -0.5190 -0.4782 -0.6752
 5467SOL    HW119806   8.506   6.651   6.286  0.3629  1.2582 -1.2427
 5467SOL    HW219807   8.559   6.652   6.144  2.2734 -0.0595 -0.5606
 5468SOL     OW19808   8.521  10.360  10.098 -0.0039 -0.3311  0.4158
 5468SOL    HW119809   8.437  10.392  10.131  0.4408  0.5222  0.7195
 5468SOL    HW219810   8.552  10.300  10.166 -1.3587 -2.3163 -0.6520
 5469SOL     OW19811   2.876   6.869   5.298 -0.5262 -0.8669 -0.0481
 5469SOL    HW119812   2.868   6.852   5.392 -1.5803  0.0373  0.0380
 5469SOL    HW219813   2.834   6.794   5.256 -2.3565 -0.0350  0.2608
 5470SOL     OW19814   6.345   0.091   9.002  0.4397 -0.5386  0.1717
 5470SOL    HW119815   6.415   0.047   8.955  0.7835  0.2905 -0.1088
 5470SOL    HW219816   6.384   0.172   9.034 -0.0457 -0.6615  1.0998
 5471SOL     OW19817   8.068   9.892   4.527 -0.0899  0.2348  0.7939
 5471SOL    HW119818   7.992   9.901   4.469  0.7877 -0.4505 -0.4866
 5471SOL    HW219819   8.127   9.961   4.498 -0.3535  0.9943  2.0243
 5472SOL     OW19820   1.802   8.918  10.917 -0.0044  0.0756  0.0181
 5472SOL    HW119821   1.753   8.997  10.940  1.2701  0.9637 -0.2639
 5472SOL    HW219822   1.822   8.877  11.001 -1.1668 -0.2740  0.1410
 5473SOL     OW19823   3.399   2.705   3.583 -0.3640  0.4094  0.4186
 5473SOL    HW119824   3.354   2.722   3.500 -0.1534  2.8676  0.7483
 5473SOL    HW219825   3.333   2.664   3.639 -0.0552 -2.7818 -1.4341
 5474SOL     OW19826   4.558  10.515   3.066 -0.1580 -0.1701  0.2498
 5474SOL    HW119827   4.495  10.521   2.994  0.7678 -0.3925 -0.5804
 5474SOL    HW219828   4.538  10.430   3.107  2.4145 -2.3174 -2.6952
 5475SOL     OW19829   2.184   4.426  10.412  0.3458 -0.3306 -0.0394
 5475SOL    HW119830   2.178   4.491  10.482 -0.8395  0.3024 -0.7081
 5475SOL    HW219831   2.252   4.459  10.354  0.6880 -0.3836  0.3314
 5476SOL     OW19832   3.270   8.641   4.087 -0.2072 -0.5893 -0.4580
 5476SOL    HW119833   3.260   8.681   4.173 -0.8374  1.2404 -1.3620
 5476SOL    HW219834   3.201   8.574   4.084 -1.1593  0.3662 -0.1173
 5477SOL     OW19835   1.084   9.238   6.275 -0.0466  0.3339 -0.2166
 5477SOL    HW119836   1.149   9.252   6.207 -1.2137  2.8519 -0.8737
 5477SOL    HW219837   1.124   9.175   6.335  1.6891 -0.5536 -2.2726
 5478SOL     OW19838   9.127   6.742   6.041  0.1343 -0.4719  0.0789
 5478SOL    HW119839   9.061   6.741   5.971  0.4300 -0.4159 -0.2007
 5478SOL    HW219840   9.201   6.791   6.005 -0.7335  1.9007  1.3948
 5479SOL     OW19841   5.649  10.036   2.379  0.2704  0.4056  0.3857
 5479SOL    HW119842   5.577   9.975   2.391 -0.2342  0.8798 -0.1817
 5479SOL    HW219843   5.712   9.989   2.325 -0.4279  0.6155 -0.6367
 5480SOL     OW19844   7.699   8.095  10.516 -0.0578  0.8022  0.2889
 5480SOL    HW119845   7.626   8.122  10.460 -1.4377 -3.4000 -0.1107
 5480SOL    HW219846   7.681   8.137  10.600 -0.7173  3.0628 -0.9243
 5481SOL     OW19847   8.138   8.244   3.585  0.2049  0.2037 -0.1719
 5481SOL    HW119848   8.051   8.273   3.557  0.0343 -1.3075 -1.2674
 5481SOL    HW219849   8.182   8.325   3.613 -1.5618  0.9663  0.4733
 5482SOL     OW19850   9.780   6.110  10.360  0.2713  0.0240  0.2210
 5482SOL    HW119851   9.810   6.099  10.270  0.8849 -0.9468  0.5321
 5482SOL    HW219852   9.686   6.093  10.356 -0.1764  2.5247 -0.6614
 5483SOL     OW19853   3.675   6.746   0.114  0.2599  0.0827 -0.1954
 5483SOL    HW119854   3.590   6.761   0.074  0.0299 -1.1332 -0.1708
 5483SOL    HW219855   3.669   6.789   0.199 -0.3573 -0.0872 -0.1521
 5484SOL     OW19856   9.866   4.864   9.675 -0.1756 -0.5302  0.3868
 5484SOL    HW119857   9.950   4.839   9.715  0.4095  0.4518 -0.2294
 5484SOL    HW219858   9.875   4.957   9.658 -1.1807 -0.5505 -0.2269
 5485SOL     OW19859   0.942   6.589   7.710  0.2459 -0.6975  0.2018
 5485SOL    HW119860   1.027   6.612   7.674 -0.6449  0.5699 -1.1441
 5485SOL    HW219861   0.922   6.504   7.672  0.5903 -0.6675 -0.0487
 5486SOL     OW19862   0.559  10.284   6.055 -0.0419  0.0727 -0.1609
 5486SOL    HW119863   0.556  10.226   5.979  3.3813  1.4431 -1.4428
 5486SOL    HW219864   0.550  10.372   6.019  1.2641  0.7252  1.0322
 5487SOL     OW19865  10.184   9.021  10.741  0.4699 -0.0723  0.2212
 5487SOL    HW119866  10.119   8.953  10.758  1.3665 -1.2249 -0.8031
 5487SOL    HW219867  10.220   9.041  10.828 -2.4380  1.8555  1.0288
 5488SOL     OW19868  10.301   6.908   5.681  0.1927  0.0762  0.1720
 5488SOL    HW119869  10.375   6.848   5.668  1.0407  1.0683  0.3766
 5488SOL    HW219870  10.255   6.872   5.757  2.0518  0.9905  1.7698
 5489SOL     OW19871   8.019   8.629  10.434  0.5268 -0.0290 -0.1162
 5489SOL    HW119872   7.930   8.662  10.423  0.7965  0.5184 -0.7398
 5489SOL    HW219873   8.028   8.612  10.527  0.5112  2.0763  0.3012
 5490SOL     OW19874   5.902   6.411   6.895 -0.1819  0.2898 -0.4436
 5490SOL    HW119875   5.908   6.435   6.988 -2.1138 -1.3824  0.1428
 5490SOL    HW219876   5.989   6.379   6.873 -0.0192 -0.3893  1.1260
 5491SOL     OW19877   6.099   4.428   2.724 -0.0364  0.5904 -0.1119
 5491SOL    HW119878   6.170   4.492   2.714  0.1451  0.6140  1.3015
 5491SOL    HW219879   6.144   4.343   2.730 -0.1014  0.6492  1.2216
 5492SOL     OW19880   6.079   0.184   5.091 -0.3221  0.0779  0.0978
 5492SOL    HW119881   6.013   0.154   5.028  0.9901  0.0749 -1.3183
 5492SOL    HW219882   6.083   0.279   5.079 -0.0088  0.0679  0.1100
 5493SOL     OW19883  10.627   0.873   9.331  0.3608 -0.4302  0.1311
 5493SOL    HW119884  10.620   0.870   9.427  1.5871  1.0366  0.2640
 5493SOL    HW219885  10.703   0.819   9.311  1.4259  1.0417  0.1458
 5494SOL     OW19886  10.732   2.266  10.300  0.4136 -0.2747 -0.0235
 5494SOL    HW119887  10.664   2.328  10.275  1.6870  0.6738 -1.1806
 5494SOL    HW219888  10.690   2.180  10.292 -0.6244  0.2936 -0.7970
 5495SOL     OW19889   7.728   1.268   3.703  0.4150 -0.1340 -0.0225
 5495SOL    HW119890   7.796   1.207   3.673  1.7504  0.5156  1.5957
 5495SOL    HW219891   7.777   1.338   3.747 -1.2851  0.6362  0.6769
 5496SOL     OW19892   9.222   8.663   5.062 -0.7569 -0.1514  0.6696
 5496SOL    HW119893   9.282   8.695   4.995 -1.0385  0.8242  0.8772
 5496SOL    HW219894   9.237   8.719   5.138 -1.7189 -0.0752  0.8189
 5497SOL     OW19895  10.716   9.565   1.899  0.2451  0.0491  0.3540
 5497SOL    HW119896  10.743   9.504   1.968 -0.3942  0.0304  0.5944
 5497SOL    HW219897  10.627   9.590   1.923 -1.2431 -2.4934 -2.2575
 5498SOL     OW19898   9.433   7.790   8.219 -0.0278 -0.1590 -0.2851
 5498SOL    HW119899   9.512   7.844   8.215  0.0675 -0.1966  0.9224
 5498SOL    HW219900   9.375   7.828   8.153  0.1039  1.3424  0.4292
 5499SOL     OW19901   7.976   4.864   7.660  1.2051  0.4385  0.4559
 5499SOL    HW119902   7.981   4.850   7.565 -0.1291  1.5646  0.2048
 5499SOL    HW219903   8.040   4.934   7.676 -0.5830  2.2312 -0.0585
 5500SOL     OW19904   1.033   4.533   0.759 -0.3667 -0.0267 -0.3096
 5500SOL    HW119905   0.945   4.572   0.757 -0.6642 -0.6937 -0.2852
 5500SOL    HW219906   1.090   4.605   0.786 -0.9453  0.3394 -0.0479
 5501SOL     OW19907   9.759   3.928   5.978  0.0353 -0.3560  0.3573
 5501SOL    HW119908   9.847   3.963   5.991 -0.2893  0.8316 -0.5194
 5501SOL    HW219909   9.701   3.999   6.005 -0.6388 -0.2654 -1.2820
 5502SOL     OW19910   7.490   6.842   2.844 -0.3989 -0.1395 -0.0040
 5502SOL    HW119911   7.422   6.837   2.911 -0.0164  0.3624  0.4318
 5502SOL    HW219912   7.564   6.795   2.881 -0.2061  0.0861 -0.1026
 5503SOL     OW19913   0.801   4.769   5.256 -0.0389 -0.4351 -0.8634
 5503SOL    HW119914   0.750   4.836   5.302  0.4117 -1.0178  0.5045
 5503SOL    HW219915   0.860   4.819   5.200  1.8009  0.4200  1.7495
 5504SOL     OW19916   9.431   1.144   7.229 -0.4669  0.1638  0.0247
 5504SOL    HW119917   9.501   1.083   7.256 -0.4891 -0.0288 -0.3476
 5504SOL    HW219918   9.369   1.143   7.302 -1.9184 -2.4685 -1.1534
 5505SOL     OW19919   1.700   8.969   9.574  0.4513 -0.2168 -0.3777
 5505SOL    HW119920   1.683   8.881   9.607 -1.0286  0.7411  1.4923
 5505SOL    HW219921   1.768   8.957   9.507 -0.8115 -2.9443 -1.2322
 5506SOL     OW19922   8.373  10.274   2.831 -0.5179 -0.2210  0.0091
 5506SOL    HW119923   8.403  10.238   2.914 -2.3013 -1.0126  0.3441
 5506SOL    HW219924   8.411  10.361   2.828 -1.3249  0.2582  2.2085
 5507SOL     OW19925   8.667   2.442   5.663  0.6321  0.2017  0.0170
 5507SOL    HW119926   8.614   2.368   5.694  0.1363  1.3427  2.0065
 5507SOL    HW219927   8.604   2.511   5.643  1.2870  1.3804  1.8640
 5508SOL     OW19928   7.987   6.559   0.324  0.3350 -0.3824  0.7214
 5508SOL    HW119929   8.062   6.528   0.375  2.2447  0.6424 -1.3735
 5508SOL    HW219930   8.014   6.549   0.233 -2.8079 -1.6791 -0.1185
 5509SOL     OW19931  10.781   8.091   9.647 -0.0209  0.4522 -0.3680
 5509SOL    HW119932  10.855   8.140   9.612  0.9619 -0.5363  0.2704
 5509SOL    HW219933  10.818   8.005   9.668 -1.8262 -0.7852 -2.0720
 5510SOL     OW19934   8.283   0.954   3.509 -0.2181  0.0165 -0.6441
 5510SOL    HW119935   8.339   0.889   3.466  0.3159 -0.3890  0.6501
 5510SOL    HW219936   8.263   1.017   3.439  1.0054 -0.3855 -1.3861
 5511SOL     OW19937   1.960   3.417   2.933 -0.0245 -0.1757  0.0200
 5511SOL    HW119938   1.940   3.508   2.909 -1.1754 -0.6868 -1.0607
 5511SOL    HW219939   2.044   3.399   2.891  2.4585  1.7396  3.8967
 5512SOL     OW19940   7.548   3.393   3.962  0.2636  0.1699  0.0492
 5512SOL    HW119941   7.500   3.347   4.031 -0.6877 -0.6835 -1.1510
 5512SOL    HW219942   7.532   3.341   3.883  1.9072  0.7377 -0.6827
 5513SOL     OW19943   5.320   6.456   1.451  0.1210 -0.3779  0.0656
 5513SOL    HW119944   5.316   6.361   1.459  2.1869 -0.3556  1.8672
 5513SOL    HW219945   5.313   6.473   1.357 -0.0836 -2.3194 -0.2818
 5514SOL     OW19946  10.827  10.905   8.352  0.0081 -0.3590 -0.0156
 5514SOL    HW119947  10.844  10.969   8.282 -1.0933  0.2964  0.3087
 5514SOL    HW219948  10.877  10.939   8.427  0.2258 -0.4191 -0.1325
 5515SOL     OW19949   8.812   9.706  10.515  0.4037 -0.0144  0.7325
 5515SOL    HW119950   8.769   9.785  10.483  1.3398 -0.2944 -1.2783
 5515SOL    HW219951   8.864   9.735  10.589  0.7940  1.2744 -0.0389
 5516SOL     OW19952   1.197   8.439   4.716 -0.3993  0.3688 -0.6427
 5516SOL    HW119953   1.241   8.435   4.631 -0.0973  0.9579 -0.5107
 5516SOL    HW219954   1.267   8.427   4.780 -0.4026  1.4251 -0.4307
 5517SOL     OW19955   8.202   5.543   6.088  0.2199 -0.0431  0.0683
 5517SOL    HW119956   8.119   5.533   6.134  0.7280 -0.0186  1.0173
 5517SOL    HW219957   8.183   5.603   6.016 -0.0658  1.8848  1.6967
 5518SOL     OW19958   0.218   6.413  10.335 -0.5327  0.0196  0.5472
 5518SOL    HW119959   0.285   6.381  10.396 -1.1043  1.3050  1.8539
 5518SOL    HW219960   0.135   6.384  10.373 -0.7968 -0.8764 -0.6607
 5519SOL     OW19961   5.745   9.968   8.798  0.5869  0.2071  0.7007
 5519SOL    HW119962   5.829   9.994   8.761  1.4129 -0.1825  2.2297
 5519SOL    HW219963   5.687  10.042   8.781  1.0843  0.2478 -0.8527
 5520SOL     OW19964   5.922   3.494   9.776  0.1192 -0.3387  0.0427
 5520SOL    HW119965   5.911   3.506   9.871  0.4257  2.5689 -0.2280
 5520SOL    HW219966   5.981   3.420   9.768  0.6784 -0.1674  2.1780
 5521SOL     OW19967   6.826   3.356   6.520  0.5630 -0.2384 -0.1034
 5521SOL    HW119968   6.848   3.404   6.440 -0.5679 -0.9603 -0.8619
 5521SOL    HW219969   6.872   3.273   6.512 -1.9907 -1.5780 -1.4898
 5522SOL     OW19970   8.840  10.528   5.017  0.4883 -0.2724  0.3353
 5522SOL    HW119971   8.825  10.440   5.052 -0.4773 -0.6302 -0.9339
 5522SOL    HW219972   8.857  10.514   4.923  1.1220  0.8269  0.2744
 5523SOL     OW19973   0.099   8.765  10.422 -0.2866  0.4466 -0.3218
 5523SOL    HW119974   0.184   8.722  10.433  0.8122  2.2621 -1.4988
 5523SOL    HW219975   0.041   8.696  10.392  0.5597 -0.9992  1.2733
 5524SOL     OW19976   1.700   7.480   9.426  0.0788 -0.0017 -0.3711
 5524SOL    HW119977   1.640   7.544   9.388  1.1274  0.0933 -1.9264
 5524SOL    HW219978   1.644   7.416   9.470 -1.0818  0.6923 -0.8402
 5525SOL     OW19979   1.526   7.165   4.684 -0.4313  0.0387 -0.3549
 5525SOL    HW119980   1.494   7.088   4.731 -1.0375 -0.7135 -1.9649
 5525SOL    HW219981   1.491   7.240   4.733  1.5930 -0.6515  2.2220
 5526SOL     OW19982   1.418   2.477   3.569  0.8063  0.0449  0.8178
 5526SOL    HW119983   1.402   2.385   3.547 -1.2401  0.6520 -0.3779
 5526SOL    HW219984   1.465   2.512   3.493 -0.7133  0.6099  0.1263
 5527SOL     OW19985   6.508   1.090   2.989  0.0754 -0.0525 -0.2360
 5527SOL    HW119986   6.467   1.035   2.922 -1.5658  1.8425 -0.8353
 5527SOL    HW219987   6.549   1.028   3.049  0.7059 -1.8307 -2.4212
 5528SOL     OW19988   1.994   4.882   6.290  0.2836  0.7727 -0.6516
 5528SOL    HW119989   2.086   4.900   6.306  0.2814  0.2995 -0.0849
 5528SOL    HW219990   1.959   4.965   6.257  0.6571  1.2943  0.2278
 5529SOL     OW19991   7.716   5.501   7.667  0.2352 -0.3261 -0.2023
 5529SOL    HW119992   7.791   5.442   7.680  1.0449  0.7203 -0.0309
 5529SOL    HW219993   7.651   5.448   7.623 -0.1256 -2.1818  2.4174
 5530SOL     OW19994   7.374   4.141   7.926 -0.0528 -0.0732  0.1843
 5530SOL    HW119995   7.352   4.072   7.864 -0.7068  0.3911 -0.1055
 5530SOL    HW219996   7.317   4.214   7.902  0.9745  0.7396  0.1726
 5531SOL     OW19997   7.575  10.286   2.787  0.6927  0.5070 -0.9234
 5531SOL    HW119998   7.525  10.333   2.853 -1.4310 -0.3547 -1.9019
 5531SOL    HW219999   7.664  10.321   2.797  0.6500 -0.2435  2.9777
 5532SOL     OW20000   1.867   0.549   4.530  0.4206 -0.1511 -0.2511
 5532SOL    HW120001   1.786   0.569   4.483  0.6959 -0.1463 -0.7255
 5532SOL    HW220002   1.838   0.502   4.609 -0.1058  0.7161  0.0730
 5533SOL     OW20003   6.363   3.385  10.544 -0.1712 -0.6357  0.4621
 5533SOL    HW120004   6.308   3.438  10.602  0.4767  0.2184  0.2964
 5533SOL    HW220005   6.301   3.331  10.495 -0.8271 -0.0319  0.6312
 5534SOL     OW20006  10.080   0.727   9.611  0.5604  0.7219  0.7397
 5534SOL    HW120007  10.048   0.669   9.543 -2.6977 -1.1721  3.7304
 5534SOL    HW220008  10.044   0.813   9.589 -0.8816  0.0185  0.3180
 5535SOL     OW20009   0.004  10.195   3.680 -0.0330  0.6328 -0.1471
 5535SOL    HW120010  -0.002  10.135   3.754 -1.2000  1.4761  0.4681
 5535SOL    HW220011  -0.067  10.258   3.695  1.6065  2.5910 -0.3788
 5536SOL     OW20012   3.712   5.194  10.481  0.3437 -0.5089 -0.1199
 5536SOL    HW120013   3.805   5.210  10.496  0.0344  1.1799  0.0576
 5536SOL    HW220014   3.709   5.142  10.400  1.4464 -0.8861  0.0782
 5537SOL     OW20015   2.384   0.646   4.571 -0.0187  0.1929  0.4684
 5537SOL    HW120016   2.357   0.652   4.479  0.1172  2.1239  0.5245
 5537SOL    HW220017   2.303   0.657   4.620  0.2207  1.6269  0.5809
 5538SOL     OW20018   0.121   7.112   3.824  0.1245  0.5585  0.2162
 5538SOL    HW120019   0.179   7.102   3.749  1.4330  2.3452  0.9548
 5538SOL    HW220020   0.103   7.023   3.853  0.0212 -0.1150 -1.8998
 5539SOL     OW20021   6.849  10.822   8.547 -0.0667  0.3119  0.3029
 5539SOL    HW120022   6.771  10.773   8.574  0.1936  0.4931  1.3933
 5539SOL    HW220023   6.850  10.814   8.451  0.2498 -2.2846  0.4664
 5540SOL     OW20024   8.155   3.283   2.166 -0.4677 -0.4260 -0.2145
 5540SOL    HW120025   8.118   3.195   2.175 -2.0868  0.2852  0.3933
 5540SOL    HW220026   8.181   3.307   2.255  0.2671 -0.4173 -0.4342
 5541SOL     OW20027   9.765   1.372   8.473 -0.4034  0.1684 -0.2006
 5541SOL    HW120028   9.689   1.430   8.479 -0.5585 -0.1358  0.7928
 5541SOL    HW220029   9.813   1.405   8.397 -1.7287  0.1130 -1.0898
 5542SOL     OW20030   5.866   5.124   4.075 -0.0689  0.7972  0.0189
 5542SOL    HW120031   5.944   5.134   4.020 -1.4891  1.3418 -1.9653
 5542SOL    HW220032   5.808   5.195   4.047 -0.7470  1.2116  2.4019
 5543SOL     OW20033   1.986   5.408   5.735 -0.5315  0.0804  0.4375
 5543SOL    HW120034   1.904   5.457   5.731  0.5021  1.8425  0.0318
 5543SOL    HW220035   1.979   5.343   5.665 -0.8573  1.4240 -0.8206
 5544SOL     OW20036   4.481   4.711   3.658  0.0092 -0.0377  0.7254
 5544SOL    HW120037   4.507   4.802   3.644 -1.3994  0.6458  2.3352
 5544SOL    HW220038   4.498   4.695   3.751 -1.1044 -0.9664  0.7793
 5545SOL     OW20039   6.698   9.892   0.856 -0.1409  0.3439  0.1775
 5545SOL    HW120040   6.639   9.833   0.810 -1.8926  1.7153  0.5678
 5545SOL    HW220041   6.746   9.836   0.917 -1.0155 -0.8226 -0.1894
 5546SOL     OW20042   1.325   3.851   9.599  0.8487  0.2679 -0.5763
 5546SOL    HW120043   1.267   3.888   9.666  1.6437  0.5801 -0.0498
 5546SOL    HW220044   1.321   3.756   9.614  0.8179  0.3180 -0.2613
 5547SOL     OW20045   4.097   0.834   2.548  0.3673  0.5359  0.2875
 5547SOL    HW120046   4.163   0.902   2.563 -0.1050  0.8158  1.0960
 5547SOL    HW220047   4.074   0.803   2.635 -0.2741  0.1475 -0.0178
 5548SOL     OW20048   1.118   4.374   9.295 -0.0273 -0.3714 -0.4045
 5548SOL    HW120049   1.045   4.393   9.237 -1.1564 -1.6062  0.5893
 5548SOL    HW220050   1.196   4.384   9.240 -0.8237  2.4077 -1.1084
 5549SOL     OW20051   5.141   0.525   0.511  0.6067 -0.7034  0.3133
 5549SOL    HW120052   5.132   0.574   0.593  2.6001 -2.6651  1.7693
 5549SOL    HW220053   5.202   0.454   0.532  0.1713 -1.9999 -2.5453
 5550SOL     OW20054   5.620   6.749   3.423  0.3310 -0.4028  0.2832
 5550SOL    HW120055   5.541   6.694   3.424  0.7955 -1.0751  2.5647
 5550SOL    HW220056   5.594   6.827   3.375  0.2346 -3.4196 -4.9861
 5551SOL     OW20057   9.602   1.161   3.997 -0.0947  0.4788 -0.0196
 5551SOL    HW120058   9.648   1.119   3.924  0.3852  0.6154  0.2003
 5551SOL    HW220059   9.577   1.248   3.963 -0.2938  0.3618 -0.1759
 5552SOL     OW20060   3.874   6.491   4.807 -0.1248  0.4879  0.4898
 5552SOL    HW120061   3.817   6.436   4.753 -1.0122  1.5421  0.3532
 5552SOL    HW220062   3.960   6.448   4.802 -0.6984 -0.6218  0.0007
 5553SOL     OW20063   3.662   4.519   7.474  0.1171 -0.0999 -0.3925
 5553SOL    HW120064   3.714   4.444   7.447 -0.6391 -1.0466  0.7336
 5553SOL    HW220065   3.675   4.584   7.405  0.6322 -1.3240 -1.4551
 5554SOL     OW20066   6.178   4.360   9.181 -0.2773 -0.3158 -0.2220
 5554SOL    HW120067   6.178   4.404   9.266  0.5040 -0.5372 -0.1057
 5554SOL    HW220068   6.162   4.268   9.202 -2.3300 -0.0369 -0.5004
 5555SOL     OW20069   1.861   6.104   5.584  0.3779 -0.0898  0.6140
 5555SOL    HW120070   1.905   6.090   5.668 -1.4649 -0.3649  1.5460
 5555SOL    HW220071   1.855   6.199   5.576 -1.1053 -0.0847  1.6794
 5556SOL     OW20072   5.335   8.201   1.343 -0.1378  0.1019 -0.0244
 5556SOL    HW120073   5.299   8.221   1.256  0.7222  0.4801 -0.2958
 5556SOL    HW220074   5.270   8.234   1.404 -1.4085 -1.3779 -0.5285
 5557SOL     OW20075   8.501   3.132   4.906 -0.2982  0.0868  1.1294
 5557SOL    HW120076   8.409   3.117   4.931  0.2077 -0.3769  2.7601
 5557SOL    HW220077   8.518   3.222   4.934 -0.7527  0.7745 -0.7461
 5558SOL     OW20078   2.939   4.865   6.161 -0.1445 -0.8436 -0.1128
 5558SOL    HW120079   2.961   4.920   6.237  1.3093 -1.0387 -0.3741
 5558SOL    HW220080   2.845   4.875   6.150 -0.0102  1.0133  0.3104
 5559SOL     OW20081   0.672   6.697   6.425  0.1382  0.3986 -0.3389
 5559SOL    HW120082   0.631   6.705   6.511 -0.0032  0.2608 -0.3932
 5559SOL    HW220083   0.599   6.678   6.365  0.3118 -0.1069 -0.3951
 5560SOL     OW20084   4.466   6.200   5.984 -0.0790  0.0641 -0.7644
 5560SOL    HW120085   4.542   6.193   5.927  0.5620 -0.0095  0.0965
 5560SOL    HW220086   4.500   6.234   6.066 -0.9223 -0.2367 -0.2831
 5561SOL     OW20087   8.490   3.864   0.579  0.4096 -0.6157 -0.0994
 5561SOL    HW120088   8.576   3.827   0.556  0.0545 -0.7318 -1.2850
 5561SOL    HW220089   8.447   3.878   0.495 -0.4418  0.1653  0.4559
 5562SOL     OW20090   6.475   9.924   9.876  0.3915 -0.2285  0.3587
 5562SOL    HW120091   6.552   9.869   9.878  1.5362  1.2407 -1.7432
 5562SOL    HW220092   6.466   9.956   9.966  1.8352 -0.9413  0.7679
 5563SOL     OW20093   2.676   2.740   7.745 -0.3216 -0.2137 -0.4903
 5563SOL    HW120094   2.592   2.694   7.738  0.1998 -0.8204 -3.1732
 5563SOL    HW220095   2.739   2.670   7.763 -0.0978 -0.0172 -0.5224
 5564SOL     OW20096   3.874   4.184   2.499 -0.6634  0.2961  0.9383
 5564SOL    HW120097   3.951   4.241   2.499 -0.2890 -0.1971 -0.3516
 5564SOL    HW220098   3.842   4.186   2.409 -1.3803 -0.5583  1.1633
 5565SOL     OW20099  10.862   4.866   1.910 -0.1408 -0.0913 -0.0373
 5565SOL    HW120100  10.829   4.810   1.839 -1.6456  1.0576 -0.2633
 5565SOL    HW220101  10.936   4.817   1.946 -0.7510 -1.7271 -0.9376
 5566SOL     OW20102   5.711  10.475   3.548 -0.4252 -0.0672 -1.0696
 5566SOL    HW120103   5.789  10.531   3.549 -1.0851  0.9186  2.3436
 5566SOL    HW220104   5.739  10.394   3.591 -1.0675  0.0172 -0.4798
 5567SOL     OW20105   5.415   1.912   2.737  0.4578 -0.6540 -0.2413
 5567SOL    HW120106   5.452   1.994   2.703 -1.4378  0.1681 -0.3674
 5567SOL    HW220107   5.352   1.886   2.670 -0.9941 -0.7141  1.1376
 5568SOL     OW20108   0.685   3.624   1.656 -0.6974  0.1873 -0.1611
 5568SOL    HW120109   0.689   3.549   1.597 -0.6323 -0.2128  0.3500
 5568SOL    HW220110   0.611   3.606   1.714 -1.5019  1.1370 -0.8634
 5569SOL     OW20111   6.317   6.136   9.625  0.3170  0.5623  0.0078
 5569SOL    HW120112   6.231   6.156   9.664  0.5017  0.3943  0.5100
 5569SOL    HW220113   6.343   6.216   9.581 -0.6597  0.2392 -1.2034
 5570SOL     OW20114   7.939   5.746   1.397 -0.2415  0.4337 -0.4762
 5570SOL    HW120115   8.034   5.760   1.403 -0.2272  0.0871  0.1357
 5570SOL    HW220116   7.927   5.654   1.421 -0.6984  0.3821 -0.9092
 5571SOL     OW20117   6.297   4.629   6.789 -0.1375  0.1577  0.3986
 5571SOL    HW120118   6.371   4.669   6.834  0.4243  0.0209 -0.4029
 5571SOL    HW220119   6.245   4.589   6.860  0.6756  0.0388  0.9319
 5572SOL     OW20120   1.984   0.124   5.408  0.3229 -0.5571 -0.6915
 5572SOL    HW120121   1.969   0.141   5.315  1.2311  0.1383 -0.7139
 5572SOL    HW220122   2.009   0.209   5.445 -1.6582 -0.4739  0.5259
 5573SOL     OW20123   4.583   4.103   0.376  0.3938  0.2906  0.1327
 5573SOL    HW120124   4.643   4.095   0.301 -0.5382 -0.9233 -0.5018
 5573SOL    HW220125   4.632   4.154   0.441  2.1917 -0.8814 -0.2814
 5574SOL     OW20126   3.989   1.777   6.423  0.3854  0.1725  0.5341
 5574SOL    HW120127   4.084   1.781   6.435  0.6779 -1.4922 -0.8960
 5574SOL    HW220128   3.963   1.694   6.464  0.0017 -0.8045 -1.5996
 5575SOL     OW20129   3.669   4.503   7.941 -0.0743 -0.1081  1.0686
 5575SOL    HW120130   3.719   4.427   7.911 -0.0890 -0.2943  1.5074
 5575SOL    HW220131   3.623   4.534   7.863  1.3873  0.5833  0.4516
 5576SOL     OW20132   1.931   0.196  10.498 -0.1240 -0.4256 -0.1641
 5576SOL    HW120133   1.923   0.216  10.405  0.1136 -1.0111 -0.3114
 5576SOL    HW220134   2.023   0.213  10.518 -0.2832  0.1650  0.0759
 5577SOL     OW20135   1.048   0.279   0.160 -0.2209  0.0579  0.1750
 5577SOL    HW120136   1.039   0.257   0.253 -1.0776 -1.4880 -0.2518
 5577SOL    HW220137   0.971   0.240   0.119  0.2753  0.5362 -1.2205
 5578SOL     OW20138   6.373  10.350   4.862 -0.3808 -0.8556  0.6005
 5578SOL    HW120139   6.417  10.266   4.847 -0.8172 -0.5726 -2.4106
 5578SOL    HW220140   6.302  10.329   4.922  0.8223 -2.2262  1.5878
 5579SOL     OW20141   7.492   3.736   8.787 -0.3591  0.0051  0.7476
 5579SOL    HW120142   7.470   3.792   8.713  0.3427 -0.8062 -0.0851
 5579SOL    HW220143   7.462   3.785   8.864 -0.4399  1.1713 -0.0150
 5580SOL     OW20144   8.227   6.239   3.305 -0.4608  0.1794  1.0227
 5580SOL    HW120145   8.241   6.193   3.388 -0.3917 -0.2153  0.7919
 5580SOL    HW220146   8.236   6.332   3.327  0.0532  0.0499  1.3627
 5581SOL     OW20147   7.702   3.793   8.469 -0.1858 -0.1970 -0.0598
 5581SOL    HW120148   7.631   3.854   8.491 -0.1182 -0.2850  0.3999
 5581SOL    HW220149   7.703   3.731   8.541  0.2686 -0.2796 -0.1406
 5582SOL     OW20150   5.478   4.695   7.622  0.9035  0.6003  0.8266
 5582SOL    HW120151   5.570   4.684   7.646  0.9742 -0.3721  0.1291
 5582SOL    HW220152   5.465   4.636   7.547 -0.1134  1.2366  0.4906
 5583SOL     OW20153   7.199   6.667   9.940  0.4225 -0.1672 -0.6146
 5583SOL    HW120154   7.224   6.756   9.967 -2.1373 -0.2305  2.2923
 5583SOL    HW220155   7.257   6.610   9.989 -1.5804 -0.1745  1.8478
 5584SOL     OW20156   6.210   9.658   3.031  0.5128  0.8025  0.0410
 5584SOL    HW120157   6.283   9.660   2.969 -0.5269  1.5718 -1.1739
 5584SOL    HW220158   6.175   9.747   3.029  1.4093  1.2951  2.8969
 5585SOL     OW20159   9.694   5.126   7.431 -0.3090  0.3382  0.2487
 5585SOL    HW120160   9.626   5.116   7.498 -0.9634 -0.1646 -0.4817
 5585SOL    HW220161   9.668   5.204   7.382 -0.9443 -0.4699 -0.7055
 5586SOL     OW20162   1.229   7.842   9.725 -0.0567  0.3764  0.0695
 5586SOL    HW120163   1.305   7.825   9.781  0.4011 -1.2468 -1.0030
 5586SOL    HW220164   1.186   7.757   9.715 -0.6026  0.7899 -1.3355
 5587SOL     OW20165  10.285  10.545   6.693 -0.0240  0.0215 -0.3510
 5587SOL    HW120166  10.203  10.508   6.660  0.6858 -0.6534 -1.3533
 5587SOL    HW220167  10.341  10.469   6.708  0.2259  0.4407  0.8910
 5588SOL     OW20168   1.068   6.619   9.881  0.3327 -0.2796 -0.0066
 5588SOL    HW120169   1.111   6.659   9.805  0.8109 -0.9598 -0.0967
 5588SOL    HW220170   1.114   6.656   9.957  0.7008 -0.5639 -0.0875
 5589SOL     OW20171   5.301   2.538   2.851 -0.1514 -0.2338 -0.1900
 5589SOL    HW120172   5.238   2.486   2.802 -1.6794  1.0125  0.3994
 5589SOL    HW220173   5.261   2.625   2.857  1.0660  0.2468  1.2757
 5590SOL     OW20174   8.658   2.767   9.399  0.7056 -0.1483 -0.3699
 5590SOL    HW120175   8.693   2.711   9.330  0.4482 -5.1429  3.2399
 5590SOL    HW220176   8.735   2.792   9.451  0.3001 -1.6523  1.0204
 5591SOL     OW20177   5.265   2.045   6.826  0.0210 -0.0930 -0.0911
 5591SOL    HW120178   5.358   2.055   6.807 -0.3617  2.2499 -0.9485
 5591SOL    HW220179   5.229   2.000   6.749  0.4369 -0.9762  0.2305
 5592SOL     OW20180   3.453   4.075   9.524 -0.6725 -0.3204  0.0702
 5592SOL    HW120181   3.514   4.006   9.498  0.3130  1.0252 -1.2757
 5592SOL    HW220182   3.497   4.120   9.597  0.3611  1.1891 -1.4570
 5593SOL     OW20183   7.317   3.595   1.759 -0.6928 -0.0866  0.1647
 5593SOL    HW120184   7.340   3.521   1.704 -0.8622 -0.6182  0.7934
 5593SOL    HW220185   7.240   3.565   1.808 -0.4063  0.2887  0.8500
 5594SOL     OW20186   3.763   0.935   9.728 -0.2712 -0.6674  0.1208
 5594SOL    HW120187   3.674   0.900   9.723  0.0052 -1.4205  0.2959
 5594SOL    HW220188   3.766   0.979   9.813 -0.4771 -0.6604  0.1254
 5595SOL     OW20189   0.273   8.472   0.551  0.5576  0.0764 -0.0936
 5595SOL    HW120190   0.211   8.448   0.620  1.0027  0.1985  0.3569
 5595SOL    HW220191   0.322   8.546   0.588  0.0921  0.8211 -0.9503
 5596SOL     OW20192   9.160   3.761   5.621 -0.4746 -0.3637  0.1546
 5596SOL    HW120193   9.122   3.768   5.709 -2.5531 -1.9044 -0.5923
 5596SOL    HW220194   9.246   3.720   5.636  0.8288  2.7506  1.8040
 5597SOL     OW20195   0.459   8.210   4.466  0.3163 -0.1028 -0.2239
 5597SOL    HW120196   0.392   8.162   4.516  0.2551 -0.7520 -0.9262
 5597SOL    HW220197   0.536   8.207   4.522 -0.8961  2.7282  1.6870
 5598SOL     OW20198   9.470   2.201  10.250 -0.6972  0.6845  0.1290
 5598SOL    HW120199   9.556   2.183  10.288 -1.1781 -1.4833  0.2463
 5598SOL    HW220200   9.488   2.265  10.181  1.0247  0.1577  0.0660
 5599SOL     OW20201   7.207   8.752  10.072  0.8620  0.5252  0.4797
 5599SOL    HW120202   7.259   8.817  10.120  0.0704  1.2866  0.3107
 5599SOL    HW220203   7.147   8.717  10.137  1.8096 -0.6121  0.7613
 5600SOL     OW20204   6.247  10.558   3.277 -0.4431 -0.2690 -0.1399
 5600SOL    HW120205   6.219  10.616   3.348 -1.6064 -0.6378 -0.2794
 5600SOL    HW220206   6.313  10.608   3.229 -2.6213  1.6665 -1.2663
 5601SOL     OW20207   5.758   5.066   7.580  0.3775  0.4633 -0.0043
 5601SOL    HW120208   5.675   5.019   7.575  0.6133  0.2196 -2.3911
 5601SOL    HW220209   5.735   5.158   7.572  0.2902  0.4510  0.0996
 5602SOL     OW20210   1.938   3.914   6.665  0.0216  0.6429 -0.0669
 5602SOL    HW120211   1.998   3.985   6.644 -0.0264  1.0123  1.0290
 5602SOL    HW220212   1.851   3.949   6.647  0.0855  0.3500 -0.9659
 5603SOL     OW20213  10.531   6.995   6.511  0.5114  0.0901  0.6281
 5603SOL    HW120214  10.477   6.920   6.534  2.1395 -0.6144  2.2707
 5603SOL    HW220215  10.518   7.058   6.582 -1.3545  1.6583 -1.0703
 5604SOL     OW20216   4.036   8.745   2.058 -0.1000  0.2707  0.9720
 5604SOL    HW120217   4.064   8.658   2.029 -2.1840 -1.2129  3.1773
 5604SOL    HW220218   3.976   8.775   1.989 -2.5625 -1.8641  2.0679
 5605SOL     OW20219   7.040   7.015   1.248 -0.7828  0.2633  0.1507
 5605SOL    HW120220   7.120   7.022   1.196  0.4322  1.7885  2.1294
 5605SOL    HW220221   7.049   6.932   1.296 -0.6894  0.1073 -0.1398
 5606SOL     OW20222   2.087   5.575   8.944 -0.3778 -0.3559  0.2351
 5606SOL    HW120223   2.080   5.588   9.039 -0.2895  0.0286  0.1878
 5606SOL    HW220224   2.165   5.624   8.919 -1.2959  0.8513 -0.2853
 5607SOL     OW20225   6.882   8.068   0.727  0.0281 -0.2173 -0.0795
 5607SOL    HW120226   6.904   8.160   0.714  0.1616 -0.3501 -0.7927
 5607SOL    HW220227   6.788   8.063   0.709  0.5991 -0.7808 -3.1094
 5608SOL     OW20228   0.716   1.811   8.007  0.0687 -0.5633  0.5306
 5608SOL    HW120229   0.811   1.804   8.003  0.2131  1.6915 -0.7096
 5608SOL    HW220230   0.691   1.856   7.926 -2.0889 -1.4876  0.6359
 5609SOL     OW20231   6.999   2.411   4.706  0.0228 -0.5015 -0.6611
 5609SOL    HW120232   7.032   2.414   4.796  1.7793 -1.4871 -1.2337
 5609SOL    HW220233   6.942   2.334   4.704  0.2779 -0.6978 -0.4774
 5610SOL     OW20234   2.079   0.290   9.306  0.4914 -0.1184 -0.1766
 5610SOL    HW120235   2.089   0.251   9.392 -0.7880  0.5419  0.2856
 5610SOL    HW220236   2.083   0.216   9.245  3.6887 -0.3746  0.2270
 5611SOL     OW20237   3.364   8.763   0.305  0.5735 -0.0108  0.4671
 5611SOL    HW120238   3.344   8.802   0.389 -3.7059  0.3723 -0.6042
 5611SOL    HW220239   3.381   8.671   0.325  3.0913  0.7430  2.0727
 5612SOL     OW20240   0.329  10.032   8.613  0.1193  0.0332 -0.1488
 5612SOL    HW120241   0.374  10.041   8.529  2.0358 -0.3348  0.8160
 5612SOL    HW220242   0.240  10.004   8.589  0.2381  1.2123 -2.0954
 5613SOL     OW20243   1.216  10.147   3.450  0.2859 -0.0791  0.1925
 5613SOL    HW120244   1.227  10.066   3.401 -0.9378 -1.0449  1.4589
 5613SOL    HW220245   1.126  10.173   3.435  0.7909  1.3065 -0.5505
 5614SOL     OW20246   8.818   1.701   3.395 -0.2684  0.4859  0.1451
 5614SOL    HW120247   8.795   1.781   3.348 -1.8715 -0.7075 -1.1532
 5614SOL    HW220248   8.735   1.654   3.405  0.8762 -1.7365 -0.5094
 5615SOL     OW20249   1.116   9.941   8.571 -0.1142 -0.2375  0.2771
 5615SOL    HW120250   1.141   9.963   8.481  1.2913 -0.9697  0.4766
 5615SOL    HW220251   1.021   9.952   8.573 -0.0907  0.3083 -1.1481
 5616SOL     OW20252   2.520   4.449  10.448 -0.0665  0.8352  0.3681
 5616SOL    HW120253   2.529   4.363  10.405 -0.6246  1.4944 -1.1198
 5616SOL    HW220254   2.499   4.428  10.539  3.2126 -0.6288  0.8711
 5617SOL     OW20255   7.023   8.730   5.595  0.5986  0.4686 -0.5078
 5617SOL    HW120256   7.085   8.764   5.660  0.5327 -0.5641  0.0931
 5617SOL    HW220257   7.079   8.693   5.527  0.6562 -2.5668  1.1409
 5618SOL     OW20258   6.606   1.427   8.531 -0.5141 -0.0349 -0.2365
 5618SOL    HW120259   6.619   1.402   8.439  1.5014 -0.4777  0.1534
 5618SOL    HW220260   6.622   1.347   8.580  2.6359  1.1659  0.7789
 5619SOL     OW20261   4.811  10.101   1.540  0.3936 -0.1859  0.3898
 5619SOL    HW120262   4.877  10.123   1.605  1.1645 -0.5895 -0.2522
 5619SOL    HW220263   4.729  10.097   1.590  0.8105  0.5254  1.1461
 5620SOL     OW20264   2.459   2.765   3.744  0.2591 -0.3112  0.0197
 5620SOL    HW120265   2.379   2.812   3.766  0.3552 -0.0039 -0.2940
 5620SOL    HW220266   2.483   2.720   3.825 -0.9182 -1.4187 -0.2278
 5621SOL     OW20267   0.472   6.796   1.357  0.4699 -0.0286 -0.2197
 5621SOL    HW120268   0.381   6.802   1.386  1.0781  0.3251  1.6803
 5621SOL    HW220269   0.492   6.882   1.321  0.4229  0.2603  0.4540
 5622SOL     OW20270   9.066   3.674   0.218  0.2466  0.1912 -0.1065
 5622SOL    HW120271   9.161   3.662   0.212  0.4829  1.3047  1.2615
 5622SOL    HW220272   9.035   3.592   0.258  0.6813  0.0093 -0.1307
 5623SOL     OW20273   4.604   6.207   3.939 -0.2438  0.4589  0.3674
 5623SOL    HW120274   4.693   6.176   3.953 -0.5258  0.3202  1.8780
 5623SOL    HW220275   4.560   6.136   3.893  0.5974  0.7964 -0.9906
 5624SOL     OW20276  10.261   7.155   2.758 -0.6017 -0.1399 -0.3643
 5624SOL    HW120277  10.170   7.141   2.730 -0.3413  0.1802 -1.3745
 5624SOL    HW220278  10.313   7.121   2.685  0.1144 -1.7971  0.8908
 5625SOL     OW20279   2.885   2.298   8.912 -0.1375 -0.3394 -0.0468
 5625SOL    HW120280   2.799   2.267   8.882  0.0417 -0.8786 -0.0108
 5625SOL    HW220281   2.907   2.370   8.853 -0.5171 -0.3441 -0.1913
 5626SOL     OW20282   0.611   0.559   7.474 -0.2800 -0.6195  0.5399
 5626SOL    HW120283   0.573   0.583   7.559  1.1944 -1.7550  1.5535
 5626SOL    HW220284   0.702   0.537   7.494  0.7581  1.4011 -1.7541
 5627SOL     OW20285   5.875   6.151   3.902 -0.1230  0.0382 -0.1750
 5627SOL    HW120286   5.786   6.185   3.907 -0.2303 -0.2197 -0.3617
 5627SOL    HW220287   5.880   6.107   3.817 -0.4291 -1.6757  0.6656
 5628SOL     OW20288   6.721   6.543   3.077  0.3573  0.3927 -0.1307
 5628SOL    HW120289   6.676   6.463   3.107 -1.5927  1.4408 -0.1719
 5628SOL    HW220290   6.797   6.511   3.029 -1.2652 -1.5106 -1.5180
 5629SOL     OW20291   2.528   8.059  10.932 -0.5955 -0.4555  0.1403
 5629SOL    HW120292   2.480   8.003  10.992 -1.4062  1.6514  1.5308
 5629SOL    HW220293   2.462   8.114  10.891  0.4473  1.5105  1.0202
 5630SOL     OW20294   0.218  10.486   2.922 -0.4531  0.3378  0.5023
 5630SOL    HW120295   0.133  10.530   2.916  1.0576  3.2676 -0.2029
 5630SOL    HW220296   0.250  10.507   3.009 -0.0204  0.0270  0.4206
 5631SOL     OW20297   7.572   8.100   2.253  0.6176 -0.5940 -0.3414
 5631SOL    HW120298   7.561   8.007   2.275 -1.6079 -0.1980  0.3328
 5631SOL    HW220299   7.556   8.146   2.335  0.9964  0.4325 -0.8332
 5632SOL     OW20300  10.142   5.001   3.515 -0.0534  0.3882 -0.1066
 5632SOL    HW120301  10.161   4.973   3.605  0.7213 -0.9051 -0.6655
 5632SOL    HW220302  10.090   4.930   3.478 -1.7473  1.6314 -0.2050
 5633SOL     OW20303   6.560   7.158   0.428  0.4279 -0.2853 -0.2460
 5633SOL    HW120304   6.524   7.070   0.442  0.3531 -0.4713 -1.5587
 5633SOL    HW220305   6.617   7.173   0.503 -1.6450 -0.3856  1.3872
 5634SOL     OW20306  10.228   2.983   2.492 -0.3467 -0.1046  0.0775
 5634SOL    HW120307  10.157   2.936   2.449  0.5450 -0.3444 -1.1997
 5634SOL    HW220308  10.266   3.036   2.422  0.6240  0.1310  0.7741
 5635SOL     OW20309   5.094   6.216   7.445  0.0460 -0.0594  0.4872
 5635SOL    HW120310   5.033   6.245   7.377 -1.1511 -1.9476  0.7149
 5635SOL    HW220311   5.051   6.237   7.527  0.4115  0.0018  0.6660
 5636SOL     OW20312   5.900   3.790   6.727 -0.2208  0.2715 -0.1875
 5636SOL    HW120313   5.826   3.835   6.686 -0.6499  0.0381  0.3289
 5636SOL    HW220314   5.877   3.698   6.724  1.1011 -0.0344 -2.1474
 5637SOL     OW20315   5.481   7.726   3.170  0.4453  0.5378 -0.5597
 5637SOL    HW120316   5.428   7.661   3.124  0.8813  1.2132 -2.0643
 5637SOL    HW220317   5.443   7.731   3.257 -2.3354  1.3991 -1.7640
 5638SOL     OW20318   1.300   1.221   4.303  0.5222  0.1421  0.0426
 5638SOL    HW120319   1.331   1.131   4.289  1.9909  0.7150 -0.5250
 5638SOL    HW220320   1.367   1.275   4.261 -0.5644  1.4833  0.0374
 5639SOL     OW20321   5.544   7.971   6.273 -0.1687 -0.7514  0.3775
 5639SOL    HW120322   5.578   7.989   6.361  0.7332  0.7446 -0.2621
 5639SOL    HW220323   5.593   7.893   6.244 -0.5818 -1.3425  1.2398
 5640SOL     OW20324   1.961   2.111   5.248  0.2766 -0.1040  0.0598
 5640SOL    HW120325   1.938   2.152   5.331 -0.1170  0.2081 -0.2001
 5640SOL    HW220326   2.054   2.130   5.237 -0.0863  1.4509 -0.4488
 5641SOL     OW20327  10.030  10.857   2.316 -0.1558 -0.6692 -0.4947
 5641SOL    HW120328  10.004  10.766   2.325 -0.2913 -0.4947  0.9817
 5641SOL    HW220329   9.979  10.889   2.242 -0.7929 -1.5428 -0.4449
 5642SOL     OW20330  10.431   8.958   1.064  0.1301 -0.1840 -0.1815
 5642SOL    HW120331  10.515   8.914   1.079  0.5442  0.1269 -1.5210
 5642SOL    HW220332  10.450   9.022   0.995 -0.7449  1.2857  0.9315
 5643SOL     OW20333   7.320   1.131  10.164 -0.2679 -0.0489  0.1372
 5643SOL    HW120334   7.327   1.048  10.210 -0.7440 -0.2436 -0.1383
 5643SOL    HW220335   7.296   1.195  10.231  1.2396  0.0901  0.5682
 5644SOL     OW20336   0.608   6.922   4.124  0.7368 -0.6138 -0.1547
 5644SOL    HW120337   0.525   6.892   4.162 -0.2468  0.5175 -1.3582
 5644SOL    HW220338   0.613   7.014   4.150  1.0162 -0.3545 -1.1348
 5645SOL     OW20339   8.954   5.105   6.411  0.3043  0.5594 -0.5256
 5645SOL    HW120340   8.967   5.187   6.458 -0.4703  0.1699  0.3679
 5645SOL    HW220341   8.974   5.037   6.475  1.4399  0.0401 -1.4058
 5646SOL     OW20342  10.866   8.998   5.011 -0.8870  0.1493  0.1375
 5646SOL    HW120343  10.955   9.023   5.036 -0.5006 -1.4473  0.3859
 5646SOL    HW220344  10.835   8.944   5.083 -1.6741 -0.1755 -0.4372
 5647SOL     OW20345   1.481   2.233   1.608 -0.0425  0.1506 -0.0436
 5647SOL    HW120346   1.528   2.169   1.661  0.2507 -1.0549 -1.7328
 5647SOL    HW220347   1.503   2.317   1.648 -0.7891 -0.7884  2.4890
 5648SOL     OW20348   4.828   8.767   4.599 -0.2766  0.0479  0.4408
 5648SOL    HW120349   4.817   8.695   4.537  0.6901  0.7708 -0.5956
 5648SOL    HW220350   4.800   8.844   4.551  0.2139  0.5790  1.0032
 5649SOL     OW20351   5.409   0.214   8.539  0.1823  0.0367 -0.3201
 5649SOL    HW120352   5.322   0.178   8.560  0.0627  0.1998 -0.5342
 5649SOL    HW220353   5.469   0.164   8.594 -0.0857  0.1515  0.0787
 5650SOL     OW20354   4.254   1.874   6.501 -0.5852  0.2227 -0.4694
 5650SOL    HW120355   4.283   1.964   6.489  0.4595 -0.1400 -0.6711
 5650SOL    HW220356   4.285   1.850   6.588 -0.4849 -0.0962 -0.5946
 5651SOL     OW20357   4.408   4.816   6.369  0.2951 -0.0319 -0.1294
 5651SOL    HW120358   4.487   4.840   6.322 -0.0033  1.8334  0.3055
 5651SOL    HW220359   4.347   4.788   6.301  0.8575 -0.1851 -0.5744
 5652SOL     OW20360   0.869   6.055   1.628  0.5182  0.0928  0.0848
 5652SOL    HW120361   0.903   5.971   1.659 -0.3377 -0.8619 -1.5152
 5652SOL    HW220362   0.947   6.105   1.604  1.0885  0.1141  1.8519
 5653SOL     OW20363   8.059   6.232   7.627  0.2357  0.0690  0.0687
 5653SOL    HW120364   8.094   6.224   7.538  1.3568 -0.3587  0.5384
 5653SOL    HW220365   8.029   6.323   7.633  0.0525  0.0741 -0.7688
 5654SOL     OW20366   6.986   0.237   4.905 -0.3956  0.4568  0.2799
 5654SOL    HW120367   6.989   0.142   4.890 -1.0673  0.7131 -1.6247
 5654SOL    HW220368   6.931   0.247   4.982 -0.9240 -0.6740  0.0652
 5655SOL     OW20369   4.279  10.692   2.260 -0.0041 -0.1058 -0.2980
 5655SOL    HW120370   4.187  10.697   2.287 -0.1909  0.8389 -1.0665
 5655SOL    HW220371   4.284  10.610   2.210 -0.4513 -0.1105 -0.3451
 5656SOL     OW20372   6.363   9.523   1.835 -0.5123  0.0512 -0.6608
 5656SOL    HW120373   6.301   9.588   1.869 -0.6728 -0.3929 -0.0811
 5656SOL    HW220374   6.437   9.528   1.895 -1.5731 -2.0252  0.8569
 5657SOL     OW20375   1.160   1.386   3.509  0.2709 -0.0262 -0.0554
 5657SOL    HW120376   1.153   1.301   3.466 -0.8325  0.2325 -0.4057
 5657SOL    HW220377   1.225   1.373   3.578  0.5432 -0.9894 -0.4925
 5658SOL     OW20378   0.223   5.537  10.193  0.1986 -0.1531 -0.6973
 5658SOL    HW120379   0.174   5.610  10.154 -0.5020 -0.9998 -1.4186
 5658SOL    HW220380   0.156   5.484  10.236  0.5973 -0.8286 -0.8999
 5659SOL     OW20381   8.222   8.030   6.028 -0.8721  0.1481 -0.4649
 5659SOL    HW120382   8.237   7.939   6.002 -0.2543  0.0747  0.1565
 5659SOL    HW220383   8.157   8.025   6.098 -0.7108  0.1748 -0.3135
 5660SOL     OW20384   0.597  10.301   5.469 -0.1935 -0.1796 -0.2799
 5660SOL    HW120385   0.504  10.320   5.462 -0.1209  0.8022  1.0933
 5660SOL    HW220386   0.640  10.372   5.421 -0.1173  0.0580  0.1333
 5661SOL     OW20387   9.435   4.226   3.969 -0.4037 -0.1322  0.2546
 5661SOL    HW120388   9.373   4.249   3.900  0.9374 -1.2994 -1.3758
 5661SOL    HW220389   9.465   4.311   4.003 -0.6322  0.4646 -1.0058
 5662SOL     OW20390   6.370  10.260   4.440  0.2180  0.2363 -0.0142
 5662SOL    HW120391   6.422  10.341   4.440  0.7725 -0.1178  1.0500
 5662SOL    HW220392   6.285  10.287   4.474  0.0149  0.6077 -0.7902
 5663SOL     OW20393   5.219   0.116   5.263  0.2496  0.1865  0.2659
 5663SOL    HW120394   5.305   0.091   5.297  0.3317  1.0969  0.7473
 5663SOL    HW220395   5.199   0.198   5.307 -1.2358 -0.4205  0.7488
 5664SOL     OW20396   8.141   2.374   6.852  0.0473 -0.6434 -0.3029
 5664SOL    HW120397   8.125   2.286   6.887  1.1340 -0.6634  0.1473
 5664SOL    HW220398   8.055   2.416   6.854 -0.1603 -1.1076  1.0865
 5665SOL     OW20399   5.957   8.329  10.521  0.2318  0.1216 -0.0329
 5665SOL    HW120400   5.948   8.254  10.580  3.2144  0.0225  0.3923
 5665SOL    HW220401   5.874   8.376  10.530 -0.9558 -2.0870  1.1380
 5666SOL     OW20402   9.229   3.303   8.679 -0.2286 -0.0362 -0.4576
 5666SOL    HW120403   9.202   3.392   8.705  0.0904  0.1007 -0.5940
 5666SOL    HW220404   9.322   3.298   8.702 -0.8563 -1.2305  1.9618
 5667SOL     OW20405   2.842   9.698   1.888 -0.2573  0.2509 -0.1693
 5667SOL    HW120406   2.872   9.711   1.978  0.7506  1.5232 -0.6742
 5667SOL    HW220407   2.914   9.654   1.844  0.4644  2.2931 -1.0956
 5668SOL     OW20408   8.617   3.752   9.056  0.2448 -0.2130 -0.3689
 5668SOL    HW120409   8.606   3.698   9.134 -1.2783  1.3855  0.5568
 5668SOL    HW220410   8.565   3.708   8.988 -0.3608 -0.3295  0.1677
 5669SOL     OW20411   2.793   6.928   2.575 -0.3978 -0.0892 -0.1873
 5669SOL    HW120412   2.731   6.979   2.524 -0.6090 -0.0977  0.0581
 5669SOL    HW220413   2.803   6.977   2.657  1.7631  1.1883 -1.1766
 5670SOL     OW20414   8.564   2.903   9.784  0.1233  0.2672  0.3439
 5670SOL    HW120415   8.614   2.949   9.717 -0.2248 -0.6132 -0.5331
 5670SOL    HW220416   8.480   2.949   9.788  0.4983  0.9149  0.8675
 5671SOL     OW20417   1.175  10.436   8.429  0.6161 -0.5621 -0.3868
 5671SOL    HW120418   1.246  10.385   8.388 -1.8656 -1.4433 -3.8703
 5671SOL    HW220419   1.104  10.373   8.439 -0.7495  1.0318  0.0336
 5672SOL     OW20420  10.648   7.797   3.387 -0.0277 -0.2449  0.1037
 5672SOL    HW120421  10.732   7.762   3.356 -0.2547 -3.9846  3.2818
 5672SOL    HW220422  10.671   7.876   3.435  1.4686 -0.2111 -0.6324
 5673SOL     OW20423   0.191   5.659   7.648  0.0442  0.4346 -0.0006
 5673SOL    HW120424   0.197   5.633   7.555  1.5623  1.5523 -0.2317
 5673SOL    HW220425   0.102   5.693   7.657  0.6028  2.4203 -1.6132
 5674SOL     OW20426   5.220   0.623   8.749  0.9656 -0.0637 -0.4785
 5674SOL    HW120427   5.128   0.614   8.776  1.4571  0.5686  1.4815
 5674SOL    HW220428   5.257   0.536   8.763  0.7740 -0.2147 -0.8904
 5675SOL     OW20429   5.084   4.200   2.297  0.6182 -0.9780  0.2528
 5675SOL    HW120430   5.125   4.276   2.256 -0.2197 -0.5340  0.2229
 5675SOL    HW220431   5.136   4.126   2.268 -0.1876 -0.7186 -1.9400
 5676SOL     OW20432   9.865   5.261   2.345  0.3267 -0.0343  0.0660
 5676SOL    HW120433   9.830   5.183   2.388 -0.7184  0.4207  0.0488
 5676SOL    HW220434   9.802   5.281   2.276  0.8830  0.4980 -0.2996
 5677SOL     OW20435   3.687   7.077   8.944  0.7017  0.2848 -0.0130
 5677SOL    HW120436   3.736   7.116   9.016  0.2506 -0.4773  0.7232
 5677SOL    HW220437   3.595   7.090   8.968  0.4842  3.3931 -2.3044
 5678SOL     OW20438   3.710   1.373   4.525  0.8077 -0.2548  0.4617
 5678SOL    HW120439   3.759   1.346   4.604 -0.3628 -1.9867  0.6261
 5678SOL    HW220440   3.687   1.290   4.483 -0.6786  0.5994 -0.4136
 5679SOL     OW20441   4.522   5.280   5.189 -0.0580  0.0639  0.2802
 5679SOL    HW120442   4.456   5.310   5.127  0.2437  1.0393  0.4133
 5679SOL    HW220443   4.485   5.200   5.227 -0.9016  0.2850 -0.0641
 5680SOL     OW20444   4.927   5.019   3.262  0.2514  0.1974 -0.5493
 5680SOL    HW120445   4.955   4.940   3.215 -0.0513 -0.3135  0.1101
 5680SOL    HW220446   4.974   5.090   3.219  1.9911 -0.5515  0.0416
 5681SOL     OW20447   9.042  10.634  10.404  0.4508  0.4889 -0.1757
 5681SOL    HW120448   9.016  10.582  10.481  0.4181  2.6366  1.2975
 5681SOL    HW220449   8.960  10.672  10.372  0.1755 -1.8552 -2.4398
 5682SOL     OW20450   9.696   3.700  10.164  0.6327 -0.5020 -0.0416
 5682SOL    HW120451   9.676   3.633  10.230  1.8308 -1.0348 -0.2180
 5682SOL    HW220452   9.690   3.783  10.211  1.0473 -0.8532  0.6290
 5683SOL     OW20453   5.904   8.977  10.389 -0.4003 -0.1162 -0.4607
 5683SOL    HW120454   5.954   9.051  10.423  1.3850 -0.0773 -2.9511
 5683SOL    HW220455   5.957   8.900  10.412 -0.5598 -0.3145 -0.7490
 5684SOL     OW20456  10.595   1.722   8.811  0.1205  0.0534  0.1659
 5684SOL    HW120457  10.525   1.786   8.808 -0.7970 -0.9307  0.4150
 5684SOL    HW220458  10.646   1.746   8.889 -1.7830 -1.1098  1.8276
 5685SOL     OW20459   7.460   8.043   4.201 -0.3493  0.5808 -0.2672
 5685SOL    HW120460   7.487   8.131   4.173 -1.0870  0.7643 -0.4095
 5685SOL    HW220461   7.450   7.995   4.119  0.2694  0.2935 -0.1795
 5686SOL     OW20462   9.374   9.078   8.600  0.6912  0.3124 -0.1611
 5686SOL    HW120463   9.420   9.161   8.614 -2.0650  1.8455  0.2768
 5686SOL    HW220464   9.373   9.037   8.686  0.4648  0.7104  0.0312
 5687SOL     OW20465   9.262   7.289   4.775 -0.0219 -0.1936 -0.7230
 5687SOL    HW120466   9.178   7.292   4.821  0.0217  1.5621 -0.7248
 5687SOL    HW220467   9.323   7.254   4.839 -0.3399  0.5178 -0.0174
 5688SOL     OW20468   3.712  10.817   0.209 -0.0755 -0.5764 -0.0453
 5688SOL    HW120469   3.620  10.816   0.236  0.1139 -0.8399  0.5799
 5688SOL    HW220470   3.719  10.747   0.144 -0.3643 -0.4098 -0.2616
 5689SOL     OW20471   8.709   9.418   5.715  0.0732  0.0978 -0.1175
 5689SOL    HW120472   8.694   9.446   5.805 -1.4072  1.5254 -0.7802
 5689SOL    HW220473   8.794   9.457   5.691  0.0804  0.3843  0.3846
 5690SOL     OW20474   5.391   0.601   6.538  0.1396 -0.5429 -0.3148
 5690SOL    HW120475   5.402   0.522   6.486  0.8137 -0.5453 -0.1661
 5690SOL    HW220476   5.346   0.662   6.479 -0.7813 -1.1731 -0.2908
 5691SOL     OW20477   8.615   3.021   2.525  0.1312 -0.4662 -0.9898
 5691SOL    HW120478   8.648   2.962   2.458 -0.1963  0.3941 -1.9150
 5691SOL    HW220479   8.694   3.062   2.561  0.2527 -0.3529 -1.3866
 5692SOL     OW20480   6.652   0.989   5.669 -0.1489 -0.3799 -0.1884
 5692SOL    HW120481   6.602   1.006   5.589  0.1894  1.0579 -0.1009
 5692SOL    HW220482   6.648   1.071   5.718  0.5123 -0.9282  0.7912
 5693SOL     OW20483   2.956   4.936   4.769  0.3570 -0.4187 -0.1738
 5693SOL    HW120484   3.025   4.900   4.712 -1.4313 -0.9385 -2.0600
 5693SOL    HW220485   2.912   5.001   4.714  0.9255  1.7350  1.8594
 5694SOL     OW20486   4.843   3.440   2.510  0.1285  0.4433 -0.3946
 5694SOL    HW120487   4.858   3.423   2.603 -2.0274 -0.5441 -0.1714
 5694SOL    HW220488   4.902   3.512   2.488  0.9635  0.4119  1.6290
 5695SOL     OW20489   5.667   1.460   4.884 -0.0622 -0.8404  0.1190
 5695SOL    HW120490   5.743   1.514   4.865  0.1962 -0.3196  2.4873
 5695SOL    HW220491   5.702   1.384   4.932 -0.9168 -0.9840  0.5444
 5696SOL     OW20492   3.627   5.172   7.890  0.0761 -0.4953  0.4071
 5696SOL    HW120493   3.633   5.179   7.985 -0.5064 -1.9634  0.5683
 5696SOL    HW220494   3.625   5.263   7.859 -1.7028  0.0077  1.9355
 5697SOL     OW20495   4.036   3.917   9.189 -0.1277  0.0335 -0.2277
 5697SOL    HW120496   4.117   3.933   9.140  0.3894 -1.9319 -0.0808
 5697SOL    HW220497   4.036   3.981   9.260 -0.6751  2.6555 -2.5178
 5698SOL     OW20498   9.470   0.893   4.949 -0.0225 -0.4540  0.1666
 5698SOL    HW120499   9.446   0.972   4.902  1.6725 -0.8484 -1.4153
 5698SOL    HW220500   9.401   0.830   4.928 -1.9505  0.8553  2.2743
 5699SOL     OW20501   6.869   4.840   0.880 -0.1669  0.2348  0.0106
 5699SOL    HW120502   6.962   4.841   0.860 -0.0998 -0.9614  0.2264
 5699SOL    HW220503   6.846   4.747   0.883 -1.5573  0.5299 -0.9412
 5700SOL     OW20504   1.740   2.977   1.064 -0.1132  0.4925 -0.4305
 5700SOL    HW120505   1.700   2.987   0.977 -0.3364  2.8201 -0.0796
 5700SOL    HW220506   1.678   3.018   1.124  1.3140  1.2862  0.5181
 5701SOL     OW20507   0.485   3.578   8.757  0.2920  0.6670 -0.2282
 5701SOL    HW120508   0.513   3.528   8.834 -1.8983 -0.7652 -0.3266
 5701SOL    HW220509   0.423   3.642   8.791 -0.6189  0.0870 -0.7891
 5702SOL     OW20510   5.677   7.935   7.636 -0.1950 -0.0466 -0.2019
 5702SOL    HW120511   5.732   7.857   7.640  1.7300  1.1957 -1.0331
 5702SOL    HW220512   5.684   7.974   7.723  1.6593  0.9992 -0.7926
 5703SOL     OW20513   1.276   0.543   1.896 -1.1340 -0.4154  0.1247
 5703SOL    HW120514   1.241   0.630   1.911 -2.2520 -1.2128  2.2724
 5703SOL    HW220515   1.203   0.484   1.914  0.2791 -1.9186  1.0601
 5704SOL     OW20516   5.599   5.694   4.579 -0.0407 -0.7706  0.3732
 5704SOL    HW120517   5.636   5.776   4.545  1.5868 -1.4750  0.3669
 5704SOL    HW220518   5.628   5.627   4.517 -0.3228 -1.5161  1.0316
 5705SOL     OW20519  10.768   8.885   9.484  0.5813 -0.4818  0.0960
 5705SOL    HW120520  10.790   8.792   9.488  3.1967  0.1539  0.7632
 5705SOL    HW220521  10.697   8.896   9.547  0.9691 -1.8268  0.7760
 5706SOL     OW20522   0.554   7.253   9.184 -0.4865  0.2541 -0.5382
 5706SOL    HW120523   0.580   7.343   9.166 -0.0679  0.3545  0.5120
 5706SOL    HW220524   0.492   7.231   9.114  2.1642  0.1009 -2.8864
 5707SOL     OW20525   9.784   5.108   3.860  0.2713 -0.4235 -0.3945
 5707SOL    HW120526   9.698   5.151   3.853  0.6866  0.4077 -0.5145
 5707SOL    HW220527   9.826   5.125   3.776  1.4881  1.2697  0.5118
 5708SOL     OW20528   8.778   8.582   4.750  0.0539 -0.0857 -0.1583
 5708SOL    HW120529   8.860   8.630   4.753  0.3142 -0.5361 -0.0321
 5708SOL    HW220530   8.791   8.508   4.810 -0.7445  0.3238  0.5280
 5709SOL     OW20531   9.224   8.358   4.289  0.5336 -0.0526 -0.0139
 5709SOL    HW120532   9.269   8.294   4.234  2.0394  1.3628 -0.4777
 5709SOL    HW220533   9.147   8.384   4.238 -0.3093 -1.7758  0.3585
 5710SOL     OW20534   4.984   0.165   0.778 -0.3571  0.1979 -0.5013
 5710SOL    HW120535   4.925   0.235   0.750  0.2635  0.5516 -0.9478
 5710SOL    HW220536   4.990   0.107   0.702 -0.5524 -0.1147 -0.2733
 5711SOL     OW20537   0.379   9.049   2.019 -0.3917  0.2797  0.0411
 5711SOL    HW120538   0.375   8.975   2.080 -0.2185  0.2774  0.0506
 5711SOL    HW220539   0.468   9.082   2.028 -0.4260  0.4011 -0.0683
 5712SOL     OW20540   1.507  10.394   2.897  0.1942  0.1287  0.0175
 5712SOL    HW120541   1.561  10.470   2.917  0.8806 -0.3246 -0.0972
 5712SOL    HW220542   1.555  10.320   2.935 -0.4070 -0.2631  0.0272
 5713SOL     OW20543   4.588   4.460   5.601  0.5803  0.3228 -0.1384
 5713SOL    HW120544   4.493   4.457   5.592  0.6401 -1.4171 -0.3329
 5713SOL    HW220545   4.616   4.521   5.532 -0.2812 -0.3123 -1.0777
 5714SOL     OW20546   2.256   4.359   2.405 -0.6138 -0.0655 -0.2845
 5714SOL    HW120547   2.324   4.357   2.472 -0.8590  0.6335 -0.0119
 5714SOL    HW220548   2.249   4.268   2.375  0.3646 -0.1589 -0.2444
 5715SOL     OW20549   1.381   4.042   0.995 -0.6091  0.2093  0.3469
 5715SOL    HW120550   1.350   4.114   0.941  2.0600  1.1894  0.0423
 5715SOL    HW220551   1.378   4.077   1.085  0.2209  0.5618  0.2468
 5716SOL     OW20552   9.146   7.811   7.809  0.6366  0.1594 -0.6077
 5716SOL    HW120553   9.099   7.819   7.726  0.7590  1.2576 -0.5836
 5716SOL    HW220554   9.198   7.731   7.800 -1.9114 -1.6146 -0.2950
 5717SOL     OW20555   9.639   8.385   6.885  0.3566 -0.0713 -0.4254
 5717SOL    HW120556   9.596   8.378   6.800  0.2553 -1.4640 -0.2737
 5717SOL    HW220557   9.729   8.411   6.865 -0.2548  1.8793 -0.8066
 5718SOL     OW20558   6.466  10.018   4.555  0.4130 -0.2052  0.4888
 5718SOL    HW120559   6.432  10.092   4.503 -1.4109 -0.2452  1.5891
 5718SOL    HW220560   6.560  10.016   4.535 -0.3331 -0.6190 -3.3186
 5719SOL     OW20561  10.918   2.458   0.785 -0.2257 -0.1081  0.5199
 5719SOL    HW120562  10.931   2.476   0.879 -2.2054 -1.9827  1.1849
 5719SOL    HW220563  11.006   2.461   0.748  0.4550  2.0448  2.1666
 5720SOL     OW20564   6.725   4.924   5.551  0.1973 -0.4364  0.2276
 5720SOL    HW120565   6.763   4.981   5.618 -0.0776 -0.9070  0.7832
 5720SOL    HW220566   6.777   4.844   5.554  0.5651 -0.2348 -0.5387
 5721SOL     OW20567  10.041   9.816   6.924 -0.0741 -0.2165 -0.0445
 5721SOL    HW120568   9.963   9.865   6.951 -0.0236 -0.4284  0.4797
 5721SOL    HW220569  10.104   9.883   6.898 -0.2878 -0.0320 -0.0851
 5722SOL     OW20570   1.122   2.068   0.304 -0.2881  0.5716  0.6936
 5722SOL    HW120571   1.041   2.117   0.296 -1.7470 -1.9288 -0.4770
 5722SOL    HW220572   1.115   2.026   0.390  0.0108  0.8063  0.8306
 5723SOL     OW20573   8.766   6.401   4.518  0.1505 -0.9036 -0.3387
 5723SOL    HW120574   8.773   6.496   4.526 -0.9181 -0.6636 -2.0060
 5723SOL    HW220575   8.852   6.373   4.486 -0.0669 -0.2866 -1.5041
 5724SOL     OW20576   7.133   4.299   7.191 -0.5494 -0.3544  0.7144
 5724SOL    HW120577   7.213   4.350   7.207 -0.9686  0.4136  0.4183
 5724SOL    HW220578   7.155   4.242   7.118 -0.8411  1.1562 -0.5620
 5725SOL     OW20579   8.479   8.073   0.998  0.1010 -0.3818  0.0532
 5725SOL    HW120580   8.571   8.069   0.972  0.2327  0.2711  0.3921
 5725SOL    HW220581   8.478   8.135   1.071 -0.9670  1.4909 -1.5068
 5726SOL     OW20582   7.140   4.858   0.242 -0.4835  0.1114 -0.0603
 5726SOL    HW120583   7.138   4.787   0.179  1.2316  0.8018 -0.9353
 5726SOL    HW220584   7.173   4.933   0.193  0.0254  0.8892  1.4166
 5727SOL     OW20585   3.394  10.395   4.566  0.1699  0.5910 -0.1131
 5727SOL    HW120586   3.427  10.426   4.650 -0.9237  0.0555  0.5201
 5727SOL    HW220587   3.341  10.318   4.587 -2.1846  1.8996 -0.9829
 5728SOL     OW20588   0.776   0.046   4.824 -0.4904  0.6048  0.6607
 5728SOL    HW120589   0.799  -0.045   4.803  1.7438  1.1814  0.4804
 5728SOL    HW220590   0.768   0.089   4.739  0.3963  1.0120  0.7723
 5729SOL     OW20591   2.938   9.360   7.307 -0.3752  0.0943  0.7036
 5729SOL    HW120592   2.947   9.324   7.219  0.6994 -0.2727  0.9595
 5729SOL    HW220593   2.843   9.366   7.321 -0.5582 -0.9740 -0.0174
 5730SOL     OW20594   7.400   4.550   5.543 -0.1463 -0.0695 -0.3081
 5730SOL    HW120595   7.482   4.554   5.492 -0.9663  0.1986 -1.6333
 5730SOL    HW220596   7.374   4.641   5.554  0.3311 -0.0990  1.1145
 5731SOL     OW20597   8.757   6.338   0.565 -0.1628 -0.2267 -0.1699
 5731SOL    HW120598   8.847   6.307   0.557 -0.0075 -0.1780  1.2926
 5731SOL    HW220599   8.764   6.433   0.572 -0.3664 -0.1812 -0.5492
 5732SOL     OW20600   0.536   4.742   7.516 -0.2418  0.7592 -0.1815
 5732SOL    HW120601   0.610   4.681   7.518 -0.4459  0.5101 -0.1485
 5732SOL    HW220602   0.556   4.805   7.585  0.1494  0.9392 -0.4604
 5733SOL     OW20603   0.561  10.646   8.207 -0.6176 -0.1703 -0.4363
 5733SOL    HW120604   0.638  10.686   8.248  0.6694 -1.1735 -1.8223
 5733SOL    HW220605   0.507  10.617   8.281  0.9368 -0.6114  0.5476
 5734SOL     OW20606   2.259   3.881  10.885 -0.2843 -0.4435  0.1524
 5734SOL    HW120607   2.178   3.928  10.904  1.2504  1.8122  1.4352
 5734SOL    HW220608   2.255   3.802  10.939 -1.9426 -0.7234 -0.3583
 5735SOL     OW20609   9.936   2.591   1.150 -0.3952  0.4919  0.0062
 5735SOL    HW120610  10.017   2.555   1.114  0.0850  0.8459  0.7250
 5735SOL    HW220611   9.915   2.534   1.223 -0.4940  0.7202  0.1570
 5736SOL     OW20612   3.186   0.678   9.385 -0.6465  0.4188  0.0755
 5736SOL    HW120613   3.231   0.599   9.355 -0.1484  1.2178 -1.3234
 5736SOL    HW220614   3.119   0.646   9.445 -0.8508 -1.1421 -0.9559
 5737SOL     OW20615   8.986   5.412   7.806 -0.1120  0.2957  0.0408
 5737SOL    HW120616   9.021   5.336   7.853 -1.1148 -0.8741 -1.1120
 5737SOL    HW220617   8.978   5.479   7.874 -0.9900 -1.2017  1.4565
 5738SOL     OW20618   6.657   8.136   1.581  0.4376 -0.3083  0.4367
 5738SOL    HW120619   6.664   8.204   1.514  1.2336  1.1585  1.9748
 5738SOL    HW220620   6.587   8.167   1.640 -1.1062 -2.1760 -0.3621
 5739SOL     OW20621   0.098   5.607   6.802 -0.1502 -0.5361  0.1946
 5739SOL    HW120622   0.031   5.543   6.778  0.0454 -0.1497 -1.4511
 5739SOL    HW220623   0.136   5.634   6.719  1.8904 -0.5726  1.0973
 5740SOL     OW20624   5.929   8.426   0.937 -0.0295 -0.2795  0.1912
 5740SOL    HW120625   5.920   8.513   0.976 -0.4555  0.0035 -0.5380
 5740SOL    HW220626   6.017   8.398   0.963  0.0540  0.2998  0.5609
 5741SOL     OW20627   8.251   2.107   3.872  0.1046 -0.0288  0.4174
 5741SOL    HW120628   8.176   2.132   3.926 -1.0293 -2.1594 -0.1234
 5741SOL    HW220629   8.306   2.054   3.931  1.0937  1.3265  0.7428
 5742SOL     OW20630   5.917   2.639   4.902 -0.3059 -0.1478 -0.0133
 5742SOL    HW120631   5.886   2.685   4.824  1.5286  1.7398  0.3124
 5742SOL    HW220632   5.894   2.697   4.975  0.9983 -0.2739  0.5094
 5743SOL     OW20633  10.379   1.500   8.410 -0.0519 -0.5286  0.1587
 5743SOL    HW120634  10.439   1.565   8.373 -0.0809 -0.1551  0.7467
 5743SOL    HW220635  10.304   1.552   8.440 -0.0553 -0.8248  0.6725
 5744SOL     OW20636   4.551   2.920   6.251  0.2774  0.4686  0.5398
 5744SOL    HW120637   4.500   2.881   6.180 -0.7412  2.2441  0.2957
 5744SOL    HW220638   4.559   2.849   6.315  1.9041 -1.4497 -1.6347
 5745SOL     OW20639   8.755  10.662   0.961  0.6594 -0.0635  0.5710
 5745SOL    HW120640   8.829  10.690   0.906  0.8444 -1.7589 -0.0777
 5745SOL    HW220641   8.795  10.618   1.035  0.3171 -3.1512 -0.9774
 5746SOL     OW20642   2.357   8.291   4.840  0.2951  0.5272  0.2722
 5746SOL    HW120643   2.382   8.367   4.893  0.6516  0.4776  0.1741
 5746SOL    HW220644   2.342   8.221   4.904 -1.1936  0.9896  0.4625
 5747SOL     OW20645   7.222   2.859   7.089  0.1235  0.6481 -0.3714
 5747SOL    HW120646   7.257   2.928   7.032  0.7164 -0.2775 -1.1469
 5747SOL    HW220647   7.265   2.779   7.058 -1.4113 -0.2436 -0.2290
 5748SOL     OW20648   0.237   4.234   0.090  0.0575  0.0905 -0.3265
 5748SOL    HW120649   0.173   4.254   0.022 -0.2946 -0.9520 -0.3173
 5748SOL    HW220650   0.258   4.318   0.130  0.0478  0.6715 -1.5354
 5749SOL     OW20651   3.437   1.838   1.003  0.4156  0.2704  0.4998
 5749SOL    HW120652   3.372   1.865   0.938 -0.1979  0.7857  1.3210
 5749SOL    HW220653   3.489   1.917   1.018  0.7112  0.0835  0.4651
 5750SOL     OW20654   9.544   6.629   4.749  0.1581 -0.0970  0.3926
 5750SOL    HW120655   9.507   6.683   4.819 -1.4065 -1.3536  0.5681
 5750SOL    HW220656   9.634   6.660   4.739 -0.3797  1.7648  1.2506
 5751SOL     OW20657   6.571   8.686   4.521  0.0393  0.5017  0.3733
 5751SOL    HW120658   6.526   8.627   4.461  0.8034 -0.8601  1.1170
 5751SOL    HW220659   6.566   8.772   4.479 -0.4906 -0.2171 -1.0484
 5752SOL     OW20660   2.283  10.378   0.636  0.4785 -0.1666  0.3791
 5752SOL    HW120661   2.311  10.432   0.562  1.7322 -2.0270 -0.5531
 5752SOL    HW220662   2.361  10.326   0.658 -0.4793 -1.0654  1.7152
 5753SOL     OW20663   0.460   3.423   4.638 -0.4261  0.2157  0.4185
 5753SOL    HW120664   0.439   3.514   4.659 -1.0605 -0.0275  0.8565
 5753SOL    HW220665   0.389   3.395   4.581 -0.1038  0.0639  0.0877
 5754SOL     OW20666   3.861   5.329   8.803  0.5187  0.3180 -0.2178
 5754SOL    HW120667   3.896   5.241   8.787 -0.2286 -0.2855  1.2847
 5754SOL    HW220668   3.809   5.348   8.725  1.5721 -0.1070 -1.0459
 5755SOL     OW20669   9.589   7.131   0.293 -0.1103 -0.3853  0.5897
 5755SOL    HW120670   9.648   7.185   0.241  0.2447 -1.6121 -0.3014
 5755SOL    HW220671   9.619   7.141   0.383  0.6112  0.0643  0.2940
 5756SOL     OW20672   4.240   2.274  10.394 -0.1790  0.0923 -0.2505
 5756SOL    HW120673   4.331   2.272  10.364 -0.2198 -0.2442 -0.3457
 5756SOL    HW220674   4.241   2.229  10.478  0.1806  2.2135  0.9279
 5757SOL     OW20675   7.498   6.866   2.214 -0.5088  0.6387 -0.5388
 5757SOL    HW120676   7.474   6.866   2.121  3.0029  3.9261 -1.6201
 5757SOL    HW220677   7.555   6.790   2.223 -1.3606 -0.0512 -0.9307
 5758SOL     OW20678   5.733   3.650   5.152 -0.1276  0.3476  0.1207
 5758SOL    HW120679   5.702   3.582   5.092  0.5358  0.5774 -0.4919
 5758SOL    HW220680   5.723   3.731   5.102 -2.5196  0.9185  1.4484
 5759SOL     OW20681  10.717   2.324   0.939  0.1937  0.1166  0.3358
 5759SOL    HW120682  10.770   2.330   0.859 -2.4364 -1.9342 -1.6593
 5759SOL    HW220683  10.741   2.240   0.977  0.8708  0.7386  1.2832
 5760SOL     OW20684   9.448   9.559   3.731 -0.0693 -0.0938  0.0177
 5760SOL    HW120685   9.477   9.516   3.651 -1.3080 -0.3808 -0.2786
 5760SOL    HW220686   9.525   9.609   3.760  0.4931 -0.2575 -1.1524
 5761SOL     OW20687   8.027   5.468  10.577 -0.1495  0.0878 -0.3644
 5761SOL    HW120688   8.078   5.434  10.504  1.0548  0.5376  0.2537
 5761SOL    HW220689   8.091   5.513  10.633 -1.3173  1.2242  0.0946
 5762SOL     OW20690   5.208  10.658  10.977 -0.3738 -0.2729  0.1484
 5762SOL    HW120691   5.261  10.734  11.001 -0.7431 -0.0827  0.3720
 5762SOL    HW220692   5.230  10.592  11.043 -1.3382  0.2245  0.9709
 5763SOL     OW20693   1.274   2.691   5.163 -0.2474 -0.5037  0.5537
 5763SOL    HW120694   1.313   2.743   5.234  0.0166 -1.4858  1.1372
 5763SOL    HW220695   1.193   2.656   5.202  0.5339 -2.0843  0.7958
 5764SOL     OW20696   9.593   9.398   3.529 -0.2280 -0.1279  0.6209
 5764SOL    HW120697   9.659   9.348   3.577  0.2056  0.4152  0.5897
 5764SOL    HW220698   9.583   9.350   3.446  0.8552  0.3504  0.2103
 5765SOL     OW20699   0.961   3.974  10.493  0.2184 -0.4299  0.5954
 5765SOL    HW120700   0.894   3.906  10.489  1.7063 -1.8845  0.1035
 5765SOL    HW220701   1.014   3.952  10.570 -0.0817  0.9518  1.2331
 5766SOL     OW20702   5.336  10.580   1.379 -0.1484  0.4122 -0.2388
 5766SOL    HW120703   5.268  10.539   1.433  1.1171 -2.3018 -0.5965
 5766SOL    HW220704   5.298  10.663   1.351 -2.1950  0.2517  1.9004
 5767SOL     OW20705   9.182  10.415   3.472  0.5060  0.1575 -0.0647
 5767SOL    HW120706   9.246  10.351   3.441  0.3590 -0.4934  0.9495
 5767SOL    HW220707   9.100  10.366   3.478 -0.1363  1.0140 -1.4912
 5768SOL     OW20708   4.602  10.048   8.861  0.4301  0.4053  0.5275
 5768SOL    HW120709   4.523  10.005   8.895  0.7013 -1.5376 -1.1907
 5768SOL    HW220710   4.648   9.979   8.813  1.5911  2.2867 -1.1413
 5769SOL     OW20711   8.330  10.307   8.359  0.3713 -0.1211  0.5648
 5769SOL    HW120712   8.252  10.364   8.356 -0.3821 -1.2090 -1.0825
 5769SOL    HW220713   8.333  10.277   8.450 -0.8194  0.3741  0.7849
 5770SOL     OW20714   9.556   5.721   2.160  0.1241  0.1580 -0.5309
 5770SOL    HW120715   9.606   5.645   2.191 -0.2576 -0.2179 -0.8397
 5770SOL    HW220716   9.526   5.764   2.241  1.8659  1.0215 -0.3056
 5771SOL     OW20717   6.082   8.696   1.895  0.3238  0.1028 -0.4232
 5771SOL    HW120718   6.125   8.760   1.952  1.5782 -1.4601  0.4148
 5771SOL    HW220719   6.058   8.624   1.953 -1.2712 -0.1066 -1.3140
 5772SOL     OW20720   5.409   9.428   3.400  0.6330 -0.3483  0.0965
 5772SOL    HW120721   5.318   9.442   3.424  0.3680  2.8317 -2.4864
 5772SOL    HW220722   5.459   9.464   3.474 -0.1720 -0.6433  0.7963
 5773SOL     OW20723   3.022   8.110   1.426  0.4267 -0.8485 -0.0936
 5773SOL    HW120724   3.062   8.064   1.500 -0.1615  2.3526  2.2931
 5773SOL    HW220725   2.935   8.134   1.458 -0.5327 -0.9948 -2.5097
 5774SOL     OW20726   3.328   1.671   7.386 -0.1001 -0.5849 -0.2364
 5774SOL    HW120727   3.420   1.661   7.409 -0.2027 -0.3606  0.2742
 5774SOL    HW220728   3.329   1.719   7.303  0.2388 -0.5309 -0.2008
 5775SOL     OW20729   0.761   7.674   4.439 -0.6189 -0.4969  0.0426
 5775SOL    HW120730   0.793   7.592   4.403 -1.6548  0.5530 -3.4741
 5775SOL    HW220731   0.800   7.678   4.527  2.4203 -2.9863 -1.0700
 5776SOL     OW20732   0.267   0.729   4.083  0.0708  0.0880  0.4274
 5776SOL    HW120733   0.241   0.757   3.995  1.2103  0.9155  0.3471
 5776SOL    HW220734   0.205   0.772   4.142  0.6926  1.3275  0.1819
 5777SOL     OW20735   0.483   7.381   3.953  0.4808  0.3024  0.4457
 5777SOL    HW120736   0.411   7.420   4.003 -1.2655  0.1416 -1.8278
 5777SOL    HW220737   0.462   7.288   3.949  0.5888  0.3126 -0.5454
 5778SOL     OW20738   4.664   6.205   8.775 -0.3993  0.0750 -0.4681
 5778SOL    HW120739   4.605   6.167   8.710 -1.2182 -1.9918  1.3844
 5778SOL    HW220740   4.643   6.158   8.856  1.7699  1.3675  0.8984
 5779SOL     OW20741   8.734   2.508  10.891  0.2649  0.3147 -0.0859
 5779SOL    HW120742   8.736   2.587  10.837  0.4108  0.3871  0.0252
 5779SOL    HW220743   8.757   2.538  10.979  0.5966  0.1064 -0.1010
 5780SOL     OW20744   5.777   6.279   1.170  0.0733  0.0671  0.2389
 5780SOL    HW120745   5.849   6.257   1.229  0.9613 -1.0638 -1.2014
 5780SOL    HW220746   5.721   6.201   1.172 -0.7507  0.6731  0.8291
 5781SOL     OW20747   1.031   2.233   8.162 -0.1558  0.0237  0.0339
 5781SOL    HW120748   0.954   2.244   8.217  0.0614 -0.8747  0.5208
 5781SOL    HW220749   1.094   2.188   8.217  0.0418 -0.9363 -0.9526
 5782SOL     OW20750   1.393   1.238   5.560 -0.3479  0.4964  0.1186
 5782SOL    HW120751   1.383   1.201   5.472  1.5498  0.3922 -0.0593
 5782SOL    HW220752   1.376   1.164   5.618  3.1147 -0.6326 -0.2359
 5783SOL     OW20753   0.414   9.816   5.023  0.2514  0.0003 -0.1504
 5783SOL    HW120754   0.459   9.900   5.021 -0.6363  0.4769 -0.6420
 5783SOL    HW220755   0.390   9.799   4.932  1.2132 -1.2312 -0.1934
 5784SOL     OW20756   8.196  10.067   3.882 -0.4672 -0.3518  0.2436
 5784SOL    HW120757   8.135  10.117   3.935  0.4853  1.1690 -0.0583
 5784SOL    HW220758   8.281  10.079   3.925 -0.5853 -3.8851  1.7067
 5785SOL     OW20759  10.456   7.800   7.324  0.3671 -0.4163  0.0214
 5785SOL    HW120760  10.383   7.859   7.343 -0.0842 -0.6521 -0.9693
 5785SOL    HW220761  10.530   7.859   7.310  0.8270 -0.2409  2.8682
 5786SOL     OW20762   3.417   4.963   2.121  0.0377 -0.3686  0.5022
 5786SOL    HW120763   3.340   5.016   2.102 -0.2908 -1.5509 -1.6163
 5786SOL    HW220764   3.384   4.874   2.130  0.8279 -0.5135  2.2531
 5787SOL     OW20765   7.344   9.213   7.487 -0.3264 -0.0339 -0.3941
 5787SOL    HW120766   7.439   9.227   7.486 -0.4149  0.5491 -0.9308
 5787SOL    HW220767   7.332   9.134   7.540  0.4621 -0.1417 -0.3703
 5788SOL     OW20768   8.897  10.008  10.822  0.2144  0.0667 -0.1548
 5788SOL    HW120769   8.955   9.941  10.785 -1.1090 -1.7847  1.0040
 5788SOL    HW220770   8.815   9.998  10.773 -0.4069 -0.0380  0.8936
 5789SOL     OW20771   7.108   2.730   4.398 -0.8965 -0.5758 -0.2622
 5789SOL    HW120772   7.036   2.674   4.425 -0.6180 -0.9340 -0.2600
 5789SOL    HW220773   7.160   2.743   4.478 -1.0769 -0.1424 -0.2147
 5790SOL     OW20774   6.443   0.250   8.117  0.3455  0.0479  0.4120
 5790SOL    HW120775   6.351   0.229   8.103  0.5239  0.3745 -1.3253
 5790SOL    HW220776   6.468   0.199   8.194 -1.3956  0.2994  1.1698
 5791SOL     OW20777  10.524   0.517   3.744 -0.4170 -0.3314 -0.0181
 5791SOL    HW120778  10.491   0.443   3.796  0.8195  0.6523  2.2208
 5791SOL    HW220779  10.602   0.546   3.791 -0.3776  1.8402 -1.3795
 5792SOL     OW20780   6.524   9.180   2.456 -0.0616 -0.1432  0.3424
 5792SOL    HW120781   6.502   9.134   2.376 -2.2357  0.4570  0.5777
 5792SOL    HW220782   6.619   9.169   2.465  0.0514 -0.9912 -1.8015
 5793SOL     OW20783   9.272   1.129   2.209  0.5328 -0.2240  0.6378
 5793SOL    HW120784   9.207   1.165   2.148  1.4620 -0.3743 -0.4458
 5793SOL    HW220785   9.338   1.090   2.153  1.8776  0.4553  1.7323
 5794SOL     OW20786  10.642   2.600  10.366 -0.0456  0.3520 -0.2587
 5794SOL    HW120787  10.685   2.636  10.289 -0.5466  0.8424 -0.3150
 5794SOL    HW220788  10.705   2.610  10.437 -0.0629  1.0414 -0.3426
 5795SOL     OW20789   1.530   8.654   0.511  0.0338 -0.4151  0.3530
 5795SOL    HW120790   1.481   8.653   0.429  0.3781  1.5280  0.0912
 5795SOL    HW220791   1.466   8.630   0.578 -0.9643  0.8032 -0.1406
 5796SOL     OW20792   8.753   6.359   2.831 -0.0825  0.1599  0.1430
 5796SOL    HW120793   8.742   6.368   2.925  0.3948 -0.2744  0.2439
 5796SOL    HW220794   8.833   6.407   2.811  0.4004 -0.6408  0.1249
 5797SOL     OW20795   1.594   5.198   7.367  0.2308 -0.7670 -0.1218
 5797SOL    HW120796   1.620   5.254   7.294  0.4757 -0.7824 -0.0470
 5797SOL    HW220797   1.538   5.131   7.328 -0.4987 -0.1600 -0.1298
 5798SOL     OW20798   3.083   6.725   7.669 -0.4195 -0.1386 -0.2861
 5798SOL    HW120799   3.168   6.767   7.680 -0.1283 -1.1179  1.4040
 5798SOL    HW220800   3.095   6.664   7.596  0.6856 -1.1201  0.6858
 5799SOL     OW20801   4.961   6.146  10.164 -0.3764 -0.0876 -0.3560
 5799SOL    HW120802   4.977   6.146  10.258 -0.0250 -2.8225 -0.3802
 5799SOL    HW220803   4.987   6.059  10.135 -1.3622  0.4024 -2.8567
 5800SOL     OW20804   1.342   7.276   7.852 -0.1340 -0.5067  0.5124
 5800SOL    HW120805   1.290   7.337   7.905 -0.5700  0.3891 -0.9239
 5800SOL    HW220806   1.302   7.279   7.765 -0.0101 -2.6674  0.3397
 5801SOL     OW20807   6.705   0.552   1.749  0.1963  0.4701  0.2249
 5801SOL    HW120808   6.737   0.469   1.782  0.0911  0.4312  0.2305
 5801SOL    HW220809   6.637   0.528   1.686  1.0498  0.5155 -0.7283
 5802SOL     OW20810   3.395   1.050   6.488 -0.4557  0.5305 -0.1072
 5802SOL    HW120811   3.341   0.985   6.443  0.4070 -0.5219  0.3456
 5802SOL    HW220812   3.465   0.999   6.529 -0.3852  1.6236  1.1875
 5803SOL     OW20813   1.242   1.380  10.050  0.2140  1.1090  0.1578
 5803SOL    HW120814   1.263   1.287  10.051 -0.7524  0.9016  0.8044
 5803SOL    HW220815   1.316   1.422  10.095  0.0181  0.5329  1.0139
 5804SOL     OW20816   3.575   8.086   0.315  0.2492  0.5727  0.1705
 5804SOL    HW120817   3.549   7.998   0.290 -0.2650  0.0442  2.4233
 5804SOL    HW220818   3.643   8.110   0.252 -2.0278 -0.0332 -2.6379
 5805SOL     OW20819   2.787   3.249   3.654 -0.2025 -0.3113 -0.0916
 5805SOL    HW120820   2.782   3.283   3.564 -2.1896 -0.6544 -0.1311
 5805SOL    HW220821   2.784   3.154   3.643 -0.8441 -0.3447  0.3516
 5806SOL     OW20822   9.436   9.145   9.129 -0.0314 -0.1961 -0.4691
 5806SOL    HW120823   9.445   9.088   9.205  1.3800 -0.4954 -0.8427
 5806SOL    HW220824   9.371   9.210   9.156  0.5789 -0.1866  1.0750
 5807SOL     OW20825   3.121   8.438   4.203  0.5006 -0.2129  0.0137
 5807SOL    HW120826   3.135   8.351   4.166  0.3770  0.1852 -0.9815
 5807SOL    HW220827   3.038   8.431   4.250 -0.4812 -0.0976 -1.7072
 5808SOL     OW20828   7.089   3.432   3.316  0.8053 -0.0042  0.8417
 5808SOL    HW120829   7.083   3.358   3.376  1.1391  0.1487  1.0691
 5808SOL    HW220830   7.040   3.502   3.358 -2.5163 -1.1262 -1.0041
 5809SOL     OW20831  10.334   4.072   7.440 -0.2109 -0.1302 -0.1532
 5809SOL    HW120832  10.398   4.034   7.381  0.1817  0.5910 -0.2059
 5809SOL    HW220833  10.295   3.998   7.485  1.6772 -0.5090  0.9198
 5810SOL     OW20834   9.649   3.768   9.210 -1.1030 -0.3341  0.4251
 5810SOL    HW120835   9.588   3.701   9.241 -0.2996 -0.3186  2.0896
 5810SOL    HW220836   9.713   3.721   9.157 -2.5716 -0.3428 -1.4016
 5811SOL     OW20837   1.376   5.203   6.282  0.2745 -0.0669 -0.2641
 5811SOL    HW120838   1.435   5.260   6.331  1.5821  0.4862 -2.4197
 5811SOL    HW220839   1.416   5.116   6.287  1.5846  0.3919 -2.1110
 5812SOL     OW20840   8.695   5.469   9.314 -0.3492  0.2772 -0.6337
 5812SOL    HW120841   8.620   5.411   9.322 -0.8184  0.8536 -0.8425
 5812SOL    HW220842   8.705   5.508   9.401 -1.5033  1.6883 -1.1266
 5813SOL     OW20843   6.598   3.397   7.113 -0.1443 -0.2589 -0.3570
 5813SOL    HW120844   6.512   3.419   7.150 -0.2877 -1.0808 -0.1794
 5813SOL    HW220845   6.654   3.471   7.136 -1.2170  1.0964 -1.9513
 5814SOL     OW20846   4.228   0.341   5.683 -0.3949  0.1308  0.2191
 5814SOL    HW120847   4.213   0.383   5.768 -0.0004  0.6158  0.0495
 5814SOL    HW220848   4.315   0.302   5.691 -0.7152 -0.5589  0.3367
 5815SOL     OW20849   7.080   6.833  10.669 -0.0238  0.4887 -0.4910
 5815SOL    HW120850   7.000   6.886  10.671 -0.1913  0.2281  1.4790
 5815SOL    HW220851   7.144   6.885  10.717  1.0989  0.8317 -2.3314
 5816SOL     OW20852   3.796   4.958   5.956  0.1700 -0.4069 -0.0888
 5816SOL    HW120853   3.766   4.966   5.866  0.5567 -0.3625 -0.2136
 5816SOL    HW220854   3.741   4.890   5.994 -0.0913 -0.3238 -0.3170
 5817SOL     OW20855   0.018   3.333   2.206  0.2180 -0.3998  0.2381
 5817SOL    HW120856   0.082   3.400   2.181 -0.7687  0.6450  0.4803
 5817SOL    HW220857  -0.041   3.327   2.131 -0.0599 -0.5665  0.4708
 5818SOL     OW20858  10.894   6.733   7.046 -0.1913  0.3404  0.3072
 5818SOL    HW120859  10.946   6.812   7.063 -0.4985  0.5205  0.4295
 5818SOL    HW220860  10.811   6.750   7.090 -0.6926  0.4526 -0.6676
 5819SOL     OW20861   2.108   6.316   6.904 -0.0060  0.2776  0.5748
 5819SOL    HW120862   2.177   6.381   6.919  2.0235 -1.1210 -2.1893
 5819SOL    HW220863   2.045   6.362   6.847  1.1296  0.0548 -0.8953
 5820SOL     OW20864   6.584   1.234  10.848 -0.9400  0.1420 -0.2416
 5820SOL    HW120865   6.529   1.219  10.771 -2.3712 -0.6240  0.8864
 5820SOL    HW220866   6.656   1.288  10.817 -2.1968  0.9251 -1.8311
 5821SOL     OW20867   9.348   0.257   1.883 -0.1405  0.2667  0.9798
 5821SOL    HW120868   9.258   0.286   1.876 -0.4207 -0.8691 -0.4370
 5821SOL    HW220869   9.353   0.179   1.827  1.6409  0.1430  1.2579
 5822SOL     OW20870   3.224   4.926   2.453 -0.2649  0.4202 -0.4168
 5822SOL    HW120871   3.201   4.934   2.545 -1.6633 -2.8821 -0.4325
 5822SOL    HW220872   3.303   4.872   2.452  0.0158  0.8323 -1.1366
 5823SOL     OW20873   0.537   8.593   6.747  0.8927  0.5526  0.5560
 5823SOL    HW120874   0.516   8.576   6.839 -1.5500  0.4227  0.0062
 5823SOL    HW220875   0.485   8.670   6.724 -1.4903 -1.6261 -1.7289
 5824SOL     OW20876   3.560   3.628   5.303 -0.2051  0.3387 -0.1073
 5824SOL    HW120877   3.480   3.592   5.342 -0.2566 -1.0652 -1.4646
 5824SOL    HW220878   3.528   3.684   5.232  0.0760 -3.1079 -3.0397
 5825SOL     OW20879   5.196   1.408   5.243  0.5030 -0.4442 -0.3429
 5825SOL    HW120880   5.141   1.479   5.279  1.5069 -0.1321  0.5985
 5825SOL    HW220881   5.133   1.347   5.204 -0.6206 -0.7198  1.8295
 5826SOL     OW20882   7.980   5.813   5.210 -0.0558 -0.4482  0.1023
 5826SOL    HW120883   7.898   5.858   5.192 -0.0171  1.0269  3.3405
 5826SOL    HW220884   8.041   5.845   5.144 -1.5741 -0.1594 -1.1723
 5827SOL     OW20885   3.653   6.557   1.132 -0.1522 -0.1890  0.2242
 5827SOL    HW120886   3.644   6.652   1.143  1.4632  0.0725 -0.4923
 5827SOL    HW220887   3.632   6.521   1.218  0.0959  0.8921  0.7449
 5828SOL     OW20888   8.318   5.836   0.690 -0.4545 -0.4603  0.2819
 5828SOL    HW120889   8.305   5.850   0.596  1.5488 -1.4014 -0.1692
 5828SOL    HW220890   8.320   5.924   0.727 -3.6179 -0.1424 -0.1785
 5829SOL     OW20891   7.402   2.014   9.472 -0.0368 -0.0634 -0.0438
 5829SOL    HW120892   7.366   2.096   9.507  1.3491  0.1619  0.8975
 5829SOL    HW220893   7.497   2.027   9.473  0.2967 -2.3871  1.8605
 5830SOL     OW20894   9.751   8.845  10.338  0.9799  0.1244 -0.2793
 5830SOL    HW120895   9.821   8.834  10.274  0.5427 -0.9076 -0.5743
 5830SOL    HW220896   9.683   8.894  10.291  0.4340 -1.0992 -0.7721
 5831SOL     OW20897   7.838   3.503   9.045 -0.0912  0.3796  0.0869
 5831SOL    HW120898   7.875   3.586   9.074 -2.2493  0.7023  2.0858
 5831SOL    HW220899   7.889   3.436   9.091  0.4302  0.6834 -0.0580
 5832SOL     OW20900   4.705   3.574   9.177 -0.1719  0.3594 -0.0919
 5832SOL    HW120901   4.677   3.556   9.267  0.8948 -2.2880 -0.2617
 5832SOL    HW220902   4.627   3.559   9.124 -0.2680 -0.1017  0.1792
 5833SOL     OW20903   4.131   8.056   4.767  0.4471  0.3814  0.1897
 5833SOL    HW120904   4.173   8.101   4.694 -0.3832  2.9063  1.1855
 5833SOL    HW220905   4.186   8.077   4.842 -0.2004  0.1141  0.7455
 5834SOL     OW20906   7.833   0.498   2.272 -0.2571  0.1952  0.7719
 5834SOL    HW120907   7.786   0.573   2.235  1.5716  0.0837 -1.9765
 5834SOL    HW220908   7.913   0.535   2.309  0.0629 -0.2484  0.5288
 5835SOL     OW20909   5.424   2.579   7.446 -0.7123 -0.5348  0.1196
 5835SOL    HW120910   5.347   2.542   7.402 -0.3942 -1.1195  0.0540
 5835SOL    HW220911   5.433   2.527   7.526 -0.8502  0.0464  0.5190
 5836SOL     OW20912   9.212   6.981   9.254 -0.2324 -0.5667  0.0425
 5836SOL    HW120913   9.143   6.915   9.251 -2.4960  1.7574  0.0864
 5836SOL    HW220914   9.254   6.967   9.340 -1.0534 -1.5594  0.2915
 5837SOL     OW20915   0.743   7.962   8.780 -0.0008  0.9709  0.3417
 5837SOL    HW120916   0.769   8.045   8.821 -0.2696  1.2049  0.0403
 5837SOL    HW220917   0.812   7.901   8.805  0.2403  1.3036  0.5042
 5838SOL     OW20918   5.197   8.753   7.083 -0.2229 -0.1405  0.2567
 5838SOL    HW120919   5.134   8.726   7.149  1.1224  0.8921  2.0043
 5838SOL    HW220920   5.221   8.672   7.038 -2.6134 -0.5723 -0.3242
 5839SOL     OW20921  10.036   8.487   9.242 -1.1946 -0.2548 -0.6279
 5839SOL    HW120922   9.971   8.531   9.297 -0.3037 -1.1260  1.1978
 5839SOL    HW220923  10.055   8.405   9.289  1.5751  0.2079 -0.8331
 5840SOL     OW20924   0.436   8.413   0.122  0.3614  0.0894 -0.1128
 5840SOL    HW120925   0.470   8.502   0.118  1.6475 -0.4182 -0.7620
 5840SOL    HW220926   0.513   8.357   0.109 -0.5218 -1.1081 -0.3091
 5841SOL     OW20927   5.777   9.622   8.640 -0.4807 -0.3846 -0.7385
 5841SOL    HW120928   5.762   9.655   8.551 -1.3822  2.1525  0.3200
 5841SOL    HW220929   5.863   9.657   8.664  1.3196 -3.8430 -1.8031
 5842SOL     OW20930   3.416   8.113   7.633 -0.6716 -0.0747  0.0750
 5842SOL    HW120931   3.488   8.136   7.691  1.1132 -0.9953 -1.7177
 5842SOL    HW220932   3.359   8.190   7.633  0.0453  0.4685  1.8845
 5843SOL     OW20933   4.616   2.050   0.457 -0.0170 -0.3827 -0.0594
 5843SOL    HW120934   4.547   2.084   0.514 -0.1390 -0.3461 -0.2297
 5843SOL    HW220935   4.644   2.125   0.405  1.4854  0.0609  1.3383
 5844SOL     OW20936   9.221   1.448   2.769  0.3433  0.0862 -0.4620
 5844SOL    HW120937   9.215   1.372   2.711  0.8832 -1.3961  1.3972
 5844SOL    HW220938   9.136   1.454   2.811  1.0433 -0.8929  1.1146
 5845SOL     OW20939   7.775   6.650   9.834  0.1351 -0.1783  0.1704
 5845SOL    HW120940   7.788   6.686   9.746 -0.1255  0.7403  0.5033
 5845SOL    HW220941   7.843   6.691   9.887  0.7349 -1.2671  0.2527
 5846SOL     OW20942   8.011   1.608   3.333 -0.5453 -0.0212 -0.2896
 5846SOL    HW120943   8.091   1.556   3.332 -1.0440 -0.7577 -2.4293
 5846SOL    HW220944   8.039   1.696   3.309 -0.0670  0.2305  1.1090
 5847SOL     OW20945   7.607   0.890   1.125  0.3763  0.2339  0.4971
 5847SOL    HW120946   7.567   0.974   1.103 -0.0835 -0.3029 -0.7523
 5847SOL    HW220947   7.571   0.869   1.211 -1.8718 -0.1220 -0.4874
 5848SOL     OW20948   9.143   7.150   2.848  0.2537 -0.2836 -0.2211
 5848SOL    HW120949   9.172   7.199   2.772  1.0510 -1.8621 -0.9664
 5848SOL    HW220950   9.220   7.101   2.876  0.3628  1.3160  2.4645
 5849SOL     OW20951   9.977   8.309   2.214 -0.8418 -0.1155 -0.1695
 5849SOL    HW120952  10.051   8.247   2.211 -1.2245 -0.5997  0.2978
 5849SOL    HW220953   9.904   8.261   2.175 -1.1405  0.0467  0.1903
 5850SOL     OW20954   0.037   8.993   1.130 -1.1431 -0.4258 -0.9873
 5850SOL    HW120955  -0.018   8.976   1.206 -1.4499  2.3882 -0.5206
 5850SOL    HW220956   0.104   9.053   1.162  0.0052 -0.9100 -2.4420
 5851SOL     OW20957   3.316   6.423   5.829  0.0566 -0.1422 -0.1665
 5851SOL    HW120958   3.393   6.442   5.776 -0.2815  0.0089 -0.6085
 5851SOL    HW220959   3.260   6.500   5.818  1.0158  0.9537  2.3206
 5852SOL     OW20960   7.859  10.232   9.579 -1.2128  0.1029 -0.3626
 5852SOL    HW120961   7.769  10.225   9.547 -1.1048  0.2295 -0.6920
 5852SOL    HW220962   7.889  10.318   9.549 -0.6560 -0.3338 -1.0727
 5853SOL     OW20963   8.566   8.278   2.004 -0.1461 -0.3410  0.4252
 5853SOL    HW120964   8.648   8.253   2.047  1.5458  1.8080 -1.3970
 5853SOL    HW220965   8.570   8.235   1.918 -0.4273  0.6261 -0.0795
 5854SOL     OW20966   0.904   0.533   7.181 -0.2230  0.0743 -0.3271
 5854SOL    HW120967   0.968   0.491   7.238 -0.0347 -1.0334 -1.3292
 5854SOL    HW220968   0.906   0.481   7.100 -1.7006  0.5871 -0.7113
 5855SOL     OW20969   9.586   9.805   8.912 -0.0516 -0.5790  0.5078
 5855SOL    HW120970   9.524   9.813   8.840 -1.6634 -0.4870  1.8636
 5855SOL    HW220971   9.629   9.890   8.916 -1.1370 -0.0238  0.6866
 5856SOL     OW20972   9.885  10.158   4.572 -0.2529 -0.1571  0.7659
 5856SOL    HW120973   9.853  10.161   4.482 -0.0650 -0.5114  0.6900
 5856SOL    HW220974   9.809  10.129   4.623 -0.5295  0.6058  0.8033
 5857SOL     OW20975   4.689   2.218   6.723 -0.1174  0.6658 -0.4456
 5857SOL    HW120976   4.711   2.304   6.689  0.0981  0.6517 -0.3395
 5857SOL    HW220977   4.749   2.204   6.797 -0.1853  0.4481 -0.4301
 5858SOL     OW20978   7.857   2.650   3.062  0.6428 -0.1430 -0.6153
 5858SOL    HW120979   7.790   2.586   3.089  1.7262 -1.3329 -0.6915
 5858SOL    HW220980   7.848   2.654   2.966  0.8327 -0.4744 -0.6474
 5859SOL     OW20981  10.344   5.771   9.588 -0.1323  0.0209  0.4912
 5859SOL    HW120982  10.337   5.688   9.541  3.3420 -0.2313  0.2661
 5859SOL    HW220983  10.381   5.748   9.673  3.0322  1.4783 -0.3990
 5860SOL     OW20984   4.814   4.270  10.354  0.1167  0.0200 -0.7218
 5860SOL    HW120985   4.759   4.237  10.283 -0.4073 -0.8239  0.0696
 5860SOL    HW220986   4.756   4.325  10.407  0.5401  0.7657 -1.0154
 5861SOL     OW20987   2.350   6.993   2.340 -0.1528  0.6528  0.4137
 5861SOL    HW120988   2.402   6.921   2.306 -0.1437  2.1714 -3.0882
 5861SOL    HW220989   2.407   7.039   2.400  0.8713 -0.5155  0.3387
 5862SOL     OW20990   9.583   7.577   8.320 -0.3919 -1.0755 -0.5589
 5862SOL    HW120991   9.523   7.531   8.379 -1.0133  0.3328 -0.0677
 5862SOL    HW220992   9.530   7.646   8.282  0.8030 -0.1033 -0.4726
 5863SOL     OW20993   2.298  10.613   4.730  0.7511  0.3199 -0.3351
 5863SOL    HW120994   2.298  10.573   4.817 -1.0658  0.3819 -0.2848
 5863SOL    HW220995   2.274  10.704   4.745 -5.0118 -0.8422 -1.2994
 5864SOL     OW20996   7.297   9.127   1.468 -0.7829 -0.0138  0.4108
 5864SOL    HW120997   7.207   9.140   1.438 -0.6629 -1.5642 -0.6537
 5864SOL    HW220998   7.332   9.058   1.412  0.7432 -0.1671  1.5083
 5865SOL     OW20999   4.526   8.985   6.058 -0.1852 -0.1361  0.0819
 5865SOL    HW121000   4.497   9.076   6.052  1.1191  0.1800 -1.8200
 5865SOL    HW221001   4.607   8.988   6.108 -0.5745 -0.3657  0.7343
 5866SOL     OW21002   4.456  10.644   4.230 -0.1996  0.6509  0.7546
 5866SOL    HW121003   4.385  10.674   4.173 -0.4148 -0.3707  0.4794
 5866SOL    HW221004   4.497  10.572   4.182 -1.1921 -1.0764  2.4081
 5867SOL     OW21005   6.960  10.296   8.160 -0.0062 -0.2735  0.6246
 5867SOL    HW121006   7.010  10.360   8.212  1.2143  0.2035 -1.0768
 5867SOL    HW221007   7.027  10.236   8.127 -0.9647 -1.4725  0.8569
 5868SOL     OW21008   7.479   9.272   4.153  0.4640  0.3863 -0.0599
 5868SOL    HW121009   7.390   9.279   4.118  0.5284 -0.9851 -0.5607
 5868SOL    HW221010   7.503   9.361   4.177 -1.4719  0.6086  1.1269
 5869SOL     OW21011   1.427   5.225   6.018  0.0863  0.5318 -0.2290
 5869SOL    HW121012   1.453   5.210   6.109  1.3921  1.2726 -0.4604
 5869SOL    HW221013   1.498   5.186   5.966  0.0748  1.3875 -0.8984
 5870SOL     OW21014   7.285   6.217   6.110 -0.1085  0.3863 -0.0374
 5870SOL    HW121015   7.309   6.262   6.192  0.7622 -0.8067  0.3697
 5870SOL    HW221016   7.322   6.129   6.119 -2.1019 -0.5413 -0.6827
 5871SOL     OW21017   5.889   3.989   0.205 -0.7505  0.0188 -0.8800
 5871SOL    HW121018   5.948   3.916   0.187 -0.8350 -0.2424 -0.0883
 5871SOL    HW221019   5.803   3.949   0.216 -0.9315  0.3155 -1.2052
 5872SOL     OW21020   0.789   3.371   1.877 -0.1474 -0.1124  0.0688
 5872SOL    HW121021   0.833   3.398   1.797 -0.1961  0.5776  0.2681
 5872SOL    HW221022   0.845   3.303   1.914 -0.2142 -0.5537 -0.6371
 5873SOL     OW21023   8.317   4.068   7.881 -0.0805 -0.3181  0.1838
 5873SOL    HW121024   8.287   4.095   7.968 -2.5384 -1.7126 -0.1930
 5873SOL    HW221025   8.323   3.972   7.886 -0.0912 -0.3998 -1.1366
 5874SOL     OW21026   7.328   0.652   1.366  0.3329 -0.5118 -0.7331
 5874SOL    HW121027   7.265   0.688   1.304  0.4457  1.8944  0.5077
 5874SOL    HW221028   7.284   0.574   1.402 -0.2620 -1.1758 -2.8140
 5875SOL     OW21029   1.532   3.882   9.875  0.0524  0.1549 -0.1426
 5875SOL    HW121030   1.475   3.867   9.951  0.6946 -1.5318  0.0094
 5875SOL    HW221031   1.552   3.795   9.842 -0.2960  0.8807 -2.3433
 5876SOL     OW21032   2.774   2.466   7.196  0.3232 -0.2269  0.2699
 5876SOL    HW121033   2.728   2.521   7.132 -0.8637 -0.0717  1.2412
 5876SOL    HW221034   2.858   2.510   7.209  0.3182  0.0925 -0.6894
 5877SOL     OW21035   3.937   4.067   7.391 -0.0515 -0.1337  0.2849
 5877SOL    HW121036   3.897   4.037   7.473  0.0435  0.3238  0.5020
 5877SOL    HW221037   4.019   4.020   7.385  0.9926  1.4575  1.5782
 5878SOL     OW21038   6.294   4.770   4.150 -0.2433 -0.4490 -0.6490
 5878SOL    HW121039   6.201   4.760   4.170 -0.4837  3.2573  0.6108
 5878SOL    HW221040   6.338   4.763   4.235  0.4518 -0.5971 -1.0163
 5879SOL     OW21041   4.512   1.486   0.622 -0.3664 -0.4327  0.5766
 5879SOL    HW121042   4.420   1.478   0.596 -0.0207 -0.2078 -0.7330
 5879SOL    HW221043   4.523   1.420   0.691 -1.9804  0.8145  2.0722
 5880SOL     OW21044   2.487   6.055   1.821 -0.2195 -0.4287  0.5111
 5880SOL    HW121045   2.449   6.096   1.898 -0.1769 -0.2202  0.4212
 5880SOL    HW221046   2.426   6.075   1.750  0.0225 -0.1469  0.3802
 5881SOL     OW21047   5.536   1.896   4.937 -0.7974 -0.1236 -0.7550
 5881SOL    HW121048   5.592   1.945   4.998  1.0952 -2.7554 -0.2688
 5881SOL    HW221049   5.492   1.831   4.992 -0.3410 -1.4444 -1.9287
 5882SOL     OW21050   0.210   1.745   6.643  0.1038 -0.0570 -0.1340
 5882SOL    HW121051   0.200   1.827   6.690 -1.5365 -1.1678  1.5395
 5882SOL    HW221052   0.279   1.762   6.578 -0.9814  2.9389 -0.5755
 5883SOL     OW21053  10.959   1.455   7.832 -0.1659  0.1968  0.6141
 5883SOL    HW121054  10.943   1.428   7.923  0.5305 -1.7349  0.1895
 5883SOL    HW221055  10.993   1.544   7.839  1.0157 -0.3659  2.3437
 5884SOL     OW21056   0.632   3.947   6.701 -0.3645 -0.0887 -0.2117
 5884SOL    HW121057   0.544   3.927   6.730 -1.3780  2.3136 -1.4828
 5884SOL    HW221058   0.660   4.021   6.755  0.6016 -0.3607 -0.3147
 5885SOL     OW21059   2.609   4.131   8.338 -0.1664  0.2535 -0.2048
 5885SOL    HW121060   2.660   4.212   8.348  1.1057 -0.9228  3.3472
 5885SOL    HW221061   2.548   4.131   8.412 -0.9697 -1.5051 -0.8248
 5886SOL     OW21062   3.320   7.559   6.012 -0.0565 -0.1503  0.4473
 5886SOL    HW121063   3.408   7.560   5.974  0.2574 -2.4559  1.0727
 5886SOL    HW221064   3.336   7.568   6.106 -0.4457 -1.3931  0.6306
 5887SOL     OW21065   9.631   0.714   4.134  0.0829  0.4126 -0.8866
 5887SOL    HW121066   9.689   0.644   4.164 -0.3964  0.8313  1.0514
 5887SOL    HW221067   9.687   0.767   4.076  0.8021 -0.8228 -1.3550
 5888SOL     OW21068   0.707   2.973   0.650 -0.9324 -0.2927  0.3078
 5888SOL    HW121069   0.705   3.000   0.559 -0.5818 -0.2163  0.3247
 5888SOL    HW221070   0.799   2.975   0.675 -1.1536  0.9837  1.0499
 5889SOL     OW21071   1.171   2.229   3.212 -0.3857  0.1488  0.1410
 5889SOL    HW121072   1.155   2.136   3.233 -1.8640  0.9442  2.8712
 5889SOL    HW221073   1.084   2.265   3.196  0.0949  1.2895  0.0437
 5890SOL     OW21074  10.694   6.081   6.877  0.1074  0.3395 -0.8917
 5890SOL    HW121075  10.719   6.160   6.924  0.6679  0.3824 -1.2595
 5890SOL    HW221076  10.635   6.035   6.937 -0.6860  1.3159 -0.9128
 5891SOL     OW21077   4.256   4.362   0.176 -0.3825 -0.5103  0.2283
 5891SOL    HW121078   4.351   4.359   0.174 -0.4422 -2.8183 -1.2413
 5891SOL    HW221079   4.232   4.328   0.263  0.1229 -1.9591 -0.1776
 5892SOL     OW21080   1.683   1.950  10.126 -0.0651 -0.6626  0.1083
 5892SOL    HW121081   1.728   1.973  10.044  1.1613  1.4887  1.3538
 5892SOL    HW221082   1.616   2.017  10.137  1.0121  0.1643  1.8150
 5893SOL     OW21083   6.282   0.788   4.373 -0.7460 -0.1268  0.0717
 5893SOL    HW121084   6.376   0.785   4.392 -0.7471  0.6564  0.1918
 5893SOL    HW221085   6.276   0.765   4.281 -0.5240 -1.2608  0.3324
 5894SOL     OW21086   5.377   4.157   0.772  0.3493 -0.2061  0.5575
 5894SOL    HW121087   5.293   4.112   0.786  0.8168 -0.9666  0.9504
 5894SOL    HW221088   5.353   4.239   0.728 -0.4132 -1.3797 -1.2821
 5895SOL     OW21089  10.154   1.811   1.165  0.2850  0.2695  0.4019
 5895SOL    HW121090  10.111   1.779   1.245  1.2244  0.5383  1.0182
 5895SOL    HW221091  10.180   1.731   1.119  2.9555  0.0982  2.1251
 5896SOL     OW21092   6.079   5.349   9.313  0.0616  0.7638 -0.2349
 5896SOL    HW121093   6.098   5.440   9.337 -1.2544  1.2955 -1.1030
 5896SOL    HW221094   5.998   5.329   9.359  0.2587  0.0816 -0.1860
 5897SOL     OW21095   0.214   2.127   8.561  0.1825  0.1695 -0.0034
 5897SOL    HW121096   0.290   2.185   8.552  0.9900 -0.9886 -0.9387
 5897SOL    HW221097   0.252   2.044   8.591 -0.6135 -0.6589 -1.2417
 5898SOL     OW21098   0.062   4.294   5.680  0.8133  0.4334  0.0197
 5898SOL    HW121099   0.118   4.265   5.608  1.1834  0.4110  0.3138
 5898SOL    HW221100   0.098   4.379   5.705  0.2205  0.7892 -0.3145
 5899SOL     OW21101   7.990   7.587   4.183  0.3861 -0.3071 -0.3577
 5899SOL    HW121102   8.071   7.571   4.135 -0.0478 -1.0588 -0.8537
 5899SOL    HW221103   7.953   7.499   4.196  0.1941 -0.0584  0.8037
 5900SOL     OW21104  10.355   6.437   7.498  0.0495 -0.1697  0.3203
 5900SOL    HW121105  10.438   6.476   7.526  0.8471 -0.1414 -2.0186
 5900SOL    HW221106  10.373   6.344   7.489 -0.3137 -0.2350  0.2328
 5901SOL     OW21107   0.670  10.530   3.503  0.3442  0.1188  0.7328
 5901SOL    HW121108   0.688  10.477   3.580 -1.6505 -0.1193  1.0518
 5901SOL    HW221109   0.620  10.605   3.536 -0.8462 -0.1642 -0.3543
 5902SOL     OW21110   8.585   0.562   2.084  0.0917 -0.4047 -0.7441
 5902SOL    HW121111   8.658   0.617   2.056  0.6827 -0.7592  0.0684
 5902SOL    HW221112   8.626   0.477   2.104 -0.9402 -1.5084 -3.0341
 5903SOL     OW21113   0.382   8.742   4.059  0.3434  0.1871  0.3069
 5903SOL    HW121114   0.307   8.697   4.099  1.3903 -1.8159  0.0382
 5903SOL    HW221115   0.457   8.717   4.112  0.8361  2.4090  0.7358
 5904SOL     OW21116   0.129   8.704   2.415 -0.6745  0.3411 -0.2152
 5904SOL    HW121117   0.182   8.711   2.335 -0.7084  1.5238 -0.1415
 5904SOL    HW221118   0.168   8.631   2.463 -0.6219 -0.3523 -1.2871
 5905SOL     OW21119   6.930   7.958   4.152  0.6556  0.2365 -0.1770
 5905SOL    HW121120   6.867   7.997   4.092  2.0059  1.3696 -0.8895
 5905SOL    HW221121   6.915   7.863   4.145  0.4486  0.3894 -1.9112
 5906SOL     OW21122   6.329   3.209   6.755 -0.1682 -0.7730  0.6756
 5906SOL    HW121123   6.390   3.271   6.716 -1.1578  0.6129  1.3129
 5906SOL    HW221124   6.242   3.242   6.733 -0.7268 -1.1987  2.1291
 5907SOL     OW21125  10.173  10.054   6.065  0.2644 -0.1870  0.6851
 5907SOL    HW121126  10.099  10.109   6.089  0.0065 -0.3944  0.3764
 5907SOL    HW221127  10.215  10.100   5.993 -0.7099 -1.0117 -0.4430
 5908SOL     OW21128   9.483   9.910   0.344  0.0754 -0.1094 -0.0019
 5908SOL    HW121129   9.520   9.872   0.264  0.8334 -1.5311  0.9865
 5908SOL    HW221130   9.407   9.856   0.363  0.6923 -0.6378  0.9778
 5909SOL     OW21131   0.532   8.540  10.633  0.2689 -0.0361  1.1139
 5909SOL    HW121132   0.492   8.464  10.676  0.8203 -1.6903 -1.1794
 5909SOL    HW221133   0.462   8.575  10.577  0.5761 -0.0483  0.7168
 5910SOL     OW21134   8.240   6.962   9.900  0.0557 -0.0123 -0.5375
 5910SOL    HW121135   8.157   6.914   9.889  0.8188 -1.4834  0.0230
 5910SOL    HW221136   8.255   6.961   9.994  0.8610  0.0155 -0.6697
 5911SOL     OW21137   4.671   4.300   1.793  0.2872  0.4197  0.6724
 5911SOL    HW121138   4.719   4.372   1.753  0.4737  0.6735  1.3499
 5911SOL    HW221139   4.721   4.279   1.872 -0.4316  0.3377  1.1051
 5912SOL     OW21140   9.914   0.620   6.284 -0.5930  0.5081 -0.0899
 5912SOL    HW121141   9.891   0.713   6.283 -0.8833  0.4403  0.1121
 5912SOL    HW221142   9.841   0.578   6.330  0.7274  0.5043  2.0545
 5913SOL     OW21143  10.541   1.400   7.666 -0.0006 -0.6174  0.5907
 5913SOL    HW121144  10.634   1.411   7.646 -0.7632  2.5857 -1.6073
 5913SOL    HW221145  10.507   1.346   7.594 -0.0880 -0.5991  0.6180
 5914SOL     OW21146   6.612   1.576   4.340 -0.2654 -0.0236  0.1603
 5914SOL    HW121147   6.624   1.500   4.282 -0.2812  0.4123 -0.4181
 5914SOL    HW221148   6.700   1.598   4.369 -0.0888  0.6299 -0.8280
 5915SOL     OW21149  10.400   0.264   9.115 -0.0299 -0.1776 -0.3173
 5915SOL    HW121150  10.457   0.341   9.109 -0.0337 -0.2627 -1.7081
 5915SOL    HW221151  10.336   0.287   9.183  1.4273  0.0626  0.9958
 5916SOL     OW21152   8.626   5.865   3.175 -0.1440 -0.9483  0.4625
 5916SOL    HW121153   8.648   5.821   3.093 -0.2668 -0.0778 -0.0436
 5916SOL    HW221154   8.533   5.884   3.167 -0.1022 -0.6474  0.7085
 5917SOL     OW21155   0.020   3.532   1.890 -0.4235  0.1080  0.0728
 5917SOL    HW121156   0.064   3.449   1.906  0.6303  0.1667 -2.3167
 5917SOL    HW221157   0.091   3.595   1.879 -1.1604  0.8790 -0.3420
 5918SOL     OW21158  10.949  10.778   2.648  0.0320 -0.0087  0.3855
 5918SOL    HW121159  10.855  10.794   2.637 -0.1963 -1.2987  0.3292
 5918SOL    HW221160  10.957  10.742   2.736  0.3463 -0.7648  0.0519
 5919SOL     OW21161  10.101   1.648   4.412  0.1263 -0.0545 -0.1839
 5919SOL    HW121162  10.126   1.714   4.347  0.2415 -1.3008 -1.4440
 5919SOL    HW221163  10.182   1.630   4.460 -0.1696  1.5437  0.9443
 5920SOL     OW21164   0.416   1.033   0.463  0.2009  0.1583  0.4584
 5920SOL    HW121165   0.378   0.993   0.541 -1.6988  1.3208  0.1868
 5920SOL    HW221166   0.360   1.004   0.391  0.5993  0.8647 -0.1522
 5921SOL     OW21167   4.166   7.282   7.906 -0.1646 -0.0331  0.3608
 5921SOL    HW121168   4.145   7.336   7.983  3.6948  2.0025  0.1139
 5921SOL    HW221169   4.182   7.345   7.836  0.9641 -1.6856 -0.8978
 5922SOL     OW21170   6.770   8.788   8.853 -0.1876 -0.1582  0.4097
 5922SOL    HW121171   6.699   8.762   8.794 -1.4294  1.8360  0.9890
 5922SOL    HW221172   6.754   8.737   8.933  0.7813 -1.9272 -0.4953
 5923SOL     OW21173   5.689   9.209   2.153  0.1632 -0.0369  0.7396
 5923SOL    HW121174   5.721   9.233   2.240  0.4711  0.4740  0.4916
 5923SOL    HW221175   5.599   9.241   2.150  0.6841  1.4574  0.2806
 5924SOL     OW21176   7.896   0.765   2.838  0.0800 -0.5654 -0.0153
 5924SOL    HW121177   7.973   0.708   2.838 -0.4834 -1.3604 -2.2344
 5924SOL    HW221178   7.919   0.835   2.777 -0.4599 -0.1048  0.3135
 5925SOL     OW21179   7.765  10.845   4.909 -0.0223 -0.1154 -0.1766
 5925SOL    HW121180   7.746  10.821   4.819 -2.2420  0.9162 -0.0201
 5925SOL    HW221181   7.809  10.930   4.904 -1.0519  0.4197 -0.2523
 5926SOL     OW21182   5.551   6.732   6.237 -0.1260  0.1638 -0.3426
 5926SOL    HW121183   5.525   6.704   6.149  0.6706  2.9006 -1.5095
 5926SOL    HW221184   5.645   6.714   6.241 -0.0224  0.6932 -0.3279
 5927SOL     OW21185  10.787   1.774   8.601 -0.4269 -0.1858 -0.8759
 5927SOL    HW121186  10.874   1.755   8.566 -0.0296  2.4587 -1.4074
 5927SOL    HW221187  10.762   1.694   8.647  2.0829 -1.1495 -1.1186
 5928SOL     OW21188   5.942   2.518   4.454 -0.0018  0.4651  0.5071
 5928SOL    HW121189   5.952   2.426   4.480 -2.0929  0.4875  1.4334
 5928SOL    HW221190   6.024   2.538   4.407  0.5163 -1.8308  0.3570
 5929SOL     OW21191   2.057   9.788   7.459 -0.3180  0.4049  0.1265
 5929SOL    HW121192   2.008   9.765   7.380  0.5622  0.0449 -0.3249
 5929SOL    HW221193   1.999   9.766   7.531 -0.8264  0.0030 -0.4058
 5930SOL     OW21194   2.116   7.052  10.490 -0.5236  0.3516 -0.2695
 5930SOL    HW121195   2.148   6.991  10.557 -1.3137 -0.3327 -0.4995
 5930SOL    HW221196   2.119   7.002  10.409 -0.5182  0.8537 -0.5766
 5931SOL     OW21197   1.618   4.817   7.336  0.4705 -0.4826  0.3170
 5931SOL    HW121198   1.597   4.857   7.421 -0.4480 -1.4910  0.5819
 5931SOL    HW221199   1.703   4.777   7.349  2.2207  2.8142 -0.4712
 5932SOL     OW21200   7.828   5.784   9.165 -0.3195 -0.2118 -0.6876
 5932SOL    HW121201   7.913   5.746   9.146 -0.0600  0.1521 -0.2411
 5932SOL    HW221202   7.842   5.879   9.162 -0.9515 -0.1367 -1.7335
 5933SOL     OW21203   5.882   3.818   1.764 -0.2370 -0.1818  0.4840
 5933SOL    HW121204   5.975   3.801   1.778 -0.0028 -0.8580 -1.7402
 5933SOL    HW221205   5.874   3.913   1.764  0.7126 -0.0981 -0.9328
 5934SOL     OW21206   4.075   8.448   3.581  0.2011  0.0544 -0.6523
 5934SOL    HW121207   4.038   8.379   3.637  1.2178 -0.6318 -0.8156
 5934SOL    HW221208   4.123   8.505   3.642  2.1639 -1.2569 -0.9187
 5935SOL     OW21209   9.570   1.155   2.458  0.0887  0.0789  0.1672
 5935SOL    HW121210   9.654   1.134   2.416 -0.0588 -0.5351  0.1750
 5935SOL    HW221211   9.567   1.251   2.458 -0.5800  0.1101 -2.5461
 5936SOL     OW21212   9.722   5.256   4.756 -0.0501  1.1165  0.1688
 5936SOL    HW121213   9.779   5.179   4.753  0.1932  1.3402 -1.1276
 5936SOL    HW221214   9.759   5.311   4.826 -1.4801 -0.8909  2.5861
 5937SOL     OW21215  10.900   5.051   8.374  0.1240 -0.9860  0.0437
 5937SOL    HW121216  10.886   4.958   8.390  0.9301 -1.3235 -1.1194
 5937SOL    HW221217  10.983   5.055   8.326  1.4283  0.5487  2.3393
 5938SOL     OW21218  10.423   6.713   8.438 -0.4165 -0.4423  0.1361
 5938SOL    HW121219  10.463   6.643   8.388  1.6456  1.1214 -0.4835
 5938SOL    HW221220  10.447   6.793   8.391 -0.3663  0.8945  2.3657
 5939SOL     OW21221   4.414   7.354   2.356  0.7883 -0.5762 -0.6098
 5939SOL    HW121222   4.396   7.442   2.389 -1.1300 -1.5153  0.9966
 5939SOL    HW221223   4.482   7.320   2.415  0.9173 -0.4718 -0.6988
 5940SOL     OW21224   3.446   7.204   7.599  0.4157 -0.2939 -0.1562
 5940SOL    HW121225   3.425   7.216   7.692 -0.6770 -1.3584 -0.2444
 5940SOL    HW221226   3.511   7.133   7.599  0.7644  0.0266 -0.1717
 5941SOL     OW21227   2.368   9.429   7.319  0.3983 -0.1786 -0.3684
 5941SOL    HW121228   2.463   9.430   7.331  0.4820  1.6680 -0.8986
 5941SOL    HW221229   2.341   9.519   7.338 -1.2335 -0.6672 -0.3106
 5942SOL     OW21230   8.455   3.461   4.151  0.2383  0.0102  0.5163
 5942SOL    HW121231   8.438   3.429   4.062 -0.8411  0.9633  0.3816
 5942SOL    HW221232   8.447   3.556   4.145  3.2038  0.3547  0.9721
 5943SOL     OW21233   7.127   4.081   7.036  0.2199  0.2962  0.4100
 5943SOL    HW121234   7.120   3.986   7.048 -0.5535  0.5733  2.2203
 5943SOL    HW221235   7.052   4.104   6.982  0.0785 -0.0419  0.4631
 5944SOL     OW21236   9.960   6.644   0.830  0.3399  0.3209 -0.1729
 5944SOL    HW121237  10.021   6.620   0.899  0.4175  0.7903 -0.0722
 5944SOL    HW221238   9.878   6.663   0.876  1.0842  3.1846  0.1093
 5945SOL     OW21239   9.420   5.606   2.505  0.2840  0.2189 -0.2192
 5945SOL    HW121240   9.374   5.547   2.445 -1.5552  1.7468 -0.3651
 5945SOL    HW221241   9.479   5.550   2.554 -0.7308 -1.5817 -1.0276
 5946SOL     OW21242   5.374   5.124   2.620  0.2065  0.1136 -0.0197
 5946SOL    HW121243   5.420   5.076   2.690  2.0886 -0.0836 -1.3610
 5946SOL    HW221244   5.346   5.205   2.662  2.1353  0.4186  0.7526
 5947SOL     OW21245   5.626   0.665   6.378 -0.2591 -0.9780 -0.4027
 5947SOL    HW121246   5.669   0.588   6.415  0.8893 -0.3589 -0.4178
 5947SOL    HW221247   5.534   0.654   6.400 -0.0680 -2.2461 -0.2175
 5948SOL     OW21248   7.653   3.965   1.906  0.3849  0.1254 -0.1487
 5948SOL    HW121249   7.593   4.016   1.960 -0.5296 -1.3889  0.2702
 5948SOL    HW221250   7.596   3.916   1.846  1.2696 -0.2663 -0.6829
 5949SOL     OW21251   8.399   4.009   8.372 -0.2163  0.1806 -0.4077
 5949SOL    HW121252   8.470   4.058   8.330  1.6128 -0.8423  1.4068
 5949SOL    HW221253   8.328   4.073   8.382  1.1313  1.7208 -0.5316
 5950SOL     OW21254   0.067   1.292   2.314 -0.1367 -0.2484  0.3228
 5950SOL    HW121255   0.091   1.225   2.250  1.3526  1.0547 -0.5458
 5950SOL    HW221256  -0.023   1.273   2.337 -0.3533 -1.3806 -1.3852
 5951SOL     OW21257   0.393   6.050   9.610  0.0913  0.5149 -0.2382
 5951SOL    HW121258   0.361   6.091   9.691  1.1997 -0.9202  0.9583
 5951SOL    HW221259   0.488   6.059   9.615  0.3757 -2.4634  0.2198
 5952SOL     OW21260  10.374  10.393   8.622  0.4853  0.3747  0.0024
 5952SOL    HW121261  10.396  10.364   8.533  0.4852  0.9609 -0.1926
 5952SOL    HW221262  10.459  10.412   8.662  0.4444  0.8079 -0.1151
 5953SOL     OW21263   4.049   8.971   2.789 -0.5562 -0.3409 -0.0015
 5953SOL    HW121264   3.987   8.965   2.717  0.1040  1.1025 -0.7072
 5953SOL    HW221265   4.066   9.065   2.799 -0.3542 -0.5413  1.7819
 5954SOL     OW21266   4.438   3.774  10.936  0.0211 -0.1637 -0.0189
 5954SOL    HW121267   4.477   3.702  10.888 -0.8361 -1.0713  0.6208
 5954SOL    HW221268   4.353   3.788  10.894 -0.9014 -1.2252  1.4658
 5955SOL     OW21269  10.105   8.516   2.329  0.1277 -0.0142  0.2675
 5955SOL    HW121270  10.158   8.565   2.267 -0.1636  0.3288  0.2876
 5955SOL    HW221271  10.055   8.455   2.274  2.4402 -2.1443  0.4684
 5956SOL     OW21272   2.474   2.158   0.717  0.1885 -0.1890  0.3615
 5956SOL    HW121273   2.515   2.143   0.802  0.9152 -1.5353 -0.1968
 5956SOL    HW221274   2.534   2.115   0.655 -0.8896 -0.1650 -0.7059
 5957SOL     OW21275   0.341   2.015   2.417 -0.5207  0.1071 -0.1891
 5957SOL    HW121276   0.265   1.988   2.469 -0.6161  1.6337  0.4781
 5957SOL    HW221277   0.343   2.110   2.424  2.6491 -0.0230  1.4948
 5958SOL     OW21278   8.207   1.484   6.776 -0.4475 -0.3899  0.5677
 5958SOL    HW121279   8.149   1.416   6.812 -0.8532 -0.6495 -0.5635
 5958SOL    HW221280   8.175   1.498   6.687 -0.1678  1.0681  0.6812
 5959SOL     OW21281   5.949   3.518   4.697  0.1096 -0.3080 -0.0378
 5959SOL    HW121282   5.879   3.541   4.636  0.4164  0.0390 -0.2678
 5959SOL    HW221283   5.961   3.423   4.685 -1.5193 -0.7062  1.2982
 5960SOL     OW21284   4.954   4.461   8.090 -0.2244 -0.0208  0.0473
 5960SOL    HW121285   4.876   4.516   8.087  0.9947  1.7018 -1.9368
 5960SOL    HW221286   5.001   4.490   8.169 -1.0728 -0.3573  0.6812
 5961SOL     OW21287   5.862  10.333   5.551 -0.0920  0.2543 -0.3410
 5961SOL    HW121288   5.784  10.315   5.499 -0.4063  0.4936  0.0394
 5961SOL    HW221289   5.877  10.427   5.538 -1.1880  0.6899  1.3588
 5962SOL     OW21290   5.614   0.605   0.127  0.0618  0.8850 -0.1560
 5962SOL    HW121291   5.524   0.600   0.096 -0.5694  0.1891  1.7345
 5962SOL    HW221292   5.649   0.516   0.114  0.1103  0.8550  0.1677
 5963SOL     OW21293   1.761   3.964  10.802 -0.5347 -0.0815  0.0897
 5963SOL    HW121294   1.715   3.905  10.742 -1.3987  0.0523  0.6250
 5963SOL    HW221295   1.693   3.998  10.859  0.1780  0.3874  0.6573
 5964SOL     OW21296   9.259   8.354   2.306  0.0561  0.4461  0.6325
 5964SOL    HW121297   9.283   8.335   2.396 -0.0493 -1.1517  0.3258
 5964SOL    HW221298   9.269   8.271   2.259  1.0495  1.4698 -1.0406
 5965SOL     OW21299   4.827   7.145   4.075 -0.4185 -0.3265  0.5036
 5965SOL    HW121300   4.783   7.143   3.990 -2.5187  0.2609  1.5335
 5965SOL    HW221301   4.874   7.229   4.075  1.1769 -1.1884 -0.8062
 5966SOL     OW21302   8.841  10.812   4.521 -0.6896 -0.3701  0.3068
 5966SOL    HW121303   8.866  10.903   4.534 -0.7528 -0.0635 -1.6943
 5966SOL    HW221304   8.745  10.813   4.526 -0.5963 -0.7548  2.8463
 5967SOL     OW21305   4.566   3.454   4.345  0.1859 -0.7462 -0.2439
 5967SOL    HW121306   4.582   3.474   4.437 -0.1959 -0.5004 -0.2317
 5967SOL    HW221307   4.487   3.503   4.322  0.6683 -0.2599 -0.8902
 5968SOL     OW21308   1.405   5.081   2.761  0.1322 -0.2828 -0.6789
 5968SOL    HW121309   1.424   4.987   2.754  2.3168 -0.0545  1.3721
 5968SOL    HW221310   1.430   5.104   2.851 -0.0368  2.3170 -1.2546
 5969SOL     OW21311   2.529   7.783   9.021 -0.5827 -0.3060  0.2709
 5969SOL    HW121312   2.477   7.857   9.054 -2.5374 -1.5707  0.1255
 5969SOL    HW221313   2.559   7.812   8.935  1.8233  1.7496  1.7438
 5970SOL     OW21314   7.615   2.732   8.704  0.3892 -0.2539 -0.0727
 5970SOL    HW121315   7.579   2.644   8.698  1.9035 -0.7817 -1.7058
 5970SOL    HW221316   7.593   2.761   8.793 -1.4611 -1.6684 -0.0601
 5971SOL     OW21317   1.997   9.641   3.771 -0.4280  0.1738  0.3950
 5971SOL    HW121318   1.977   9.550   3.749 -2.0196 -0.1007  2.7437
 5971SOL    HW221319   1.923   9.691   3.737  0.1429  0.5181 -0.3465
 5972SOL     OW21320  10.423   2.134   7.766 -0.1280 -0.0955 -0.3961
 5972SOL    HW121321  10.434   2.071   7.837 -2.7498  0.1300  0.2825
 5972SOL    HW221322  10.444   2.086   7.686 -0.4609 -1.3429  0.2586
 5973SOL     OW21323   9.779   5.793   4.549  0.5493 -0.1419  0.4401
 5973SOL    HW121324   9.797   5.731   4.478  1.1326  0.5281 -0.0091
 5973SOL    HW221325   9.687   5.815   4.539  0.4806 -0.5031  0.2554
 5974SOL     OW21326  10.674   8.821   1.111  0.2325 -0.5887  0.6108
 5974SOL    HW121327  10.724   8.753   1.067  0.2872 -0.7701  0.9563
 5974SOL    HW221328  10.730   8.850   1.183  0.5579  0.3952 -0.0275
 5975SOL     OW21329   7.885   4.066   9.400 -0.0938 -0.1636  0.2781
 5975SOL    HW121330   7.919   3.997   9.457  0.1310  0.8215  1.3445
 5975SOL    HW221331   7.955   4.081   9.336  0.7623  0.6174  1.3862
 5976SOL     OW21332   1.546   4.319   2.879 -0.4046 -0.6302  0.0315
 5976SOL    HW121333   1.544   4.226   2.898 -0.2237 -0.7019 -0.2968
 5976SOL    HW221334   1.508   4.360   2.957 -2.3719 -1.1048 -0.6506
 5977SOL     OW21335   9.660   7.033  10.154  0.2070 -0.4582  0.1073
 5977SOL    HW121336   9.639   7.112  10.205  0.2745 -0.0318 -0.5144
 5977SOL    HW221337   9.647   7.060  10.063  0.3711 -1.1288 -0.1149
 5978SOL     OW21338   1.622   3.176   0.500 -0.0361  0.3989 -0.1699
 5978SOL    HW121339   1.688   3.239   0.471  1.9394 -1.5619 -0.0584
 5978SOL    HW221340   1.593   3.209   0.585  0.2359  1.6995 -0.5791
 5979SOL     OW21341   5.997   0.867   4.403 -0.5524  0.2178  0.1533
 5979SOL    HW121342   5.990   0.929   4.331 -0.4591 -0.0004 -0.0417
 5979SOL    HW221343   6.087   0.835   4.400 -0.9366 -0.8431 -0.5055
 5980SOL     OW21344   1.418   3.097   0.251  0.0329  0.2158 -0.9787
 5980SOL    HW121345   1.487   3.161   0.233  1.3873 -1.0607 -0.3119
 5980SOL    HW221346   1.391   3.115   0.341  0.2570 -0.0206 -0.8664
 5981SOL     OW21347   8.285   5.894   4.057 -0.0316  0.3357 -0.7620
 5981SOL    HW121348   8.314   5.831   4.124  0.0600 -1.1915 -2.2140
 5981SOL    HW221349   8.293   5.979   4.100 -1.9523 -0.7579  1.9081
 5982SOL     OW21350   0.313   3.459   6.199 -0.1891  0.4760  0.2535
 5982SOL    HW121351   0.384   3.523   6.201 -1.3936  1.8783 -0.6679
 5982SOL    HW221352   0.257   3.483   6.274 -0.1075 -0.1263  0.5086
 5983SOL     OW21353   8.401  10.431   3.148 -0.1742 -0.1308  0.0936
 5983SOL    HW121354   8.454  10.509   3.166  1.9713 -1.7400  0.9984
 5983SOL    HW221355   8.342  10.425   3.222 -1.8200  1.7598 -0.9898
 5984SOL     OW21356   6.509   0.304   9.069  0.2134 -0.1371 -0.2681
 5984SOL    HW121357   6.558   0.385   9.058 -1.0879  0.8202  0.8080
 5984SOL    HW221358   6.547   0.263   9.146  0.8937 -0.5908 -0.8321
 5985SOL     OW21359   9.371   4.163  10.623 -0.2011  0.9489  0.3996
 5985SOL    HW121360   9.374   4.154  10.528 -3.0142  0.5877  0.3233
 5985SOL    HW221361   9.453   4.122  10.653 -0.5533 -1.4173 -1.6700
 5986SOL     OW21362   7.076   0.404   2.315  0.1241 -0.0729 -0.3550
 5986SOL    HW121363   7.021   0.403   2.393  0.6120  1.1243  0.0278
 5986SOL    HW221364   7.033   0.466   2.256  0.1334 -0.4416 -0.7516
 5987SOL     OW21365   6.990   1.125   8.401  0.2006 -0.5431  0.1756
 5987SOL    HW121366   6.987   1.202   8.458  0.1488 -1.1355  0.9885
 5987SOL    HW221367   7.082   1.117   8.376 -0.0771  0.7586 -1.2705
 5988SOL     OW21368   1.903   5.999   2.769  0.3006 -0.5681  0.7044
 5988SOL    HW121369   1.996   5.993   2.748  0.7857  1.3103  2.1901
 5988SOL    HW221370   1.886   5.926   2.828  0.8526 -0.8419  0.5236
 5989SOL     OW21371   2.690   5.254   9.044  0.3195  0.1885  0.0217
 5989SOL    HW121372   2.611   5.217   9.006 -0.5248 -0.2337  2.1518
 5989SOL    HW221373   2.672   5.348   9.050 -0.0908  0.0641  0.6971
 5990SOL     OW21374   6.499   6.228   5.960 -0.1188 -0.3307  0.1464
 5990SOL    HW121375   6.435   6.285   5.916 -2.0809 -0.3814  2.8736
 5990SOL    HW221376   6.563   6.289   5.996  0.5922 -0.1954 -1.2810
 5991SOL     OW21377   2.603   9.351   0.840  0.2017  0.4521 -0.3858
 5991SOL    HW121378   2.653   9.430   0.862 -1.9020  1.3877  1.1771
 5991SOL    HW221379   2.529   9.384   0.790 -1.4023 -0.3576  1.4071
 5992SOL     OW21380   0.926   7.777   3.200 -0.4707  0.5318  0.1199
 5992SOL    HW121381   0.959   7.687   3.200 -1.5663  0.0871  2.9028
 5992SOL    HW221382   0.831   7.767   3.200 -0.5912  1.6847  0.2951
 5993SOL     OW21383   5.964   0.431   6.573  0.6608 -0.0362 -0.3699
 5993SOL    HW121384   6.036   0.400   6.628  0.6302 -1.6186 -1.1943
 5993SOL    HW221385   5.919   0.496   6.627  2.0874  0.2149  0.5470
 5994SOL     OW21386   7.250   7.618   0.949 -0.5016 -0.8182  0.6325
 5994SOL    HW121387   7.291   7.569   0.877  0.7352  0.8763  0.1577
 5994SOL    HW221388   7.173   7.658   0.909 -1.0535 -1.6674  0.8198
 5995SOL     OW21389   9.902   4.419   6.497  0.2252 -0.1227 -0.0177
 5995SOL    HW121390   9.958   4.459   6.430  0.6768 -2.1602 -0.8966
 5995SOL    HW221391   9.950   4.430   6.578  0.2211  1.3419 -0.2098
 5996SOL     OW21392   1.679   4.170   2.483  0.4566 -0.2012 -0.0909
 5996SOL    HW121393   1.625   4.153   2.560  1.1551  0.1785  0.4850
 5996SOL    HW221394   1.642   4.114   2.415 -1.1351  0.6128  0.0898
 5997SOL     OW21395   1.955   4.192   2.285 -0.2112  0.1729 -0.2634
 5997SOL    HW121396   1.914   4.254   2.225 -0.8302  0.0105 -0.0156
 5997SOL    HW221397   1.929   4.222   2.372 -2.2617 -1.6135 -0.2061
 5998SOL     OW21398   7.448  10.605   5.818  0.1159  0.1042  0.6812
 5998SOL    HW121399   7.478  10.514   5.815  0.0479  0.1064  0.0772
 5998SOL    HW221400   7.367  10.605   5.768  0.7340  0.7458 -0.3346
 5999SOL     OW21401   7.997   8.154  10.581  0.1412 -0.1813 -0.1331
 5999SOL    HW121402   7.908   8.128  10.561 -0.2658  1.6885 -0.8816
 5999SOL    HW221403   8.052   8.085  10.543 -0.9098 -0.2397 -1.5920
 6000SOL     OW21404   4.276   4.827   6.126  0.1278  0.4144 -0.3061
 6000SOL    HW121405   4.277   4.915   6.088 -0.0979 -0.3143 -2.0234
 6000SOL    HW221406   4.187   4.795   6.111 -0.4920  0.7290  2.3456
 6001SOL     OW21407   0.353   0.373   7.140  0.0520 -0.1816  0.3896
 6001SOL    HW121408   0.309   0.288   7.145  0.4907 -0.3731  1.0614
 6001SOL    HW221409   0.287   0.432   7.105 -1.0593 -0.2790  2.2254
 6002SOL     OW21410   1.822   4.752   6.490  0.6558 -0.1889 -0.4618
 6002SOL    HW121411   1.894   4.777   6.432  0.1079 -1.0488 -1.5446
 6002SOL    HW221412   1.762   4.703   6.434 -0.4045 -0.1437  0.6020
 6003SOL     OW21413   0.022   3.181   5.793  0.3054 -0.1450 -0.3858
 6003SOL    HW121414   0.068   3.258   5.827  0.1625 -0.4320  0.4585
 6003SOL    HW221415   0.018   3.120   5.867 -1.6534 -0.0182 -0.3554
 6004SOL     OW21416  10.296   9.447  10.883  0.5143  0.2125 -0.0712
 6004SOL    HW121417  10.356   9.375  10.869 -3.1403 -3.4415  1.9984
 6004SOL    HW221418  10.310   9.474  10.973 -0.7411 -0.5298  0.3624
 6005SOL     OW21419   8.465   2.116   9.951 -0.0276 -0.1933 -0.5634
 6005SOL    HW121420   8.560   2.104   9.963 -0.3377 -0.8218  1.5152
 6005SOL    HW221421   8.428   2.030   9.968 -1.1608  0.5981  1.1690
 6006SOL     OW21422   3.209   3.092   1.380  0.2999  0.4576 -0.0857
 6006SOL    HW121423   3.191   3.015   1.434 -0.0166  1.3905  1.1328
 6006SOL    HW221424   3.198   3.060   1.290  0.5742 -1.0253  0.3879
 6007SOL     OW21425   8.342  10.180   6.723 -0.0709  0.4939  0.3714
 6007SOL    HW121426   8.403  10.167   6.651 -0.9344 -0.3595 -0.2291
 6007SOL    HW221427   8.311  10.270   6.713 -0.3803  0.3017 -0.4975
 6008SOL     OW21428   0.330   2.919   3.894  0.2432  0.2407  0.5912
 6008SOL    HW121429   0.379   2.837   3.888 -0.2153  0.1217 -2.1724
 6008SOL    HW221430   0.306   2.926   3.986  0.9495 -2.3386  1.0062
 6009SOL     OW21431  10.320   5.447   2.628  0.2698  0.8271  0.0854
 6009SOL    HW121432  10.348   5.496   2.551 -0.7723  0.3544 -0.6165
 6009SOL    HW221433  10.401   5.416   2.669  0.9143  2.8675  0.3755
 6010SOL     OW21434   4.681  10.158   4.632 -0.2832  0.0351 -0.3044
 6010SOL    HW121435   4.729  10.107   4.567 -0.2932 -0.1602 -0.1595
 6010SOL    HW221436   4.605  10.105   4.655 -0.0688 -0.0774  0.1577
 6011SOL     OW21437   7.170   0.463   1.494 -0.1629  0.3323 -0.1393
 6011SOL    HW121438   7.175   0.468   1.590  0.1177 -1.1939 -0.0573
 6011SOL    HW221439   7.077   0.470   1.474 -0.2285  0.6034  0.2477
 6012SOL     OW21440   7.716   6.195   5.179 -0.6391 -0.7236 -0.4795
 6012SOL    HW121441   7.810   6.187   5.190 -0.5394 -0.1310 -0.8530
 6012SOL    HW221442   7.689   6.114   5.136 -0.3911 -1.1463  0.1513
 6013SOL     OW21443   4.084   4.073   9.409 -0.3358 -0.3423  0.0253
 6013SOL    HW121444   4.123   4.160   9.418 -0.8306  0.0116 -1.1255
 6013SOL    HW221445   3.992   4.086   9.428 -0.1504 -0.9272  1.4113
 6014SOL     OW21446   4.787   1.178   1.885  0.6504  0.0010  0.2100
 6014SOL    HW121447   4.752   1.248   1.829  1.1514  0.1062  0.0237
 6014SOL    HW221448   4.841   1.223   1.949 -0.1945 -0.0936  0.9953
 6015SOL     OW21449   8.984   4.008   6.099 -0.6567  0.2893  0.2341
 6015SOL    HW121450   8.916   3.974   6.157 -0.8575  0.3266  0.0154
 6015SOL    HW221451   8.970   4.102   6.099 -0.4556  0.3212  0.3793
 6016SOL     OW21452   4.107   3.881   8.450  0.4411  0.1616  0.5066
 6016SOL    HW121453   4.154   3.883   8.367 -1.9902 -0.5751 -0.9308
 6016SOL    HW221454   4.056   3.962   8.451 -0.0881 -0.1733  0.9421
 6017SOL     OW21455  10.322   3.737   5.722  0.2237 -0.0444 -0.5958
 6017SOL    HW121456  10.407   3.780   5.716  0.6587 -0.5870  1.3317
 6017SOL    HW221457  10.314   3.711   5.814  0.2132 -4.5202 -1.7399
 6018SOL     OW21458   0.825   3.827   6.868  0.2784 -0.3927  0.2629
 6018SOL    HW121459   0.894   3.810   6.805  0.3006 -1.1802  0.4916
 6018SOL    HW221460   0.756   3.869   6.818  0.6590 -0.1982 -0.0972
 6019SOL     OW21461   6.414   1.468   8.092 -0.1463 -0.2057  0.1311
 6019SOL    HW121462   6.373   1.443   8.175 -1.9129  0.7129 -0.4388
 6019SOL    HW221463   6.484   1.528   8.118 -0.8838  0.3263  0.9499
 6020SOL     OW21464   0.754   2.205   7.038  0.4022  0.0047 -1.0105
 6020SOL    HW121465   0.710   2.192   7.122  0.6777  0.8697 -0.7293
 6020SOL    HW221466   0.686   2.187   6.973 -0.1196  0.4111 -0.5866
 6021SOL     OW21467   9.498   5.117   6.593 -0.0145 -0.6608  0.3667
 6021SOL    HW121468   9.574   5.092   6.645  0.6528  1.1703  0.3369
 6021SOL    HW221469   9.523   5.098   6.503  0.5070  0.1233  0.3379
 6022SOL     OW21470   5.320   0.050   6.168 -0.3358  0.3142 -0.4990
 6022SOL    HW121471   5.388   0.087   6.111 -0.0035 -0.3762 -0.5615
 6022SOL    HW221472   5.356  -0.034   6.196 -0.2306  0.9299  1.2535
 6023SOL     OW21473   5.710   8.682   6.317 -0.2078 -0.3098 -0.2873
 6023SOL    HW121474   5.757   8.671   6.399 -1.1635  2.1047  0.6196
 6023SOL    HW221475   5.758   8.753   6.272 -1.3892  0.3565 -0.5145
 6024SOL     OW21476   7.738   9.219   0.086  0.2443 -0.9331  0.2806
 6024SOL    HW121477   7.643   9.227   0.098  0.2959  0.8979 -0.4491
 6024SOL    HW221478   7.759   9.279   0.014  1.9614 -1.3257  0.4270
 6025SOL     OW21479   9.473  10.191   7.547 -0.2202 -0.4409  0.4251
 6025SOL    HW121480   9.526  10.119   7.581  0.6222 -0.9474 -1.8855
 6025SOL    HW221481   9.399  10.148   7.505  0.2727  0.0237 -0.9358
 6026SOL     OW21482   0.851   2.584  10.158 -0.7843 -0.3551  0.0608
 6026SOL    HW121483   0.939   2.576  10.195 -1.0216 -0.4069  0.6274
 6026SOL    HW221484   0.793   2.570  10.233 -1.2891 -1.4493 -0.5256
 6027SOL     OW21485   3.024   3.559   8.233  0.1079 -0.5957 -0.6436
 6027SOL    HW121486   3.115   3.574   8.208  0.1560 -0.6310 -0.4893
 6027SOL    HW221487   3.022   3.572   8.328  0.2157 -1.8468 -0.4525
 6028SOL     OW21488   2.904   1.533   3.241 -0.2373  0.6890  0.0980
 6028SOL    HW121489   2.974   1.549   3.178 -0.5641  0.8795 -0.2168
 6028SOL    HW221490   2.933   1.457   3.291  0.3157  0.9282  0.1435
 6029SOL     OW21491   2.326   3.100   4.921  0.7329 -0.2928  0.0656
 6029SOL    HW121492   2.356   3.068   4.836  2.2652 -0.0838  0.5052
 6029SOL    HW221493   2.339   3.025   4.980  1.3131  0.1011  0.4502
 6030SOL     OW21494   6.239   6.371   9.861 -0.1013 -0.3109 -0.2830
 6030SOL    HW121495   6.326   6.409   9.876 -0.6347  1.1412 -0.7351
 6030SOL    HW221496   6.184   6.446   9.837 -1.8258 -0.9736  1.4594
 6031SOL     OW21497   5.088  10.694   2.819  0.1035 -0.3555  0.2070
 6031SOL    HW121498   5.155  10.625   2.821  0.4770 -0.0703 -1.8849
 6031SOL    HW221499   5.020  10.659   2.762  0.6722  1.3442 -1.5392
 6032SOL     OW21500   4.869   1.667   8.268  0.2009  0.0190  0.0713
 6032SOL    HW121501   4.862   1.667   8.172  2.4116 -0.7191 -0.1174
 6032SOL    HW221502   4.911   1.584   8.289 -1.0373 -0.1978  1.7695
 6033SOL     OW21503   5.627   3.970   7.812 -0.5421 -0.2422  0.1513
 6033SOL    HW121504   5.663   4.041   7.866 -2.3390  0.8781 -0.0708
 6033SOL    HW221505   5.661   3.890   7.852 -0.4195  0.6565  1.8999
 6034SOL     OW21506   8.402   1.458   4.623  0.3579 -0.2791 -0.1468
 6034SOL    HW121507   8.391   1.440   4.716 -1.7763  0.2441 -0.2851
 6034SOL    HW221508   8.331   1.518   4.601  0.4947 -0.8471 -2.2293
 6035SOL     OW21509   8.182   7.614   9.154 -0.1149 -0.2225 -0.3384
 6035SOL    HW121510   8.197   7.535   9.102 -0.8359 -0.7924  0.3074
 6035SOL    HW221511   8.112   7.590   9.215 -1.3617  1.3459 -1.0977
 6036SOL     OW21512   6.375   8.099   3.935  0.2594 -0.2483 -0.1087
 6036SOL    HW121513   6.403   8.133   4.020 -2.0440  1.1953  0.1144
 6036SOL    HW221514   6.330   8.017   3.955  0.6220 -0.4325 -0.0470
 6037SOL     OW21515   8.481   3.799   5.760 -0.0687 -0.4840  0.3963
 6037SOL    HW121516   8.459   3.834   5.673 -0.3945 -0.7254  0.3781
 6037SOL    HW221517   8.446   3.710   5.759  0.9669 -0.8926  0.3572
 6038SOL     OW21518   0.024   0.513   4.121 -0.7474  0.3521  0.4252
 6038SOL    HW121519   0.001   0.549   4.206 -0.5205 -2.3439  1.6749
 6038SOL    HW221520   0.010   0.419   4.130  2.0794 -0.3425 -1.5749
 6039SOL     OW21521  10.687   2.288   4.019  0.1896  0.5700 -0.0023
 6039SOL    HW121522  10.695   2.369   4.069 -0.1330  1.0612 -0.7408
 6039SOL    HW221523  10.672   2.316   3.929 -1.4273 -0.3042 -0.0320
 6040SOL     OW21524   4.942   9.679   8.028  0.5054  0.1631  0.5639
 6040SOL    HW121525   5.010   9.669   7.961  1.5347 -0.0325  1.6133
 6040SOL    HW221526   4.883   9.746   7.994  2.8027  2.4323  0.8775
 6041SOL     OW21527   7.876   5.493   7.929  0.6252  0.4175  0.6721
 6041SOL    HW121528   7.915   5.557   7.988  1.0107  0.1817  0.6805
 6041SOL    HW221529   7.874   5.536   7.843  0.4929  0.5939  0.7653
 6042SOL     OW21530   4.220   0.419   2.793 -0.1055 -0.2340 -0.4973
 6042SOL    HW121531   4.223   0.475   2.871  1.2659 -0.3224 -0.4694
 6042SOL    HW221532   4.225   0.481   2.720  1.3325 -0.2978 -0.4676
 6043SOL     OW21533   0.818   0.470   8.116 -0.6457 -0.1471  0.2294
 6043SOL    HW121534   0.750   0.493   8.179 -1.4442 -0.9399 -0.3440
 6043SOL    HW221535   0.827   0.548   8.061  1.6951  1.4401  2.7318
 6044SOL     OW21536   7.465   4.118   0.705 -0.2432 -0.0425 -0.3658
 6044SOL    HW121537   7.381   4.080   0.731  0.3981 -2.6712 -1.9513
 6044SOL    HW221538   7.499   4.158   0.785 -2.5833  0.2764  0.5013
 6045SOL     OW21539   3.140  10.544   9.750  0.4350  0.1957 -0.2811
 6045SOL    HW121540   3.082  10.476   9.783  1.8425 -1.6195 -1.4299
 6045SOL    HW221541   3.199  10.498   9.691  1.9089  2.2975 -0.4959
 6046SOL     OW21542   1.210   5.714   3.117  0.2157 -0.4295 -0.4202
 6046SOL    HW121543   1.229   5.636   3.169  0.2893  0.2882  0.6441
 6046SOL    HW221544   1.161   5.772   3.177  1.9534  1.2065 -0.5228
 6047SOL     OW21545   9.271   4.355   8.130  0.2477 -0.0459 -0.1099
 6047SOL    HW121546   9.223   4.438   8.121  0.7275  0.2275 -0.1422
 6047SOL    HW221547   9.203   4.290   8.147 -0.3483 -0.0064 -2.2147
 6048SOL     OW21548  10.742   2.251   2.711  0.1910  0.3079  0.7110
 6048SOL    HW121549  10.688   2.224   2.636  0.6105  1.1060  0.1127
 6048SOL    HW221550  10.826   2.274   2.672 -0.5600  3.8735  0.9863
 6049SOL     OW21551   4.927   0.065   5.809 -0.1310 -0.0800 -0.2021
 6049SOL    HW121552   4.951   0.131   5.744  0.1601 -0.1560 -0.1719
 6049SOL    HW221553   4.974   0.091   5.889  0.0231 -0.3493 -0.2043
 6050SOL     OW21554  10.630   5.104   5.014 -0.4434 -0.0943 -0.1815
 6050SOL    HW121555  10.605   5.167   5.082  0.0000 -1.4523  1.2631
 6050SOL    HW221556  10.721   5.127   4.992 -0.2730 -0.2529  0.3620
 6051SOL     OW21557   7.489   2.263   3.223  0.1131  0.0875 -0.3565
 6051SOL    HW121558   7.410   2.312   3.200  1.0430  0.7805 -2.2000
 6051SOL    HW221559   7.557   2.298   3.164  1.5700 -1.1220  0.5682
 6052SOL     OW21560   3.247   7.342   1.845 -0.3363  0.0558 -0.0951
 6052SOL    HW121561   3.304   7.268   1.867 -3.2580 -1.8715  1.2546
 6052SOL    HW221562   3.236   7.389   1.928 -0.3160  0.7439 -0.4742
 6053SOL     OW21563   2.781   9.064   6.829 -0.2185 -0.0914  0.6093
 6053SOL    HW121564   2.802   8.972   6.842 -4.0020 -1.5810 -2.4712
 6053SOL    HW221565   2.816   9.085   6.742 -0.4759  0.9790  0.7475
 6054SOL     OW21566   8.149   5.196   8.484  0.0100 -0.2164  0.6127
 6054SOL    HW121567   8.174   5.105   8.500  0.9643 -0.3314 -1.3580
 6054SOL    HW221568   8.104   5.193   8.399 -1.1620  0.9497  1.1853
 6055SOL     OW21569   9.066   6.166   6.710 -0.2824 -0.3797  0.2399
 6055SOL    HW121570   8.987   6.130   6.670 -0.5085  1.0724 -0.6506
 6055SOL    HW221571   9.086   6.243   6.658  0.3215  0.6627  1.9639
 6056SOL     OW21572   0.666  10.283   9.460  0.4238 -0.6917 -0.0153
 6056SOL    HW121573   0.746  10.252   9.502 -0.0209 -2.0473 -0.1588
 6056SOL    HW221574   0.631  10.207   9.414  0.6216  0.6060 -2.4289
 6057SOL     OW21575   7.540   9.341   1.659  0.0638 -0.5111 -0.0913
 6057SOL    HW121576   7.575   9.254   1.680  0.7884 -0.0973  0.4468
 6057SOL    HW221577   7.578   9.362   1.574 -0.6728 -1.0198 -0.5473
 6058SOL     OW21578  10.160   7.561   4.002 -0.6642 -0.1629 -0.4593
 6058SOL    HW121579  10.182   7.469   3.984 -0.9888 -0.4072  0.3737
 6058SOL    HW221580  10.120   7.560   4.089 -0.3652  0.8153 -0.3023
 6059SOL     OW21581   9.373   5.839  10.563 -0.0765 -0.0024 -0.2435
 6059SOL    HW121582   9.295   5.828  10.618 -0.3216  0.0747 -0.5746
 6059SOL    HW221583   9.351   5.913  10.506  0.1787 -0.0816 -0.4416
 6060SOL     OW21584   7.320   3.249   5.161  0.2513  0.1611 -0.4591
 6060SOL    HW121585   7.339   3.161   5.193 -2.9212  0.2727  1.9915
 6060SOL    HW221586   7.373   3.307   5.215  0.0795 -0.0633 -0.0534
 6061SOL     OW21587   8.522   5.998   6.340  0.4767 -0.1568  0.6782
 6061SOL    HW121588   8.524   5.928   6.274  1.4189 -0.5140  1.0721
 6061SOL    HW221589   8.471   6.068   6.299  0.4880 -0.6369 -0.1721
 6062SOL     OW21590  10.910   7.701   1.238 -0.4153  0.2577 -0.0297
 6062SOL    HW121591  10.832   7.656   1.271 -0.9386  2.0256  1.1801
 6062SOL    HW221592  10.886   7.793   1.236  0.9434  0.6123 -1.6697
 6063SOL     OW21593   7.508   5.457  10.751 -0.1431  0.1475  0.0180
 6063SOL    HW121594   7.551   5.512  10.685 -2.5260  0.7348 -1.0883
 6063SOL    HW221595   7.558   5.471  10.831  1.0980  1.5828 -0.9912
 6064SOL     OW21596  10.767   8.599   9.642  0.9261 -0.3348 -0.1658
 6064SOL    HW121597  10.746   8.531   9.577  1.8620 -0.0774 -0.7478
 6064SOL    HW221598  10.796   8.550   9.719  3.1246 -0.6041 -1.1102
 6065SOL     OW21599   3.233   8.845   1.849 -0.1349 -0.2294  0.0407
 6065SOL    HW121600   3.234   8.838   1.753 -0.8354  2.3449 -0.2078
 6065SOL    HW221601   3.170   8.778   1.877 -0.7469 -0.2732 -1.3783
 6066SOL     OW21602   1.691   9.129   7.101 -0.3036 -0.3470  0.3293
 6066SOL    HW121603   1.697   9.148   7.195  0.2932 -2.4049  0.7300
 6066SOL    HW221604   1.606   9.085   7.092  0.6944 -2.3025  0.3096
 6067SOL     OW21605   4.924  10.216  10.429  0.5928  0.1445  0.2598
 6067SOL    HW121606   4.937  10.156  10.502  0.6972  0.2625  0.3378
 6067SOL    HW221607   4.983  10.185  10.361 -0.8030 -1.0375 -0.4307
 6068SOL     OW21608   8.944   2.327   5.048  0.7657 -0.0542 -0.2400
 6068SOL    HW121609   8.966   2.420   5.048  0.2757  0.0764 -1.3466
 6068SOL    HW221610   8.937   2.304   4.955  2.5876 -1.6193 -0.0193
 6069SOL     OW21611   0.496  10.944   8.131  0.0360  0.5991 -0.1786
 6069SOL    HW121612   0.581  10.905   8.149 -0.2481  0.2053  0.3008
 6069SOL    HW221613   0.445  10.874   8.090 -0.4966  0.4395  0.7530
 6070SOL     OW21614   7.057   5.952   7.674  0.4549 -0.2103 -0.0004
 6070SOL    HW121615   7.128   5.890   7.687  0.1662 -0.4950  0.2084
 6070SOL    HW221616   6.980   5.909   7.711  0.1851  0.1211 -0.1735
 6071SOL     OW21617   4.528   8.002   1.511  0.5404  0.1352 -0.6666
 6071SOL    HW121618   4.564   8.091   1.510  2.9840 -0.8187 -1.3143
 6071SOL    HW221619   4.535   7.973   1.420  2.1961 -1.6192 -0.0272
 6072SOL     OW21620   7.443   8.807   1.624  0.0971  0.8671  0.1699
 6072SOL    HW121621   7.500   8.732   1.607  0.6650  1.2792  0.2309
 6072SOL    HW221622   7.492   8.882   1.590 -0.7871  1.1232 -0.5706
 6073SOL     OW21623   8.191   0.512   2.473 -0.5635  0.4197 -0.1477
 6073SOL    HW121624   8.232   0.489   2.557 -1.6737 -0.2650  0.2082
 6073SOL    HW221625   8.176   0.428   2.430  0.9002  0.8097 -1.4794
 6074SOL     OW21626  10.525   8.974   3.861  0.3717  0.2615 -0.2614
 6074SOL    HW121627  10.606   8.946   3.817  0.0977  1.1466 -1.3543
 6074SOL    HW221628  10.472   8.894   3.867  0.5287  0.0723 -1.3156
 6075SOL     OW21629   6.004  10.541   1.276 -0.2960 -0.5856  0.4913
 6075SOL    HW121630   6.040  10.519   1.362  1.4381  0.1192 -0.0245
 6075SOL    HW221631   5.978  10.633   1.283  1.2019 -0.0865 -0.1377
 6076SOL     OW21632   8.560   1.443   3.195  0.6087 -0.5809  0.0326
 6076SOL    HW121633   8.561   1.394   3.113 -0.5269 -1.2253  0.3850
 6076SOL    HW221634   8.574   1.534   3.170  0.7372 -0.8407 -0.8284
 6077SOL     OW21635  10.620   1.255   5.795 -0.4706 -0.5935 -0.6098
 6077SOL    HW121636  10.619   1.187   5.863 -3.2603 -1.3127 -1.2842
 6077SOL    HW221637  10.599   1.336   5.841 -1.6633 -0.9675 -0.4709
 6078SOL     OW21638  10.106   0.078  10.388  0.2853 -0.3251  0.3727
 6078SOL    HW121639  10.169   0.060  10.318 -0.7100 -0.3154 -0.5432
 6078SOL    HW221640  10.044   0.006  10.383 -1.6671  1.4089 -0.9345
 6079SOL     OW21641   2.697   8.137   4.384 -0.2786 -0.3428  0.2335
 6079SOL    HW121642   2.648   8.137   4.302 -1.0308  1.8418  0.6296
 6079SOL    HW221643   2.631   8.154   4.451  0.6669  0.2636  1.0214
 6080SOL     OW21644  10.623   2.485   8.863  0.0204 -0.2246 -0.3494
 6080SOL    HW121645  10.553   2.510   8.802 -0.1811  0.1019  0.0170
 6080SOL    HW221646  10.577   2.449   8.938  0.2380  0.2155 -0.0061
 6081SOL     OW21647   9.206   5.168   3.896 -0.4674  0.0253 -0.1103
 6081SOL    HW121648   9.252   5.089   3.868  0.8735  1.4946 -2.2021
 6081SOL    HW221649   9.179   5.211   3.814 -2.0085  1.2565  1.0053
 6082SOL     OW21650   7.770   2.507  10.917  0.6017  0.3064 -0.1242
 6082SOL    HW121651   7.689   2.477  10.960  1.6801 -0.4987  1.3682
 6082SOL    HW221652   7.770   2.462  10.832  0.3357 -1.0308  0.5780
 6083SOL     OW21653   5.451   4.559   3.382 -0.1427  0.0140 -0.0564
 6083SOL    HW121654   5.369   4.512   3.397  0.6136 -1.4033 -0.2923
 6083SOL    HW221655   5.427   4.636   3.331 -1.3014 -0.4458 -0.1921
 6084SOL     OW21656  10.470   0.858   6.346 -0.2904 -0.0025  0.0751
 6084SOL    HW121657  10.450   0.929   6.284  0.0759  0.8970  0.9718
 6084SOL    HW221658  10.565   0.849   6.341 -0.1372  0.7909  1.2558
 6085SOL     OW21659   4.795   5.621   8.833  0.0136  0.3921  0.6076
 6085SOL    HW121660   4.727   5.669   8.880 -0.3800  0.5216 -0.0796
 6085SOL    HW221661   4.824   5.682   8.765 -0.8428 -0.5078 -0.5930
 6086SOL     OW21662   6.374   0.684   2.391  0.7635 -0.3574 -0.4585
 6086SOL    HW121663   6.371   0.649   2.302 -2.3805 -1.5310  0.0302
 6086SOL    HW221664   6.310   0.755   2.390  0.4727 -0.5959  0.9231
 6087SOL     OW21665   7.180   4.577   3.253 -0.7284 -0.3070 -0.5483
 6087SOL    HW121666   7.238   4.652   3.245 -1.9680  0.7933  0.4728
 6087SOL    HW221667   7.124   4.582   3.175 -0.1666 -0.7536 -0.9862
 6088SOL     OW21668   3.609   5.938   3.381 -0.4416 -0.1980 -0.0100
 6088SOL    HW121669   3.571   5.998   3.317 -0.5461 -0.6839 -0.4039
 6088SOL    HW221670   3.536   5.881   3.406 -0.7146  0.7224  1.4211
 6089SOL     OW21671   4.779  10.533   9.512  0.2232  0.0025  0.4858
 6089SOL    HW121672   4.821  10.447   9.511  0.3902  0.0752  1.0995
 6089SOL    HW221673   4.688  10.515   9.537  0.4918  0.0988  1.5622
 6090SOL     OW21674   9.585   0.235   1.098 -0.0884  0.6747 -0.0997
 6090SOL    HW121675   9.565   0.231   1.005  1.2545 -2.0988 -0.3165
 6090SOL    HW221676   9.681   0.235   1.101 -0.1298  0.0577  1.3148
 6091SOL     OW21677   2.864   8.357   6.158 -0.2732  0.2043  0.2208
 6091SOL    HW121678   2.948   8.393   6.127 -0.0858  0.5664  1.1155
 6091SOL    HW221679   2.803   8.375   6.087 -0.4892  3.5372  1.1511
 6092SOL     OW21680   1.452   5.996   3.811 -0.2203  0.1254  0.1682
 6092SOL    HW121681   1.395   6.062   3.772 -0.0051 -0.4524 -1.1418
 6092SOL    HW221682   1.398   5.917   3.817  0.1368 -0.1500 -0.1641
 6093SOL     OW21683   1.596   9.429   4.235 -0.0698  0.5118 -0.3318
 6093SOL    HW121684   1.634   9.376   4.306  0.4714  0.1844 -0.8662
 6093SOL    HW221685   1.537   9.369   4.189  0.6470  0.3253 -1.0207
 6094SOL     OW21686   0.327   8.365  10.192  0.1139 -0.2012  0.4324
 6094SOL    HW121687   0.415   8.367  10.154 -0.4841  1.8442 -0.8901
 6094SOL    HW221688   0.305   8.272  10.196  1.7726 -0.6579 -0.5411
 6095SOL     OW21689   8.535   7.203   8.642  0.1368 -0.3132 -0.2031
 6095SOL    HW121690   8.527   7.298   8.656 -0.7097 -0.3261 -0.5706
 6095SOL    HW221691   8.571   7.195   8.554  0.9662 -0.3209  0.1359
 6096SOL     OW21692   9.601   5.416   1.070 -0.1517  0.5859 -0.2279
 6096SOL    HW121693   9.565   5.375   0.991 -0.4959  1.4670 -0.5428
 6096SOL    HW221694   9.690   5.382   1.077 -0.5648 -0.5176 -0.2529
 6097SOL     OW21695   8.577   4.966   6.676 -0.7440 -0.6016  0.1572
 6097SOL    HW121696   8.561   5.013   6.758  1.2123 -1.5699  1.1370
 6097SOL    HW221697   8.551   4.875   6.696 -0.0197 -0.8893 -0.2218
 6098SOL     OW21698   5.757   9.997  10.785 -0.9004 -0.0559  0.3185
 6098SOL    HW121699   5.761  10.092  10.787 -0.1108 -0.0921  0.5207
 6098SOL    HW221700   5.707   9.974  10.864  0.1248  0.1282  1.0283
 6099SOL     OW21701   2.016   4.913   1.106 -0.5980  0.0435 -0.2755
 6099SOL    HW121702   1.986   4.947   1.022 -0.0242  0.5728 -0.2663
 6099SOL    HW221703   2.043   4.823   1.087  0.1556  0.3765 -0.7983
 6100SOL     OW21704   3.270   2.205   3.556 -0.0398 -0.5417 -0.0200
 6100SOL    HW121705   3.209   2.133   3.576  0.0575 -0.5790  0.1414
 6100SOL    HW221706   3.231   2.248   3.480 -0.2294 -0.6120  0.0356
 6101SOL     OW21707   8.551   5.703   5.426 -0.1055 -0.0238  0.0741
 6101SOL    HW121708   8.494   5.734   5.356 -0.6293 -2.5109 -0.6732
 6101SOL    HW221709   8.639   5.707   5.389  0.0010  1.9446  0.5215
 6102SOL     OW21710   0.040   0.772  10.822 -0.3216  0.2955  0.3211
 6102SOL    HW121711  -0.031   0.708  10.824  0.9300 -1.1752 -0.8898
 6102SOL    HW221712   0.044   0.801  10.731 -0.2042  1.3184  0.6473
 6103SOL     OW21713   9.028   0.692   4.808  0.4751 -0.8516  0.1299
 6103SOL    HW121714   9.051   0.783   4.824  2.2062 -1.4413  1.1060
 6103SOL    HW221715   9.066   0.672   4.722  1.9550 -1.2570  0.8676
 6104SOL     OW21716   1.403   9.861   2.646  0.1535  0.1054  0.0669
 6104SOL    HW121717   1.481   9.915   2.661  0.2793 -0.0258 -0.0949
 6104SOL    HW221718   1.364   9.851   2.732 -0.1687  0.8998  0.0157
 6105SOL     OW21719   6.908   7.570   8.235 -0.1240 -0.5050  0.0008
 6105SOL    HW121720   6.849   7.495   8.235 -0.8096  0.0186  0.1410
 6105SOL    HW221721   6.975   7.549   8.300 -0.1187 -1.1391 -0.2082
 6106SOL     OW21722   8.851   3.391   1.695 -0.5218 -0.2021  0.4328
 6106SOL    HW121723   8.819   3.437   1.772  1.5777 -0.0878  1.2916
 6106SOL    HW221724   8.851   3.457   1.626 -3.2335 -0.5303  0.0688
 6107SOL     OW21725   4.321   2.783  10.045  0.4818 -0.0750 -0.2944
 6107SOL    HW121726   4.292   2.744   9.963 -1.7283  0.4032  0.2114
 6107SOL    HW221727   4.280   2.870  10.046  0.0070 -0.2957  1.5534
 6108SOL     OW21728   3.484   4.830   2.565  0.1261 -0.3026 -0.7148
 6108SOL    HW121729   3.444   4.789   2.642 -1.1007  1.0591 -0.5949
 6108SOL    HW221730   3.568   4.864   2.597  0.8000 -2.0341 -0.6364
 6109SOL     OW21731   7.244   3.141   1.420 -0.2937  0.0749 -0.4236
 6109SOL    HW121732   7.241   3.215   1.480  0.0280  0.1878 -0.5454
 6109SOL    HW221733   7.299   3.076   1.464 -0.4523 -0.0312 -0.3824
 6110SOL     OW21734   9.612   6.840   7.723  0.5064  0.7609 -0.5027
 6110SOL    HW121735   9.623   6.910   7.658 -2.3518  0.9324 -0.8806
 6110SOL    HW221736   9.579   6.884   7.801 -1.3895 -0.1080 -0.7670
 6111SOL     OW21737   5.584   7.880   3.460 -0.5381  0.4267 -0.0802
 6111SOL    HW121738   5.579   7.975   3.445 -0.8786  0.9152  2.7325
 6111SOL    HW221739   5.492   7.851   3.458 -1.0180  1.2105  4.6729
 6112SOL     OW21740   8.671   4.246  10.719 -0.2857 -0.4048  0.5263
 6112SOL    HW121741   8.756   4.215  10.686  0.9075  2.1518  1.0694
 6112SOL    HW221742   8.683   4.250  10.814 -2.0734 -2.9954  0.8984
 6113SOL     OW21743   9.618  10.034   9.241 -0.3625 -0.3164 -0.4689
 6113SOL    HW121744   9.598   9.943   9.222  1.4207 -0.2713 -2.8555
 6113SOL    HW221745   9.569  10.084   9.176 -0.7068  0.3787  0.3168
 6114SOL     OW21746   4.716   0.457   0.101  0.0228  0.1325  0.0731
 6114SOL    HW121747   4.809   0.467   0.083  0.0177  0.2389  0.1064
 6114SOL    HW221748   4.676   0.447   0.015  0.3323 -2.2386  0.1750
 6115SOL     OW21749   1.997   6.498   8.107 -0.0313 -0.0891 -0.5400
 6115SOL    HW121750   1.967   6.529   8.021  3.4686  2.9986 -0.7922
 6115SOL    HW221751   2.086   6.468   8.091 -0.0977 -1.5125  1.6343
 6116SOL     OW21752   0.320   7.004   9.082 -0.1849  0.0125  0.4505
 6116SOL    HW121753   0.403   6.987   9.038  0.9802  1.7824  1.9021
 6116SOL    HW221754   0.280   7.074   9.031  0.4805  1.0359  1.3185
 6117SOL     OW21755  10.329  10.063   5.611  0.6614  0.2378 -0.2555
 6117SOL    HW121756  10.268  10.107   5.552 -0.6956  1.8652  2.2284
 6117SOL    HW221757  10.291   9.977   5.627  0.0377  0.5213 -0.2294
 6118SOL     OW21758   4.567   4.970   1.102  0.0175  0.4685  0.2914
 6118SOL    HW121759   4.609   4.992   1.185  0.1425 -0.7158  0.5508
 6118SOL    HW221760   4.608   5.027   1.038  0.3339  0.9807  0.9479
 6119SOL     OW21761  10.035   0.478   5.564 -0.4210 -0.3380  0.3347
 6119SOL    HW121762   9.977   0.472   5.640  0.8351  4.2933  1.7699
 6119SOL    HW221763  10.122   0.457   5.598 -0.3251 -1.5887 -0.6166
 6120SOL     OW21764   0.534   3.139   1.222  0.5499  0.1796 -0.4138
 6120SOL    HW121765   0.572   3.189   1.295  1.0158  0.2411 -0.6938
 6120SOL    HW221766   0.607   3.086   1.190  0.7686  1.3427 -1.8720
 6121SOL     OW21767   1.902   4.929   3.455 -0.7783 -0.3760  0.5365
 6121SOL    HW121768   1.958   4.989   3.505 -0.3511 -0.9825  0.7961
 6121SOL    HW221769   1.953   4.909   3.376 -1.0554 -0.1550  0.2985
 6122SOL     OW21770  10.605   4.081   5.781 -0.3273 -0.1016 -0.6279
 6122SOL    HW121771  10.666   4.015   5.747  3.5978  0.9707  3.7537
 6122SOL    HW221772  10.634   4.163   5.739 -0.7194 -0.0627 -0.8227
 6123SOL     OW21773   0.519   9.707   4.363  0.0617 -0.1254 -0.2357
 6123SOL    HW121774   0.480   9.643   4.421 -0.8722  0.3825 -0.2984
 6123SOL    HW221775   0.612   9.707   4.387  0.0569 -1.4451 -0.2019
 6124SOL     OW21776   1.685   0.535   8.913 -0.1915  0.0445  0.1550
 6124SOL    HW121777   1.735   0.467   8.868 -0.7901 -0.4056  0.1554
 6124SOL    HW221778   1.593   0.510   8.898 -0.4179  1.1785 -0.3532
 6125SOL     OW21779   2.783   1.225   0.237  0.0010 -0.0008 -0.5913
 6125SOL    HW121780   2.767   1.218   0.143 -1.5047  1.8058 -0.4837
 6125SOL    HW221781   2.743   1.308   0.263 -0.0231 -0.6953  1.7358
 6126SOL     OW21782   0.056   5.008   4.415 -0.0842 -0.6509  0.8180
 6126SOL    HW121783  -0.008   5.072   4.445  0.3691  0.5622 -0.7628
 6126SOL    HW221784   0.027   4.925   4.454 -1.2874  0.3055  1.9888
 6127SOL     OW21785   1.325   9.170   7.017 -0.4450  0.0520 -0.1494
 6127SOL    HW121786   1.350   9.236   7.082 -2.0958  0.5934 -0.0535
 6127SOL    HW221787   1.285   9.100   7.068 -1.7216  0.4674 -0.5592
 6128SOL     OW21788   3.292   9.225  10.156 -0.1283 -0.1176 -0.0735
 6128SOL    HW121789   3.371   9.189  10.196  0.1776  1.2560  0.5584
 6128SOL    HW221790   3.316   9.313  10.129 -1.1823 -0.0128 -0.6887
 6129SOL     OW21791   8.829   2.455   1.970  0.4198 -0.5875 -0.2390
 6129SOL    HW121792   8.851   2.543   2.000 -0.6567  0.0675 -1.3434
 6129SOL    HW221793   8.800   2.409   2.049 -0.0955  0.3899  0.1464
 6130SOL     OW21794   9.200   0.377   9.609  0.3404  0.1036  0.3549
 6130SOL    HW121795   9.174   0.321   9.536  0.8696 -0.6900  0.7807
 6130SOL    HW221796   9.271   0.431   9.574  0.4755 -0.1529  0.2344
 6131SOL     OW21797   5.948   0.532   3.700  0.5890  0.2344  0.6140
 6131SOL    HW121798   5.971   0.598   3.635  1.0049 -0.2539  0.2566
 6131SOL    HW221799   6.004   0.551   3.776  2.1716 -0.9049 -0.2235
 6132SOL     OW21800   7.996  10.758   3.124 -0.2548 -0.3282  0.6432
 6132SOL    HW121801   7.948  10.677   3.139  2.6735 -2.3424 -0.4240
 6132SOL    HW221802   7.975  10.783   3.035  2.2380 -2.3787 -0.5765
 6133SOL     OW21803   2.068   2.946   5.658  0.0049 -0.1193  0.0006
 6133SOL    HW121804   1.975   2.948   5.679  0.1560  0.1796  0.6655
 6133SOL    HW221805   2.102   3.028   5.694  0.2026  0.6038 -1.8004
 6134SOL     OW21806  10.583   3.854   2.162  0.7448  0.2324 -0.1048
 6134SOL    HW121807  10.626   3.785   2.111  0.7151 -0.4966  0.8377
 6134SOL    HW221808  10.524   3.807   2.221 -0.5590  1.1714 -0.6413
 6135SOL     OW21809   8.794   1.982   7.310  0.3302 -0.1759 -0.2580
 6135SOL    HW121810   8.738   2.030   7.370  1.6633 -1.1650  1.8430
 6135SOL    HW221811   8.812   1.899   7.355  2.2867 -0.4552 -1.5031
 6136SOL     OW21812   9.822   5.918  10.647 -0.0841  0.1579  0.2407
 6136SOL    HW121813   9.758   5.856  10.680  1.8327 -2.2738 -0.4698
 6136SOL    HW221814   9.817   5.910  10.552  0.0896  1.2211  0.1271
 6137SOL     OW21815   4.277   7.934   2.088 -0.7947  0.2668 -0.1038
 6137SOL    HW121816   4.199   7.882   2.067 -0.2258 -0.8404  0.5234
 6137SOL    HW221817   4.273   7.946   2.183  0.5199 -0.9442  0.1086
 6138SOL     OW21818   0.974   9.698   9.361 -0.2553 -0.1808  0.0857
 6138SOL    HW121819   1.056   9.694   9.412 -0.1547 -1.7836 -0.1950
 6138SOL    HW221820   0.905   9.693   9.427 -0.1304 -0.3370  0.2058
 6139SOL     OW21821   4.868   5.854   6.294 -0.1718  0.3776  0.0058
 6139SOL    HW121822   4.923   5.874   6.218 -1.3991  0.7006 -0.7996
 6139SOL    HW221823   4.780   5.842   6.259 -0.8302  0.9125  1.4101
 6140SOL     OW21824   5.185   6.461   1.199  0.3594  0.0587  0.5000
 6140SOL    HW121825   5.154   6.371   1.210  0.8815  0.0872  2.4267
 6140SOL    HW221826   5.109   6.515   1.222  0.0554  0.1329 -0.6262
 6141SOL     OW21827   9.858  10.059   0.645  0.1556 -0.0396  0.3460
 6141SOL    HW121828   9.872   9.991   0.579  3.5885  1.0929 -0.2037
 6141SOL    HW221829   9.809  10.127   0.599  1.9682  0.4632 -0.9214
 6142SOL     OW21830   7.663   9.270   4.395  0.4598 -0.4107 -0.1781
 6142SOL    HW121831   7.618   9.320   4.463  0.9939 -0.7441  0.4248
 6142SOL    HW221832   7.597   9.257   4.327  0.1216  0.5258 -0.0377
 6143SOL     OW21833   7.864   5.852   5.761  0.2321  0.7097  0.1642
 6143SOL    HW121834   7.918   5.838   5.683  0.1113 -0.3530  0.2574
 6143SOL    HW221835   7.888   5.939   5.792 -0.2553  1.4472 -1.4878
 6144SOL     OW21836   6.250   8.779   6.178 -0.6462  0.5301 -0.2751
 6144SOL    HW121837   6.259   8.850   6.114 -1.2562  1.7516  0.9605
 6144SOL    HW221838   6.175   8.728   6.148  1.0808 -0.8833 -2.3539
 6145SOL     OW21839   7.290   1.033   3.017 -0.3054 -0.0830 -0.0738
 6145SOL    HW121840   7.211   0.992   3.049  0.2778 -1.4535 -0.3453
 6145SOL    HW221841   7.354   1.023   3.088 -0.6940  2.0149  0.5887
 6146SOL     OW21842   6.207   9.841   4.918 -0.5975 -0.2082  0.4924
 6146SOL    HW121843   6.119   9.880   4.916  0.3641  1.9598 -1.7456
 6146SOL    HW221844   6.240   9.851   4.829  2.4434  0.2225  1.6167
 6147SOL     OW21845   3.920   6.598   2.687 -0.4564  0.6344  0.2896
 6147SOL    HW121846   3.917   6.503   2.697 -0.3797  0.4653 -1.1482
 6147SOL    HW221847   3.834   6.621   2.654 -0.4874  1.0695  0.6787
 6148SOL     OW21848   0.282   9.564   0.711  0.1669  0.3184 -0.0870
 6148SOL    HW121849   0.204   9.614   0.738 -0.3057 -0.7363  0.5155
 6148SOL    HW221850   0.248   9.480   0.683  1.1265 -0.2510  0.4337
 6149SOL     OW21851   8.295   3.626   3.898  0.6511 -0.2343 -0.3383
 6149SOL    HW121852   8.319   3.601   3.808  2.0503  0.3581 -0.1466
 6149SOL    HW221853   8.283   3.721   3.894  0.3440 -0.2591  0.0272
 6150SOL     OW21854   1.289   5.963  10.382 -0.1763 -0.2000  0.4559
 6150SOL    HW121855   1.236   5.890  10.350  1.0153  0.3722 -3.0316
 6150SOL    HW221856   1.226   6.021  10.426 -1.7844 -1.3606 -0.2683
 6151SOL     OW21857   5.526   5.851   1.037  0.0464 -0.5233  0.1118
 6151SOL    HW121858   5.486   5.800   1.108 -1.8577  0.2466 -0.3825
 6151SOL    HW221859   5.561   5.929   1.080 -0.8106 -0.2162  0.2677
 6152SOL     OW21860   8.313   1.168   0.518  0.1061 -0.0244 -0.1360
 6152SOL    HW121861   8.294   1.238   0.456  2.1071 -1.0343 -1.9735
 6152SOL    HW221862   8.409   1.169   0.526  0.0050 -1.1730  1.4221
 6153SOL     OW21863   9.339   6.694   5.799 -0.0051  0.1643  0.4158
 6153SOL    HW121864   9.299   6.705   5.713 -1.6725 -1.5225  0.9429
 6153SOL    HW221865   9.382   6.778   5.816  1.5344  0.0805 -2.6339
 6154SOL     OW21866   4.825   5.642   0.203 -0.3334 -0.6028 -0.0704
 6154SOL    HW121867   4.907   5.658   0.250  0.4977 -3.9103 -0.2391
 6154SOL    HW221868   4.769   5.599   0.268 -0.8531 -1.0380 -0.8020
 6155SOL     OW21869   9.052   0.758   8.120 -0.1281 -0.1543 -0.1284
 6155SOL    HW121870   9.092   0.823   8.178  0.0870 -0.2124 -0.2135
 6155SOL    HW221871   8.986   0.808   8.071 -0.1023 -0.0435 -0.0501
 6156SOL     OW21872   6.698   4.336   5.915 -0.0133  0.2030 -1.0866
 6156SOL    HW121873   6.660   4.383   5.841  0.9538 -0.5535 -2.0781
 6156SOL    HW221874   6.764   4.279   5.876 -0.6984 -1.4894  0.1473
 6157SOL     OW21875   2.596   9.214  10.643 -0.3898  0.3131 -0.4015
 6157SOL    HW121876   2.660   9.203  10.713  0.1697  1.8257 -0.6663
 6157SOL    HW221877   2.646   9.201  10.562 -0.1870  2.5016 -0.6407
 6158SOL     OW21878   1.417   0.554  10.307 -0.2239 -0.0504  0.3563
 6158SOL    HW121879   1.352   0.544  10.237 -0.4785 -0.2309  0.6198
 6158SOL    HW221880   1.482   0.486  10.289  0.0906  0.3718 -0.1231
 6159SOL     OW21881   9.113   6.821   4.913 -0.0598  0.1674  0.3538
 6159SOL    HW121882   9.181   6.792   4.973 -0.8608 -0.8408  0.7846
 6159SOL    HW221883   9.034   6.825   4.967 -0.6071  0.0934 -0.4457
 6160SOL     OW21884   0.639   5.273   0.476  0.0823  0.5023  0.0946
 6160SOL    HW121885   0.564   5.222   0.506  0.0800  0.5326  0.1409
 6160SOL    HW221886   0.714   5.235   0.522  0.2067 -0.0286 -0.5363
 6161SOL     OW21887   8.522  10.305   8.133 -0.0918  0.1446 -0.0206
 6161SOL    HW121888   8.440  10.298   8.181  0.5118  0.3805  1.0743
 6161SOL    HW221889   8.507  10.257   8.051 -0.6115 -1.6379  1.1083
 6162SOL     OW21890   3.443   5.911   4.399 -0.7690  0.3564 -0.2088
 6162SOL    HW121891   3.484   5.980   4.348  1.3111 -1.2896 -0.8449
 6162SOL    HW221892   3.449   5.833   4.344 -2.3020 -0.5390  0.8303
 6163SOL     OW21893   3.813   6.286   4.332  0.0132  0.1537 -0.2050
 6163SOL    HW121894   3.826   6.321   4.420  0.6381  1.1779 -0.6836
 6163SOL    HW221895   3.780   6.361   4.281 -2.9657 -1.1193 -0.2256
 6164SOL     OW21896   0.843   5.690   6.531  0.1626  0.5526  0.5295
 6164SOL    HW121897   0.921   5.738   6.556 -0.9763  2.2893  0.8284
 6164SOL    HW221898   0.795   5.677   6.613  0.7765 -1.7231  0.5659
 6165SOL     OW21899   1.167   7.366   8.046 -0.0806  0.1798  0.7803
 6165SOL    HW121900   1.239   7.391   8.104 -1.1024  3.3589  0.7335
 6165SOL    HW221901   1.101   7.434   8.058 -1.0995 -0.1003 -2.7094
 6166SOL     OW21902   7.704   1.853   9.531  0.0540  0.4499 -0.0333
 6166SOL    HW121903   7.677   1.886   9.616 -1.7067 -0.6395 -0.1445
 6166SOL    HW221904   7.774   1.911   9.504 -0.6996  2.0038  1.2859
 6167SOL     OW21905   7.302   2.099   6.726 -0.6435 -0.2769  0.1466
 6167SOL    HW121906   7.395   2.108   6.709 -0.8966 -1.8050 -2.3725
 6167SOL    HW221907   7.296   2.072   6.817  1.4291 -1.3515 -0.0157
 6168SOL     OW21908   8.382   8.654   3.061 -0.3393  0.0057 -0.1983
 6168SOL    HW121909   8.296   8.614   3.072 -0.2151 -0.4606 -0.8611
 6168SOL    HW221910   8.367   8.726   2.999 -0.4283  0.5526  0.4464
 6169SOL     OW21911   7.468   9.652   8.793  0.4812 -0.4164  0.2080
 6169SOL    HW121912   7.415   9.731   8.788  2.2074  0.6858 -1.1955
 6169SOL    HW221913   7.405   9.580   8.784 -0.9145  0.8139 -0.0802
 6170SOL     OW21914   4.382  10.438   0.215  0.5515 -0.3397 -0.3167
 6170SOL    HW121915   4.410  10.460   0.303 -1.6262  0.1718  0.2759
 6170SOL    HW221916   4.294  10.476   0.206  1.1850  0.6125 -3.1072
 6171SOL     OW21917   4.122   2.012   0.097  0.3410  0.8487 -0.4675
 6171SOL    HW121918   4.174   1.938   0.126 -1.0393  0.2049  0.4330
 6171SOL    HW221919   4.076   1.981   0.019 -0.5731  0.5881  0.1599
 6172SOL     OW21920   6.061   1.687   6.148  0.2155 -0.1246  0.3287
 6172SOL    HW121921   5.974   1.704   6.185 -0.2277  0.0138 -0.7453
 6172SOL    HW221922   6.085   1.601   6.181 -0.7302 -0.5570 -0.0895
 6173SOL     OW21923   7.235   3.212   9.141  0.1921 -0.0223 -0.3438
 6173SOL    HW121924   7.327   3.238   9.131  0.1066 -0.4739 -2.7213
 6173SOL    HW221925   7.232   3.122   9.108 -0.7564 -0.7048  1.5373
 6174SOL     OW21926   9.433   7.399  10.739  0.6117  0.0195  0.1472
 6174SOL    HW121927   9.477   7.441  10.666  1.3756 -2.0163 -0.6011
 6174SOL    HW221928   9.346   7.438  10.740  0.5849  0.0722 -1.8670
 6175SOL     OW21929   7.375   0.964   7.010 -0.3424 -0.2605 -0.0166
 6175SOL    HW121930   7.333   1.050   6.997  0.1979 -0.1168 -0.8371
 6175SOL    HW221931   7.424   0.974   7.091  1.9630  1.1157 -1.5191
 6176SOL     OW21932   7.884   0.052   8.499  0.0237 -0.0837 -0.0636
 6176SOL    HW121933   7.818   0.120   8.515  0.5828  0.4241  0.1051
 6176SOL    HW221934   7.918   0.072   8.412 -0.6694 -0.8739 -0.5203
 6177SOL     OW21935   5.025   0.408   0.300 -0.0444  0.2000  0.2584
 6177SOL    HW121936   5.067   0.441   0.380 -3.3446  2.1982  1.2924
 6177SOL    HW221937   5.032   0.481   0.238  1.1307 -0.7824 -0.7859
 6178SOL     OW21938   2.542   8.135   3.877 -0.0436  0.0742 -0.0676
 6178SOL    HW121939   2.547   8.218   3.830 -2.1678 -0.8559 -2.0204
 6178SOL    HW221940   2.600   8.147   3.952 -1.1305  3.7172  0.3060
 6179SOL     OW21941   2.434   0.159  10.787  0.1576  0.6299  0.8968
 6179SOL    HW121942   2.449   0.114  10.870 -1.2773  0.7272  1.2332
 6179SOL    HW221943   2.392   0.093  10.731 -1.1874  1.2748  1.1126
 6180SOL     OW21944   7.796   3.529   5.550 -0.4986  0.7507 -0.2346
 6180SOL    HW121945   7.734   3.596   5.522 -0.1537  0.4809 -1.7037
 6180SOL    HW221946   7.859   3.524   5.479  0.3364 -0.0713  0.5500
 6181SOL     OW21947   5.906   9.946   2.664  0.2682 -0.0025 -0.1110
 6181SOL    HW121948   5.847  10.019   2.643 -0.0864 -0.1920  0.2167
 6181SOL    HW221949   5.895   9.886   2.590  0.0065 -0.0625 -0.0259
 6182SOL     OW21950   1.913   8.424   0.775 -0.2449  0.9704 -0.0279
 6182SOL    HW121951   1.971   8.351   0.754 -0.8917  0.0992  1.2047
 6182SOL    HW221952   1.952   8.499   0.729  0.6294 -0.0554 -0.9885
 6183SOL     OW21953   7.179   8.216  10.346 -0.2792 -0.3599 -0.1866
 6183SOL    HW121954   7.127   8.238  10.424  0.8878 -1.1786  0.8276
 6183SOL    HW221955   7.204   8.125  10.358 -0.7019 -0.7305 -1.8910
 6184SOL     OW21956   5.898   7.108  10.259 -0.1248 -0.0847 -0.5350
 6184SOL    HW121957   5.894   7.170  10.187  0.3856 -0.0945 -0.5721
 6184SOL    HW221958   5.806   7.087  10.278 -0.3943  2.1094  0.6999
 6185SOL     OW21959   9.501   5.642  10.444 -0.1617 -0.2101 -0.2678
 6185SOL    HW121960   9.447   5.711  10.483 -0.9346 -1.9032  1.7481
 6185SOL    HW221961   9.438   5.583  10.403  0.5594  0.7678 -2.8819
 6186SOL     OW21962   0.317   7.130   1.477  0.0260  0.4748  0.6787
 6186SOL    HW121963   0.313   7.089   1.563 -0.0639 -0.5383  0.2012
 6186SOL    HW221964   0.226   7.136   1.449  0.2245 -2.1903 -0.7154
 6187SOL     OW21965   9.102   9.011   6.838 -0.9192 -0.0982  0.5252
 6187SOL    HW121966   9.052   9.087   6.807 -0.0611  0.0055 -0.6650
 6187SOL    HW221967   9.112   8.956   6.760 -0.8367 -1.0297  1.1979
 6188SOL     OW21968   0.870   3.795   3.486  0.3977 -0.7115 -0.7080
 6188SOL    HW121969   0.779   3.768   3.476  0.1952  0.5887 -2.6438
 6188SOL    HW221970   0.869   3.852   3.563 -1.0225  1.6564 -2.3958
 6189SOL     OW21971  10.091   7.084   2.200 -0.2214  0.1917 -0.0316
 6189SOL    HW121972  10.089   7.015   2.266 -0.9657  0.3756  0.1447
 6189SOL    HW221973  10.023   7.059   2.138  0.1893  0.2427 -0.5069
 6190SOL     OW21974   7.180   6.904   3.353 -0.7613 -0.3727  0.0368
 6190SOL    HW121975   7.261   6.853   3.346  0.6148  1.3704  2.3348
 6190SOL    HW221976   7.111   6.838   3.365  0.4183 -1.8402 -1.1121
 6191SOL     OW21977   4.286   2.749   3.244 -0.3949  0.1286 -0.8339
 6191SOL    HW121978   4.288   2.828   3.298 -1.1850  0.4064 -1.1931
 6191SOL    HW221979   4.291   2.677   3.306 -0.2924  0.4542 -0.4616
 6192SOL     OW21980   7.009   8.909   9.631  0.7901 -0.3513 -0.3371
 6192SOL    HW121981   6.993   8.913   9.726  0.4173 -0.4587 -0.3947
 6192SOL    HW221982   7.060   8.988   9.612  0.3481 -0.0233 -0.1489
 6193SOL     OW21983   9.522   1.967  10.700 -1.0182 -0.3026  0.4453
 6193SOL    HW121984   9.616   1.969  10.682 -1.3113 -0.0889 -1.1740
 6193SOL    HW221985   9.514   1.997  10.790  0.3226  1.8570 -0.1075
 6194SOL     OW21986   8.246   1.621   9.941 -0.2503 -0.6878  0.1663
 6194SOL    HW121987   8.277   1.589  10.026  0.0851 -0.3167  0.1866
 6194SOL    HW221988   8.323   1.617   9.884 -0.1896  0.1461  0.1891
 6195SOL     OW21989   7.104   7.873   7.449 -0.0773  0.1883 -0.9396
 6195SOL    HW121990   7.015   7.904   7.459 -0.4150  0.3316 -3.9744
 6195SOL    HW221991   7.158   7.940   7.490 -1.3522  0.1161  0.8684
 6196SOL     OW21992   5.142   2.526   4.227 -0.4551  0.4367 -0.2308
 6196SOL    HW121993   5.225   2.571   4.241  0.0153 -0.0744 -1.2742
 6196SOL    HW221994   5.112   2.502   4.315  0.5903  0.4786  0.1465
 6197SOL     OW21995   7.984   8.079   8.455  0.4358 -0.3070  0.4429
 6197SOL    HW121996   8.045   8.141   8.494 -0.6166  0.7538  0.4155
 6197SOL    HW221997   8.005   8.079   8.362  0.0775  0.4305  0.3585
 6198SOL     OW21998   8.148   8.277   8.537  0.3892  0.3242  0.0339
 6198SOL    HW121999   8.239   8.258   8.558 -0.3733  0.2002  3.5667
 6198SOL    HW222000   8.128   8.356   8.588 -1.2946  0.7061 -1.1872
 6199SOL     OW22001   2.766   0.417   9.177  0.2054 -0.8540 -0.0484
 6199SOL    HW122002   2.749   0.394   9.086 -0.2203 -0.4195 -0.0850
 6199SOL    HW222003   2.695   0.478   9.200  1.4021  0.5663 -0.0188
 6200SOL     OW22004   2.960   1.924   4.467 -0.9166 -0.6139  0.8395
 6200SOL    HW122005   2.882   1.882   4.431 -0.0776 -0.8098 -0.8157
 6200SOL    HW222006   3.020   1.852   4.486  0.6718 -0.2495 -2.3610
 6201SOL     OW22007   6.412   0.297   9.601 -0.1051  0.6765  0.7067
 6201SOL    HW122008   6.343   0.299   9.667 -0.4254  0.7825  0.3710
 6201SOL    HW222009   6.367   0.316   9.519 -0.3186 -2.9106 -0.0813
 6202SOL     OW22010   5.037   3.822   9.738  0.0352 -0.3115 -0.0655
 6202SOL    HW122011   5.053   3.843   9.646  1.5324 -1.1752 -0.0202
 6202SOL    HW222012   5.109   3.865   9.784 -0.7616  0.1893  0.7106
 6203SOL     OW22013   2.294   7.701   0.986  0.2432  0.2791  0.0227
 6203SOL    HW122014   2.251   7.634   0.934  0.2914  0.2300  0.0466
 6203SOL    HW222015   2.371   7.658   1.024  0.6728  0.5450 -0.5448
 6204SOL     OW22016   1.697  10.200   0.425  0.0276  0.7495 -0.1730
 6204SOL    HW122017   1.604  10.220   0.415 -0.4298 -0.6978  0.9472
 6204SOL    HW222018   1.735  10.278   0.465 -0.3640  1.9903 -2.1268
 6205SOL     OW22019   7.923   8.322   3.437 -0.3650 -0.1765 -0.2500
 6205SOL    HW122020   7.896   8.401   3.484 -0.1627 -0.3915  0.2268
 6205SOL    HW222021   7.843   8.271   3.427 -0.0161 -1.1560  1.8095
 6206SOL     OW22022   7.995   4.632   7.365 -0.1403 -0.2740  0.1911
 6206SOL    HW122023   7.925   4.609   7.426  1.2899  0.6260  2.2166
 6206SOL    HW222024   7.960   4.609   7.278 -3.3479  1.1994  1.0373
 6207SOL     OW22025   0.229   1.365  10.181  0.4162 -0.3160  0.6936
 6207SOL    HW122026   0.142   1.368  10.141  0.8343 -1.0795 -0.3065
 6207SOL    HW222027   0.213   1.370  10.275 -0.6862 -0.1078  0.4978
 6208SOL     OW22028   6.922   7.080   8.580  0.1407  0.2048 -0.2527
 6208SOL    HW122029   6.865   7.157   8.574  2.2037  1.8503  0.7774
 6208SOL    HW222030   6.936   7.068   8.673  0.2815 -1.1214 -0.4337
 6209SOL     OW22031   6.080   7.061   3.671 -0.2911  0.2656  0.6349
 6209SOL    HW122032   6.102   7.093   3.758 -0.8714 -1.2950  1.3859
 6209SOL    HW222033   6.156   7.011   3.643 -0.7461 -0.6231  0.9598
 6210SOL     OW22034   1.788   8.304   9.824 -0.4970 -1.2064 -0.2600
 6210SOL    HW122035   1.730   8.229   9.811 -0.0588 -1.4698 -0.7385
 6210SOL    HW222036   1.859   8.271   9.878 -0.4526 -1.0632 -0.2311
 6211SOL     OW22037   6.424   5.946   2.346  0.3888  0.5788 -0.0255
 6211SOL    HW122038   6.517   5.968   2.349  0.5981 -0.2922 -0.1547
 6211SOL    HW222039   6.383   6.022   2.304  1.0932  0.7679 -0.3785
 6212SOL     OW22040   2.187   2.189   0.474  0.5304  0.5141 -0.2960
 6212SOL    HW122041   2.136   2.113   0.503  0.0228  1.1495  0.4919
 6212SOL    HW222042   2.265   2.151   0.435 -0.4720 -0.4741 -1.3875
 6213SOL     OW22043   6.762  10.931  10.009 -0.2239 -0.2423  0.3702
 6213SOL    HW122044   6.731  10.910  10.097  0.6545 -0.5017  0.6223
 6213SOL    HW222045   6.693  10.985   9.971 -0.7514 -0.4013  1.1059
 6214SOL     OW22046   0.794   6.010   3.417 -0.4488 -0.3834  0.2440
 6214SOL    HW122047   0.727   5.999   3.484 -0.3160 -0.1582  0.4131
 6214SOL    HW222048   0.871   6.042   3.464 -0.6466  0.7040 -0.1521
 6215SOL     OW22049   2.756   1.232   8.381  0.0422  0.0929 -0.6551
 6215SOL    HW122050   2.804   1.159   8.422 -0.7652 -0.4292 -0.6293
 6215SOL    HW222051   2.824   1.297   8.362  0.8848 -0.9490 -1.3229
 6216SOL     OW22052   5.431   9.740   1.134  0.1140  0.0827  0.7309
 6216SOL    HW122053   5.456   9.829   1.110  0.8573 -0.3085  0.0478
 6216SOL    HW222054   5.350   9.724   1.084  1.8175 -0.8420 -1.8566
 6217SOL     OW22055   4.822   4.750   4.168 -0.0773  0.0397 -0.0219
 6217SOL    HW122056   4.883   4.824   4.169  0.1991 -0.1791 -0.3160
 6217SOL    HW222057   4.776   4.759   4.084  0.4790 -0.5352 -0.3957
 6218SOL     OW22058   4.408   5.736   1.563  0.1518  0.4241 -0.4337
 6218SOL    HW122059   4.442   5.646   1.570  2.5548  1.2131 -1.4004
 6218SOL    HW222060   4.382   5.744   1.471 -0.8509  0.4606 -0.1498
 6219SOL     OW22061  10.228   4.597   9.969  0.7303  0.6950  0.1832
 6219SOL    HW122062  10.254   4.549  10.048  1.6179 -0.2040 -0.6358
 6219SOL    HW222063  10.168   4.538   9.924  2.1869  0.1074 -1.0666
 6220SOL     OW22064  10.602   4.979   5.845 -0.5095 -0.0393 -0.1506
 6220SOL    HW122065  10.601   4.884   5.851 -3.8496  0.0399  1.7359
 6220SOL    HW222066  10.653   5.007   5.921 -1.2272 -0.2922  0.4298
 6221SOL     OW22067   3.145   2.078   2.617  0.0283  0.1568  0.3423
 6221SOL    HW122068   3.241   2.082   2.614  0.0373 -0.6103 -0.5832
 6221SOL    HW222069   3.120   2.030   2.538 -1.1641  0.9279  0.2330
 6222SOL     OW22070   0.611   7.984   1.018  0.2142 -0.4312  0.1223
 6222SOL    HW122071   0.590   7.965   0.926  1.5085 -1.1085 -0.0380
 6222SOL    HW222072   0.529   7.964   1.065 -0.6066  0.3932 -0.9318
 6223SOL     OW22073   6.370   0.414   0.276  0.0438 -0.5571 -0.4121
 6223SOL    HW122074   6.402   0.503   0.258  0.9537 -0.9845 -0.9274
 6223SOL    HW222075   6.278   0.426   0.300  0.1598  0.5241 -0.4874
 6224SOL     OW22076   5.446   7.549   9.276 -0.3114 -0.0334  0.4441
 6224SOL    HW122077   5.357   7.561   9.240 -0.5779 -0.6679  0.8794
 6224SOL    HW222078   5.503   7.550   9.199 -0.9530 -2.1544 -0.1237
 6225SOL     OW22079   9.934  10.672   2.916 -0.0066 -0.5894 -0.1897
 6225SOL    HW122080  10.025  10.697   2.899 -0.3440  1.6319  1.1162
 6225SOL    HW222081   9.882  10.736   2.868 -0.8947 -0.6079  0.7262
 6226SOL     OW22082  10.329   8.785   6.360 -0.4864  0.0326  0.3825
 6226SOL    HW122083  10.354   8.705   6.314 -1.4955  0.4127 -0.8257
 6226SOL    HW222084  10.290   8.754   6.442  0.0981 -0.6740  0.4003
 6227SOL     OW22085   2.919   4.015   7.191 -0.5182  0.4896 -0.3086
 6227SOL    HW122086   2.985   4.008   7.122 -1.8984 -0.1616 -1.5945
 6227SOL    HW222087   2.853   4.075   7.155 -0.8945  0.7069  0.7366
 6228SOL     OW22088   9.373  10.117   3.453  0.3972  0.2388  0.4616
 6228SOL    HW122089   9.415  10.196   3.488 -0.3180  0.4348  0.8976
 6228SOL    HW222090   9.408  10.046   3.507  2.4791  0.0060 -1.1573
 6229SOL     OW22091   8.694   5.037  10.682 -0.1528  0.1364  0.0302
 6229SOL    HW122092   8.620   4.978  10.664  0.7865 -1.5323  1.4396
 6229SOL    HW222093   8.678   5.070  10.770  0.3373  0.4674 -0.0026
 6230SOL     OW22094   0.369   0.685   3.788  0.2450  0.4745 -0.6116
 6230SOL    HW122095   0.291   0.629   3.788 -0.1356  0.9822  1.3176
 6230SOL    HW222096   0.441   0.626   3.765 -0.1262 -0.8630  1.5468
 6231SOL     OW22097   0.006   3.789   7.085  0.5458  0.0490 -0.2765
 6231SOL    HW122098  -0.089   3.780   7.082  0.4847  0.9962 -1.5692
 6231SOL    HW222099   0.039   3.700   7.080 -0.2977 -0.3833  1.5665
 6232SOL     OW22100   0.673   8.344   5.795  0.2774 -0.2782 -0.2545
 6232SOL    HW122101   0.689   8.251   5.807 -2.3133 -0.5814  1.1535
 6232SOL    HW222102   0.702   8.384   5.877 -1.0138 -0.1836  0.1670
 6233SOL     OW22103   2.212   2.370   4.851  0.2248 -0.0710 -0.1928
 6233SOL    HW122104   2.258   2.287   4.846  0.5098  0.1561 -1.7544
 6233SOL    HW222105   2.255   2.418   4.922 -0.4874 -1.5649  1.2632
 6234SOL     OW22106   0.621   8.733   7.247 -0.2985  0.4127 -0.1346
 6234SOL    HW122107   0.602   8.802   7.183 -0.4147  1.0125  0.5409
 6234SOL    HW222108   0.573   8.758   7.325 -0.6144 -0.6240  0.0129
 6235SOL     OW22109   5.240   6.852   9.165  0.4997 -0.2297 -0.0396
 6235SOL    HW122110   5.306   6.846   9.234  0.6835  2.2329  0.0357
 6235SOL    HW222111   5.174   6.786   9.189  2.1209 -1.5871  0.7543
 6236SOL     OW22112   5.390  10.414   3.953  0.7153  0.9341  0.1783
 6236SOL    HW122113   5.449  10.397   4.027  1.1867  1.3937 -0.0870
 6236SOL    HW222114   5.386  10.331   3.906 -0.8030  0.1850  1.5659
 6237SOL     OW22115   7.080   7.905   8.145 -0.7421 -0.6044  0.2817
 6237SOL    HW122116   7.041   7.918   8.232 -1.4176  0.0345 -0.1133
 6237SOL    HW222117   7.011   7.930   8.084 -1.1274 -3.3784 -0.4821
 6238SOL     OW22118   3.668  10.913   9.924 -0.3450  0.3810  0.0056
 6238SOL    HW122119   3.598  10.906   9.989  0.1200  0.1957  0.4775
 6238SOL    HW222120   3.736  10.853   9.954 -0.0802  0.3836 -0.5872
 6239SOL     OW22121   2.746   4.357   6.719 -0.2842  0.1233 -0.3026
 6239SOL    HW122122   2.684   4.420   6.681  0.7704  0.3048 -1.7611
 6239SOL    HW222123   2.777   4.399   6.799  0.0305  1.2459 -0.9973
 6240SOL     OW22124   1.990   8.660   9.502 -0.2712 -0.4661  0.8179
 6240SOL    HW122125   1.984   8.644   9.408  0.9752  1.0112  0.4648
 6240SOL    HW222126   2.025   8.578   9.537 -0.1883 -0.8254 -0.0750
 6241SOL     OW22127   6.300   8.018   3.399  0.2327  0.3973 -0.0706
 6241SOL    HW122128   6.271   7.930   3.423  0.0408  0.3087 -0.6170
 6241SOL    HW222129   6.222   8.060   3.365  0.0376  1.2047  1.3550
 6242SOL     OW22130   4.000   4.618   2.100 -0.1616 -0.3940  0.4064
 6242SOL    HW122131   4.035   4.530   2.083  0.4469 -0.3354  1.2870
 6242SOL    HW222132   4.018   4.633   2.193  2.2278  1.7536 -0.3477
 6243SOL     OW22133   8.924   1.181   4.796 -0.2115  0.1368  0.1265
 6243SOL    HW122134   8.843   1.146   4.761  0.0227  0.3879 -0.6856
 6243SOL    HW222135   8.978   1.104   4.814 -0.0587  0.0306 -0.7576
 6244SOL     OW22136   5.277   6.624   6.149  0.0641 -1.0362 -0.1662
 6244SOL    HW122137   5.315   6.692   6.204  0.6174 -0.0556 -1.7308
 6244SOL    HW222138   5.349   6.563   6.135  0.7439  0.1796 -2.1079
 6245SOL     OW22139   4.692   7.220   5.875 -0.2647 -0.4572  0.0906
 6245SOL    HW122140   4.608   7.250   5.910 -1.2920 -2.0140 -0.9704
 6245SOL    HW222141   4.680   7.222   5.780  1.1638 -0.0031 -0.0922
 6246SOL     OW22142   1.435   3.403   8.835 -0.3378  0.0253 -1.0084
 6246SOL    HW122143   1.371   3.423   8.766  1.4845 -0.9093 -3.0424
 6246SOL    HW222144   1.508   3.462   8.817 -0.5919  1.0641  1.2726
 6247SOL     OW22145   2.271   6.538   3.762  0.1253 -0.1965  0.6558
 6247SOL    HW122146   2.223   6.562   3.682  1.2426  0.1885  0.0873
 6247SOL    HW222147   2.339   6.477   3.732  0.6346  0.0478  1.2833
 6248SOL     OW22148   8.950   9.580   5.801  0.0377  0.5986 -0.4646
 6248SOL    HW122149   8.907   9.595   5.885  2.2752  0.7792  0.6824
 6248SOL    HW222150   8.934   9.660   5.751 -0.8541  0.6974 -0.0306
 6249SOL     OW22151   9.723   7.759   0.690  0.4343 -0.1568 -0.1933
 6249SOL    HW122152   9.750   7.668   0.697  0.2692 -0.2962 -1.3442
 6249SOL    HW222153   9.784   7.797   0.627  0.4520  0.5141  0.2174
 6250SOL     OW22154   7.158   4.155   0.469 -0.8450 -0.8499 -0.6313
 6250SOL    HW122155   7.071   4.185   0.441 -1.0914 -0.3894  0.5974
 6250SOL    HW222156   7.189   4.100   0.397 -2.0918 -0.8855 -1.1524
 6251SOL     OW22157   6.043   0.458   4.947 -0.1086  0.6476  0.4291
 6251SOL    HW122158   6.040   0.529   4.883 -1.2698  1.0946  0.9498
 6251SOL    HW222159   5.959   0.413   4.936  0.4932 -0.4570  0.3170
 6252SOL     OW22160   8.117   2.559   2.991  0.2465  0.6410  0.1546
 6252SOL    HW122161   8.039   2.578   3.043 -0.4061 -0.4724 -0.3902
 6252SOL    HW222162   8.101   2.472   2.955  1.2493  0.8675 -0.8774
 6253SOL     OW22163   7.649   7.570   5.089  0.2586  0.2285 -0.3248
 6253SOL    HW122164   7.558   7.593   5.107 -0.0407 -0.8829 -0.4077
 6253SOL    HW222165   7.688   7.652   5.057 -0.5844  0.8290  0.1578
 6254SOL     OW22166   2.151   1.172   4.199 -0.1913  0.5262  0.1657
 6254SOL    HW122167   2.117   1.254   4.236  0.9020  1.6448 -1.2099
 6254SOL    HW222168   2.174   1.119   4.275 -1.3127  1.3202  1.0838
 6255SOL     OW22169   2.499   3.933   6.442 -0.5329 -0.1889 -0.1534
 6255SOL    HW122170   2.587   3.972   6.441 -0.5813 -0.0822 -0.7234
 6255SOL    HW222171   2.468   3.947   6.531 -0.4600  0.9085 -0.2851
 6256SOL     OW22172   3.883   5.457   4.656  0.0617 -0.0797 -0.5965
 6256SOL    HW122173   3.813   5.515   4.686  0.6580  0.6994 -0.6870
 6256SOL    HW222174   3.847   5.369   4.665 -0.3510  0.2280  0.8744
 6257SOL     OW22175   8.848   4.537   2.156 -0.1239 -0.4509  0.9199
 6257SOL    HW122176   8.929   4.549   2.107 -1.9478  1.0890 -1.8043
 6257SOL    HW222177   8.795   4.613   2.134 -3.5362 -2.9365  0.1711
 6258SOL     OW22178   4.820   3.507   6.270 -0.0333  0.7280  0.1011
 6258SOL    HW122179   4.776   3.464   6.197 -0.4926 -0.7146  1.2034
 6258SOL    HW222180   4.752   3.516   6.337  0.5109  1.5966  0.5533
 6259SOL     OW22181   1.502   1.591   8.242  0.0131  0.1982 -0.0523
 6259SOL    HW122182   1.561   1.648   8.191  0.5076  0.5777  0.9349
 6259SOL    HW222183   1.532   1.600   8.332 -0.1739 -1.3251  0.1735
 6260SOL     OW22184   8.838   9.832   7.710 -0.2643  0.1497 -0.2426
 6260SOL    HW122185   8.916   9.783   7.685 -0.8531 -1.8460  1.6586
 6260SOL    HW222186   8.871   9.902   7.766  0.0989 -1.5077  1.6953
 6261SOL     OW22187   3.789   7.522   2.239 -0.6838 -0.3146  0.7752
 6261SOL    HW122188   3.859   7.461   2.217  0.7872  1.0011  1.7408
 6261SOL    HW222189   3.730   7.518   2.164  0.9941 -0.5892 -0.5663
 6262SOL     OW22190   3.909   5.442   5.534  0.0267 -0.0396 -0.0943
 6262SOL    HW122191   3.915   5.421   5.627  1.5616  0.5630 -0.0554
 6262SOL    HW222192   3.979   5.392   5.493  0.6155  1.2480 -0.6569
 6263SOL     OW22193   8.441   4.806   2.279  0.3780  0.0086 -0.5372
 6263SOL    HW122194   8.500   4.816   2.353 -2.7799 -0.4287  2.1877
 6263SOL    HW222195   8.456   4.717   2.247 -0.4661 -0.9889  1.7175
 6264SOL     OW22196   1.512  10.187   9.194 -0.1369  0.0067 -0.3847
 6264SOL    HW122197   1.494  10.093   9.202  1.4114 -0.2639  0.0726
 6264SOL    HW222198   1.463  10.227   9.266  0.1058 -0.5844  0.1190
 6265SOL     OW22199   2.260   5.957   7.325  0.3702 -0.1626 -0.0310
 6265SOL    HW122200   2.266   5.864   7.343  1.3395 -0.0787  0.1374
 6265SOL    HW222201   2.167   5.976   7.321  0.1715 -0.9583  0.8901
 6266SOL     OW22202   9.045   7.510   8.041 -0.1433 -0.5082  0.0228
 6266SOL    HW122203   9.139   7.508   8.058 -0.3681 -1.2946  1.2487
 6266SOL    HW222204   9.009   7.564   8.111 -0.9853 -3.0998  1.6619
 6267SOL     OW22205   2.005   8.333   2.315 -0.0521 -0.6884  0.8241
 6267SOL    HW122206   2.021   8.406   2.376 -0.4648  0.3004 -0.2304
 6267SOL    HW222207   1.916   8.304   2.335 -0.7997  0.6997 -0.3727
 6268SOL     OW22208   8.028   5.957   1.636  0.3701  0.0059  0.2060
 6268SOL    HW122209   8.087   5.931   1.565 -0.4823 -2.3404  0.3221
 6268SOL    HW222210   7.941   5.940   1.601 -0.0996  0.0233  1.3685
 6269SOL     OW22211   9.109   0.390   6.255  0.0052 -0.2164 -0.5645
 6269SOL    HW122212   9.194   0.428   6.237  0.0507 -0.0593 -0.0189
 6269SOL    HW222213   9.048   0.440   6.202 -0.2140  1.9677  1.6422
 6270SOL     OW22214   0.692   1.217   0.419  0.1701  0.4560  0.1041
 6270SOL    HW122215   0.669   1.138   0.370 -0.2639  0.5870  0.0951
 6270SOL    HW222216   0.707   1.284   0.352  0.7733  0.3211  0.1017
 6271SOL     OW22217  10.832   9.088   3.741 -0.1160 -0.0175 -0.3178
 6271SOL    HW122218  10.822   9.097   3.647  2.2877  0.0818 -0.6021
 6271SOL    HW222219  10.784   9.008   3.763  1.4490 -1.4694 -2.0358
 6272SOL     OW22220   8.147   5.686   0.872 -0.2605  0.2031 -0.0535
 6272SOL    HW122221   8.187   5.741   0.805  0.1074  0.3627  0.2923
 6272SOL    HW222222   8.091   5.746   0.922 -0.0390  0.2169  0.1793
 6273SOL     OW22223   2.766   2.629   9.882  0.2628 -0.4372 -0.8065
 6273SOL    HW122224   2.767   2.693   9.811  0.9930 -1.2580 -1.5391
 6273SOL    HW222225   2.858   2.607   9.896  0.4887  2.2807  2.7237
 6274SOL     OW22226   0.315  10.235   7.392  0.0416 -0.0009 -0.8599
 6274SOL    HW122227   0.252  10.173   7.428  1.4754 -0.5405  0.7916
 6274SOL    HW222228   0.296  10.237   7.299 -2.4983 -0.0416 -0.3777
 6275SOL     OW22229   5.031   1.097   4.560 -0.2516 -0.3904  0.3243
 6275SOL    HW122230   4.986   1.025   4.517 -0.9439  1.3769 -1.9661
 6275SOL    HW222231   5.094   1.128   4.495  0.6706  0.4950  1.6179
 6276SOL     OW22232   8.713   4.556  10.441 -0.3248  0.3114 -0.3046
 6276SOL    HW122233   8.643   4.516  10.493 -2.0353  1.0366 -1.9561
 6276SOL    HW222234   8.791   4.505  10.461 -1.8438 -2.0349 -0.1800
 6277SOL     OW22235   3.108   1.990   7.015 -0.1619 -0.4511 -0.8345
 6277SOL    HW122236   3.158   2.070   6.995 -0.9226  0.4967  0.9622
 6277SOL    HW222237   3.044   1.984   6.945 -0.0999  0.5164 -0.9826
 6278SOL     OW22238   8.286   1.367   1.593 -0.3395  0.1892  0.1948
 6278SOL    HW122239   8.327   1.417   1.664  0.1441  0.2878 -0.1566
 6278SOL    HW222240   8.316   1.410   1.513 -2.5023  1.3526 -0.0422
 6279SOL     OW22241   0.746   4.705   3.942 -0.1093 -0.5277 -0.5482
 6279SOL    HW122242   0.804   4.629   3.953 -1.5381 -1.4179  1.1656
 6279SOL    HW222243   0.719   4.727   4.031 -2.1616  0.0552 -1.2973
 6280SOL     OW22244  10.589   1.101   9.633 -0.5581  0.3089  0.3657
 6280SOL    HW122245  10.599   1.006   9.636 -0.8875  0.2587 -0.0333
 6280SOL    HW222246  10.499   1.116   9.665 -0.6446  0.4548  0.0563
 6281SOL     OW22247   7.931   3.914   1.173  0.4561  0.3183 -0.1961
 6281SOL    HW122248   7.964   4.002   1.188  1.8812 -0.3678  0.8639
 6281SOL    HW222249   7.858   3.904   1.235  1.9430 -0.1269  1.5090
 6282SOL     OW22250   4.899   5.294   9.865  0.8169 -0.7348  0.2073
 6282SOL    HW122251   4.921   5.261   9.778  0.9371 -2.9106  1.0210
 6282SOL    HW222252   4.982   5.299   9.911  0.4482 -2.1945  1.0481
 6283SOL     OW22253   0.565   1.715   9.541 -0.4281  0.0912 -0.4486
 6283SOL    HW122254   0.475   1.731   9.570 -0.1854  1.3473 -0.3715
 6283SOL    HW222255   0.604   1.802   9.533  0.4346 -0.3920 -1.6262
 6284SOL     OW22256   4.607   1.797   6.933 -0.5958 -0.4636 -0.0045
 6284SOL    HW122257   4.531   1.779   6.988 -0.2896 -0.3716  0.4550
 6284SOL    HW222258   4.664   1.721   6.945 -0.8343 -0.7566 -0.7278
 6285SOL     OW22259   4.170   4.272   9.787 -0.5281  0.6529 -0.3504
 6285SOL    HW122260   4.152   4.301   9.697 -0.8684 -0.9661 -0.8361
 6285SOL    HW222261   4.227   4.196   9.776 -0.9597  0.1503  0.7721
 6286SOL     OW22262   6.894   9.530   9.349  0.1592 -0.6419  0.1149
 6286SOL    HW122263   6.808   9.565   9.373  0.4763  0.7533 -0.7551
 6286SOL    HW222264   6.937   9.510   9.432 -0.6876 -0.5891  0.5671
 6287SOL     OW22265   9.970   9.474  10.269 -0.1974  0.1152 -0.1965
 6287SOL    HW122266  10.035   9.429  10.215 -1.4065 -0.7308 -0.9690
 6287SOL    HW222267   9.958   9.559  10.225  1.4149  0.8616  0.7541
 6288SOL     OW22268   8.658   3.716   3.138  0.0957 -0.5185 -0.4740
 6288SOL    HW122269   8.731   3.739   3.080 -0.7558 -0.4683 -1.5514
 6288SOL    HW222270   8.666   3.621   3.149 -0.2717 -0.6618 -1.4181
 6289SOL     OW22271   6.197   0.528   3.865 -0.2909  0.0185 -0.3106
 6289SOL    HW122272   6.201   0.516   3.770  0.0626 -0.6462 -0.2142
 6289SOL    HW222273   6.240   0.612   3.881  1.2529 -0.7024 -0.5679
 6290SOL     OW22274   6.101   3.676   2.938 -0.0410  0.3160  0.2573
 6290SOL    HW122275   6.166   3.660   2.869  0.2636 -1.4775  0.9302
 6290SOL    HW222276   6.145   3.735   2.999  0.6394 -0.1867  0.2578
 6291SOL     OW22277   2.610   6.220   7.584  0.4456 -0.2735 -0.3109
 6291SOL    HW122278   2.685   6.161   7.578  1.3582  0.5566  2.3425
 6291SOL    HW222279   2.609   6.267   7.501  1.2449 -2.1949 -1.4251
 6292SOL     OW22280   3.081   7.103   7.445 -0.0394  0.2640  0.2305
 6292SOL    HW122281   3.005   7.150   7.480 -0.3491  1.5556 -2.0790
 6292SOL    HW222282   3.054   7.077   7.357  1.2314 -1.6622  0.3762
 6293SOL     OW22283   7.334   6.015   2.215 -0.2978  0.2572 -0.0977
 6293SOL    HW122284   7.337   5.966   2.297 -0.9909  0.4396  0.0390
 6293SOL    HW222285   7.289   6.096   2.237  1.3945  1.2417 -0.1845
 6294SOL     OW22286   5.527   9.991   5.123 -0.2040  0.2019 -0.1931
 6294SOL    HW122287   5.474  10.045   5.181  0.1925  1.2102 -0.7677
 6294SOL    HW222288   5.517   9.902   5.158 -1.7828  0.4586  0.0664
 6295SOL     OW22289   8.870   9.914   4.707  0.6073 -0.5186  0.4145
 6295SOL    HW122290   8.909   9.974   4.771 -0.9569  1.4032 -0.3878
 6295SOL    HW222291   8.929   9.919   4.632  0.3767  0.1898  0.2744
 6296SOL     OW22292   9.420   4.809   7.785  0.3057 -0.3796  0.3410
 6296SOL    HW122293   9.385   4.734   7.832  0.9354  1.0967  3.2835
 6296SOL    HW222294   9.507   4.782   7.756 -0.0666 -1.2770  0.0506
 6297SOL     OW22295   7.961   2.926   1.910  0.4100  0.1733 -0.4739
 6297SOL    HW122296   8.003   2.880   1.838  0.2374  0.0961 -0.5254
 6297SOL    HW222297   7.949   2.859   1.977 -0.2622  0.0321 -0.7267
 6298SOL     OW22298   1.354   3.948   5.923 -0.0786  0.1201  0.3788
 6298SOL    HW122299   1.382   3.871   5.973 -0.8411  0.4474  1.3224
 6298SOL    HW222300   1.302   3.999   5.985 -0.0671  1.1070 -0.4171
 6299SOL     OW22301   9.988   7.307   3.489  0.1037 -0.5867  0.9753
 6299SOL    HW122302  10.054   7.271   3.430 -1.1817 -0.6140 -0.4641
 6299SOL    HW222303   9.971   7.237   3.552  2.0378 -0.2840  1.8691
 6300SOL     OW22304   3.995   0.466   1.824 -0.1681 -0.1644  0.2577
 6300SOL    HW122305   3.907   0.432   1.809 -0.7268  0.7351  1.4839
 6300SOL    HW222306   4.050   0.388   1.827 -1.0864 -0.8040  0.5993
 6301SOL     OW22307   9.315   1.747   3.501 -0.6680 -0.2585  0.3595
 6301SOL    HW122308   9.356   1.807   3.563 -1.5719  1.2572 -0.4660
 6301SOL    HW222309   9.367   1.755   3.421  0.6384 -2.3850  0.9605
 6302SOL     OW22310   3.163   0.094   4.100 -0.1837  0.3508 -0.4291
 6302SOL    HW122311   3.120   0.054   4.176 -1.2135  0.4605 -0.9569
 6302SOL    HW222312   3.200   0.020   4.052 -0.4197  0.1957 -0.3726
 6303SOL     OW22313   5.561   8.122   6.757 -0.4084  0.5320 -0.0202
 6303SOL    HW122314   5.467   8.107   6.760 -0.0526 -1.8891 -0.2806
 6303SOL    HW222315   5.597   8.067   6.827  0.7364  2.3142  0.8563
 6304SOL     OW22316   2.696   4.721   8.968 -0.1776 -0.5966  0.0212
 6304SOL    HW122317   2.693   4.630   8.937 -0.5331 -1.0115  1.2130
 6304SOL    HW222318   2.751   4.766   8.905  0.4228 -1.7647 -0.3157
 6305SOL     OW22319   6.315   5.208   7.104  0.0855 -0.0025  0.5417
 6305SOL    HW122320   6.294   5.146   7.173  0.1400  0.2041  0.7430
 6305SOL    HW222321   6.406   5.189   7.082 -0.3155 -0.9528 -0.3883
 6306SOL     OW22322   6.598   4.219  10.501 -0.1725  0.1493 -0.2103
 6306SOL    HW122323   6.612   4.309  10.532 -0.0807 -0.3985  1.3912
 6306SOL    HW222324   6.680   4.196  10.458  0.6916  0.0221  1.4481
 6307SOL     OW22325   7.889   4.397  10.519  0.8648  0.2885  0.0912
 6307SOL    HW122326   7.896   4.363  10.608  0.3240  1.9379  0.7994
 6307SOL    HW222327   7.887   4.492  10.531 -0.6473  0.4820 -1.5855
 6308SOL     OW22328   8.780  10.816   7.755  0.2966  0.0055 -0.1751
 6308SOL    HW122329   8.858  10.768   7.729  0.5283  0.6939 -0.7379
 6308SOL    HW222330   8.742  10.763   7.826  1.0952 -0.4840 -0.1131
 6309SOL     OW22331   6.096   9.798   3.544 -0.0724 -0.1976 -0.0243
 6309SOL    HW122332   6.191   9.800   3.546 -0.0292  0.0012 -1.7186
 6309SOL    HW222333   6.069   9.884   3.578  0.3817  0.3537 -1.0496
 6310SOL     OW22334   1.913   9.400   3.680  0.0512  0.2663 -0.3332
 6310SOL    HW122335   1.873   9.423   3.597  0.5346 -0.4248 -0.7612
 6310SOL    HW222336   1.849   9.344   3.723  0.2570 -0.2749 -0.7205
 6311SOL     OW22337   9.954   4.341   1.923 -0.5818 -0.1516 -0.4211
 6311SOL    HW122338   9.947   4.430   1.887  1.2626  0.3163  0.3026
 6311SOL    HW222339  10.034   4.306   1.886  0.0381 -0.5752  1.2496
 6312SOL     OW22340   7.526   2.767   8.964 -0.1751 -0.0512  0.6380
 6312SOL    HW122341   7.525   2.679   9.001 -0.9872 -0.2504  0.1703
 6312SOL    HW222342   7.559   2.823   9.035  0.0874 -0.6926  1.0235
 6313SOL     OW22343   8.530   8.430  10.827  0.2495 -0.7779  0.1020
 6313SOL    HW122344   8.533   8.424  10.732 -1.2838 -0.4088  0.0062
 6313SOL    HW222345   8.537   8.524  10.846  1.7885 -0.9479  0.4268
 6314SOL     OW22346   5.224   0.325   3.952  0.6937  0.3259  0.3568
 6314SOL    HW122347   5.251   0.309   3.862 -2.6336  0.3610 -0.6932
 6314SOL    HW222348   5.255   0.247   4.000 -0.3891 -1.2495 -1.4409
 6315SOL     OW22349   2.215   4.855  10.313 -0.7346  0.0594  0.2843
 6315SOL    HW122350   2.236   4.767  10.282 -1.4171  0.7836 -2.3046
 6315SOL    HW222351   2.174   4.898  10.239 -1.4605  2.2151  1.8803
 6316SOL     OW22352  10.372   0.403   2.036 -0.0299  0.1141 -0.5911
 6316SOL    HW122353  10.455   0.449   2.026 -0.9135  2.0309  0.6784
 6316SOL    HW222354  10.332   0.406   1.949  1.1138 -0.6015 -1.1470
 6317SOL     OW22355  10.641   2.739   1.614  0.5231  0.5189  0.6125
 6317SOL    HW122356  10.650   2.644   1.602  3.3621  0.9950 -1.7225
 6317SOL    HW222357  10.566   2.763   1.560 -0.1004 -0.3455  1.0674
 6318SOL     OW22358   9.952   3.376   2.835  0.6794 -0.2081 -0.0492
 6318SOL    HW122359   9.905   3.415   2.760 -1.7809  0.3352  1.7034
 6318SOL    HW222360   9.944   3.282   2.822 -2.1859 -0.1469  0.9281
 6319SOL     OW22361  10.360   2.346  10.519  0.0654 -0.1599  0.1285
 6319SOL    HW122362  10.355   2.299  10.436 -0.0999 -0.3892  0.2692
 6319SOL    HW222363  10.403   2.429  10.497 -1.9720  0.7396 -0.6232
 6320SOL     OW22364   9.823   6.299   6.673  0.0459 -0.0981  0.2427
 6320SOL    HW122365   9.913   6.299   6.706  1.7065 -0.3734 -3.9367
 6320SOL    HW222366   9.810   6.210   6.640 -1.3716  0.2569 -0.1793
 6321SOL     OW22367  10.375   6.200   8.859  0.1423  0.0950 -0.0113
 6321SOL    HW122368  10.339   6.247   8.934  1.0462 -0.0356  0.5028
 6321SOL    HW222369  10.372   6.263   8.787 -2.0012 -0.1961 -0.2285
 6322SOL     OW22370   4.002   1.447   7.608 -0.6706 -0.4636 -0.1478
 6322SOL    HW122371   3.937   1.458   7.677  0.1009  2.2103  0.2003
 6322SOL    HW222372   3.973   1.506   7.538  0.3185 -0.7145 -0.7792
 6323SOL     OW22373   6.846   6.016   7.017 -0.3701 -0.5043 -0.0207
 6323SOL    HW122374   6.847   5.940   6.960  1.2870 -0.8950  0.4889
 6323SOL    HW222375   6.804   5.986   7.097  0.9667 -1.1353  0.4693
 6324SOL     OW22376   7.708   8.166   9.732 -0.0449 -0.1472  0.2679
 6324SOL    HW122377   7.760   8.219   9.671 -1.1958  1.7556  0.9102
 6324SOL    HW222378   7.624   8.212   9.739 -0.6294 -1.3977  1.7818
 6325SOL     OW22379   2.433   3.574   5.069 -0.1585  0.7496 -0.8591
 6325SOL    HW122380   2.345   3.548   5.098  0.4747  0.4604  0.8924
 6325SOL    HW222381   2.457   3.508   5.004 -1.0786  0.5812 -1.0351
 6326SOL     OW22382   1.386  10.518   4.069 -0.1277 -0.1835  0.2715
 6326SOL    HW122383   1.456  10.582   4.053 -1.4330  1.2714  0.2661
 6326SOL    HW222384   1.365  10.483   3.983  0.9396 -1.0253  0.3349
 6327SOL     OW22385   5.342   1.544  10.877  0.1431  0.3615  0.8404
 6327SOL    HW122386   5.276   1.563  10.944 -0.1643 -0.1347  0.6824
 6327SOL    HW222387   5.391   1.470  10.913 -0.1257 -0.0107  0.4487
 6328SOL     OW22388   8.665   1.483   2.641 -0.3855 -0.0755  0.2742
 6328SOL    HW122389   8.602   1.502   2.571 -0.1541 -2.8482 -0.7512
 6328SOL    HW222390   8.733   1.431   2.599  1.7135  1.3727  1.7667
 6329SOL     OW22391   0.126  10.501   7.602  0.2345 -0.3358 -0.8872
 6329SOL    HW122392   0.149  10.586   7.639 -1.0454 -0.0037 -0.8558
 6329SOL    HW222393   0.062  10.465   7.662  0.4515 -1.1452 -1.1340
 6330SOL     OW22394  10.476   9.291   8.935 -0.2757  0.2410  0.4839
 6330SOL    HW122395  10.444   9.381   8.927 -0.7618  0.0910  0.7279
 6330SOL    HW222396  10.546   9.285   8.870  0.2238  0.9996  0.9395
 6331SOL     OW22397   2.145   5.475   1.644  0.4542  0.3906 -0.6480
 6331SOL    HW122398   2.209   5.483   1.715 -0.3407 -0.0467  0.1115
 6331SOL    HW222399   2.089   5.552   1.652 -0.7577 -0.5740  0.3182
 6332SOL     OW22400   0.526   3.369   5.503  0.3395 -0.2172  0.0542
 6332SOL    HW122401   0.484   3.338   5.422 -2.7859 -0.5595  1.7372
 6332SOL    HW222402   0.565   3.290   5.541 -0.9514 -0.6737  0.4589
 6333SOL     OW22403   1.657   1.570  10.460 -0.1846  0.1578 -0.1300
 6333SOL    HW122404   1.728   1.559  10.397 -0.6447  0.7796 -0.7620
 6333SOL    HW222405   1.659   1.662  10.483 -0.5138  0.0900  0.1802
 6334SOL     OW22406   7.462   9.392   3.471  0.4228  0.1259 -0.1524
 6334SOL    HW122407   7.410   9.392   3.551  1.8112  1.2129  0.7657
 6334SOL    HW222408   7.478   9.299   3.453  0.3407 -0.1235  0.9944
 6335SOL     OW22409   8.214   8.449   1.544 -0.7806 -0.0890  0.1090
 6335SOL    HW122410   8.199   8.544   1.536  2.3108  0.3434 -1.2365
 6335SOL    HW222411   8.235   8.437   1.637 -1.6660  0.4501  0.3922
 6336SOL     OW22412   4.533   0.961   6.494 -0.3515 -0.0234  0.0667
 6336SOL    HW122413   4.475   1.020   6.542  0.6738  1.1192 -0.0669
 6336SOL    HW222414   4.493   0.952   6.408 -0.9324 -0.1587  0.3515
 6337SOL     OW22415   4.518   6.413   0.845  0.2705  0.5218 -0.0399
 6337SOL    HW122416   4.529   6.318   0.856  1.4279  0.6361 -0.1110
 6337SOL    HW222417   4.442   6.435   0.898  0.3364 -0.3605  0.4282
 6338SOL     OW22418   7.153   7.039   0.260  0.5961  0.2366  0.2924
 6338SOL    HW122419   7.205   6.959   0.267  0.6195  0.2356  0.1149
 6338SOL    HW222420   7.095   7.036   0.336 -1.7683 -1.6513 -1.5320
 6339SOL     OW22421   5.090   8.066   0.058  0.0098 -0.3713  0.5113
 6339SOL    HW122422   5.077   7.980   0.018  1.3630 -0.3609 -0.0029
 6339SOL    HW222423   5.034   8.066   0.135 -1.5122 -0.9557 -0.5798
 6340SOL     OW22424  10.177   4.981   8.043  0.1287  0.4557  0.1225
 6340SOL    HW122425  10.245   4.949   7.984 -0.1756  0.4886 -0.2443
 6340SOL    HW222426  10.096   4.940   8.012 -0.1173  0.8761  0.1949
 6341SOL     OW22427   6.788   5.507   3.510 -0.2610 -0.0918  0.5297
 6341SOL    HW122428   6.723   5.509   3.439  0.4667  1.5249 -0.1260
 6341SOL    HW222429   6.756   5.571   3.573  0.3792  0.2936  0.4727
 6342SOL     OW22430   9.660   0.890   9.637  0.4936  0.0554  0.2352
 6342SOL    HW122431   9.580   0.925   9.676  1.1098  1.7159  0.0492
 6342SOL    HW222432   9.713   0.863   9.712  0.2511  0.0452  0.4053
 6343SOL     OW22433   6.199   8.800   3.740 -0.3280 -0.5426  0.6540
 6343SOL    HW122434   6.244   8.739   3.682 -0.3274  0.5186 -0.4756
 6343SOL    HW222435   6.261   8.872   3.752 -1.1717  0.2859  0.1765
 6344SOL     OW22436   1.370  10.021   3.017  0.3111 -0.1894  0.2242
 6344SOL    HW122437   1.301  10.042   2.954  0.8427  1.4326  0.1773
 6344SOL    HW222438   1.447  10.001   2.962  0.3445 -0.3417  0.3249
 6345SOL     OW22439   1.670   0.779   8.639 -0.2664  0.3916  0.5343
 6345SOL    HW122440   1.700   0.798   8.549 -0.4502 -3.8704 -0.5149
 6345SOL    HW222441   1.586   0.824   8.646  0.5335  2.1876 -0.7930
 6346SOL     OW22442   3.504   9.981   6.185  0.2782 -0.5315 -0.2434
 6346SOL    HW122443   3.560   9.996   6.261 -1.2098  0.9420  0.6052
 6346SOL    HW222444   3.482  10.069   6.154 -0.0699 -1.1051 -1.6692
 6347SOL     OW22445   1.825  10.915   6.071 -0.5703 -0.6198  0.0214
 6347SOL    HW122446   1.809  10.944   5.981  0.5997  1.0915  0.3569
 6347SOL    HW222447   1.737  10.908   6.109 -0.9741  0.7307 -0.6196
 6348SOL     OW22448   7.087   4.846   1.384  0.1157  0.6962  0.5044
 6348SOL    HW122449   7.099   4.776   1.447 -0.2683 -0.1425 -0.3403
 6348SOL    HW222450   6.993   4.862   1.382 -0.0968 -0.5641 -1.1845
 6349SOL     OW22451   6.221   8.421   6.569  0.3293 -0.4163  0.1399
 6349SOL    HW122452   6.218   8.512   6.540  1.4652 -0.5152 -0.3139
 6349SOL    HW222453   6.137   8.384   6.542 -0.3760  0.6543  0.8569
 6350SOL     OW22454   9.566   1.430   2.525 -0.4236  0.3313  0.1310
 6350SOL    HW122455   9.592   1.449   2.434  0.1286 -0.1593  0.1897
 6350SOL    HW222456   9.561   1.516   2.566  0.3846  0.4826 -0.0772
 6351SOL     OW22457   4.227   8.450   1.653  0.4507 -0.2647 -0.0260
 6351SOL    HW122458   4.302   8.397   1.680 -0.1447 -1.9129 -1.4837
 6351SOL    HW222459   4.196   8.408   1.573  0.2376  2.5821 -1.5067
 6352SOL     OW22460   9.112   9.120   7.093 -0.1145 -0.1254 -0.8622
 6352SOL    HW122461   9.023   9.133   7.126  0.1758 -0.5646  0.1262
 6352SOL    HW222462   9.103   9.057   7.023 -0.2523 -2.3277  1.0748
 6353SOL     OW22463   0.700   8.692   4.493  0.1022  0.1443  0.2162
 6353SOL    HW122464   0.648   8.717   4.569  1.2243  0.6228  0.8353
 6353SOL    HW222465   0.711   8.597   4.501 -0.9639 -0.0210 -0.1160
 6354SOL     OW22466   5.008   4.715   0.857 -0.0914  0.0690  0.0004
 6354SOL    HW122467   5.056   4.768   0.921 -0.0134  0.1730 -0.1449
 6354SOL    HW222468   4.926   4.763   0.843 -1.4363 -1.4289  2.2455
 6355SOL     OW22469  10.473   0.608   6.690  0.3156 -0.7250  0.4452
 6355SOL    HW122470  10.529   0.685   6.682  1.4639 -1.4265  1.5103
 6355SOL    HW222471  10.528   0.543   6.734 -0.3333 -2.4618 -1.2155
 6356SOL     OW22472   3.019   8.136   4.727 -0.0299  0.0808 -0.6038
 6356SOL    HW122473   2.935   8.109   4.692  1.4345 -3.3931 -1.6911
 6356SOL    HW222474   3.040   8.218   4.683 -1.8090 -0.1940 -1.9627
 6357SOL     OW22475   7.561   5.505   1.190  1.0936  0.0175  0.5486
 6357SOL    HW122476   7.498   5.577   1.194  1.3205  0.3426 -1.2325
 6357SOL    HW222477   7.621   5.529   1.120  1.6089 -1.5620  0.4189
 6358SOL     OW22478   9.559   7.131   4.570  0.4398 -0.3207 -0.0513
 6358SOL    HW122479   9.580   7.125   4.663 -2.3752 -0.5983  0.5946
 6358SOL    HW222480   9.471   7.094   4.562  0.3345  0.3799 -2.7076
 6359SOL     OW22481   2.074   8.359   3.342 -0.3566  0.1937  0.0990
 6359SOL    HW122482   2.113   8.339   3.427 -0.1757  1.2390  0.2693
 6359SOL    HW222483   2.124   8.307   3.279 -0.7881 -0.9370  0.6789
 6360SOL     OW22484   0.825   3.800   1.124  0.2958  0.2813  0.3344
 6360SOL    HW122485   0.743   3.834   1.086 -0.9589 -0.7572  2.0375
 6360SOL    HW222486   0.869   3.878   1.158  0.7037  1.0284 -1.8398
 6361SOL     OW22487   4.785   2.775   9.410  0.3749 -0.0288 -0.0712
 6361SOL    HW122488   4.706   2.822   9.384 -0.5993 -1.8055 -0.3973
 6361SOL    HW222489   4.795   2.794   9.503 -1.0442 -0.6526  0.2134
 6362SOL     OW22490   4.530   8.245   6.319 -0.2106  0.2335  0.1839
 6362SOL    HW122491   4.434   8.245   6.310 -0.1035  0.2778 -1.1206
 6362SOL    HW222492   4.554   8.152   6.322 -0.4385  0.2273  2.3873
 6363SOL     OW22493   6.071   2.124   9.762  0.4547 -0.4814 -0.3130
 6363SOL    HW122494   6.139   2.187   9.783 -0.7257  0.8296 -0.4025
 6363SOL    HW222495   6.086   2.051   9.822  2.2722 -0.4465 -0.7124
 6364SOL     OW22496   8.370   0.858   1.972  0.1956  0.5913  1.1330
 6364SOL    HW122497   8.346   0.771   2.004  0.1732  0.2042  0.0807
 6364SOL    HW222498   8.316   0.871   1.894  1.2384  0.9475  0.4515
 6365SOL     OW22499   8.266   6.394   1.015  0.1575 -0.0926  0.2683
 6365SOL    HW122500   8.354   6.431   1.002 -0.1411  0.4263 -0.2754
 6365SOL    HW222501   8.217   6.465   1.058 -0.5234  0.2901 -1.1117
 6366SOL     OW22502   2.132   6.505   3.416 -0.0996  0.1501 -0.5945
 6366SOL    HW122503   2.120   6.579   3.476 -1.4499 -0.7361  0.2433
 6366SOL    HW222504   2.132   6.428   3.472  0.6981 -0.5412 -1.5324
 6367SOL     OW22505   1.191   8.212   3.827  0.4611 -0.3835 -0.4374
 6367SOL    HW122506   1.181   8.154   3.752 -0.0383  0.7330 -1.2566
 6367SOL    HW222507   1.102   8.242   3.846  0.7422  0.2997 -0.1845
 6368SOL     OW22508   2.369   2.070   9.337  0.1658 -0.4872  0.4755
 6368SOL    HW122509   2.377   2.110   9.424 -1.3383 -1.6999  1.1918
 6368SOL    HW222510   2.326   1.986   9.352 -1.1785 -0.2115 -1.5673
 6369SOL     OW22511   2.892   2.840  10.396  0.4311  0.1001  0.0340
 6369SOL    HW122512   2.848   2.757  10.378 -0.7693  0.5809  0.6613
 6369SOL    HW222513   2.933   2.828  10.481 -0.7346  0.5156  0.6778
 6370SOL     OW22514   7.980   1.603  10.753 -0.0059  0.0225  0.3121
 6370SOL    HW122515   7.954   1.511  10.743 -2.7503  0.9755 -1.7637
 6370SOL    HW222516   7.920   1.637  10.820 -2.0794  1.3776 -2.1244
 6371SOL     OW22517   2.423   0.443   7.683  0.0174 -0.9318 -0.1115
 6371SOL    HW122518   2.478   0.448   7.761 -0.1356 -0.2379 -0.0443
 6371SOL    HW222519   2.334   0.437   7.717 -0.0299 -0.8678 -0.2241
 6372SOL     OW22520   6.740  10.172   4.176  0.1473  0.4060 -0.2242
 6372SOL    HW122521   6.815  10.129   4.134  0.4231  0.4106  0.2573
 6372SOL    HW222522   6.730  10.254   4.129  0.0478  0.1191 -0.7055
 6373SOL     OW22523   1.217   2.703  10.514  0.0622  0.4327 -0.7586
 6373SOL    HW122524   1.220   2.756  10.593 -0.0677  0.1753 -0.5821
 6373SOL    HW222525   1.272   2.750  10.451 -0.2201  0.8885 -0.6689
 6374SOL     OW22526   5.767   5.922   0.591  0.2434 -0.2327  0.0173
 6374SOL    HW122527   5.843   5.972   0.561  0.4785 -0.6670 -0.1174
 6374SOL    HW222528   5.797   5.831   0.591 -0.4683 -0.4725 -0.6246
 6375SOL     OW22529   4.128   5.259   4.983 -0.6515  0.2384  0.1179
 6375SOL    HW122530   4.073   5.317   5.036 -1.3602 -0.9567  0.7011
 6375SOL    HW222531   4.130   5.176   5.031 -0.6247 -0.6111 -1.3090
 6376SOL     OW22532   6.177   9.698   8.365  0.1411  0.5957  0.3428
 6376SOL    HW122533   6.236   9.697   8.441  0.2242  2.5989  0.3423
 6376SOL    HW222534   6.091   9.679   8.401  0.2634  1.0067  0.8557
 6377SOL     OW22535   3.844   6.767   0.764  0.0774 -0.2275  0.3405
 6377SOL    HW122536   3.933   6.747   0.792  0.2660  0.5831  0.3042
 6377SOL    HW222537   3.841   6.862   0.754 -0.7792 -0.2472  0.3050
 6378SOL     OW22538  10.517   0.562   4.805  0.4047 -0.6927  0.1172
 6378SOL    HW122539  10.546   0.612   4.728 -1.5020  0.2764  0.0022
 6378SOL    HW222540  10.547   0.473   4.788  1.1965 -0.2122 -1.1159
 6379SOL     OW22541   0.027   0.726   2.672 -0.7394  0.2618  0.1758
 6379SOL    HW122542  -0.057   0.692   2.640 -0.9908  2.1175 -1.2418
 6379SOL    HW222543   0.054   0.789   2.605  2.4116 -1.2119 -0.0367
 6380SOL     OW22544   0.169   5.909   5.170  0.1042 -0.9129 -0.3009
 6380SOL    HW122545   0.107   5.969   5.129 -0.8577 -1.0638  0.9040
 6380SOL    HW222546   0.114   5.851   5.223  1.3431 -0.4713  1.5018
 6381SOL     OW22547   5.935   0.621   4.118 -0.2426 -0.3129  0.4750
 6381SOL    HW122548   5.847   0.584   4.127 -0.9610  1.0975 -0.6486
 6381SOL    HW222549   5.986   0.577   4.186 -1.6956 -1.5046  0.8141
 6382SOL     OW22550  10.478   8.340   0.052 -0.4053  0.4345  0.3213
 6382SOL    HW122551  10.522   8.267   0.095 -1.6164 -0.4865  0.0349
 6382SOL    HW222552  10.452   8.398   0.123 -1.0826 -0.3436  0.7235
 6383SOL     OW22553   1.863   3.308   9.471 -0.0776 -0.1883  0.6323
 6383SOL    HW122554   1.867   3.398   9.438 -1.7951 -0.0267  0.8444
 6383SOL    HW222555   1.924   3.308   9.545  1.5646  0.2203 -0.6722
 6384SOL     OW22556   9.783   1.483   6.844 -0.0922 -0.4657  0.0877
 6384SOL    HW122557   9.751   1.393   6.836 -0.7532 -0.2706  0.5301
 6384SOL    HW222558   9.734   1.520   6.917  1.6092 -0.3571  1.2226
 6385SOL     OW22559   7.488   9.595   9.107 -0.1606  0.1473 -0.1630
 6385SOL    HW122560   7.416   9.577   9.046  1.5019  0.8030 -2.3757
 6385SOL    HW222561   7.556   9.532   9.084  0.5814  0.5600  0.8596
 6386SOL     OW22562   2.711   0.428  10.322 -0.0840  0.1446 -0.1094
 6386SOL    HW122563   2.702   0.451  10.414  0.1829 -1.0101  0.2186
 6386SOL    HW222564   2.784   0.366  10.320 -1.4902 -1.5222 -0.7957
 6387SOL     OW22565   0.593   2.453   3.058 -0.1546  0.5568  0.0109
 6387SOL    HW122566   0.503   2.422   3.075 -1.2180  1.4861 -3.4843
 6387SOL    HW222567   0.647   2.374   3.065 -1.6319 -0.5202 -0.4663
 6388SOL     OW22568   1.015   4.533   7.690 -0.4502 -0.0494 -0.4161
 6388SOL    HW122569   0.980   4.616   7.656 -0.1805  0.2794  0.1111
 6388SOL    HW222570   0.998   4.536   7.784 -1.4325 -1.0792 -0.5468
 6389SOL     OW22571   3.633   9.938  10.484 -0.1234  0.0772  0.2803
 6389SOL    HW122572   3.633   9.870  10.416 -1.0816  0.1269  0.2248
 6389SOL    HW222573   3.619   9.891  10.566  0.0201  0.1241  0.3323
 6390SOL     OW22574   1.640   7.762   4.927 -0.0128 -0.2038  0.1114
 6390SOL    HW122575   1.710   7.725   4.980 -1.1780 -0.4070  1.5572
 6390SOL    HW222576   1.633   7.853   4.955  0.1272 -0.0002 -0.5084
 6391SOL     OW22577  10.299   5.976   5.707  0.4198 -0.0327 -0.2585
 6391SOL    HW122578  10.212   6.011   5.687  0.5960 -0.9080 -2.6300
 6391SOL    HW222579  10.341   6.046   5.758 -0.4481  1.8397 -2.0230
 6392SOL     OW22580   3.801   5.477   2.843 -0.0866 -0.4256  0.0811
 6392SOL    HW122581   3.798   5.480   2.939  0.5024 -1.5810  0.1375
 6392SOL    HW222582   3.712   5.498   2.816 -0.1666  0.2963  0.8630
 6393SOL     OW22583   1.193   2.241   5.959 -0.2918  0.5665 -0.0483
 6393SOL    HW122584   1.226   2.324   5.993  0.0932  1.0105 -1.4873
 6393SOL    HW222585   1.237   2.174   6.012  0.5678  1.2358  0.0896
 6394SOL     OW22586   8.988   3.536   3.053 -0.3046 -0.0564 -0.4239
 6394SOL    HW122587   9.082   3.531   3.034  0.1720 -1.6674  2.0708
 6394SOL    HW222588   8.967   3.629   3.046  1.9299  0.5782  0.7652
 6395SOL     OW22589   2.545   1.250   3.735 -0.1052  0.2916 -0.0219
 6395SOL    HW122590   2.457   1.270   3.767 -0.1444 -1.3519  0.9505
 6395SOL    HW222591   2.531   1.185   3.666  0.4003 -0.6565  0.7600
 6396SOL     OW22592   2.649  10.651   6.258 -0.2879  0.2255 -0.6124
 6396SOL    HW122593   2.709  10.611   6.194  1.6309  0.4787  0.9785
 6396SOL    HW222594   2.657  10.596   6.336  1.5518  2.9955  1.2380
 6397SOL     OW22595   6.514   9.870   7.444  0.0977 -0.2847  0.7565
 6397SOL    HW122596   6.501   9.889   7.537 -1.6086  1.0248  0.2807
 6397SOL    HW222597   6.509   9.955   7.401 -1.7011 -1.1146 -0.7871
 6398SOL     OW22598   2.617   7.026   7.794 -0.1057 -0.0044  0.2254
 6398SOL    HW122599   2.687   6.966   7.769 -0.9598  0.0005 -2.3526
 6398SOL    HW222600   2.656   7.113   7.784 -1.3241  0.1419 -4.3829
 6399SOL     OW22601   7.217  10.187   4.230  0.6673 -0.0028  0.0642
 6399SOL    HW122602   7.199  10.215   4.140  1.7593 -0.5907 -0.3498
 6399SOL    HW222603   7.171  10.103   4.238  2.7095 -1.2326 -0.8125
 6400SOL     OW22604   2.605   5.895   5.879 -0.2215 -0.7769 -0.1387
 6400SOL    HW122605   2.616   5.934   5.965 -0.2480  1.5380 -1.1699
 6400SOL    HW222606   2.694   5.883   5.846 -0.2418 -0.8710 -0.1620
 6401SOL     OW22607   1.764   4.174   1.092 -0.4363 -0.1000  0.1444
 6401SOL    HW122608   1.780   4.128   1.175  1.0968 -1.8968 -1.1017
 6401SOL    HW222609   1.689   4.229   1.110  0.6516  0.5317  3.1397
 6402SOL     OW22610   4.069   8.336   7.806 -0.8301  0.4909 -0.1352
 6402SOL    HW122611   4.073   8.417   7.857 -0.2704  0.0240  0.5763
 6402SOL    HW222612   4.040   8.364   7.719  0.1866  1.5786 -0.1480
 6403SOL     OW22613   6.720   4.530   2.820  0.0014  0.3370 -0.4032
 6403SOL    HW122614   6.756   4.563   2.738 -2.6573  0.1408 -1.7055
 6403SOL    HW222615   6.703   4.608   2.872  2.5455  0.4171  0.3942
 6404SOL     OW22616   3.051   4.235   3.927  0.0801  0.3521  0.4231
 6404SOL    HW122617   2.959   4.220   3.906 -0.0367  1.4637  0.1159
 6404SOL    HW222618   3.083   4.290   3.856  0.2989  2.1464  1.8910
 6405SOL     OW22619   0.798   3.664   4.895  0.2672 -0.7856 -0.2693
 6405SOL    HW122620   0.891   3.643   4.908  0.6188 -0.6479 -2.2723
 6405SOL    HW222621   0.753   3.622   4.968  2.0013 -0.0633  1.2633
 6406SOL     OW22622  10.572   5.545  10.551 -0.3286  0.5797 -0.2462
 6406SOL    HW122623  10.655   5.558  10.506 -0.3282 -0.7549 -0.6556
 6406SOL    HW222624  10.569   5.614  10.618  1.7460 -0.2394  0.7140
 6407SOL     OW22625   4.527   8.647   2.836 -0.3273 -0.5807  0.0402
 6407SOL    HW122626   4.470   8.571   2.853 -1.5378  0.1830 -0.5204
 6407SOL    HW222627   4.466   8.719   2.821  0.8376  0.8316  1.9611
 6408SOL     OW22628   0.653   1.687   7.098  0.3926 -0.3319  0.1898
 6408SOL    HW122629   0.693   1.764   7.138 -1.2174  0.1898  0.8428
 6408SOL    HW222630   0.627   1.717   7.011 -0.7594  0.0624  0.6521
 6409SOL     OW22631   9.868   6.749   3.846 -0.4991 -0.1554 -0.8622
 6409SOL    HW122632   9.772   6.753   3.848 -0.5371 -1.3357  0.9018
 6409SOL    HW222633   9.895   6.805   3.919  0.1261 -0.6744 -0.6941
 6410SOL     OW22634   8.140   5.381   9.422  0.3260 -0.6469 -0.0538
 6410SOL    HW122635   8.084   5.383   9.499 -0.4928  0.6283 -0.6712
 6410SOL    HW222636   8.152   5.287   9.404  0.9889 -0.9497  1.9294
 6411SOL     OW22637   3.630   3.521   5.910  0.0057 -0.0497 -0.3766
 6411SOL    HW122638   3.593   3.497   5.826  1.0357  0.0773 -0.8732
 6411SOL    HW222639   3.560   3.505   5.973 -0.5705 -0.6994 -1.1829
 6412SOL     OW22640   4.689   4.163   7.289 -0.3206  0.1133 -0.4423
 6412SOL    HW122641   4.628   4.182   7.218 -0.1721  1.6995 -0.1554
 6412SOL    HW222642   4.754   4.232   7.284  1.7928 -1.8488 -1.0824
 6413SOL     OW22643   6.505   2.069   0.132  0.5868  0.1867  0.2475
 6413SOL    HW122644   6.516   1.984   0.090 -0.5726 -0.4466  1.2241
 6413SOL    HW222645   6.585   2.080   0.185 -0.2224 -1.2705  1.8128
 6414SOL     OW22646   7.602  10.782  10.961 -0.2358 -0.3367  0.7723
 6414SOL    HW122647   7.620  10.689  10.944 -0.3695 -0.2168 -0.0531
 6414SOL    HW222648   7.528  10.803  10.904 -0.1054  0.3198  0.8398
 6415SOL     OW22649   7.639  10.788   6.575  0.2787  0.0213  0.3829
 6415SOL    HW122650   7.672  10.845   6.645  0.5721  0.9258 -0.4814
 6415SOL    HW222651   7.659  10.835   6.495  0.9196 -1.5119 -0.3794
 6416SOL     OW22652   8.693   2.959   0.482  0.2366  0.7293  0.0483
 6416SOL    HW122653   8.638   2.887   0.452  1.4888 -0.0605 -0.4457
 6416SOL    HW222654   8.632   3.030   0.504 -0.9759 -0.2910  0.0152
 6417SOL     OW22655   6.750   2.456   0.670  0.3324 -0.1875 -0.2138
 6417SOL    HW122656   6.815   2.423   0.607  1.1782  1.1660 -0.0713
 6417SOL    HW222657   6.788   2.537   0.703 -1.4863  0.6862 -0.1983
 6418SOL     OW22658   2.627   5.915   0.372  0.0664 -0.3962 -0.6693
 6418SOL    HW122659   2.718   5.893   0.352  0.6581  0.2774  1.1203
 6418SOL    HW222660   2.619   5.899   0.466 -1.5938 -0.1873 -0.7615
 6419SOL     OW22661   7.482   7.063   5.586  0.4074  0.5968 -0.5093
 6419SOL    HW122662   7.553   7.086   5.646  1.0144  3.5496 -2.2956
 6419SOL    HW222663   7.403   7.098   5.628  0.4116  0.0722 -0.0490
 6420SOL     OW22664   1.958   7.285   9.152 -0.0959 -0.0998 -0.3320
 6420SOL    HW122665   2.002   7.346   9.092 -1.9775  0.2019 -1.4409
 6420SOL    HW222666   1.999   7.302   9.237  0.5934  1.5232 -0.9609
 6421SOL     OW22667  10.290   2.484   2.529 -0.0596 -0.4133 -0.5338
 6421SOL    HW122668  10.200   2.513   2.544 -0.0972 -0.3323 -0.9036
 6421SOL    HW222669  10.281   2.396   2.491  0.0975 -1.7920  2.5064
 6422SOL     OW22670   3.779  10.744   3.849 -0.2515 -0.0495 -0.0727
 6422SOL    HW122671   3.781  10.839   3.857 -0.9239  0.2164 -2.5671
 6422SOL    HW222672   3.860  10.722   3.801  0.2488 -0.8095  1.0977
 6423SOL     OW22673   0.119   6.919   2.189 -0.3505  0.2658  0.2765
 6423SOL    HW122674   0.157   6.981   2.251 -1.7526  1.0977  0.3337
 6423SOL    HW222675   0.137   6.833   2.227  0.5253  0.6841  0.8316
 6424SOL     OW22676   1.549   3.221   7.326 -0.2795 -0.1272 -0.0302
 6424SOL    HW122677   1.520   3.290   7.385 -2.4591 -0.9529 -0.0638
 6424SOL    HW222678   1.580   3.152   7.383  0.3781  0.2384  0.0547
 6425SOL     OW22679   6.576   3.535   3.453 -0.2728 -0.0705 -0.1952
 6425SOL    HW122680   6.524   3.586   3.391  0.2743 -1.6373 -1.9834
 6425SOL    HW222681   6.512   3.492   3.509 -0.7974  0.5186 -0.3363
 6426SOL     OW22682   0.003  10.387   0.380  0.8962  0.5749 -0.3291
 6426SOL    HW122683   0.092  10.421   0.374  0.1663  2.4801 -0.7383
 6426SOL    HW222684  -0.053  10.459   0.349 -0.9484  0.2885  2.1409
 6427SOL     OW22685   9.779   4.628   4.614  0.4699 -0.2696 -0.4320
 6427SOL    HW122686   9.872   4.611   4.629  0.3390 -0.7434 -0.1536
 6427SOL    HW222687   9.777   4.684   4.536  1.0258  0.3950  0.0373
 6428SOL     OW22688   3.289   7.647   8.946 -0.3405 -0.6836 -0.2162
 6428SOL    HW122689   3.353   7.576   8.938  1.7345  1.2201 -1.3687
 6428SOL    HW222690   3.216   7.622   8.890  1.0638 -1.2115 -1.8473
 6429SOL     OW22691   1.654   0.736   4.648 -0.2230 -0.5898 -0.4294
 6429SOL    HW122692   1.564   0.728   4.614 -0.7425  1.2073  0.5082
 6429SOL    HW222693   1.708   0.748   4.569 -0.9479 -0.4293 -0.9068
 6430SOL     OW22694   4.787   4.673   6.113  0.2603  0.0877 -0.1965
 6430SOL    HW122695   4.701   4.700   6.081  2.0424  5.8304 -0.6604
 6430SOL    HW222696   4.833   4.640   6.036 -1.2096 -2.3930 -0.0651
 6431SOL     OW22697  10.461   0.434   5.938  0.1268  0.2481 -0.2539
 6431SOL    HW122698  10.433   0.525   5.953  0.1923  0.1654  0.3670
 6431SOL    HW222699  10.540   0.443   5.885  0.3758  0.5720  0.1642
 6432SOL     OW22700   0.045   4.559   3.328  0.1111  0.2466 -0.0505
 6432SOL    HW122701  -0.013   4.604   3.389 -0.5286  0.3839 -0.7395
 6432SOL    HW222702   0.081   4.629   3.273  0.8302  0.1461  0.2942
 6433SOL     OW22703   3.561   4.745   7.126 -0.6672 -0.2347  0.0084
 6433SOL    HW122704   3.609   4.766   7.206  0.5677  2.1907 -1.3093
 6433SOL    HW222705   3.481   4.796   7.132 -0.5349  0.0158 -0.3224
 6434SOL     OW22706   2.707   1.307   3.936 -0.4886  0.6140 -0.7910
 6434SOL    HW122707   2.662   1.277   4.015  0.2054 -0.5532 -0.8260
 6434SOL    HW222708   2.651   1.277   3.864 -0.8809  1.2722 -0.7688
 6435SOL     OW22709  10.031   8.214   9.317  0.0987  0.0928  0.1261
 6435SOL    HW122710   9.943   8.220   9.279 -0.2824 -0.4245  0.9179
 6435SOL    HW222711  10.083   8.170   9.251 -0.5387 -0.7107  0.1489
 6436SOL     OW22712  10.961   6.569   0.478  0.2955 -0.2264  0.6199
 6436SOL    HW122713  11.030   6.559   0.413  0.2840  1.2908  0.3552
 6436SOL    HW222714  10.902   6.635   0.440 -0.8266 -0.8577  1.2343
 6437SOL     OW22715   9.940   5.297   1.457  0.0988  0.4405 -0.3055
 6437SOL    HW122716   9.897   5.382   1.445 -0.3404  0.2386 -0.1423
 6437SOL    HW222717  10.028   5.319   1.487  0.1197  0.8546 -0.6634
 6438SOL     OW22718   4.994   8.957   2.879  0.4822 -0.5666  0.5045
 6438SOL    HW122719   4.942   9.029   2.913 -0.5913 -1.0201 -0.1539
 6438SOL    HW222720   5.077   8.963   2.925 -0.1475  0.1826  1.5431
 6439SOL     OW22721   1.319   5.935   9.709  0.3771 -0.3872  0.0624
 6439SOL    HW122722   1.397   5.883   9.731 -0.4966 -1.5922  0.3500
 6439SOL    HW222723   1.256   5.871   9.675 -0.6357  0.5158  0.2161
 6440SOL     OW22724   1.725   8.962   8.417  0.2050 -0.1250  0.8628
 6440SOL    HW122725   1.804   8.914   8.391 -0.3919 -1.3437  1.2848
 6440SOL    HW222726   1.756   9.052   8.430  1.7791 -0.8144  2.1691
 6441SOL     OW22727   3.922   7.683   8.738 -0.1091 -0.3315 -0.4265
 6441SOL    HW122728   3.950   7.734   8.814 -1.2753 -1.5605  0.8527
 6441SOL    HW222729   3.836   7.718   8.716  0.9880  1.2638 -2.3549
 6442SOL     OW22730   9.431   6.527   5.279  0.4480 -0.5201  0.3559
 6442SOL    HW122731   9.450   6.464   5.209 -0.1898 -0.8287  0.4551
 6442SOL    HW222732   9.512   6.576   5.290  0.5373 -0.4205 -0.6504
 6443SOL     OW22733   6.510   9.277   0.711  0.3417  0.0862  0.3965
 6443SOL    HW122734   6.592   9.249   0.672  1.3152  1.2816  1.5239
 6443SOL    HW222735   6.443   9.258   0.645  1.5870 -0.4568 -0.7149
 6444SOL     OW22736   5.698   4.678   4.714  0.0106  0.1052  0.0981
 6444SOL    HW122737   5.686   4.757   4.661  0.9453 -0.3075 -0.7359
 6444SOL    HW222738   5.734   4.614   4.653 -0.0737 -0.7491  0.9450
 6445SOL     OW22739   5.163   6.597   2.306 -0.1064  0.2728  0.4925
 6445SOL    HW122740   5.194   6.637   2.386 -0.0414  0.0610  0.5747
 6445SOL    HW222741   5.224   6.626   2.238 -0.2111  0.5196  0.5040
 6446SOL     OW22742   6.409   0.289   5.976  0.0461  0.0964 -0.3922
 6446SOL    HW122743   6.432   0.369   6.024  0.7275  0.1934 -0.8769
 6446SOL    HW222744   6.492   0.244   5.962 -0.3511 -0.7734 -0.0021
 6447SOL     OW22745   1.980   6.041  10.392 -0.2520 -0.6937  0.1648
 6447SOL    HW122746   2.027   5.991  10.325  0.3995  0.7095 -0.4456
 6447SOL    HW222747   2.049   6.085  10.441 -0.8535  0.2932  0.1316
 6448SOL     OW22748   5.398   6.639   2.147  0.2020 -0.0762 -1.4207
 6448SOL    HW122749   5.416   6.697   2.221 -1.4039  0.0547 -1.1028
 6448SOL    HW222750   5.484   6.617   2.112  0.9893 -0.1538  0.4971
 6449SOL     OW22751   7.327   8.501   3.438 -0.2884 -0.8831  0.0748
 6449SOL    HW122752   7.385   8.560   3.486 -0.4212 -1.3612  0.8333
 6449SOL    HW222753   7.381   8.467   3.366 -0.2740  0.3152 -0.4900
 6450SOL     OW22754   9.468   8.667  10.966  0.0649  1.2735 -0.1911
 6450SOL    HW122755   9.419   8.742  10.934 -1.2103 -0.5036 -2.5765
 6450SOL    HW222756   9.401   8.604  10.992  1.1154  0.8609  1.6151
 6451SOL     OW22757   6.094   1.546   3.409  0.2449 -0.2301  0.2139
 6451SOL    HW122758   6.076   1.627   3.362 -0.1228 -0.7802 -0.6175
 6451SOL    HW222759   6.121   1.574   3.496  1.8341  0.8493 -0.6021
 6452SOL     OW22760   6.188   8.493  10.680 -0.0062 -0.6188 -0.1683
 6452SOL    HW122761   6.187   8.412  10.629 -0.8459 -0.7303  0.0224
 6452SOL    HW222762   6.278   8.501  10.711  0.0398 -1.5658 -0.0464
 6453SOL     OW22763   4.708   5.178   8.370 -0.0077 -0.0265  0.0213
 6453SOL    HW122764   4.629   5.223   8.341  0.2108  0.1523 -0.3007
 6453SOL    HW222765   4.731   5.121   8.296 -0.1595 -0.5058  0.3414
 6454SOL     OW22766   2.964   3.920   3.869 -0.0243 -0.0431  0.0009
 6454SOL    HW122767   2.965   3.829   3.840  0.5412  0.2978 -1.0683
 6454SOL    HW222768   3.008   3.918   3.954 -0.5712 -0.8558  0.2728
 6455SOL     OW22769   4.132   2.592   7.419 -0.5214 -0.0201  0.0899
 6455SOL    HW122770   4.172   2.513   7.383  0.2315  0.2873  0.2469
 6455SOL    HW222771   4.064   2.560   7.479  0.1151 -0.5529  0.5304
 6456SOL     OW22772   3.395   2.228   4.627 -0.1896 -0.5359 -0.6417
 6456SOL    HW122773   3.378   2.318   4.601 -0.1368 -0.4601 -0.4115
 6456SOL    HW222774   3.308   2.189   4.638 -0.3496  0.7949  3.8752
 6457SOL     OW22775   5.908  10.489   0.205 -0.5067 -0.0903 -0.8254
 6457SOL    HW122776   5.893  10.474   0.298  0.6934  0.9392 -0.4569
 6457SOL    HW222777   5.821  10.481   0.165 -1.1233  0.0982  0.4637
 6458SOL     OW22778   3.402   6.323   4.163  0.4477 -0.4577  0.0944
 6458SOL    HW122779   3.336   6.256   4.177  0.4715 -0.2430  1.2727
 6458SOL    HW222780   3.382   6.391   4.227  1.7133 -0.3120  0.3494
 6459SOL     OW22781   7.519   4.784  10.615 -0.7333  0.4293 -0.0104
 6459SOL    HW122782   7.425   4.780  10.635 -0.6708 -0.4560  0.1423
 6459SOL    HW222783   7.562   4.750  10.693 -0.2223  1.7985  0.3184
 6460SOL     OW22784   5.391  10.649   2.748  0.1062  0.2099  0.2758
 6460SOL    HW122785   5.346  10.574   2.787  1.0838 -0.9136 -0.7334
 6460SOL    HW222786   5.348  10.660   2.663  1.1065 -0.2966 -0.3044
 6461SOL     OW22787   1.635   2.363   7.991  0.3904  0.0026  0.0266
 6461SOL    HW122788   1.705   2.374   8.056  0.8451 -2.9245  0.1048
 6461SOL    HW222789   1.623   2.269   7.984 -1.3222  0.3370 -2.4038
 6462SOL     OW22790   6.911   9.017   1.744  0.1303 -0.6032  0.1148
 6462SOL    HW122791   6.879   9.076   1.676 -0.0324 -0.5446  0.2415
 6462SOL    HW222792   6.934   9.074   1.817 -0.9945 -0.7748  0.6142
 6463SOL     OW22793   5.772   7.121   2.294 -0.3650  1.0235 -0.1961
 6463SOL    HW122794   5.822   7.149   2.370  1.1198  0.5454 -0.9804
 6463SOL    HW222795   5.717   7.197   2.272 -0.0326  1.5290  0.7060
 6464SOL     OW22796   8.607   1.947   0.811  0.2516  0.6404  0.2634
 6464SOL    HW122797   8.626   2.010   0.741 -0.3446 -0.6519 -1.0800
 6464SOL    HW222798   8.579   1.868   0.765 -1.5499  0.2305  2.0080
 6465SOL     OW22799   3.446   0.076   0.042 -0.1990  0.5963  0.4652
 6465SOL    HW122800   3.417   0.085  -0.049  2.2107  0.8718 -0.2885
 6465SOL    HW222801   3.420  -0.014   0.066 -0.2383  0.2888 -0.7095
 6466SOL     OW22802   0.285   7.586   4.816 -0.1053  0.7192 -0.0029
 6466SOL    HW122803   0.316   7.677   4.813 -0.9612  1.0274  0.1343
 6466SOL    HW222804   0.228   7.583   4.893 -2.4137  0.8534 -1.6332
 6467SOL     OW22805   8.613  10.841   7.252  0.3548 -0.2389  0.0707
 6467SOL    HW122806   8.556  10.858   7.177  1.1266  1.1170 -0.2378
 6467SOL    HW222807   8.575  10.893   7.323  1.4426  1.0156 -0.2549
 6468SOL     OW22808   3.148   8.068   3.480  0.2095 -0.1711  0.0443
 6468SOL    HW122809   3.063   8.107   3.503 -0.0452 -1.0951  0.6800
 6468SOL    HW222810   3.211   8.140   3.491 -0.5495  0.6459 -0.8841
 6469SOL     OW22811   8.875   1.129   8.481  0.2177  0.1263 -0.1842
 6469SOL    HW122812   8.909   1.181   8.408 -0.9892  1.3715  0.1220
 6469SOL    HW222813   8.953   1.094   8.524  1.0033  0.9447 -0.9306
 6470SOL     OW22814   3.078   4.765   7.291 -0.1197 -0.1208  0.3718
 6470SOL    HW122815   3.101   4.794   7.379 -0.6903 -2.6409  1.3865
 6470SOL    HW222816   3.014   4.829   7.260  1.2593  1.6646  1.1612
 6471SOL     OW22817   7.967   0.166   2.045  0.0904  0.5449 -0.1628
 6471SOL    HW122818   7.999   0.255   2.057  3.2858 -0.6449  0.4784
 6471SOL    HW222819   8.031   0.124   1.988 -0.5647 -1.7906  0.7275
 6472SOL     OW22820   2.495   4.561   7.858 -0.4616 -0.5535  0.3730
 6472SOL    HW122821   2.518   4.499   7.789 -0.3355 -0.6336  0.4869
 6472SOL    HW222822   2.564   4.550   7.924 -0.1727  0.0381  0.1793
 6473SOL     OW22823   1.955   8.297   4.613 -0.2892  0.1489  0.2329
 6473SOL    HW122824   1.990   8.209   4.626 -0.3138  0.1268  0.1465
 6473SOL    HW222825   2.031   8.355   4.621  0.2029 -0.0684 -2.3364
 6474SOL     OW22826   7.033   9.238   4.318  0.0701  0.3274  0.3641
 6474SOL    HW122827   7.013   9.147   4.296  1.2195 -0.0874  0.9648
 6474SOL    HW222828   6.961   9.264   4.376 -1.9612  0.8388 -2.2760
 6475SOL     OW22829   9.329   1.828   0.571 -0.4172 -0.0519  0.0786
 6475SOL    HW122830   9.302   1.904   0.520 -1.0553  0.2054  0.7952
 6475SOL    HW222831   9.343   1.862   0.659  1.3227 -0.3709 -0.0648
 6476SOL     OW22832   2.945   5.849   2.452 -0.1768  0.5091 -0.4075
 6476SOL    HW122833   2.954   5.776   2.513  1.3462  0.7769 -0.2941
 6476SOL    HW222834   2.949   5.808   2.365 -2.5189  0.1077 -0.3695
 6477SOL     OW22835   2.966   1.787   0.883 -0.0521  0.3175  0.5680
 6477SOL    HW122836   3.024   1.749   0.817 -1.2151 -0.0801 -0.2377
 6477SOL    HW222837   2.953   1.717   0.946 -0.0841  0.2319  0.4668
 6478SOL     OW22838   6.969   8.666  10.773 -0.4287  0.1680 -0.4776
 6478SOL    HW122839   6.956   8.575  10.798 -1.7351  0.6671  0.7639
 6478SOL    HW222840   7.015   8.705  10.848 -0.4679  0.6800 -0.7159
 6479SOL     OW22841   8.398   6.335   9.659  0.7939  0.2360 -0.1240
 6479SOL    HW122842   8.338   6.406   9.681  0.9864  0.6160 -0.8112
 6479SOL    HW222843   8.458   6.373   9.595  1.3306 -0.3478  0.0285
 6480SOL     OW22844   4.423   4.654  10.079  0.0755 -0.2462 -0.0299
 6480SOL    HW122845   4.384   4.586  10.025 -0.5498  1.0949 -1.3134
 6480SOL    HW222846   4.350   4.708  10.108  0.4841 -0.5225  1.5714
 6481SOL     OW22847   2.897   9.041   3.338  0.0583  0.6347 -0.5749
 6481SOL    HW122848   2.848   9.000   3.409 -0.3246  0.1707 -1.1049
 6481SOL    HW222849   2.944   9.113   3.380 -0.0098  0.2422  0.1851
 6482SOL     OW22850   7.435   5.995   1.605 -0.5539 -0.7118  0.0548
 6482SOL    HW122851   7.394   5.912   1.579 -0.0213 -0.8677 -0.3002
 6482SOL    HW222852   7.514   5.969   1.652  0.3829 -0.4125 -1.2979
 6483SOL     OW22853   9.338   1.180  10.872 -0.5903  0.3884 -0.4300
 6483SOL    HW122854   9.368   1.093  10.844  2.1781  1.2503 -0.2513
 6483SOL    HW222855   9.333   1.174  10.967 -1.6781  0.0544 -0.4968
 6484SOL     OW22856   8.040   1.612   7.823 -0.1855 -0.9855  0.0903
 6484SOL    HW122857   7.985   1.614   7.744 -0.7248 -1.0584  0.4602
 6484SOL    HW222858   7.978   1.598   7.894  0.5018 -3.1118  0.3228
 6485SOL     OW22859   1.392   8.801   1.896  0.4670  0.0793  0.2535
 6485SOL    HW122860   1.457   8.869   1.908 -0.5488  1.0246  0.4826
 6485SOL    HW222861   1.309   8.848   1.886 -0.0903 -1.0724 -0.6819
 6486SOL     OW22862   7.780   7.965   5.246  0.0410 -0.1364  0.5668
 6486SOL    HW122863   7.689   7.938   5.236  0.5825 -1.7237 -0.1617
 6486SOL    HW222864   7.816   7.906   5.312  0.4200  0.8334  1.2512
 6487SOL     OW22865   4.752   4.812   2.577  0.2399  0.1162  0.0055
 6487SOL    HW122866   4.749   4.869   2.653 -0.6330  0.6037 -0.3832
 6487SOL    HW222867   4.838   4.827   2.538 -0.3410  1.9141 -0.6448
 6488SOL     OW22868   7.226   1.043   7.263  0.0228 -0.1042 -0.6259
 6488SOL    HW122869   7.319   1.025   7.277  0.0824 -1.3755 -2.4447
 6488SOL    HW222870   7.225   1.111   7.195 -0.3832  0.1155 -0.4017
 6489SOL     OW22871   9.152   4.745   5.778  0.1330 -0.1700  0.0397
 6489SOL    HW122872   9.086   4.730   5.846  0.6778 -0.2024  0.5650
 6489SOL    HW222873   9.229   4.696   5.808 -0.0075 -1.1837 -1.1902
 6490SOL     OW22874   9.889  10.639   7.517  0.2009  0.4569 -0.1130
 6490SOL    HW122875   9.812  10.657   7.571  1.3710  1.5335  1.2142
 6490SOL    HW222876   9.920  10.553   7.546  0.9549  1.1297  1.0930
 6491SOL     OW22877   4.686   8.543   2.508 -0.7532 -0.1941  0.3863
 6491SOL    HW122878   4.721   8.632   2.505 -0.4561 -0.3261 -0.1257
 6491SOL    HW222879   4.611   8.545   2.448  0.6971 -0.9033 -1.4931
 6492SOL     OW22880   4.878   2.428   3.590  0.3988  0.5970  0.0193
 6492SOL    HW122881   4.863   2.399   3.680  0.3264 -0.0844 -0.2104
 6492SOL    HW222882   4.957   2.382   3.562  2.1586  3.0712  0.7321
 6493SOL     OW22883   1.565   4.626   2.320 -0.1598  0.0658  0.4187
 6493SOL    HW122884   1.621   4.549   2.331  0.3543  0.5483  1.2760
 6493SOL    HW222885   1.481   4.590   2.292  0.3308 -0.7348 -0.0697
 6494SOL     OW22886   7.526  10.314   1.006 -0.1229 -0.3288 -0.0416
 6494SOL    HW122887   7.553  10.265   1.083 -0.2387 -0.1365  0.1208
 6494SOL    HW222888   7.510  10.403   1.038  0.5755 -0.0623 -0.4234
 6495SOL     OW22889   5.028   8.819  10.732 -0.5950  0.0919 -0.6143
 6495SOL    HW122890   4.977   8.867  10.798 -0.4060 -0.1420 -0.2984
 6495SOL    HW222891   4.962   8.779  10.675 -0.7532  1.4718 -1.4167
 6496SOL     OW22892   5.875   0.844   7.229  0.2586  0.0416  0.0462
 6496SOL    HW122893   5.866   0.938   7.212 -0.4076  0.5700  3.1460
 6496SOL    HW222894   5.788   0.817   7.258  0.3458 -1.6350 -1.1756
 6497SOL     OW22895   8.755   5.098   3.753  0.5989 -0.5851  0.3011
 6497SOL    HW122896   8.771   5.173   3.810 -1.6553 -1.7217  2.4925
 6497SOL    HW222897   8.772   5.131   3.665  3.1059  1.4953  1.4860
 6498SOL     OW22898   1.492   5.096   3.412 -0.6116 -0.2148 -0.3130
 6498SOL    HW122899   1.462   5.036   3.479  0.5704  0.9690  1.3106
 6498SOL    HW222900   1.412   5.136   3.378 -1.2033 -0.7151  0.4709
 6499SOL     OW22901   3.353   4.934   7.207  0.3068  0.2171  0.1681
 6499SOL    HW122902   3.280   4.975   7.252 -0.3728 -0.4659 -0.2949
 6499SOL    HW222903   3.430   4.982   7.237  0.1037 -1.3706  3.5317
 6500SOL     OW22904   1.159   0.082   7.193 -0.3308  0.5754 -0.3831
 6500SOL    HW122905   1.246   0.043   7.190  0.0990  1.5559 -0.6511
 6500SOL    HW222906   1.128   0.080   7.103 -0.0015  1.5362 -0.5240
 6501SOL     OW22907  10.659   8.465   6.209 -0.2211  0.4016 -0.2863
 6501SOL    HW122908  10.566   8.460   6.233 -0.2788  3.7329  0.3837
 6501SOL    HW222909  10.703   8.406   6.270 -1.7913 -0.5592 -0.0505
 6502SOL     OW22910   3.061   2.223   6.583  0.1667 -0.2531  0.2041
 6502SOL    HW122911   3.069   2.127   6.580 -2.0475 -0.5453  1.7805
 6502SOL    HW222912   3.112   2.249   6.659  0.1943 -0.2638  0.1889
 6503SOL     OW22913  10.341   0.401   9.827  0.0770  0.9899 -0.1970
 6503SOL    HW122914  10.279   0.327   9.831  0.1143  0.7539 -3.1318
 6503SOL    HW222915  10.289   0.476   9.855 -0.4892  0.1858  0.9843
 6504SOL     OW22916   4.626   7.886   2.752  0.5149 -0.3677  0.5088
 6504SOL    HW122917   4.541   7.920   2.724  0.0734 -1.5443  0.4033
 6504SOL    HW222918   4.651   7.824   2.684  0.7915 -1.0921  1.2618
 6505SOL     OW22919   2.931   6.536   9.955 -0.6221 -0.3180 -0.2023
 6505SOL    HW122920   3.005   6.503   9.903  0.8197  2.1778  0.1497
 6505SOL    HW222921   2.875   6.580   9.891 -1.0631 -0.9482 -0.2531
 6506SOL     OW22922   0.223   1.398  10.452  0.3572 -0.5433 -0.3449
 6506SOL    HW122923   0.264   1.439  10.528 -0.4198 -0.9461  0.2959
 6506SOL    HW222924   0.167   1.329  10.488  0.9017 -1.5266 -1.3603
 6507SOL     OW22925   4.832   4.317   5.652  0.2363 -0.8166 -0.2122
 6507SOL    HW122926   4.749   4.365   5.656  1.3117  0.9197  1.8166
 6507SOL    HW222927   4.863   4.331   5.562 -1.9164 -1.9948 -1.1942
 6508SOL     OW22928   7.833   4.560   3.984  0.0365  0.0792 -0.8429
 6508SOL    HW122929   7.762   4.553   4.048 -0.2448  1.1680 -1.0234
 6508SOL    HW222930   7.830   4.651   3.954  0.9404 -0.0973 -1.5126
 6509SOL     OW22931   2.987   5.943   8.759 -0.5848  0.2237  0.7152
 6509SOL    HW122932   2.950   5.963   8.673 -1.3643  1.9128  1.4094
 6509SOL    HW222933   3.080   5.930   8.742 -0.6717  0.8685 -0.3375
 6510SOL     OW22934   7.873   4.400  10.113 -0.2624  0.2171  0.2840
 6510SOL    HW122935   7.898   4.368  10.026 -0.7531  0.5193  0.0329
 6510SOL    HW222936   7.880   4.323  10.169 -1.8601 -0.4353 -0.4035
 6511SOL     OW22937   5.899   5.652   5.048 -0.0487  0.1786 -0.1207
 6511SOL    HW122938   5.941   5.593   5.111  0.5905 -0.3055 -0.9984
 6511SOL    HW222939   5.905   5.607   4.964  2.5237  2.4617 -1.2633
 6512SOL     OW22940   8.368   5.257   1.924  0.5093 -0.1798 -0.2237
 6512SOL    HW122941   8.336   5.213   2.003 -1.6306 -0.7158 -1.3737
 6512SOL    HW222942   8.337   5.347   1.931 -0.1086 -0.3558 -0.6953
 6513SOL     OW22943   1.455   5.517   9.391 -0.0845 -0.1457 -0.0999
 6513SOL    HW122944   1.525   5.463   9.354 -1.5589 -1.3034 -1.2855
 6513SOL    HW222945   1.499   5.595   9.422  1.7620 -0.9157 -0.7061
 6514SOL     OW22946   3.867   5.566   2.367 -0.0846  0.1260  0.0848
 6514SOL    HW122947   3.808   5.521   2.429 -2.1379  2.3417 -0.1574
 6514SOL    HW222948   3.818   5.568   2.285  1.1536  0.3108 -0.6531
 6515SOL     OW22949   0.718   7.336   6.668 -0.0030 -0.2316 -0.1200
 6515SOL    HW122950   0.690   7.427   6.676 -1.4873 -0.8086  1.5719
 6515SOL    HW222951   0.721   7.320   6.574 -1.0782  1.1718 -0.4128
 6516SOL     OW22952   6.003   7.408   2.814  0.4235  0.3966  0.1056
 6516SOL    HW122953   6.039   7.478   2.868 -1.8137  2.0062 -0.4331
 6516SOL    HW222954   6.002   7.443   2.725  0.7475 -0.9045 -0.4274
 6517SOL     OW22955   0.974   7.895   3.479  0.5038  0.4597  0.4213
 6517SOL    HW122956   0.975   7.871   3.386 -0.3406  1.1692  0.2268
 6517SOL    HW222957   1.015   7.820   3.523  0.4414 -0.1065 -0.4666
 6518SOL     OW22958   1.066   5.771   0.108 -0.4708  0.4433 -0.4537
 6518SOL    HW122959   1.041   5.773   0.016 -0.8400  2.0874 -0.3237
 6518SOL    HW222960   1.046   5.858   0.141  0.2719  0.0763  1.0289
 6519SOL     OW22961   5.307  10.380   8.585  0.0630  0.7593  0.1405
 6519SOL    HW122962   5.356  10.408   8.662 -1.2233  1.6171  0.6605
 6519SOL    HW222963   5.331  10.288   8.574  0.3301  0.6557  1.4996
 6520SOL     OW22964   2.292   5.321   2.479 -0.4097  0.3249  0.3914
 6520SOL    HW122965   2.288   5.230   2.452 -2.1896  0.5757 -0.2234
 6520SOL    HW222966   2.339   5.319   2.562 -0.0446 -1.0918  0.1629
 6521SOL     OW22967  10.895   9.229   7.610  0.4220 -0.2508 -0.0856
 6521SOL    HW122968  10.919   9.137   7.598  1.6399 -0.0747  0.9682
 6521SOL    HW222969  10.807   9.225   7.648  0.0958 -0.9582 -0.8911
 6522SOL     OW22970   6.635   3.869   9.520  0.4709  0.0370  0.0990
 6522SOL    HW122971   6.634   3.776   9.497  1.5676  0.2974 -1.0676
 6522SOL    HW222972   6.600   3.872   9.609 -1.6890 -1.2482 -0.6598
 6523SOL     OW22973   8.079  10.452   6.820  0.1484 -0.1682 -0.2968
 6523SOL    HW122974   8.144  10.393   6.859  2.0359  1.2017 -1.2721
 6523SOL    HW222975   8.058  10.412   6.736 -0.9419 -1.0431  0.3671
 6524SOL     OW22976   5.741   2.001   5.768 -0.3937  0.1211 -0.3174
 6524SOL    HW122977   5.779   2.036   5.688  0.1902 -0.2294 -0.1950
 6524SOL    HW222978   5.803   1.933   5.797 -0.4835  0.3960  0.5394
 6525SOL     OW22979   4.064   3.640   1.477  0.1701 -0.3659 -0.4541
 6525SOL    HW122980   3.971   3.614   1.471 -0.2960  1.5607 -2.0669
 6525SOL    HW222981   4.062   3.727   1.516  1.3684 -0.5789  0.0996
 6526SOL     OW22982   7.793   1.171   9.243  0.7051 -0.6053 -0.2300
 6526SOL    HW122983   7.878   1.216   9.235  0.6217 -0.4170 -0.0806
 6526SOL    HW222984   7.754   1.177   9.156  0.5951 -0.1824 -0.1548
 6527SOL     OW22985   3.983   3.630   6.495  0.4935 -0.0751  0.6649
 6527SOL    HW122986   3.974   3.724   6.508  1.8479  0.4913 -2.0179
 6527SOL    HW222987   3.913   3.608   6.432  0.4958 -0.7582  0.9000
 6528SOL     OW22988   8.070   6.396   4.597 -0.0084  0.1236 -0.1742
 6528SOL    HW122989   7.989   6.354   4.625 -0.2506 -0.0186 -1.0578
 6528SOL    HW222990   8.139   6.340   4.631 -0.2953 -0.1199  0.0135
 6529SOL     OW22991   2.097   7.651   6.060 -0.8274  0.6410  0.3778
 6529SOL    HW122992   2.096   7.658   5.965  0.8606  0.9899  0.3610
 6529SOL    HW222993   2.173   7.704   6.087 -0.3367 -0.7477  1.7981
 6530SOL     OW22994   0.704   6.752   8.083 -0.1362  0.1058  1.1294
 6530SOL    HW122995   0.639   6.697   8.125  0.6930 -1.7465  0.0290
 6530SOL    HW222996   0.778   6.694   8.066  0.7470  1.5453 -0.0979
 6531SOL     OW22997   3.536   6.397   6.774  0.1568  0.1328 -0.3547
 6531SOL    HW122998   3.464   6.336   6.789  0.1333  0.1234 -0.5042
 6531SOL    HW222999   3.522   6.430   6.685 -2.4086  3.7684  1.2804
 6532SOL     OW23000   5.838   9.609   2.072  0.6381  0.8840 -0.1471
 6532SOL    HW123001   5.836   9.692   2.119  0.4123  0.8536 -0.1055
 6532SOL    HW223002   5.915   9.564   2.108  1.0168  1.2571 -0.4857
 6533SOL     OW23003   0.300   6.236   7.338 -0.2722  0.2256 -0.1834
 6533SOL    HW123004   0.244   6.292   7.392 -1.9283 -0.4891 -1.1220
 6533SOL    HW223005   0.245   6.162   7.314  1.2195 -0.7169 -0.7763
 6534SOL     OW23006   6.686  10.282   9.827  0.0777 -0.1012 -0.3302
 6534SOL    HW123007   6.699  10.187   9.816  1.1323  0.0567 -0.5449
 6534SOL    HW223008   6.766  10.321   9.792  0.0152  0.8300  0.5333
 6535SOL     OW23009   2.312   1.664   7.722 -0.1230  0.3668  0.6196
 6535SOL    HW123010   2.331   1.663   7.628 -0.5594  0.3623  0.5287
 6535SOL    HW223011   2.305   1.757   7.744 -0.0086  0.3681  0.6492
 6536SOL     OW23012   9.109   2.731   7.837 -0.0178 -0.4804 -0.0531
 6536SOL    HW123013   9.072   2.762   7.754 -0.1026  0.2726  0.2685
 6536SOL    HW223014   9.199   2.761   7.836 -0.9289  2.4384  1.6215
 6537SOL     OW23015   7.321   2.134   7.354  0.2514 -0.1311  0.4918
 6537SOL    HW123016   7.266   2.056   7.344  1.8023 -1.3452  1.1110
 6537SOL    HW223017   7.411   2.099   7.354  1.0247  1.8135 -0.7002
 6538SOL     OW23018   1.792  10.280   8.264 -0.2109  0.1371  0.2472
 6538SOL    HW123019   1.772  10.198   8.218  0.2524  0.1668 -0.0125
 6538SOL    HW223020   1.818  10.252   8.352 -0.5079  0.0354  0.3032
 6539SOL     OW23021   7.464   7.215   2.203 -0.1078 -0.3044 -0.1127
 6539SOL    HW123022   7.376   7.179   2.187 -0.2208 -0.7415  1.4790
 6539SOL    HW223023   7.448   7.307   2.221 -0.0600  0.0077 -1.5859
 6540SOL     OW23024   4.895   2.549   9.680  0.0374 -0.1342 -0.1952
 6540SOL    HW123025   4.867   2.458   9.692  0.5383 -0.2126  0.3918
 6540SOL    HW223026   4.813   2.598   9.673 -0.2422 -0.5363  0.2251
 6541SOL     OW23027   6.517   5.273   6.289 -0.1985 -0.1919 -0.5406
 6541SOL    HW123028   6.517   5.368   6.295  1.0404 -0.2155 -0.0570
 6541SOL    HW223029   6.430   5.247   6.321 -0.2130  0.7257  0.1822
 6542SOL     OW23030   0.930   6.103   7.394  0.6770  0.2594  0.5621
 6542SOL    HW123031   0.894   6.025   7.438  0.6500 -0.1327 -0.1507
 6542SOL    HW223032   0.859   6.166   7.397  0.4883  0.0472  0.6111
 6543SOL     OW23033  10.545   8.962   2.572  0.3464  0.3073 -0.1555
 6543SOL    HW123034  10.534   8.896   2.504 -0.9950 -0.0540  0.4044
 6543SOL    HW223035  10.584   9.036   2.526  2.3344 -1.0212 -0.6979
 6544SOL     OW23036  10.432   6.998   4.584 -0.1502 -0.0036  0.3205
 6544SOL    HW123037  10.468   6.914   4.611 -0.0037 -0.8406 -2.2847
 6544SOL    HW223038  10.467   7.011   4.495 -2.1911  1.5966 -0.2926
 6545SOL     OW23039   9.442   7.999   3.136  0.0830  0.0797  0.0315
 6545SOL    HW123040   9.375   8.001   3.068 -1.1436  0.9920  1.2301
 6545SOL    HW223041   9.392   7.999   3.218  1.5334 -0.6566  0.9434
 6546SOL     OW23042   6.915   5.664   5.055  0.2472  0.7742  0.2484
 6546SOL    HW123043   6.948   5.631   5.138 -1.4261 -1.3404  0.1327
 6546SOL    HW223044   6.993   5.681   5.003  1.2523 -0.4319  1.3325
 6547SOL     OW23045   3.863   7.800   6.831 -0.4061  0.2567  0.0538
 6547SOL    HW123046   3.877   7.890   6.804  0.4006  0.8827  2.4266
 6547SOL    HW223047   3.768   7.790   6.836 -0.4901  1.1528  0.3152
 6548SOL     OW23048   2.281   1.903   6.227  0.0554 -0.0215  0.2172
 6548SOL    HW123049   2.235   1.841   6.170 -0.1734  0.0411  0.3320
 6548SOL    HW223050   2.241   1.988   6.207  0.3360  0.0820  0.0927
 6549SOL     OW23051   6.673   0.690   7.753 -0.0954  0.3198 -0.2567
 6549SOL    HW123052   6.631   0.729   7.829 -1.4443  0.8902 -1.2715
 6549SOL    HW223053   6.633   0.603   7.746  0.1917  0.1826 -0.1714
 6550SOL     OW23054   1.716   5.366   1.918 -0.5129 -0.4960  0.2827
 6550SOL    HW123055   1.683   5.408   1.839  1.7596 -1.9079 -1.4805
 6550SOL    HW223056   1.799   5.327   1.892  0.9397  0.0939  3.7170
 6551SOL     OW23057   9.903   5.805   4.985 -0.5807  0.0392 -0.0232
 6551SOL    HW123058   9.945   5.760   5.058 -1.2602  0.7096  0.7890
 6551SOL    HW223059   9.849   5.873   5.026 -1.1022  0.3108 -1.1361
 6552SOL     OW23060  10.737   6.512   7.290  0.7069  0.2346  0.1432
 6552SOL    HW123061  10.807   6.576   7.306 -0.1259  1.0639  0.4830
 6552SOL    HW223062  10.698   6.497   7.376 -1.3551  1.8997 -0.4617
 6553SOL     OW23063   2.175   8.163   7.410 -0.2364 -0.3435  0.5348
 6553SOL    HW123064   2.085   8.183   7.384  0.3201  2.7425  0.7873
 6553SOL    HW223065   2.194   8.079   7.369 -2.7450 -0.3449 -0.7028
 6554SOL     OW23066   2.805   7.955   8.090 -0.6068  0.2626  0.0560
 6554SOL    HW123067   2.874   7.999   8.039 -1.5944  0.6308 -0.9705
 6554SOL    HW223068   2.771   7.888   8.031 -1.1909  0.1375  0.5397
 6555SOL     OW23069   6.427   8.147   0.930 -0.3214  0.5796  0.7858
 6555SOL    HW123070   6.467   8.226   0.892  0.3344  0.1423  0.5608
 6555SOL    HW223071   6.431   8.161   1.024 -0.8155  1.1157  0.7299
 6556SOL     OW23072   4.054   9.856   9.047  0.1889  0.0043  0.0944
 6556SOL    HW123073   3.994   9.809   8.989 -2.4646  0.0690  2.7353
 6556SOL    HW223074   4.101   9.787   9.094  0.5875 -0.0117 -0.3167
 6557SOL     OW23075   7.803   8.196   7.611 -0.0686 -0.1839  0.2399
 6557SOL    HW123076   7.708   8.199   7.603 -0.0473  0.4539  0.1670
 6557SOL    HW223077   7.835   8.207   7.522  0.0760 -0.1794  0.2923
 6558SOL     OW23078  10.128   6.930   8.361  0.2216  0.0214 -0.4876
 6558SOL    HW123079  10.073   6.917   8.284 -0.5467  0.1346  0.0333
 6558SOL    HW223080  10.132   7.025   8.372  0.5966  0.0155 -0.5793
 6559SOL     OW23081   0.478   2.662   3.893  0.2265  0.5832 -0.2623
 6559SOL    HW123082   0.563   2.628   3.920 -0.4967 -1.2030 -0.1987
 6559SOL    HW223083   0.467   2.630   3.803  0.0099  1.5648 -0.5961
 6560SOL     OW23084   1.815   7.031  10.269 -0.2628  0.4215  0.2889
 6560SOL    HW123085   1.758   7.001  10.199  0.1654  1.5801 -0.5685
 6560SOL    HW223086   1.903   7.031  10.230 -0.2667  2.9414  0.1776
 6561SOL     OW23087   8.381   7.518  10.566  0.2409 -0.3951 -0.4842
 6561SOL    HW123088   8.475   7.502  10.572  0.1049 -1.0052 -0.0193
 6561SOL    HW223089   8.341   7.451  10.620 -0.4330  0.3037 -0.1030
 6562SOL     OW23090  10.734   0.227   1.087  0.1267  0.1380 -0.3207
 6562SOL    HW123091  10.639   0.222   1.092  0.2533 -0.3777  1.6891
 6562SOL    HW223092  10.765   0.199   1.173  2.1011  0.2476 -0.9672
 6563SOL     OW23093   3.153   9.274  10.492 -0.2395 -0.4367  0.1448
 6563SOL    HW123094   3.241   9.293  10.524 -0.4838 -0.6654  0.9819
 6563SOL    HW223095   3.097   9.334  10.542 -0.7220 -1.4046  0.7897
 6564SOL     OW23096  10.775   0.230  10.053  0.2096 -0.6172 -0.0542
 6564SOL    HW123097  10.815   0.247   9.968 -0.2060 -0.3187 -0.1896
 6564SOL    HW223098  10.688   0.269  10.048  0.5897  0.3789  0.9013
 6565SOL     OW23099   1.058   3.900   5.121  0.0893 -0.3604 -0.5086
 6565SOL    HW123100   1.027   3.811   5.137 -1.0615 -0.7420 -4.1986
 6565SOL    HW223101   1.152   3.896   5.136 -0.1879 -1.7725  0.9708
 6566SOL     OW23102   5.238   8.378   3.580  0.0434 -0.1577  0.6330
 6566SOL    HW123103   5.275   8.311   3.523  0.1633 -0.4682  1.0736
 6566SOL    HW223104   5.314   8.422   3.619 -0.0435 -1.0679  1.8506
 6567SOL     OW23105   8.726   8.647  10.256 -0.8285  0.1213  0.1359
 6567SOL    HW123106   8.806   8.594  10.262 -1.0528 -0.2007  0.3966
 6567SOL    HW223107   8.679   8.627  10.338 -0.3516  1.6577  0.7978
 6568SOL     OW23108   3.160   7.790   6.027 -0.2224 -0.1242 -0.6098
 6568SOL    HW123109   3.199   7.704   6.014  1.5451  0.3902  1.1482
 6568SOL    HW223110   3.203   7.847   5.963 -0.5175 -0.2729 -0.9429
 6569SOL     OW23111   4.163   8.063   5.126 -0.4740 -0.0188  0.3344
 6569SOL    HW123112   4.185   8.027   5.212  0.8773  1.0452  0.4573
 6569SOL    HW223113   4.115   8.144   5.144  1.1376  1.0177  0.1392
 6570SOL     OW23114   2.727   2.417  10.256  0.5201  0.2896 -0.2393
 6570SOL    HW123115   2.750   2.325  10.241  0.5958  0.1630  0.6017
 6570SOL    HW223116   2.730   2.427  10.351  0.5639  1.1821 -0.3306
 6571SOL     OW23117   7.466   1.094   9.139  0.4615  0.7069 -0.1715
 6571SOL    HW123118   7.493   1.091   9.047 -0.9754 -0.5684 -0.5804
 6571SOL    HW223119   7.391   1.153   9.140 -0.6191 -0.6528 -0.1273
 6572SOL     OW23120   9.204   9.910   5.588  0.4589 -0.4787 -0.1453
 6572SOL    HW123121   9.241   9.889   5.502 -0.4826  0.0245 -0.6754
 6572SOL    HW223122   9.154   9.832   5.613 -1.3951  0.3417 -1.2202
 6573SOL     OW23123   1.605   3.712   0.669 -0.1585 -0.5919  0.3912
 6573SOL    HW123124   1.620   3.799   0.633  1.5739 -1.5034 -1.2114
 6573SOL    HW223125   1.567   3.727   0.755 -1.0753  1.7149 -0.3979
 6574SOL     OW23126   2.213   7.222   9.840  0.0892  0.2709 -0.3803
 6574SOL    HW123127   2.152   7.257   9.904  0.1701 -2.2416  1.1145
 6574SOL    HW223128   2.168   7.146   9.803  1.1280  0.1423 -1.4087
 6575SOL     OW23129   5.567   6.577   0.363  0.0116 -0.6142  0.6520
 6575SOL    HW123130   5.578   6.665   0.327 -1.6988 -0.5887  0.1411
 6575SOL    HW223131   5.646   6.530   0.335  0.4957  0.4913  0.1227
 6576SOL     OW23132   1.517   8.306   6.354 -0.5392  0.0739 -1.0412
 6576SOL    HW123133   1.596   8.252   6.348 -0.4457  0.0447  0.4567
 6576SOL    HW223134   1.449   8.247   6.386 -0.7957  0.4825 -0.8321
 6577SOL     OW23135  10.569   0.273   6.252 -0.2594 -0.1276  0.0855
 6577SOL    HW123136  10.619   0.215   6.309 -1.5614 -1.3010  0.0514
 6577SOL    HW223137  10.510   0.320   6.312  0.1719  0.5159  0.0082
 6578SOL     OW23138   5.663   9.135   7.063  0.7435  0.3456  0.6250
 6578SOL    HW123139   5.618   9.090   7.134 -0.9176  0.7936 -0.1182
 6578SOL    HW223140   5.627   9.224   7.063 -0.9486 -0.2685 -2.1566
 6579SOL     OW23141   7.226   9.886   6.710 -0.5468 -0.7072 -0.1324
 6579SOL    HW123142   7.256   9.809   6.759  0.0587 -0.9313 -0.8378
 6579SOL    HW223143   7.306   9.936   6.694 -1.1093  0.7124  1.4086
 6580SOL     OW23144   3.525   3.329   4.489 -0.2759 -1.0111  0.3940
 6580SOL    HW123145   3.493   3.268   4.555  0.3393  0.3800  2.0265
 6580SOL    HW223146   3.620   3.329   4.501 -0.3130  0.6987  0.8525
 6581SOL     OW23147  10.841   8.586  10.450  0.4333 -0.2323 -0.2071
 6581SOL    HW123148  10.844   8.555  10.540  0.8168 -0.3429 -0.2568
 6581SOL    HW223149  10.818   8.679  10.456  0.5069 -0.2292  0.0036
 6582SOL     OW23150   6.421   4.026   4.554 -0.4590  0.7050  0.1819
 6582SOL    HW123151   6.473   3.976   4.617 -1.9118 -1.2020 -0.0853
 6582SOL    HW223152   6.350   3.966   4.528 -1.2958  2.3255 -1.4016
 6583SOL     OW23153   3.595   9.499   4.986  0.0661  0.2013  0.1711
 6583SOL    HW123154   3.593   9.585   4.945  0.4968  0.8159  1.4040
 6583SOL    HW223155   3.671   9.455   4.948  0.4115  0.7264  0.2559
 6584SOL     OW23156   6.186   6.062   7.205  0.1418 -0.6408  0.5381
 6584SOL    HW123157   6.172   6.151   7.173  0.3101 -0.9350 -0.3783
 6584SOL    HW223158   6.234   6.072   7.287 -0.3963  0.1340  0.7679
 6585SOL     OW23159   8.300   7.180   4.520  0.5273  0.3454  0.3454
 6585SOL    HW123160   8.216   7.172   4.564  1.2546  0.5811  1.7916
 6585SOL    HW223161   8.330   7.268   4.540  2.7620 -0.9120  2.8208
 6586SOL     OW23162   4.106   3.956   4.463 -0.9587 -0.4467 -0.0294
 6586SOL    HW123163   4.086   4.045   4.436  1.5215 -0.4790 -2.2163
 6586SOL    HW223164   4.144   3.965   4.550  2.4592  1.1019 -1.5635
 6587SOL     OW23165   7.881  10.685   7.573  0.2503  0.3146  0.1215
 6587SOL    HW123166   7.976  10.680   7.574  0.1859 -1.0309  0.8976
 6587SOL    HW223167   7.859  10.733   7.653  0.2876  1.0768 -0.3178
 6588SOL     OW23168   2.569   0.359   8.454 -0.7108 -0.1472  0.6928
 6588SOL    HW123169   2.621   0.339   8.532  0.2704  0.2568  0.1600
 6588SOL    HW223170   2.590   0.289   8.393 -2.4093 -1.1353  1.2064
 6589SOL     OW23171   2.341   5.630   3.993  0.1741 -0.3945  0.1239
 6589SOL    HW123172   2.299   5.611   3.909  0.6212 -2.2945  0.3191
 6589SOL    HW223173   2.276   5.605   4.058  0.5832 -0.7859  0.3795
 6590SOL     OW23174  10.308   6.011   5.243  0.1936 -0.0090 -0.0089
 6590SOL    HW123175  10.236   5.969   5.290 -0.0107 -1.5350 -1.6317
 6590SOL    HW223176  10.265   6.071   5.182  0.3531  0.0147 -0.0986
 6591SOL     OW23177   4.784   5.599   9.267 -0.2616 -0.3169  0.3131
 6591SOL    HW123178   4.786   5.503   9.263  0.3938 -0.2475 -1.4369
 6591SOL    HW223179   4.874   5.626   9.255 -0.0629  0.4971  3.2069
 6592SOL     OW23180   1.347   5.725   3.522  0.1017 -0.2789  0.1653
 6592SOL    HW123181   1.335   5.636   3.554 -0.2482 -0.2383  0.1482
 6592SOL    HW223182   1.258   5.758   3.510  0.2280  0.6160  1.6499
 6593SOL     OW23183   2.318   1.114   8.704  0.0314  0.0336  0.2911
 6593SOL    HW123184   2.335   1.114   8.798 -1.7396 -0.0772  0.6194
 6593SOL    HW223185   2.223   1.125   8.696  0.3726  2.0287 -1.5201
 6594SOL     OW23186  10.853   9.030   4.447  0.1754  0.5230 -0.4373
 6594SOL    HW123187  10.890   9.087   4.379 -1.9154  1.1749 -1.0865
 6594SOL    HW223188  10.871   8.941   4.416 -0.6957  0.8099 -1.8426
 6595SOL     OW23189  10.437   3.784   9.908  0.4074 -0.6071 -0.4551
 6595SOL    HW123190  10.470   3.700   9.940 -0.3161 -1.2196 -1.2798
 6595SOL    HW223191  10.391   3.822   9.983  1.4971 -0.5422  0.1817
 6596SOL     OW23192   2.968  10.170   2.462  0.3529 -0.5767 -0.1846
 6596SOL    HW123193   2.926  10.088   2.433 -0.0289 -0.5971  0.4208
 6596SOL    HW223194   2.973  10.223   2.382 -1.7078 -0.1981 -0.1012
 6597SOL     OW23195   9.194   1.430   3.810  0.5195 -0.2394 -0.4398
 6597SOL    HW123196   9.219   1.460   3.722 -0.0358 -1.2738 -0.9604
 6597SOL    HW223197   9.277   1.413   3.854  0.8183  1.2394 -0.4293
 6598SOL     OW23198   4.512   1.950   1.184  0.4713 -0.2651  0.3046
 6598SOL    HW123199   4.596   1.911   1.159  0.6386  0.3226 -0.0498
 6598SOL    HW223200   4.479   1.989   1.103 -0.7054 -1.5253  0.1485
 6599SOL     OW23201   2.957   1.600  10.527 -0.0303  0.2659 -0.5511
 6599SOL    HW123202   3.029   1.600  10.465  1.5292  0.8634  1.2114
 6599SOL    HW223203   2.910   1.682  10.510 -0.3964 -0.1877 -1.7854
 6600SOL     OW23204   7.844   5.908   7.939  0.1693  0.1710  0.0042
 6600SOL    HW123205   7.906   5.958   7.886 -0.7016 -0.5934 -1.7672
 6600SOL    HW223206   7.897   5.838   7.979  0.6734  0.2633 -0.5025
 6601SOL     OW23207   0.527   2.537   8.883  0.2337 -0.1860 -0.1437
 6601SOL    HW123208   0.434   2.559   8.879  0.1470 -0.5480 -0.1420
 6601SOL    HW223209   0.529   2.444   8.904  0.6403  0.4096  2.5444
 6602SOL     OW23210   5.100   0.122   4.370 -0.3961  0.2087  0.0636
 6602SOL    HW123211   5.068   0.120   4.280 -0.1669  0.5343 -0.0286
 6602SOL    HW223212   5.174   0.184   4.367  1.0889 -1.5115 -0.0222
 6603SOL     OW23213   4.754   4.639   7.005 -0.5598 -0.0715 -0.0348
 6603SOL    HW123214   4.777   4.723   6.966 -1.6486 -0.8765 -2.5394
 6603SOL    HW223215   4.668   4.617   6.967 -0.8598 -1.7469  1.5002
 6604SOL     OW23216   9.587   7.971   9.531 -0.1601 -0.4572  0.2404
 6604SOL    HW123217   9.560   7.899   9.587  0.5395 -0.7849  0.1664
 6604SOL    HW223218   9.611   8.041   9.592  0.5082 -0.7819  0.3542
 6605SOL     OW23219   8.853   4.730   8.381 -0.4102  0.1694 -0.0324
 6605SOL    HW123220   8.810   4.790   8.321 -0.8933 -0.2116 -0.0741
 6605SOL    HW223221   8.944   4.759   8.383 -0.4213  0.2809 -0.8301
 6606SOL     OW23222   1.003   1.734   3.697  1.0162 -0.1545 -0.7584
 6606SOL    HW123223   0.954   1.652   3.702  1.0421 -0.1091  0.2183
 6606SOL    HW223224   0.965   1.790   3.764  1.3670  0.4391 -1.0480
 6607SOL     OW23225   4.272  10.227   0.786  0.1197  0.1079 -0.2442
 6607SOL    HW123226   4.249  10.278   0.864 -0.7799  0.7525 -0.9187
 6607SOL    HW223227   4.367  10.228   0.784  0.1595  0.0383  0.8738
 6608SOL     OW23228   0.247   4.426   3.835  0.0456  1.1373 -0.2659
 6608SOL    HW123229   0.290   4.506   3.806 -1.1911  2.6484  1.9176
 6608SOL    HW223230   0.275   4.416   3.927 -1.4037  0.1784  0.0945
 6609SOL     OW23231   2.592   6.123   1.169 -0.2863 -0.0054  0.0488
 6609SOL    HW123232   2.649   6.196   1.193 -0.7762  0.6269 -0.6735
 6609SOL    HW223233   2.586   6.070   1.249  0.0496  0.7610  0.5868
 6610SOL     OW23234   2.251   6.957   9.105  0.0793 -0.2853 -0.0292
 6610SOL    HW123235   2.287   6.953   9.194 -2.1339 -2.9897  0.7946
 6610SOL    HW223236   2.280   6.875   9.064 -0.3116  0.1857 -1.2593
 6611SOL     OW23237   5.146   2.534   9.592 -0.1309  0.1485  0.1971
 6611SOL    HW123238   5.055   2.545   9.620  0.0880  0.6028  0.7509
 6611SOL    HW223239   5.147   2.452   9.543 -0.7366 -0.1355  0.6555
 6612SOL     OW23240   9.438   0.355   3.763  0.4700  0.2463  0.0795
 6612SOL    HW123241   9.446   0.413   3.839 -0.7112 -1.2042  1.3386
 6612SOL    HW223242   9.448   0.413   3.687 -1.0214  2.1430  1.2893
 6613SOL     OW23243   5.602   9.944   2.769  0.0945 -0.2682  0.1767
 6613SOL    HW123244   5.626  10.015   2.711 -0.8586 -0.0798 -0.0011
 6613SOL    HW223245   5.685   9.910   2.803  0.6490 -0.3384 -1.2383
 6614SOL     OW23246   4.180   0.585   3.024  0.0661 -0.2079  1.1249
 6614SOL    HW123247   4.152   0.655   3.083  1.3149  0.5316  0.8796
 6614SOL    HW223248   4.276   0.588   3.028  0.1426 -1.0634  0.1243
 6615SOL     OW23249  10.543   8.621   9.154 -0.3854  0.7969  0.1105
 6615SOL    HW123250  10.582   8.567   9.224  0.3767 -0.5294 -1.3080
 6615SOL    HW223251  10.618   8.663   9.112 -0.6403 -0.1507 -1.3233
 6616SOL     OW23252   9.359   9.558   0.155 -0.2897  0.4180 -0.1657
 6616SOL    HW123253   9.373   9.463   0.161  0.6015  0.4841 -0.9620
 6616SOL    HW223254   9.422   9.586   0.088 -1.9967  1.2609 -1.4355
 6617SOL     OW23255   6.490   1.115   6.646 -0.0637 -0.3007 -0.6072
 6617SOL    HW123256   6.543   1.110   6.567  1.8436  1.0350  0.5397
 6617SOL    HW223257   6.486   1.025   6.679  0.6226 -0.5757 -1.2695
 6618SOL     OW23258   6.774   5.824   3.141  0.2061  0.1795  0.6421
 6618SOL    HW123259   6.785   5.785   3.054  2.0516 -1.9602  1.7785
 6618SOL    HW223260   6.692   5.787   3.174 -0.0217  0.2732  0.1886
 6619SOL     OW23261   8.199   8.945   9.945  0.3580 -0.5881  0.5826
 6619SOL    HW123262   8.254   8.990   9.881  1.7222 -0.7510  1.6110
 6619SOL    HW223263   8.134   8.898   9.893 -0.5237  1.8227 -0.5465
 6620SOL     OW23264   1.826   5.302   3.034  0.3660  0.3883  0.5174
 6620SOL    HW123265   1.781   5.220   3.052  2.6239 -1.1800 -0.7171
 6620SOL    HW223266   1.777   5.341   2.961  0.3207 -0.7454 -0.0723
 6621SOL     OW23267   8.368   7.797   0.306  0.0356  0.0537  0.0385
 6621SOL    HW123268   8.282   7.814   0.343 -0.8576  0.6075 -2.1779
 6621SOL    HW223269   8.350   7.754   0.222  1.8995  0.1509 -0.4387
 6622SOL     OW23270   3.023   7.107   4.507  0.3333 -0.6820 -0.5976
 6622SOL    HW123271   3.027   7.191   4.461  1.4423 -1.6842 -2.4053
 6622SOL    HW223272   2.935   7.073   4.488 -0.5644  0.5665  1.1275
 6623SOL     OW23273   9.560   1.297   3.638  0.6045 -0.0991  0.3500
 6623SOL    HW123274   9.621   1.319   3.708 -0.3712 -0.1493  1.2222
 6623SOL    HW223275   9.505   1.375   3.630  2.3472  0.9539 -2.1482
 6624SOL     OW23276   0.675   8.802   8.192 -0.1009 -0.2588 -0.2934
 6624SOL    HW123277   0.706   8.828   8.278 -0.6999  1.7914 -0.6847
 6624SOL    HW223278   0.686   8.706   8.191  1.5008 -0.1258  1.3998
 6625SOL     OW23279   2.080   4.091   4.540 -0.4752  0.1315  0.2487
 6625SOL    HW123280   2.029   4.116   4.462  0.1586 -0.9217 -0.5033
 6625SOL    HW223281   2.141   4.164   4.552 -2.1712  1.4361  1.1906
 6626SOL     OW23282   6.272   7.135  10.402  0.2044 -0.4011  0.3432
 6626SOL    HW123283   6.242   7.159  10.314 -0.6060 -0.1514  0.6859
 6626SOL    HW223284   6.333   7.062  10.387 -2.1882 -2.3639 -0.2130
 6627SOL     OW23285   0.429   3.679   6.454  0.1964  0.2954 -0.2887
 6627SOL    HW123286   0.372   3.623   6.508 -1.5114  1.9426 -0.3422
 6627SOL    HW223287   0.472   3.617   6.395 -0.7432 -1.1236  0.4585
 6628SOL     OW23288   4.560   9.410   4.520  0.1215 -0.2984  0.3983
 6628SOL    HW123289   4.578   9.501   4.545 -2.9266  0.8994 -1.5158
 6628SOL    HW223290   4.481   9.387   4.570 -0.1691 -1.2755 -0.4968
 6629SOL     OW23291   0.610   0.859   3.467  0.1134  0.4359 -0.3199
 6629SOL    HW123292   0.559   0.884   3.544  0.4570  0.7588 -0.1905
 6629SOL    HW223293   0.623   0.941   3.419  2.9032  0.8967  1.1039
 6630SOL     OW23294   2.578   3.055   5.294  0.0760  0.0019  0.1333
 6630SOL    HW123295   2.667   3.053   5.259 -0.9646 -0.6151 -2.6113
 6630SOL    HW223296   2.533   2.983   5.249 -2.1127  1.0441  0.5641
 6631SOL     OW23297   0.499   8.567   7.031  0.5193 -0.4369 -0.3228
 6631SOL    HW123298   0.419   8.526   7.067 -0.0037 -0.1069 -1.1162
 6631SOL    HW223299   0.533   8.619   7.104  0.8649 -1.7920  0.5211
 6632SOL     OW23300   0.512   0.085  10.447  0.3256 -0.4835  0.1694
 6632SOL    HW123301   0.420   0.070  10.470 -0.0410 -0.1544 -1.0238
 6632SOL    HW223302   0.508   0.142  10.370  1.5829  1.2364  1.3467
 6633SOL     OW23303   8.356   2.968   2.197 -0.3840 -0.2735 -0.1162
 6633SOL    HW123304   8.419   2.898   2.214  1.3938  1.1777 -0.5594
 6633SOL    HW223305   8.328   2.954   2.107 -0.4558 -0.7344 -0.0220
 6634SOL     OW23306   8.038   3.527   8.274  0.4027  0.5124 -0.9187
 6634SOL    HW123307   7.994   3.442   8.266 -2.9847  2.3766 -3.8476
 6634SOL    HW223308   8.092   3.532   8.195 -1.5574  2.1508 -2.2049
 6635SOL     OW23309   8.044   6.206   0.033 -0.1439 -0.1322 -0.1763
 6635SOL    HW123310   8.030   6.269  -0.038 -1.4709 -2.7332 -2.3672
 6635SOL    HW223311   8.139   6.207   0.048  0.0207  1.2821 -1.2437
 6636SOL     OW23312   0.237   3.890   4.468  0.6747  0.0510 -0.0153
 6636SOL    HW123313   0.325   3.861   4.441  1.5462  2.9143 -0.4477
 6636SOL    HW223314   0.197   3.920   4.386  0.6120  1.9813  0.6988
 6637SOL     OW23315   6.881   0.843   0.282 -0.1917  0.5507  0.4016
 6637SOL    HW123316   6.964   0.815   0.320  0.0880  0.7847 -0.0404
 6637SOL    HW223317   6.853   0.769   0.228  0.8479  1.3392 -1.2554
 6638SOL     OW23318   7.841   8.551   2.575 -0.4021  0.2836  0.4436
 6638SOL    HW123319   7.791   8.503   2.642 -0.0960 -1.1165 -0.2984
 6638SOL    HW223320   7.779   8.566   2.504  0.2520 -1.6967 -0.5942
 6639SOL     OW23321   9.002   0.180   0.353 -0.1955 -0.4502 -0.1223
 6639SOL    HW123322   9.064   0.188   0.280  1.1263 -0.0215  1.0090
 6639SOL    HW223323   8.916   0.194   0.313  0.5718  0.6374 -1.4511
 6640SOL     OW23324   5.948  10.709  10.119  0.0755 -0.1636 -0.5762
 6640SOL    HW123325   5.911  10.642  10.176  0.1514  0.9869  0.8384
 6640SOL    HW223326   5.872  10.755  10.083  0.0884  1.8989  1.9676
 6641SOL     OW23327   7.239   3.687   7.824  0.1509 -0.3027  0.3523
 6641SOL    HW123328   7.273   3.776   7.821 -0.5931 -0.0069  0.4207
 6641SOL    HW223329   7.222   3.671   7.917 -0.2584 -0.2985  0.2816
 6642SOL     OW23330  10.893   9.440   1.018 -0.1160  0.0621 -0.2651
 6642SOL    HW123331  10.944   9.392   1.083 -0.2148 -0.6575 -0.7175
 6642SOL    HW223332  10.944   9.520   1.003 -0.7252  0.8466  1.6268
 6643SOL     OW23333   3.413   3.728  10.668 -0.1772 -0.1831  0.1873
 6643SOL    HW123334   3.371   3.812  10.685  0.8233  0.3463  0.0471
 6643SOL    HW223335   3.502   3.750  10.641 -0.1540 -1.2422 -0.6574
 6644SOL     OW23336   4.531   9.401   4.836 -0.0173 -0.0343  0.2249
 6644SOL    HW123337   4.608   9.391   4.893  1.6051  1.6540 -1.5976
 6644SOL    HW223338   4.515   9.495   4.834 -1.0533 -0.2212 -0.8113
 6645SOL     OW23339  10.179   9.437   7.566  0.3449  0.3998  0.6177
 6645SOL    HW123340  10.163   9.448   7.472  1.2754 -0.4152  0.3526
 6645SOL    HW223341  10.102   9.475   7.608 -0.5330 -0.1064 -0.5027
 6646SOL     OW23342   7.766   4.050   7.052  0.6986  0.1123  0.0060
 6646SOL    HW123343   7.697   4.018   7.110  2.0298 -1.7176  0.6371
 6646SOL    HW223344   7.825   4.099   7.108  0.9616 -0.0270 -0.1451
 6647SOL     OW23345   8.023   0.039   8.722 -0.0646  0.6464  0.0431
 6647SOL    HW123346   7.972   0.034   8.641  0.9991  0.4710 -0.6305
 6647SOL    HW223347   8.055   0.129   8.725 -1.1736  1.0253  0.9488
 6648SOL     OW23348   7.838   6.858   5.390  0.3832 -0.6033 -0.1404
 6648SOL    HW123349   7.899   6.816   5.330  0.1400 -2.6247  0.9859
 6648SOL    HW223350   7.774   6.901   5.333  1.2672 -0.8204 -1.3087
 6649SOL     OW23351   4.264   1.674   6.322 -0.4013 -0.4509 -0.1704
 6649SOL    HW123352   4.359   1.686   6.316 -0.6113  1.0647 -0.9527
 6649SOL    HW223353   4.236   1.742   6.384 -0.9367 -1.0841  0.2805
 6650SOL     OW23354   8.651   2.005   7.670 -0.0126  0.4374 -0.2667
 6650SOL    HW123355   8.640   2.058   7.591 -1.2385 -0.3014 -0.6028
 6650SOL    HW223356   8.640   1.915   7.640 -0.2430  0.1382  0.7122
 6651SOL     OW23357   9.561   1.583   8.514 -0.4399 -0.5245  0.0390
 6651SOL    HW123358   9.493   1.588   8.447 -0.6057  3.7440  0.4384
 6651SOL    HW223359   9.513   1.577   8.597 -0.2667 -0.4919  0.1425
 6652SOL     OW23360   2.747   7.326   2.926 -0.3910  0.5574  0.0015
 6652SOL    HW123361   2.713   7.412   2.948  0.3402  0.5176  1.3739
 6652SOL    HW223362   2.714   7.269   2.995  0.1260 -0.0259 -0.2278
 6653SOL     OW23363   1.157   9.935   9.088 -0.3629 -0.0807  0.2680
 6653SOL    HW123364   1.139   9.842   9.079  0.0541 -0.2934  1.4842
 6653SOL    HW223365   1.220   9.941   9.160 -0.2835  1.1249  0.1195
 6654SOL     OW23366   0.876   5.870   2.467 -0.2301  0.0555 -0.0780
 6654SOL    HW123367   0.928   5.863   2.547 -0.4220 -1.1821 -0.0519
 6654SOL    HW223368   0.940   5.868   2.397 -0.1807 -0.6391 -0.0161
 6655SOL     OW23369   6.624   7.742   9.484 -0.1557 -0.0204 -0.3147
 6655SOL    HW123370   6.678   7.712   9.411 -0.9491  0.8166 -1.2708
 6655SOL    HW223371   6.630   7.672   9.549  0.6853 -0.7130 -1.1210
 6656SOL     OW23372   9.349   1.124   4.808 -0.0459  0.4775 -0.6944
 6656SOL    HW123373   9.407   1.151   4.737  1.6618  0.8047  0.7767
 6656SOL    HW223374   9.345   1.201   4.865  0.2268 -0.4387  0.5830
 6657SOL     OW23375   3.081   4.428   5.950 -0.4627 -0.1433  0.5083
 6657SOL    HW123376   3.016   4.418   5.881  0.5124  1.9570 -0.7814
 6657SOL    HW223377   3.142   4.494   5.916  1.9309 -1.5373  1.9745
 6658SOL     OW23378   2.818   6.555   4.342  0.0339 -0.0336  0.0842
 6658SOL    HW123379   2.845   6.487   4.280 -0.4041  1.0428 -1.3243
 6658SOL    HW223380   2.892   6.617   4.342  0.3240 -0.3737  1.1632
 6659SOL     OW23381  10.240   0.283   4.769  0.5513  0.2987 -0.1625
 6659SOL    HW123382  10.229   0.310   4.860 -0.0561 -2.7190  0.7187
 6659SOL    HW223383  10.167   0.325   4.723  0.6290  1.5231  0.7966
 6660SOL     OW23384   2.948   9.936   4.082 -0.0696 -0.8770  0.4080
 6660SOL    HW123385   2.855   9.928   4.059 -0.0947 -0.5023  0.3724
 6660SOL    HW223386   2.994   9.897   4.008 -0.1630 -0.0142 -0.1195
 6661SOL     OW23387   5.737   5.161   6.263  0.4319 -0.0655 -0.2592
 6661SOL    HW123388   5.742   5.200   6.176 -0.7953  0.6562 -0.0059
 6661SOL    HW223389   5.818   5.189   6.306  0.7456  0.0906 -0.9371
 6662SOL     OW23390   6.960   5.461   9.455  0.0217 -0.1890 -0.2884
 6662SOL    HW123391   6.881   5.453   9.402 -1.0591  0.5152  1.1911
 6662SOL    HW223392   6.989   5.551   9.442  0.1549 -0.2227 -0.2299
 6663SOL     OW23393   3.587   5.147   2.823  0.0450  0.0067  0.6806
 6663SOL    HW123394   3.574   5.153   2.728  1.4487 -0.4865  0.4473
 6663SOL    HW223395   3.519   5.203   2.860 -0.0274  0.8304 -0.6552
 6664SOL     OW23396   7.678   9.639   5.503 -0.4085 -0.1309  0.3569
 6664SOL    HW123397   7.645   9.549   5.508 -1.8967  0.4451  1.1682
 6664SOL    HW223398   7.740   9.646   5.575 -1.7001  0.0446  1.4661
 6665SOL     OW23399   6.403   5.330  10.026  0.2409  0.2465  0.6753
 6665SOL    HW123400   6.488   5.296  10.056  0.1716  0.2178  0.8376
 6665SOL    HW223401   6.420   5.422  10.008  0.5513  0.0213 -0.2322
 6666SOL     OW23402   6.026   5.611   2.900  0.6023 -0.0772  0.4515
 6666SOL    HW123403   6.037   5.695   2.854  2.5468 -0.3711  0.3667
 6666SOL    HW223404   6.056   5.628   2.989  1.9117 -0.9431  0.1786
 6667SOL     OW23405   3.372   8.163   2.205  0.6013  0.4863 -0.0297
 6667SOL    HW123406   3.449   8.127   2.160  1.0691  3.0124 -1.3588
 6667SOL    HW223407   3.310   8.182   2.135  0.4686  2.4490  0.5931
 6668SOL     OW23408   4.421   7.182   1.470  0.4080 -0.1623  0.1474
 6668SOL    HW123409   4.329   7.209   1.461 -0.0382 -1.3295  1.0528
 6668SOL    HW223410   4.420   7.088   1.453  0.8011 -0.9296  3.8194
 6669SOL     OW23411   8.686   6.577   8.739 -0.2541  0.5856 -0.0696
 6669SOL    HW123412   8.740   6.637   8.688  0.8156  2.0679  2.6998
 6669SOL    HW223413   8.629   6.535   8.675  1.4548  1.9136 -2.5317
 6670SOL     OW23414   4.689   4.028   3.706  0.3995 -0.3679  0.3000
 6670SOL    HW123415   4.615   4.072   3.664  0.5109  0.8527  1.3649
 6670SOL    HW223416   4.717   3.962   3.642  1.6095  2.5048 -2.2050
 6671SOL     OW23417  10.193   8.711   7.804 -0.5879 -0.5377 -0.2660
 6671SOL    HW123418  10.107   8.750   7.787 -0.9878 -1.1236  0.3822
 6671SOL    HW223419  10.174   8.636   7.860  0.1872 -1.5186 -1.2808
 6672SOL     OW23420   8.890   0.559  10.492  0.1989 -0.3202 -0.1494
 6672SOL    HW123421   8.869   0.466  10.489 -0.2883 -0.1728 -1.7050
 6672SOL    HW223422   8.919   0.574  10.582  0.3555 -1.9826  0.0917
 6673SOL     OW23423   8.914   4.658   6.975  0.1528  0.2850 -0.8253
 6673SOL    HW123424   8.933   4.623   6.888  0.7948  0.1807 -0.6458
 6673SOL    HW223425   8.945   4.749   6.971  0.2521  0.2565 -0.6787
 6674SOL     OW23426  10.363   2.478   4.365 -0.1393  0.1115  0.4156
 6674SOL    HW123427  10.269   2.478   4.381 -0.3606 -0.7498 -0.7586
 6674SOL    HW223428  10.371   2.455   4.272  1.1757  1.5300  0.1631
 6675SOL     OW23429   3.916   1.319   5.293  0.4550  0.1233 -0.2588
 6675SOL    HW123430   3.889   1.278   5.210 -0.2802 -0.0188  0.0451
 6675SOL    HW223431   4.010   1.301   5.299  0.1247 -1.6203 -0.0879
 6676SOL     OW23432   2.490   3.970   2.627 -0.7530 -0.2080 -0.4831
 6676SOL    HW123433   2.409   3.939   2.586 -1.0417  2.2329 -1.8658
 6676SOL    HW223434   2.497   3.921   2.709 -3.2648 -0.9425 -0.6916
 6677SOL     OW23435   7.637   1.282   7.436  0.2746 -0.4372 -0.2238
 6677SOL    HW123436   7.695   1.228   7.383  2.0236 -1.6303  2.8657
 6677SOL    HW223437   7.695   1.345   7.479 -1.3837  1.9291 -1.2901
 6678SOL     OW23438   8.498   4.207   0.607  0.6508 -0.2084  0.6801
 6678SOL    HW123439   8.574   4.262   0.585  0.9277 -1.3208 -1.2780
 6678SOL    HW223440   8.426   4.248   0.559  0.6571 -0.9531  0.0291
 6679SOL     OW23441   2.826   2.109   2.491  0.3278  0.4111 -0.0524
 6679SOL    HW123442   2.845   2.016   2.503  0.6249  0.3910 -0.6694
 6679SOL    HW223443   2.799   2.116   2.400 -0.1903  0.8511  0.1302
 6680SOL     OW23444   2.212   6.991   5.268  0.7112  0.3516  0.5239
 6680SOL    HW123445   2.130   7.037   5.251  0.6043  0.0360  0.1810
 6680SOL    HW223446   2.273   7.060   5.293  0.2060  0.5294  1.2776
 6681SOL     OW23447   3.608   0.734  10.048  0.0141  0.4761 -0.3269
 6681SOL    HW123448   3.610   0.671   9.976 -0.0123  0.9085 -0.7072
 6681SOL    HW223449   3.691   0.720  10.094 -1.7012 -2.6952  2.0745
 6682SOL     OW23450   3.995   9.311   2.965  0.1896 -0.0611  0.8521
 6682SOL    HW123451   3.995   9.404   2.943 -1.0304 -0.3783 -0.6211
 6682SOL    HW223452   4.037   9.269   2.890 -0.3874 -0.7916  0.9320
 6683SOL     OW23453   7.393   8.004   4.679  0.3265  0.2825 -0.4669
 6683SOL    HW123454   7.314   7.963   4.643 -0.5732  0.1702  1.5930
 6683SOL    HW223455   7.449   8.018   4.603 -0.9319 -1.2838 -1.7101
 6684SOL     OW23456   0.460   2.035   7.477 -0.4239  0.1895  0.3619
 6684SOL    HW123457   0.381   1.982   7.471  0.1533 -0.5288 -1.2982
 6684SOL    HW223458   0.429   2.122   7.500 -1.8700  0.2749 -1.7655
 6685SOL     OW23459   0.788   8.075   5.928 -0.0066 -0.1638  0.4199
 6685SOL    HW123460   0.737   7.995   5.945  0.8306 -1.1365 -1.5643
 6685SOL    HW223461   0.871   8.044   5.893  0.6578  1.5679  0.4112
 6686SOL     OW23462   6.346   4.350   3.026  0.1218  0.0328  0.1810
 6686SOL    HW123463   6.382   4.393   3.104 -1.9331  0.1109  1.1320
 6686SOL    HW223464   6.294   4.277   3.061  0.6161 -1.0123 -1.2280
 6687SOL     OW23465   8.725   7.233  10.839  0.1381 -0.1532 -0.3163
 6687SOL    HW123466   8.818   7.253  10.843  0.0897  0.0514 -0.1281
 6687SOL    HW223467   8.719   7.151  10.791  0.2898  0.7037 -1.8089
 6688SOL     OW23468  10.306   1.348   2.113  0.6042  0.2305  0.0970
 6688SOL    HW123469  10.274   1.327   2.201  0.1043 -0.6858 -0.2996
 6688SOL    HW223470  10.329   1.264   2.075 -1.7441  0.3069 -1.6311
 6689SOL     OW23471   9.718   7.922   6.622  0.0255  0.1229 -0.0644
 6689SOL    HW123472   9.796   7.877   6.652  0.3336  1.6804  1.6107
 6689SOL    HW223473   9.659   7.920   6.698 -0.6642  0.8864 -0.5696
 6690SOL     OW23474   4.273   7.799   4.094  0.0141  0.0512  0.2214
 6690SOL    HW123475   4.264   7.768   4.004 -1.7938 -0.3348  0.5254
 6690SOL    HW223476   4.239   7.889   4.092 -0.6983 -0.2033  0.6594
 6691SOL     OW23477   7.873   7.214   0.166 -0.2738  0.4350  0.9125
 6691SOL    HW123478   7.873   7.163   0.247 -1.8161  0.2524  0.8258
 6691SOL    HW223479   7.813   7.286   0.183  1.4146  1.8838  0.8078
 6692SOL     OW23480   9.017   2.062   2.267 -0.0560 -0.2104  0.5258
 6692SOL    HW123481   8.989   2.022   2.350 -0.8575  2.0134  1.3612
 6692SOL    HW223482   8.946   2.042   2.206 -0.8859  0.6949  1.1833
 6693SOL     OW23483   9.299  10.730   2.249  0.8059 -0.0016 -0.5444
 6693SOL    HW123484   9.344  10.648   2.226 -0.1213 -0.4683 -0.7239
 6693SOL    HW223485   9.252  10.755   2.170  0.3897  0.2417 -0.2254
 6694SOL     OW23486   8.639  10.873   5.615  0.1337  0.0676  0.3433
 6694SOL    HW123487   8.593  10.953   5.641 -2.3014 -0.9783 -0.5900
 6694SOL    HW223488   8.723  10.877   5.661  0.2092  3.3245  0.0154
 6695SOL     OW23489  10.621   3.065  10.028 -0.4043 -0.1539 -0.4796
 6695SOL    HW123490  10.525   3.070  10.030 -0.4317 -0.3295 -1.2050
 6695SOL    HW223491  10.646   3.118   9.953  0.0970  0.2414 -0.0314
 6696SOL     OW23492   5.439   1.277   9.899 -0.1943  0.3604 -0.0724
 6696SOL    HW123493   5.404   1.315   9.980 -1.5055  0.4636 -0.6860
 6696SOL    HW223494   5.525   1.319   9.889 -0.3614  0.9446  0.8351
 6697SOL     OW23495   4.227  10.357   3.461  0.5416  0.6507 -0.6445
 6697SOL    HW123496   4.139  10.382   3.434  0.2779 -0.7995 -1.1442
 6697SOL    HW223497   4.232  10.383   3.554 -0.8817 -0.5034 -0.2321
 6698SOL     OW23498   3.151   0.045   9.966  0.0388 -0.1145 -0.1541
 6698SOL    HW123499   3.122  -0.036   9.924  2.6521 -0.9412 -0.4707
 6698SOL    HW223500   3.151   0.109   9.895  0.9964 -0.6289 -0.6276
 6699SOL     OW23501   1.405   9.424   7.835  0.1688  0.4184  0.0812
 6699SOL    HW123502   1.471   9.381   7.888  1.6343 -3.0806 -4.2710
 6699SOL    HW223503   1.321   9.392   7.870  1.0324 -0.6900  1.1836
 6700SOL     OW23504   0.091   8.630   4.822  0.3636 -0.9511  0.4252
 6700SOL    HW123505   0.143   8.693   4.871  1.0456 -0.4722 -0.9068
 6700SOL    HW223506   0.012   8.678   4.795 -1.2864 -1.9307  3.2484
 6701SOL     OW23507   8.121   4.554   0.149 -0.2373 -0.6515  0.1923
 6701SOL    HW123508   8.062   4.484   0.179  0.9534 -1.8843 -0.2891
 6701SOL    HW223509   8.209   4.519   0.162  0.3640  0.4056 -0.8955
 6702SOL     OW23510   9.157   5.179   8.861  0.5736 -0.0983  0.3003
 6702SOL    HW123511   9.154   5.239   8.786 -0.5892  1.0961  1.2860
 6702SOL    HW223512   9.233   5.206   8.911  1.4446 -0.9987 -0.5046
 6703SOL     OW23513   2.137   0.395   7.727 -0.5153 -0.3967 -0.4691
 6703SOL    HW123514   2.141   0.453   7.651  1.7668  1.5286  1.0669
 6703SOL    HW223515   2.066   0.430   7.781  0.1828  0.3716 -0.0391
 6704SOL     OW23516   0.395   2.550   5.370  0.1679  0.3518 -0.1108
 6704SOL    HW123517   0.473   2.579   5.416  0.4596 -1.5048  0.5830
 6704SOL    HW223518   0.327   2.613   5.395  0.9114  0.7194  0.9823
 6705SOL     OW23519   4.081   7.299   0.763  0.4100  0.2064 -0.4306
 6705SOL    HW123520   4.075   7.214   0.719  1.5746 -0.0925 -0.0455
 6705SOL    HW223521   4.134   7.281   0.841  1.6366  1.5109 -0.9358
 6706SOL     OW23522   7.082   9.661   1.694 -0.7106 -0.4804  0.0672
 6706SOL    HW123523   7.178   9.660   1.696 -0.7333 -1.9368  1.0774
 6706SOL    HW223524   7.060   9.656   1.601  0.1886 -1.2707 -0.1109
 6707SOL     OW23525   0.148   9.965   1.278  0.4988  0.5318 -0.1881
 6707SOL    HW123526   0.055   9.986   1.278  0.5654  0.8551 -0.7230
 6707SOL    HW223527   0.191  10.046   1.306  0.5026 -0.2523  2.1903
 6708SOL     OW23528   2.108   4.189   5.289  0.4754 -0.3377 -0.1901
 6708SOL    HW123529   2.116   4.232   5.374 -0.8496  0.0457 -0.2544
 6708SOL    HW223530   2.186   4.134   5.282  2.2072  2.0242 -0.0971
 6709SOL     OW23531   9.290   7.491   4.037 -0.4152 -0.3012 -0.0129
 6709SOL    HW123532   9.271   7.565   3.981 -0.6245 -0.3353  0.0137
 6709SOL    HW223533   9.344   7.433   3.983  0.5497  0.3152  0.2848
 6710SOL     OW23534   3.928   9.136   2.414  0.0724  0.9878 -0.8437
 6710SOL    HW123535   3.865   9.180   2.357 -1.1338 -0.3774 -0.6129
 6710SOL    HW223536   3.971   9.071   2.359 -0.7207  0.0234 -0.3494
 6711SOL     OW23537   0.436   6.805   4.270 -0.8208  0.3385 -0.2662
 6711SOL    HW123538   0.389   6.823   4.352 -0.7329  0.2413 -0.1935
 6711SOL    HW223539   0.506   6.745   4.296 -0.1397  1.1460 -0.2273
 6712SOL     OW23540   0.028  10.268   8.730  0.1852  0.4382  0.6269
 6712SOL    HW123541  -0.049  10.226   8.692  2.8417 -2.7223 -1.5440
 6712SOL    HW223542   0.056  10.330   8.663  2.1348 -1.7522 -0.6580
 6713SOL     OW23543   5.166   4.098   4.700 -0.2120  0.3994  0.1278
 6713SOL    HW123544   5.152   4.005   4.716  1.6476  0.0661 -0.0136
 6713SOL    HW223545   5.081   4.139   4.715 -1.3426 -1.4833 -1.0152
 6714SOL     OW23546   1.957   9.039   5.708 -0.5375 -0.0139  0.1205
 6714SOL    HW123547   1.922   9.120   5.744  0.2444  0.4648 -0.1705
 6714SOL    HW223548   2.006   8.999   5.781 -1.4186 -0.5267  0.4351
 6715SOL     OW23549   0.987   8.100   9.193 -0.6235 -0.2239  0.3473
 6715SOL    HW123550   0.979   8.182   9.143 -0.5667  0.3142  1.1941
 6715SOL    HW223551   0.958   8.124   9.281 -0.2759 -1.0374  0.6850
 6716SOL     OW23552   6.168   1.241   3.715 -0.0534 -0.9230 -0.6677
 6716SOL    HW123553   6.258   1.272   3.706  0.0084 -0.9045  0.0073
 6716SOL    HW223554   6.114   1.314   3.687  0.1232 -0.7044 -0.4315
 6717SOL     OW23555   0.205   1.941   4.412  0.3737  0.1197 -0.0107
 6717SOL    HW123556   0.192   1.858   4.367  1.3731  0.1873 -0.4482
 6717SOL    HW223557   0.220   1.917   4.503  2.1015 -0.2916 -0.3904
 6718SOL     OW23558   8.885   0.509   4.108 -0.9340 -0.0165 -0.1900
 6718SOL    HW123559   8.853   0.519   4.018 -0.1820 -0.2301 -0.4860
 6718SOL    HW223560   8.974   0.545   4.106 -1.6420  1.9274  0.9578
 6719SOL     OW23561   2.900   9.283   1.103  0.3153  0.9850  0.2132
 6719SOL    HW123562   2.987   9.277   1.142  0.5777  1.0882 -0.3589
 6719SOL    HW223563   2.852   9.343   1.160  1.0046  1.9261 -0.1835
 6720SOL     OW23564   8.034   6.269   6.017  0.2712 -0.1482  0.3496
 6720SOL    HW123565   8.111   6.217   6.040  0.2120  0.1667  1.2589
 6720SOL    HW223566   8.067   6.336   5.957  0.2175 -1.6845 -1.4517
 6721SOL     OW23567   8.739   6.110   3.673  0.6247  0.6161  0.6367
 6721SOL    HW123568   8.686   6.138   3.599  2.7925  1.0238 -0.8091
 6721SOL    HW223569   8.676   6.089   3.742 -1.3874  0.8395 -1.1102
 6722SOL     OW23570   7.375   7.582   5.210  0.0062  0.3379 -0.1514
 6722SOL    HW123571   7.284   7.589   5.241 -0.1625  1.2096 -0.8262
 6722SOL    HW223572   7.382   7.649   5.142  0.7022 -0.7778 -1.1995
 6723SOL     OW23573   7.456  10.731   7.788 -0.3539  0.4311 -0.2545
 6723SOL    HW123574   7.467  10.648   7.834 -1.4976  0.7359  0.5844
 6723SOL    HW223575   7.434  10.794   7.856  1.2444  1.5951 -0.7831
 6724SOL     OW23576   7.077   3.199   5.426  0.0765  0.3374 -0.5748
 6724SOL    HW123577   7.037   3.221   5.510  2.3815  0.7167  0.4778
 6724SOL    HW223578   7.038   3.116   5.401  0.6146 -0.6263  1.7219
 6725SOL     OW23579   2.986   5.294   8.427  0.6556 -0.2034  0.4402
 6725SOL    HW123580   3.045   5.252   8.365  1.2098  1.4037 -0.1532
 6725SOL    HW223581   2.906   5.241   8.424  1.0731 -0.7856 -0.8226
 6726SOL     OW23582   3.981   6.562   1.413  0.5538 -0.0012 -0.3508
 6726SOL    HW123583   3.905   6.520   1.453  0.4322  0.1176 -0.4607
 6726SOL    HW223584   4.021   6.492   1.360  0.4373 -0.0227 -0.4116
 6727SOL     OW23585   2.086   2.518  10.930 -0.1610  0.3686 -0.2000
 6727SOL    HW123586   2.001   2.542  10.967  1.0452  0.0242  2.9303
 6727SOL    HW223587   2.148   2.578  10.971  1.1112  0.9039 -2.7808
 6728SOL     OW23588  10.967   4.289   8.824  0.0972  0.1109  0.4264
 6728SOL    HW123589  10.879   4.277   8.787  0.0381 -1.4479  1.0346
 6728SOL    HW223590  10.972   4.224   8.894  0.5669  2.3495  2.5212
 6729SOL     OW23591  10.347   2.226   0.039  0.6113 -0.0376  0.1161
 6729SOL    HW123592  10.305   2.303   0.001  2.6477  0.8236 -0.4250
 6729SOL    HW223593  10.353   2.163  -0.033  0.5899 -0.0239  0.1014
 6730SOL     OW23594   8.721   9.351   0.617 -0.3688  0.4482  0.1809
 6730SOL    HW123595   8.643   9.399   0.590  1.0626  1.5530 -2.1857
 6730SOL    HW223596   8.733   9.284   0.551  2.1492  1.9898 -1.0193
 6731SOL     OW23597   0.102   1.910  10.529  0.3305  0.3184  0.0873
 6731SOL    HW123598   0.032   1.940  10.586 -0.1667  0.3311 -0.5226
 6731SOL    HW223599   0.089   1.815  10.522  0.7739  0.2232  0.5049
 6732SOL     OW23600   2.498   6.020   8.512 -0.0531 -0.1503  0.2912
 6732SOL    HW123601   2.404   6.001   8.517 -0.1221  0.0974 -0.0687
 6732SOL    HW223602   2.505   6.113   8.535 -0.1760  0.5251 -2.2710
 6733SOL     OW23603   5.401   7.849   7.079  0.4504 -0.2835 -0.0860
 6733SOL    HW123604   5.470   7.911   7.057  0.4739 -0.6792 -1.1307
 6733SOL    HW223605   5.320   7.897   7.061  0.4368  0.3824  1.6891
 6734SOL     OW23606   3.397   9.555   2.497 -0.0019 -0.5319  0.1437
 6734SOL    HW123607   3.461   9.587   2.434 -2.0792  1.6740 -0.8954
 6734SOL    HW223608   3.449   9.504   2.560  2.4959 -0.2588 -1.6437
 6735SOL     OW23609   2.601   8.567   3.938  0.3458  0.0873 -0.1451
 6735SOL    HW123610   2.639   8.635   3.882 -0.0371  0.6765  0.3045
 6735SOL    HW223611   2.674   8.536   3.991  0.5968 -0.1031 -0.5964
 6736SOL     OW23612  10.772   0.615  10.777  0.0202  0.1025 -0.0673
 6736SOL    HW123613  10.685   0.607  10.737  0.3543  1.6756 -1.1648
 6736SOL    HW223614  10.829   0.562  10.722 -0.2091 -0.8673  0.6081
 6737SOL     OW23615   1.495   0.041   8.526  0.1519  0.1362  0.2937
 6737SOL    HW123616   1.501   0.091   8.445 -2.3362  0.5323  0.3016
 6737SOL    HW223617   1.448  -0.039   8.501 -0.6029  0.2446  1.3400
 6738SOL     OW23618   7.654   8.727   4.468  0.4532 -0.4854  0.1260
 6738SOL    HW123619   7.652   8.631   4.472  0.8866 -0.4876  0.3066
 6738SOL    HW223620   7.747   8.749   4.468  0.4041 -0.1698 -2.6149
 6739SOL     OW23621  10.889   0.911   1.701  0.5670 -0.2961  0.0346
 6739SOL    HW123622  10.939   0.889   1.623 -0.2468 -0.7562 -0.3546
 6739SOL    HW223623  10.802   0.935   1.669 -0.2549 -2.0192  0.9188
 6740SOL     OW23624   3.653   6.935   9.704 -0.2677  0.1481 -0.5442
 6740SOL    HW123625   3.706   7.008   9.674  1.4544  0.0838  2.1792
 6740SOL    HW223626   3.612   6.966   9.785 -2.1328 -0.7959 -1.0916
 6741SOL     OW23627   6.568   9.927   4.134 -0.0243 -0.4444 -0.3831
 6741SOL    HW123628   6.616   9.860   4.183 -1.0016  0.0388  1.2595
 6741SOL    HW223629   6.631   9.997   4.120  0.0693 -0.3073  0.7456
 6742SOL     OW23630   6.991   0.619   5.295 -0.1444 -0.3600  0.0349
 6742SOL    HW123631   7.026   0.680   5.360  0.6173 -1.1797  0.4093
 6742SOL    HW223632   6.956   0.546   5.347  0.5890 -1.0834 -0.4653
 6743SOL     OW23633   5.970   9.939   0.076  0.0317 -0.1650 -0.3106
 6743SOL    HW123634   5.891   9.964   0.028 -0.5676 -0.2764  0.6146
 6743SOL    HW223635   6.008  10.023   0.104 -1.7897 -0.1871  2.4872
 6744SOL     OW23636   5.757   7.884  10.372 -0.2041 -0.3512 -0.0170
 6744SOL    HW123637   5.686   7.873  10.435  0.1169 -0.8625  0.2578
 6744SOL    HW223638   5.825   7.823  10.401 -0.9360 -2.2283 -2.1450
 6745SOL     OW23639   2.713   0.630  10.090 -0.2150 -0.1371 -0.1332
 6745SOL    HW123640   2.683   0.541  10.109  0.9311 -0.4436  0.3020
 6745SOL    HW223641   2.774   0.651  10.161  0.3710  0.5608 -0.8273
 6746SOL     OW23642   4.015   5.796   9.091 -0.3533  0.2590 -0.9245
 6746SOL    HW123643   3.974   5.722   9.135  0.2987 -0.3784 -1.3635
 6746SOL    HW223644   4.101   5.763   9.064  0.7649  1.7757  0.6315
 6747SOL     OW23645   8.562   9.960   3.684 -0.4135  0.3828  0.5003
 6747SOL    HW123646   8.617  10.038   3.690 -1.0395  0.8566  0.1748
 6747SOL    HW223647   8.603   9.907   3.616 -2.1346  2.2105 -2.0622
 6748SOL     OW23648   2.730   6.498   7.925 -0.6315 -0.3223  0.0400
 6748SOL    HW123649   2.718   6.576   7.871 -2.2739 -1.9721 -2.0899
 6748SOL    HW223650   2.708   6.425   7.867  0.8119 -2.3846  1.9933
 6749SOL     OW23651   2.206   9.480   1.416 -0.1380  0.2727  0.0410
 6749SOL    HW123652   2.189   9.388   1.436  0.8664 -0.0965 -0.7114
 6749SOL    HW223653   2.175   9.490   1.326 -0.8900  0.8550  0.3631
 6750SOL     OW23654   7.591   0.578   8.714  0.3983  0.2322  0.6647
 6750SOL    HW123655   7.549   0.629   8.646  1.1268 -0.8324 -0.6103
 6750SOL    HW223656   7.523   0.520   8.748  0.2576  0.1131  0.1808
 6751SOL     OW23657   2.643   7.168   1.542 -0.0712 -0.0084 -0.2057
 6751SOL    HW123658   2.659   7.212   1.625  0.5813  0.5730 -0.6329
 6751SOL    HW223659   2.548   7.174   1.529 -0.2892 -0.8500  0.9000
 6752SOL     OW23660   9.470   2.907   8.862  0.4309 -0.1974 -0.3478
 6752SOL    HW123661   9.386   2.893   8.908  0.4930  3.0602  0.8688
 6752SOL    HW223662   9.445   2.923   8.772 -0.3027  1.0288  0.0622
 6753SOL     OW23663   1.693   6.750   8.779  0.0797 -0.3378  0.1288
 6753SOL    HW123664   1.616   6.698   8.756 -0.0585  0.4058 -1.0881
 6753SOL    HW223665   1.694   6.822   8.717  2.6542 -1.1971 -0.8901
 6754SOL     OW23666   8.222   3.119   4.927  0.0212  0.3847  0.4076
 6754SOL    HW123667   8.182   3.192   4.880  1.9010  1.3289  0.2326
 6754SOL    HW223668   8.198   3.042   4.877  1.1967  1.2795 -1.5937
 6755SOL     OW23669   1.196   4.855  10.923 -0.5221  0.2605  0.3114
 6755SOL    HW123670   1.213   4.886  10.834 -1.3176 -1.1661 -0.3662
 6755SOL    HW223671   1.154   4.930  10.967  4.5561  2.8055  1.1597
 6756SOL     OW23672   1.721   1.822   6.572 -0.2828 -0.1308 -0.2011
 6756SOL    HW123673   1.702   1.744   6.624 -0.1715 -0.0404 -0.0274
 6756SOL    HW223674   1.651   1.883   6.593 -0.6849 -0.3956 -0.7655
 6757SOL     OW23675   1.540   8.005   8.864  0.5143  0.5215 -0.1857
 6757SOL    HW123676   1.568   7.941   8.930  0.3106  0.1823 -0.4250
 6757SOL    HW223677   1.600   8.078   8.875 -0.8572  1.4024  1.8375
 6758SOL     OW23678   0.679   8.151   2.577  0.0195  0.0478 -0.0637
 6758SOL    HW123679   0.683   8.193   2.491  2.5228 -1.0545 -0.5498
 6758SOL    HW223680   0.688   8.222   2.639  2.3460  0.4790 -0.8357
 6759SOL     OW23681  10.416   0.064   1.710 -0.2203  0.1971  0.5548
 6759SOL    HW123682  10.371   0.082   1.793 -0.9298  0.6975  0.0599
 6759SOL    HW223683  10.356   0.007   1.663 -0.2149  0.6458  0.0058
 6760SOL     OW23684   0.594   5.236   7.784  0.2904 -0.2252  0.2096
 6760SOL    HW123685   0.504   5.257   7.758  0.3911 -1.2113 -0.9307
 6760SOL    HW223686   0.585   5.169   7.851  0.0957  1.2225  1.6578
 6761SOL     OW23687   3.265   4.798   6.986  0.1106 -0.2482  0.0395
 6761SOL    HW123688   3.194   4.739   7.011 -1.0146  0.4271 -1.4642
 6761SOL    HW223689   3.282   4.849   7.065 -0.3576 -1.1229  0.7252
 6762SOL     OW23690   3.643   8.035   8.888  0.4160 -0.1268 -0.3618
 6762SOL    HW123691   3.556   8.074   8.887  0.5056  0.0880  0.2238
 6762SOL    HW223692   3.703   8.108   8.903  0.4795 -0.6344  2.2012
 6763SOL     OW23693   4.538   4.381   0.252  0.3205 -0.6393 -0.6572
 6763SOL    HW123694   4.600   4.359   0.322 -0.5504 -3.2470 -0.6550
 6763SOL    HW223695   4.589   4.373   0.171 -0.4549 -5.1614 -0.8579
 6764SOL     OW23696   0.167   9.897   7.736  0.3478 -0.2420  0.0593
 6764SOL    HW123697   0.169   9.958   7.662 -0.0399 -1.1957 -0.7686
 6764SOL    HW223698   0.142   9.950   7.811  2.7104  1.1319 -0.0938
 6765SOL     OW23699   3.513   0.637   2.341 -0.4298 -0.3268  0.0916
 6765SOL    HW123700   3.598   0.667   2.307 -0.1580  1.5152  2.2366
 6765SOL    HW223701   3.536   0.577   2.413 -0.8715  1.5884  1.8837
 6766SOL     OW23702   9.681  10.142   1.071 -0.7364  0.0607  0.0304
 6766SOL    HW123703   9.605  10.106   1.025 -1.3666 -0.8226  1.6987
 6766SOL    HW223704   9.755  10.093   1.038 -0.8531  1.0172 -1.7130
 6767SOL     OW23705   2.735   5.167   8.400  0.4340 -0.2788  0.1415
 6767SOL    HW123706   2.673   5.123   8.458 -0.1044  0.0640 -0.1744
 6767SOL    HW223707   2.709   5.140   8.312 -0.2176  1.0705 -0.0888
 6768SOL     OW23708   8.195   5.262   4.429 -0.8474 -0.3135  0.0809
 6768SOL    HW123709   8.166   5.296   4.345  0.0651 -0.3662 -0.2606
 6768SOL    HW223710   8.207   5.339   4.484 -0.2771 -0.1827 -0.2176
 6769SOL     OW23711   8.951   3.954   2.535 -0.7992 -0.5644 -0.1139
 6769SOL    HW123712   8.902   4.030   2.566 -0.1078 -0.3610  0.5059
 6769SOL    HW223713   9.030   3.952   2.590 -0.4834 -1.3298 -0.5789
 6770SOL     OW23714   9.043   0.551   5.757 -0.1508 -0.3559  0.2565
 6770SOL    HW123715   9.026   0.584   5.845 -0.3279  2.2813 -0.7418
 6770SOL    HW223716   9.136   0.529   5.757 -0.5479 -2.1363  1.6494
 6771SOL     OW23717   5.556   0.294   4.389  0.1442 -0.0136 -0.0079
 6771SOL    HW123718   5.562   0.203   4.419  0.6781 -0.5361 -1.6522
 6771SOL    HW223719   5.548   0.344   4.470  0.5612 -1.4649  0.9762
 6772SOL     OW23720   0.148   9.545   9.238  0.1908 -0.8135  0.0797
 6772SOL    HW123721   0.139   9.531   9.144  0.3602  1.8655 -0.3809
 6772SOL    HW223722   0.226   9.495   9.262  0.1465 -1.5200 -1.1983
 6773SOL     OW23723   9.855   0.519   3.335  0.0483  0.1394  0.4964
 6773SOL    HW123724   9.858   0.465   3.414  0.5397 -0.1319  0.2913
 6773SOL    HW223725   9.891   0.603   3.363  1.6198 -0.4191  0.1963
 6774SOL     OW23726   7.344   5.032   9.130 -0.7674 -0.2838 -0.4215
 6774SOL    HW123727   7.329   4.962   9.194 -0.7906 -1.2233 -1.4374
 6774SOL    HW223728   7.434   5.061   9.147 -1.2730  0.4854  1.0010
 6775SOL     OW23729   2.471   3.386   6.224  0.2558  0.2228 -0.9939
 6775SOL    HW123730   2.547   3.359   6.276 -1.2454 -1.1454  0.5691
 6775SOL    HW223731   2.474   3.482   6.225  1.8656  0.1811 -0.8051
 6776SOL     OW23732   8.992   4.789   1.117  0.8033  0.4366 -0.7776
 6776SOL    HW123733   8.910   4.839   1.119  1.1729  1.0479 -0.2564
 6776SOL    HW223734   9.051   4.839   1.175  1.2222 -0.5447 -0.3505
 6777SOL     OW23735   8.220   0.295   7.817 -0.0503  0.2562 -0.3245
 6777SOL    HW123736   8.205   0.203   7.795  1.3608 -0.1672  0.4213
 6777SOL    HW223737   8.137   0.326   7.852 -0.3133 -0.9418  0.1071
 6778SOL     OW23738   8.444  10.425  10.568  0.2367 -0.0069 -0.7363
 6778SOL    HW123739   8.517  10.378  10.528 -0.0019 -1.1114  0.1020
 6778SOL    HW223740   8.485  10.478  10.636  0.2060 -1.0591  0.1154
 6779SOL     OW23741   7.714   2.246   7.788 -0.4452 -0.3855 -0.5777
 6779SOL    HW123742   7.625   2.250   7.752 -0.4714  0.7968 -0.3815
 6779SOL    HW223743   7.749   2.164   7.754 -1.0116 -0.0317 -2.0539
 6780SOL     OW23744   0.902   0.633   1.932 -0.4428 -0.1054  0.2672
 6780SOL    HW123745   0.959   0.690   1.880  0.9697 -1.8485 -0.1527
 6780SOL    HW223746   0.818   0.678   1.934 -0.3074  0.4154 -2.8607
 6781SOL     OW23747   3.080   8.010   4.462  0.5231  0.0940  0.7156
 6781SOL    HW123748   3.084   8.104   4.477 -0.9930  0.0065  1.7874
 6781SOL    HW223749   2.993   7.984   4.493  0.7253 -1.5746 -0.0491
 6782SOL     OW23750   1.511   0.088   0.153 -0.1948  0.1899  0.4485
 6782SOL    HW123751   1.492   0.117   0.064  0.2936 -0.1690  0.2252
 6782SOL    HW223752   1.457   0.144   0.209  1.2645  2.0092  0.0676
 6783SOL     OW23753   0.011   0.671   9.774  0.1259 -0.4489  0.0663
 6783SOL    HW123754   0.051   0.734   9.714  0.0769 -1.5493 -1.1381
 6783SOL    HW223755  -0.036   0.725   9.838  0.7796  0.7533 -0.4496
 6784SOL     OW23756   6.063   3.632   7.732  0.7575 -0.1463  0.2017
 6784SOL    HW123757   6.053   3.710   7.787  2.8259  0.8401 -0.7369
 6784SOL    HW223758   6.056   3.558   7.792  3.7221  0.9137  1.9653
 6785SOL     OW23759   8.783   8.888   9.414 -0.5544  0.2241 -0.2687
 6785SOL    HW123760   8.801   8.934   9.496 -0.1542  1.2398 -0.9141
 6785SOL    HW223761   8.862   8.838   9.397 -0.0307  1.2144 -0.8132
 6786SOL     OW23762   0.751   7.971   6.862  0.0757 -0.1601  0.4243
 6786SOL    HW123763   0.696   7.921   6.923  1.6304 -4.1860 -1.2755
 6786SOL    HW223764   0.710   7.957   6.777  1.0034  0.8411 -0.1917
 6787SOL     OW23765   6.876   4.720   5.556  0.2160  0.5696  0.0686
 6787SOL    HW123766   6.951   4.686   5.507 -1.2663 -1.1939 -1.0558
 6787SOL    HW223767   6.871   4.664   5.634 -0.9052 -0.4026 -0.6845
 6788SOL     OW23768  10.077   2.133   7.518  0.5931 -0.3746 -0.2403
 6788SOL    HW123769   9.992   2.136   7.561  0.9221  1.1049  0.3107
 6788SOL    HW223770  10.120   2.214   7.543  1.3476 -0.1348 -2.2114
 6789SOL     OW23771   9.809   1.179   7.331  0.6505 -0.2246 -0.2609
 6789SOL    HW123772   9.905   1.183   7.333  0.7316 -1.2336 -1.3079
 6789SOL    HW223773   9.782   1.266   7.305  1.5043 -1.0687 -4.3253
 6790SOL     OW23774   1.115   1.168  10.395  0.4914  0.2471 -0.2360
 6790SOL    HW123775   1.029   1.210  10.399  0.8805  1.1001 -0.7608
 6790SOL    HW223776   1.175   1.239  10.370  1.1440 -0.6391 -1.1948
 6791SOL     OW23777  10.071   6.323   1.022 -0.0849  0.3723  0.4187
 6791SOL    HW123778  10.166   6.314   1.028  0.1811 -0.1316 -3.3198
 6791SOL    HW223779  10.037   6.237   1.047  0.5112  0.2221  0.7201
 6792SOL     OW23780   4.760   6.893   5.449  0.7305 -0.4460  0.4346
 6792SOL    HW123781   4.801   6.979   5.447  0.9460 -0.5583  0.0486
 6792SOL    HW223782   4.833   6.832   5.463  0.6879 -0.6394 -0.1701
 6793SOL     OW23783   9.343   7.025   4.271  0.2140  0.3375 -0.6838
 6793SOL    HW123784   9.380   7.112   4.255  0.2342  1.2863  3.8943
 6793SOL    HW223785   9.249   7.039   4.278  0.3079  0.2451  1.1420
 6794SOL     OW23786   0.475   8.761   5.861  0.2073  0.4372  0.1131
 6794SOL    HW123787   0.524   8.702   5.803 -0.4281 -0.2354  0.2581
 6794SOL    HW223788   0.407   8.798   5.805 -0.6807 -0.5471  0.5259
 6795SOL     OW23789   8.453   1.825   9.365  0.1618  0.1076  0.0420
 6795SOL    HW123790   8.424   1.741   9.400  3.1228 -1.0851 -0.1788
 6795SOL    HW223791   8.417   1.828   9.277 -0.6431 -0.5613  0.3452
 6796SOL     OW23792   2.016  10.333   2.446  0.4974  0.6081  0.2096
 6796SOL    HW123793   2.059  10.273   2.507  0.9055 -1.6713 -2.2282
 6796SOL    HW223794   2.088  10.372   2.396  0.0526  0.4677 -0.5608
 6797SOL     OW23795   4.495   4.737   8.296 -0.2095 -0.4478 -0.4781
 6797SOL    HW123796   4.501   4.801   8.225 -0.2638 -0.4533 -0.4874
 6797SOL    HW223797   4.438   4.779   8.361  2.5486  0.9993  1.0806
 6798SOL     OW23798   2.852  10.720   2.879  0.0409  0.3969  0.4540
 6798SOL    HW123799   2.825  10.694   2.790  0.6497  2.5501 -0.3893
 6798SOL    HW223800   2.794  10.793   2.901  1.1722  1.1161  1.0565
 6799SOL     OW23801   0.220  10.970   2.775  0.2135 -0.5514 -0.6352
 6799SOL    HW123802   0.258  10.891   2.813 -2.4164 -0.8860  1.4719
 6799SOL    HW223803   0.218  11.034   2.846 -0.2824  0.4689 -1.5374
 6800SOL     OW23804   6.963   2.878   6.011 -0.0868  0.0389  0.2057
 6800SOL    HW123805   6.958   2.887   5.916  0.6603 -0.3959  0.1243
 6800SOL    HW223806   6.879   2.837   6.035 -0.1332 -0.1734 -0.3062
 6801SOL     OW23807   9.120   3.742   2.788  0.7660  0.0071  0.3019
 6801SOL    HW123808   9.119   3.836   2.805 -1.7633  0.1422 -0.3188
 6801SOL    HW223809   9.207   3.713   2.814  1.4841  2.4764  0.7423
 6802SOL     OW23810   8.788   9.968   9.166  0.2882 -0.8718  0.4407
 6802SOL    HW123811   8.729   9.894   9.166  0.5180 -1.0582 -0.3828
 6802SOL    HW223812   8.874   9.930   9.148  0.4785 -0.4592  0.4730
 6803SOL     OW23813   3.512   6.791  10.361 -0.3238  0.1002  0.3645
 6803SOL    HW123814   3.544   6.717  10.412  1.0168 -1.5661 -2.7848
 6803SOL    HW223815   3.417   6.786  10.369 -0.2427 -1.9441  0.2361
 6804SOL     OW23816   0.424   7.021   7.425  0.0448  0.1945  0.5672
 6804SOL    HW123817   0.497   7.049   7.481  0.7752  1.6050 -1.0424
 6804SOL    HW223818   0.447   6.931   7.400 -0.4020 -0.5269  2.6875
 6805SOL     OW23819   7.100   2.319   8.749  0.2821 -0.0942  0.3666
 6805SOL    HW123820   7.077   2.276   8.831 -0.7933  0.8704  0.5861
 6805SOL    HW223821   7.097   2.249   8.684 -0.2601 -0.6002  0.9250
 6806SOL     OW23822  10.945   8.556   2.020  0.1065  0.3361  0.3585
 6806SOL    HW123823  10.850   8.553   2.005  0.8046  0.1570 -4.9193
 6806SOL    HW223824  10.975   8.467   2.001  1.5643  0.9015 -0.0571
 6807SOL     OW23825   2.386   1.659  10.411  0.2328  0.1009 -0.1097
 6807SOL    HW123826   2.405   1.577  10.365 -0.6799  0.4330 -1.1293
 6807SOL    HW223827   2.427   1.650  10.496  2.0702 -0.5074 -1.0301
 6808SOL     OW23828   7.153   1.524   3.134  0.2541 -0.2014 -0.4668
 6808SOL    HW123829   7.190   1.456   3.077 -0.2573 -0.5165 -0.4237
 6808SOL    HW223830   7.227   1.581   3.154  0.6841 -0.7363 -0.5172
 6809SOL     OW23831   0.075   0.618   3.708 -0.5733  0.5225  0.2173
 6809SOL    HW123832   0.028   0.596   3.628 -2.3967  1.1055  1.1107
 6809SOL    HW223833   0.065   0.541   3.764  0.7333  0.1001 -0.0998
 6810SOL     OW23834  10.240  10.720   8.592  0.2066 -0.1955 -0.6745
 6810SOL    HW123835  10.147  10.726   8.615 -0.0041 -2.1817 -0.9391
 6810SOL    HW223836  10.284  10.777   8.655 -1.0684 -0.2163  0.2624
 6811SOL     OW23837   4.028   8.181   6.648 -0.0041 -0.3968  0.2483
 6811SOL    HW123838   4.079   8.223   6.718  0.9678 -0.9117 -0.1295
 6811SOL    HW223839   4.075   8.203   6.568 -1.6061  0.9106 -0.3453
 6812SOL     OW23840   4.283   3.641   5.505  0.1589 -0.4877  0.1333
 6812SOL    HW123841   4.324   3.608   5.585  1.1939  0.8604  0.1757
 6812SOL    HW223842   4.355   3.655   5.444 -0.3825  0.4966 -0.2999
 6813SOL     OW23843   4.478   6.469   0.189 -0.6305 -0.4146  0.5619
 6813SOL    HW123844   4.473   6.388   0.138  0.2029 -0.0615 -0.0921
 6813SOL    HW223845   4.523   6.444   0.269 -0.9988 -0.7497  0.6645
 6814SOL     OW23846  10.822   2.876   9.934 -0.1952  0.0054 -0.0016
 6814SOL    HW123847  10.762   2.924   9.991 -0.3688 -1.1592  0.8182
 6814SOL    HW223848  10.766   2.813   9.888  0.0799  0.3442 -0.7935
 6815SOL     OW23849   4.735   4.281   0.510  0.1402  0.0571 -0.1136
 6815SOL    HW123850   4.819   4.247   0.478  0.1229 -1.0694  1.0191
 6815SOL    HW223851   4.759   4.354   0.567  0.3170  0.0130 -0.1301
 6816SOL     OW23852  10.074   4.637   2.251  0.1378 -0.0160  0.3194
 6816SOL    HW123853  10.029   4.672   2.174 -0.0764  0.0804  0.4890
 6816SOL    HW223854  10.124   4.562   2.218 -1.2417 -0.9801  0.3854
 6817SOL     OW23855   2.751   2.663   8.624 -0.2701  0.0017  0.0409
 6817SOL    HW123856   2.711   2.730   8.680  0.2758 -0.1256  0.5958
 6817SOL    HW223857   2.745   2.698   8.535 -0.1122  0.7251  0.3130
 6818SOL     OW23858   2.704   4.916   9.323  0.4926  0.3607 -0.0686
 6818SOL    HW123859   2.669   5.004   9.315 -0.8635  0.1382  3.0822
 6818SOL    HW223860   2.643   4.861   9.274  0.0499  0.8374 -0.0489
 6819SOL     OW23861   5.502   5.369   7.982  0.0676 -0.5596 -0.3437
 6819SOL    HW123862   5.478   5.348   8.072 -0.6440  0.6195 -0.2463
 6819SOL    HW223863   5.557   5.448   7.991 -2.2736  1.2162 -1.1235
 6820SOL     OW23864   6.251  10.758   0.655 -0.1580  0.5115  0.2462
 6820SOL    HW123865   6.302  10.757   0.736 -0.2770 -0.1744  0.3190
 6820SOL    HW223866   6.230  10.850   0.641 -0.7946  0.5454  1.4084
 6821SOL     OW23867   9.813   9.806   6.299  0.1531  0.1435 -0.1788
 6821SOL    HW123868   9.777   9.830   6.384 -0.1755 -0.3018 -0.1870
 6821SOL    HW223869   9.770   9.723   6.278  0.2240  0.2579 -0.7833
 6822SOL     OW23870   6.695   5.230   2.765 -0.1963  0.3975  0.6535
 6822SOL    HW123871   6.754   5.253   2.836  0.6171  0.6655 -0.0959
 6822SOL    HW223872   6.752   5.220   2.688 -1.2801  2.2282 -0.4316
 6823SOL     OW23873   3.445   9.037   5.145 -0.2684 -0.9747  0.1787
 6823SOL    HW123874   3.411   9.055   5.232  0.9634  2.4586  0.0203
 6823SOL    HW223875   3.513   8.971   5.159 -2.9079 -3.5922  1.1932
 6824SOL     OW23876   9.716   8.816   4.259 -0.0372  0.0778 -0.1424
 6824SOL    HW123877   9.629   8.855   4.267 -0.6444 -0.6880 -2.6096
 6824SOL    HW223878   9.714   8.742   4.319 -1.0453  0.1436 -0.0816
 6825SOL     OW23879   9.344   7.693   8.886 -0.4219 -0.1104 -0.4116
 6825SOL    HW123880   9.380   7.773   8.849 -0.2526  0.8297  1.7279
 6825SOL    HW223881   9.408   7.625   8.863  0.7060  0.8196 -0.0363
 6826SOL     OW23882   4.470   0.354   2.171  0.3695 -0.2364 -0.1488
 6826SOL    HW123883   4.383   0.364   2.210 -0.8564 -1.8354 -2.2921
 6826SOL    HW223884   4.495   0.264   2.191  1.7767  0.3775  0.9026
 6827SOL     OW23885   7.003  10.049   9.164 -0.2800 -0.0304 -0.0623
 6827SOL    HW123886   6.973   9.980   9.104 -0.4308  0.5996 -0.7097
 6827SOL    HW223887   7.012  10.004   9.248 -1.0000 -0.7051 -0.3342
 6828SOL     OW23888   5.019   8.169   9.526 -0.4243 -0.4377 -0.0712
 6828SOL    HW123889   4.942   8.212   9.563 -0.3543 -1.2980  1.0879
 6828SOL    HW223890   5.093   8.206   9.574 -0.1126  0.3086 -1.1086
 6829SOL     OW23891   5.470   8.588   5.324  0.3983 -0.1769 -0.5331
 6829SOL    HW123892   5.559   8.595   5.288 -0.1503 -0.2766 -1.9490
 6829SOL    HW223893   5.415   8.574   5.247 -0.8593 -0.0044  0.3349
 6830SOL     OW23894   7.551  10.270   5.220 -0.3774 -0.1289 -0.0476
 6830SOL    HW123895   7.614  10.248   5.152  0.7482  0.5213  0.7661
 6830SOL    HW223896   7.515  10.186   5.249 -0.6964 -0.4213 -1.2657
 6831SOL     OW23897   8.836   1.514  10.458  0.0998 -0.2211 -0.5076
 6831SOL    HW123898   8.825   1.447  10.525 -0.1830  0.0386 -0.2954
 6831SOL    HW223899   8.907   1.480  10.402  0.8767 -0.0746  0.3741
 6832SOL     OW23900   8.250  10.478  10.159  0.1514 -0.3278  0.2858
 6832SOL    HW123901   8.186  10.407  10.147 -0.2823 -0.0650  1.0395
 6832SOL    HW223902   8.278  10.499  10.070 -3.1999  1.7377 -0.3516
 6833SOL     OW23903   9.293   3.843   1.237 -0.0321  0.3537 -0.3089
 6833SOL    HW123904   9.229   3.816   1.304 -0.2642 -3.0245 -1.7784
 6833SOL    HW223905   9.368   3.785   1.251  0.9921  1.4266 -1.2958
 6834SOL     OW23906  10.699   1.022   3.369 -0.4851 -0.3270  0.0927
 6834SOL    HW123907  10.785   0.989   3.343 -0.2364 -0.1119  0.6366
 6834SOL    HW223908  10.680   1.092   3.307 -0.3579 -0.5030 -0.1461
 6835SOL     OW23909  10.601   9.336   9.433 -0.0606 -0.3622  0.5955
 6835SOL    HW123910  10.526   9.288   9.397 -0.5856  0.3197  0.7714
 6835SOL    HW223911  10.651   9.269   9.480  0.5217 -1.2301 -1.1961
 6836SOL     OW23912   2.707   0.813  10.771 -0.9080  0.5611  0.2257
 6836SOL    HW123913   2.695   0.907  10.756 -0.0599  0.5655 -0.5136
 6836SOL    HW223914   2.629   0.773  10.733 -2.3798  1.1040  2.5775
 6837SOL     OW23915   6.651   3.041   9.243 -0.2944 -0.3249  0.0086
 6837SOL    HW123916   6.637   2.956   9.286  0.8266 -0.9497 -0.8281
 6837SOL    HW223917   6.655   3.020   9.150 -0.3404  0.7016 -0.2260
 6838SOL     OW23918   9.980   0.776   4.669 -0.2850  0.6955 -0.0701
 6838SOL    HW123919   9.982   0.701   4.729 -0.5097  1.2942  0.6932
 6838SOL    HW223920   9.921   0.838   4.710 -0.0558  1.3210 -0.6730
 6839SOL     OW23921   2.588   2.363   0.484 -0.4940  0.1458 -0.3588
 6839SOL    HW123922   2.550   2.289   0.437 -1.0601  0.9153 -1.1201
 6839SOL    HW223923   2.654   2.324   0.542  0.0548 -0.8314 -1.6374
 6840SOL     OW23924   1.592   3.789   8.989  0.9415 -0.1321  0.5959
 6840SOL    HW123925   1.587   3.744   9.074  0.7136  1.2863  1.3436
 6840SOL    HW223926   1.636   3.872   9.008  0.2111  0.5260 -0.5356
 6841SOL     OW23927   6.502   6.402   8.605 -0.4706 -0.1289 -0.0292
 6841SOL    HW123928   6.475   6.329   8.661 -2.3108 -0.0388 -0.7422
 6841SOL    HW223929   6.536   6.468   8.665 -1.0880 -0.6018  0.8460
 6842SOL     OW23930   6.191   2.724   1.738 -0.5625  0.2761  0.1908
 6842SOL    HW123931   6.236   2.694   1.817 -1.5303  0.1924  0.7179
 6842SOL    HW223932   6.180   2.818   1.751 -0.7347  0.2609  0.1530
 6843SOL     OW23933   8.533   1.061   1.540 -0.2382 -0.1746  0.2201
 6843SOL    HW123934   8.447   1.035   1.575 -0.6582 -0.3156 -0.8871
 6843SOL    HW223935   8.519   1.065   1.446  1.0797 -0.5682  0.0055
 6844SOL     OW23936   6.473   1.419   6.261 -0.8142 -0.3448 -0.1649
 6844SOL    HW123937   6.432   1.504   6.273  1.7670  0.8915  0.1487
 6844SOL    HW223938   6.537   1.432   6.192  0.4115 -1.7352  0.6672
 6845SOL     OW23939   1.778   3.424   4.812  1.0270 -0.0465  0.0520
 6845SOL    HW123940   1.804   3.347   4.762  0.0297  0.3808 -1.1526
 6845SOL    HW223941   1.754   3.390   4.899 -1.6834 -1.4541 -1.1700
 6846SOL     OW23942   5.774   4.808   5.024  0.2668 -0.0871  0.8305
 6846SOL    HW123943   5.847   4.865   4.998  0.3783 -0.9539 -0.8333
 6846SOL    HW223944   5.707   4.824   4.958  0.3910 -2.0252  0.2078
 6847SOL     OW23945   4.913   4.138   6.492  0.2505  0.0845  0.4632
 6847SOL    HW123946   4.890   4.230   6.502  1.4455  0.3781  0.6536
 6847SOL    HW223947   4.847   4.091   6.542  0.0692  0.8860  0.9835
 6848SOL     OW23948   7.987   7.887   5.901 -0.5354  0.0799  0.3080
 6848SOL    HW123949   8.016   7.977   5.888 -0.9955  0.1856 -0.0041
 6848SOL    HW223950   8.014   7.865   5.991 -2.2861  1.2525  1.1562
 6849SOL     OW23951   2.350   0.907   7.388 -0.4410  0.3888  0.1175
 6849SOL    HW123952   2.428   0.933   7.438 -0.0914 -0.8943  0.2577
 6849SOL    HW223953   2.277   0.929   7.445 -0.0572 -0.7797  1.0923
 6850SOL     OW23954   6.106   4.998   0.327  0.1364 -0.5718 -0.0498
 6850SOL    HW123955   6.094   5.090   0.301  0.8295 -0.4843 -0.0836
 6850SOL    HW223956   6.045   4.949   0.272  0.0740 -0.1740 -0.3394
 6851SOL     OW23957  10.790   4.260  10.074 -0.1067  0.0734 -0.0808
 6851SOL    HW123958  10.699   4.268  10.045 -0.2580 -0.7237  0.1461
 6851SOL    HW223959  10.812   4.347  10.107 -0.6982  0.3491 -0.3990
 6852SOL     OW23960   4.506  10.174   2.068  0.6319 -0.3278  0.3960
 6852SOL    HW123961   4.511  10.236   1.996  0.0915  1.3160  1.7430
 6852SOL    HW223962   4.597  10.158   2.093  0.7628  0.0544  0.1570
 6853SOL     OW23963  10.761   9.503   7.591 -0.2710  0.1121 -0.2914
 6853SOL    HW123964  10.817   9.426   7.575  0.1298  0.4675 -0.5812
 6853SOL    HW223965  10.675   9.477   7.560  0.2974  0.4823 -2.1975
 6854SOL     OW23966  10.657   9.669   9.391 -0.1866 -0.0914  0.1246
 6854SOL    HW123967  10.568   9.666   9.356 -0.7624 -0.8955  1.5898
 6854SOL    HW223968  10.650   9.628   9.478  1.4346  0.6521  0.6307
 6855SOL     OW23969   3.137   8.161   3.160  0.4972  0.2860 -0.5182
 6855SOL    HW123970   3.203   8.201   3.103 -1.1591  0.6366 -2.2331
 6855SOL    HW223971   3.153   8.201   3.246  2.7726  0.0531 -0.7829
 6856SOL     OW23972   4.225   0.093   1.508 -0.5598  0.1345  0.4151
 6856SOL    HW123973   4.133   0.091   1.482 -0.3947 -0.5276 -0.1415
 6856SOL    HW223974   4.261   0.011   1.474  0.7218  1.3177 -1.1951
 6857SOL     OW23975   5.906   7.237   7.274  0.0600  0.5685  0.2415
 6857SOL    HW123976   5.824   7.265   7.316  0.7322 -0.0787  2.0526
 6857SOL    HW223977   5.936   7.315   7.227 -1.0050  1.1529  0.4984
 6858SOL     OW23978   0.356   0.648   6.533  1.0838 -0.0661 -1.0538
 6858SOL    HW123979   0.334   0.698   6.455 -0.4313 -1.2009 -1.3936
 6858SOL    HW223980   0.311   0.564   6.521  0.1346  0.0371  1.3959
 6859SOL     OW23981   8.035   1.662  10.367  0.6313  0.0818 -0.0115
 6859SOL    HW123982   8.023   1.740  10.313  0.1955  0.7713  1.0624
 6859SOL    HW223983   8.057   1.695  10.454 -1.5956 -0.9165  0.9741
 6860SOL     OW23984   0.841   3.962   3.700  0.5949  0.5103  0.3115
 6860SOL    HW123985   0.748   3.970   3.720  0.2595 -0.0299 -0.9976
 6860SOL    HW223986   0.884   3.964   3.786 -0.5013  2.1615  0.8665
 6861SOL     OW23987   3.960   8.101   3.414  0.3796 -0.6887  0.4210
 6861SOL    HW123988   3.920   8.151   3.343 -0.8898 -0.7820  1.0558
 6861SOL    HW223989   3.899   8.029   3.430  2.5168 -2.9313 -0.9882
 6862SOL     OW23990   2.885   6.794   1.635 -0.1014 -0.2053 -0.4067
 6862SOL    HW123991   2.889   6.708   1.592 -0.1641 -1.3915  1.8441
 6862SOL    HW223992   2.854   6.854   1.567 -4.2103 -2.7461 -0.9584
 6863SOL     OW23993   7.109   7.547   8.413 -0.6665  0.1148  0.7549
 6863SOL    HW123994   7.129   7.501   8.495  1.3011 -0.5023 -0.0602
 6863SOL    HW223995   7.165   7.624   8.414  0.3827 -0.6115 -0.6307
 6864SOL     OW23996   9.633   7.010   2.422 -0.1727 -0.2753  0.3292
 6864SOL    HW123997   9.690   6.982   2.494 -0.8506  0.5167  1.1929
 6864SOL    HW223998   9.692   7.059   2.363  0.4858 -1.3546  0.0800
 6865SOL     OW23999   0.599   9.237   3.673  0.1749  0.1121  0.3974
 6865SOL    HW124000   0.601   9.278   3.759 -2.4475 -0.3645  0.7252
 6865SOL    HW224001   0.518   9.185   3.673  1.0531 -1.3274 -1.6963
 6866SOL     OW24002   0.120   0.494  10.881  1.0600  0.1052  0.0046
 6866SOL    HW124003   0.184   0.564  10.869  1.5079 -0.4285 -0.8156
 6866SOL    HW224004   0.099   0.465  10.792 -0.3190  0.2704  0.2681
 6867SOL     OW24005   3.668  10.090   2.755  0.0055  0.5512  0.4385
 6867SOL    HW124006   3.661  10.043   2.672 -0.1022 -0.3215  0.9324
 6867SOL    HW224007   3.748  10.056   2.795  0.1385  1.0801  0.6300
 6868SOL     OW24008  10.343  10.824   2.592 -0.2881  0.1336 -0.1124
 6868SOL    HW124009  10.403  10.877   2.539  0.5296  2.2801  2.8334
 6868SOL    HW224010  10.364  10.734   2.568  0.9137  0.9949 -2.4916
 6869SOL     OW24011   7.412   8.972  10.109 -0.1285 -0.0583  0.1533
 6869SOL    HW124012   7.383   9.024  10.034  0.0602 -0.3108 -0.0922
 6869SOL    HW224013   7.389   9.026  10.185  0.0492  0.3785 -0.1016
 6870SOL     OW24014   6.587   2.820   2.988 -0.2425  0.1283 -0.2541
 6870SOL    HW124015   6.661   2.861   2.942 -0.1023 -0.9251 -0.9672
 6870SOL    HW224016   6.613   2.729   2.998  0.0195  0.4643  2.5217
 6871SOL     OW24017   8.974   3.239   3.203 -0.0385 -0.0485  0.1144
 6871SOL    HW124018   8.894   3.272   3.245  0.3141  0.0102  0.7300
 6871SOL    HW224019   8.942   3.191   3.126 -0.6611  0.0857  0.2868
 6872SOL     OW24020   6.185  10.493   0.117  0.1255  0.1533  0.4094
 6872SOL    HW124021   6.188  10.548   0.038 -1.2504 -0.0633  0.1871
 6872SOL    HW224022   6.097  10.508   0.152 -0.4285 -2.2286  0.1041
 6873SOL     OW24023   3.723   5.358   5.194 -0.1151  0.2906 -0.0166
 6873SOL    HW124024   3.700   5.355   5.287  1.2437  0.8159  0.3507
 6873SOL    HW224025   3.758   5.446   5.181 -0.4899  0.2923 -1.0844
 6874SOL     OW24026   5.507   7.786   2.593 -0.5336  0.1299  0.0752
 6874SOL    HW124027   5.502   7.751   2.682  1.0454 -3.1826 -1.0379
 6874SOL    HW224028   5.441   7.737   2.544 -0.0073  0.4563 -0.9993
 6875SOL     OW24029   7.104   3.918   1.922 -0.0096  0.5297 -0.3925
 6875SOL    HW124030   7.132   3.882   2.006 -1.4184  0.0150 -0.1260
 6875SOL    HW224031   7.010   3.931   1.932 -0.4072 -0.6900 -2.3022
 6876SOL     OW24032   1.413   0.125   8.216 -0.4119 -0.1190  0.1971
 6876SOL    HW124033   1.430   0.032   8.230  1.1053  0.2923  1.1999
 6876SOL    HW224034   1.339   0.127   8.154 -1.4351 -1.9742  1.3193
 6877SOL     OW24035   5.264   5.327   1.889  0.5210  0.0266  0.0181
 6877SOL    HW124036   5.291   5.407   1.843 -0.2788  0.7104  0.7352
 6877SOL    HW224037   5.313   5.329   1.971  1.0243 -0.5855 -0.2557
 6878SOL     OW24038   9.806  10.001   9.982  0.0063 -0.2765  0.2684
 6878SOL    HW124039   9.796   9.953   9.900 -3.4222  1.8277 -0.6627
 6878SOL    HW224040   9.801   9.935  10.051 -1.3802 -1.6230 -1.0978
 6879SOL     OW24041  10.469   2.627   7.309 -0.2250  0.6107 -0.0591
 6879SOL    HW124042  10.463   2.642   7.403  1.4423  1.7388 -0.1042
 6879SOL    HW224043  10.403   2.685   7.271  1.3259  2.6279  0.2352
 6880SOL     OW24044   8.688   2.077   2.782  0.1940 -0.0060  0.1216
 6880SOL    HW124045   8.637   2.153   2.756  1.1909  0.0303 -1.7519
 6880SOL    HW224046   8.707   2.031   2.700 -0.8776 -2.5776  1.2709
 6881SOL     OW24047   4.078   2.510   6.428  0.0171 -0.3223 -0.6360
 6881SOL    HW124048   4.102   2.453   6.501  0.8657 -0.4724 -1.0263
 6881SOL    HW224049   4.155   2.511   6.372 -1.6825 -2.6992 -3.1425
 6882SOL     OW24050   3.265   3.930   3.655 -0.3791 -0.4672 -0.0401
 6882SOL    HW124051   3.355   3.915   3.682 -0.6612  1.9849  2.4806
 6882SOL    HW224052   3.217   3.943   3.737 -2.6291  0.2671 -1.4184
 6883SOL     OW24053   4.440   2.112   6.815  0.2067 -0.7562  0.1524
 6883SOL    HW124054   4.484   2.028   6.826 -0.2202 -0.9793  0.1761
 6883SOL    HW224055   4.511   2.174   6.797  0.3043 -1.5969 -2.6145
 6884SOL     OW24056  10.783   9.642   8.207 -0.7891 -0.1715  0.1152
 6884SOL    HW124057  10.751   9.713   8.263 -0.2005 -0.4929  0.8669
 6884SOL    HW224058  10.842   9.684   8.146 -0.6276  0.0279  0.4069
 6885SOL     OW24059   0.154   5.026   2.522  0.1472 -0.0305  0.0253
 6885SOL    HW124060   0.150   5.114   2.561 -3.5453 -0.2446  0.2682
 6885SOL    HW224061   0.167   4.967   2.596  0.8568  0.1398  0.0444
 6886SOL     OW24062   2.554   0.048   0.028  0.1110 -0.0598 -0.2405
 6886SOL    HW124063   2.588   0.064   0.116  0.8738 -1.1310 -0.3280
 6886SOL    HW224064   2.502  -0.032   0.036  1.2301 -0.8870 -1.0056
 6887SOL     OW24065   0.793   2.475   9.418 -0.0863  0.2063  0.1322
 6887SOL    HW124066   0.743   2.414   9.472  0.1915  0.4437  0.6599
 6887SOL    HW224067   0.727   2.518   9.364 -0.1235 -1.6780 -1.3646
 6888SOL     OW24068   4.263   8.286   5.662  0.3938 -0.2060  0.1151
 6888SOL    HW124069   4.168   8.280   5.677  0.1009  0.1401 -1.4422
 6888SOL    HW224070   4.293   8.353   5.723 -0.1942 -1.0654  1.3529
 6889SOL     OW24071   6.220   6.370   8.565  0.1817  0.3366  0.6097
 6889SOL    HW124072   6.180   6.456   8.561  0.5715  0.4812 -0.3399
 6889SOL    HW224073   6.314   6.387   8.573  0.4878  0.0412 -1.8514
 6890SOL     OW24074   2.140   4.700   7.551  0.5689 -0.2040  0.3248
 6890SOL    HW124075   2.198   4.744   7.488  1.0390  1.4948  1.8781
 6890SOL    HW224076   2.137   4.760   7.626 -0.2659 -2.0053  1.7679
 6891SOL     OW24077   8.572   2.577   6.148  0.7250  0.0784  0.1932
 6891SOL    HW124078   8.609   2.665   6.155  1.5131 -0.0976 -1.4447
 6891SOL    HW224079   8.630   2.532   6.086 -1.2207 -0.7617 -1.0719
 6892SOL     OW24080   3.010   8.832  10.767 -0.1444  0.5216  0.3278
 6892SOL    HW124081   2.940   8.860  10.826 -1.3026  0.3724 -0.9412
 6892SOL    HW224082   3.067   8.778  10.822  0.0379  2.1861  1.8474
 6893SOL     OW24083   3.832   1.841   8.804 -0.0555  0.2909 -0.1618
 6893SOL    HW124084   3.884   1.920   8.793 -1.4225  0.9996 -1.7293
 6893SOL    HW224085   3.770   1.862   8.874 -1.6353  1.2739 -1.8311
 6894SOL     OW24086   5.158   1.685   2.610 -0.0564  0.1729 -0.5601
 6894SOL    HW124087   5.181   1.626   2.681  0.3312  0.7737 -0.1802
 6894SOL    HW224088   5.144   1.628   2.534 -0.5230 -0.4713  0.0103
 6895SOL     OW24089   2.943   4.167   0.984 -0.3076  0.1472  0.4248
 6895SOL    HW124090   2.888   4.213   1.048  0.5865  0.5776  0.8938
 6895SOL    HW224091   2.960   4.082   1.024 -1.0417 -0.1725  0.0571
 6896SOL     OW24092   4.651   6.537   8.245 -0.3826  0.2168  0.0118
 6896SOL    HW124093   4.720   6.517   8.308 -0.9049  2.0164  1.1836
 6896SOL    HW224094   4.575   6.558   8.298 -1.0309  1.1024 -1.2394
 6897SOL     OW24095  10.955   6.390   4.094  0.0505 -0.3159 -0.1475
 6897SOL    HW124096  11.011   6.314   4.077  0.5742  0.2398 -0.9281
 6897SOL    HW224097  11.006   6.444   4.155 -0.6191 -0.9262  0.9636
 6898SOL     OW24098   8.918   8.646   6.217  0.0425 -0.3051  0.5917
 6898SOL    HW124099   8.920   8.741   6.200  1.6625  0.1379  3.0239
 6898SOL    HW224100   8.972   8.609   6.148  1.7390  0.8724  1.2273
 6899SOL     OW24101   6.248   5.121   5.110  0.1314 -0.2703  0.1614
 6899SOL    HW124102   6.164   5.093   5.146  0.2396 -1.0315 -0.1618
 6899SOL    HW224103   6.308   5.049   5.130  0.8098  0.4434  0.7519
 6900SOL     OW24104   0.944   6.213   8.850 -0.3334 -0.3589 -0.1710
 6900SOL    HW124105   0.888   6.237   8.775 -1.6610  0.2983  1.0168
 6900SOL    HW224106   0.992   6.293   8.870 -0.5280 -0.3262  0.1583
 6901SOL     OW24107   7.208   2.347  10.841 -0.1728  0.2425  0.1297
 6901SOL    HW124108   7.301   2.363  10.858  0.5071 -1.1952 -2.0750
 6901SOL    HW224109   7.185   2.275  10.899  0.7846 -1.1621 -1.2124
 6902SOL     OW24110   7.512   0.292   2.381  0.4955  0.2413  0.4354
 6902SOL    HW124111   7.500   0.268   2.289 -1.4840 -1.8838  1.2016
 6902SOL    HW224112   7.460   0.371   2.392  0.2868  0.1874 -0.1166
 6903SOL     OW24113   8.621  10.581   7.347 -0.0838  0.2056  0.2058
 6903SOL    HW124114   8.631  10.676   7.346 -2.5816  0.4886  0.0156
 6903SOL    HW224115   8.710  10.548   7.334  0.6803  2.5159 -0.7467
 6904SOL     OW24116   9.571   0.255   0.815 -0.0141 -0.4708 -0.2905
 6904SOL    HW124117   9.515   0.188   0.775  0.1923 -0.8939  0.1291
 6904SOL    HW224118   9.660   0.226   0.795  0.0815 -0.4786  0.1514
 6905SOL     OW24119   5.450   0.627   4.825  0.1232 -0.1793 -0.5236
 6905SOL    HW124120   5.413   0.554   4.875  0.4152  0.3950  0.5631
 6905SOL    HW224121   5.379   0.691   4.820  0.6960  0.6061  0.9130
 6906SOL     OW24122   5.619   3.944   4.541 -0.3290 -0.0362  0.2063
 6906SOL    HW124123   5.584   3.875   4.484  1.0137 -0.5970  0.0406
 6906SOL    HW224124   5.713   3.942   4.525  0.1217 -0.4696  2.7365
 6907SOL     OW24125   8.117   0.383   9.848  0.0371  0.6501 -0.0634
 6907SOL    HW124126   8.103   0.397   9.754 -1.5021  0.4920  0.1211
 6907SOL    HW224127   8.057   0.311   9.870  0.0100  1.0341  1.1353
 6908SOL     OW24128   2.120   2.819   1.559  0.0358 -0.5520 -0.0623
 6908SOL    HW124129   2.037   2.833   1.604  0.2049 -0.1026  0.1129
 6908SOL    HW224130   2.179   2.790   1.629 -0.1345 -1.4768 -0.2978
 6909SOL     OW24131   2.881   6.098   6.335  0.3319 -0.4451 -0.2344
 6909SOL    HW124132   2.859   6.022   6.389  0.1278 -0.3500 -0.1823
 6909SOL    HW224133   2.831   6.084   6.254 -0.3086  0.0219  0.0809
 6910SOL     OW24134   7.956   8.517   3.635 -0.3772 -0.1116  0.1317
 6910SOL    HW124135   7.933   8.607   3.659  0.1522  0.2742 -0.7839
 6910SOL    HW224136   8.051   8.514   3.642 -0.5895 -1.5230  3.2723
 6911SOL     OW24137   5.725   5.550   8.659  0.6505 -0.0000  0.6437
 6911SOL    HW124138   5.755   5.550   8.750 -0.5008  1.5465  1.0390
 6911SOL    HW224139   5.705   5.641   8.640 -2.6204 -0.7851  0.0313
 6912SOL     OW24140   6.295   1.404   6.505 -0.5417  0.1657  0.3275
 6912SOL    HW124141   6.353   1.437   6.574 -0.0352 -0.4370  0.1938
 6912SOL    HW224142   6.354   1.373   6.437 -0.9814 -1.4451  0.6442
 6913SOL     OW24143   9.688   3.104   9.690  0.6555 -0.4095 -0.0038
 6913SOL    HW124144   9.733   3.116   9.774  0.8737 -0.5836 -0.0962
 6913SOL    HW224145   9.752   3.060   9.635  0.5701 -0.1381 -0.3173
 6914SOL     OW24146   5.636  10.424   6.053  0.3607 -0.6961 -0.3087
 6914SOL    HW124147   5.577  10.416   5.978 -1.0871  0.5350  0.6584
 6914SOL    HW224148   5.683  10.506   6.038 -2.2529  1.2855  1.6314
 6915SOL     OW24149   9.826   0.097   5.696 -0.2530 -0.0173  0.6971
 6915SOL    HW124150   9.765   0.039   5.740  0.3453 -0.1717  1.3399
 6915SOL    HW224151   9.873   0.140   5.768  0.2614  0.2312  0.2131
 6916SOL     OW24152   6.293   3.523   6.680 -0.4226  0.1707  0.4602
 6916SOL    HW124153   6.254   3.503   6.765  0.8627  2.1933  1.5651
 6916SOL    HW224154   6.291   3.619   6.675  3.1456  0.2666 -0.0195
 6917SOL     OW24155   1.869   3.188   2.549  0.1095  0.2690 -0.0071
 6917SOL    HW124156   1.890   3.106   2.504 -0.5819  0.2633 -0.3222
 6917SOL    HW224157   1.911   3.179   2.635  3.9220  1.4645 -1.6089
 6918SOL     OW24158   3.466   4.037   1.620  0.0644  0.1116  0.6034
 6918SOL    HW124159   3.445   3.956   1.667  1.0845 -0.2104  0.5134
 6918SOL    HW224160   3.387   4.055   1.568 -0.4661 -0.3896  1.2281
 6919SOL     OW24161   8.751   2.347   7.169  0.1085 -0.4244  0.6447
 6919SOL    HW124162   8.657   2.327   7.172  0.1065 -0.6126 -0.3591
 6919SOL    HW224163   8.756   2.441   7.183 -0.1451 -0.5822  1.8402
 6920SOL     OW24164   1.084   6.549   1.384  0.0553  0.4638  0.0373
 6920SOL    HW124165   1.098   6.616   1.450 -0.2531 -0.5701  1.1672
 6920SOL    HW224166   1.143   6.477   1.408  1.5755  0.9367 -2.0688
 6921SOL     OW24167   0.776   9.338   0.971 -0.3786 -0.3478 -0.4134
 6921SOL    HW124168   0.760   9.426   0.936  1.1653 -0.5847 -1.7935
 6921SOL    HW224169   0.706   9.284   0.934 -0.0941 -0.1165 -1.3098
 6922SOL     OW24170   9.144   5.188   9.905  0.5341 -0.0345  0.1113
 6922SOL    HW124171   9.181   5.106   9.872 -0.2886 -0.3423 -0.0448
 6922SOL    HW224172   9.051   5.183   9.883  0.5420  1.0835 -0.1752
 6923SOL     OW24173   8.489   4.678   1.335  0.0440  0.1106 -0.0119
 6923SOL    HW124174   8.560   4.622   1.364 -0.0233 -0.8825 -1.7040
 6923SOL    HW224175   8.482   4.745   1.403  2.4101  0.0654  0.3119
 6924SOL     OW24176   8.502   2.167   5.425 -0.0958 -0.0499  0.4388
 6924SOL    HW124177   8.549   2.117   5.358 -0.6305  1.1408 -0.8478
 6924SOL    HW224178   8.455   2.234   5.376 -0.6747  0.7023  2.0020
 6925SOL     OW24179   0.343   0.725   0.889 -0.1304 -0.5742  0.0566
 6925SOL    HW124180   0.329   0.632   0.869  1.7537 -0.3484 -2.5877
 6925SOL    HW224181   0.437   0.732   0.905 -0.0462  1.1016 -1.0879
 6926SOL     OW24182   6.314   3.969   9.596  0.0466 -0.5362 -0.0431
 6926SOL    HW124183   6.295   3.949   9.505 -3.1983  2.0324 -0.0179
 6926SOL    HW224184   6.379   3.904   9.622  0.8403 -1.4711 -4.0801
 6927SOL     OW24185   1.175   7.430   0.290 -0.0949  0.5846 -0.4651
 6927SOL    HW124186   1.130   7.351   0.322 -1.3445  0.5057 -2.3789
 6927SOL    HW224187   1.243   7.445   0.355 -2.1751  0.0715  1.9276
 6928SOL     OW24188   1.596   3.927   9.528  0.0841  0.5846  0.2743
 6928SOL    HW124189   1.588   4.020   9.508  1.2326  1.1787  2.3929
 6928SOL    HW224190   1.506   3.898   9.544 -0.6385  0.5546 -3.4127
 6929SOL     OW24191   6.020   9.760   8.671  0.0255 -0.0448  0.1963
 6929SOL    HW124192   6.061   9.806   8.744 -1.4203  1.8482 -0.1422
 6929SOL    HW224193   6.027   9.821   8.598  0.6802 -1.5657 -1.0390
 6930SOL     OW24194   8.238   6.862   5.738 -0.5666 -0.1907  0.2568
 6930SOL    HW124195   8.284   6.781   5.716  0.1693 -0.6688  3.3176
 6930SOL    HW224196   8.155   6.832   5.777 -0.7145  0.5488  0.5054
 6931SOL     OW24197   8.321   8.956   5.381  0.2276 -0.1045  0.5985
 6931SOL    HW124198   8.333   9.045   5.415  0.1091 -1.1476  3.4460
 6931SOL    HW224199   8.405   8.913   5.397 -0.1537 -0.9070  0.4562
 6932SOL     OW24200   8.610   0.865   1.312  0.2957  0.3948  0.6288
 6932SOL    HW124201   8.526   0.879   1.269  1.2227  0.0013 -1.3764
 6932SOL    HW224202   8.645   0.785   1.272 -0.0504 -1.5704  4.1452
 6933SOL     OW24203   6.875   3.468   8.301 -0.2485 -0.3854 -0.4761
 6933SOL    HW124204   6.820   3.447   8.377  1.4545 -0.6293  0.7212
 6933SOL    HW224205   6.888   3.385   8.256 -1.4486 -0.2012 -1.1728
 6934SOL     OW24206   0.823   2.255   1.977  0.7908 -0.1736  1.1547
 6934SOL    HW124207   0.849   2.337   1.935 -0.2752 -0.3026  0.2336
 6934SOL    HW224208   0.861   2.260   2.065  0.4703  1.4389  1.2101
 6935SOL     OW24209   1.379   5.184   5.143 -0.2624 -0.5078 -0.5131
 6935SOL    HW124210   1.289   5.213   5.132  0.1222  0.3249 -1.5848
 6935SOL    HW224211   1.408   5.163   5.054  0.3138 -1.6344 -0.0647
 6936SOL     OW24212   5.884   7.036   6.852 -0.0212  0.1275 -0.0747
 6936SOL    HW124213   5.846   7.067   6.934 -0.2356 -0.3485  0.0095
 6936SOL    HW224214   5.815   6.982   6.812  0.8314 -1.4047  0.4569
 6937SOL     OW24215   3.008   2.338   9.495 -0.0580  0.3298  0.1730
 6937SOL    HW124216   3.080   2.384   9.452  0.0529  0.2807  0.3098
 6937SOL    HW224217   3.042   2.311   9.580 -0.8671  2.0320  1.0473
 6938SOL     OW24218   1.527   7.240   5.058  0.0679  0.5391  0.4735
 6938SOL    HW124219   1.484   7.246   5.142 -0.9860 -0.3264  0.0061
 6938SOL    HW224220   1.547   7.147   5.047  1.5214  0.8361  0.4146
 6939SOL     OW24221   9.575   0.575   6.003  0.0896  0.4429 -0.3585
 6939SOL    HW124222   9.578   0.668   5.979  0.1508  0.7151  0.6993
 6939SOL    HW224223   9.570   0.574   6.098  0.7757 -0.6554 -0.3159
 6940SOL     OW24224   6.014   1.506   4.239 -0.0136 -0.3209 -0.1386
 6940SOL    HW124225   5.920   1.513   4.253 -0.0648 -1.3705  0.1042
 6940SOL    HW224226   6.026   1.421   4.196  0.9301 -0.8498  1.1141
 6941SOL     OW24227   6.085   7.371   1.672 -0.0573  0.4688 -0.0605
 6941SOL    HW124228   6.144   7.372   1.597  0.1456 -0.6321  0.0658
 6941SOL    HW224229   6.041   7.286   1.666 -0.5567  0.6715  0.6630
 6942SOL     OW24230   5.443   9.777   6.370  0.6294  0.2967  0.5036
 6942SOL    HW124231   5.369   9.802   6.424  1.2432  2.0298  0.5648
 6942SOL    HW224232   5.465   9.855   6.321  1.9296 -0.4196 -0.0896
 6943SOL     OW24233   1.729   1.936   6.022  0.1151 -0.2497 -0.0581
 6943SOL    HW124234   1.783   2.010   5.993 -1.9035  1.8866  1.4302
 6943SOL    HW224235   1.774   1.902   6.099  1.9273 -1.6670 -1.7016
 6944SOL     OW24236   6.864   8.526   7.755  0.2238  0.3968 -0.1050
 6944SOL    HW124237   6.810   8.576   7.815 -0.3432  0.2015 -0.4504
 6944SOL    HW224238   6.929   8.483   7.811 -0.7214 -0.3262  0.4503
 6945SOL     OW24239   0.859  10.939   2.905 -0.4436  0.6068  0.5119
 6945SOL    HW124240   0.902  10.951   2.991  0.9276 -1.4021  0.1460
 6945SOL    HW224241   0.841  11.028   2.875  0.5473  1.3977  2.1664
 6946SOL     OW24242  10.036   3.075   8.245 -0.0141 -0.1703  0.6769
 6946SOL    HW124243  10.120   3.103   8.211 -0.9410  0.0393 -1.4805
 6946SOL    HW224244  10.051   2.986   8.276  0.8802 -0.3159 -0.1552
 6947SOL     OW24245   2.156   1.545   2.934 -0.1246 -0.2354  0.1688
 6947SOL    HW124246   2.192   1.631   2.912  1.5461 -0.4511  1.8777
 6947SOL    HW224247   2.228   1.484   2.917 -1.3954 -1.3596 -1.3334
 6948SOL     OW24248   8.481   9.817   8.188  0.1679  0.1578 -0.3059
 6948SOL    HW124249   8.463   9.736   8.236  0.9215 -0.0233 -0.3248
 6948SOL    HW224250   8.450   9.887   8.246 -1.5113 -0.1880 -0.7706
 6949SOL     OW24251   0.930   3.601   2.639 -0.3137  0.4108 -0.0657
 6949SOL    HW124252   0.979   3.674   2.677 -0.3562  0.5236 -0.2276
 6949SOL    HW224253   0.840   3.631   2.637  0.1651  1.8871 -3.6917
 6950SOL     OW24254   7.555   6.701   6.036  0.0568 -0.1494 -0.3970
 6950SOL    HW124255   7.559   6.769   6.103  0.2004  0.9013 -1.4488
 6950SOL    HW224256   7.485   6.643   6.065 -0.8939  1.1230 -0.0996
 6951SOL     OW24257   3.132   2.051   8.795 -0.2813  0.9162  0.7103
 6951SOL    HW124258   3.099   1.983   8.737  0.8987  1.4014 -0.5571
 6951SOL    HW224259   3.085   2.038   8.877 -0.8585 -0.7309  0.1286
 6952SOL     OW24260   6.824  10.704   6.716  0.0828 -0.1502  0.5230
 6952SOL    HW124261   6.811  10.788   6.672 -0.1937 -0.8076 -0.6695
 6952SOL    HW224262   6.839  10.727   6.808 -0.9722  1.1369  0.3850
 6953SOL     OW24263   5.406   9.721   1.404  0.3063  0.5888 -0.2442
 6953SOL    HW124264   5.418   9.737   1.310 -0.7451 -1.7976 -0.8257
 6953SOL    HW224265   5.314   9.697   1.413  0.4284  0.6857  1.3957
 6954SOL     OW24266   7.415   7.568   3.669  0.0038  0.1234  0.1862
 6954SOL    HW124267   7.396   7.512   3.745 -0.6255  1.7993  1.2996
 6954SOL    HW224268   7.352   7.639   3.676  0.5228  0.7610 -1.4407
 6955SOL     OW24269   4.720   2.982   8.324 -0.0217  0.2225  0.0480
 6955SOL    HW124270   4.778   2.930   8.268 -0.9432 -1.1520  0.3271
 6955SOL    HW224271   4.769   2.992   8.406 -0.5136 -1.7580  0.6328
 6956SOL     OW24272   2.205   8.691   4.911 -0.3685 -0.9501 -0.0409
 6956SOL    HW124273   2.252   8.717   4.832 -2.1155 -1.7751 -1.3984
 6956SOL    HW224274   2.244   8.606   4.935  0.3077 -0.5994  0.1351
 6957SOL     OW24275   8.673  10.328  10.421  0.3481 -0.5369  0.0028
 6957SOL    HW124276   8.637  10.246  10.388 -1.0602  0.6130 -1.4435
 6957SOL    HW224277   8.720  10.304  10.501 -0.6996 -2.6095  0.0239
 6958SOL     OW24278   3.800   1.715   6.033  0.0033 -0.2308  0.4378
 6958SOL    HW124279   3.755   1.665   5.966  0.5974  0.8727 -0.8252
 6958SOL    HW224280   3.741   1.789   6.052  0.5238  0.3120 -0.0227
 6959SOL     OW24281   5.645   9.302   2.538 -0.6445 -0.4311 -0.3139
 6959SOL    HW124282   5.730   9.269   2.510 -0.9398 -1.2429 -0.2580
 6959SOL    HW224283   5.639   9.390   2.500  0.7900  0.1668  0.8070
 6960SOL     OW24284   6.424   4.756   3.233 -0.1282  0.2799  0.1552
 6960SOL    HW124285   6.359   4.791   3.294 -1.3784  0.1658 -1.1026
 6960SOL    HW224286   6.379   4.752   3.149  0.9870 -1.3756 -0.3830
 6961SOL     OW24287   6.207   9.081   5.757  0.0903  0.5104  0.0322
 6961SOL    HW124288   6.243   9.162   5.792 -0.5415  0.3793  0.9984
 6961SOL    HW224289   6.160   9.106   5.678 -0.3963  1.1338  0.5194
 6962SOL     OW24290   6.177   0.800   6.195 -0.1888  0.5580 -0.3440
 6962SOL    HW124291   6.171   0.746   6.273  1.1269  0.1506 -0.5188
 6962SOL    HW224292   6.198   0.887   6.227 -0.6706  0.6076 -0.1700
 6963SOL     OW24293   8.223   6.312  10.029  0.2656 -0.2288 -0.1881
 6963SOL    HW124294   8.295   6.261  10.064  0.9526  0.8929  0.0774
 6963SOL    HW224295   8.144   6.267  10.058  0.8512 -0.3822  1.1899
 6964SOL     OW24296   5.140   2.523   9.875  0.8549 -0.5454  0.3096
 6964SOL    HW124297   5.045   2.528   9.890  1.0053 -2.8725  2.4149
 6964SOL    HW224298   5.150   2.541   9.782 -1.5434  0.9584  0.2896
 6965SOL     OW24299   8.012   2.917   1.110  0.0596 -0.1341  0.3802
 6965SOL    HW124300   8.088   2.911   1.052  1.1250 -1.7010  1.8919
 6965SOL    HW224301   8.048   2.943   1.194 -1.1684 -0.3042  0.9650
 6966SOL     OW24302   8.507   9.636   7.531  0.2465 -0.5880  0.3962
 6966SOL    HW124303   8.498   9.647   7.626 -1.8805  1.1447  0.0440
 6966SOL    HW224304   8.431   9.682   7.495 -0.4419 -3.4767 -2.0266
 6967SOL     OW24305   9.151   8.621   4.407  0.1713 -0.0576  0.2473
 6967SOL    HW124306   9.101   8.598   4.328 -0.4905  1.4535  0.2192
 6967SOL    HW224307   9.220   8.554   4.412 -0.5809 -0.9299 -0.8760
 6968SOL     OW24308   0.222   9.331   1.426 -0.3334  0.3608 -0.2734
 6968SOL    HW124309   0.139   9.374   1.447 -0.1739 -0.3330  1.8694
 6968SOL    HW224310   0.260   9.385   1.357 -1.6333  1.8279  0.1258
 6969SOL     OW24311  10.748   7.198   8.839  0.1763 -0.3379 -0.2763
 6969SOL    HW124312  10.839   7.220   8.817  0.4132 -0.4372  0.5858
 6969SOL    HW224313  10.754   7.118   8.891 -0.2320  0.7514  1.5064
 6970SOL     OW24314   0.552   4.549   9.291 -0.0707 -0.7249 -0.0428
 6970SOL    HW124315   0.502   4.485   9.341  0.9616 -2.4231 -1.1625
 6970SOL    HW224316   0.530   4.532   9.200  0.4553  0.3026 -0.3764
 6971SOL     OW24317   9.400   7.251   7.199  0.0424  0.2409  0.3178
 6971SOL    HW124318   9.337   7.206   7.255 -0.7113 -1.1151 -1.5523
 6971SOL    HW224319   9.454   7.181   7.162  0.1400  1.0289 -1.0850
 6972SOL     OW24320   5.716   1.087   7.211  0.0493 -0.2001  0.0773
 6972SOL    HW124321   5.740   1.179   7.199 -0.7500  0.0810  0.5217
 6972SOL    HW224322   5.624   1.091   7.240 -0.0563 -1.1473 -0.1288
 6973SOL     OW24323   4.199   0.611   5.388 -0.7000  0.2865  0.0562
 6973SOL    HW124324   4.229   0.616   5.479  0.8662  0.9536 -0.5012
 6973SOL    HW224325   4.261   0.664   5.338 -1.3542 -0.3520 -1.4675
 6974SOL     OW24326   7.344   2.374   6.414  0.2421  0.0859  0.1233
 6974SOL    HW124327   7.440   2.370   6.417  0.3190  0.7373 -1.0696
 6974SOL    HW224328   7.319   2.402   6.502  1.0908 -0.8533  0.6880
 6975SOL     OW24329   8.107   9.386   5.843  0.8682  0.0963  0.1443
 6975SOL    HW124330   8.027   9.385   5.790  1.5800  1.2151 -0.9821
 6975SOL    HW224331   8.170   9.334   5.793  1.3949  0.7466  0.1306
 6976SOL     OW24332   8.910   4.220   5.486  0.2561 -0.3200  0.0885
 6976SOL    HW124333   8.834   4.162   5.496  0.0528 -0.3289 -1.3708
 6976SOL    HW224334   8.983   4.168   5.519 -0.3845 -0.2237  1.7351
 6977SOL     OW24335   2.478   6.919   1.283  0.3238  0.2832  0.2896
 6977SOL    HW124336   2.406   6.888   1.338 -0.2234  1.3940  0.2192
 6977SOL    HW224337   2.547   6.853   1.294 -0.7159 -0.8104  0.3233
 6978SOL     OW24338   0.722   2.003   3.149 -0.9729  0.3276  0.3571
 6978SOL    HW124339   0.728   1.950   3.070 -1.7017  1.1008 -0.2286
 6978SOL    HW224340   0.774   1.956   3.214 -0.8758 -0.6276 -0.4082
 6979SOL     OW24341   6.456   3.638   1.280  0.2664 -0.1586  0.2081
 6979SOL    HW124342   6.520   3.654   1.210 -2.4030 -0.8699 -2.5096
 6979SOL    HW224343   6.437   3.545   1.274 -1.3538  0.1264  0.6731
 6980SOL     OW24344   8.919   1.998   1.149 -0.4659  1.0169  0.1016
 6980SOL    HW124345   8.868   2.037   1.219  0.7308  2.0070  0.4393
 6980SOL    HW224346   8.890   2.043   1.070 -2.2196 -0.4938 -0.1357
 6981SOL     OW24347   2.074   7.338   2.542 -0.1774 -0.3078 -0.5909
 6981SOL    HW124348   2.059   7.277   2.614  0.4001  0.1726 -0.0518
 6981SOL    HW224349   2.099   7.283   2.468  0.0285 -0.7448 -0.1998
 6982SOL     OW24350   4.802   3.373   1.125 -0.1993  0.1910 -0.2645
 6982SOL    HW124351   4.858   3.296   1.141 -1.7386 -0.8246  0.3759
 6982SOL    HW224352   4.834   3.439   1.186  0.6836 -0.1796 -0.3176
 6983SOL     OW24353   6.806   3.028   7.368  0.0253 -0.7967 -0.2108
 6983SOL    HW124354   6.894   3.059   7.351 -0.6157  0.8410 -0.6325
 6983SOL    HW224355   6.757   3.049   7.288 -0.7215 -1.8119 -0.0413
 6984SOL     OW24356   6.469   4.765   3.951 -0.1808 -0.2340  0.4437
 6984SOL    HW124357   6.543   4.709   3.972  0.0396 -0.2355 -0.3126
 6984SOL    HW224358   6.401   4.741   4.015 -0.2329 -1.6341 -0.1240
 6985SOL     OW24359   8.175   2.312   4.339 -0.4447 -0.1667  0.4667
 6985SOL    HW124360   8.248   2.326   4.279  0.0259 -1.4721  0.6992
 6985SOL    HW224361   8.110   2.378   4.316  0.2104  0.0692 -0.7085
 6986SOL     OW24362   8.782   0.040   1.327  0.5307 -0.1310 -0.0894
 6986SOL    HW124363   8.834   0.079   1.257  1.2323 -0.9471 -0.0372
 6986SOL    HW224364   8.706   0.003   1.283  0.2659  0.5844 -0.2370
 6987SOL     OW24365   0.563   7.115   5.926 -0.0029  0.4500  0.0911
 6987SOL    HW124366   0.552   7.121   5.831  0.5614  1.1310  0.0711
 6987SOL    HW224367   0.485   7.067   5.956  0.0188 -0.1157 -0.7579
 6988SOL     OW24368   4.772   1.046   0.345 -0.1071 -0.1852 -0.1667
 6988SOL    HW124369   4.677   1.051   0.354 -0.1253  0.4368 -0.7198
 6988SOL    HW224370   4.802   1.017   0.431 -0.9539 -2.4259 -0.5949
 6989SOL     OW24371   5.511   7.431   2.430  0.8843 -0.5271  0.0806
 6989SOL    HW124372   5.538   7.370   2.498  1.7574 -1.5074 -1.1103
 6989SOL    HW224373   5.533   7.386   2.348  0.4498  0.8982 -0.8352
 6990SOL     OW24374   6.911   7.282   8.043  0.0929  0.0007  0.3325
 6990SOL    HW124375   6.955   7.207   8.002 -0.6378 -0.2054 -0.0878
 6990SOL    HW224376   6.837   7.243   8.090 -0.0012  0.4067  0.5194
 6991SOL     OW24377   8.987   9.192   4.474  0.3607 -0.1461  0.1091
 6991SOL    HW124378   8.989   9.244   4.394  0.7270 -0.0891  0.1540
 6991SOL    HW224379   8.926   9.121   4.454  0.0441  0.1628 -0.0336
 6992SOL     OW24380   0.461   3.256   0.964  0.6973 -0.2738  0.3564
 6992SOL    HW124381   0.469   3.203   1.044 -0.7110 -1.6523 -0.3893
 6992SOL    HW224382   0.446   3.192   0.894  1.2938  0.9646 -0.9198
 6993SOL     OW24383   7.798   0.447   1.967 -0.4657  0.3558  0.3674
 6993SOL    HW124384   7.825   0.406   1.885 -2.3046 -1.4039  0.5807
 6993SOL    HW224385   7.861   0.415   2.032  1.5363  2.4689 -0.4671
 6994SOL     OW24386   4.668   2.289   5.341  0.0426  0.1376  0.0033
 6994SOL    HW124387   4.629   2.375   5.355  0.4750  0.2193  0.7770
 6994SOL    HW224388   4.597   2.227   5.359  0.0674  0.3047  0.7232
 6995SOL     OW24389   0.407   8.525   1.541 -0.5300  0.3189 -0.0590
 6995SOL    HW124390   0.431   8.452   1.484  0.4736  1.3470 -0.9887
 6995SOL    HW224391   0.325   8.557   1.504 -0.7183 -0.0303  0.0552
 6996SOL     OW24392   4.436   1.684   3.813  0.1958  0.1420  0.4724
 6996SOL    HW124393   4.483   1.759   3.851  0.1631 -0.3483  1.5075
 6996SOL    HW224394   4.349   1.689   3.852 -0.0655  0.0567 -0.1111
 6997SOL     OW24395   1.951   0.130   6.787 -0.2591  0.0710  0.1123
 6997SOL    HW124396   2.007   0.054   6.771  0.3659 -0.1992  3.1875
 6997SOL    HW224397   1.955   0.181   6.706  0.3762 -2.4836 -1.5141
 6998SOL     OW24398  10.361   9.497   2.639 -0.6244  0.4091 -0.0182
 6998SOL    HW124399  10.435   9.465   2.587 -2.1455 -3.2970 -0.0295
 6998SOL    HW224400  10.314   9.555   2.579  0.2939 -0.0433 -1.2114
 6999SOL     OW24401   9.323   3.832   8.146 -0.0409 -0.2893 -0.1558
 6999SOL    HW124402   9.379   3.754   8.140 -1.9658 -1.6858 -0.3813
 6999SOL    HW224403   9.368   3.888   8.210  1.2588 -1.6694  0.1777
 7000SOL     OW24404   2.456   5.667   1.910 -0.4125  0.0580  0.2157
 7000SOL    HW124405   2.406   5.586   1.897 -0.2723 -0.0605  0.4218
 7000SOL    HW224406   2.398   5.723   1.961 -1.4006  0.9361 -1.7911
 7001SOL     OW24407   8.778   3.899   3.796  0.7382  0.2645  0.1801
 7001SOL    HW124408   8.691   3.890   3.758  0.0808  0.3873  1.6007
 7001SOL    HW224409   8.834   3.929   3.724  0.0983 -2.0346 -1.3037
 7002SOL     OW24410   7.055   9.859   5.697  0.0271 -0.2035  0.1780
 7002SOL    HW124411   7.080   9.901   5.779 -0.4377 -0.1251  0.2857
 7002SOL    HW224412   7.132   9.868   5.641  0.2286  0.0458  0.4886
 7003SOL     OW24413   7.931   9.760   2.592 -0.1386  0.1627  0.1495
 7003SOL    HW124414   8.004   9.710   2.556 -1.7503 -1.5262 -0.8826
 7003SOL    HW224415   7.921   9.833   2.531  0.0191 -0.1911 -0.3072
 7004SOL     OW24416   3.501   5.543   7.418 -0.4482  0.0335 -0.3628
 7004SOL    HW124417   3.542   5.629   7.428 -0.7012  0.1264 -0.1229
 7004SOL    HW224418   3.493   5.532   7.323  0.1830 -0.0125 -0.4168
 7005SOL     OW24419   8.910   3.072   5.018 -0.0017  0.0252  0.2584
 7005SOL    HW124420   8.922   2.986   4.977  0.6634 -0.3555  1.2271
 7005SOL    HW224421   8.940   3.134   4.952 -0.2604 -0.4985 -0.3606
 7006SOL     OW24422   1.094   6.770   7.516 -0.4040 -0.3733  0.5064
 7006SOL    HW124423   1.134   6.856   7.508 -0.4874 -0.4721 -1.2670
 7006SOL    HW224424   1.166   6.708   7.505 -0.9498 -0.5506 -2.7295
 7007SOL     OW24425   3.152   4.649   4.095 -0.6063 -0.0120  0.3901
 7007SOL    HW124426   3.202   4.622   4.173 -1.5998  0.0003  1.0344
 7007SOL    HW224427   3.135   4.742   4.109  1.5207  0.6386 -1.1237
 7008SOL     OW24428   0.589   9.913   4.117  0.2384 -0.4325 -0.0651
 7008SOL    HW124429   0.576   9.922   4.212  0.3334 -1.8881  0.0950
 7008SOL    HW224430   0.684   9.901   4.107  0.5312  2.0240 -0.5554
 7009SOL     OW24431   1.170   1.956   8.570 -0.0398 -0.0783 -0.4567
 7009SOL    HW124432   1.213   2.030   8.612  0.0165 -0.2445 -0.2187
 7009SOL    HW224433   1.230   1.882   8.585 -1.8955 -1.0476  2.7113
 7010SOL     OW24434   9.570   5.011   6.334 -0.0034 -0.0076  0.3512
 7010SOL    HW124435   9.484   4.971   6.317 -0.3715  0.8136  0.2437
 7010SOL    HW224436   9.585   5.068   6.258  0.4884  0.0984  0.5310
 7011SOL     OW24437   9.898   4.557  10.561  0.4537  0.0142  0.1348
 7011SOL    HW124438   9.838   4.513  10.500 -0.6673 -0.5081  1.6028
 7011SOL    HW224439   9.969   4.493  10.573  0.8089  0.2153 -0.7823
 7012SOL     OW24440   3.148   0.776   2.868 -0.1436  0.1617 -0.1628
 7012SOL    HW124441   3.208   0.712   2.906  1.0388  0.6455 -1.1455
 7012SOL    HW224442   3.152   0.760   2.774 -0.7705  0.8680 -0.3153
 7013SOL     OW24443   6.747   3.420   1.861  0.1527 -0.2975 -0.1667
 7013SOL    HW124444   6.653   3.424   1.844  0.0203 -0.7544  0.4654
 7013SOL    HW224445   6.781   3.363   1.792 -0.0506 -0.2505 -0.3076
 7014SOL     OW24446   1.433   4.179   6.096  0.3064  0.2284 -0.7395
 7014SOL    HW124447   1.472   4.143   6.017  0.0726  0.7939 -1.1156
 7014SOL    HW224448   1.507   4.191   6.157  0.6777  0.9875 -1.3280
 7015SOL     OW24449   3.511   3.202   7.132  0.5080 -0.9815 -0.0796
 7015SOL    HW124450   3.425   3.177   7.097  1.0744 -2.8204 -0.2537
 7015SOL    HW224451   3.505   3.184   7.226  0.7720 -1.3535 -0.1315
 7016SOL     OW24452   9.445   2.173   0.759 -0.3527  0.3830 -0.2759
 7016SOL    HW124453   9.434   2.214   0.845  2.1729  1.0877 -0.2586
 7016SOL    HW224454   9.453   2.079   0.778 -0.6969  0.4394  0.1558
 7017SOL     OW24455   2.468   6.088   7.228 -0.1605 -0.4096 -0.1325
 7017SOL    HW124456   2.385   6.046   7.251 -0.0480 -0.4417  0.2177
 7017SOL    HW224457   2.467   6.171   7.274 -0.0889 -0.3191 -0.2936
 7018SOL     OW24458   8.535   9.219   2.211 -0.4502  0.0845  0.2134
 7018SOL    HW124459   8.460   9.200   2.154 -0.2934  1.5934 -0.5284
 7018SOL    HW224460   8.553   9.136   2.255 -0.8907 -0.9865 -1.5630
 7019SOL     OW24461   2.599   4.640   4.557  0.0321  0.5039  0.0598
 7019SOL    HW124462   2.660   4.569   4.576 -0.1163  0.4576  0.3724
 7019SOL    HW224463   2.637   4.716   4.600  0.5022  0.7482 -0.7865
 7020SOL     OW24464  10.288   1.140   3.829  0.4711  0.0302 -0.1326
 7020SOL    HW124465  10.347   1.116   3.900  1.0580 -0.1630 -0.6788
 7020SOL    HW224466  10.344   1.185   3.766 -0.1851  0.8310 -0.1456
 7021SOL     OW24467   9.510   6.787   0.790 -0.3285 -0.4105  0.0612
 7021SOL    HW124468   9.418   6.785   0.762  0.1547  0.2145 -1.6399
 7021SOL    HW224469   9.518   6.868   0.840  0.1379  1.4793 -2.9406
 7022SOL     OW24470   5.633   9.013   0.778 -0.2058  0.3168 -0.7226
 7022SOL    HW124471   5.652   8.924   0.748  0.0254 -0.3498  1.3417
 7022SOL    HW224472   5.564   9.002   0.843  0.5562  1.5377  0.3146
 7023SOL     OW24473   8.376   5.823   0.986 -0.0408  0.3697  0.1407
 7023SOL    HW124474   8.421   5.844   0.904 -0.8948  0.5714 -0.2889
 7023SOL    HW224475   8.302   5.769   0.959 -1.8930  2.6399  0.4421
 7024SOL     OW24476   6.024   7.159   5.919  0.1209  0.7472 -0.1839
 7024SOL    HW124477   6.115   7.138   5.900  0.7421  2.0744  1.2768
 7024SOL    HW224478   6.021   7.254   5.924 -1.3027  0.7115 -0.0075
 7025SOL     OW24479   0.639   2.977   1.535  0.3278 -0.1189  0.3828
 7025SOL    HW124480   0.621   3.066   1.503  0.0526 -0.6488 -0.9792
 7025SOL    HW224481   0.733   2.975   1.551  0.3636  0.3723  0.2329
 7026SOL     OW24482   8.420   3.224   0.937  0.3885  0.4155 -0.0861
 7026SOL    HW124483   8.461   3.311   0.939 -1.9482  1.5389  0.8728
 7026SOL    HW224484   8.435   3.193   0.848  1.5091  1.6733 -0.3566
 7027SOL     OW24485   6.382   0.156   2.495  0.6619  0.7578  0.5218
 7027SOL    HW124486   6.411   0.104   2.420 -1.0594  0.0057  0.3513
 7027SOL    HW224487   6.393   0.247   2.467 -2.6219  0.5298 -1.7667
 7028SOL     OW24488   9.726   8.122   9.954 -0.2867 -0.4877  0.0244
 7028SOL    HW124489   9.813   8.087   9.933  0.1171  1.2619 -1.2956
 7028SOL    HW224490   9.718   8.110  10.049  0.8396 -1.8734 -0.0315
 7029SOL     OW24491   8.917   5.890   7.619 -0.4529  0.0061  0.2276
 7029SOL    HW124492   8.907   5.985   7.611  1.0654  0.0903 -0.8187
 7029SOL    HW224493   8.965   5.864   7.540 -1.0734 -1.6775  0.3735
 7030SOL     OW24494   4.870   6.596   8.420  0.6628 -0.5485  0.4593
 7030SOL    HW124495   4.908   6.661   8.480  0.9741 -1.2074  0.9815
 7030SOL    HW224496   4.935   6.527   8.415  0.1662 -0.9958  0.1994
 7031SOL     OW24497   8.774   7.065   2.631  0.2949 -0.3772  0.6520
 7031SOL    HW124498   8.695   7.017   2.653 -0.0548 -0.3902 -0.6269
 7031SOL    HW224499   8.745   7.136   2.575  1.0684  0.1798  0.9379
 7032SOL     OW24500   4.088  10.623   1.399 -0.8781  0.8197  0.0643
 7032SOL    HW124501   4.045  10.594   1.479 -1.5339 -0.0164 -0.5758
 7032SOL    HW224502   4.180  10.599   1.410 -1.0658  0.2384  0.3464
 7033SOL     OW24503   6.880  10.233   9.348  0.0316 -0.4417 -0.0084
 7033SOL    HW124504   6.943  10.202   9.412  0.3391 -0.3644 -0.2762
 7033SOL    HW224505   6.911  10.199   9.264  0.5330  0.8327 -0.3481
 7034SOL     OW24506   2.981   3.094   6.977 -0.0424  0.0060  0.9961
 7034SOL    HW124507   3.022   3.179   6.961  1.7974 -1.0810 -0.2322
 7034SOL    HW224508   2.901   3.096   6.925  0.5481  0.5694  0.0987
 7035SOL     OW24509   0.809   8.162   0.970 -0.6446 -0.4979  0.0819
 7035SOL    HW124510   0.747   8.091   0.987 -1.8071  0.0949 -1.5162
 7035SOL    HW224511   0.788   8.191   0.881  0.6401  1.0286  0.2518
 7036SOL     OW24512   8.477   5.992   7.209 -0.4080  0.0617 -0.1135
 7036SOL    HW124513   8.562   5.947   7.212  0.1985  1.2561  0.7615
 7036SOL    HW224514   8.416   5.928   7.246  0.5240  0.0763  1.5387
 7037SOL     OW24515  10.596  10.938   9.607  0.3869 -0.3692  0.1881
 7037SOL    HW124516  10.570  11.016   9.656 -1.1974 -0.4967 -0.4469
 7037SOL    HW224517  10.531  10.872   9.630  0.5308 -0.8919 -0.8963
 7038SOL     OW24518  10.496   3.317   4.607  0.3143  0.2079 -0.2673
 7038SOL    HW124519  10.490   3.257   4.533 -1.6146  0.2828 -0.1865
 7038SOL    HW224520  10.548   3.270   4.672  0.2184 -0.7119 -0.8534
 7039SOL     OW24521   2.468   3.863   9.350  0.1505 -0.6177 -0.2716
 7039SOL    HW124522   2.510   3.948   9.335 -0.3788 -0.0154  1.5749
 7039SOL    HW224523   2.414   3.849   9.272  1.0223  0.2572 -1.0512
 7040SOL     OW24524   4.483   7.104   6.987 -0.2395  0.4401 -0.3717
 7040SOL    HW124525   4.435   7.171   6.938 -1.6997 -0.3699 -0.0811
 7040SOL    HW224526   4.512   7.042   6.920  1.4351  1.5381 -0.6837
 7041SOL     OW24527   3.602   3.195   6.620 -0.4711  0.3268  0.2855
 7041SOL    HW124528   3.651   3.222   6.698 -0.7504  1.1911  0.1646
 7041SOL    HW224529   3.518   3.240   6.628 -1.2083 -1.0630  0.4340
 7042SOL     OW24530   8.990   0.920   6.280  0.0051 -0.3278  0.3376
 7042SOL    HW124531   8.895   0.924   6.272  0.0186 -1.1530 -0.2831
 7042SOL    HW224532   9.009   0.953   6.368 -0.6472  2.5657 -0.5638
 7043SOL     OW24533   8.027   1.741   9.319 -0.1097 -0.1909  0.0360
 7043SOL    HW124534   8.030   1.653   9.357 -2.0576  0.0724  0.8265
 7043SOL    HW224535   8.035   1.800   9.393 -1.6147  0.3080 -0.1840
 7044SOL     OW24536   1.935  10.168  10.739 -0.1501  0.1770  0.2781
 7044SOL    HW124537   1.851  10.205  10.764  0.1114  1.7180 -1.0331
 7044SOL    HW224538   1.990  10.178  10.817 -1.3100 -1.2944  1.2952
 7045SOL     OW24539   1.436   8.026   0.364  0.5334  0.2553 -0.0350
 7045SOL    HW124540   1.500   8.068   0.423  0.7294  1.0760 -0.8231
 7045SOL    HW224541   1.483   8.016   0.281  0.0807 -0.4063 -0.2151
 7046SOL     OW24542  10.500  10.916   0.884  0.6806 -0.3181  0.0527
 7046SOL    HW124543  10.414  10.917   0.843  0.4884 -0.2853  0.4561
 7046SOL    HW224544  10.540  10.834   0.855  0.0224 -0.9420  0.8725
 7047SOL     OW24545  10.893  10.614   0.272  0.0745  0.0536 -0.1506
 7047SOL    HW124546  10.888  10.600   0.177  2.3897 -0.7464 -0.1773
 7047SOL    HW224547  10.855  10.701   0.285 -0.3592  0.1391 -1.8032
 7048SOL     OW24548   5.600   9.681  10.022  0.1003 -0.1658  0.4625
 7048SOL    HW124549   5.634   9.765  10.051  0.5881 -0.3233  0.3473
 7048SOL    HW224550   5.677   9.629  10.002 -0.1899 -0.8025  0.9833
 7049SOL     OW24551   0.540   6.321   1.000  0.6017  0.1504 -0.0599
 7049SOL    HW124552   0.540   6.353   0.909 -0.2026 -0.8055 -0.4021
 7049SOL    HW224553   0.453   6.341   1.032  0.9773  0.7388  0.6075
 7050SOL     OW24554   9.983   0.613   4.166 -0.5802 -0.1911  0.5372
 7050SOL    HW124555   9.993   0.646   4.255  0.7253 -1.3027  0.8178
 7050SOL    HW224556   9.916   0.545   4.173  0.0644 -0.7887  0.7912
 7051SOL     OW24557   3.465   4.209   2.836 -0.1025  0.1082 -0.0712
 7051SOL    HW124558   3.461   4.298   2.872  0.6615 -0.0147  0.3333
 7051SOL    HW224559   3.531   4.214   2.767 -0.0823 -0.1303 -0.0706
 7052SOL     OW24560  10.611  10.936  10.725 -0.2153 -0.5361 -0.1292
 7052SOL    HW124561  10.518  10.927  10.706 -0.5221  1.2946  0.4138
 7052SOL    HW224562  10.622  11.029  10.746  1.6807 -0.7927  0.0594
 7053SOL     OW24563   1.493   2.549   5.886  0.6393  0.6408 -0.2785
 7053SOL    HW124564   1.423   2.521   5.827  0.1028 -0.3114  0.8060
 7053SOL    HW224565   1.520   2.634   5.851 -0.9847  0.9802 -0.7569
 7054SOL     OW24566   5.479   1.169  10.188  0.2987 -0.0684  0.8243
 7054SOL    HW124567   5.551   1.231  10.190 -0.5835  1.0418 -0.7351
 7054SOL    HW224568   5.405   1.215  10.227 -0.0153 -0.5887  0.8580
 7055SOL     OW24569   1.182   3.949   6.344  0.1742 -0.0131 -0.5134
 7055SOL    HW124570   1.091   3.923   6.328  0.0031 -2.7798  4.0282
 7055SOL    HW224571   1.175   4.036   6.383 -0.6834 -0.8704  1.2903
 7056SOL     OW24572   0.353   4.783   7.778 -0.8309 -0.1185  0.0529
 7056SOL    HW124573   0.284   4.723   7.750 -0.0570 -0.8880 -0.2521
 7056SOL    HW224574   0.330   4.806   7.868 -1.9177  0.2727 -0.3213
 7057SOL     OW24575   1.262   6.237   3.774  0.2984 -0.0896  0.2436
 7057SOL    HW124576   1.315   6.303   3.819 -0.2375 -0.3478  1.2610
 7057SOL    HW224577   1.230   6.180   3.844 -0.7007 -0.3811 -0.4440
 7058SOL     OW24578   0.558   5.861   8.245  0.3857  0.1496  0.8417
 7058SOL    HW124579   0.478   5.887   8.291  0.0473  3.3119 -1.3241
 7058SOL    HW224580   0.629   5.887   8.303 -0.1063  0.5570  1.2654
 7059SOL     OW24581   5.806   3.187   6.380 -0.1516  0.6429  0.3577
 7059SOL    HW124582   5.895   3.151   6.389 -0.0477  1.2754  1.9455
 7059SOL    HW224583   5.775   3.198   6.470 -1.7714  0.6290 -0.1827
 7060SOL     OW24584   4.067   7.547  10.381 -0.0892 -0.1243  0.2246
 7060SOL    HW124585   3.985   7.579  10.418  1.6397  5.2224 -0.1198
 7060SOL    HW224586   4.067   7.579  10.291  2.3758  0.0078  0.2281
 7061SOL     OW24587   0.074   4.519   8.658 -0.4874 -0.1708  0.2102
 7061SOL    HW124588   0.160   4.533   8.697  0.2302  0.5894 -1.5866
 7061SOL    HW224589   0.033   4.453   8.713  1.1082 -0.2970  1.2823
 7062SOL     OW24590   1.834   0.092   2.820 -0.2456  0.4359  0.1144
 7062SOL    HW124591   1.867   0.082   2.731  1.3789  1.0160  0.6348
 7062SOL    HW224592   1.769   0.022   2.830 -0.9529  0.8077 -1.7432
 7063SOL     OW24593  10.779   5.595   1.029  0.2070  0.2235 -0.1383
 7063SOL    HW124594  10.695   5.551   1.043  0.4624 -0.1614  0.1959
 7063SOL    HW224595  10.845   5.526   1.042  0.6171  0.7566  0.6446
 7064SOL     OW24596   8.445   1.128   6.085 -0.0826  0.0669  0.1420
 7064SOL    HW124597   8.425   1.143   5.992  1.5615 -1.1855 -0.4327
 7064SOL    HW224598   8.527   1.174   6.099  0.3275 -0.8159  0.6511
 7065SOL     OW24599  10.828   0.680   1.490 -0.2213 -0.4033  0.5107
 7065SOL    HW124600  10.792   0.594   1.466 -0.5684 -0.0006 -0.4399
 7065SOL    HW224601  10.752   0.729   1.523 -0.5784  0.4274 -1.4408
 7066SOL     OW24602   7.240   6.479   2.457 -0.0003 -0.6335 -0.2716
 7066SOL    HW124603   7.248   6.462   2.551 -0.5742 -2.9506 -0.6142
 7066SOL    HW224604   7.152   6.517   2.447  1.2933  2.7737  0.4977
 7067SOL     OW24605   1.965   3.462   7.503 -0.2581  0.5753  0.2577
 7067SOL    HW124606   2.018   3.439   7.426 -1.1430  0.6827 -0.3865
 7067SOL    HW224607   2.030   3.484   7.570  0.5146  1.3604 -0.7231
 7068SOL     OW24608  10.693  10.882   5.244  0.4085  0.6093 -0.1615
 7068SOL    HW124609  10.666  10.804   5.196 -2.7181  1.8355 -0.5566
 7068SOL    HW224610  10.640  10.880   5.324  1.1833  1.6797  0.3813
 7069SOL     OW24611   5.130   0.234   9.078 -0.3298  0.3334  0.2273
 7069SOL    HW124612   5.195   0.188   9.026 -0.0620  1.0458 -0.0842
 7069SOL    HW224613   5.054   0.241   9.021 -0.3457  0.3298  0.2491
 7070SOL     OW24614   6.852  10.434  10.567 -0.3808  0.4697  0.4088
 7070SOL    HW124615   6.922  10.369  10.579 -1.1815 -0.3101  0.8809
 7070SOL    HW224616   6.835  10.466  10.656 -2.1128 -0.9138  0.6060
 7071SOL     OW24617   7.267   9.586   4.258  0.0005 -0.1967 -0.2030
 7071SOL    HW124618   7.359   9.575   4.232 -0.2222  0.1260 -1.1702
 7071SOL    HW224619   7.221   9.519   4.208 -0.1334 -1.2241  1.2739
 7072SOL     OW24620   6.461   3.837   6.884 -0.1910 -0.2092  0.6016
 7072SOL    HW124621   6.528   3.819   6.818  0.5866  0.8823  1.0815
 7072SOL    HW224622   6.461   3.759   6.940 -1.4341 -1.5052 -1.1497
 7073SOL     OW24623   2.120   0.980   7.215  0.5756  0.4142  0.7844
 7073SOL    HW124624   2.042   0.974   7.270 -1.5377  2.2654 -1.8836
 7073SOL    HW224625   2.137   1.074   7.208  1.5620  0.1445 -0.6700
 7074SOL     OW24626   1.579   8.141   0.614 -0.4264  0.0827 -0.5225
 7074SOL    HW124627   1.578   8.225   0.569  2.4813  0.5946  0.2560
 7074SOL    HW224628   1.652   8.093   0.574  1.4887  0.1164  2.7538
 7075SOL     OW24629   1.897   1.315   2.049  0.1230  0.5571 -0.5640
 7075SOL    HW124630   1.986   1.349   2.055  0.1943  0.1558  0.6861
 7075SOL    HW224631   1.867   1.309   2.140 -1.2358  0.8425 -0.9745
 7076SOL     OW24632   7.593   4.261   2.402  0.1902  0.1471  0.1505
 7076SOL    HW124633   7.677   4.242   2.443  1.2504  3.8804 -0.1616
 7076SOL    HW224634   7.596   4.214   2.318  1.1114 -1.3071  0.9605
 7077SOL     OW24635   3.815   7.335   1.796 -0.0967 -0.3849  0.1918
 7077SOL    HW124636   3.837   7.295   1.880  0.8927 -1.1962 -0.4578
 7077SOL    HW224637   3.757   7.272   1.754 -0.1725 -0.2108  0.0352
 7078SOL     OW24638   8.574  10.620   0.169  0.0757 -0.2727 -0.5910
 7078SOL    HW124639   8.624  10.576   0.237  0.6964 -0.3667 -1.0928
 7078SOL    HW224640   8.513  10.554   0.136 -1.5347  0.3241  1.1490
 7079SOL     OW24641   3.063   1.428  10.102  0.3723 -0.0483 -0.5214
 7079SOL    HW124642   2.970   1.412  10.089  0.1133  2.1652 -1.4667
 7079SOL    HW224643   3.102   1.413  10.016  0.7256  0.1691 -0.3990
 7080SOL     OW24644   8.517   3.098   2.757 -0.1107 -0.1421  0.4345
 7080SOL    HW124645   8.424   3.081   2.743 -0.2330 -0.1436  1.2347
 7080SOL    HW224646   8.556   3.089   2.670 -0.7613 -0.7468  0.1998
 7081SOL     OW24647   4.069   3.541   1.890 -0.9258  0.4013  0.3958
 7081SOL    HW124648   4.135   3.510   1.828 -0.4149  0.2712  0.9993
 7081SOL    HW224649   4.112   3.538   1.975 -1.6453  0.5084  0.7730
 7082SOL     OW24650   4.739   8.477   7.563  0.0452 -0.2504 -0.3718
 7082SOL    HW124651   4.657   8.477   7.613  0.0896 -0.8378 -0.2861
 7082SOL    HW224652   4.723   8.535   7.489 -0.5150 -0.5123 -0.4552
 7083SOL     OW24653   3.040   6.461   6.640  0.4973 -0.6729 -0.1731
 7083SOL    HW124654   2.959   6.505   6.613  1.1807  0.6385 -0.0955
 7083SOL    HW224655   3.110   6.509   6.597  1.1436 -3.0810 -1.9286
 7084SOL     OW24656   6.656   9.522   0.330  0.5907 -0.4232 -0.2616
 7084SOL    HW124657   6.608   9.444   0.356 -0.1481  0.5411  1.3714
 7084SOL    HW224658   6.730   9.526   0.390  0.2429  0.4937  0.1248
 7085SOL     OW24659   6.163   3.461  10.030  0.2276  0.2625 -0.0753
 7085SOL    HW124660   6.075   3.498  10.031 -0.3274 -1.0025  0.4424
 7085SOL    HW224661   6.178   3.436   9.939 -0.7065 -1.2127  0.1616
 7086SOL     OW24662   0.687   6.146   1.800 -0.3857 -1.1452 -0.3097
 7086SOL    HW124663   0.623   6.087   1.760 -0.5171 -0.5117 -1.0367
 7086SOL    HW224664   0.761   6.146   1.740  0.0232 -1.3497  0.1943
 7087SOL     OW24665   1.977   6.048   9.652  0.0777  0.4128  0.5845
 7087SOL    HW124666   1.899   6.065   9.600 -0.7799  1.3136  2.1413
 7087SOL    HW224667   1.960   5.965   9.696  0.9362 -0.5136 -0.7637
 7088SOL     OW24668   1.889   1.997   7.554 -0.5624 -0.4782 -0.0861
 7088SOL    HW124669   1.948   1.991   7.478 -1.7517  0.4866 -1.1107
 7088SOL    HW224670   1.932   2.059   7.612 -0.7064  0.4525 -0.9598
 7089SOL     OW24671   6.209   7.119   6.939 -0.2799 -0.4059 -0.0359
 7089SOL    HW124672   6.278   7.053   6.932 -0.3292 -0.5828  1.1047
 7089SOL    HW224673   6.199   7.134   7.033 -1.1810  0.2707 -0.2319
 7090SOL     OW24674   0.777   8.199   3.410 -0.3861  0.0402  0.2844
 7090SOL    HW124675   0.759   8.128   3.472  1.3886 -0.5724  0.1326
 7090SOL    HW224676   0.857   8.240   3.443  0.1612  0.1802 -1.1785
 7091SOL     OW24677   4.970   1.809   5.838 -0.5912  0.3034  0.6595
 7091SOL    HW124678   4.973   1.828   5.744 -0.6774  0.0834  0.6115
 7091SOL    HW224679   4.930   1.887   5.877  0.0448  0.6634  0.5876
 7092SOL     OW24680   5.887   8.968   5.079  0.0913  0.2132  0.2561
 7092SOL    HW124681   5.936   8.980   4.998  0.4925  0.4504  0.5287
 7092SOL    HW224682   5.882   9.056   5.117 -0.3696  0.1542  0.3315
 7093SOL     OW24683   5.727   0.751   3.828  0.1869  0.7216 -0.2237
 7093SOL    HW124684   5.780   0.696   3.770  1.6464  1.1943  0.6178
 7093SOL    HW224685   5.641   0.755   3.786  1.2941  1.3005 -2.5357
 7094SOL     OW24686   1.361   9.211   0.984 -0.3936 -0.0303 -0.1080
 7094SOL    HW124687   1.315   9.141   1.029  0.5964  0.2941  1.4573
 7094SOL    HW224688   1.299   9.284   0.984 -0.8349 -0.4012 -0.3369
 7095SOL     OW24689   8.003   0.520   1.204  0.7304  0.6720 -0.2832
 7095SOL    HW124690   8.031   0.520   1.113  0.0478 -0.7510 -0.5022
 7095SOL    HW224691   7.940   0.592   1.211 -0.3183 -0.1454 -1.2762
 7096SOL     OW24692   9.283   0.713   0.463 -0.1399  0.0802  0.1223
 7096SOL    HW124693   9.229   0.740   0.538 -1.3143 -0.4770 -0.5079
 7096SOL    HW224694   9.343   0.786   0.450 -2.0306  1.5973 -0.3844
 7097SOL     OW24695   8.413   8.516   9.272 -0.1867  0.5028 -1.0757
 7097SOL    HW124696   8.482   8.578   9.294 -1.4681  0.9934  1.7760
 7097SOL    HW224697   8.444   8.432   9.306 -1.0782  0.7736  0.4398
 7098SOL     OW24698   1.362   8.731  10.563  0.8626 -0.0601 -0.0307
 7098SOL    HW124699   1.304   8.662  10.594  0.4625  0.5141  0.5103
 7098SOL    HW224700   1.304   8.804  10.543  1.1110 -0.4106 -2.1276
 7099SOL     OW24701   3.442   3.002   3.120 -0.1262 -0.2839  0.6892
 7099SOL    HW124702   3.465   3.060   3.047 -0.6254 -1.3194 -0.3103
 7099SOL    HW224703   3.354   2.971   3.100 -1.2601  1.3119  2.9907
 7100SOL     OW24704   8.028   4.889   7.402 -0.1410  0.5304 -0.1683
 7100SOL    HW124705   8.097   4.943   7.364 -0.9126  1.6263 -0.0373
 7100SOL    HW224706   8.041   4.802   7.364  1.9312  0.4541  0.6317
 7101SOL     OW24707   8.949   6.109   7.235 -0.0231 -0.1402  0.0533
 7101SOL    HW124708   8.939   6.147   7.148 -0.5785  0.1635  0.2453
 7101SOL    HW224709   8.900   6.168   7.292  1.0906  0.1560  0.7008
 7102SOL     OW24710   8.164   1.295   3.586  1.0459  0.0770 -0.3732
 7102SOL    HW124711   8.112   1.374   3.571  0.0835 -0.2511  1.0892
 7102SOL    HW224712   8.225   1.291   3.512 -0.2317  1.1005 -1.4977
 7103SOL     OW24713   6.058   8.360  10.903  0.3399 -0.0969  0.0975
 7103SOL    HW124714   6.053   8.389  10.811 -0.1855 -1.5553 -0.3460
 7103SOL    HW224715   6.142   8.393  10.934  0.5003  0.4534 -0.8973
 7104SOL     OW24716   0.476   8.902   3.252  0.5247 -0.8132 -0.7533
 7104SOL    HW124717   0.547   8.864   3.304  1.0395  0.8273 -0.2222
 7104SOL    HW224718   0.484   8.860   3.166  1.7087 -1.1493 -0.4911
 7105SOL     OW24719   8.194   5.108   7.468  1.1830 -0.7902  0.5327
 7105SOL    HW124720   8.199   5.106   7.563  0.8101 -1.3783  0.5452
 7105SOL    HW224721   8.219   5.197   7.444  2.2772 -0.9214  1.1230
 7106SOL     OW24722   3.040   1.324   2.129  0.0251 -0.2533 -0.2075
 7106SOL    HW124723   3.117   1.378   2.148 -0.6718  0.4694  0.6279
 7106SOL    HW224724   2.994   1.317   2.213 -0.5804 -1.0583 -0.5986
 7107SOL     OW24725   3.244   2.706   0.402 -0.0962  0.2261 -0.3229
 7107SOL    HW124726   3.330   2.663   0.403 -0.6282 -0.8301  0.0390
 7107SOL    HW224727   3.222   2.716   0.495 -0.0554  1.1420 -0.4032
 7108SOL     OW24728   8.938   5.556   7.335 -0.2573  0.4906  0.1582
 7108SOL    HW124729   9.032   5.555   7.318 -0.1594  2.8842  0.3979
 7108SOL    HW224730   8.932   5.567   7.430 -0.8034 -1.6583  0.3975
 7109SOL     OW24731   7.084   6.580   6.745 -0.3482 -0.2394 -0.4291
 7109SOL    HW124732   7.100   6.653   6.805 -1.5525 -1.0598  0.9497
 7109SOL    HW224733   7.143   6.511   6.776 -0.2231 -0.3236 -0.8540
 7110SOL     OW24734   1.960  10.667   6.640 -0.1417 -0.0201 -0.1176
 7110SOL    HW124735   1.993  10.583   6.608 -0.5629 -0.1260 -0.2711
 7110SOL    HW224736   1.910  10.703   6.567 -1.0296 -0.2213  0.3898
 7111SOL     OW24737   1.431   7.884   2.487 -0.0026  0.1795 -0.1178
 7111SOL    HW124738   1.371   7.877   2.413  0.8023 -0.1775 -0.7378
 7111SOL    HW224739   1.444   7.794   2.516 -0.7672  0.3603  0.8323
 7112SOL     OW24740   6.264   8.341   6.005  0.5027  0.2226  0.2180
 7112SOL    HW124741   6.256   8.279   5.932  0.8288  1.1036 -0.5741
 7112SOL    HW224742   6.301   8.420   5.966 -2.1779  1.8011  0.7273
 7113SOL     OW24743  10.851   4.877   7.776  0.0368 -0.1979 -0.2314
 7113SOL    HW124744  10.888   4.936   7.842  2.7565 -0.7755 -1.1802
 7113SOL    HW224745  10.857   4.790   7.815 -2.6061 -0.0561  0.5709
 7114SOL     OW24746   3.043   7.315   2.572 -0.2087  0.0738 -0.2270
 7114SOL    HW124747   3.066   7.222   2.577  2.3418  0.6722 -0.2052
 7114SOL    HW224748   2.956   7.320   2.611  0.4726 -2.0089  1.6793
 7115SOL     OW24749   1.817   6.485   6.034  0.2198 -0.1112 -0.5186
 7115SOL    HW124750   1.781   6.456   6.117  1.2736 -0.3323 -0.1327
 7115SOL    HW224751   1.840   6.577   6.048  1.4939 -0.4724 -0.1907
 7116SOL     OW24752   1.909   9.607   4.437  0.1217  0.2209 -0.0038
 7116SOL    HW124753   1.938   9.585   4.348 -1.7973  0.2117 -0.6468
 7116SOL    HW224754   1.918   9.703   4.441  0.6735  0.1726 -0.0385
 7117SOL     OW24755   3.144   3.848   1.642  0.4868  0.3027 -0.3966
 7117SOL    HW124756   3.073   3.907   1.619  1.2666  1.6591  0.6043
 7117SOL    HW224757   3.205   3.853   1.568 -0.4061 -0.7931 -1.2145
 7118SOL     OW24758   1.763   3.386   4.488 -0.1410  0.0763 -0.9985
 7118SOL    HW124759   1.763   3.389   4.392  0.5947 -0.7216 -1.0333
 7118SOL    HW224760   1.839   3.439   4.513 -0.1662  0.0475 -0.8657
 7119SOL     OW24761   8.076   7.427   3.001  0.3057 -0.1829  0.8617
 7119SOL    HW124762   8.002   7.402   3.057  0.0886  0.7552  0.9994
 7119SOL    HW224763   8.141   7.358   3.017 -1.2374 -2.0739 -0.7019
 7120SOL     OW24764   6.402   6.224   2.269  0.3168  0.2747 -0.3279
 7120SOL    HW124765   6.481   6.259   2.311  0.4564 -0.1275 -0.2512
 7120SOL    HW224766   6.333   6.234   2.334  0.2696  0.7788 -0.4561
 7121SOL     OW24767   2.445   4.354  10.725  0.1336  0.4389 -0.7876
 7121SOL    HW124768   2.357   4.320  10.710 -0.2812  1.7382 -1.3636
 7121SOL    HW224769   2.478   4.304  10.800 -1.9130  1.4201  0.8101
 7122SOL     OW24770   3.630  10.074   0.287 -0.0234 -0.7906  0.0659
 7122SOL    HW124771   3.671  10.160   0.289  0.8806 -1.2012 -0.3192
 7122SOL    HW224772   3.687  10.022   0.230 -0.3670 -1.7402  0.5782
 7123SOL     OW24773   7.404   5.881   9.668  0.1404 -0.3919 -0.4603
 7123SOL    HW124774   7.369   5.887   9.579  1.7344 -1.8263 -1.1956
 7123SOL    HW224775   7.368   5.800   9.703 -2.0411  1.1031  0.9425
 7124SOL     OW24776   2.756   5.384   8.110 -0.2059 -0.2573 -0.3150
 7124SOL    HW124777   2.824   5.446   8.136 -0.1845 -0.5583  0.3504
 7124SOL    HW224778   2.799   5.298   8.114  0.3596 -0.1476 -3.2082
 7125SOL     OW24779   0.971   7.053   8.265  0.2243  0.2237 -0.7175
 7125SOL    HW124780   1.004   7.000   8.192 -1.3877  1.4465 -2.3842
 7125SOL    HW224781   0.881   7.074   8.241 -0.9531 -0.8346  2.4931
 7126SOL     OW24782   8.386   0.043   6.077  0.0294  0.0913 -0.3157
 7126SOL    HW124783   8.352  -0.028   6.132 -0.7035  0.9977  0.4109
 7126SOL    HW224784   8.435   0.099   6.137  0.7396  0.1296 -0.9180
 7127SOL     OW24785   7.713   0.571   9.941  0.2720  0.1928  0.3250
 7127SOL    HW124786   7.663   0.505   9.893 -0.9360  1.0721  0.3245
 7127SOL    HW224787   7.657   0.649   9.938  0.1729  0.2688  3.1597
 7128SOL     OW24788   6.569   3.313   6.587  0.0713  0.3098  0.2316
 7128SOL    HW124789   6.661   3.335   6.577  0.3445 -0.7182  0.5287
 7128SOL    HW224790   6.524   3.370   6.524  0.8850  0.9149  0.1969
 7129SOL     OW24791   8.370   0.262   1.750  0.2767 -0.4310 -0.4308
 7129SOL    HW124792   8.462   0.288   1.755 -0.1322  0.6759  2.1030
 7129SOL    HW224793   8.322   0.344   1.738 -0.5381 -0.7608  0.5007
 7130SOL     OW24794   2.976   2.180   3.339 -0.3660 -0.2868 -0.0224
 7130SOL    HW124795   2.884   2.196   3.363 -0.2926 -1.7764  1.3752
 7130SOL    HW224796   2.988   2.087   3.356  0.4633 -0.8559 -3.5059
 7131SOL     OW24797   6.606   7.580   5.195  0.1421 -0.2113  0.0934
 7131SOL    HW124798   6.590   7.485   5.192  2.3668 -0.5828 -0.9222
 7131SOL    HW224799   6.592   7.609   5.105 -0.0979  0.3480  0.3117
 7132SOL     OW24800   7.062  10.781   3.356  0.0377  0.3116  0.5677
 7132SOL    HW124801   7.147  10.780   3.312 -1.1248  2.6173 -1.8786
 7132SOL    HW224802   7.014  10.708   3.317  0.8225 -0.9292  1.8793
 7133SOL     OW24803  10.531   5.208   9.760 -0.0423  0.3986  0.2329
 7133SOL    HW124804  10.608   5.161   9.728 -1.1593 -2.1099  1.1472
 7133SOL    HW224805  10.528   5.287   9.706  3.5462  0.8966  0.6255
 7134SOL     OW24806   9.758   7.343   8.735 -0.8687  0.1007  0.0767
 7134SOL    HW124807   9.811   7.316   8.810  1.2256  1.9172 -0.7356
 7134SOL    HW224808   9.708   7.264   8.712  0.9436 -1.4342  1.2821
 7135SOL     OW24809   1.880   2.784   3.963  0.0415  0.7316  0.5906
 7135SOL    HW124810   1.970   2.816   3.958  0.0934  0.6010  0.6909
 7135SOL    HW224811   1.878   2.728   4.040 -0.1031  0.6614  0.5374
 7136SOL     OW24812   9.023   8.588   8.780  0.0313 -0.0389 -0.6062
 7136SOL    HW124813   9.004   8.610   8.871  1.0156  0.0805 -0.4257
 7136SOL    HW224814   8.981   8.657   8.729  0.2472  0.3950 -0.1992
 7137SOL     OW24815   6.517   9.062   1.259 -0.4199 -0.5052  0.7995
 7137SOL    HW124816   6.454   9.097   1.196  0.9387 -1.5898 -1.2312
 7137SOL    HW224817   6.475   8.985   1.297 -0.7888 -0.5147  0.3692
 7138SOL     OW24818   2.616   1.474   8.669  0.3862 -0.6656  0.4120
 7138SOL    HW124819   2.651   1.408   8.728 -1.4766 -1.2939  0.8769
 7138SOL    HW224820   2.553   1.426   8.615  1.0393  0.1897 -1.1305
 7139SOL     OW24821   9.544   4.059   6.976 -0.0746  0.6343 -0.0767
 7139SOL    HW124822   9.474   4.005   7.012 -0.2636  1.0079  0.1198
 7139SOL    HW224823   9.543   4.039   6.882  0.2747 -0.1719  0.0949
 7140SOL     OW24824  10.086  10.201   5.249 -0.0108  0.0892  0.3413
 7140SOL    HW124825  10.116  10.159   5.168  0.2973  0.7638  0.1034
 7140SOL    HW224826  10.000  10.237   5.228  0.8915  1.9700 -0.2867
 7141SOL     OW24827   5.404   5.544   4.675  0.0636 -0.3044  0.1520
 7141SOL    HW124828   5.460   5.608   4.631  0.0205 -0.4622 -0.1369
 7141SOL    HW224829   5.415   5.464   4.624  0.1821 -0.5508  0.5643
 7142SOL     OW24830   1.184   2.463  10.656 -0.1029  0.2521  0.4266
 7142SOL    HW124831   1.185   2.549  10.615  1.8153  0.6454  1.2482
 7142SOL    HW224832   1.208   2.403  10.585  2.0187  0.7972  0.6541
 7143SOL     OW24833   1.737   2.904   9.502 -0.7442  0.5171 -0.0485
 7143SOL    HW124834   1.818   2.956   9.507 -0.2172 -0.4386  1.7118
 7143SOL    HW224835   1.733   2.876   9.410  0.4711  1.2992 -0.3611
 7144SOL     OW24836  10.227   3.740   5.102  0.3945 -0.6175 -0.0905
 7144SOL    HW124837  10.265   3.689   5.173  0.7951 -1.4983 -0.9252
 7144SOL    HW224838  10.138   3.761   5.132  0.1449 -2.0099  0.1734
 7145SOL     OW24839   0.162   5.346  10.810 -0.6471 -0.1418  0.1346
 7145SOL    HW124840   0.112   5.384  10.883 -0.4597 -0.8254  0.6231
 7145SOL    HW224841   0.219   5.417  10.781 -0.0812 -0.1254  1.2427
 7146SOL     OW24842  10.859   8.965  10.222 -0.4372 -0.0910 -0.2160
 7146SOL    HW124843  10.886   8.973  10.313  1.2142 -0.5533 -0.6557
 7146SOL    HW224844  10.837   9.054  10.195  1.7159  0.4616 -0.1672
 7147SOL     OW24845   3.272   2.007   9.943  0.2561  0.1289 -0.2867
 7147SOL    HW124846   3.347   2.059   9.913  1.1562 -1.2658 -0.5567
 7147SOL    HW224847   3.203   2.024   9.879  0.5905  0.8545 -0.4585
 7148SOL     OW24848   7.596   0.828   1.628 -0.0807 -0.0302 -0.2345
 7148SOL    HW124849   7.594   0.740   1.665  1.3828  0.4942  1.1118
 7148SOL    HW224850   7.559   0.884   1.696  1.3232  0.7433 -0.0900
 7149SOL     OW24851   1.795   1.074   4.147 -0.6218 -0.3361  0.4312
 7149SOL    HW124852   1.784   1.169   4.155  1.9450 -0.0363  0.5760
 7149SOL    HW224853   1.764   1.039   4.231 -0.7965  0.4382  0.6940
 7150SOL     OW24854   4.914   6.229   7.232  0.4959  0.8993 -0.2126
 7150SOL    HW124855   4.848   6.295   7.209 -0.2866 -0.5989 -2.3504
 7150SOL    HW224856   4.928   6.180   7.152  2.1578 -0.6195  0.9858
 7151SOL     OW24857   7.236   5.393   1.319 -0.8498  0.9749 -0.4043
 7151SOL    HW124858   7.192   5.391   1.234 -1.4490  0.8954 -0.1008
 7151SOL    HW224859   7.294   5.318   1.319  0.6469  2.1144 -1.5235
 7152SOL     OW24860   2.349   3.883  10.192 -0.5287  0.1020  0.0876
 7152SOL    HW124861   2.392   3.823  10.253  0.7345  0.9427  0.0533
 7152SOL    HW224862   2.335   3.963  10.242  0.6266  0.8427 -0.7443
 7153SOL     OW24863   1.437   8.633   9.126  0.1675 -0.4887 -0.6057
 7153SOL    HW124864   1.513   8.692   9.118 -0.5381  0.3745 -0.9719
 7153SOL    HW224865   1.373   8.667   9.065 -0.7197 -0.9206  0.0717
 7154SOL     OW24866   9.964   1.150   2.912  0.3234 -0.1498 -0.1076
 7154SOL    HW124867  10.057   1.133   2.903  0.4586  0.5671 -0.1028
 7154SOL    HW224868   9.945   1.217   2.846  0.6987  2.8743  2.7091
 7155SOL     OW24869   0.761  10.344   0.363  0.1097  0.6679  0.0580
 7155SOL    HW124870   0.762  10.415   0.299  1.7859  0.2053 -0.4680
 7155SOL    HW224871   0.767  10.389   0.448 -1.7711  1.2663 -0.1053
 7156SOL     OW24872  10.756   5.634   8.128  0.0404 -0.4789 -0.4146
 7156SOL    HW124873  10.761   5.720   8.085 -0.2699 -0.6245 -0.7502
 7156SOL    HW224874  10.667   5.632   8.164 -0.2036 -0.9531 -1.0343
 7157SOL     OW24875   6.212  10.241   1.270 -0.1811  0.3185 -0.9608
 7157SOL    HW124876   6.138  10.267   1.215 -0.6153  1.1991  0.0295
 7157SOL    HW224877   6.243  10.323   1.309  0.7654 -0.1621 -0.6873
 7158SOL     OW24878   7.601   4.694   3.732 -0.2306 -0.3956 -0.1804
 7158SOL    HW124879   7.678   4.724   3.781 -0.4616 -1.5532  0.8969
 7158SOL    HW224880   7.637   4.662   3.649  0.3331  0.1290 -0.1385
 7159SOL     OW24881   6.523   9.421   7.233 -0.7968  0.3394 -0.3518
 7159SOL    HW124882   6.458   9.485   7.261 -0.8099  0.5129 -0.7690
 7159SOL    HW224883   6.590   9.473   7.189 -2.0842 -0.1662 -3.0540
 7160SOL     OW24884  10.724   9.411   5.214 -0.2010 -0.1665 -0.2445
 7160SOL    HW124885  10.710   9.353   5.289  1.5231 -3.4242 -2.3377
 7160SOL    HW224886  10.639   9.452   5.200 -1.4060 -1.9638  1.4848
 7161SOL     OW24887   6.976   0.847   9.854 -0.1424 -0.6220 -0.3572
 7161SOL    HW124888   6.920   0.884   9.922 -1.0889 -2.0955 -0.3113
 7161SOL    HW224889   7.064   0.847   9.892  0.0105  2.1262 -0.6009
 7162SOL     OW24890   1.628   6.322   5.909  0.3156  0.1981 -0.4232
 7162SOL    HW124891   1.556   6.369   5.952  0.5257  1.1155 -1.0528
 7162SOL    HW224892   1.699   6.386   5.906  0.9319 -0.4862 -0.4199
 7163SOL     OW24893   6.186   3.733   8.787  0.4455 -0.2929 -0.4182
 7163SOL    HW124894   6.239   3.790   8.730  0.2192 -1.3768 -1.7264
 7163SOL    HW224895   6.221   3.749   8.874  1.6722  0.4279 -1.0191
 7164SOL     OW24896   7.919   1.981   3.228  0.2156  0.1087  0.0927
 7164SOL    HW124897   7.994   1.983   3.288  0.8696  3.2605 -0.7597
 7164SOL    HW224898   7.857   2.043   3.264 -0.6588 -0.1689 -0.9086
 7165SOL     OW24899   5.158   2.555   2.590 -0.3570  0.5681 -0.2753
 7165SOL    HW124900   5.079   2.508   2.617  0.0636  0.5035  0.9042
 7165SOL    HW224901   5.126   2.629   2.539 -1.2258  1.0380  0.9298
 7166SOL     OW24902   2.888   5.092   8.972 -0.1890 -0.2818 -0.5302
 7166SOL    HW124903   2.831   5.168   8.986 -0.5337 -0.6223 -0.1184
 7166SOL    HW224904   2.888   5.046   9.055 -2.7305 -2.6442 -1.7710
 7167SOL     OW24905   3.328   7.375   2.771 -0.3905  0.5201 -0.7824
 7167SOL    HW124906   3.320   7.290   2.814  1.6728  0.9229  0.4548
 7167SOL    HW224907   3.315   7.356   2.678 -0.0996 -1.1223 -0.5126
 7168SOL     OW24908   3.173   9.705   2.932  0.3431  0.1618  0.1665
 7168SOL    HW124909   3.164   9.795   2.963  0.5682  0.2850 -0.1220
 7168SOL    HW224910   3.250   9.706   2.875 -1.2609  0.4167 -2.0763
 7169SOL     OW24911   8.479   6.452   4.841 -0.1678 -0.4206 -0.6181
 7169SOL    HW124912   8.400   6.412   4.878 -0.0672 -0.1519 -0.0985
 7169SOL    HW224913   8.446   6.512   4.774 -0.3416 -1.0786 -1.1213
 7170SOL     OW24914   2.496   0.556   7.444 -0.2260 -0.2232  0.0638
 7170SOL    HW124915   2.468   0.519   7.528 -0.6250 -0.5366 -0.2047
 7170SOL    HW224916   2.572   0.610   7.465 -1.1338  0.7760  0.8298
 7171SOL     OW24917   0.601   5.883   0.515  0.5431  0.2013  0.4911
 7171SOL    HW124918   0.647   5.903   0.596  1.6319  1.1322 -0.3402
 7171SOL    HW224919   0.670   5.853   0.455  0.1784  1.9986 -0.8972
 7172SOL     OW24920   7.892   5.291   9.854  0.4797  0.5495 -0.9344
 7172SOL    HW124921   7.842   5.368   9.878  0.3656  0.1735  0.0571
 7172SOL    HW224922   7.907   5.300   9.760 -0.9934  0.9240 -1.1409
 7173SOL     OW24923   9.868   5.909   2.764  0.6017  0.3646 -0.1177
 7173SOL    HW124924   9.804   5.857   2.812 -0.3085 -0.1178 -1.7878
 7173SOL    HW224925   9.924   5.844   2.721 -1.1830  0.6680 -3.0660
 7174SOL     OW24926   8.874  10.466   8.344  0.0988  0.4828 -0.2205
 7174SOL    HW124927   8.864  10.558   8.319 -1.4321  0.2724 -0.4069
 7174SOL    HW224928   8.796  10.447   8.396  1.5867 -0.0535  1.8620
 7175SOL     OW24929   9.626   6.467   6.782  0.0451 -0.8269  0.3205
 7175SOL    HW124930   9.637   6.467   6.877 -0.2992 -0.3360  0.3662
 7175SOL    HW224931   9.691   6.405   6.750  1.3468  0.2810  0.7532
 7176SOL     OW24932   0.558   3.212   8.168 -0.2142 -0.0262  0.3334
 7176SOL    HW124933   0.470   3.215   8.133  0.5629 -2.5525 -1.9555
 7176SOL    HW224934   0.569   3.297   8.211 -3.5225  0.5453  0.1936
 7177SOL     OW24935   2.543   7.007   9.123 -0.1795  0.3168 -0.5427
 7177SOL    HW124936   2.594   7.087   9.106 -1.0466  1.2151  0.9729
 7177SOL    HW224937   2.493   6.993   9.042 -1.0142  2.0761 -0.3616
 7178SOL     OW24938   9.346   4.161   9.008  0.0950  0.2654  0.7794
 7178SOL    HW124939   9.367   4.187   8.918  0.0961 -2.1352  0.0533
 7178SOL    HW224940   9.250   4.155   9.009  0.1444 -0.6585  0.6371
 7179SOL     OW24941   8.879   9.597   6.067  0.6292 -0.1811  0.0947
 7179SOL    HW124942   8.888   9.639   6.153 -1.8349  0.7811 -0.0598
 7179SOL    HW224943   8.892   9.504   6.084 -0.9324 -0.1368  1.7585
 7180SOL     OW24944  10.952   7.983   7.659  0.4976 -0.4110  0.0810
 7180SOL    HW124945  10.935   7.889   7.664 -2.2672  0.0604  0.2965
 7180SOL    HW224946  11.010   8.001   7.733 -0.4518 -1.6293  1.1246
 7181SOL     OW24947   0.215   6.538   0.348  0.1523 -0.0190 -0.2720
 7181SOL    HW124948   0.188   6.454   0.312 -1.3687  1.0917 -1.8327
 7181SOL    HW224949   0.257   6.583   0.274 -1.0456  1.4320 -0.0935
 7182SOL     OW24950   8.426   6.093   9.442  0.2478  0.2440  0.5555
 7182SOL    HW124951   8.331   6.091   9.430  0.2678  2.2147 -0.1652
 7182SOL    HW224952   8.445   6.016   9.496 -1.5766 -0.9521 -0.4426
 7183SOL     OW24953  10.202   1.150   9.427 -0.0641 -0.1216  0.0583
 7183SOL    HW124954  10.181   1.079   9.489  0.7790 -0.8293 -0.4523
 7183SOL    HW224955  10.284   1.186   9.460  0.4473 -0.5726 -0.6953
 7184SOL     OW24956   5.836   8.411   2.710 -0.2575 -0.4277  0.2095
 7184SOL    HW124957   5.904   8.469   2.744  1.5031 -0.9370 -2.2911
 7184SOL    HW224958   5.870   8.323   2.722 -0.8193 -0.7217 -0.2915
 7185SOL     OW24959   9.532   0.205   1.534  0.3798  0.7219 -0.9117
 7185SOL    HW124960   9.548   0.136   1.598  1.2991  0.6575 -1.1959
 7185SOL    HW224961   9.612   0.208   1.482 -0.7256  0.1314 -2.6746
 7186SOL     OW24962   8.330   0.615   6.035 -0.6043 -0.1700  0.3352
 7186SOL    HW124963   8.319   0.589   6.127 -2.2546  0.2806  0.2787
 7186SOL    HW224964   8.265   0.563   5.988 -1.7631  1.7245 -0.1919
 7187SOL     OW24965   2.629  10.605   5.912  0.0280  0.1274  0.3338
 7187SOL    HW124966   2.643  10.659   5.990 -0.7777 -2.4248  2.3072
 7187SOL    HW224967   2.628  10.515   5.945 -1.7991 -0.9213 -2.4098
 7188SOL     OW24968   3.657   4.364   0.175 -0.2292  0.1670 -0.3345
 7188SOL    HW124969   3.720   4.391   0.109 -0.4042 -1.9129 -1.3921
 7188SOL    HW224970   3.576   4.409   0.151 -0.2924 -0.5847 -1.5388
 7189SOL     OW24971   5.114   3.814   4.742 -0.1615  0.0834  0.0714
 7189SOL    HW124972   5.158   3.818   4.827  0.1747 -2.8060  0.0894
 7189SOL    HW224973   5.025   3.784   4.763 -0.6512  1.1600 -0.4346
 7190SOL     OW24974  10.969   6.307   1.522  0.3864 -0.2950 -0.4109
 7190SOL    HW124975  10.877   6.332   1.515  0.6686  0.6326 -0.7340
 7190SOL    HW224976  10.966   6.214   1.547 -0.6772  0.4915  2.6201
 7191SOL     OW24977   7.367   8.020   5.106  0.2747 -0.4300  0.2329
 7191SOL    HW124978   7.302   8.088   5.125  2.5009  1.7910  0.1088
 7191SOL    HW224979   7.436   8.066   5.058  1.9129 -2.7489  0.3229
 7192SOL     OW24980   0.103   6.254   2.757 -0.3323 -0.9867  0.3079
 7192SOL    HW124981   0.199   6.247   2.755 -0.2035  0.7376 -1.6268
 7192SOL    HW224982   0.085   6.323   2.820 -0.2515 -0.8194  0.1506
 7193SOL     OW24983   0.942   6.793   7.038  0.4690  0.1158  0.4290
 7193SOL    HW124984   0.935   6.736   6.962  1.4448 -0.4237  0.7419
 7193SOL    HW224985   0.864   6.849   7.033 -1.5289 -2.5071  1.1935
 7194SOL     OW24986   2.075   8.141   5.483 -0.0631  0.0213  0.5189
 7194SOL    HW124987   2.139   8.200   5.524 -1.8829  1.9771  0.5838
 7194SOL    HW224988   2.001   8.140   5.543 -1.7451  0.9204 -1.4896
 7195SOL     OW24989  10.189   2.664   3.947  0.1761 -0.2453  0.9329
 7195SOL    HW124990  10.280   2.669   3.918  0.6799  3.0706  2.8489
 7195SOL    HW224991  10.194   2.677   4.042 -2.4215  1.6832  0.8358
 7196SOL     OW24992   9.809   6.630  10.617  0.1997 -0.6563 -0.1624
 7196SOL    HW124993   9.779   6.563  10.554 -0.7575 -1.4279  1.0970
 7196SOL    HW224994   9.902   6.611  10.628 -0.2744 -2.4285  0.9437
 7197SOL     OW24995  10.255   8.755   1.783 -0.0915  0.0683 -0.0251
 7197SOL    HW124996  10.210   8.690   1.839  0.4821 -0.1697  0.1637
 7197SOL    HW224997  10.191   8.826   1.773 -1.1415 -1.0060 -1.1224
 7198SOL     OW24998   4.941   2.631  10.657  0.2977 -0.3745 -0.5863
 7198SOL    HW124999   4.973   2.721  10.664  1.6876 -0.8020 -1.2229
 7198SOL    HW225000   4.847   2.640  10.642  0.4426  0.9720 -0.7920
 7199SOL     OW25001   8.141   5.591   1.689 -0.2696 -0.0210  0.1795
 7199SOL    HW125002   8.191   5.560   1.765 -0.3553 -0.2322  0.1475
 7199SOL    HW225003   8.050   5.570   1.710 -0.3806  0.6258  0.3673
 7200SOL     OW25004   2.315   7.408   7.700  0.4453 -0.3527  0.0220
 7200SOL    HW125005   2.363   7.394   7.619  1.5117  1.6514  0.2761
 7200SOL    HW225006   2.342   7.336   7.757 -0.2122 -1.6893 -1.3408
 7201SOL     OW25007   5.410  10.969   0.670 -0.2414  0.3484  0.1802
 7201SOL    HW125008   5.503  10.988   0.657 -0.3936  0.9902  0.0387
 7201SOL    HW225009   5.397  10.975   0.765 -0.0617 -0.1058  0.2364
 7202SOL     OW25010   3.812   7.637  10.004 -0.2319  0.3359  0.2290
 7202SOL    HW125011   3.731   7.645   9.954  0.1234 -1.5927 -0.6975
 7202SOL    HW225012   3.787   7.591  10.084 -0.2780  0.9068  0.5477
 7203SOL     OW25013   6.987   0.842   6.671  0.2083 -0.2767 -0.2572
 7203SOL    HW125014   6.918   0.780   6.648  0.6645 -0.9396  0.1683
 7203SOL    HW225015   7.065   0.810   6.627  0.7433 -0.7382  1.0020
 7204SOL     OW25016   7.539   2.364   9.325  0.6394  0.2773  0.7568
 7204SOL    HW125017   7.458   2.313   9.328  1.8883 -1.8395 -0.4370
 7204SOL    HW225018   7.601   2.315   9.378  2.1657 -0.0544 -1.2387
 7205SOL     OW25019  10.476   1.516   8.106  0.1782 -0.1354  0.6010
 7205SOL    HW125020  10.468   1.525   8.011  0.9001 -0.2156  0.5269
 7205SOL    HW225021  10.569   1.496   8.120 -0.2917 -1.9022  1.1956
 7206SOL     OW25022   2.062   7.138   4.152  0.1460 -0.4464  0.1251
 7206SOL    HW125023   2.107   7.073   4.206 -0.2755 -0.1537  0.8325
 7206SOL    HW225024   2.129   7.203   4.132  0.1733 -0.2951  0.7177
 7207SOL     OW25025   2.720   3.188   8.228 -0.0495  0.7894  0.0304
 7207SOL    HW125026   2.778   3.256   8.195  0.3811  0.8173  0.8409
 7207SOL    HW225027   2.746   3.176   8.320 -2.3879  1.9703  0.8973
 7208SOL     OW25028   7.437   9.678   2.588 -0.1762 -0.3333  0.1788
 7208SOL    HW125029   7.486   9.670   2.670  0.5379  2.2246  0.0687
 7208SOL    HW225030   7.481   9.749   2.541 -1.7068 -0.5192 -1.6134
 7209SOL     OW25031   4.695   3.854   8.139  0.1629 -0.1708 -0.2086
 7209SOL    HW125032   4.643   3.775   8.157 -0.3573 -0.5036 -2.9769
 7209SOL    HW225033   4.782   3.820   8.119  0.8931  0.2357  2.1239
 7210SOL     OW25034   2.812   5.093  10.682 -0.2416  0.0687 -0.4142
 7210SOL    HW125035   2.855   5.108  10.598  2.2402 -0.5318  0.7217
 7210SOL    HW225036   2.794   4.999  10.684  0.8645 -0.1442  0.2337
 7211SOL     OW25037   1.962   4.756   0.831 -0.5607 -0.3923  0.2344
 7211SOL    HW125038   1.949   4.731   0.739  0.7629 -0.5888  0.0870
 7211SOL    HW225039   1.953   4.851   0.831  1.9238 -0.1224 -0.5660
 7212SOL     OW25040   5.979   4.730  10.816 -0.4247 -0.3001  0.2674
 7212SOL    HW125041   5.947   4.812  10.854 -0.1711  0.8684 -1.9652
 7212SOL    HW225042   5.935   4.723  10.731  1.8428 -0.9276 -0.8943
 7213SOL     OW25043   2.850   5.226   9.532  0.5670  0.4220  0.1692
 7213SOL    HW125044   2.777   5.220   9.471  0.6132 -1.3008  0.2758
 7213SOL    HW225045   2.926   5.196   9.482  1.0588  1.3651  0.3301
 7214SOL     OW25046  10.044   9.282  10.933 -0.1821 -0.5492  0.1391
 7214SOL    HW125047  10.132   9.319  10.932 -0.7856  1.0511 -3.2711
 7214SOL    HW225048  10.055   9.192  10.963  2.3401  0.1911  1.5149
 7215SOL     OW25049   5.697   6.333   5.267  0.1983 -0.4160  0.2939
 7215SOL    HW125050   5.687   6.249   5.223 -0.9354  0.1568 -0.5796
 7215SOL    HW225051   5.759   6.316   5.338  0.7844 -1.7334 -0.5212
 7216SOL     OW25052   8.321   2.015   7.276  0.0179 -0.3928  0.2370
 7216SOL    HW125053   8.225   2.014   7.268  0.0773  0.8715 -0.8703
 7216SOL    HW225054   8.337   2.047   7.365 -0.5831 -2.6203  1.1812
 7217SOL     OW25055   6.583   7.592   7.697 -0.4490  0.4115 -0.5505
 7217SOL    HW125056   6.649   7.631   7.754 -1.4568 -0.6334  1.3782
 7217SOL    HW225057   6.522   7.664   7.678  0.0048  0.8123 -0.4958
 7218SOL     OW25058   4.355   7.558  10.946  0.4380 -0.3814  0.3567
 7218SOL    HW125059   4.429   7.618  10.937  0.0443  0.1416  0.6360
 7218SOL    HW225060   4.292   7.589  10.881 -0.2787  0.2655  1.3575
 7219SOL     OW25061  10.241   5.429   8.442 -0.6132  0.1730 -0.5062
 7219SOL    HW125062  10.152   5.441   8.409 -0.4915  1.1728 -0.5140
 7219SOL    HW225063  10.231   5.377   8.521 -1.2373  0.5101 -0.3598
 7220SOL     OW25064  10.815   7.506   4.888 -0.4920 -0.4162  0.5360
 7220SOL    HW125065  10.749   7.510   4.957 -1.3448  0.9114 -0.3411
 7220SOL    HW225066  10.897   7.530   4.931 -0.7921 -0.8435  1.3571
 7221SOL     OW25067   6.205   0.780   3.244  0.4102 -0.3461  0.3965
 7221SOL    HW125068   6.195   0.857   3.299  0.3325  0.1585 -0.3231
 7221SOL    HW225069   6.118   0.765   3.207  0.1530 -1.4427  1.3999
 7222SOL     OW25070   3.260   1.615   3.792 -0.0011  0.5014  0.1968
 7222SOL    HW125071   3.256   1.645   3.883  0.2717 -0.8654  0.6621
 7222SOL    HW225072   3.304   1.686   3.746 -0.7573  1.5118  0.9925
 7223SOL     OW25073   1.958   1.103   2.539  0.1369  0.0094 -0.1205
 7223SOL    HW125074   1.918   1.177   2.585  0.5091  0.2979 -0.2615
 7223SOL    HW225075   1.922   1.025   2.583  0.2057  0.2804  0.4166
 7224SOL     OW25076   3.572   5.794   3.024 -0.4369  0.2984 -0.0337
 7224SOL    HW125077   3.510   5.861   3.052 -2.2659 -0.7217 -1.5802
 7224SOL    HW225078   3.658   5.834   3.038 -1.4679  2.5206  0.1252
 7225SOL     OW25079  10.710  10.357   7.323  0.0560 -0.0315  0.0910
 7225SOL    HW125080  10.667  10.370   7.238  1.9085 -2.2420 -1.2467
 7225SOL    HW225081  10.710  10.262   7.335  2.3284  0.0868  1.2348
 7226SOL     OW25082   5.100   7.341   1.690  1.0610 -0.0420 -0.0393
 7226SOL    HW125083   5.140   7.421   1.655  0.0194 -0.2750 -1.7887
 7226SOL    HW225084   5.137   7.271   1.636  0.8664 -0.5937  0.5486
 7227SOL     OW25085   0.153   8.827   3.871 -0.2315 -0.4223 -0.2736
 7227SOL    HW125086   0.147   8.914   3.913  2.3474 -0.6747  0.7179
 7227SOL    HW225087   0.111   8.768   3.933 -0.8179 -0.0754 -0.3370
 7228SOL     OW25088   0.238   4.389   6.312 -0.3146  0.5775  0.8918
 7228SOL    HW125089   0.258   4.305   6.353  0.9737  1.9612  3.1702
 7228SOL    HW225090   0.164   4.423   6.361 -0.7361  0.8523  0.0711
 7229SOL     OW25091   1.301   1.374   9.619 -0.0694 -0.0257  0.0247
 7229SOL    HW125092   1.354   1.294   9.625 -0.6897 -0.4647 -0.2516
 7229SOL    HW225093   1.265   1.371   9.530 -0.3457  0.4067  0.1239
 7230SOL     OW25094   4.262  10.843   0.151 -0.2029 -0.6439  0.1514
 7230SOL    HW125095   4.172  10.812   0.147 -0.8641  1.1394  0.4115
 7230SOL    HW225096   4.287  10.856   0.059 -0.7867  0.3705  0.1216
 7231SOL     OW25097   5.850   7.017   9.989 -0.2971 -0.0568 -0.0318
 7231SOL    HW125098   5.890   6.969  10.062  0.1593  0.2297 -0.0877
 7231SOL    HW225099   5.885   6.974   9.911 -0.7449 -0.3293 -0.0803
 7232SOL     OW25100   9.107   7.785   1.286 -0.1542 -0.1943  0.0938
 7232SOL    HW125101   9.030   7.740   1.321 -0.0185  0.6258  1.4694
 7232SOL    HW225102   9.131   7.848   1.354  0.7054  0.7451 -1.0603
 7233SOL     OW25103   5.282  10.309   0.815  0.3414  0.0422  0.2025
 7233SOL    HW125104   5.330  10.378   0.768  1.3671  0.6767  2.1255
 7233SOL    HW225105   5.194  10.310   0.776  0.1950  2.7529  0.5065
 7234SOL     OW25106  10.011   8.167   7.681  0.7186 -0.4289  0.2694
 7234SOL    HW125107  10.040   8.081   7.649  2.4532  1.0032 -2.1012
 7234SOL    HW225108  10.091   8.217   7.694 -0.2888  0.9510  1.3733
 7235SOL     OW25109  10.739   2.181   4.460 -0.0587 -0.2204 -0.7343
 7235SOL    HW125110  10.758   2.125   4.385 -0.5958  0.3604 -1.3059
 7235SOL    HW225111  10.649   2.211   4.446 -0.4401 -0.7311  0.5414
 7236SOL     OW25112   9.019   7.042  10.629  0.4590  0.1573  0.7970
 7236SOL    HW125113   9.003   7.113  10.692  1.2907  1.3001 -0.2432
 7236SOL    HW225114   8.946   7.048  10.567  1.5440  1.3862 -0.4038
 7237SOL     OW25115   5.120   7.498   0.504 -0.0624  0.4635  0.2426
 7237SOL    HW125116   5.179   7.561   0.546 -0.3809 -0.1994  1.7385
 7237SOL    HW225117   5.177   7.427   0.476  0.1896  1.0350 -0.7230
 7238SOL     OW25118   7.402   7.859   8.361  0.1822 -0.4385 -0.6615
 7238SOL    HW125119   7.448   7.782   8.395  0.4322  0.2208  0.5187
 7238SOL    HW225120   7.309   7.835   8.366  0.1367  0.1342  1.7477
 7239SOL     OW25121  10.468  10.058   1.135 -0.0019  0.1211 -0.4837
 7239SOL    HW125122  10.447  10.029   1.047 -0.7904  0.8148 -0.5316
 7239SOL    HW225123  10.562  10.040   1.145 -0.4832 -2.4637 -0.4683
 7240SOL     OW25124   5.487   7.960   8.676 -0.2677  0.1699 -0.7579
 7240SOL    HW125125   5.487   8.027   8.608 -0.9921  0.0999 -0.8230
 7240SOL    HW225126   5.483   7.877   8.628  0.5373  0.0806 -0.6749
 7241SOL     OW25127   0.279   1.599   0.891  0.0506  0.1331 -0.2283
 7241SOL    HW125128   0.293   1.550   0.973  0.1180 -1.0368 -0.9268
 7241SOL    HW225129   0.294   1.535   0.822  1.3500  1.4430 -1.1999
 7242SOL     OW25130   7.920   8.230   4.588  0.6295  0.1193 -0.2004
 7242SOL    HW125131   7.850   8.198   4.646 -1.1260  2.8943 -0.6779
 7242SOL    HW225132   7.974   8.285   4.644  0.0809  1.1988 -0.7082
 7243SOL     OW25133   6.477   6.576   0.660 -0.2756  0.2081  0.1397
 7243SOL    HW125134   6.454   6.587   0.567 -3.2211 -0.6386  0.6975
 7243SOL    HW225135   6.496   6.664   0.690  0.7328  0.4946 -1.2785
 7244SOL     OW25136   1.597   2.563   0.291  0.6670  0.4489 -0.2432
 7244SOL    HW125137   1.540   2.526   0.359  0.3453 -0.3110 -0.9067
 7244SOL    HW225138   1.566   2.652   0.279 -1.9488 -0.6358 -2.2042
 7245SOL     OW25139   8.535   5.549   2.971  0.4347 -0.1972  0.2476
 7245SOL    HW125140   8.596   5.486   2.932  1.4465 -0.0123  1.4666
 7245SOL    HW225141   8.586   5.629   2.979 -0.2914  0.2523  0.3589
 7246SOL     OW25142   5.406   6.139   0.230 -0.0382 -0.2791 -0.0250
 7246SOL    HW125143   5.482   6.094   0.268 -0.0944 -2.1541 -2.0874
 7246SOL    HW225144   5.332   6.108   0.281  0.1462 -1.1809 -0.3028
 7247SOL     OW25145   7.640   2.440   0.347 -0.0021 -0.3181 -0.6617
 7247SOL    HW125146   7.650   2.471   0.437  2.0062  1.5597 -1.5051
 7247SOL    HW225147   7.625   2.519   0.296 -2.7163 -1.5237 -1.8013
 7248SOL     OW25148  10.518   0.034   0.052  0.0625  0.1611 -0.3371
 7248SOL    HW125149  10.537   0.121   0.018  3.6867 -1.0552 -1.6508
 7248SOL    HW225150  10.515  -0.022  -0.026 -3.1663 -0.7931  0.3964
 7249SOL     OW25151   5.330   9.252   7.165 -0.1553  0.4050  0.3481
 7249SOL    HW125152   5.365   9.164   7.150  0.4463  0.8141 -0.6971
 7249SOL    HW225153   5.239   9.238   7.191 -0.4134 -0.4554 -1.0114
 7250SOL     OW25154   9.488   4.515   4.048  0.0448 -0.2251 -0.4033
 7250SOL    HW125155   9.568   4.545   4.092 -0.0752 -0.0851 -0.2798
 7250SOL    HW225156   9.433   4.481   4.117 -1.4547  2.8714  0.0218
 7251SOL     OW25157   8.830   8.307   1.023 -0.1308 -0.0660 -0.1292
 7251SOL    HW125158   8.852   8.266   1.107  1.3032  0.8512 -0.0389
 7251SOL    HW225159   8.848   8.240   0.958  0.5223 -0.1710  0.1554
 7252SOL     OW25160  10.877   3.245   9.345 -0.5162 -0.7829  0.2000
 7252SOL    HW125161  10.858   3.211   9.258  1.7694 -1.2365 -0.1269
 7252SOL    HW225162  10.910   3.170   9.394 -0.5508 -0.2335  1.0865
 7253SOL     OW25163   3.708   2.571   4.869  0.1626  0.4638 -0.2187
 7253SOL    HW125164   3.692   2.485   4.829  1.5480  0.2582 -0.3503
 7253SOL    HW225165   3.639   2.627   4.834 -0.5735 -0.5240 -0.3675
 7254SOL     OW25166   0.133   8.679   7.896  0.1381  0.0704 -0.8838
 7254SOL    HW125167   0.189   8.675   7.973  0.5782 -0.9630 -1.2490
 7254SOL    HW225168   0.161   8.758   7.850 -1.3752  1.7307  0.9383
 7255SOL     OW25169   7.198  10.863   2.238  0.4089  0.1469  0.1142
 7255SOL    HW125170   7.130  10.797   2.228 -0.9266  1.4107  0.7137
 7255SOL    HW225171   7.221  10.888   2.149  0.1607 -0.3459 -0.0895
 7256SOL     OW25172   5.255   8.025   8.806 -0.0740 -0.2415  0.3034
 7256SOL    HW125173   5.202   7.951   8.777 -0.5860  0.7774 -1.4461
 7256SOL    HW225174   5.344   8.003   8.779 -0.1356 -0.4716  0.2957
 7257SOL     OW25175   9.914   6.107   4.872  0.1901  0.3876  0.1539
 7257SOL    HW125176   9.931   6.073   4.783  0.3568  0.7280  0.0568
 7257SOL    HW225177   9.819   6.113   4.877  0.1889  0.5857 -0.0831
 7258SOL     OW25178  10.698   4.082   3.876 -0.0348  0.3296 -0.5282
 7258SOL    HW125179  10.659   4.146   3.817  0.8685  2.1605  0.7934
 7258SOL    HW225180  10.624   4.038   3.917 -0.6725  0.4242 -1.5758
 7259SOL     OW25181   6.351   2.230   5.566  0.2379 -0.3738 -0.2368
 7259SOL    HW125182   6.355   2.134   5.564 -0.5647 -0.4051 -0.1930
 7259SOL    HW225183   6.258   2.250   5.566  0.3844  0.3792  1.1347
 7260SOL     OW25184   2.100   3.423   0.113  0.5875 -0.5541 -0.5067
 7260SOL    HW125185   2.160   3.386   0.048  0.9784 -0.5363 -0.1602
 7260SOL    HW225186   2.040   3.352   0.134  0.4841 -0.5721 -0.8552
 7261SOL     OW25187  10.365  10.138   9.778 -0.0895  0.1192 -0.2033
 7261SOL    HW125188  10.336  10.064   9.831  0.5799  0.4744  0.6661
 7261SOL    HW225189  10.383  10.100   9.692 -0.9057 -0.5081 -0.1048
 7262SOL     OW25190   1.779   8.875  10.532  0.7751  0.0977  0.5751
 7262SOL    HW125191   1.834   8.803  10.500 -0.9475 -0.8468 -0.3362
 7262SOL    HW225192   1.717   8.833  10.591 -1.7770  0.3847 -1.7704
 7263SOL     OW25193   0.758   6.944   7.321  0.3926  0.2443  0.2263
 7263SOL    HW125194   0.763   6.913   7.412  2.0265 -1.1029 -0.2920
 7263SOL    HW225195   0.843   6.986   7.305 -0.6397  2.2576 -0.0720
 7264SOL     OW25196   3.910   7.138   5.286 -0.3323  0.4882  0.0558
 7264SOL    HW125197   3.950   7.111   5.204 -0.4492 -0.9033  0.4465
 7264SOL    HW225198   3.816   7.126   5.272 -0.3633  0.4049  0.3272
 7265SOL     OW25199   2.491   5.040  10.230  0.3775 -0.0332  0.3037
 7265SOL    HW125200   2.463   5.074  10.145  2.5683 -0.2112 -0.5187
 7265SOL    HW225201   2.495   4.945  10.217  0.9185 -0.0433  0.5582
 7266SOL     OW25202   3.287   4.989   4.821  0.5798  0.2237 -0.0960
 7266SOL    HW125203   3.234   5.068   4.828  0.0743 -0.0766 -0.5316
 7266SOL    HW225204   3.233   4.928   4.772  1.7312  0.2671 -1.4425
 7267SOL     OW25205   4.087   1.518   9.854 -0.2420  0.8644  0.0692
 7267SOL    HW125206   4.142   1.508   9.932 -0.9532 -0.0969  0.4688
 7267SOL    HW225207   4.002   1.548   9.887 -0.6740  0.0686 -0.2688
 7268SOL     OW25208   3.556   9.152   3.631  0.5399 -0.1132 -0.3373
 7268SOL    HW125209   3.495   9.101   3.578 -0.3194 -0.0555  0.6042
 7268SOL    HW225210   3.638   9.148   3.582 -0.6287  1.2243 -2.4611
 7269SOL     OW25211   5.636   3.477   9.802  0.0561  0.7720 -0.6051
 7269SOL    HW125212   5.722   3.517   9.794  0.0665  0.7903 -0.4029
 7269SOL    HW225213   5.654   3.385   9.822  0.0294  0.8017 -0.4399
 7270SOL     OW25214   0.369  10.939   0.575 -0.7095 -0.5166 -0.0532
 7270SOL    HW125215   0.292  10.983   0.610 -0.3744 -0.2179  0.3104
 7270SOL    HW225216   0.439  10.961   0.636 -0.5524 -1.5914  0.1722
 7271SOL     OW25217  10.664   7.582   1.301  0.5227 -0.2719  0.6274
 7271SOL    HW125218  10.602   7.652   1.318  0.9814  0.5767 -1.0784
 7271SOL    HW225219  10.620   7.525   1.237  1.0457 -0.2774  0.2649
 7272SOL     OW25220   9.015  10.658   8.038 -0.4741  0.1052  0.2150
 7272SOL    HW125221   9.062  10.619   7.965 -0.1563 -1.9368  1.4824
 7272SOL    HW225222   9.073  10.728   8.069  1.0535 -1.3830  0.7920
 7273SOL     OW25223   0.537   5.400   6.559 -0.0872 -0.3481  0.0790
 7273SOL    HW125224   0.602   5.362   6.500 -2.0974 -1.0186 -1.7612
 7273SOL    HW225225   0.487   5.325   6.591 -1.9115  0.3944 -0.9434
 7274SOL     OW25226   0.996   8.333   7.806  0.3237 -0.0435  0.4803
 7274SOL    HW125227   0.929   8.296   7.749 -0.0974 -0.4853  1.2507
 7274SOL    HW225228   0.947   8.382   7.872  0.7562 -0.3583  1.0388
 7275SOL     OW25229   7.281   2.822   8.088  0.3202 -0.1053 -0.5528
 7275SOL    HW125230   7.325   2.907   8.089 -1.7555  1.0206 -0.6045
 7275SOL    HW225231   7.271   2.801   7.995  1.3096 -0.6721 -0.5341
 7276SOL     OW25232   5.264   4.874   2.767  0.6516  0.5267  0.1656
 7276SOL    HW125233   5.268   4.914   2.680 -1.1628 -2.2195 -1.2620
 7276SOL    HW225234   5.354   4.878   2.800  1.5866  0.6404 -2.3022
 7277SOL     OW25235   6.566   9.656   8.173  0.4961 -0.4440 -0.7279
 7277SOL    HW125236   6.503   9.728   8.171 -1.4213 -2.1262 -2.5664
 7277SOL    HW225237   6.649   9.697   8.150 -0.8114  0.9859 -3.1828
 7278SOL     OW25238   8.593   6.904   3.748 -0.3215  0.1737 -0.0913
 7278SOL    HW125239   8.624   6.995   3.754 -0.0773  0.1358 -0.6727
 7278SOL    HW225240   8.506   6.912   3.709 -0.6818  0.2167  0.7060
 7279SOL     OW25241   4.580   2.966   0.750 -0.4810 -1.1265 -0.3589
 7279SOL    HW125242   4.515   2.970   0.820 -0.8479 -0.9942 -0.7110
 7279SOL    HW225243   4.605   3.057   0.735 -1.0081 -1.0814 -0.9726
 7280SOL     OW25244   7.558   3.606   7.914 -0.3266  0.0781 -0.3919
 7280SOL    HW125245   7.601   3.689   7.935 -2.3411  1.0275  0.0321
 7280SOL    HW225246   7.527   3.572   7.998 -1.6902  0.1152 -0.8799
 7281SOL     OW25247   9.834   8.470   3.688 -0.2870  0.0820  0.2064
 7281SOL    HW125248   9.831   8.562   3.663 -0.5819 -0.3127 -1.2675
 7281SOL    HW225249   9.745   8.438   3.673 -0.1738 -0.4589  0.6645
 7282SOL     OW25250   3.757   8.088   5.879 -0.2871  0.1281  0.3262
 7282SOL    HW125251   3.706   8.066   5.802 -0.4337  0.7258  0.2502
 7282SOL    HW225252   3.693   8.103   5.948 -0.2562  1.5099  0.0690
 7283SOL     OW25253   5.809   0.018   9.711 -0.0527 -0.5111  0.4807
 7283SOL    HW125254   5.790  -0.031   9.791  1.0772 -0.6697  0.6723
 7283SOL    HW225255   5.899   0.048   9.723 -0.4636  0.9382  0.0152
 7284SOL     OW25256   5.466   9.713   2.787  0.1074 -0.1198 -0.2024
 7284SOL    HW125257   5.454   9.711   2.882 -0.0097 -1.0536 -0.2261
 7284SOL    HW225258   5.485   9.804   2.767  0.3067  0.0549  0.7439
 7285SOL     OW25259   9.643   5.892   5.694  0.5646 -0.1377  1.0993
 7285SOL    HW125260   9.657   5.900   5.789 -0.1252  1.0105  1.1175
 7285SOL    HW225261   9.576   5.824   5.686  0.1085  0.2506  1.4933
 7286SOL     OW25262   2.195   3.861   1.079  0.0624  0.7260 -0.1601
 7286SOL    HW125263   2.196   3.783   1.023  2.6420  1.7612 -1.6029
 7286SOL    HW225264   2.280   3.860   1.123 -0.3608  2.1239  0.7202
 7287SOL     OW25265   5.789   8.829   8.047 -0.2725  0.1055 -0.0698
 7287SOL    HW125266   5.731   8.857   7.977  0.2494  0.4860 -0.3581
 7287SOL    HW225267   5.833   8.909   8.076  1.1619 -0.3789 -0.8351
 7288SOL     OW25268   1.459   5.643   1.300  0.2362  0.2294  0.4445
 7288SOL    HW125269   1.417   5.572   1.251  0.1205  0.6413 -0.0546
 7288SOL    HW225270   1.406   5.720   1.279  3.0325  1.4136 -2.6751
 7289SOL     OW25271   5.550   2.439  10.205 -0.6044  0.6667 -0.8540
 7289SOL    HW125272   5.513   2.384  10.275  1.3044 -1.9034 -1.7915
 7289SOL    HW225273   5.553   2.527  10.242  2.5847 -1.0276  3.2476
 7290SOL     OW25274   9.863   3.983   4.661 -0.2299 -0.1775 -0.1491
 7290SOL    HW125275   9.875   4.077   4.675  1.3636 -0.3716 -0.1401
 7290SOL    HW225276   9.806   3.977   4.585  0.5154  0.7984 -0.8074
 7291SOL     OW25277   6.481  10.806   4.218  0.1219  0.0019  0.4954
 7291SOL    HW125278   6.414  10.741   4.242  0.1243 -0.1925 -0.0276
 7291SOL    HW225279   6.446  10.848   4.139  1.8890 -2.0081 -1.4059
 7292SOL     OW25280   1.044   9.476   5.208 -0.7085 -0.3798  0.3431
 7292SOL    HW125281   0.964   9.478   5.261 -1.8497 -1.7584 -1.2861
 7292SOL    HW225282   1.100   9.411   5.252 -0.9880 -0.3354  0.7658
 7293SOL     OW25283   4.145  10.811   5.276 -0.3520  0.0403  0.7265
 7293SOL    HW125284   4.226  10.766   5.255 -0.0740  0.1318  1.5894
 7293SOL    HW225285   4.164  10.858   5.357 -1.2402  0.1287  0.8867
 7294SOL     OW25286   9.899   6.573   8.384 -0.2332 -0.2846  0.1483
 7294SOL    HW125287   9.925   6.577   8.292  0.9972  1.8415  0.5492
 7294SOL    HW225288   9.810   6.537   8.383 -0.5724  0.5600 -1.9610
 7295SOL     OW25289   0.105   1.327   3.885 -0.3833 -0.2361 -0.4395
 7295SOL    HW125290   0.194   1.321   3.850 -0.0272  1.9594  0.0059
 7295SOL    HW225291   0.112   1.388   3.958 -2.3264  0.2208 -0.6102
 7296SOL     OW25292   5.032   2.396   4.483 -0.5071  0.5399  0.3423
 7296SOL    HW125293   5.089   2.329   4.519 -0.7865 -0.3956 -0.9078
 7296SOL    HW225294   5.029   2.465   4.550 -0.6713 -0.9418  1.8861
 7297SOL     OW25295   4.242   5.792   1.005  0.4321 -0.5328 -0.2648
 7297SOL    HW125296   4.324   5.812   0.961  0.4710 -0.7336 -0.2834
 7297SOL    HW225297   4.220   5.872   1.053 -0.5673  0.3705 -2.1420
 7298SOL     OW25298   2.324   2.766   8.981 -0.2061  0.7826 -0.0680
 7298SOL    HW125299   2.377   2.706   8.929  2.1796  2.1421  0.7352
 7298SOL    HW225300   2.272   2.815   8.917 -1.3592 -1.3445 -0.7826
 7299SOL     OW25301   1.395   1.114   6.096 -0.6500 -0.4664  0.0191
 7299SOL    HW125302   1.454   1.137   6.024 -0.0283 -0.4960  0.5177
 7299SOL    HW225303   1.348   1.037   6.065 -0.5759 -0.3204 -0.4604
 7300SOL     OW25304   7.556   4.215   8.121 -0.0862  0.0992 -0.4670
 7300SOL    HW125305   7.631   4.191   8.068  0.8463  0.5035  0.6544
 7300SOL    HW225306   7.480   4.188   8.069  0.7910  0.7345 -2.1141
 7301SOL     OW25307   3.216   5.832  10.793 -0.4821 -0.4695 -0.0456
 7301SOL    HW125308   3.269   5.860  10.718 -1.4722 -0.0390 -0.6029
 7301SOL    HW225309   3.259   5.752  10.823  0.2079 -0.3917 -0.7818
 7302SOL     OW25310  10.004   7.212   8.085  0.4554  0.0929 -0.3278
 7302SOL    HW125311  10.024   7.186   8.175 -1.9902  0.0301  0.2323
 7302SOL    HW225312  10.084   7.255   8.054  1.1298  0.6596  2.0952
 7303SOL     OW25313   0.352   0.262   3.676  0.1592 -0.0758  0.1105
 7303SOL    HW125314   0.271   0.275   3.726  0.2458  0.0990  0.2034
 7303SOL    HW225315   0.422   0.271   3.741  0.1978 -1.6123  0.3122
 7304SOL     OW25316   4.479   3.215   1.454  0.1311 -0.1199 -0.6876
 7304SOL    HW125317   4.388   3.206   1.426  0.0964 -0.7728 -0.3681
 7304SOL    HW225318   4.475   3.273   1.530  0.0777  0.5367 -1.1876
 7305SOL     OW25319   3.778   7.047   0.701  0.4894  0.1403 -0.1893
 7305SOL    HW125320   3.859   7.077   0.742 -0.9576  2.1277  1.3534
 7305SOL    HW225321   3.722   7.022   0.774  0.0359 -2.1928 -1.2821
 7306SOL     OW25322   6.752   3.479   7.662 -0.0332 -0.3747  0.1036
 7306SOL    HW125323   6.763   3.396   7.707 -0.3853 -0.2994  0.3251
 7306SOL    HW225324   6.675   3.467   7.606 -0.4746  0.0155  0.6240
 7307SOL     OW25325   7.554   5.927   7.928  0.6126 -0.3156 -0.4424
 7307SOL    HW125326   7.637   5.904   7.970  1.4971 -1.2969 -2.6601
 7307SOL    HW225327   7.569   6.015   7.893 -0.2226  0.6211  1.5210
 7308SOL     OW25328   7.048  10.751   0.537 -0.3423  0.5123 -0.1384
 7308SOL    HW125329   7.121  10.689   0.531 -0.6577  0.0988  0.2522
 7308SOL    HW225330   7.021  10.765   0.446  0.2376  0.6852 -0.2850
 7309SOL     OW25331   4.055   4.139   8.766  0.1951  0.3607 -0.0614
 7309SOL    HW125332   4.061   4.232   8.747  3.1288  0.4636  1.0640
 7309SOL    HW225333   4.117   4.098   8.705 -1.6993 -0.9752 -1.1381
 7310SOL     OW25334   0.773   4.582  10.789  0.0101 -0.1676 -0.7967
 7310SOL    HW125335   0.832   4.573  10.864 -1.5335 -0.5314  0.4164
 7310SOL    HW225336   0.762   4.493  10.756  1.7419  0.1615 -2.3138
 7311SOL     OW25337   4.487   3.623   9.572 -0.3915  0.4700  0.1634
 7311SOL    HW125338   4.409   3.607   9.518 -0.8035 -0.6112  1.0494
 7311SOL    HW225339   4.504   3.716   9.562 -0.5505  0.3302 -1.7140
 7312SOL     OW25340   4.738   7.889   8.909  0.0197  0.2069  0.1123
 7312SOL    HW125341   4.779   7.885   8.823  1.0772  1.4466  0.5394
 7312SOL    HW225342   4.731   7.983   8.928  0.2518 -0.0599  1.5795
 7313SOL     OW25343   2.130   6.618   1.392  0.1700 -0.1061  0.3111
 7313SOL    HW125344   2.182   6.614   1.312 -0.6666 -0.4768 -0.2220
 7313SOL    HW225345   2.049   6.572   1.370 -0.8711  1.4652  0.7458
 7314SOL     OW25346   0.291   5.033   8.694 -0.3106  0.4211  0.2784
 7314SOL    HW125347   0.321   4.953   8.738 -1.4718  0.2916  0.8551
 7314SOL    HW225348   0.342   5.036   8.614  1.3337  0.2874  1.3031
 7315SOL     OW25349   5.331   3.981   2.773 -0.5046  0.2290  0.5285
 7315SOL    HW125350   5.378   4.064   2.765  0.6741 -0.6084 -1.3778
 7315SOL    HW225351   5.383   3.919   2.723 -2.6479 -1.1437 -0.0275
 7316SOL     OW25352  10.647   6.090   3.474 -0.4401 -0.4314 -0.5253
 7316SOL    HW125353  10.734   6.124   3.496 -0.7237 -0.5612  0.8735
 7316SOL    HW225354  10.631   6.118   3.384  1.3676 -1.0599 -1.0584
 7317SOL     OW25355  10.752  10.938   3.170  0.0667 -0.3202  0.4923
 7317SOL    HW125356  10.687  10.878   3.134  0.8302 -2.5263  2.6539
 7317SOL    HW225357  10.759  11.008   3.105 -2.5221 -1.3939 -1.0030
 7318SOL     OW25358   2.137   2.395   1.342  0.9107  0.5494  0.0456
 7318SOL    HW125359   2.162   2.303   1.342 -0.8793  0.0519 -0.5664
 7318SOL    HW225360   2.151   2.424   1.432 -0.7305 -0.9440  0.8108
 7319SOL     OW25361   5.269   6.433   5.244  0.1684 -0.4538  0.2959
 7319SOL    HW125362   5.182   6.447   5.207  0.0539  1.3318  1.2057
 7319SOL    HW225363   5.323   6.503   5.208  0.6196 -0.0689  1.6668
 7320SOL     OW25364   2.413   4.829   7.805  0.0311  0.2326 -0.3312
 7320SOL    HW125365   2.331   4.845   7.760 -0.0133 -0.0061 -0.3355
 7320SOL    HW225366   2.414   4.735   7.820  0.3452  0.2219 -0.4136
 7321SOL     OW25367   5.800  10.097   9.472  0.5595  0.1967 -0.2743
 7321SOL    HW125368   5.734  10.050   9.523  1.1585  0.2205  0.5236
 7321SOL    HW225369   5.756  10.177   9.443 -0.5742 -0.9736 -1.9050
 7322SOL     OW25370   7.517   3.335   8.248  0.7881 -0.2178  0.2497
 7322SOL    HW125371   7.553   3.252   8.216 -0.4922 -0.8480  0.4153
 7322SOL    HW225372   7.511   3.324   8.342  1.4539  0.4152  0.3741
 7323SOL     OW25373   0.863   7.410   8.451 -0.1879 -0.3462 -0.0655
 7323SOL    HW125374   0.940   7.405   8.394 -0.1950 -1.4008  0.0154
 7323SOL    HW225375   0.868   7.498   8.490  0.0752  0.2012 -1.3120
 7324SOL     OW25376   1.205   4.620   2.858 -0.4660 -0.2616  0.3669
 7324SOL    HW125377   1.278   4.682   2.856 -0.5868 -0.0425  1.8321
 7324SOL    HW225378   1.127   4.676   2.863 -0.6991 -0.5110 -0.3995
 7325SOL     OW25379   0.898   2.740   1.615  0.0562  0.2016  0.6834
 7325SOL    HW125380   0.980   2.754   1.663 -0.0925  1.8263  0.4872
 7325SOL    HW225381   0.913   2.783   1.530 -0.4255 -0.8811  0.0411
 7326SOL     OW25382   4.491   7.389  10.376  0.0647  0.4853 -0.4161
 7326SOL    HW125383   4.548   7.433  10.312 -0.4956  0.8968 -0.6321
 7326SOL    HW225384   4.497   7.296  10.353 -0.9087  0.7248 -1.7071
 7327SOL     OW25385   5.854   2.733   6.391 -0.5579 -0.2189  0.7383
 7327SOL    HW125386   5.840   2.642   6.365 -1.5514 -0.2202  1.2416
 7327SOL    HW225387   5.780   2.780   6.351  0.5876  0.5629 -0.5021
 7328SOL     OW25388   4.990   3.498   9.145 -0.1712  0.6281 -0.1882
 7328SOL    HW125389   5.018   3.498   9.237  1.0284  1.6354 -0.5341
 7328SOL    HW225390   4.904   3.542   9.146 -1.5765 -2.0652  0.8203
 7329SOL     OW25391   6.050   9.917   7.718 -0.0328 -0.0634  0.2141
 7329SOL    HW125392   6.038   9.945   7.628  1.4212 -1.8903 -0.5889
 7329SOL    HW225393   6.100   9.988   7.759  0.1652  0.3312 -0.7054
 7330SOL     OW25394   9.529   1.380  10.717  0.2475  0.1805 -0.5908
 7330SOL    HW125395   9.597   1.371  10.783  1.0119 -0.3430 -1.4484
 7330SOL    HW225396   9.488   1.294  10.712 -0.6213  0.5461  0.0675
 7331SOL     OW25397   8.526   3.854   7.675 -0.0424  0.2753  0.0694
 7331SOL    HW125398   8.579   3.805   7.613 -2.0531 -1.3483 -0.4237
 7331SOL    HW225399   8.580   3.861   7.753  1.9369  1.0580 -1.3164
 7332SOL     OW25400   1.172   6.267   1.954  0.0948 -0.1487 -0.2918
 7332SOL    HW125401   1.165   6.199   2.021 -0.1154 -0.6581 -0.8295
 7332SOL    HW225402   1.081   6.293   1.937  0.0690 -0.8094 -1.1863
 7333SOL     OW25403   7.173   6.370   3.595  0.2739 -0.0354 -0.1679
 7333SOL    HW125404   7.108   6.321   3.546  0.3809  1.4210 -1.8037
 7333SOL    HW225405   7.244   6.385   3.533  0.4463  1.7664  0.4258
 7334SOL     OW25406   8.914   3.117   4.375 -0.3208  0.4852 -0.0780
 7334SOL    HW125407   8.825   3.088   4.356 -0.4842  0.4054  0.8159
 7334SOL    HW225408   8.952   3.046   4.427  0.4027  0.3335 -0.7935
 7335SOL     OW25409   3.754   3.727   2.554 -1.3413 -0.1606  0.3563
 7335SOL    HW125410   3.758   3.719   2.459 -0.2973 -1.2585  0.4808
 7335SOL    HW225411   3.792   3.646   2.587  0.8672  1.3520  1.7215
 7336SOL     OW25412   5.060   9.392  10.193 -0.0161  0.5911 -0.5554
 7336SOL    HW125413   5.033   9.373  10.103  1.0569 -0.6138 -0.6267
 7336SOL    HW225414   5.123   9.464  10.184  2.6320 -1.7476 -1.0864
 7337SOL     OW25415   9.365   6.334   3.861 -0.2782  0.3854 -0.1890
 7337SOL    HW125416   9.327   6.249   3.884  0.4479  0.0763 -0.1482
 7337SOL    HW225417   9.319   6.359   3.780  1.6504 -1.4510 -1.9019
 7338SOL     OW25418   3.930   0.226   1.099 -0.9049  0.1463  0.3905
 7338SOL    HW125419   4.008   0.173   1.084 -1.1681 -0.0961 -0.1810
 7338SOL    HW225420   3.954   0.313   1.067 -1.2894 -0.2440 -1.0389
 7339SOL     OW25421   6.529   4.736   5.964 -0.0085  0.6036  0.0317
 7339SOL    HW125422   6.508   4.785   5.885 -0.5576  1.3808  0.6550
 7339SOL    HW225423   6.480   4.654   5.954  1.6979 -0.2736 -1.4771
 7340SOL     OW25424   3.713   2.230   2.432 -0.5958 -0.0068  0.2016
 7340SOL    HW125425   3.631   2.239   2.481 -0.5977  0.4207  0.1185
 7340SOL    HW225426   3.704   2.292   2.359 -0.0430  0.3036  0.3973
 7341SOL     OW25427   0.460   2.126   5.060 -0.6068 -0.4674 -0.0332
 7341SOL    HW125428   0.468   2.189   5.132 -0.4326 -1.9975  1.3031
 7341SOL    HW225429   0.495   2.173   4.984 -0.1884  0.9401  0.9991
 7342SOL     OW25430   2.801   0.247   0.505  0.6039 -0.3285 -0.5017
 7342SOL    HW125431   2.798   0.225   0.412  0.2077 -1.3170 -0.2642
 7342SOL    HW225432   2.752   0.329   0.513  3.7962  1.8153 -1.7065
 7343SOL     OW25433   0.508   5.035   3.070  0.1998  0.3935  0.6316
 7343SOL    HW125434   0.438   5.072   3.016  0.2179 -1.0962 -0.4131
 7343SOL    HW225435   0.571   5.107   3.080 -0.2832  0.9745 -0.4793
 7344SOL     OW25436   8.345   9.681   2.211 -0.3512  0.3305  0.0236
 7344SOL    HW125437   8.374   9.693   2.301 -0.4036  0.0237  0.0810
 7344SOL    HW225438   8.383   9.598   2.184 -0.7226  0.1909 -0.0808
 7345SOL     OW25439   7.057   6.935   7.320  0.4538 -0.2321  0.3689
 7345SOL    HW125440   7.005   6.855   7.315  0.7887 -0.3937 -0.6711
 7345SOL    HW225441   7.148   6.905   7.329  0.3773  0.0480  2.2889
 7346SOL     OW25442   2.069   8.933   9.511  0.0550 -0.4519  0.3466
 7346SOL    HW125443   2.026   8.850   9.530  0.2369 -0.1861  1.9711
 7346SOL    HW225444   2.129   8.913   9.439 -0.4378 -1.5501  0.2326
 7347SOL     OW25445   7.785   6.968   8.567 -0.0717  0.3126  0.2026
 7347SOL    HW125446   7.802   7.014   8.649 -1.1256 -2.1940  1.8832
 7347SOL    HW225447   7.690   6.972   8.557 -0.2361 -1.7284  0.5854
 7348SOL     OW25448  10.317   6.825   3.799  0.0911  0.2868 -0.2277
 7348SOL    HW125449  10.294   6.741   3.840 -2.0046  0.7479 -0.4081
 7348SOL    HW225450  10.412   6.825   3.796  0.2069 -0.8793  2.3476
 7349SOL     OW25451   8.889   0.887   7.603 -0.0481 -0.0565 -0.0001
 7349SOL    HW125452   8.832   0.957   7.635  1.7130  2.1210 -1.4369
 7349SOL    HW225453   8.972   0.900   7.650 -0.0944 -1.9786  0.6413
 7350SOL     OW25454   1.230   6.631   7.744 -0.1563 -0.0499  0.2923
 7350SOL    HW125455   1.251   6.722   7.766 -1.4801  0.4390 -0.3959
 7350SOL    HW225456   1.256   6.621   7.652 -1.0497 -0.0219  0.0286
 7351SOL     OW25457   0.505  10.030   3.645 -0.0853  0.0889 -0.0459
 7351SOL    HW125458   0.503  10.086   3.568  0.0791  1.0767  0.6673
 7351SOL    HW225459   0.414  10.002   3.656 -0.3442  1.0375  0.2066
 7352SOL     OW25460   3.989   2.912   3.979  0.0966  0.3119 -0.5822
 7352SOL    HW125461   3.895   2.900   3.989  0.1274  0.0727 -0.5733
 7352SOL    HW225462   4.015   2.965   4.053  0.5532 -2.5360  1.3684
 7353SOL     OW25463   0.640   0.432   7.862 -0.1524 -0.2651 -0.3404
 7353SOL    HW125464   0.628   0.365   7.930 -0.0478  0.5740  0.5261
 7353SOL    HW225465   0.596   0.396   7.785  2.2533 -2.5357 -0.7077
 7354SOL     OW25466  10.004   3.214   0.938  0.1499  0.0496 -0.2328
 7354SOL    HW125467   9.927   3.210   0.995  0.8386 -0.6719  0.6553
 7354SOL    HW225468  10.060   3.143   0.969  0.1079 -0.9763 -2.4494
 7355SOL     OW25469   2.784   3.724   6.919 -0.3940 -0.4288  0.0315
 7355SOL    HW125470   2.824   3.759   6.999  0.4019  0.5063 -0.7675
 7355SOL    HW225471   2.776   3.630   6.936 -0.2511 -0.2433  1.2177
 7356SOL     OW25472   6.892   7.703   2.925 -0.5696  0.0987 -0.3980
 7356SOL    HW125473   6.961   7.662   2.874  0.4510  1.3117 -0.0304
 7356SOL    HW225474   6.841   7.753   2.861  0.3730  1.1675 -0.3381
 7357SOL     OW25475   1.177   3.723   2.708  0.0263  0.2109  0.2668
 7357SOL    HW125476   1.269   3.703   2.692 -0.1137  1.1127 -1.8600
 7357SOL    HW225477   1.178   3.807   2.754  0.2270  1.1808 -1.4689
 7358SOL     OW25478   7.839   4.378   1.752 -0.0293  0.2533  0.1250
 7358SOL    HW125479   7.791   4.299   1.729 -0.4329  1.2090 -2.5255
 7358SOL    HW225480   7.772   4.446   1.757  0.7656  1.1902 -1.5386
 7359SOL     OW25481   3.210   9.385   3.048 -0.2808 -0.2131  0.0835
 7359SOL    HW125482   3.298   9.418   3.034 -0.1393 -0.6270 -0.0200
 7359SOL    HW225483   3.193   9.329   2.972 -1.1883  1.0161 -0.6433
 7360SOL     OW25484   3.352   4.673   8.371  0.1121  0.2150 -0.6011
 7360SOL    HW125485   3.415   4.616   8.327  2.0748  0.9632  1.1711
 7360SOL    HW225486   3.306   4.615   8.431  0.3721  0.0115 -0.5952
 7361SOL     OW25487   3.394   8.378   7.668 -0.4101  0.6000 -0.3338
 7361SOL    HW125488   3.353   8.463   7.650  2.1406  1.8247 -0.7239
 7361SOL    HW225489   3.478   8.400   7.708  0.4624 -1.7276 -0.7715
 7362SOL     OW25490   0.858  10.448   1.790 -0.0683  0.0309 -0.2650
 7362SOL    HW125491   0.901  10.442   1.876 -0.6481  1.2902  0.1386
 7362SOL    HW225492   0.827  10.539   1.786  1.9748  0.6714 -2.7871
 7363SOL     OW25493  10.839   6.739   3.342  0.5633  0.2698  0.1439
 7363SOL    HW125494  10.905   6.698   3.287 -0.5147 -1.2565 -0.0625
 7363SOL    HW225495  10.870   6.828   3.356  1.6990  0.1502 -1.5160
 7364SOL     OW25496   4.624   8.672   6.711  0.3406  0.0541  0.4061
 7364SOL    HW125497   4.601   8.605   6.646 -0.9475  1.2534 -0.4171
 7364SOL    HW225498   4.720   8.677   6.708  0.2941  0.2554 -1.6062
 7365SOL     OW25499   4.575   2.783   2.671  0.0562  0.1369  0.5193
 7365SOL    HW125500   4.625   2.780   2.590  1.5878 -3.2577  1.4939
 7365SOL    HW225501   4.641   2.802   2.738 -0.8452  0.8633  1.1977
 7366SOL     OW25502   7.655   8.949   6.495 -0.3106 -0.0299  0.4882
 7366SOL    HW125503   7.735   8.971   6.448  0.2063 -0.2541  1.2609
 7366SOL    HW225504   7.671   8.979   6.585 -1.3142  0.4535  0.5152
 7367SOL     OW25505  10.205   6.789  10.889  0.0368 -0.1778 -0.3750
 7367SOL    HW125506  10.219   6.872  10.843 -0.8654 -0.4670 -1.1897
 7367SOL    HW225507  10.212   6.812  10.982  1.3419  0.5072 -0.6321
 7368SOL     OW25508  10.831   9.647   6.137 -0.4127  0.7951  0.4291
 7368SOL    HW125509  10.833   9.632   6.043  1.3624  3.0126  0.0811
 7368SOL    HW225510  10.887   9.579   6.174  3.4359  3.2128 -0.6696
 7369SOL     OW25511   6.380   8.736   2.249 -0.1539 -0.5958  0.1108
 7369SOL    HW125512   6.361   8.649   2.285 -1.9845  0.0622  0.7977
 7369SOL    HW225513   6.299   8.762   2.205  0.2601  0.9025  0.2016
 7370SOL     OW25514   6.846   8.420   2.614 -0.1346 -0.5750  0.0151
 7370SOL    HW125515   6.925   8.471   2.594 -0.4897  0.1732  0.4992
 7370SOL    HW225516   6.788   8.482   2.657 -0.0063 -1.7670  1.9474
 7371SOL     OW25517   6.606   3.454  10.732 -0.0266  0.0937  0.7012
 7371SOL    HW125518   6.524   3.490  10.765 -0.2460  0.8564 -0.6277
 7371SOL    HW225519   6.670   3.475  10.800 -0.8686 -0.2730  1.6261
 7372SOL     OW25520   6.505   4.626   0.346  0.1386 -0.2597 -0.0211
 7372SOL    HW125521   6.533   4.715   0.367  2.5516 -0.9991 -0.0226
 7372SOL    HW225522   6.466   4.634   0.258  1.9128  0.4960 -0.7561
 7373SOL     OW25523   8.718   4.556   9.277  0.4570 -0.6963  1.1058
 7373SOL    HW125524   8.690   4.524   9.191  0.1990 -0.5800  1.1452
 7373SOL    HW225525   8.638   4.591   9.317  1.3752  3.5570 -0.4799
 7374SOL     OW25526   4.781   6.111  10.638  0.1000  0.6177 -0.1085
 7374SOL    HW125527   4.842   6.141  10.571 -1.4088 -0.0419 -1.8096
 7374SOL    HW225528   4.697   6.146  10.611 -0.2688  1.8017  2.3937
 7375SOL     OW25529   8.431   5.136   8.196 -0.0207  0.0204  0.7172
 7375SOL    HW125530   8.467   5.183   8.121 -2.2747  1.3165  0.3916
 7375SOL    HW225531   8.474   5.177   8.272 -1.1388  1.9161  0.3727
 7376SOL     OW25532   9.463   6.552  10.522 -0.0438 -0.1225 -0.4299
 7376SOL    HW125533   9.538   6.493  10.519 -1.2140 -1.6932  0.5555
 7376SOL    HW225534   9.461   6.593  10.435  2.0669  0.0940 -0.3838
 7377SOL     OW25535   9.981   8.063   5.325 -0.2388  0.3369 -0.6112
 7377SOL    HW125536   9.988   8.158   5.313  0.1488  0.2811 -0.8148
 7377SOL    HW225537  10.022   8.026   5.247  2.1728 -0.0169  0.7653
 7378SOL     OW25538   1.773  10.977   0.669 -0.3155  0.5495 -0.0298
 7378SOL    HW125539   1.759  11.018   0.584  1.4363 -0.9529 -1.0902
 7378SOL    HW225540   1.754  10.884   0.654 -0.8424  0.4031  1.4488
 7379SOL     OW25541   2.016  10.819   5.476  0.1329 -0.3759 -0.1305
 7379SOL    HW125542   1.999  10.907   5.442 -2.0572 -1.4960 -2.1171
 7379SOL    HW225543   2.000  10.826   5.570 -1.8947  0.9749 -0.5282
 7380SOL     OW25544   0.181   2.697   5.460 -0.1508  0.2314  0.2058
 7380SOL    HW125545   0.154   2.772   5.514 -0.7990 -1.7799  2.7808
 7380SOL    HW225546   0.101   2.673   5.412 -0.1858  0.6437  0.0565
 7381SOL     OW25547   2.132   0.826   1.712  0.4048  0.3604 -0.7868
 7381SOL    HW125548   2.094   0.890   1.773  0.1597  0.3330 -0.9113
 7381SOL    HW225549   2.089   0.744   1.734  2.4016 -0.2863  0.9661
 7382SOL     OW25550   8.732   6.225   4.216 -0.6659 -0.3816  0.0480
 7382SOL    HW125551   8.755   6.133   4.232 -0.8953 -0.3421  0.6197
 7382SOL    HW225552   8.815   6.268   4.197 -0.4540 -0.5312  0.6540
 7383SOL     OW25553  10.131   0.971   3.715  1.1975  0.0653  0.3658
 7383SOL    HW125554  10.174   1.047   3.755  1.2028 -0.5862  1.6287
 7383SOL    HW225555  10.118   0.910   3.788 -1.0589 -0.1221 -0.1425
 7384SOL     OW25556   3.692   7.469   8.950  0.1058  0.1774 -0.9259
 7384SOL    HW125557   3.617   7.430   8.905 -1.2076  1.5190  0.0602
 7384SOL    HW225558   3.658   7.550   8.988  2.0560  0.8072 -0.4572
 7385SOL     OW25559   2.934   1.042   8.506  0.0023 -0.0289  0.1795
 7385SOL    HW125560   2.899   0.953   8.504  0.8804 -0.4785  2.9701
 7385SOL    HW225561   3.010   1.039   8.448 -0.3501 -0.9337 -0.2441
 7386SOL     OW25562   4.259   6.620   1.253 -0.1249  0.4890  0.4955
 7386SOL    HW125563   4.311   6.659   1.182  0.0976 -0.6182  0.0502
 7386SOL    HW225564   4.318   6.556   1.294 -0.6884  0.2041  0.8655
 7387SOL     OW25565   2.349   9.633  10.549 -0.2369  0.2285  0.1235
 7387SOL    HW125566   2.377   9.556  10.598  1.9118  1.4448  0.8329
 7387SOL    HW225567   2.308   9.690  10.614  0.8716  0.9870  0.1689
 7388SOL     OW25568   9.223   3.126   0.543 -0.0692 -0.3827 -0.0294
 7388SOL    HW125569   9.128   3.134   0.553  0.1855  1.0937  1.3327
 7388SOL    HW225570   9.243   3.038   0.574 -1.0064 -0.7925 -0.5502
 7389SOL     OW25571   9.712   4.066   6.331  0.4488  0.9622 -0.2465
 7389SOL    HW125572   9.665   4.087   6.250 -0.2623  0.0482 -0.0837
 7389SOL    HW225573   9.735   3.973   6.322  0.2833  0.8308  0.6326
 7390SOL     OW25574   2.414   8.885   8.135 -0.3208 -0.2231  0.2658
 7390SOL    HW125575   2.421   8.826   8.060 -3.6519 -0.2252 -0.1161
 7390SOL    HW225576   2.415   8.827   8.212 -3.1057 -0.8072 -0.0880
 7391SOL     OW25577   2.231  10.686   1.025  0.2500 -0.1955 -0.2006
 7391SOL    HW125578   2.319  10.669   0.994 -0.1988 -1.6399 -0.7476
 7391SOL    HW225579   2.230  10.779   1.047  2.6087 -0.6436  2.0850
 7392SOL     OW25580   9.590   5.255   0.670  0.0312 -0.7719  0.7229
 7392SOL    HW125581   9.545   5.241   0.753 -1.4800 -0.6644 -0.0540
 7392SOL    HW225582   9.536   5.318   0.624  0.6019 -1.1836 -0.5320
 7393SOL     OW25583   2.631   3.603  10.268 -0.1805 -0.2630 -0.0803
 7393SOL    HW125584   2.678   3.686  10.264  0.1018 -0.3912  0.5712
 7393SOL    HW225585   2.674   3.548  10.202  1.4193 -0.8089  1.4074
 7394SOL     OW25586   7.235   8.864   6.963 -0.3627  0.1964 -0.0339
 7394SOL    HW125587   7.178   8.794   6.930  0.8336 -0.9588  0.2612
 7394SOL    HW225588   7.187   8.944   6.947 -1.6787 -0.6880 -0.6101
 7395SOL     OW25589   6.934  10.790   0.288 -0.3450  0.8426 -0.4894
 7395SOL    HW125590   6.840  10.807   0.299 -0.6915 -0.7196 -0.8666
 7395SOL    HW225591   6.940  10.744   0.205  0.5392 -0.6449  0.3682
 7396SOL     OW25592   2.894   9.349   5.235  0.3641 -0.2688  0.3696
 7396SOL    HW125593   2.868   9.266   5.195 -0.9676  0.2318  0.1746
 7396SOL    HW225594   2.986   9.359   5.212  0.1319 -0.9455 -0.9129
 7397SOL     OW25595   3.520   7.114   8.187  0.0317 -0.1977 -0.0495
 7397SOL    HW125596   3.506   7.085   8.097 -0.5381  0.7895 -0.2843
 7397SOL    HW225597   3.552   7.036   8.232 -1.5155 -1.2036 -0.6572
 7398SOL     OW25598   3.034   1.006   9.179 -0.2000  0.4476 -0.2290
 7398SOL    HW125599   2.979   0.939   9.137 -2.3211  0.6823  2.0438
 7398SOL    HW225600   3.092   0.957   9.237 -1.4563  0.5059  1.1087
 7399SOL     OW25601   3.540   3.732   9.701 -0.6893 -0.1164  0.2552
 7399SOL    HW125602   3.607   3.770   9.643  0.3660 -2.6433 -0.2294
 7399SOL    HW225603   3.588   3.702   9.778 -1.7640  1.0777  1.4125
 7400SOL     OW25604   0.995   0.565   5.378 -0.3039 -0.2928  0.6443
 7400SOL    HW125605   0.971   0.648   5.336  0.3172  0.5212  1.8665
 7400SOL    HW225606   1.082   0.580   5.414  0.3468 -1.9044 -0.2107
 7401SOL     OW25607   1.231   3.026  10.471  0.0176  0.6020 -0.3912
 7401SOL    HW125608   1.313   3.074  10.472  1.3995 -1.6907 -0.0685
 7401SOL    HW225609   1.170   3.079  10.522  1.8960  1.2791  1.1642
 7402SOL     OW25610   7.594   8.524   6.885  0.6234  0.1008  0.4936
 7402SOL    HW125611   7.595   8.445   6.832  1.7806  0.8782 -0.6960
 7402SOL    HW225612   7.562   8.592   6.825  0.7415  0.7526  1.1649
 7403SOL     OW25613   0.236   2.165  10.202  0.5431 -0.1628 -0.1653
 7403SOL    HW125614   0.150   2.204  10.188 -0.1379 -1.0461  1.4096
 7403SOL    HW225615   0.256   2.120  10.120  0.4052  1.7128 -1.2447
 7404SOL     OW25616   2.890   9.292   7.847  0.3657 -0.0824 -0.4917
 7404SOL    HW125617   2.804   9.320   7.879  1.7229  0.6534  2.6755
 7404SOL    HW225618   2.896   9.200   7.874  0.5832 -0.1202 -0.6768
 7405SOL     OW25619   3.116   5.116   5.353  0.1516  0.6908  0.0716
 7405SOL    HW125620   3.182   5.184   5.367  1.8585 -0.6500 -1.1780
 7405SOL    HW225621   3.094   5.085   5.441  0.8156  1.4997  0.5348
 7406SOL     OW25622   1.913   4.951  10.406  0.3004  0.1514 -0.0154
 7406SOL    HW125623   1.879   4.862  10.412  1.0791 -0.1182  0.4403
 7406SOL    HW225624   1.923   4.967  10.312  1.8955 -0.9143 -0.0508
 7407SOL     OW25625   5.585   1.837   0.823  0.0475  0.6917  0.2452
 7407SOL    HW125626   5.593   1.929   0.796 -0.9042  1.1255  1.4029
 7407SOL    HW225627   5.663   1.820   0.875 -0.2767  1.1522  0.8863
 7408SOL     OW25628   4.845   1.085   3.910 -0.5652  0.1892  0.0184
 7408SOL    HW125629   4.754   1.113   3.896 -0.4333  0.6478  0.0789
 7408SOL    HW225630   4.897   1.149   3.862 -0.2663  0.0193  0.1186
 7409SOL     OW25631   4.740   3.158   2.725  0.9909  0.6140 -0.6928
 7409SOL    HW125632   4.803   3.203   2.781  0.2367  0.5259  0.2493
 7409SOL    HW225633   4.730   3.071   2.766  0.1347  0.6902 -0.7274
 7410SOL     OW25634   6.788   8.685   3.003  0.9577 -0.5288  0.4228
 7410SOL    HW125635   6.750   8.598   3.018  0.8441 -0.4074  0.8473
 7410SOL    HW225636   6.810   8.686   2.910 -0.0652 -0.6068  0.1805
 7411SOL     OW25637   3.160   4.760   5.631  0.4150 -0.1338  0.2196
 7411SOL    HW125638   3.221   4.744   5.703 -0.3522  1.0534  1.1425
 7411SOL    HW225639   3.088   4.698   5.646 -0.0014  0.4748  0.7999
 7412SOL     OW25640   6.313   4.788   1.915 -0.4434 -0.5569  0.6983
 7412SOL    HW125641   6.240   4.773   1.975 -0.9746 -1.8804 -0.2709
 7412SOL    HW225642   6.357   4.703   1.908 -0.8057 -0.5950 -1.3279
 7413SOL     OW25643   5.780   2.992   7.553 -0.0033 -0.4169  0.0511
 7413SOL    HW125644   5.831   2.933   7.609  0.7922 -0.5255 -0.7801
 7413SOL    HW225645   5.800   2.963   7.464  0.2009  0.9624 -0.3550
 7414SOL     OW25646   9.851   5.375   8.809 -0.2397  0.1840  0.2250
 7414SOL    HW125647   9.806   5.291   8.799  0.1378 -0.0843  0.7356
 7414SOL    HW225648   9.883   5.374   8.900 -0.1470  0.8347  0.1973
 7415SOL     OW25649   2.956   5.646   8.514  0.0586  0.6459  0.0023
 7415SOL    HW125650   2.947   5.633   8.608  2.3932  0.8316  0.2855
 7415SOL    HW225651   2.887   5.709   8.491  0.2220  1.5149  1.8093
 7416SOL     OW25652   2.195   0.601   4.773 -0.1177  0.1457  0.4554
 7416SOL    HW125653   2.122   0.587   4.834  0.9391 -0.9842  1.4997
 7416SOL    HW225654   2.241   0.517   4.771  0.8815  0.7045 -0.5500
 7417SOL     OW25655   2.678   0.505   2.425 -0.5498 -0.0851 -0.5699
 7417SOL    HW125656   2.729   0.557   2.364 -1.6186  1.0348 -0.5369
 7417SOL    HW225657   2.643   0.434   2.372 -1.1734  0.6777 -1.1968
 7418SOL     OW25658   0.717   6.165   4.707 -0.0000 -0.4778 -0.4221
 7418SOL    HW125659   0.749   6.155   4.796  2.3629 -1.2682 -1.3358
 7418SOL    HW225660   0.656   6.092   4.695 -0.8654  0.0334  0.7491
 7419SOL     OW25661   8.039   9.643   1.120  0.3728  0.2191  0.4029
 7419SOL    HW125662   8.014   9.651   1.028  2.3284  0.1384 -0.1531
 7419SOL    HW225663   8.044   9.733   1.152 -0.2064  0.2515  0.4000
 7420SOL     OW25664   5.965   7.387   3.241  0.0902  0.2566 -0.0688
 7420SOL    HW125665   5.976   7.313   3.300 -1.2841  0.1684  0.1081
 7420SOL    HW225666   5.902   7.356   3.176 -0.1516  1.1092 -0.2460
 7421SOL     OW25667   3.760   7.750   1.929  0.6542  0.4166 -0.0217
 7421SOL    HW125668   3.779   7.730   1.838  0.2261  0.7239 -0.1799
 7421SOL    HW225669   3.710   7.675   1.961 -1.2929  1.3821 -0.7234
 7422SOL     OW25670   8.447   9.147   7.083  1.1618  0.2624 -0.3175
 7422SOL    HW125671   8.409   9.088   7.148 -0.8018  0.9771 -0.7933
 7422SOL    HW225672   8.471   9.225   7.133  2.1052 -0.2080 -0.0105
 7423SOL     OW25673   1.675   8.496   1.909 -0.0664  0.6037 -0.2186
 7423SOL    HW125674   1.726   8.431   1.956 -0.5154  0.4070  0.0055
 7423SOL    HW225675   1.704   8.489   1.818  0.2272  0.4226 -0.1092
 7424SOL     OW25676   5.984   7.367  10.175  0.0526  0.1328  0.0826
 7424SOL    HW125677   6.045   7.333  10.109 -1.2605 -0.0604 -1.0640
 7424SOL    HW225678   6.037   7.378  10.253  0.8986 -3.0545  0.0215
 7425SOL     OW25679   9.603   1.529   7.051 -0.1154  0.1090 -0.0162
 7425SOL    HW125680   9.527   1.489   7.095 -1.2622  1.9491 -0.2922
 7425SOL    HW225681   9.626   1.604   7.105  0.3167  0.6597 -0.9503
 7426SOL     OW25682   9.819   5.615   4.360 -0.6936 -0.3936  0.1368
 7426SOL    HW125683   9.897   5.577   4.320  0.0545  0.4823  0.7424
 7426SOL    HW225684   9.770   5.540   4.393  0.4908 -0.8757  0.8153
 7427SOL     OW25685   2.969   0.140   9.123  0.0474  0.2660  0.5886
 7427SOL    HW125686   3.018   0.215   9.090 -0.3562 -0.8069 -2.6069
 7427SOL    HW225687   3.033   0.091   9.175  1.5423  0.4569 -1.0350
 7428SOL     OW25688   1.959   4.622   1.802  1.0801  0.1237 -0.6651
 7428SOL    HW125689   1.907   4.601   1.725  0.4223  0.0380 -0.2010
 7428SOL    HW225690   2.036   4.566   1.795  0.5159 -0.6641 -0.7138
 7429SOL     OW25691   1.549   8.821   5.199  0.5248 -0.6861  0.1557
 7429SOL    HW125692   1.554   8.849   5.290 -2.1067 -1.5598  0.6109
 7429SOL    HW225693   1.640   8.817   5.170  1.2837  5.1677  0.9687
 7430SOL     OW25694   9.136   4.807   9.485  1.3073 -0.3180 -0.0503
 7430SOL    HW125695   9.092   4.754   9.418  2.2775 -1.1467 -0.0584
 7430SOL    HW225696   9.073   4.812   9.557 -0.0130  1.1410 -1.2628
 7431SOL     OW25697  10.674   5.025   7.646 -0.4841 -0.3340  0.3115
 7431SOL    HW125698  10.635   5.069   7.721  1.1881  0.0599  0.9567
 7431SOL    HW225699  10.732   4.959   7.684  0.7408  0.1845 -0.6295
 7432SOL     OW25700   4.492   5.761   8.288  0.2806 -0.2771 -0.2982
 7432SOL    HW125701   4.558   5.793   8.349 -0.1332 -0.7710  0.4086
 7432SOL    HW225702   4.517   5.799   8.204  2.8966 -2.4339 -0.5519
 7433SOL     OW25703   2.275  10.504   2.698  0.5614 -0.0705 -0.1128
 7433SOL    HW125704   2.180  10.517   2.703  0.7651  1.3152  0.2355
 7433SOL    HW225705   2.291  10.425   2.750 -0.2928  0.1948  0.5643
 7434SOL     OW25706   7.578   5.023   9.393 -0.2080  0.0049 -0.5367
 7434SOL    HW125707   7.490   5.042   9.427 -0.7917  0.7669 -2.4458
 7434SOL    HW225708   7.600   4.938   9.432 -0.8948  0.7782  1.6417
 7435SOL     OW25709   8.134   8.729   9.401  0.3346  0.1429 -0.5715
 7435SOL    HW125710   8.220   8.767   9.416  0.1653  1.3659 -2.4536
 7435SOL    HW225711   8.090   8.731   9.486  1.8225  0.3701  0.1880
 7436SOL     OW25712   2.645   6.458   2.083 -0.1304  0.0316 -0.0926
 7436SOL    HW125713   2.595   6.464   2.164 -0.1412 -1.8672  0.0669
 7436SOL    HW225714   2.733   6.434   2.111 -0.3085 -1.3715 -0.6600
 7437SOL     OW25715   6.422   6.142  10.417  0.2902  0.0257  0.2545
 7437SOL    HW125716   6.330   6.145  10.442 -0.0818 -2.0492 -0.7508
 7437SOL    HW225717   6.470   6.161  10.497 -1.0090  2.3734  0.5141
 7438SOL     OW25718   8.268   3.935   1.071 -0.2606 -0.1674  0.1329
 7438SOL    HW125719   8.284   3.904   0.982 -0.9438 -2.4107  0.7638
 7438SOL    HW225720   8.228   3.861   1.116  1.8046  0.2538  2.8494
 7439SOL     OW25721   9.692   0.652   1.333 -0.3380  0.2127 -1.0039
 7439SOL    HW125722   9.695   0.722   1.269  1.4678  0.5655 -0.5867
 7439SOL    HW225723   9.784   0.625   1.342 -0.6897 -0.4693  0.7159
 7440SOL     OW25724   3.806   5.161   9.146  0.2831  0.8824 -0.4348
 7440SOL    HW125725   3.887   5.170   9.095  0.4824  0.5079 -0.1843
 7440SOL    HW225726   3.836   5.138   9.234 -0.1076  0.5591 -0.3864
 7441SOL     OW25727   7.253   2.059   4.733 -0.1397 -0.5222 -0.4885
 7441SOL    HW125728   7.316   2.042   4.663 -0.6342  0.4261 -1.1686
 7441SOL    HW225729   7.178   2.004   4.712 -0.2107 -0.3875 -0.5793
 7442SOL     OW25730   6.974   3.216   9.767 -0.1601 -0.0003  0.4235
 7442SOL    HW125731   7.045   3.168   9.724 -0.0782 -0.0333  0.5962
 7442SOL    HW225732   6.981   3.191   9.860  0.8085  1.4994  0.7664
 7443SOL     OW25733  10.223   2.705   4.226  0.3731 -0.7601  0.1751
 7443SOL    HW125734  10.194   2.685   4.315 -3.5424  2.4528 -0.2319
 7443SOL    HW225735  10.264   2.791   4.233  0.6104 -0.7641 -1.0679
 7444SOL     OW25736   2.054   9.792   0.329 -0.0650 -0.5288 -0.4398
 7444SOL    HW125737   2.114   9.866   0.321 -0.9901  0.2821  0.0634
 7444SOL    HW225738   2.078   9.752   0.413  0.5923 -0.9507 -0.8220
 7445SOL     OW25739  10.124   4.349   3.001  0.7184 -0.4720 -0.4048
 7445SOL    HW125740  10.082   4.294   2.934  0.4613 -0.5149 -0.2098
 7445SOL    HW225741  10.176   4.288   3.053 -1.2439 -0.8839  1.1359
 7446SOL     OW25742   2.841   4.083   5.731  0.3191 -0.1609  0.1911
 7446SOL    HW125743   2.928   4.106   5.700  0.0765  0.8695  0.2476
 7446SOL    HW225744   2.844   3.989   5.746  1.4861 -0.0867  0.4231
 7447SOL     OW25745   6.560   2.920   6.112  0.3787  0.0945  0.5010
 7447SOL    HW125746   6.480   2.880   6.079  0.8250  0.3555 -0.9173
 7447SOL    HW225747   6.605   2.953   6.034  1.8705 -0.0448  1.2789
 7448SOL     OW25748   0.049   5.433   1.370  0.1286  0.4681 -0.3534
 7448SOL    HW125749  -0.018   5.366   1.383  0.3700  0.9325  3.7837
 7448SOL    HW225750   0.130   5.384   1.358 -0.0144 -0.0199  0.6442
 7449SOL     OW25751   9.719   1.356   9.277 -0.6521  0.3716 -0.1749
 7449SOL    HW125752   9.711   1.264   9.303 -2.0769 -0.0545 -2.0280
 7449SOL    HW225753   9.806   1.382   9.309 -0.2457 -1.5972  0.4087
 7450SOL     OW25754   9.887   8.673   2.039  0.2173 -0.2014  0.4857
 7450SOL    HW125755   9.828   8.676   2.114  1.8531  0.6444  1.7666
 7450SOL    HW225756   9.880   8.760   2.000  0.5642 -0.1176  0.6099
 7451SOL     OW25757   3.107   8.114   0.252  0.0167 -0.5470 -0.0268
 7451SOL    HW125758   3.158   8.041   0.218  0.6733 -0.2789  0.3650
 7451SOL    HW225759   3.168   8.161   0.310 -0.5994 -0.0807  0.2512
 7452SOL     OW25760   3.478   4.944   6.874 -0.5249  0.3910 -0.1755
 7452SOL    HW125761   3.484   4.930   6.780  1.7847  0.1945 -0.0186
 7452SOL    HW225762   3.416   4.878   6.904  2.0737 -2.5019 -0.9622
 7453SOL     OW25763   1.500   2.239   9.973  0.0331 -0.5575  0.4720
 7453SOL    HW125764   1.481   2.218   9.882 -0.9708 -0.8811  0.7517
 7453SOL    HW225765   1.443   2.181  10.023 -0.6301  0.7897  1.2900
 7454SOL     OW25766   2.152   7.784   2.810 -0.2967  0.0391 -0.4330
 7454SOL    HW125767   2.237   7.784   2.767 -0.0598  0.6608  0.0437
 7454SOL    HW225768   2.089   7.797   2.738 -0.1715 -2.9177 -1.1275
 7455SOL     OW25769   5.282   7.365  10.717 -0.3088 -0.1181 -0.2870
 7455SOL    HW125770   5.285   7.375  10.622  1.5776 -1.0138 -0.3437
 7455SOL    HW225771   5.285   7.270  10.731  1.6123  0.0794  0.7064
 7456SOL     OW25772   3.194   4.023   3.166  0.3578 -0.4119 -0.4804
 7456SOL    HW125773   3.154   4.110   3.161 -1.0989 -1.0628 -0.4609
 7456SOL    HW225774   3.222   4.015   3.257 -0.4780 -0.3761 -0.2127
 7457SOL     OW25775   7.693   0.221   6.632  0.1999  0.1594 -0.3687
 7457SOL    HW125776   7.618   0.271   6.600 -0.2857 -0.6518 -0.5101
 7457SOL    HW225777   7.688   0.229   6.727 -1.1681 -1.4348 -0.2712
 7458SOL     OW25778   6.350   3.301   9.329 -0.3608  0.4119  0.6745
 7458SOL    HW125779   6.415   3.361   9.367 -0.0236  0.7722 -0.4348
 7458SOL    HW225780   6.281   3.294   9.394  0.0270  1.3184  1.1776
 7459SOL     OW25781   6.625   1.636   9.521 -0.5450 -0.3026  0.5961
 7459SOL    HW125782   6.703   1.662   9.472 -0.8734 -0.2061  0.1206
 7459SOL    HW225783   6.562   1.609   9.454 -1.4358  0.9821  0.8839
 7460SOL     OW25784   8.006   0.131   7.513 -0.8395 -0.0546 -0.0446
 7460SOL    HW125785   8.063   0.092   7.446  0.2004  0.0926  0.7570
 7460SOL    HW225786   8.046   0.108   7.596 -2.4430 -0.7116  0.5687
 7461SOL     OW25787   0.630   0.650   1.718  0.1440 -0.1513  0.6100
 7461SOL    HW125788   0.669   0.569   1.749  1.2430  0.1032 -0.1183
 7461SOL    HW225789   0.629   0.706   1.796 -0.1128 -0.6629  0.9795
 7462SOL     OW25790   6.474   3.209   4.281 -0.1521 -0.1885 -0.3201
 7462SOL    HW125791   6.401   3.195   4.341 -0.1685  3.0185  0.5047
 7462SOL    HW225792   6.551   3.183   4.330 -0.3409  0.7069  0.4607
 7463SOL     OW25793   5.081   3.613   4.253 -0.6836 -0.6295 -0.1935
 7463SOL    HW125794   5.075   3.639   4.161 -0.8054  0.0796  0.0110
 7463SOL    HW225795   5.031   3.532   4.258  0.7018 -1.5568 -1.0782
 7464SOL     OW25796   1.937   9.214   4.199  0.1176  0.0078 -0.3375
 7464SOL    HW125797   2.007   9.207   4.264 -0.3725  1.0647  0.3167
 7464SOL    HW225798   1.892   9.296   4.221 -0.2194  0.2408 -1.8409
 7465SOL     OW25799   5.458   5.916   2.746  0.2749 -0.5306  0.2039
 7465SOL    HW125800   5.365   5.902   2.763 -0.7408  2.3200 -2.5608
 7465SOL    HW225801   5.499   5.909   2.833 -2.5365 -1.3856  1.5364
 7466SOL     OW25802   8.330   2.103   0.925 -0.1468 -0.0350  0.1016
 7466SOL    HW125803   8.398   2.037   0.910 -0.1833  0.3321 -1.6740
 7466SOL    HW225804   8.319   2.147   0.841 -0.3255  2.0657  1.1865
 7467SOL     OW25805   4.838   2.829   0.243  0.0303 -0.2985  0.5758
 7467SOL    HW125806   4.783   2.900   0.210 -0.0514 -0.0464  1.2582
 7467SOL    HW225807   4.907   2.820   0.177 -0.3162 -0.0114  0.1723
 7468SOL     OW25808   8.836   7.598   6.184  0.3206  0.0081  0.8384
 7468SOL    HW125809   8.865   7.676   6.137 -1.7152  0.3359  0.0655
 7468SOL    HW225810   8.803   7.632   6.268  2.0722 -0.3587  1.7017
 7469SOL     OW25811   5.160  10.530   8.834 -0.0736  0.3181  0.6367
 7469SOL    HW125812   5.214  10.486   8.900 -0.7226 -1.6428 -0.0831
 7469SOL    HW225813   5.127  10.459   8.780  0.0149  1.8581 -1.4984
 7470SOL     OW25814   3.248   6.218   0.788  0.2133  0.5167  0.0258
 7470SOL    HW125815   3.291   6.158   0.849  1.0114  1.8510  0.8176
 7470SOL    HW225816   3.311   6.228   0.716  0.9256  1.8232  0.7898
 7471SOL     OW25817   3.732   4.949  10.843 -0.2936  0.1062  0.1918
 7471SOL    HW125818   3.789   5.012  10.887 -0.4673  0.0969  0.4292
 7471SOL    HW225819   3.688   5.000  10.775 -0.9460  0.3966  0.8295
 7472SOL     OW25820   6.192   7.652   8.406  0.3767 -0.2925 -0.0749
 7472SOL    HW125821   6.189   7.670   8.312  0.6593 -0.1733 -0.0592
 7472SOL    HW225822   6.196   7.556   8.412 -1.1398 -0.3759 -0.1542
 7473SOL     OW25823  10.260   7.261   4.265 -0.2314 -0.5979 -0.4020
 7473SOL    HW125824  10.275   7.242   4.172  0.0922 -1.1427 -0.2402
 7473SOL    HW225825  10.333   7.217   4.310  1.0968  1.8357 -0.0903
 7474SOL     OW25826   0.593   6.879   3.637 -0.8911 -0.0848 -0.0899
 7474SOL    HW125827   0.639   6.939   3.697 -0.5656 -0.5379  0.1119
 7474SOL    HW225828   0.655   6.808   3.622 -1.8039 -1.0624  0.7562
 7475SOL     OW25829   1.755   7.816   5.746  0.0316 -0.7027 -0.2609
 7475SOL    HW125830   1.811   7.851   5.815 -0.3264 -2.1040  0.7835
 7475SOL    HW225831   1.814   7.798   5.673  0.4069  0.8665 -0.3613
 7476SOL     OW25832   1.048   8.952   9.977 -0.3009 -0.4351 -0.8037
 7476SOL    HW125833   0.979   8.990  10.031  0.2043  0.5003 -0.8200
 7476SOL    HW225834   1.008   8.943   9.890 -0.6468 -0.6204 -0.6271
 7477SOL     OW25835  10.809   7.663   0.103  0.4924  0.2069 -0.3655
 7477SOL    HW125836  10.904   7.665   0.113  0.5156  0.5823 -0.6763
 7477SOL    HW225837  10.781   7.752   0.121  0.2296  0.1756 -0.6183
 7478SOL     OW25838   3.890   5.969   2.435 -0.4872 -0.3480  0.0825
 7478SOL    HW125839   3.833   5.976   2.358  0.0479 -1.1185 -0.3936
 7478SOL    HW225840   3.932   6.054   2.441 -3.5671  1.1493  1.9683
 7479SOL     OW25841  10.753   9.927   1.912  0.3656  0.1540  0.0767
 7479SOL    HW125842  10.681   9.929   1.975  0.5820 -3.2187  0.5618
 7479SOL    HW225843  10.751   9.838   1.877  2.5794  0.8517 -1.9528
 7480SOL     OW25844   9.176  10.895   9.206 -0.5158 -0.7360  0.0871
 7480SOL    HW125845   9.122  10.888   9.285  0.5228 -1.4765  0.7422
 7480SOL    HW225846   9.197  10.988   9.199  0.3278 -0.8265  1.3305
 7481SOL     OW25847   9.524   0.182   7.389 -0.4968 -0.3980  0.6041
 7481SOL    HW125848   9.545   0.110   7.328 -0.2592 -0.1041  0.3383
 7481SOL    HW225849   9.534   0.261   7.336  3.0865  0.1018  1.9325
 7482SOL     OW25850   6.495   8.478  10.058 -0.4529 -0.2032 -0.3798
 7482SOL    HW125851   6.454   8.538  10.120 -1.5223 -0.6190 -0.6846
 7482SOL    HW225852   6.425   8.454   9.997  0.0198 -1.6196 -0.3707
 7483SOL     OW25853   6.437   9.769   7.870 -0.4475 -0.0048  0.6010
 7483SOL    HW125854   6.464   9.815   7.949 -0.0147  0.6293  0.0895
 7483SOL    HW225855   6.412   9.839   7.809 -1.2770 -0.5038  0.3536
 7484SOL     OW25856   5.364   4.164   0.013  0.3248  0.4042  0.4453
 7484SOL    HW125857   5.346   4.090  -0.045 -0.6944 -0.0546  1.3500
 7484SOL    HW225858   5.299   4.229  -0.010  0.4182  0.5287  0.5333
 7485SOL     OW25859   2.607   8.575   7.762 -0.0857  0.0772 -0.0163
 7485SOL    HW125860   2.591   8.486   7.791  1.7002 -0.2374  0.0429
 7485SOL    HW225861   2.694   8.596   7.795 -0.2775  1.6614 -0.4652
 7486SOL     OW25862   9.096   7.903   0.444 -0.6823  0.1726  0.2261
 7486SOL    HW125863   9.171   7.930   0.497 -1.1334  1.5355  0.1830
 7486SOL    HW225864   9.098   7.961   0.368  0.1949 -2.0351 -1.4914
 7487SOL     OW25865   2.297   7.927   9.077 -0.9305  0.3521  0.1279
 7487SOL    HW125866   2.299   7.900   9.169  1.3371  0.1828  0.0502
 7487SOL    HW225867   2.236   8.001   9.075 -0.4156  0.8410  1.8940
 7488SOL     OW25868   7.583  10.424   9.153  0.6285 -0.3271  0.9652
 7488SOL    HW125869   7.650  10.477   9.195  2.9356 -2.1089 -0.3255
 7488SOL    HW225870   7.618  10.334   9.157 -0.6276 -0.9950 -1.6790
 7489SOL     OW25871   9.764   8.773   5.549  0.2374 -0.6918 -0.6234
 7489SOL    HW125872   9.773   8.868   5.552 -0.9042 -0.5965  0.1348
 7489SOL    HW225873   9.735   8.754   5.460 -0.0459 -0.2757 -0.6226
 7490SOL     OW25874   1.857   0.239   0.435  0.5526 -0.0979 -0.2181
 7490SOL    HW125875   1.797   0.176   0.394  0.4021 -1.3284  1.8307
 7490SOL    HW225876   1.944   0.210   0.408  0.3018  1.3214 -2.6880
 7491SOL     OW25877   0.840   1.382   7.638  0.0085 -0.6550  0.5538
 7491SOL    HW125878   0.926   1.423   7.626 -0.7080  1.0359  1.0438
 7491SOL    HW225879   0.798   1.390   7.552  0.0532 -0.8155  0.5168
 7492SOL     OW25880   4.644  10.223   8.215  0.1414 -0.8031 -0.7656
 7492SOL    HW125881   4.693  10.155   8.168  0.4327  0.2748 -2.0322
 7492SOL    HW225882   4.706  10.295   8.226 -0.4973 -0.3026 -0.3867
 7493SOL     OW25883   9.183   3.072  10.095 -0.3495  0.9459 -0.4445
 7493SOL    HW125884   9.107   3.021  10.065 -0.1895  1.3551 -1.5834
 7493SOL    HW225885   9.212   3.028  10.175 -1.5012  0.5037 -0.2637
 7494SOL     OW25886   3.353   4.972  10.281  0.0081  0.0814 -0.2434
 7494SOL    HW125887   3.285   4.905  10.292 -0.3058  0.4092 -0.1636
 7494SOL    HW225888   3.428   4.925  10.244 -0.3970 -0.2115 -0.6973
 7495SOL     OW25889   0.984   0.303   2.858  0.0889  0.1582  0.1327
 7495SOL    HW125890   0.993   0.321   2.764  1.9740  0.9746  0.4472
 7495SOL    HW225891   1.057   0.246   2.879 -0.8052 -0.7081  0.9544
 7496SOL     OW25892   7.355   2.995  10.234  0.1362 -0.4659 -0.7292
 7496SOL    HW125893   7.343   2.990  10.139 -2.5998 -0.5838 -0.4005
 7496SOL    HW225894   7.314   3.077  10.260  1.0807 -0.3114  0.3483
 7497SOL     OW25895   6.809   0.586   3.517 -0.3643  0.0703  0.6555
 7497SOL    HW125896   6.735   0.531   3.540 -0.9175  0.1205 -0.9286
 7497SOL    HW225897   6.772   0.654   3.461  0.6130  1.0067  1.1153
 7498SOL     OW25898  10.078   1.474   9.796 -0.6307  0.3879  0.0035
 7498SOL    HW125899  10.005   1.522   9.836 -2.2285 -1.2324 -0.8472
 7498SOL    HW225900  10.043   1.445   9.711  0.9419 -0.5722 -0.3332
 7499SOL     OW25901  10.854   2.289   8.955 -0.7379  0.0396 -0.2803
 7499SOL    HW125902  10.769   2.322   8.927 -0.8755 -1.1733 -1.3734
 7499SOL    HW225903  10.868   2.328   9.041 -2.7419 -0.3287  0.2387
 7500SOL     OW25904   1.615   3.143  10.140  0.7408  0.0513  0.2565
 7500SOL    HW125905   1.535   3.112  10.182  1.0328 -0.7733  0.2238
 7500SOL    HW225906   1.679   3.152  10.211 -0.0606  3.1106  0.6645
 7501SOL     OW25907   4.806   0.451   1.049  0.8461 -0.3928 -0.3443
 7501SOL    HW125908   4.764   0.380   1.097  0.7299 -0.2357 -0.2110
 7501SOL    HW225909   4.769   0.530   1.087  1.9323 -0.2249  0.3817
 7502SOL     OW25910   7.655  10.940   1.313  0.0015  0.1957 -0.2910
 7502SOL    HW125911   7.700  11.021   1.338 -1.8812  1.3477 -0.5124
 7502SOL    HW225912   7.689  10.919   1.227  0.5475  0.7196 -0.2092
 7503SOL     OW25913   5.143   0.632  10.013  0.2605  0.2545 -0.2851
 7503SOL    HW125914   5.207   0.700   9.995 -0.0619  1.1392  1.8296
 7503SOL    HW225915   5.194   0.557  10.041  0.4405  0.6264  0.3871
 7504SOL     OW25916   7.678   5.847   4.413  0.4874  0.5217  0.3919
 7504SOL    HW125917   7.669   5.827   4.506  2.3023  1.1074  0.7043
 7504SOL    HW225918   7.772   5.850   4.397  0.2123 -0.2719 -1.6265
 7505SOL     OW25919   2.062   5.239   7.034  0.4084  0.6525 -0.8139
 7505SOL    HW125920   2.045   5.173   6.967 -0.1787  0.3438 -0.3633
 7505SOL    HW225921   2.156   5.233   7.052  0.3819  0.0614 -0.8938
 7506SOL     OW25922   5.937   0.247   3.168 -0.4424 -0.6105  0.0540
 7506SOL    HW125923   5.910   0.229   3.078 -0.3569  1.9446 -0.5056
 7506SOL    HW225924   5.859   0.285   3.209  0.1478  0.1893  0.4425
 7507SOL     OW25925   4.431   5.347   3.558 -0.3355 -0.0174 -0.4511
 7507SOL    HW125926   4.387   5.416   3.508 -0.1836  1.8611  1.9245
 7507SOL    HW225927   4.374   5.271   3.550 -2.7759  1.6705  0.5073
 7508SOL     OW25928   4.139  10.204   2.124 -0.4937 -0.1054  0.4469
 7508SOL    HW125929   4.089  10.128   2.095 -2.5666  1.5659 -0.4974
 7508SOL    HW225930   4.113  10.274   2.064 -0.1945  1.8605  2.5343
 7509SOL     OW25931   0.481   8.922   7.079 -0.4197  0.7337  0.1367
 7509SOL    HW125932   0.398   8.927   7.126 -0.2964  1.2291  0.3024
 7509SOL    HW225933   0.460   8.951   6.990 -0.3656  1.1487  0.2567
 7510SOL     OW25934   0.457   4.170   9.648  0.4111  0.1677  0.3377
 7510SOL    HW125935   0.512   4.126   9.584 -1.2524 -0.7514 -0.4984
 7510SOL    HW225936   0.458   4.262   9.620  1.6363  0.1931  0.4369
 7511SOL     OW25937   8.258  10.500   0.856 -0.5299 -0.7203  0.4071
 7511SOL    HW125938   8.228  10.588   0.880 -0.1851  0.1524 -2.1306
 7511SOL    HW225939   8.353  10.509   0.847 -0.4373 -1.4664  0.6528
 7512SOL     OW25940   0.854   5.182   9.806 -0.9009 -0.1876 -0.2449
 7512SOL    HW125941   0.908   5.108   9.833 -3.0676 -1.6891  0.1042
 7512SOL    HW225942   0.911   5.235   9.751  0.5072 -2.4602 -1.0339
 7513SOL     OW25943   0.466   9.366   8.755  0.0622  0.1327  0.2195
 7513SOL    HW125944   0.465   9.434   8.688 -0.8904  0.8757  0.9747
 7513SOL    HW225945   0.549   9.379   8.801  0.7637 -0.4423 -0.8573
 7514SOL     OW25946   5.925   2.490   2.241  0.1205 -0.2346 -0.0354
 7514SOL    HW125947   5.856   2.468   2.178 -0.6925  0.9856  0.4355
 7514SOL    HW225948   6.002   2.507   2.186 -0.1544 -0.7735 -0.5995
 7515SOL     OW25949   2.702   1.496   9.532  0.0029  0.5965 -0.0174
 7515SOL    HW125950   2.699   1.424   9.596 -1.6132 -0.3629 -1.1393
 7515SOL    HW225951   2.692   1.575   9.585  1.3500 -0.0166  1.1851
 7516SOL     OW25952   1.358  10.060   1.747 -0.1818  0.6733 -0.4542
 7516SOL    HW125953   1.340   9.992   1.683 -0.6034  0.6300 -0.2871
 7516SOL    HW225954   1.454  10.066   1.749 -0.1431 -0.0042 -0.3650
 7517SOL     OW25955   8.460   6.091   4.178 -0.0122  0.5242 -0.2122
 7517SOL    HW125956   8.518   6.166   4.165 -0.9232  1.4540  0.9015
 7517SOL    HW225957   8.500   6.041   4.249  0.4657  0.0785 -0.7899
 7518SOL     OW25958   4.455   4.800  10.744 -0.0395  0.0848 -0.0484
 7518SOL    HW125959   4.380   4.832  10.694 -1.1525 -2.6134 -0.1940
 7518SOL    HW225960   4.416   4.753  10.818  1.5153 -0.5306  0.4065
 7519SOL     OW25961  10.371   4.508   7.301  0.1773 -0.1880  0.0381
 7519SOL    HW125962  10.317   4.587   7.304  0.4233 -0.0280  0.2735
 7519SOL    HW225963  10.346   4.459   7.380  0.9942  0.2944  0.6024
 7520SOL     OW25964   5.233   4.567   9.737 -0.2783 -0.9910 -0.0379
 7520SOL    HW125965   5.262   4.523   9.817 -1.3199  1.6953  1.8997
 7520SOL    HW225966   5.154   4.615   9.763 -1.2348 -0.8784 -2.9500
 7521SOL     OW25967   0.043   8.041   9.129  0.1147  0.5511 -0.2915
 7521SOL    HW125968  -0.038   8.061   9.176  0.1179  1.0358 -0.4822
 7521SOL    HW225969   0.014   8.001   9.047  0.1332 -0.9470  0.4287
 7522SOL     OW25970   2.744   9.592   4.752 -0.4126  0.1141  0.2134
 7522SOL    HW125971   2.793   9.510   4.744  0.8857  0.9099  0.0920
 7522SOL    HW225972   2.741   9.609   4.846  1.1759  1.0559  0.1005
 7523SOL     OW25973   4.073   5.294   7.494  0.3086 -0.1439  0.0809
 7523SOL    HW125974   4.168   5.286   7.499  0.2235 -0.3577  1.9194
 7523SOL    HW225975   4.042   5.257   7.577 -1.3691 -0.0758 -0.5064
 7524SOL     OW25976  10.620   9.214   2.501  0.6248 -0.0056  0.2575
 7524SOL    HW125977  10.604   9.300   2.463  2.0748 -0.1880 -0.8253
 7524SOL    HW225978  10.715   9.210   2.512  0.4221 -0.8308  1.8520
 7525SOL     OW25979   6.899   3.089   2.333 -0.1863 -0.0135 -0.1352
 7525SOL    HW125980   6.827   3.088   2.269  0.8161  0.8155 -1.3246
 7525SOL    HW225981   6.886   3.170   2.382 -0.6057 -0.3352  0.2757
 7526SOL     OW25982   1.892   8.153   7.249 -0.5175  0.3595  0.1486
 7526SOL    HW125983   1.846   8.105   7.180 -0.0252 -0.0083  0.0782
 7526SOL    HW225984   1.909   8.088   7.317 -0.3656  0.5652  0.3097
 7527SOL     OW25985   4.910   9.661   4.774 -0.4961 -0.2283 -0.1196
 7527SOL    HW125986   4.909   9.752   4.805 -0.1945  0.0420 -0.8812
 7527SOL    HW225987   4.863   9.664   4.691 -1.9759 -1.0904  0.6839
 7528SOL     OW25988   7.529   1.783   0.269 -0.4597  0.2626 -0.2730
 7528SOL    HW125989   7.485   1.852   0.319  0.1238  0.0463  0.5557
 7528SOL    HW225990   7.586   1.740   0.333 -0.8630 -1.0298 -0.7601
 7529SOL     OW25991   4.636   3.899   5.186  0.7493  0.0526  0.1561
 7529SOL    HW125992   4.651   3.944   5.103 -1.3530  0.4564 -0.0368
 7529SOL    HW225993   4.640   3.968   5.252  1.9348 -0.1918  0.3468
 7530SOL     OW25994   3.651   4.553   4.000 -0.2642 -0.3107 -0.2404
 7530SOL    HW125995   3.708   4.557   3.923  0.5735  1.4156  0.4361
 7530SOL    HW225996   3.563   4.562   3.965 -0.0761 -2.1678 -1.2240
 7531SOL     OW25997   0.227   4.072  10.616 -0.4232  0.1052  0.4423
 7531SOL    HW125998   0.147   4.042  10.659 -1.4223  1.2064 -0.6061
 7531SOL    HW225999   0.216   4.046  10.524 -0.4716  1.9580 -0.1022
 7532SOL     OW26000   0.628   9.631   0.919  0.2626 -0.0512  0.5048
 7532SOL    HW126001   0.600   9.647   0.829  0.6468 -0.1993  0.3602
 7532SOL    HW226002   0.648   9.718   0.954 -0.2904  0.0491  0.5807
 7533SOL     OW26003   8.770   8.226   2.258  0.0005  0.6744  0.2406
 7533SOL    HW126004   8.784   8.144   2.210 -0.1766  0.9666 -0.3068
 7533SOL    HW226005   8.851   8.240   2.306  0.1022  0.2753  0.1865
 7534SOL     OW26006   4.237   6.469   2.456 -0.0023  0.4028 -0.0129
 7534SOL    HW126007   4.196   6.537   2.401  0.3719  0.2714 -0.4625
 7534SOL    HW226008   4.218   6.387   2.410  1.3599  0.4058 -0.6001
 7535SOL     OW26009  10.160   1.451   5.269  0.0131 -0.0494 -0.5758
 7535SOL    HW126010  10.170   1.526   5.210 -1.5964  0.4462 -0.2687
 7535SOL    HW226011  10.076   1.467   5.313  0.5218 -1.1218  0.8187
 7536SOL     OW26012   3.084   7.421   0.729 -0.2401  0.3059 -0.5190
 7536SOL    HW126013   3.111   7.359   0.661 -0.4189 -0.8079  0.4165
 7536SOL    HW226014   2.989   7.416   0.730 -0.1683 -0.9667  0.9944
 7537SOL     OW26015   7.924   7.125   7.542  0.2345  0.0686  0.5135
 7537SOL    HW126016   7.994   7.171   7.495 -1.8475  1.4716 -1.3738
 7537SOL    HW226017   7.876   7.079   7.473 -0.3498 -1.3450  1.8448
 7538SOL     OW26018   0.936   9.692   3.851 -0.1905 -0.1142 -0.2474
 7538SOL    HW126019   0.991   9.616   3.866 -0.2408 -0.4200 -1.5226
 7538SOL    HW226020   0.856   9.657   3.813 -1.9796  0.1562  3.1451
 7539SOL     OW26021   8.262   3.993   0.125  0.5842  0.0330  0.0447
 7539SOL    HW126022   8.322   4.015   0.053  0.5947 -1.6351 -0.4725
 7539SOL    HW226023   8.299   3.914   0.163  0.6317  0.9639  1.9777
 7540SOL     OW26024   6.965   1.835   6.233 -0.2865  0.7225 -0.5106
 7540SOL    HW126025   6.991   1.756   6.187  2.9896  1.0904  0.6134
 7540SOL    HW226026   7.017   1.905   6.192  0.5830  1.4869  1.8440
 7541SOL     OW26027   0.361   6.585   3.572  0.0380 -0.3088  0.2016
 7541SOL    HW126028   0.416   6.559   3.498 -0.3721  2.3427 -1.1002
 7541SOL    HW226029   0.412   6.561   3.650  1.7295 -0.5410 -0.9643
 7542SOL     OW26030   9.816   8.554  10.386 -0.2580 -0.1277 -0.3906
 7542SOL    HW126031   9.842   8.606  10.310  1.1484  0.0661  0.2111
 7542SOL    HW226032   9.761   8.612  10.438  1.6377  0.9438  0.4890
 7543SOL     OW26033   0.400   3.073   3.234  0.1902  0.1917 -0.1095
 7543SOL    HW126034   0.371   2.982   3.232  2.6906 -0.6511 -0.4630
 7543SOL    HW226035   0.367   3.108   3.316 -3.1679 -0.1809 -1.2335
 7544SOL     OW26036   5.626   0.812   4.101 -0.3296 -0.3659  0.1450
 7544SOL    HW126037   5.700   0.767   4.061  0.0079 -0.1899  0.5670
 7544SOL    HW226038   5.596   0.753   4.170 -1.7798 -1.2912 -1.2476
 7545SOL     OW26039   2.798   7.158   1.261 -0.4950  0.3955  0.7815
 7545SOL    HW126040   2.839   7.236   1.223  0.0271  0.8761  2.3029
 7545SOL    HW226041   2.710   7.157   1.223 -0.6488  1.9539  1.0457
 7546SOL     OW26042   5.981   5.603   1.977 -0.6027  0.1630  0.2357
 7546SOL    HW126043   5.942   5.610   2.063  3.0034 -0.1055  1.9911
 7546SOL    HW226044   6.055   5.544   1.989  2.1597  2.9328 -2.2004
 7547SOL     OW26045   2.317   6.393  10.165  0.1495 -0.1512  0.0904
 7547SOL    HW126046   2.350   6.305  10.185  0.6768 -0.0704 -0.3998
 7547SOL    HW226047   2.395   6.443  10.143 -0.2183  0.2756 -0.2543
 7548SOL     OW26048   9.386   9.133   7.142 -0.4599  0.5366 -0.1037
 7548SOL    HW126049   9.305   9.141   7.092 -0.0253 -2.6973 -1.4674
 7548SOL    HW226050   9.358   9.118   7.232 -1.3272  1.6778 -0.1757
 7549SOL     OW26051   3.979   5.185   1.144  0.3763  0.1433  0.4176
 7549SOL    HW126052   3.985   5.140   1.229  0.3216 -0.0189  0.3363
 7549SOL    HW226053   4.026   5.267   1.157  0.1058  0.2579  0.6969
 7550SOL     OW26054   3.988   1.758  10.067  0.1847  0.4589 -0.2014
 7550SOL    HW126055   3.911   1.755  10.011  1.1251 -1.2725 -1.4371
 7550SOL    HW226056   3.984   1.844  10.109 -0.5462  1.7659 -2.8775
 7551SOL     OW26057   1.578   5.540  10.349  0.6177  0.2867 -0.1768
 7551SOL    HW126058   1.571   5.570  10.440  1.0774 -0.0606 -0.0265
 7551SOL    HW226059   1.671   5.548  10.328  0.3198  1.6744 -1.0702
 7552SOL     OW26060   5.327   1.717   4.627  0.0309  0.3204 -0.0898
 7552SOL    HW126061   5.362   1.663   4.697 -0.0387 -1.5635 -1.4586
 7552SOL    HW226062   5.278   1.655   4.572 -1.2091  2.0247 -0.9480
 7553SOL     OW26063   9.285   8.878   0.290  0.4070  0.1836 -0.5151
 7553SOL    HW126064   9.324   8.940   0.352  1.6577  0.9392 -2.0333
 7553SOL    HW226065   9.219   8.931   0.243 -0.0529 -0.2116 -0.3228
 7554SOL     OW26066   0.471   8.220   7.272 -0.0379 -0.2236  0.6715
 7554SOL    HW126067   0.474   8.125   7.282  0.2051 -0.0157  2.7343
 7554SOL    HW226068   0.562   8.246   7.259  0.0143 -0.1715  1.1375
 7555SOL     OW26069   4.950   9.562  10.481  0.3666 -0.7528 -0.3001
 7555SOL    HW126070   4.980   9.497  10.545 -2.6798 -1.8297  0.1294
 7555SOL    HW226071   4.957   9.517  10.397  0.0090 -0.9754 -0.2104
 7556SOL     OW26072   1.185   4.220   2.936 -0.3613  0.0922  0.5472
 7556SOL    HW126073   1.165   4.287   2.871 -0.3377  0.3503  0.8015
 7556SOL    HW226074   1.131   4.244   3.012  0.3732  0.3709  0.9786
 7557SOL     OW26075   1.200   0.202   3.759  0.3760  0.0416  0.2353
 7557SOL    HW126076   1.185   0.293   3.784  0.5319 -0.1087  0.8947
 7557SOL    HW226077   1.127   0.154   3.798  0.0605 -0.0556 -0.4783
 7558SOL     OW26078   6.307   8.305   6.838  0.1085 -1.1449 -0.5205
 7558SOL    HW126079   6.286   8.338   6.751  0.1660  1.9538  0.5578
 7558SOL    HW226080   6.230   8.254   6.864 -0.0116 -1.8739 -2.2602
 7559SOL     OW26081   7.862   2.068   5.775  0.2068  0.2241  0.2249
 7559SOL    HW126082   7.909   2.063   5.691  1.9273  1.2098  1.0956
 7559SOL    HW226083   7.925   2.035   5.839 -0.8870  0.0509  1.2191
 7560SOL     OW26084   7.008   3.780   0.265 -0.1067  0.2071  0.0969
 7560SOL    HW126085   7.043   3.785   0.353 -2.6290 -0.2490  1.1678
 7560SOL    HW226086   7.066   3.836   0.213  2.3050 -0.7181  1.6859
 7561SOL     OW26087   9.470   1.853   5.243 -0.6613  0.3219  0.6389
 7561SOL    HW126088   9.413   1.785   5.207  1.7387 -0.9749 -0.8316
 7561SOL    HW226089   9.466   1.840   5.338 -1.1909 -1.0797  0.4378
 7562SOL     OW26090   7.895   8.088   1.039 -0.2066  0.3281 -0.2935
 7562SOL    HW126091   7.893   8.015   0.977  2.5769 -0.1705  0.1241
 7562SOL    HW226092   7.826   8.068   1.103  0.7155 -2.1058 -0.0097
 7563SOL     OW26093   3.623  10.268   5.281  0.0226 -0.0810  0.2792
 7563SOL    HW126094   3.616  10.352   5.235 -0.1781 -0.4736 -0.4084
 7563SOL    HW226095   3.543  10.263   5.333 -0.2513 -0.1164 -0.1425
 7564SOL     OW26096   8.475   7.681   0.992  1.1485  0.5508 -0.4520
 7564SOL    HW126097   8.404   7.739   1.016  1.7185  0.7582  0.7831
 7564SOL    HW226098   8.483   7.690   0.897 -1.9977 -1.2327 -0.9781
 7565SOL     OW26099   7.029   5.338   4.044 -0.0834  0.5872  0.5925
 7565SOL    HW126100   7.051   5.358   4.135  2.3549  0.5028  0.0454
 7565SOL    HW226101   7.036   5.242   4.038 -0.7255  0.5450  0.4121
 7566SOL     OW26102  10.213   5.528   3.770 -0.0763  0.5322  0.5661
 7566SOL    HW126103  10.258   5.612   3.766 -0.8682  0.9482  0.1778
 7566SOL    HW226104  10.127   5.548   3.807  0.0479 -0.2427  1.2788
 7567SOL     OW26105   0.820   4.718   4.754  0.3453  0.1753  0.1373
 7567SOL    HW126106   0.824   4.628   4.786  0.1628 -0.5375 -1.7823
 7567SOL    HW226107   0.821   4.772   4.834 -0.5230 -1.5361  1.3384
 7568SOL     OW26108   5.906   0.003   8.258 -0.1005 -0.5066 -0.1788
 7568SOL    HW126109   5.963   0.031   8.187  1.1071 -0.0436  0.9480
 7568SOL    HW226110   5.933  -0.088   8.275  0.6459 -0.1302  0.6776
 7569SOL     OW26111   2.397   5.079   2.752  0.1502 -0.4256 -0.0451
 7569SOL    HW126112   2.441   5.164   2.754  1.9905 -1.3883  2.4240
 7569SOL    HW226113   2.317   5.093   2.803 -0.7084  0.3950 -1.5766
 7570SOL     OW26114   8.670   2.050   1.788  0.0685  0.3887  0.2987
 7570SOL    HW126115   8.626   2.061   1.872 -1.6350 -0.4865 -0.4523
 7570SOL    HW226116   8.666   2.136   1.747 -0.8358  0.3615  0.3096
 7571SOL     OW26117   1.859   4.010   7.523  0.4008 -0.6045 -0.4315
 7571SOL    HW126118   1.849   3.967   7.607 -0.1315  0.5224  0.0954
 7571SOL    HW226119   1.943   3.977   7.489  0.7091 -0.9258  0.6146
 7572SOL     OW26120   9.993   9.599   2.641 -0.4997  0.7598  0.0787
 7572SOL    HW126121   9.978   9.577   2.550 -0.4391  0.0546  0.2333
 7572SOL    HW226122  10.060   9.537   2.670 -0.7075  0.8025  0.6710
 7573SOL     OW26123   3.577   9.070   2.074  0.2145 -0.4051 -0.2794
 7573SOL    HW126124   3.510   9.079   2.006 -0.0292  0.2585  0.0433
 7573SOL    HW226125   3.572   9.152   2.123  1.3685 -0.2870 -0.3520
 7574SOL     OW26126   1.486   3.564   2.380  0.1343 -0.3072  0.4075
 7574SOL    HW126127   1.507   3.513   2.458 -0.5412 -2.1383 -0.5846
 7574SOL    HW226128   1.409   3.616   2.406  0.6406 -0.0043  1.3298
 7575SOL     OW26129   2.265  10.602   1.837  0.0940  0.3068 -0.0990
 7575SOL    HW126130   2.213  10.682   1.821 -0.3348  0.2907  1.1074
 7575SOL    HW226131   2.233  10.539   1.773  1.2092  1.4444 -1.7971
 7576SOL     OW26132   4.139   2.073   3.131  0.1055  0.5873  0.1802
 7576SOL    HW126133   4.197   2.025   3.072  0.7327  2.0144 -0.4179
 7576SOL    HW226134   4.053   2.035   3.117  0.9379 -1.7561  1.2969
 7577SOL     OW26135   6.737   2.714  10.661  0.4457 -0.2326  0.4280
 7577SOL    HW126136   6.662   2.771  10.643 -0.1531 -0.8267  1.0086
 7577SOL    HW226137   6.791   2.763  10.722  2.2760  1.6336 -2.5723
 7578SOL     OW26138   2.830   1.254   0.914  0.3937  0.1257 -0.0925
 7578SOL    HW126139   2.783   1.267   0.997  0.3411 -2.5041  0.3338
 7578SOL    HW226140   2.768   1.208   0.858  1.2179 -0.1454 -0.7989
 7579SOL     OW26141   7.323  10.376   8.728 -0.4326 -0.1479  0.2203
 7579SOL    HW126142   7.356  10.450   8.780 -0.4615  1.7124 -2.3058
 7579SOL    HW226143   7.401  10.321   8.714 -0.2474 -0.2292  1.4642
 7580SOL     OW26144   9.229   4.394   3.854  0.4749  0.3803  0.1874
 7580SOL    HW126145   9.155   4.339   3.832 -0.2714  2.1193 -1.8544
 7580SOL    HW226146   9.193   4.461   3.913 -0.0454  2.2214 -2.1134
 7581SOL     OW26147   4.631   9.218   2.950  0.0037 -0.7855  0.3236
 7581SOL    HW126148   4.586   9.138   2.976 -0.3914 -0.3319  1.0495
 7581SOL    HW226149   4.699   9.230   3.016  0.7488 -1.0900 -0.3772
 7582SOL     OW26150   5.214  10.082   1.766 -0.3990  0.1316  0.5362
 7582SOL    HW126151   5.166  10.003   1.739  1.4300 -0.3562 -1.3710
 7582SOL    HW226152   5.306  10.057   1.761  0.2513  2.7395 -1.2440
 7583SOL     OW26153   4.025   2.205   1.413 -0.0038  0.3941 -0.5737
 7583SOL    HW126154   4.114   2.206   1.448 -0.2131 -1.8488  0.0747
 7583SOL    HW226155   3.990   2.119   1.436 -2.1852  1.0553 -1.2362
 7584SOL     OW26156   3.079   1.948   6.507 -0.4167  0.2766 -0.1343
 7584SOL    HW126157   3.036   1.896   6.439 -0.3013 -0.5950  0.4525
 7584SOL    HW226158   3.161   1.975   6.467  0.4489 -1.6932  0.2407
 7585SOL     OW26159   5.807   3.997   9.236 -0.1641  0.1304  0.3949
 7585SOL    HW126160   5.761   3.998   9.152 -0.2839 -1.3433  0.4207
 7585SOL    HW226161   5.740   4.019   9.301 -0.0009  1.5768  0.0830
 7586SOL     OW26162   5.069   0.841   3.193  0.0860  0.2330 -0.2523
 7586SOL    HW126163   5.060   0.780   3.266 -1.0584  0.4369 -0.2103
 7586SOL    HW226164   5.050   0.789   3.115  0.1012  0.3034 -0.3038
 7587SOL     OW26165   1.806   5.550   2.372  0.2754 -0.0577 -0.3319
 7587SOL    HW126166   1.834   5.623   2.317  0.0784  0.5600  0.3805
 7587SOL    HW226167   1.766   5.488   2.311 -1.6604  1.4727 -0.6832
 7588SOL     OW26168   5.073   5.164   0.401  0.3161  0.1407 -0.4751
 7588SOL    HW126169   5.053   5.095   0.463  2.6681  0.5314  0.7913
 7588SOL    HW226170   5.084   5.243   0.455  2.6887  0.4207 -1.2763
 7589SOL     OW26171   1.359   9.395   3.276 -0.3289  0.2826 -0.3384
 7589SOL    HW126172   1.412   9.425   3.202 -1.6568  0.0536 -1.4073
 7589SOL    HW226173   1.269   9.415   3.251 -0.7560  0.8688  1.5423
 7590SOL     OW26174   4.820   5.056   1.648  0.3854  0.1190 -0.4612
 7590SOL    HW126175   4.784   5.132   1.604 -0.0714 -1.2822 -2.5996
 7590SOL    HW226176   4.914   5.059   1.629  0.2162 -0.3841 -1.3724
 7591SOL     OW26177   5.153   0.247  10.429 -0.0177  0.2160  0.3913
 7591SOL    HW126178   5.171   0.319  10.489 -0.2484  1.7048 -1.2839
 7591SOL    HW226179   5.240   0.216  10.402  0.1006  1.2259 -0.4431
 7592SOL     OW26180   1.418   8.534   1.747  0.2360 -0.5784 -0.2273
 7592SOL    HW126181   1.351   8.593   1.714 -0.7638 -0.7991  1.3931
 7592SOL    HW226182   1.443   8.569   1.832  4.2334  1.1022 -1.9886
 7593SOL     OW26183  10.502   9.781   4.934 -0.1436  0.2499  0.4823
 7593SOL    HW126184  10.427   9.831   4.902 -0.8468  1.1451  3.3201
 7593SOL    HW226185  10.515   9.813   5.024  2.1892 -1.5400  0.8295
 7594SOL     OW26186   9.785   2.518   8.700  0.5037 -0.3665 -0.1792
 7594SOL    HW126187   9.815   2.544   8.787 -0.8462 -3.2994  1.2364
 7594SOL    HW226188   9.693   2.494   8.712 -0.9368  2.9412 -3.2684
 7595SOL     OW26189   3.982  10.808   0.621  0.3415 -0.9143  0.1278
 7595SOL    HW126190   4.006  10.886   0.671 -1.1900 -0.3180 -0.0600
 7595SOL    HW226191   3.909  10.836   0.566 -0.4091 -2.5445  0.2622
 7596SOL     OW26192  10.437   7.475   4.214 -0.3443 -0.4444 -0.5203
 7596SOL    HW126193  10.350   7.481   4.254 -0.0881  1.3380 -0.2223
 7596SOL    HW226194  10.474   7.394   4.251 -1.6096 -0.8721 -0.1525
 7597SOL     OW26195   0.157   3.903   6.109  0.3792  0.1220 -0.2484
 7597SOL    HW126196   0.203   3.957   6.045 -0.5679  1.2627  0.0017
 7597SOL    HW226197   0.076   3.952   6.127  0.5756 -0.2433  1.7128
 7598SOL     OW26198   8.674   1.986   0.325  0.2001 -0.2187 -0.1221
 7598SOL    HW126199   8.758   1.943   0.337  0.1160 -0.1074  0.9190
 7598SOL    HW226200   8.611   1.929   0.369 -0.1530  0.1053 -0.2025
 7599SOL     OW26201   2.050   0.965   9.458  0.4550  0.0242  0.0551
 7599SOL    HW126202   2.081   0.877   9.440  0.2625 -0.3236  1.3909
 7599SOL    HW226203   2.015   0.995   9.374 -1.3220 -1.9345  0.0487
 7600SOL     OW26204   5.098  10.887   4.526 -0.6162 -0.0745 -0.1810
 7600SOL    HW126205   5.191  10.873   4.513 -0.5873 -0.2271  0.1772
 7600SOL    HW226206   5.078  10.966   4.475  0.0653  0.9496  1.0994
 7601SOL     OW26207   6.159   0.834   9.513  0.7461 -0.3300  0.6306
 7601SOL    HW126208   6.218   0.759   9.520  0.1791 -0.6713  1.9982
 7601SOL    HW226209   6.086   0.802   9.459  1.0937 -0.3611  0.1697
 7602SOL     OW26210   3.546  10.322   1.466  0.0832 -0.1400 -0.1711
 7602SOL    HW126211   3.558  10.231   1.493  1.1927 -0.1277 -0.5856
 7602SOL    HW226212   3.454  10.341   1.485 -0.0122 -1.1740  0.4353
 7603SOL     OW26213   6.316   0.217   4.533 -0.2059  0.6469  0.6493
 7603SOL    HW126214   6.235   0.201   4.484 -0.2705  1.3569  0.5236
 7603SOL    HW226215   6.292   0.204   4.625 -0.1314 -0.4994  0.5161
 7604SOL     OW26216   4.582   2.241   9.600  0.0559 -0.2293 -0.0280
 7604SOL    HW126217   4.566   2.147   9.600  1.6458 -0.5127  1.0549
 7604SOL    HW226218   4.671   2.250   9.632 -0.9840  1.8169  2.3974
 7605SOL     OW26219   8.971   2.677   4.209 -0.1824 -0.5990  0.1786
 7605SOL    HW126220   8.978   2.770   4.188 -0.5639 -0.0919  2.2417
 7605SOL    HW226221   8.924   2.639   4.134  0.0873  0.8389 -0.7276
 7606SOL     OW26222   1.988   3.440  10.136  0.1715 -0.1142 -0.4035
 7606SOL    HW126223   1.966   3.350  10.113 -0.6877 -0.3976  1.4393
 7606SOL    HW226224   2.053   3.433  10.206  0.1667  0.6905 -0.3030
 7607SOL     OW26225   4.813   8.044   3.658 -0.0504 -0.1035 -0.1237
 7607SOL    HW126226   4.772   7.958   3.671  0.1665 -0.1371  0.3296
 7607SOL    HW226227   4.739   8.105   3.654 -0.2811 -0.4353 -1.5523
 7608SOL     OW26228   1.028  10.217   8.456  0.1884  0.3510  0.2457
 7608SOL    HW126229   1.096  10.158   8.424  0.4142  0.4923  0.4741
 7608SOL    HW226230   0.969  10.161   8.506 -1.6500 -0.4126 -2.6417
 7609SOL     OW26231   9.220  10.907   8.396  0.3126  0.4732 -0.9129
 7609SOL    HW126232   9.249  10.969   8.329 -1.2310  1.6615 -0.5043
 7609SOL    HW226233   9.229  10.954   8.479  1.7977 -0.8356 -0.2870
 7610SOL     OW26234   7.910   8.575   8.929  0.1600  0.1453  0.1279
 7610SOL    HW126235   7.938   8.592   9.019  0.1957 -1.0280  0.3441
 7610SOL    HW226236   7.969   8.629   8.875  0.9877 -0.1258  0.7437
 7611SOL     OW26237   7.316   7.879   1.616 -0.2216 -0.3510 -0.5573
 7611SOL    HW126238   7.332   7.843   1.530  0.4150 -0.1462 -0.5288
 7611SOL    HW226239   7.221   7.893   1.620 -0.4219 -1.6733 -0.6914
 7612SOL     OW26240   5.411   1.700   7.538 -0.3937 -0.4632  0.0354
 7612SOL    HW126241   5.337   1.759   7.526 -0.5807 -0.7944 -0.4476
 7612SOL    HW226242   5.473   1.750   7.591 -0.4542  0.2466 -0.5608
 7613SOL     OW26243   8.035  10.437   1.621  0.0620 -0.1633  0.0334
 7613SOL    HW126244   8.078  10.427   1.536  1.3397  2.5172  0.3081
 7613SOL    HW226245   7.945  10.464   1.599 -0.0632 -0.9973 -0.4882
 7614SOL     OW26246   1.057  10.701   6.187  0.3094 -0.4805  0.5099
 7614SOL    HW126247   0.990  10.643   6.223  0.5335 -0.5423  0.8278
 7614SOL    HW226248   1.093  10.746   6.264  1.6921 -1.5583  0.5105
 7615SOL     OW26249   7.639  10.916   4.552  0.2522 -0.5798  0.3288
 7615SOL    HW126250   7.557  10.902   4.504  0.6626  1.7455 -1.1453
 7615SOL    HW226251   7.610  10.950   4.637 -0.3537 -0.3773  0.0514
 7616SOL     OW26252   8.941   1.922   6.669 -0.5663  0.1367  0.3846
 7616SOL    HW126253   9.023   1.913   6.718 -1.5124  0.1015  2.0094
 7616SOL    HW226254   8.905   2.006   6.698 -2.7487 -1.3996  2.2916
 7617SOL     OW26255   2.074   4.795  10.008  0.3968 -0.1705  0.0147
 7617SOL    HW126256   2.129   4.720  10.032 -1.6359 -1.1190  1.8210
 7617SOL    HW226257   2.003   4.756   9.957 -0.3918  0.6334  0.5111
 7618SOL     OW26258   8.849   8.939   5.570  0.1547 -0.0784  0.5047
 7618SOL    HW126259   8.892   8.999   5.632 -0.5256  1.0893 -0.1325
 7618SOL    HW226260   8.801   8.997   5.510  0.9886 -1.1643 -1.2571
 7619SOL     OW26261   7.852   5.231   1.434 -0.2860 -0.0345  0.5383
 7619SOL    HW126262   7.883   5.179   1.508  1.4529  0.4699  0.1899
 7619SOL    HW226263   7.932   5.255   1.386 -1.2488  1.0344 -0.5719
 7620SOL     OW26264   5.837   1.399   2.973  0.1050  0.3506 -0.2455
 7620SOL    HW126265   5.909   1.409   2.910  1.4977 -2.3005  0.8890
 7620SOL    HW226266   5.789   1.323   2.943  0.7456 -0.9131  1.8142
 7621SOL     OW26267   7.077   9.105   5.321  0.2465  0.3717  0.0009
 7621SOL    HW126268   7.082   9.095   5.226  0.2754  0.5300 -0.0143
 7621SOL    HW226269   7.168   9.115   5.349  0.1154  2.1303 -0.1502
 7622SOL     OW26270   7.356   1.505   6.867  0.3440 -0.3297 -0.0311
 7622SOL    HW126271   7.382   1.447   6.939  0.8316 -0.3361 -0.2067
 7622SOL    HW226272   7.263   1.485   6.852  0.0553  0.1913  1.0666
 7623SOL     OW26273   8.003  10.883   6.463 -0.2711  0.3095 -0.1330
 7623SOL    HW126274   7.930  10.832   6.427  1.8123 -1.6787 -1.6630
 7623SOL    HW226275   8.007  10.858   6.555 -1.2792  0.1337 -0.1316
 7624SOL     OW26276   7.199   1.307   0.887  0.4513  0.0566  0.3386
 7624SOL    HW126277   7.168   1.296   0.797  0.3107 -0.1183  0.4094
 7624SOL    HW226278   7.216   1.219   0.918 -0.1587  0.0716  0.7171
 7625SOL     OW26279   9.077   5.527   5.277 -0.3322  0.7715  0.1601
 7625SOL    HW126280   9.117   5.441   5.293 -0.9043  0.7961  1.7718
 7625SOL    HW226281   9.152   5.586   5.267  0.0650  0.1297 -0.7537
 7626SOL     OW26282  10.936  10.025   2.095  0.0880  0.1840  0.2324
 7626SOL    HW126283  11.013   9.973   2.071  0.3446  0.0123  1.4047
 7626SOL    HW226284  10.871  10.003   2.028  1.1740  0.6276 -0.9933
 7627SOL     OW26285   2.749   8.591   2.979  0.3486  0.1702  0.3278
 7627SOL    HW126286   2.727   8.647   2.905  1.2532  1.8098  1.2669
 7627SOL    HW226287   2.699   8.627   3.053 -0.8466 -1.6796  0.4709
 7628SOL     OW26288   9.746   3.190   2.028  0.0025 -0.4709 -0.4791
 7628SOL    HW126289   9.656   3.181   1.998 -0.4104 -0.0561  0.6323
 7628SOL    HW226290   9.799   3.176   1.949 -1.0762  0.8779 -1.4743
 7629SOL     OW26291  10.182   3.633   3.496  0.4474  0.4286  0.5479
 7629SOL    HW126292  10.102   3.676   3.466 -0.7859 -1.1220  1.5257
 7629SOL    HW226293  10.239   3.632   3.419 -1.5910 -1.0349 -0.9900
 7630SOL     OW26294   2.606   3.170   4.695  0.2136 -0.2836  0.6858
 7630SOL    HW126295   2.691   3.197   4.731  1.4510 -1.0995 -1.5797
 7630SOL    HW226296   2.582   3.093   4.746  2.3565 -1.9244 -0.7270
 7631SOL     OW26297   6.791   5.252   8.931 -0.7241  0.0897 -0.4298
 7631SOL    HW126298   6.815   5.287   8.845  0.5261 -1.2062 -0.6295
 7631SOL    HW226299   6.849   5.297   8.992 -0.7749  0.1233 -0.4062
 7632SOL     OW26300   0.102   9.550   5.245  0.4281 -0.1058  0.5135
 7632SOL    HW126301   0.093   9.462   5.208  1.5937  0.3194 -0.8186
 7632SOL    HW226302   0.051   9.546   5.326  0.5460 -2.0401  0.5370
 7633SOL     OW26303   0.467   8.124   4.867 -0.2357 -0.4380 -0.1869
 7633SOL    HW126304   0.486   8.212   4.834 -0.5703 -0.9278 -1.7004
 7633SOL    HW226305   0.413   8.139   4.944  1.9832  0.7830  1.1850
 7634SOL     OW26306   9.360   7.337   5.333  0.0432  0.0850  0.1745
 7634SOL    HW126307   9.340   7.244   5.322 -0.8592 -0.0369  2.5896
 7634SOL    HW226308   9.455   7.341   5.341  0.0361 -0.6809  0.6054
 7635SOL     OW26309   1.420   3.790   4.942 -0.4580 -0.3243 -0.3261
 7635SOL    HW126310   1.406   3.847   5.018  1.4890 -0.9034  0.5182
 7635SOL    HW226311   1.452   3.708   4.981  1.1242 -0.4279 -1.7975
 7636SOL     OW26312   2.759   1.354   1.781  0.4334  0.5859  0.5945
 7636SOL    HW126313   2.719   1.276   1.743  1.3522 -0.1336  1.0966
 7636SOL    HW226314   2.703   1.426   1.752  0.3269 -0.1080 -0.9554
 7637SOL     OW26315   0.709   3.173   5.547  0.4809 -0.6646  0.5048
 7637SOL    HW126316   0.742   3.100   5.599 -0.3003 -1.4629 -0.1162
 7637SOL    HW226317   0.727   3.149   5.456 -0.5727 -0.4936  0.2426
 7638SOL     OW26318   9.413   6.372   9.074  0.2536 -0.4019  0.2521
 7638SOL    HW126319   9.496   6.342   9.111 -0.7232 -2.9331  0.5310
 7638SOL    HW226320   9.438   6.428   9.000  2.1988 -0.0612  1.1352
 7639SOL     OW26321   0.596   3.343   2.833 -0.4935 -0.5556  0.1310
 7639SOL    HW126322   0.530   3.293   2.882 -0.0642 -1.5782 -0.3065
 7639SOL    HW226323   0.564   3.433   2.833 -2.4704 -1.2423 -1.0891
 7640SOL     OW26324  10.501   7.148   4.341 -0.9108 -0.0263 -0.1517
 7640SOL    HW126325  10.574   7.193   4.383 -0.8412  1.3730 -1.6898
 7640SOL    HW226326  10.539   7.104   4.265 -1.8580  2.0683 -1.9142
 7641SOL     OW26327   5.292   5.751   3.749  0.0441  0.0702 -0.0598
 7641SOL    HW126328   5.271   5.663   3.719 -0.2741  0.5106 -1.1728
 7641SOL    HW226329   5.344   5.789   3.677 -0.6626  1.1163 -0.0272
 7642SOL     OW26330   8.375   6.648   0.049 -0.8310 -0.0435  0.3416
 7642SOL    HW126331   8.362   6.559   0.017 -0.7377  0.4662 -1.1720
 7642SOL    HW226332   8.460   6.674   0.013 -0.7906  0.6100  0.8943
 7643SOL     OW26333   4.348  10.816   1.492 -0.4697 -0.5140 -0.2511
 7643SOL    HW126334   4.367  10.776   1.577  1.4644  0.7474 -0.0522
 7643SOL    HW226335   4.394  10.760   1.429  1.8643  1.0916 -0.0151
 7644SOL     OW26336   0.470   6.171   5.989 -0.0212  0.2123 -0.6768
 7644SOL    HW126337   0.483   6.231   6.062  1.1622 -0.6267 -0.1732
 7644SOL    HW226338   0.557   6.163   5.949  0.0168 -1.7862 -0.2390
 7645SOL     OW26339   5.926   2.266   8.658  0.2656  0.2724  0.2442
 7645SOL    HW126340   5.954   2.345   8.704 -0.0963  0.3376  0.3565
 7645SOL    HW226341   5.898   2.206   8.728 -0.7969  0.5740  0.0801
 7646SOL     OW26342   9.265  10.960   1.286  0.1215 -0.3862  0.1655
 7646SOL    HW126343   9.242  11.052   1.272 -1.9136 -0.9671 -0.5347
 7646SOL    HW226344   9.238  10.916   1.205  2.4702 -1.3824 -0.1223
 7647SOL     OW26345   3.815   6.593   2.145  0.3720  0.3417  0.6106
 7647SOL    HW126346   3.836   6.520   2.204 -0.6830  0.2839  0.9185
 7647SOL    HW226347   3.726   6.575   2.115 -0.1531  1.8643  1.2126
 7648SOL     OW26348  10.667   4.758   9.593  0.1494 -0.2294  0.0208
 7648SOL    HW126349  10.591   4.757   9.534 -0.5270 -0.3963  0.8975
 7648SOL    HW226350  10.703   4.670   9.587 -0.6359 -0.6039  0.7872
 7649SOL     OW26351   8.122   6.544   5.912 -0.3913 -0.4301  0.2391
 7649SOL    HW126352   8.191   6.518   5.973 -1.4854 -0.3949  1.5108
 7649SOL    HW226353   8.086   6.624   5.951 -0.5029  0.0934 -0.9280
 7650SOL     OW26354   2.040   3.180   1.289 -0.1473  0.6559 -0.7566
 7650SOL    HW126355   1.956   3.146   1.319 -0.1133  0.5050 -0.8313
 7650SOL    HW226356   2.025   3.274   1.278  0.1909  0.9142  0.9308
 7651SOL     OW26357   6.965   0.015   6.417  0.4960  0.5097 -0.5321
 7651SOL    HW126358   7.040   0.030   6.475  1.0661  0.0994 -1.1636
 7651SOL    HW226359   6.889   0.019   6.476  1.1082 -0.4233  0.3304
 7652SOL     OW26360   9.584   4.619   2.148  0.3150 -0.2400 -0.0670
 7652SOL    HW126361   9.549   4.530   2.147  0.3260 -0.2459  0.0358
 7652SOL    HW226362   9.672   4.609   2.182  1.1568 -0.4936 -2.2174
 7653SOL     OW26363   7.222   7.536   8.950  0.4344  0.2338 -0.4090
 7653SOL    HW126364   7.149   7.594   8.928  1.0716  1.6214  1.0175
 7653SOL    HW226365   7.238   7.487   8.870 -1.4155  0.6116 -1.0471
 7654SOL     OW26366   4.644   0.462   1.711  0.0619  0.4060 -0.1859
 7654SOL    HW126367   4.663   0.458   1.805  1.9785  0.6383 -0.5512
 7654SOL    HW226368   4.577   0.395   1.698  2.6398 -2.4809  0.6969
 7655SOL     OW26369  10.271   8.653   2.898  0.1242  0.0636 -0.9511
 7655SOL    HW126370  10.340   8.696   2.848 -0.9587  1.5269 -1.2218
 7655SOL    HW226371  10.262   8.705   2.978  0.1881 -0.8506 -0.3379
 7656SOL     OW26372   6.110   0.764   7.344  0.1508  0.3893 -0.2089
 7656SOL    HW126373   6.039   0.817   7.310  0.0711  1.3973  1.4619
 7656SOL    HW226374   6.116   0.690   7.284 -1.1319  1.1941 -1.3600
 7657SOL     OW26375  10.279   0.719   6.217  0.4288  0.0230  0.5010
 7657SOL    HW126376  10.217   0.685   6.281  0.6933  2.6172  2.2194
 7657SOL    HW226377  10.340   0.772   6.268  2.3083 -0.0730 -1.5506
 7658SOL     OW26378   9.963   0.491  10.177 -0.1342 -0.3276 -0.1810
 7658SOL    HW126379   9.966   0.479  10.272  1.4127 -1.7584 -0.3783
 7658SOL    HW226380  10.036   0.438  10.145 -0.3434  0.5447 -2.1262
 7659SOL     OW26381   2.979   8.366   2.318  0.2267 -0.3188 -0.6249
 7659SOL    HW126382   2.991   8.278   2.283  0.2258 -1.2474  1.6605
 7659SOL    HW226383   2.987   8.423   2.241  0.8580 -2.2448 -2.0361
 7660SOL     OW26384   8.830   1.866   9.332  0.0459  0.0479 -0.1928
 7660SOL    HW126385   8.810   1.797   9.395  1.0700 -0.0201  0.0673
 7660SOL    HW226386   8.884   1.928   9.380 -0.4633  0.7979 -0.5671
 7661SOL     OW26387   0.484   4.095   1.066  0.5185 -0.4128 -0.4437
 7661SOL    HW126388   0.559   4.063   1.015  2.0215 -1.0753  2.0892
 7661SOL    HW226389   0.471   4.028   1.133  0.2565  1.7024  1.6500
 7662SOL     OW26390   5.474   2.310   0.606  1.0986 -0.2992  0.6489
 7662SOL    HW126391   5.502   2.358   0.528 -0.6957  0.9703  0.7493
 7662SOL    HW226392   5.420   2.239   0.572  0.5453  0.0883  0.7141
 7663SOL     OW26393   5.845   1.831   8.315  0.1837  0.3141 -0.0285
 7663SOL    HW126394   5.878   1.885   8.243  0.7583  0.7135  0.5272
 7663SOL    HW226395   5.752   1.818   8.295  0.1094  1.2721 -0.3217
 7664SOL     OW26396  10.921   5.580   4.892 -0.0794 -0.1984  0.1504
 7664SOL    HW126397  10.845   5.613   4.843 -0.7548 -1.4857  0.2993
 7664SOL    HW226398  10.921   5.486   4.874  0.9232 -0.3501  0.9351
 7665SOL     OW26399   0.592   8.663   0.307 -0.0980  0.3032  0.6223
 7665SOL    HW126400   0.623   8.740   0.355 -0.1690  0.3270  0.6287
 7665SOL    HW226401   0.556   8.606   0.375  2.6286 -1.0324  1.0245
 7666SOL     OW26402   5.539   4.377   0.027  0.0853 -0.4703 -0.2558
 7666SOL    HW126403   5.625   4.358  -0.010  0.3432  2.2203 -1.1350
 7666SOL    HW226404   5.502   4.291   0.048  2.4309 -1.7195 -1.0990
 7667SOL     OW26405   1.715   5.417   8.162 -0.1811  0.2071 -0.2384
 7667SOL    HW126406   1.646   5.361   8.197  1.0656 -0.6830  0.8656
 7667SOL    HW226407   1.757   5.455   8.239  1.3697 -0.2710 -0.8282
 7668SOL     OW26408   0.068   3.732   4.943  0.2306  0.4763 -0.0976
 7668SOL    HW126409  -0.027   3.727   4.937  0.3388 -1.9984 -0.1058
 7668SOL    HW226410   0.088   3.701   5.031  1.0253  1.3089  0.0249
 7669SOL     OW26411   7.861   2.023   0.332  0.3329 -0.0594 -0.2447
 7669SOL    HW126412   7.956   2.025   0.324  0.4443 -0.0970  0.9637
 7669SOL    HW226413   7.844   2.053   0.421 -0.8060  0.2644 -0.5619
 7670SOL     OW26414  10.152  10.383   1.153 -0.0662 -0.1066  0.2425
 7670SOL    HW126415  10.124  10.472   1.172  0.9471  0.5833 -1.3718
 7670SOL    HW226416  10.087  10.350   1.091 -1.0873 -0.9176  1.7169
 7671SOL     OW26417   6.595   0.736  10.183 -0.1470 -0.1686  0.0428
 7671SOL    HW126418   6.574   0.644  10.201  0.8405 -0.4546 -0.2173
 7671SOL    HW226419   6.523   0.785  10.223 -0.1659 -1.0026  1.0671
 7672SOL     OW26420   1.932   2.658   4.169  0.3064 -0.2678 -0.4117
 7672SOL    HW126421   1.878   2.677   4.246 -1.1719  0.0530 -1.5129
 7672SOL    HW226422   1.977   2.577   4.192 -0.4465 -0.4145  0.6218
 7673SOL     OW26423   7.844  10.644   0.317 -0.2930 -0.1810  0.1422
 7673SOL    HW126424   7.816  10.728   0.280  0.1637 -0.4928 -0.9460
 7673SOL    HW226425   7.811  10.579   0.255  1.6141 -0.6472 -0.4223
 7674SOL     OW26426   5.937   7.643   4.928  0.2540 -0.1418 -0.0356
 7674SOL    HW126427   5.931   7.719   4.870  0.2720 -0.0894  0.0302
 7674SOL    HW226428   5.887   7.670   5.006 -0.2339 -0.4175 -0.2502
 7675SOL     OW26429   8.281  10.570  10.401 -0.1701  0.1047  0.1291
 7675SOL    HW126430   8.264  10.523  10.320 -1.2352  1.6377 -0.5637
 7675SOL    HW226431   8.349  10.519  10.445  0.5203 -0.6640 -1.7902
 7676SOL     OW26432   1.763  10.910   3.539 -0.2687  0.5685 -0.0165
 7676SOL    HW126433   1.674  10.881   3.560 -0.0860 -0.1076 -0.1792
 7676SOL    HW226434   1.754  10.958   3.457 -0.5598  0.9387  0.2269
 7677SOL     OW26435   9.118   2.030   0.607  0.7503 -0.2317 -0.0694
 7677SOL    HW126436   9.140   2.035   0.700  1.6482  0.5677 -0.3128
 7677SOL    HW226437   9.152   2.112   0.570 -2.2334  0.8738 -0.5567
 7678SOL     OW26438   9.579  10.105   8.466 -0.0088  0.2548  0.0193
 7678SOL    HW126439   9.584  10.021   8.420 -2.4836  0.5684 -0.9023
 7678SOL    HW226440   9.669  10.135   8.472  0.6962 -1.5285 -1.4154
 7679SOL     OW26441   7.271   4.009  10.079  0.2345  0.1763  0.0955
 7679SOL    HW126442   7.233   3.922  10.084 -0.4155  0.4285 -0.3744
 7679SOL    HW226443   7.254   4.039   9.990  2.7262 -0.2237 -0.5674
 7680SOL     OW26444   6.251   7.230  10.139 -0.2311  0.0970  0.0575
 7680SOL    HW126445   6.266   7.324  10.130  0.1374  0.0439  0.1276
 7680SOL    HW226446   6.250   7.197  10.049  1.6070 -0.1385  0.0954
 7681SOL     OW26447   9.936  10.271   9.654 -0.2814  0.3351 -0.2421
 7681SOL    HW126448   9.855  10.321   9.660  0.4700  1.6758 -1.1480
 7681SOL    HW226449   9.998  10.330   9.612  1.5895 -0.1506  1.7489
 7682SOL     OW26450  10.537   9.868   4.044 -0.0591 -0.9861  0.5180
 7682SOL    HW126451  10.552   9.959   4.021  0.0644 -0.5155  2.3480
 7682SOL    HW226452  10.521   9.824   3.961 -0.6635  0.8066 -0.3404
 7683SOL     OW26453   5.545   9.530   6.412  0.2215 -0.0286 -0.5226
 7683SOL    HW126454   5.543   9.626   6.419  0.7222 -0.0378 -0.2380
 7683SOL    HW226455   5.466   9.501   6.458 -0.5084  0.3021 -1.5601
 7684SOL     OW26456   6.079   9.242   2.812  0.0138 -0.2398  0.3343
 7684SOL    HW126457   6.019   9.169   2.828  0.3872 -0.6253  0.0246
 7684SOL    HW226458   6.160   9.199   2.784 -0.4385  0.3467 -2.0289
 7685SOL     OW26459   8.556  10.332   3.631  0.1720 -0.3515 -0.5786
 7685SOL    HW126460   8.533  10.423   3.612  2.4122  0.0723 -1.4843
 7685SOL    HW226461   8.484  10.299   3.684 -1.8515  1.2140 -2.2820
 7686SOL     OW26462   5.525   0.315   9.567  0.4479 -0.6525 -0.8244
 7686SOL    HW126463   5.437   0.280   9.581  0.1788  0.9672  1.7383
 7686SOL    HW226464   5.512   0.408   9.547  1.5603 -0.4959 -0.8930
 7687SOL     OW26465   5.103   3.369   7.793  0.1683 -0.4948 -0.3325
 7687SOL    HW126466   5.076   3.283   7.826 -0.4797 -0.5708 -1.0350
 7687SOL    HW226467   5.036   3.391   7.728  0.5679  0.3525 -0.4566
 7688SOL     OW26468   4.350   1.540   2.307 -0.4742  0.7959  0.0186
 7688SOL    HW126469   4.338   1.500   2.221 -1.3390  0.3660  0.3335
 7688SOL    HW226470   4.263   1.572   2.331 -0.5259 -0.2699  1.3031
 7689SOL     OW26471   4.535   1.216   2.880 -0.4925  0.4132  0.2130
 7689SOL    HW126472   4.470   1.148   2.901 -0.2314  0.5398  1.4727
 7689SOL    HW226473   4.607   1.200   2.941  0.1212  1.0579 -0.3289
 7690SOL     OW26474   4.754   0.410   9.200 -0.0387 -0.3980  0.0693
 7690SOL    HW126475   4.795   0.345   9.259 -0.0115  0.6713  1.2637
 7690SOL    HW226476   4.672   0.369   9.173  0.2278 -1.1629  0.3865
 7691SOL     OW26477   7.724   0.876   0.693  0.1169 -0.1944 -0.0790
 7691SOL    HW126478   7.635   0.893   0.662  0.3444 -0.2205 -0.7590
 7691SOL    HW226479   7.730   0.923   0.775 -0.4124  0.0957 -0.2015
 7692SOL     OW26480  10.345   8.574   4.502  0.0627  0.1506  0.1013
 7692SOL    HW126481  10.390   8.532   4.576  0.1959  1.3111  0.6909
 7692SOL    HW226482  10.353   8.511   4.431 -0.8235 -1.3490  1.3162
 7693SOL     OW26483   9.309   0.817   1.015 -0.4745 -0.1544  0.3869
 7693SOL    HW126484   9.231   0.762   1.024  0.9179 -1.7683  3.6116
 7693SOL    HW226485   9.296   0.889   1.076  0.1426  0.0716  0.2617
 7694SOL     OW26486   1.534   9.568   2.295  1.0505 -0.5536 -0.0977
 7694SOL    HW126487   1.578   9.621   2.362  0.6974 -1.2390  0.6836
 7694SOL    HW226488   1.474   9.629   2.252 -1.3956 -0.9168  2.6654
 7695SOL     OW26489   6.524   6.639   8.886  0.4195  0.3546  0.0530
 7695SOL    HW126490   6.428   6.647   8.888  0.4374  0.3352  1.1217
 7695SOL    HW226491   6.540   6.545   8.897  0.6017  0.5613  1.7126
 7696SOL     OW26492   5.768   7.727   9.467 -0.4809 -0.5184  0.2088
 7696SOL    HW126493   5.818   7.646   9.480  1.3434  0.6341  0.6867
 7696SOL    HW226494   5.803   7.764   9.386 -0.8934  0.0680  0.2940
 7697SOL     OW26495   5.540   3.659   9.989  0.3689  0.0623 -0.2043
 7697SOL    HW126496   5.580   3.601   9.923 -0.2210  0.6020 -1.0456
 7697SOL    HW226497   5.595   3.737   9.988  0.4016  0.0420 -0.0020
 7698SOL     OW26498   6.639   2.072   1.196 -0.4456 -0.3686 -0.2578
 7698SOL    HW126499   6.677   2.146   1.243 -3.3799  1.8118 -1.1626
 7698SOL    HW226500   6.599   2.017   1.264 -0.9058  0.4982  0.1750
 7699SOL     OW26501   9.616  10.963   5.824  0.2937 -0.0008 -0.4965
 7699SOL    HW126502   9.596  10.911   5.901  0.7134  1.1512  0.4063
 7699SOL    HW226503   9.541  11.023   5.815  1.0975  1.1084  0.1078
 7700SOL     OW26504  10.172   6.402   9.364 -0.1468 -0.0432  0.0193
 7700SOL    HW126505  10.173   6.408   9.459 -0.0518 -1.6093  0.1251
 7700SOL    HW226506  10.144   6.313   9.345 -0.8671  0.4668 -1.4357
 7701SOL     OW26507   9.535   4.923   0.960  0.4501  0.0882 -0.3751
 7701SOL    HW126508   9.505   4.846   1.008  0.3035  0.8268  0.7494
 7701SOL    HW226509   9.630   4.919   0.965  0.4879 -0.8664 -1.6974
 7702SOL     OW26510   6.553   9.008   5.905  0.7935 -0.0700  0.5508
 7702SOL    HW126511   6.636   8.970   5.932  1.2687  1.8023  1.8671
 7702SOL    HW226512   6.572   9.055   5.823  1.0632  0.4015  0.8797
 7703SOL     OW26513   4.172   3.959   2.897 -0.6049 -0.3527 -0.2111
 7703SOL    HW126514   4.205   4.048   2.905  1.3681 -1.0991  0.0698
 7703SOL    HW226515   4.229   3.917   2.833 -2.4464 -1.0054 -1.4899
 7704SOL     OW26516   8.053   0.885   6.335 -0.1158  0.0188 -1.1616
 7704SOL    HW126517   8.138   0.918   6.307  0.0579  1.2942  0.7264
 7704SOL    HW226518   8.038   0.927   6.420 -2.2565 -0.8256 -1.0828
 7705SOL     OW26519   4.258   7.849   1.614  0.0577 -0.5674 -0.0158
 7705SOL    HW126520   4.178   7.816   1.572 -0.1835  0.3019 -0.2577
 7705SOL    HW226521   4.329   7.819   1.557 -0.0891 -1.4232  0.2502
 7706SOL     OW26522   8.865   1.089  10.466  0.0673  0.2959  0.1399
 7706SOL    HW126523   8.942   1.089  10.523 -0.1923 -2.7014  0.6008
 7706SOL    HW226524   8.801   1.144  10.512  1.3016  1.3400  0.6445
 7707SOL     OW26525   9.378   7.449   3.261 -0.1126  0.0141 -0.2783
 7707SOL    HW126526   9.459   7.500   3.261 -0.4797  0.6330  1.6614
 7707SOL    HW226527   9.336   7.471   3.178  0.6524  1.4042 -0.3076
 7708SOL     OW26528   9.020   4.013   6.520  0.4262  0.9369 -0.4546
 7708SOL    HW126529   9.047   3.991   6.609 -0.6428  0.6860 -0.1875
 7708SOL    HW226530   9.087   4.074   6.489  1.1329  0.5572  0.2975
 7709SOL     OW26531   3.389   4.887   4.190  0.8098  0.3677  0.1643
 7709SOL    HW126532   3.472   4.918   4.153  1.0751 -0.8051 -0.2554
 7709SOL    HW226533   3.325   4.900   4.121  0.6321  1.2866  0.4935
 7710SOL     OW26534  10.826   2.341   8.653 -0.1477 -0.1117  0.8527
 7710SOL    HW126535  10.898   2.403   8.649 -0.2234 -0.0228  0.8660
 7710SOL    HW226536  10.856   2.272   8.712  0.6765 -1.0504 -0.6542
 7711SOL     OW26537  10.841   9.744   4.140  0.1111 -0.2526 -0.0112
 7711SOL    HW126538  10.832   9.839   4.127 -3.3398 -0.2991  1.4919
 7711SOL    HW226539  10.814   9.706   4.057 -0.5819  0.0383  0.0760
 7712SOL     OW26540   7.372   6.038   7.191  0.2759  0.1275 -0.2898
 7712SOL    HW126541   7.287   6.080   7.178  0.4131  0.8050  0.9387
 7712SOL    HW226542   7.413   6.089   7.260  1.1237 -1.0398  0.0694
 7713SOL     OW26543   8.380   9.801   0.349 -0.6157 -0.2242 -0.1035
 7713SOL    HW126544   8.349   9.738   0.284 -2.2942 -0.3445  0.7784
 7713SOL    HW226545   8.360   9.760   0.433 -1.1160  1.1703  0.4816
 7714SOL     OW26546  10.652   8.223   3.581  1.0932  0.0060 -0.9418
 7714SOL    HW126547  10.596   8.285   3.534 -0.7470  0.7443  2.0776
 7714SOL    HW226548  10.667   8.152   3.519  0.5193  1.9232 -3.3468
 7715SOL     OW26549   4.646   7.711   9.127  0.1758 -0.1989  0.0286
 7715SOL    HW126550   4.687   7.739   9.208 -0.1986 -2.0892  0.9030
 7715SOL    HW226551   4.691   7.760   9.058  2.5543 -0.7970  1.1282
 7716SOL     OW26552   1.143   0.462  10.867  0.3536 -0.3968  0.0724
 7716SOL    HW126553   1.049   0.466  10.848  0.3660  0.2596  0.1604
 7716SOL    HW226554   1.184   0.467  10.780  0.3600  1.1192  0.1446
 7717SOL     OW26555   9.668   0.987   1.070 -0.5629  0.2836  0.1879
 7717SOL    HW126556   9.638   1.023   0.986  1.7808 -0.7730 -1.1445
 7717SOL    HW226557   9.639   0.895   1.068  3.4691 -1.0454 -1.5709
 7718SOL     OW26558   9.326   4.330   6.527 -0.3631  0.0912  0.0093
 7718SOL    HW126559   9.245   4.312   6.480 -0.1928  3.0483 -1.5395
 7718SOL    HW226560   9.380   4.252   6.512 -2.1205 -1.0433 -0.6206
 7719SOL     OW26561   5.751  10.725   2.502  0.5570  0.0041 -0.1716
 7719SOL    HW126562   5.761  10.813   2.540  2.0002 -0.6320  0.9735
 7719SOL    HW226563   5.841  10.698   2.482  0.0142 -0.7107 -1.6842
 7720SOL     OW26564   7.022   8.724   9.423 -0.1570 -0.2460  0.0420
 7720SOL    HW126565   7.088   8.759   9.364 -2.4899  2.4497 -1.1050
 7720SOL    HW226566   6.999   8.798   9.480 -1.9385 -1.1826  0.5886
 7721SOL     OW26567   6.332   6.194   3.954  0.5146 -0.4945 -0.3737
 7721SOL    HW126568   6.424   6.220   3.948  0.4276 -0.6329 -2.6382
 7721SOL    HW226569   6.332   6.123   4.019  1.9501 -0.2914 -0.1269
 7722SOL     OW26570   4.858   3.350   1.630  0.1967  0.0922 -0.0262
 7722SOL    HW126571   4.906   3.270   1.651 -0.5470  0.0027  1.3818
 7722SOL    HW226572   4.766   3.323   1.626 -0.0105  0.7815 -0.0142
 7723SOL     OW26573   8.873   1.559   6.618  0.4271 -0.1912  0.1849
 7723SOL    HW126574   8.927   1.608   6.557  0.1881 -1.4350 -1.0485
 7723SOL    HW226575   8.794   1.611   6.629  1.4087  1.1437  1.2138
 7724SOL     OW26576   8.581   5.953   9.196  0.3694 -0.0355 -0.2067
 7724SOL    HW126577   8.629   5.871   9.203  1.5244  0.6882  0.3093
 7724SOL    HW226578   8.531   5.944   9.114 -0.7143 -1.8726  0.6315
 7725SOL     OW26579   7.808   3.851   2.944 -0.1372  0.4297  0.2257
 7725SOL    HW126580   7.900   3.848   2.970 -0.4429  1.5727  1.4716
 7725SOL    HW226581   7.799   3.932   2.895 -0.2104 -0.3196 -1.0390
 7726SOL     OW26582   8.299   5.834  10.004 -0.6943  0.0715 -0.0450
 7726SOL    HW126583   8.388   5.840  10.038 -1.3016 -1.3243  1.8999
 7726SOL    HW226584   8.303   5.878   9.919  1.6592  0.7070  0.3449
 7727SOL     OW26585   8.575   4.416   7.117 -0.1529 -0.2675  0.4640
 7727SOL    HW126586   8.605   4.339   7.068  0.9262 -1.0803  2.3534
 7727SOL    HW226587   8.505   4.383   7.173 -0.8680  0.4964  0.0315
 7728SOL     OW26588  10.878   8.499   3.333  0.2262 -0.0200  0.5010
 7728SOL    HW126589  10.946   8.458   3.386 -0.3389 -3.2209 -1.1404
 7728SOL    HW226590  10.917   8.508   3.246 -1.6050 -2.6134 -0.6674
 7729SOL     OW26591   9.014   1.538   9.482  0.0196 -0.2341 -0.6672
 7729SOL    HW126592   8.932   1.583   9.462 -0.4036  0.2585  2.0370
 7729SOL    HW226593   8.988   1.449   9.503 -0.2093  0.5497  2.7494
 7730SOL     OW26594   0.824   4.845   1.524 -0.3470 -0.0124  0.5073
 7730SOL    HW126595   0.739   4.882   1.547  0.2090  0.5453  1.7053
 7730SOL    HW226596   0.868   4.831   1.607  0.7402 -0.3036 -0.1003
 7731SOL     OW26597   3.947   3.288   2.872 -0.0519 -0.2388 -0.0570
 7731SOL    HW126598   3.965   3.211   2.926 -2.3157  0.1950  1.3916
 7731SOL    HW226599   3.900   3.348   2.930  0.0830  1.4905 -1.6799
 7732SOL     OW26600   0.182   5.633   8.967 -0.8373  0.4807 -0.4635
 7732SOL    HW126601   0.113   5.581   9.009 -0.4386  0.0808 -0.2970
 7732SOL    HW226602   0.217   5.687   9.038  1.7020 -2.1517  0.4252
 7733SOL     OW26603   7.759   9.277   8.804  0.7348 -0.1625 -0.2589
 7733SOL    HW126604   7.707   9.354   8.825  0.9551  0.3726 -1.6479
 7733SOL    HW226605   7.831   9.278   8.867  0.2030  0.2188  0.3471
 7734SOL     OW26606   0.588   8.990   6.122 -0.0366 -0.0614 -0.0919
 7734SOL    HW126607   0.645   8.978   6.046  1.1166 -2.7816  1.1062
 7734SOL    HW226608   0.625   8.931   6.189 -1.7353  1.3356  2.1541
 7735SOL     OW26609  10.017   8.779   0.121 -0.5086 -0.0605 -0.0884
 7735SOL    HW126610   9.939   8.754   0.170 -0.7446  0.3854 -0.2376
 7735SOL    HW226611  10.089   8.733   0.166 -0.7021  0.4603  0.7838
 7736SOL     OW26612  10.021   6.898   6.849 -0.2277  0.0906  0.2788
 7736SOL    HW126613  10.040   6.808   6.823 -0.3640  0.9026 -2.8275
 7736SOL    HW226614  10.101   6.946   6.829 -0.7524  0.9770  0.2666
 7737SOL     OW26615   1.102   5.946   4.823  0.3825  0.3881 -0.0359
 7737SOL    HW126616   1.122   5.856   4.851  1.4512 -0.0121 -1.9910
 7737SOL    HW226617   1.014   5.940   4.786  0.2699  0.2537  0.2478
 7738SOL     OW26618   0.301   9.558   5.512  0.2428  0.6185  0.0352
 7738SOL    HW126619   0.379   9.557   5.457  2.1348  2.2688  2.5745
 7738SOL    HW226620   0.296   9.648   5.545 -3.4708  0.8955 -1.0598
 7739SOL     OW26621   7.133   0.753   4.118 -0.1789  0.7666  0.1862
 7739SOL    HW126622   7.055   0.698   4.129 -0.5628  0.9240 -1.6582
 7739SOL    HW226623   7.102   0.832   4.075  1.0809  0.5891 -1.0929
 7740SOL     OW26624   0.906   3.298   7.950 -0.3752 -0.6564  0.3764
 7740SOL    HW126625   0.972   3.229   7.939 -1.0165 -1.1183 -0.6267
 7740SOL    HW226626   0.829   3.264   7.905 -0.3436  1.2286 -1.1162
 7741SOL     OW26627   2.285   8.326   3.562  0.0456 -0.3228  0.9289
 7741SOL    HW126628   2.339   8.310   3.485  0.9252 -1.1168  1.6897
 7741SOL    HW226629   2.342   8.376   3.621  0.5664 -2.6168  2.4363
 7742SOL     OW26630   4.513   3.700   2.771 -0.3675  0.4666 -0.0294
 7742SOL    HW126631   4.417   3.704   2.774 -0.3085  0.7692  1.6335
 7742SOL    HW226632   4.537   3.637   2.839  0.6627  1.1937  0.2871
 7743SOL     OW26633   3.252   4.541   6.450 -0.1553  0.2332 -0.7348
 7743SOL    HW126634   3.276   4.516   6.361 -1.6818 -2.3649 -0.4897
 7743SOL    HW226635   3.332   4.529   6.501  0.1466 -0.4927 -1.3627
 7744SOL     OW26636   2.213  10.622   5.424 -0.0518  0.2860 -0.0252
 7744SOL    HW126637   2.289  10.669   5.459 -0.5442 -1.2128  3.1737
 7744SOL    HW226638   2.144  10.688   5.419  0.2950  0.7225  0.9400
 7745SOL     OW26639   9.737   7.492   1.448  0.6196 -0.4185 -0.3442
 7745SOL    HW126640   9.710   7.465   1.536  0.7764  0.5676  0.0071
 7745SOL    HW226641   9.672   7.451   1.390 -0.4193  0.2372  0.3499
 7746SOL     OW26642   7.549  10.037   4.048  0.3666 -0.0727 -0.1440
 7746SOL    HW126643   7.555   9.973   3.977  0.1674 -0.2834  0.0236
 7746SOL    HW226644   7.550   9.983   4.128 -0.9470  0.0448 -0.0332
 7747SOL     OW26645   7.858   8.534   4.709 -0.5539  0.2923  0.4804
 7747SOL    HW126646   7.924   8.603   4.696 -0.4107 -0.0959 -0.8694
 7747SOL    HW226647   7.909   8.458   4.737 -0.2773 -0.3099 -1.5583
 7748SOL     OW26648   2.682   7.069   4.011 -0.3885 -0.0901 -0.4982
 7748SOL    HW126649   2.622   7.093   4.082  0.5503  0.0427  0.2587
 7748SOL    HW226650   2.642   7.107   3.933 -1.2267  0.1087  0.0135
 7749SOL     OW26651   8.241   3.666   5.211  0.3135 -0.0934 -0.1010
 7749SOL    HW126652   8.332   3.677   5.241 -0.2375 -0.1293  1.6412
 7749SOL    HW226653   8.244   3.593   5.150  1.4980  0.0488 -0.2223
 7750SOL     OW26654   1.307   2.844   2.190  0.3536 -0.4595 -0.2669
 7750SOL    HW126655   1.275   2.934   2.185  2.9309  0.6296  1.5640
 7750SOL    HW226656   1.274   2.810   2.273 -1.4448 -1.6149 -1.3987
 7751SOL     OW26657   0.701   8.117   0.246 -0.0856  0.6223 -0.0250
 7751SOL    HW126658   0.742   8.073   0.171  0.3596  2.6801 -1.0365
 7751SOL    HW226659   0.725   8.209   0.235 -0.7129  1.0804  2.2107
 7752SOL     OW26660  10.896   6.374   5.968 -0.2145  0.2469 -0.6480
 7752SOL    HW126661  10.837   6.445   5.948 -0.6131  0.4245  1.0410
 7752SOL    HW226662  10.874   6.349   6.058  0.7064 -1.2161 -0.8065
 7753SOL     OW26663   6.735   8.190   6.802 -0.6982  0.1081 -0.6108
 7753SOL    HW126664   6.702   8.115   6.753 -1.6451 -0.5046  0.9199
 7753SOL    HW226665   6.659   8.245   6.816 -0.2275  0.7959 -0.7599
 7754SOL     OW26666  10.410   4.646   9.791  0.3190  0.0157  0.3989
 7754SOL    HW126667  10.390   4.584   9.722  1.5219 -1.0061  0.9677
 7754SOL    HW226668  10.341   4.632   9.856 -0.8247  0.9912 -0.5564
 7755SOL     OW26669   5.544   4.106   0.535  0.5466 -0.1507 -0.4498
 7755SOL    HW126670   5.494   4.111   0.617  0.5336 -2.9472 -0.2356
 7755SOL    HW226671   5.483   4.069   0.472  0.7461  1.4537 -1.6017
 7756SOL     OW26672   9.179   1.546   4.117  0.0771  0.0957 -0.2452
 7756SOL    HW126673   9.240   1.544   4.191 -0.2244 -0.7907 -0.0051
 7756SOL    HW226674   9.223   1.598   4.050  0.5095  0.6015  0.4306
 7757SOL     OW26675  10.956   0.888   5.099  0.0683 -0.6648  0.0793
 7757SOL    HW126676  10.928   0.861   5.012 -0.4481 -2.5276  0.8048
 7757SOL    HW226677  10.887   0.946   5.130  0.9672  1.1918 -1.3158
 7758SOL     OW26678   8.866   4.652   3.388 -0.0107  0.7113  0.7922
 7758SOL    HW126679   8.865   4.636   3.293  2.5117  1.9408  0.5004
 7758SOL    HW226680   8.803   4.590   3.424  0.6023 -1.3064 -1.4769
 7759SOL     OW26681  10.330   2.628   5.033 -0.5427 -0.2649  0.6402
 7759SOL    HW126682  10.290   2.549   5.068  0.4310 -0.5238  1.1846
 7759SOL    HW226683  10.365   2.603   4.948  0.7128 -0.7151  1.2732
 7760SOL     OW26684   4.504   2.228  10.416  0.3110 -0.1758 -0.2273
 7760SOL    HW126685   4.599   2.221  10.423  0.2242  1.5592  4.0700
 7760SOL    HW226686   4.471   2.183  10.494 -2.3372  0.4059 -0.9720
 7761SOL     OW26687  10.657   0.411   1.869  0.0960 -0.1850  0.1621
 7761SOL    HW126688  10.583   0.423   1.810  0.2692  0.6829  0.1115
 7761SOL    HW226689  10.729   0.459   1.828  0.3757 -0.0758  0.7744
 7762SOL     OW26690   5.221   5.857   3.993  0.4003 -0.7075  0.4086
 7762SOL    HW126691   5.145   5.805   4.019 -0.5955  0.3075 -0.4072
 7762SOL    HW226692   5.238   5.831   3.903  0.7626 -0.6212  0.4499
 7763SOL     OW26693   4.618   5.651   3.118 -0.0836  0.1390  0.5718
 7763SOL    HW126694   4.573   5.567   3.125 -1.5133  0.9002  0.5342
 7763SOL    HW226695   4.602   5.680   3.029  1.1001  0.0871  0.3233
 7764SOL     OW26696   3.882   3.364   1.937 -0.2419  0.2368 -0.3137
 7764SOL    HW126697   3.941   3.426   1.893  0.8183 -0.6472 -0.1587
 7764SOL    HW226698   3.808   3.355   1.877  0.0347  0.9359 -0.7673
 7765SOL     OW26699   1.852   1.124   6.966 -0.1177  0.1315 -0.2593
 7765SOL    HW126700   1.931   1.072   6.949 -0.2072 -0.1195  0.0843
 7765SOL    HW226701   1.788   1.060   6.999 -1.0370  0.0266 -2.2113
 7766SOL     OW26702   2.784   3.025   1.101 -0.3286 -0.0956 -0.5457
 7766SOL    HW126703   2.821   2.942   1.131  2.4620  1.9071  1.8046
 7766SOL    HW226704   2.816   3.034   1.011  0.0239 -1.1461 -0.5422
 7767SOL     OW26705   1.007   7.526   1.207  0.3541  0.3610  0.4581
 7767SOL    HW126706   0.928   7.569   1.238  0.6343  1.2198 -0.0044
 7767SOL    HW226707   1.049   7.494   1.286  0.2720  1.1648  0.8352
 7768SOL     OW26708   2.926   9.084  10.683  0.0125  0.4450  0.7339
 7768SOL    HW126709   2.973   9.123  10.610  0.7258  0.3339  1.1248
 7768SOL    HW226710   2.966   8.997  10.693 -0.5777  0.1760  0.7882
 7769SOL     OW26711   2.401   1.630   1.249  0.5805  0.0163 -0.4324
 7769SOL    HW126712   2.346   1.588   1.315  2.3219  0.0600  1.1210
 7769SOL    HW226713   2.392   1.723   1.267  0.1642  0.0826 -0.9973
 7770SOL     OW26714   1.534   5.648   7.487 -0.7510 -0.2731 -0.0762
 7770SOL    HW126715   1.576   5.695   7.559 -0.1826 -1.3301  0.3028
 7770SOL    HW226716   1.488   5.715   7.437 -0.3570  0.6032  0.7322
 7771SOL     OW26717   0.608   2.748   7.049  0.4856  0.3532  0.5208
 7771SOL    HW126718   0.679   2.808   7.025  0.7343  0.6151  1.8578
 7771SOL    HW226719   0.645   2.661   7.036  0.9317  0.4896  0.8569
 7772SOL     OW26720  10.454  10.329   6.771 -0.6114 -0.1988  0.0117
 7772SOL    HW126721  10.435  10.387   6.845  0.4804 -1.1633  1.0551
 7772SOL    HW226722  10.469  10.243   6.810 -1.0978 -0.9636 -1.4308
 7773SOL     OW26723   9.904   9.322   6.231  0.4410 -0.7008  0.4627
 7773SOL    HW126724   9.995   9.346   6.242  0.5861 -1.9764  2.3608
 7773SOL    HW226725   9.905   9.227   6.219 -0.5597 -0.6034 -0.5482
 7774SOL     OW26726   8.646   8.542   6.185  0.1202  0.3732  0.2050
 7774SOL    HW126727   8.556   8.575   6.188 -0.0887 -0.3048  1.4769
 7774SOL    HW226728   8.701   8.620   6.182 -0.4636  0.7987  0.5956
 7775SOL     OW26729   8.697   6.725   0.024 -0.3708  0.1039 -0.0469
 7775SOL    HW126730   8.654   6.714   0.109 -1.9413 -1.0976 -0.9729
 7775SOL    HW226731   8.743   6.643   0.010  1.1245  0.8657  0.3002
 7776SOL     OW26732   6.341   4.290   0.095  0.3839  0.2701 -0.1628
 7776SOL    HW126733   6.434   4.310   0.103  0.2037  2.5617 -3.1375
 7776SOL    HW226734   6.302   4.328   0.174  1.8583 -0.1662  0.8056
 7777SOL     OW26735   9.631   5.350   2.242 -0.8431  0.0240 -0.0617
 7777SOL    HW126736   9.570   5.411   2.201 -1.1213 -0.3646 -0.2331
 7777SOL    HW226737   9.576   5.300   2.303 -0.2149  1.4217  1.6860
 7778SOL     OW26738  10.392   2.781   1.514 -0.1888  0.0726 -0.2674
 7778SOL    HW126739  10.301   2.779   1.482 -0.2242 -1.8348 -0.0643
 7778SOL    HW226740  10.435   2.846   1.458 -2.3000  3.0221  1.3854
 7779SOL     OW26741   5.947   8.580   3.498 -0.0978 -0.2234 -0.1958
 7779SOL    HW126742   5.972   8.555   3.587 -0.7005 -1.0227 -0.2456
 7779SOL    HW226743   5.904   8.502   3.462 -1.2607  0.6078 -0.6405
 7780SOL     OW26744   1.676   2.643   6.394 -0.5140  0.3851  0.0266
 7780SOL    HW126745   1.623   2.651   6.474 -1.7848 -4.1030 -0.2312
 7780SOL    HW226746   1.619   2.676   6.325 -1.5340 -0.8444  0.2656
 7781SOL     OW26747   8.685   5.038   1.341 -0.2146  0.2978 -0.2047
 7781SOL    HW126748   8.626   5.110   1.362 -0.0077  0.2355  0.6202
 7781SOL    HW226749   8.671   4.974   1.412  1.4553  0.6637  0.4756
 7782SOL     OW26750   5.175   6.602   0.320 -0.0067 -0.2221  0.2609
 7782SOL    HW126751   5.156   6.552   0.241 -0.5948  0.6897 -0.1884
 7782SOL    HW226752   5.189   6.692   0.289  1.9723 -0.2567  0.9395
 7783SOL     OW26753   6.728   7.438   0.274 -0.3765 -0.2021 -0.1268
 7783SOL    HW126754   6.660   7.481   0.326  1.1438  0.5943  1.2716
 7783SOL    HW226755   6.763   7.370   0.332  2.5088  1.7975  0.6229
 7784SOL     OW26756   8.394   2.717   4.851 -0.0045  0.0960  0.4153
 7784SOL    HW126757   8.447   2.780   4.900  0.2472 -0.0047  0.2764
 7784SOL    HW226758   8.436   2.713   4.765 -1.6450  1.8013 -0.5036
 7785SOL     OW26759   8.317   4.344   7.198 -0.4548  0.0264  0.3564
 7785SOL    HW126760   8.280   4.313   7.115  0.2877 -1.0377  0.4151
 7785SOL    HW226761   8.278   4.287   7.264 -0.5029  0.4192  0.6722
 7786SOL     OW26762   1.214   5.236   3.056 -0.0915  0.4251 -0.1121
 7786SOL    HW126763   1.164   5.270   2.982  0.6316 -0.4997 -1.0396
 7786SOL    HW226764   1.279   5.304   3.074  0.3214  0.2567 -0.9278
 7787SOL     OW26765   1.397   1.294   2.303 -0.1547 -0.4746 -0.1041
 7787SOL    HW126766   1.312   1.338   2.311  0.4436  0.9192 -1.1821
 7787SOL    HW226767   1.451   1.334   2.371  0.0570 -0.3424 -0.3486
 7788SOL     OW26768   4.298   7.567  10.544  0.7536 -0.2603  0.1383
 7788SOL    HW126769   4.237   7.576  10.470  0.3750 -0.4120  0.4324
 7788SOL    HW226770   4.351   7.490  10.522  0.7567 -0.2038 -0.0581
 7789SOL     OW26771   2.654   4.466   6.083 -0.0926  0.4035 -0.0744
 7789SOL    HW126772   2.712   4.495   6.154  0.5834  0.2865 -0.5783
 7789SOL    HW226773   2.596   4.540   6.068  0.3670  0.7746 -0.0301
 7790SOL     OW26774   7.043  10.105   0.665 -0.9271 -0.8616 -0.3378
 7790SOL    HW126775   7.059  10.195   0.692  0.1522 -1.0780 -0.2310
 7790SOL    HW226776   6.948  10.093   0.675 -0.7773 -0.4349  1.7417
 7791SOL     OW26777   9.530   2.518   1.573  0.1080  0.0359 -0.3476
 7791SOL    HW126778   9.581   2.587   1.532 -0.6704  1.4170  0.9542
 7791SOL    HW226779   9.580   2.493   1.651 -0.0598 -0.2363 -0.3255
 7792SOL     OW26780   6.931   4.066   3.279 -0.2330  0.4098  0.0559
 7792SOL    HW126781   6.985   4.142   3.302 -0.3816  0.1757  1.1963
 7792SOL    HW226782   6.901   4.085   3.190  2.2546  0.2514 -0.8624
 7793SOL     OW26783   4.513   3.083  10.016 -0.3882 -0.1982 -0.2271
 7793SOL    HW126784   4.531   3.018  10.085 -1.5026  0.7237  0.9668
 7793SOL    HW226785   4.565   3.159  10.042  0.2567 -0.3226 -1.1620
 7794SOL     OW26786   7.270   6.893  10.444  0.3775 -0.3194 -0.3467
 7794SOL    HW126787   7.280   6.986  10.462  1.3745 -0.4049 -0.4369
 7794SOL    HW226788   7.190   6.868  10.490  0.2233  0.5366 -0.1489
 7795SOL     OW26789   7.650   6.006   0.143 -0.0721  0.4786  0.3621
 7795SOL    HW126790   7.742   6.008   0.117 -0.0134 -2.5249  0.1400
 7795SOL    HW226791   7.650   6.027   0.236  0.8682  0.2257  0.4184
 7796SOL     OW26792   9.625   6.031   1.169 -0.0145 -0.1253 -0.1417
 7796SOL    HW126793   9.671   5.991   1.096  2.1810  0.5134  0.8078
 7796SOL    HW226794   9.555   5.971   1.191  1.6300 -2.1888 -0.3886
 7797SOL     OW26795   1.967   5.328   9.639  0.5056 -0.0402  0.3200
 7797SOL    HW126796   1.930   5.322   9.727  2.8942  0.9059  1.4251
 7797SOL    HW226797   1.989   5.238   9.617 -1.7595 -0.5277 -0.0804
 7798SOL     OW26798   7.156  10.432   1.231  0.0298  0.4378 -0.3885
 7798SOL    HW126799   7.075  10.403   1.189  1.3848 -1.4456 -1.7675
 7798SOL    HW226800   7.195  10.352   1.267  1.2859  1.3268  0.2806
 7799SOL     OW26801   7.364   8.742   8.795 -0.0610 -0.4581  0.4689
 7799SOL    HW126802   7.326   8.654   8.802  0.0681 -0.5339  0.2183
 7799SOL    HW226803   7.390   8.749   8.703 -0.8026  0.1413  0.3038
 7800SOL     OW26804   8.332   4.015   9.251 -0.2293  0.0152  0.5352
 7800SOL    HW126805   8.337   4.085   9.316 -1.0278  0.0906  0.5141
 7800SOL    HW226806   8.423   3.990   9.236 -0.0250  0.1380  1.5288
 7801SOL     OW26807   1.948  10.096   4.004  0.1066 -0.4375 -0.0349
 7801SOL    HW126808   1.925  10.186   3.981  1.4393 -0.4546 -1.4408
 7801SOL    HW226809   1.864  10.051   4.010 -0.6225  1.0519  1.3828
 7802SOL     OW26810   1.404   3.760   8.011 -0.3907 -0.3059  0.2848
 7802SOL    HW126811   1.433   3.798   8.094  1.6125  0.6198 -0.7906
 7802SOL    HW226812   1.329   3.812   7.985  1.6027  2.2489 -0.5778
 7803SOL     OW26813   8.343   4.111  10.381  0.2968 -0.4084 -0.2606
 7803SOL    HW126814   8.349   4.189  10.326  0.4745  0.5214  1.0697
 7803SOL    HW226815   8.402   4.048  10.339 -1.4430 -0.5761 -2.5290
 7804SOL     OW26816   7.086   1.802   3.350 -0.0576 -0.1249 -0.0486
 7804SOL    HW126817   7.090   1.882   3.402  1.8050 -0.5909  0.5538
 7804SOL    HW226818   7.137   1.822   3.271  2.0213 -1.2959  0.9519
 7805SOL     OW26819   3.642  10.441   3.145 -0.4637 -0.5400 -0.5319
 7805SOL    HW126820   3.571  10.469   3.087  0.4798 -0.9473 -1.9041
 7805SOL    HW226821   3.717  10.495   3.119 -0.2812 -0.0529  0.9658
 7806SOL     OW26822   1.795   5.808   4.471  0.1855 -0.0630  0.1110
 7806SOL    HW126823   1.715   5.851   4.442  0.0193  0.6987  1.6344
 7806SOL    HW226824   1.834   5.869   4.534  1.2550 -1.0337  0.4163
 7807SOL     OW26825   3.756   4.585   8.287  0.2585 -0.4407 -0.7383
 7807SOL    HW126826   3.668   4.622   8.281  0.3512 -0.3769 -1.8463
 7807SOL    HW226827   3.742   4.490   8.287  0.1634 -0.4255 -0.4901
 7808SOL     OW26828   0.836   7.797   8.420 -0.0619 -0.3376  0.3127
 7808SOL    HW126829   0.910   7.844   8.459 -0.1212  0.8501 -0.9842
 7808SOL    HW226830   0.821   7.724   8.480  0.4431  0.9181  2.0332
 7809SOL     OW26831   8.256   1.774   2.524  0.3066  0.3975  0.3487
 7809SOL    HW126832   8.175   1.759   2.475  0.0774 -0.1932  0.8979
 7809SOL    HW226833   8.296   1.849   2.481 -1.5938  2.0807  1.4086
 7810SOL     OW26834   3.510   1.723   0.211  0.1630  0.2038 -0.5982
 7810SOL    HW126835   3.563   1.644   0.203 -0.8048 -0.4357 -0.7228
 7810SOL    HW226836   3.463   1.728   0.128 -2.8118 -1.2996  0.9201
 7811SOL     OW26837   6.785   6.961   9.471  0.7108 -0.0370 -0.3538
 7811SOL    HW126838   6.862   6.905   9.479  1.7245  1.3401 -0.4388
 7811SOL    HW226839   6.803   7.037   9.526 -1.7527 -0.9277  1.8257
 7812SOL     OW26840   3.174   8.893   0.119  0.3715  0.4307  0.6593
 7812SOL    HW126841   3.085   8.916   0.146 -0.4287  0.2112 -1.6876
 7812SOL    HW226842   3.224   8.892   0.201 -2.0220 -0.5905  2.1725
 7813SOL     OW26843   9.603   2.524   9.372  0.2157  0.8531 -0.7176
 7813SOL    HW126844   9.662   2.464   9.326 -1.3048  0.4499 -2.1865
 7813SOL    HW226845   9.660   2.574   9.429  1.9723  0.3675 -2.0008
 7814SOL     OW26846   1.454   4.318   9.625 -0.3222 -0.2887  0.1884
 7814SOL    HW126847   1.361   4.339   9.638 -0.3215  0.3026 -0.6694
 7814SOL    HW226848   1.472   4.249   9.688 -1.1764  0.0632  0.8367
 7815SOL     OW26849   0.211   8.405   2.425  0.0778 -0.2045 -0.0331
 7815SOL    HW126850   0.200   8.330   2.366 -0.9584  0.2290 -0.4202
 7815SOL    HW226851   0.245   8.367   2.506  0.1073 -1.0134 -0.4158
 7816SOL     OW26852   6.162   7.813   2.466 -0.4568 -0.4408 -0.3470
 7816SOL    HW126853   6.069   7.832   2.468  0.0236  2.0727 -0.7938
 7816SOL    HW226854   6.183   7.809   2.372 -0.1218 -1.0931 -0.2485
 7817SOL     OW26855   9.395   1.539  10.378 -0.0890 -0.0085  0.0472
 7817SOL    HW126856   9.479   1.540  10.424  0.1587 -0.6789 -0.3828
 7817SOL    HW226857   9.404   1.606  10.310 -1.5796  3.2313  2.9063
 7818SOL     OW26858   2.397   2.879   5.643  0.2688 -0.0850 -0.1215
 7818SOL    HW126859   2.313   2.869   5.687 -0.3325 -1.0955 -1.4751
 7818SOL    HW226860   2.423   2.790   5.620  0.3374  0.4604 -2.2613
 7819SOL     OW26861   3.626   8.227   9.901 -0.1241  0.1833 -1.0146
 7819SOL    HW126862   3.712   8.191   9.923 -0.8930 -0.8896  0.3652
 7819SOL    HW226863   3.634   8.320   9.917  0.8938  0.1559 -1.2978
 7820SOL     OW26864   6.725   5.264   4.949  0.1224  0.0622  0.5709
 7820SOL    HW126865   6.651   5.320   4.923  0.1386  0.0433  0.4843
 7820SOL    HW226866   6.702   5.178   4.916  1.5032  0.6229 -1.9960
 7821SOL     OW26867   3.778   4.755   6.631 -0.2360  0.4714  0.1168
 7821SOL    HW126868   3.745   4.682   6.684  2.3179 -0.4193  0.5464
 7821SOL    HW226869   3.858   4.783   6.675  1.9539 -0.2636 -3.1773
 7822SOL     OW26870   4.170   4.640   8.079 -0.0082 -0.4860  0.1103
 7822SOL    HW126871   4.164   4.689   8.161  0.2611 -2.0861  1.1135
 7822SOL    HW226872   4.083   4.601   8.067 -0.2454  0.2795 -0.7162
 7823SOL     OW26873   7.755   9.181   9.885 -0.0730 -0.3348  0.1258
 7823SOL    HW126874   7.717   9.183   9.798  1.1744  0.8298 -0.4107
 7823SOL    HW226875   7.844   9.215   9.874  0.5249 -1.3242  1.6370
 7824SOL     OW26876   0.585   9.007   9.152 -0.0773  0.1442 -0.1217
 7824SOL    HW126877   0.654   9.008   9.219 -0.6202  1.3512  0.4274
 7824SOL    HW226878   0.516   8.952   9.190  0.7773 -1.5284 -0.9024
 7825SOL     OW26879   1.069   2.914   6.895  0.1452 -0.0322  0.0533
 7825SOL    HW126880   1.099   2.904   6.986 -0.8164 -1.0455  0.2618
 7825SOL    HW226881   0.975   2.900   6.899  0.1949 -0.7947 -1.2175
 7826SOL     OW26882   1.522   6.584   9.958  0.0531  0.2281 -0.2157
 7826SOL    HW126883   1.502   6.519   9.890 -0.3837  1.5934 -1.4162
 7826SOL    HW226884   1.484   6.548  10.038  0.8714 -1.5749 -0.5986
 7827SOL     OW26885   6.333   5.454   6.671  0.4444  0.5417  0.5661
 7827SOL    HW126886   6.293   5.478   6.754  0.2607 -0.0708  0.6589
 7827SOL    HW226887   6.258   5.435   6.613  0.5983 -0.8558  0.8134
 7828SOL     OW26888   0.597   5.812   5.409  0.2683  0.0781  0.6915
 7828SOL    HW126889   0.641   5.806   5.493  0.3772 -0.0417  0.6258
 7828SOL    HW226890   0.515   5.857   5.428  0.7130  0.8916  0.6925
 7829SOL     OW26891   2.897   9.840   3.392 -0.1846 -0.0692  0.1048
 7829SOL    HW126892   2.873   9.908   3.455 -0.3508  0.9312 -1.0224
 7829SOL    HW226893   2.921   9.888   3.312 -0.7041 -1.3432 -0.8446
 7830SOL     OW26894   1.585   9.511   6.680  0.0998  0.4292  0.7760
 7830SOL    HW126895   1.639   9.473   6.611 -2.6562 -0.2978 -1.0605
 7830SOL    HW226896   1.574   9.439   6.743  1.3555  0.6276  1.2387
 7831SOL     OW26897   2.773   3.503   3.756  0.0121 -0.0885  0.1454
 7831SOL    HW126898   2.724   3.558   3.694 -1.9275  0.2656  1.9124
 7831SOL    HW226899   2.795   3.425   3.706 -2.0547 -0.0842 -0.8438
 7832SOL     OW26900   2.069   6.371   5.797 -0.2086  0.4054 -0.3003
 7832SOL    HW126901   2.112   6.456   5.794 -2.3124  1.6496  2.7393
 7832SOL    HW226902   1.978   6.389   5.771 -0.7207 -0.8861  0.5421
 7833SOL     OW26903   6.839   8.211   6.409 -0.1247  0.2877  0.0922
 7833SOL    HW126904   6.934   8.214   6.400  0.0137 -0.1044  1.2620
 7833SOL    HW226905   6.819   8.279   6.473 -0.3623 -1.3043  1.7487
 7834SOL     OW26906   8.515  10.330   0.004  0.0096  0.2067 -0.1896
 7834SOL    HW126907   8.457  10.406   0.010  0.8581  0.7853  0.8512
 7834SOL    HW226908   8.456  10.256  -0.012 -1.0100  0.8152  0.6649
 7835SOL     OW26909  10.613  10.892   9.330  0.1095  1.0777 -0.3934
 7835SOL    HW126910  10.599  10.937   9.412  1.8885 -1.3054  1.3045
 7835SOL    HW226911  10.541  10.829   9.324  1.2693 -0.4118  0.6124
 7836SOL     OW26912   5.947   4.353   3.311 -0.1294 -0.3383  0.4291
 7836SOL    HW126913   5.939   4.433   3.259 -0.2784 -0.3772  0.3931
 7836SOL    HW226914   5.871   4.355   3.369  0.0144 -0.3151  0.6176
 7837SOL     OW26915  10.487   1.701   3.625 -0.7099  0.4171  0.3120
 7837SOL    HW126916  10.419   1.645   3.662 -0.7486  0.6913  0.6612
 7837SOL    HW226917  10.565   1.682   3.677 -0.6090  0.3620  0.1413
 7838SOL     OW26918   9.465   8.650   6.176  0.0318 -0.4808 -0.0448
 7838SOL    HW126919   9.498   8.561   6.160  2.1881 -0.0067  1.4685
 7838SOL    HW226920   9.501   8.701   6.104 -0.9598 -0.7613 -0.7497
 7839SOL     OW26921   8.104   6.614   7.427 -0.5123  0.0760  0.3592
 7839SOL    HW126922   8.159   6.684   7.462  2.0983 -1.3395 -0.7570
 7839SOL    HW226923   8.074   6.648   7.343 -1.1942  0.7693  0.8723
 7840SOL     OW26924   5.842  10.609   5.529 -0.3955 -0.4968  0.1703
 7840SOL    HW126925   5.915  10.668   5.509  0.5003 -1.9854 -1.0030
 7840SOL    HW226926   5.764  10.659   5.505  0.4725 -0.7620 -3.4147
 7841SOL     OW26927   3.485   2.378   2.486 -0.4565  0.0792  0.1928
 7841SOL    HW126928   3.457   2.403   2.398  0.3651 -2.4284 -0.8399
 7841SOL    HW226929   3.417   2.413   2.543 -0.3679  2.8405 -1.2793
 7842SOL     OW26930   6.035  10.269   2.884 -0.0795  0.8374  0.2922
 7842SOL    HW126931   6.106  10.222   2.927 -0.4973 -0.2847 -0.2447
 7842SOL    HW226932   6.038  10.357   2.923  1.8311  0.9186  0.0050
 7843SOL     OW26933   5.091  10.435   8.308  0.0629 -0.7051 -0.5784
 7843SOL    HW126934   4.999  10.457   8.291  0.3498 -0.1982 -1.5147
 7843SOL    HW226935   5.122  10.505   8.365 -0.5328 -1.6872  0.9950
 7844SOL     OW26936  10.637   8.361  10.091  0.0315  0.1434 -0.2796
 7844SOL    HW126937  10.606   8.270  10.087 -0.4415  0.2609  0.6914
 7844SOL    HW226938  10.624   8.387  10.182 -0.7055  1.4957 -0.7643
 7845SOL     OW26939  10.440   4.608   1.076 -0.5183 -0.4792  0.4277
 7845SOL    HW126940  10.521   4.594   1.126 -0.8709  1.7786  1.7097
 7845SOL    HW226941  10.379   4.644   1.140 -2.5438 -2.1017 -0.5591
 7846SOL     OW26942   6.835   4.027  10.830 -0.2008 -0.0513  0.3555
 7846SOL    HW126943   6.851   3.941  10.792 -1.7338  0.3884 -1.3789
 7846SOL    HW226944   6.739   4.035  10.833 -0.0852  1.2663  1.2471
 7847SOL     OW26945  10.237   5.828   6.024  0.2366  0.4790 -0.2876
 7847SOL    HW126946  10.185   5.756   5.990 -0.5025  0.9016 -0.0596
 7847SOL    HW226947  10.326   5.809   5.994 -0.1146 -0.0254 -1.0330
 7848SOL     OW26948   1.924   6.170   8.265 -0.4830 -0.6616 -0.3984
 7848SOL    HW126949   2.001   6.227   8.261  0.8431 -2.3795  0.1421
 7848SOL    HW226950   1.936   6.120   8.346 -1.5737 -1.7675 -0.9159
 7849SOL     OW26951   8.676   6.725   1.423 -0.2355  0.1653  0.3273
 7849SOL    HW126952   8.760   6.737   1.379 -0.3241  1.3070  0.4404
 7849SOL    HW226953   8.614   6.708   1.352  0.1123 -0.8013  0.2534
 7850SOL     OW26954   0.166   9.632   1.681 -0.0586  0.3364 -0.2365
 7850SOL    HW126955   0.169   9.604   1.772 -0.4670  1.5380  0.1472
 7850SOL    HW226956   0.251   9.605   1.645  0.2906  0.2841  0.6192
 7851SOL     OW26957   9.841   6.362   6.127 -0.4619  0.0270  0.0130
 7851SOL    HW126958   9.871   6.284   6.175 -0.6408  0.7887  1.3980
 7851SOL    HW226959   9.921   6.406   6.100 -0.3588 -0.4039 -0.3929
 7852SOL     OW26960   2.592   5.577   6.872  0.4111 -0.5185 -0.6312
 7852SOL    HW126961   2.638   5.603   6.951  0.1878 -1.2935 -0.2445
 7852SOL    HW226962   2.519   5.522   6.902  0.5778 -1.1813 -1.3893
 7853SOL     OW26963   1.829   2.754   3.422  0.0308 -0.0118 -0.2305
 7853SOL    HW126964   1.920   2.786   3.427  0.9175 -2.5274  0.7818
 7853SOL    HW226965   1.833   2.666   3.459 -2.9894  0.0963  0.4703
 7854SOL     OW26966  10.093   6.279   8.054  0.2741 -0.5348  0.2365
 7854SOL    HW126967  10.069   6.283   8.146  0.5983 -0.0778  0.3000
 7854SOL    HW226968  10.178   6.322   8.049  0.5299 -1.0903 -0.1797
 7855SOL     OW26969   1.893   0.607   8.236  0.1330  0.4743 -0.3628
 7855SOL    HW126970   1.922   0.518   8.256  1.6391  1.1267  0.3889
 7855SOL    HW226971   1.823   0.595   8.172  1.0197 -1.2045 -1.0520
 7856SOL     OW26972  10.335   7.307   1.451 -0.0091  0.5381  0.8537
 7856SOL    HW126973  10.311   7.318   1.359  0.5858 -1.4795  0.4211
 7856SOL    HW226974  10.409   7.366   1.464  1.4857 -0.9448 -0.6513
 7857SOL     OW26975   4.476   1.413   1.575 -0.0130 -0.6013  0.3253
 7857SOL    HW126976   4.498   1.321   1.558  0.0796 -0.9942  2.3864
 7857SOL    HW226977   4.511   1.430   1.662 -0.3437  1.3050  0.1142
 7858SOL     OW26978   5.542   0.499   0.550 -0.3762  0.1344  0.0355
 7858SOL    HW126979   5.573   0.499   0.640  1.6439 -1.7508 -0.5940
 7858SOL    HW226980   5.600   0.560   0.505 -0.9650  0.5856 -0.1108
 7859SOL     OW26981   5.175   4.367   6.720 -0.4250  0.1161  0.6930
 7859SOL    HW126982   5.239   4.412   6.774  1.4832  1.0268 -2.1958
 7859SOL    HW226983   5.223   4.292   6.683 -1.0337  0.6931 -1.3538
 7860SOL     OW26984   4.947   4.441   5.392  0.4507  0.8518 -0.3358
 7860SOL    HW126985   5.031   4.397   5.376  0.8657  1.5290 -0.0634
 7860SOL    HW226986   4.968   4.509   5.456 -0.5438  0.2767  0.6166
 7861SOL     OW26987   4.991   2.483  10.435  0.2992  0.2883  0.8620
 7861SOL    HW126988   4.973   2.517  10.523  2.3196  0.5056  1.2356
 7861SOL    HW226989   5.073   2.434  10.445  0.5021  0.2375 -0.8809
 7862SOL     OW26990   7.691   9.973   1.007  0.2304 -0.7018  0.3991
 7862SOL    HW126991   7.678   9.952   1.100  0.9334  1.3185  0.9683
 7862SOL    HW226992   7.604   9.966   0.969 -0.3478  0.0784  1.5539
 7863SOL     OW26993   4.925  10.037   3.046 -0.1647 -0.1361 -0.1005
 7863SOL    HW126994   4.958  10.120   3.012 -1.2309  1.0819  1.7769
 7863SOL    HW226995   4.941  10.041   3.140 -0.6669 -1.8588  0.0831
 7864SOL     OW26996   5.911  10.394  10.623 -0.4617  0.1527 -0.4639
 7864SOL    HW126997   5.973  10.440  10.680 -1.5118  3.0398 -1.5797
 7864SOL    HW226998   5.852  10.349  10.683  0.2478  0.7061  0.6682
 7865SOL     OW26999   9.269  10.432   7.201 -0.3864  0.5769  0.4001
 7865SOL    HW127000   9.320  10.513   7.203 -0.0252  0.3836 -0.6859
 7865SOL    HW227001   9.183  10.457   7.235  0.7110  0.6712  3.2220
 7866SOL     OW27002   7.038  10.421   1.822  0.3101 -0.6685  0.5709
 7866SOL    HW127003   6.962  10.427   1.880  0.6176 -1.1472  1.0326
 7866SOL    HW227004   7.024  10.489   1.757 -0.1204 -0.2279  1.1189
 7867SOL     OW27005   3.764   8.421   5.836  0.1396  0.1336  0.6994
 7867SOL    HW127006   3.686   8.366   5.821  1.8360 -2.0176 -0.5539
 7867SOL    HW227007   3.816   8.371   5.899  1.1626  0.8888  0.4607
 7868SOL     OW27008   1.570   5.482   7.218 -0.1269 -0.4281  0.4162
 7868SOL    HW127009   1.477   5.507   7.214  0.2300  0.9882  0.6291
 7868SOL    HW227010   1.594   5.496   7.310  0.7030  0.7910  0.0359
 7869SOL     OW27011   4.907   7.147   0.974  0.3108 -0.2521 -0.2563
 7869SOL    HW127012   4.982   7.098   1.006 -0.0431 -1.7591 -1.6944
 7869SOL    HW227013   4.849   7.153   1.050  0.3683 -2.0649 -0.0438
 7870SOL     OW27014   6.332  10.100   8.386  0.0458  1.0070 -0.4542
 7870SOL    HW127015   6.295  10.177   8.429  0.5321  0.1403  1.5724
 7870SOL    HW227016   6.419  10.091   8.424 -0.6239 -1.5014  0.5869
 7871SOL     OW27017   9.130   2.956   9.418  0.0402 -0.0333  0.1613
 7871SOL    HW127018   9.215   2.917   9.398  0.5938  0.6198  1.2149
 7871SOL    HW227019   9.139   3.048   9.394 -0.5867 -0.0982 -0.3456
 7872SOL     OW27020   2.931   4.836   1.972 -0.4748 -0.4957  0.1947
 7872SOL    HW127021   2.923   4.750   1.931  0.0421 -0.4848  0.0684
 7872SOL    HW227022   2.905   4.822   2.063 -0.7156 -0.7168  0.0901
 7873SOL     OW27023   0.327   9.195   0.893  0.2226 -0.3779 -0.5048
 7873SOL    HW127024   0.326   9.177   0.799 -2.8200  0.3106 -0.6630
 7873SOL    HW227025   0.314   9.290   0.900  0.4745 -0.4142  0.5963
 7874SOL     OW27026   7.544   3.541   7.476 -0.0079 -0.1867  0.0532
 7874SOL    HW127027   7.532   3.492   7.394  1.9654 -1.3484  0.4135
 7874SOL    HW227028   7.458   3.540   7.517 -0.8558 -0.2153 -1.6815
 7875SOL     OW27029   9.481   3.045   6.446 -0.3106  0.1767  0.3254
 7875SOL    HW127030   9.402   3.038   6.391 -0.9929  0.8371  1.2112
 7875SOL    HW227031   9.451   3.022   6.534  0.4386  0.6573  0.7092
 7876SOL     OW27032   0.370   9.073   6.857 -0.2115 -0.0747  0.7049
 7876SOL    HW127033   0.352   9.091   6.950  0.6265  1.1090  0.6437
 7876SOL    HW227034   0.435   9.138   6.832  0.6021 -1.2788 -0.3565
 7877SOL     OW27035   0.654   8.106   9.961 -0.4266  0.1389 -0.3305
 7877SOL    HW127036   0.696   8.072  10.040 -1.1163 -0.5672 -0.2603
 7877SOL    HW227037   0.726   8.144   9.910  0.7195 -3.0520 -1.2494
 7878SOL     OW27038   1.072   1.178   4.990 -0.2556 -0.9982  0.1375
 7878SOL    HW127039   1.027   1.095   4.974 -3.8287  0.7019  0.9386
 7878SOL    HW227040   1.065   1.192   5.084  0.8990 -0.0620  0.1010
 7879SOL     OW27041   6.738   1.405   9.228  0.0361  0.5951  0.0623
 7879SOL    HW127042   6.756   1.496   9.251  0.9235  0.5991 -0.5811
 7879SOL    HW227043   6.742   1.404   9.132 -1.4212  0.1603 -0.0002
 7880SOL     OW27044   8.512   3.363   5.065 -0.5597 -0.3107 -0.2819
 7880SOL    HW127045   8.545   3.453   5.057  1.3410 -1.0050 -0.3830
 7880SOL    HW227046   8.465   3.362   5.149 -1.2798  0.9784 -0.6540
 7881SOL     OW27047   6.276   3.806   5.145  0.5327 -0.3639  0.6200
 7881SOL    HW127048   6.306   3.721   5.176 -3.5995 -1.5000  1.7903
 7881SOL    HW227049   6.182   3.808   5.165 -0.1291  3.2141 -2.1959
 7882SOL     OW27050   7.830   2.323  10.555  0.1251  0.0044 -0.3039
 7882SOL    HW127051   7.870   2.249  10.601  1.5621  1.9106  1.6183
 7882SOL    HW227052   7.904   2.378  10.529 -0.9935  1.2977 -0.8136
 7883SOL     OW27053   6.094   5.143   3.933 -0.0781  0.2662  0.1692
 7883SOL    HW127054   6.167   5.201   3.954  0.2368 -0.1415  0.1879
 7883SOL    HW227055   6.102   5.127   3.839  0.1675 -0.2077  0.2696
 7884SOL     OW27056   2.089   3.253   5.237  0.0175 -0.4956 -0.2601
 7884SOL    HW127057   2.177   3.283   5.257 -0.2140 -0.1515  0.2725
 7884SOL    HW227058   2.058   3.214   5.319 -0.0227 -1.3549 -0.6827
 7885SOL     OW27059   5.223   1.776  10.495  0.4325 -0.4550 -0.5729
 7885SOL    HW127060   5.287   1.726  10.546  0.9242  0.8027  0.0769
 7885SOL    HW227061   5.138   1.745  10.525  0.7144 -2.8076 -2.1011
 7886SOL     OW27062   8.548   3.273   4.568  0.0893  0.4170  0.1934
 7886SOL    HW127063   8.515   3.329   4.638 -0.7454  0.9098 -0.5964
 7886SOL    HW227064   8.504   3.190   4.581  0.5256  0.2621  0.7205
 7887SOL     OW27065  10.427   6.032   3.612 -0.6693  0.0152  0.0825
 7887SOL    HW127066  10.518   6.045   3.587 -0.2769 -0.5059  1.2054
 7887SOL    HW227067  10.380   6.025   3.529  0.3979 -0.3234 -0.5025
 7888SOL     OW27068  10.680  10.146  10.154 -0.0732 -0.0953 -0.4466
 7888SOL    HW127069  10.723  10.146  10.239 -1.6540  0.8134  0.3684
 7888SOL    HW227070  10.676  10.053  10.129  1.0448 -0.3089  0.1055
 7889SOL     OW27071   1.138   0.451   9.713  0.4209  0.3676  0.0849
 7889SOL    HW127072   1.106   0.418   9.797  1.2319  0.7664  0.5496
 7889SOL    HW227073   1.212   0.507   9.735  1.3454 -0.3969 -0.9744
 7890SOL     OW27074   3.962   1.541   5.460  0.0766  0.5794 -0.0036
 7890SOL    HW127075   3.909   1.616   5.435 -2.2909 -1.3269 -0.8936
 7890SOL    HW227076   3.947   1.476   5.391  1.6158 -0.9284  1.0301
 7891SOL     OW27077  10.361   2.967   4.255 -0.1054  0.1357 -0.1551
 7891SOL    HW127078  10.446   2.964   4.301 -0.4715  1.0226  0.6057
 7891SOL    HW227079  10.356   3.056   4.221 -0.0957 -0.3528 -1.4563
 7892SOL     OW27080   5.728   5.815   6.723  0.6325  0.4407  0.5555
 7892SOL    HW127081   5.684   5.732   6.707 -0.1517  1.0587 -0.6132
 7892SOL    HW227082   5.752   5.846   6.635 -0.4967  2.2058  0.8503
 7893SOL     OW27083   9.421   7.765   2.257 -0.0125  0.2112  0.3528
 7893SOL    HW127084   9.357   7.835   2.240  2.0905  1.4990 -2.7546
 7893SOL    HW227085   9.371   7.699   2.304 -3.5424  1.4240 -1.4472
 7894SOL     OW27086   1.629   9.874  10.071 -0.2313 -0.2003  0.1216
 7894SOL    HW127087   1.590   9.791  10.045 -1.3119  0.1910  0.5040
 7894SOL    HW227088   1.555   9.930  10.094  0.4942  0.8442 -0.0576
 7895SOL     OW27089   3.269   6.192   2.557 -0.0426 -0.0305  0.3825
 7895SOL    HW127090   3.193   6.142   2.587  0.4659  0.4219  2.5045
 7895SOL    HW227091   3.280   6.261   2.622  1.2362  0.8883 -0.7626
 7896SOL     OW27092   9.071   8.026   2.510  0.1596 -0.3878 -0.4002
 7896SOL    HW127093   8.988   7.988   2.483 -1.1429  1.1140  1.3875
 7896SOL    HW227094   9.065   8.033   2.605  1.0044  2.6526 -0.5134
 7897SOL     OW27095   7.016   7.292   4.047  0.2291 -0.1512  0.5072
 7897SOL    HW127096   6.964   7.371   4.028 -1.0576 -0.7733  1.3676
 7897SOL    HW227097   7.026   7.293   4.142  1.3419 -0.3370  0.3981
 7898SOL     OW27098   0.369   6.124   3.935 -0.0473  0.1989 -0.0408
 7898SOL    HW127099   0.432   6.170   3.990 -1.1180 -0.2889  1.6637
 7898SOL    HW227100   0.305   6.089   3.997 -0.4415 -1.7211 -1.4660
 7899SOL     OW27101   9.872   3.950   5.146  0.4689 -0.4030  0.6850
 7899SOL    HW127102   9.944   4.000   5.186  0.9299 -0.4186 -0.1266
 7899SOL    HW227103   9.863   3.987   5.058  0.0517 -0.9833  0.4838
 7900SOL     OW27104   1.691   3.445   0.770 -0.2536  0.5166 -0.2329
 7900SOL    HW127105   1.646   3.523   0.739 -0.3438  0.2061 -0.8911
 7900SOL    HW227106   1.761   3.478   0.826 -0.8278  1.0342  0.1969
 7901SOL     OW27107   9.425   3.481   9.942  0.2287  0.1492  0.2840
 7901SOL    HW127108   9.353   3.492   9.880  1.1933 -2.3711 -1.3717
 7901SOL    HW227109   9.381   3.460  10.025 -1.0183  1.7198  0.0439
 7902SOL     OW27110   7.342   1.230   2.147  0.0307  0.9543 -0.2902
 7902SOL    HW127111   7.271   1.286   2.116 -0.1301  0.5765 -0.6008
 7902SOL    HW227112   7.395   1.287   2.203 -0.5903  1.1994  0.0503
 7903SOL     OW27113   4.813   0.285   2.348  0.3114  0.2143  0.4232
 7903SOL    HW127114   4.733   0.315   2.391 -1.5741 -0.3139 -2.5704
 7903SOL    HW227115   4.869   0.363   2.345 -0.0620  0.5969  2.5220
 7904SOL     OW27116   2.789   2.303   7.927  0.1499 -0.3626  0.1819
 7904SOL    HW127117   2.821   2.260   7.848  2.2495  0.0136  0.8076
 7904SOL    HW227118   2.711   2.253   7.951  0.8810 -2.0044 -0.7571
 7905SOL     OW27119   1.183   0.130   1.623  0.2919 -0.4126  0.0763
 7905SOL    HW127120   1.120   0.082   1.677  1.3078 -1.5920  0.2212
 7905SOL    HW227121   1.268   0.102   1.655  0.9293  2.2936  0.8830
 7906SOL     OW27122   4.946  10.862   6.214  0.1418  0.2781  0.1084
 7906SOL    HW127123   4.977  10.934   6.269 -0.9931  0.0511  1.0521
 7906SOL    HW227124   4.862  10.836   6.253 -1.3467  0.9919 -2.4856
 7907SOL     OW27125   3.816   2.797   7.521 -0.1208  0.1393  0.3085
 7907SOL    HW127126   3.846   2.706   7.515  1.6094  0.7016  0.0072
 7907SOL    HW227127   3.895   2.846   7.546 -1.6123  1.2190  3.0804
 7908SOL     OW27128   0.123  10.165   3.432  0.5079  0.0738  0.0120
 7908SOL    HW127129   0.039  10.177   3.477 -1.2638 -2.9317 -2.2965
 7908SOL    HW227130   0.131  10.242   3.376 -1.9131 -0.6856 -1.4715
 7909SOL     OW27131   2.881   3.841   9.016  0.5176  0.0013 -0.0786
 7909SOL    HW127132   2.965   3.841   8.971  0.3112 -1.6950 -0.4927
 7909SOL    HW227133   2.825   3.785   8.963 -1.1705  1.8644 -0.3038
 7910SOL     OW27134   7.915   0.763   8.507 -0.3975  0.4676 -0.2373
 7910SOL    HW127135   7.915   0.845   8.458 -0.6372  0.3131 -0.5044
 7910SOL    HW227136   7.896   0.788   8.597 -0.2601  0.7258 -0.2819
 7911SOL     OW27137   2.129   9.949   6.105  0.1581  0.0372 -0.0581
 7911SOL    HW127138   2.193   9.885   6.074 -0.3674  0.2980 -1.7470
 7911SOL    HW227139   2.076   9.901   6.170 -0.3914 -1.3354 -1.4931
 7912SOL     OW27140  10.121   4.421   3.817  0.1634 -0.2994 -0.6087
 7912SOL    HW127141  10.038   4.374   3.809  0.2680 -0.4709 -0.6935
 7912SOL    HW227142  10.100   4.511   3.794 -0.4573  0.1114  1.4794
 7913SOL     OW27143   0.199   3.296   1.951  0.3185  0.4502  0.5683
 7913SOL    HW127144   0.281   3.264   1.914 -0.2716 -0.9547  0.4426
 7913SOL    HW227145   0.224   3.371   2.005  1.9118 -1.1068  2.0581
 7914SOL     OW27146   4.660   2.852   1.190 -0.1390  0.0325  0.2620
 7914SOL    HW127147   4.704   2.935   1.205  0.7705 -0.7317  2.0121
 7914SOL    HW227148   4.568   2.876   1.176  0.3775  1.4360 -0.8403
 7915SOL     OW27149   5.393   3.178   0.767 -0.2633 -0.6805 -0.2269
 7915SOL    HW127150   5.312   3.156   0.721 -0.8062 -0.8572  0.8201
 7915SOL    HW227151   5.394   3.122   0.844  0.3026  0.1269  0.3607
 7916SOL     OW27152   4.588   1.686   9.504 -0.5959 -0.3136  0.2059
 7916SOL    HW127153   4.526   1.730   9.446 -0.4269  0.8427  0.8981
 7916SOL    HW227154   4.542   1.680   9.588  0.5371  1.3145  0.9545
 7917SOL     OW27155   9.760   9.226   1.410  0.2936 -0.2618  0.7080
 7917SOL    HW127156   9.803   9.143   1.388  0.1561 -0.0555 -0.3737
 7917SOL    HW227157   9.721   9.255   1.328 -1.6992 -0.2977  1.6264
 7918SOL     OW27158   0.353   1.137   4.505 -0.0582 -0.0493 -0.4030
 7918SOL    HW127159   0.426   1.110   4.449 -0.3472 -2.2361  0.2377
 7918SOL    HW227160   0.351   1.233   4.497  1.0091 -0.1852 -2.7387
 7919SOL     OW27161   0.810   7.842   6.081  0.2642  0.0662  0.0233
 7919SOL    HW127162   0.824   7.774   6.016 -0.4121  0.7371 -0.8356
 7919SOL    HW227163   0.724   7.822   6.118  0.0926  0.4257 -0.1858
 7920SOL     OW27164   0.915  10.721   6.568  0.0659  0.1126 -0.0067
 7920SOL    HW127165   0.886  10.636   6.602  1.6111 -0.5879 -0.4332
 7920SOL    HW227166   0.873  10.728   6.482  0.7151 -0.6670 -0.3964
 7921SOL     OW27167  10.977   2.252  10.438  0.1812 -0.3278 -0.1817
 7921SOL    HW127168  10.885   2.276  10.426  0.1949  1.6325  2.8340
 7921SOL    HW227169  10.976   2.157  10.449 -1.1838 -0.6092 -2.5038
 7922SOL     OW27170   7.967   7.565  10.683 -0.7662 -0.2045 -0.2056
 7922SOL    HW127171   8.006   7.616  10.612 -0.5242 -0.4093 -0.2200
 7922SOL    HW227172   7.995   7.475  10.666 -0.3469 -0.1928  0.3878
 7923SOL     OW27173   5.728   8.458   4.605  0.2613  0.0093  0.3545
 7923SOL    HW127174   5.704   8.365   4.598 -0.3350  0.1818  0.0481
 7923SOL    HW227175   5.816   8.463   4.567  0.9134 -0.6841  1.7206
 7924SOL     OW27176  10.828   9.610   3.909  0.3201 -0.5100  0.1302
 7924SOL    HW127177  10.904   9.636   3.858  1.1396 -2.0427  0.5482
 7924SOL    HW227178  10.772   9.564   3.846  0.6278 -1.0610  0.2535
 7925SOL     OW27179   3.604   0.545   0.090  0.3721 -0.1175  0.7124
 7925SOL    HW127180   3.639   0.485   0.156  0.9340  0.1522  0.6631
 7925SOL    HW227181   3.589   0.627   0.138  0.9544  0.1334  0.4609
 7926SOL     OW27182   4.207   0.379  10.681 -0.5814  0.0023  0.7806
 7926SOL    HW127183   4.219   0.322  10.757  0.4986  0.2325  0.7964
 7926SOL    HW227184   4.121   0.356  10.646 -0.0030 -1.9127  0.5501
 7927SOL     OW27185   4.454   6.476   6.834  0.5227  0.0974  0.1720
 7927SOL    HW127186   4.446   6.529   6.755 -0.6584  0.4265  0.5046
 7927SOL    HW227187   4.548   6.458   6.841  0.9073  1.8250 -0.1601
 7928SOL     OW27188  10.607  10.246  10.779 -0.3520  0.2443 -0.5482
 7928SOL    HW127189  10.670  10.193  10.827  0.9434  2.3574  0.1567
 7928SOL    HW227190  10.522  10.207  10.798  0.4392 -0.7291  1.0621
 7929SOL     OW27191   6.395   2.368   4.961 -0.1013 -0.3244 -0.7602
 7929SOL    HW127192   6.374   2.314   5.037 -0.5112 -0.0035 -0.6494
 7929SOL    HW227193   6.361   2.319   4.886 -2.7215  0.9503 -0.4565
 7930SOL     OW27194   6.440   3.709   9.027 -0.6183 -0.5499 -0.1589
 7930SOL    HW127195   6.394   3.648   9.084  0.8006 -0.2509  1.3488
 7930SOL    HW227196   6.485   3.653   8.963 -0.8715 -0.9783  0.0369
 7931SOL     OW27197   6.158  10.925  10.192 -0.4897 -0.6258 -1.0622
 7931SOL    HW127198   6.115  10.844  10.219 -0.1789 -0.4609 -0.0216
 7931SOL    HW227199   6.143  10.985  10.265  0.5105 -0.2086 -1.1890
 7932SOL     OW27200   1.252   8.871   6.687 -0.4573 -0.0169 -0.5709
 7932SOL    HW127201   1.301   8.791   6.709  2.1146  0.6726 -3.3519
 7932SOL    HW227202   1.167   8.839   6.656 -0.0586 -1.5849 -0.0954
 7933SOL     OW27203   6.283   1.540   7.858 -0.0967 -0.1030 -1.0572
 7933SOL    HW127204   6.336   1.597   7.914  1.3709 -0.8284 -1.6998
 7933SOL    HW227205   6.268   1.462   7.911 -0.2651 -0.0328 -0.9995
 7934SOL     OW27206   5.182   4.721  10.608 -0.2882  0.1204  0.2577
 7934SOL    HW127207   5.276   4.719  10.623 -0.1187  0.2444 -0.7900
 7934SOL    HW227208   5.162   4.814  10.596 -0.6411  0.1529  1.0511
 7935SOL     OW27209   7.667   2.709   1.156  0.5490  0.2745  0.0893
 7935SOL    HW127210   7.603   2.779   1.163  1.1922  1.2868 -3.3232
 7935SOL    HW227211   7.745   2.743   1.199  0.7252  1.5269 -1.1880
 7936SOL     OW27212   1.030   4.081   5.691 -0.9807  0.2011 -0.1443
 7936SOL    HW127213   0.999   4.074   5.601  1.2527  3.4561 -1.2469
 7936SOL    HW227214   0.980   4.153   5.729  0.9604  1.5299 -0.0702
 7937SOL     OW27215   9.193   7.874   5.718  0.5879  0.1757  0.0327
 7937SOL    HW127216   9.114   7.820   5.726  1.0811 -0.2099  2.9260
 7937SOL    HW227217   9.162   7.956   5.680 -0.6594 -1.0572 -1.7036
 7938SOL     OW27218   4.395   0.245   7.348  0.2352 -0.2602  0.5602
 7938SOL    HW127219   4.417   0.231   7.440  1.8815 -1.4877  0.0016
 7938SOL    HW227220   4.465   0.301   7.315  1.0614 -1.8989 -0.5559
 7939SOL     OW27221   0.665   9.484  10.843  0.0394 -0.0690  0.2705
 7939SOL    HW127222   0.707   9.398  10.853 -0.6006 -0.3937  0.2089
 7939SOL    HW227223   0.599   9.486  10.911  0.0701  0.3942  0.2893
 7940SOL     OW27224   1.045   5.559   5.016 -0.4140 -0.2923 -0.0630
 7940SOL    HW127225   1.009   5.545   5.103  0.5460  2.1556  0.7885
 7940SOL    HW227226   0.989   5.626   4.977  1.3986  1.4239  0.1748
 7941SOL     OW27227   2.633   6.167   5.169  0.0881 -0.3211 -0.4376
 7941SOL    HW127228   2.628   6.199   5.259  1.7044 -1.0126 -0.0814
 7941SOL    HW227229   2.554   6.201   5.126 -0.9715 -0.4605  1.3759
 7942SOL     OW27230   0.780   9.465   1.858  0.0629 -0.0391  0.5059
 7942SOL    HW127231   0.839   9.540   1.854  0.2287 -0.2229 -0.7462
 7942SOL    HW227232   0.692   9.503   1.852  0.0758  0.1879  1.7382
 7943SOL     OW27233   2.180   2.775  10.153  0.2915 -0.5045  0.1718
 7943SOL    HW127234   2.238   2.705  10.183  0.4538 -0.7517 -0.7281
 7943SOL    HW227235   2.237   2.835  10.105  0.1946  0.3630  1.1192
 7944SOL     OW27236   7.134   6.286   2.266  0.0275  0.2928 -0.2009
 7944SOL    HW127237   7.155   6.356   2.328  0.3603  0.3579 -0.3892
 7944SOL    HW227238   7.041   6.268   2.282 -0.5689  2.0702 -1.4331
 7945SOL     OW27239   8.619   4.023   9.008  0.1014 -0.7411 -0.0836
 7945SOL    HW127240   8.712   4.039   8.993 -0.5249  0.4691 -2.9174
 7945SOL    HW227241   8.612   3.928   9.019  1.6426 -0.8609 -0.0884
 7946SOL     OW27242  10.525   9.980   2.321 -0.3639 -0.2580  0.0520
 7946SOL    HW127243  10.572   9.989   2.238 -0.6113 -1.9513 -0.2812
 7946SOL    HW227244  10.587   9.937   2.380 -0.5424  0.0316  0.4598
 7947SOL     OW27245   6.588   1.688   2.615  0.0004  0.1520 -0.0868
 7947SOL    HW127246   6.605   1.688   2.710  0.8920 -0.4388 -0.2342
 7947SOL    HW227247   6.668   1.651   2.577 -0.8369 -0.7761 -0.9839
 7948SOL     OW27248  10.634  10.605  10.257 -0.1452 -0.3080 -0.2914
 7948SOL    HW127249  10.681  10.522  10.268  0.7366  0.2798  0.4445
 7948SOL    HW227250  10.653  10.654  10.337 -1.1356  0.3724 -0.4705
 7949SOL     OW27251   6.908   8.138   7.206 -0.0509  0.7377 -0.0933
 7949SOL    HW127252   6.971   8.170   7.140 -0.7830  0.1885 -1.0751
 7949SOL    HW227253   6.954   8.149   7.289  0.6536  2.0400 -0.6289
 7950SOL     OW27254   0.253   5.949   7.742  0.4688  0.3264  0.1476
 7950SOL    HW127255   0.328   6.008   7.751  0.8193 -0.0007 -0.6604
 7950SOL    HW227256   0.270   5.899   7.662  0.7906 -1.7544  1.4716
 7951SOL     OW27257   7.324   0.002   9.243 -0.3677 -0.6376 -0.4772
 7951SOL    HW127258   7.313   0.080   9.297  0.2627 -0.2143 -0.9639
 7951SOL    HW227259   7.349  -0.067   9.305 -0.6259 -0.3895 -0.0946
 7952SOL     OW27260   2.253   5.393   4.326 -0.1604  0.2471  0.0695
 7952SOL    HW127261   2.234   5.475   4.281 -1.9153 -0.3447 -0.2934
 7952SOL    HW227262   2.320   5.351   4.271 -0.7261  0.5090 -0.8306
 7953SOL     OW27263   5.373   8.797   3.347 -0.3446  0.3895 -0.2474
 7953SOL    HW127264   5.368   8.880   3.394  0.7537  1.2263 -1.5701
 7953SOL    HW227265   5.452   8.755   3.382  0.7722  1.2467 -1.6587
 7954SOL     OW27266   3.204   3.301   7.160 -0.2188  0.4043 -0.5342
 7954SOL    HW127267   3.255   3.231   7.119 -0.2400  1.1022 -1.8099
 7954SOL    HW227268   3.121   3.260   7.184  0.0387 -0.1769 -0.6495
 7955SOL     OW27269   6.953   8.814   1.336  0.9096 -0.0784  0.1603
 7955SOL    HW127270   6.916   8.886   1.284 -0.0051 -0.6348  0.0252
 7955SOL    HW227271   6.904   8.815   1.418  0.1863 -1.1832 -0.2452
 7956SOL     OW27272   7.582   2.613   6.391 -0.4969 -0.1625  0.0180
 7956SOL    HW127273   7.620   2.642   6.308  0.6554 -1.7508 -0.0304
 7956SOL    HW227274   7.560   2.694   6.437 -0.1758  0.7433 -1.3848
 7957SOL     OW27275   3.592   2.093   4.149  0.4274 -0.1237 -0.1580
 7957SOL    HW127276   3.553   2.074   4.235  1.7121  1.1051  0.7327
 7957SOL    HW227277   3.655   2.023   4.135 -2.1211 -2.2171 -1.6802
 7958SOL     OW27278   2.231   9.165   4.967  0.0873 -0.3488  0.3895
 7958SOL    HW127279   2.185   9.245   4.995 -2.0287 -0.9634 -1.1964
 7958SOL    HW227280   2.184   9.094   5.010 -0.5875 -1.0002 -1.3670
 7959SOL     OW27281   6.865   8.520   1.757 -0.0752 -0.4922  0.2352
 7959SOL    HW127282   6.899   8.488   1.840 -1.0993 -1.5664  0.2569
 7959SOL    HW227283   6.770   8.526   1.770 -0.4426 -2.2412 -1.3536
 7960SOL     OW27284  10.819   7.487   6.204  0.3798  0.1563 -0.0472
 7960SOL    HW127285  10.819   7.414   6.266  0.9656 -0.0043 -0.2300
 7960SOL    HW227286  10.838   7.564   6.258  0.0138  0.1386  0.1070
 7961SOL     OW27287  10.735   2.592   4.627 -0.4824 -0.1960 -0.2735
 7961SOL    HW127288  10.642   2.586   4.648 -0.2611 -3.0993  0.1219
 7961SOL    HW227289  10.738   2.607   4.533 -1.3705  0.8808 -0.1274
 7962SOL     OW27290  10.264   1.732   0.254  0.1829  0.0278 -0.4923
 7962SOL    HW127291  10.258   1.827   0.258 -1.5817 -0.0139 -1.5310
 7962SOL    HW227292  10.189   1.705   0.201  0.2820 -1.9977  0.3285
 7963SOL     OW27293   4.001   8.776   4.038  0.3913  0.2892  0.7458
 7963SOL    HW127294   3.913   8.760   4.004  0.2417 -0.6528  1.5607
 7963SOL    HW227295   3.997   8.865   4.074  0.2417  0.8707 -0.6644
 7964SOL     OW27296   4.799   7.916   0.565 -0.1765  0.2069  0.0557
 7964SOL    HW127297   4.877   7.875   0.602  1.9703  4.0224  0.0233
 7964SOL    HW227298   4.786   7.871   0.481  1.2631 -1.2631  0.5946
 7965SOL     OW27299   2.076   5.067   8.687 -0.0737 -0.0443 -1.2037
 7965SOL    HW127300   2.007   5.022   8.737 -0.4352 -1.0372 -2.5847
 7965SOL    HW227301   2.036   5.150   8.661  1.3437  2.2299  3.3157
 7966SOL     OW27302   5.096   5.110   1.607 -0.0359 -0.0342  0.0593
 7966SOL    HW127303   5.145   5.179   1.563  0.1646 -0.6757 -0.7385
 7966SOL    HW227304   5.156   5.035   1.610 -0.9282 -0.8034 -0.8735
 7967SOL     OW27305   6.977   4.851   5.157  0.1053  0.3644  0.5962
 7967SOL    HW127306   7.021   4.934   5.175  0.8578 -0.0688  0.7977
 7967SOL    HW227307   6.898   4.853   5.211 -0.0022  1.0480  0.4155
 7968SOL     OW27308   7.956   8.373   7.786  0.4339 -0.2534  0.5854
 7968SOL    HW127309   7.910   8.301   7.742  0.3454  0.4375 -0.4941
 7968SOL    HW227310   8.046   8.368   7.753  0.4240  0.1222  0.4915
 7969SOL     OW27311   2.571   4.687   5.801  0.1216  0.2655 -0.2752
 7969SOL    HW127312   2.556   4.613   5.741 -0.5797  0.7588 -0.7108
 7969SOL    HW227313   2.659   4.718   5.778  0.2127 -0.1055 -0.4398
 7970SOL     OW27314   7.968   1.224   9.958  0.6405  0.5611  0.0272
 7970SOL    HW127315   7.882   1.266   9.948  0.7795  1.0033  0.6664
 7970SOL    HW227316   7.993   1.243  10.048  0.5898 -1.1215  0.4147
 7971SOL     OW27317   7.860   8.459   0.157 -0.2287  0.1884 -0.2011
 7971SOL    HW127318   7.866   8.479   0.250 -1.0673  1.8971 -0.4915
 7971SOL    HW227319   7.884   8.540   0.113 -1.0617 -0.2285 -1.4624
 7972SOL     OW27320  10.570   8.108   7.904  0.3663 -0.2457 -0.0761
 7972SOL    HW127321  10.542   8.026   7.943  1.5969 -1.0065 -0.7571
 7972SOL    HW227322  10.611   8.083   7.821 -0.3636  1.1618 -0.9031
 7973SOL     OW27323   7.223   6.336   6.794  0.6036  0.5179  0.1292
 7973SOL    HW127324   7.314   6.321   6.771  0.5139  0.2256 -0.0241
 7973SOL    HW227325   7.199   6.261   6.849 -0.0911 -0.3490 -1.3380
 7974SOL     OW27326   4.536   4.863   4.909  0.6140 -0.2547  0.2426
 7974SOL    HW127327   4.548   4.810   4.988 -0.3291  0.5838  0.9651
 7974SOL    HW227328   4.486   4.807   4.850  0.7672 -0.6552  0.4898
 7975SOL     OW27329   6.112   9.597   4.649  0.1855 -0.5447  0.3614
 7975SOL    HW127330   6.091   9.565   4.737 -1.3703 -0.6597 -0.0319
 7975SOL    HW227331   6.106   9.519   4.594 -2.1532  0.1272 -0.3705
 7976SOL     OW27332   6.955   3.104  10.050  0.2872 -0.1014 -0.0230
 7976SOL    HW127333   6.969   3.186  10.096 -0.1864 -0.7453  1.3154
 7976SOL    HW227334   7.027   3.048  10.079 -0.7514 -0.9470  1.0219
 7977SOL     OW27335   8.071   6.418   1.889 -0.2164 -0.2947 -0.3323
 7977SOL    HW127336   8.136   6.387   1.952 -0.5711  1.0091  0.6880
 7977SOL    HW227337   8.070   6.350   1.821  1.7269 -0.6429 -0.0434
 7978SOL     OW27338   3.520   3.801   6.947 -0.6631  0.2199 -0.1465
 7978SOL    HW127339   3.530   3.792   6.852  0.5119  0.3648 -0.0357
 7978SOL    HW227340   3.445   3.745   6.968 -1.2203  0.5532 -1.2224
 7979SOL     OW27341   2.563   6.142   5.718  0.4141 -0.0850  0.2165
 7979SOL    HW127342   2.474   6.134   5.753  0.1651 -0.6941 -0.5559
 7979SOL    HW227343   2.616   6.090   5.778  0.3992  0.9550  1.1720
 7980SOL     OW27344   8.019   3.510   4.596  0.1019  0.3432 -0.2815
 7980SOL    HW127345   8.018   3.606   4.587  0.0387  0.2004 -1.8656
 7980SOL    HW227346   7.970   3.479   4.520 -0.9224 -0.9016  0.8850
 7981SOL     OW27347   9.237   3.880  10.635  0.3354  0.5344  0.1372
 7981SOL    HW127348   9.206   3.861  10.723  2.3542  0.5067  0.8633
 7981SOL    HW227349   9.297   3.809  10.614  0.9260  1.2722 -0.7180
 7982SOL     OW27350   2.108   7.902   4.882 -0.1774  0.4154 -0.1828
 7982SOL    HW127351   2.048   7.964   4.841 -1.1450 -0.8243 -0.6711
 7982SOL    HW227352   2.061   7.872   4.960 -0.2726 -0.6818 -0.6570
 7983SOL     OW27353   6.399   4.853   8.842  0.1337  0.0480  0.3706
 7983SOL    HW127354   6.477   4.910   8.842 -0.5637  1.1132  3.4645
 7983SOL    HW227355   6.410   4.799   8.919 -2.0055 -0.0794  0.5916
 7984SOL     OW27356   7.876   9.001   7.812 -0.2739  0.2076 -0.1849
 7984SOL    HW127357   7.968   8.988   7.791 -0.8005 -1.8421 -1.4036
 7984SOL    HW227358   7.843   9.057   7.741  0.3269  2.2167  1.0629
 7985SOL     OW27359   5.566   2.104  10.932 -0.0208  0.5261  0.2304
 7985SOL    HW127360   5.655   2.091  10.966  0.3153  3.4914  0.6109
 7985SOL    HW227361   5.513   2.118  11.011 -0.5651  0.1779 -0.0777
 7986SOL     OW27362   0.577   3.584   0.221  0.0460  0.3071 -0.9271
 7986SOL    HW127363   0.635   3.563   0.148 -0.2270  0.7459 -1.2774
 7986SOL    HW227364   0.628   3.644   0.275  0.0061  0.5168 -1.1185
 7987SOL     OW27365   8.113   7.054   2.048  0.6227 -0.0704  0.0105
 7987SOL    HW127366   8.026   7.068   2.009  1.4028 -0.3796 -1.9029
 7987SOL    HW227367   8.144   6.973   2.009  2.1666  0.5266 -0.0234
 7988SOL     OW27368   8.053   5.782   0.526 -0.4614  0.3694 -0.1519
 7988SOL    HW127369   8.020   5.842   0.592 -2.7476  1.3963 -2.1603
 7988SOL    HW227370   8.010   5.698   0.545  0.3673  0.1406  0.7808
 7989SOL     OW27371   9.099  10.513  10.680 -0.4996  0.3868 -0.3588
 7989SOL    HW127372   9.127  10.421  10.672  0.7085  0.5701  1.5286
 7989SOL    HW227373   9.181  10.562  10.687 -1.1965  1.2630  1.9344
 7990SOL     OW27374   4.001   3.543   8.063  0.0896  0.2832 -0.2848
 7990SOL    HW127375   3.941   3.471   8.083 -0.0803  0.1418 -1.2647
 7990SOL    HW227376   4.003   3.546   7.967 -0.9405  2.4403 -0.2579
 7991SOL     OW27377   2.930   9.953  10.308 -0.0500  0.0494 -0.3453
 7991SOL    HW127378   2.961   9.883  10.251  0.4452 -0.4882  0.5596
 7991SOL    HW227379   2.943   9.919  10.397 -0.2263  1.1126  0.0994
 7992SOL     OW27380   7.165  10.031   1.492  0.0075  0.3998 -0.1610
 7992SOL    HW127381   7.124   9.958   1.538  0.3872  0.6654  0.6065
 7992SOL    HW227382   7.258  10.007   1.489  0.1966  1.0336  0.4527
 7993SOL     OW27383   3.108   3.842   3.436 -0.1276 -0.1654  0.2540
 7993SOL    HW127384   3.176   3.883   3.489 -0.2505  0.0691  0.2321
 7993SOL    HW227385   3.106   3.751   3.466  1.0294 -0.4826 -0.5975
 7994SOL     OW27386   5.193   9.624   1.811 -0.2470 -0.3354 -0.0352
 7994SOL    HW127387   5.280   9.649   1.780 -0.5024  0.9882  0.2665
 7994SOL    HW227388   5.209   9.552   1.872  0.5300 -0.8510 -0.8351
 7995SOL     OW27389   2.127   1.428   9.571  0.0589 -0.2479  0.1385
 7995SOL    HW127390   2.221   1.448   9.575 -0.2118  1.2123 -0.6361
 7995SOL    HW227391   2.110   1.413   9.478 -0.5532 -0.1493  0.2383
 7996SOL     OW27392   5.554   6.875   9.274 -0.2989 -0.5207 -0.1641
 7996SOL    HW127393   5.563   6.948   9.213 -1.8401 -1.4174 -1.5055
 7996SOL    HW227394   5.582   6.910   9.358 -0.5382  1.4730 -0.8952
 7997SOL     OW27395   7.723   6.397   5.758 -0.1767 -0.6682 -0.3942
 7997SOL    HW127396   7.747   6.474   5.811  1.6465 -3.1248  2.5062
 7997SOL    HW227397   7.639   6.369   5.793 -0.6480 -0.2609 -1.1839
 7998SOL     OW27398   5.007   6.591   6.165  0.4942 -0.2464  0.0816
 7998SOL    HW127399   5.101   6.603   6.155  0.4127 -0.1523 -0.5668
 7998SOL    HW227400   4.995   6.571   6.258  1.1592 -0.3440  0.1455
 7999SOL     OW27401  10.421   1.259   5.589  0.3067 -0.2646  0.3103
 7999SOL    HW127402  10.464   1.258   5.674  0.1258  0.0358  0.4093
 7999SOL    HW227403  10.455   1.337   5.545  0.4926 -0.4867  0.0591
 8000SOL     OW27404   8.212   1.153   8.027  0.0881 -0.5926  0.4614
 8000SOL    HW127405   8.210   1.238   7.983 -1.7735 -0.6884  0.3315
 8000SOL    HW227406   8.289   1.157   8.084  0.5197  0.8389 -0.2095
 8001SOL     OW27407   2.953  10.819   2.589 -0.0464 -0.2373 -0.1369
 8001SOL    HW127408   2.868  10.856   2.613 -0.0062 -0.1534 -0.1251
 8001SOL    HW227409   3.001  10.892   2.552  0.8787  0.2934  2.0165
 8002SOL     OW27410   7.317   5.091   4.239 -0.1275  0.0975 -0.0068
 8002SOL    HW127411   7.314   5.071   4.333  0.1694  0.6607  0.1203
 8002SOL    HW227412   7.246   5.153   4.226  0.9011  1.3215  0.1543
 8003SOL     OW27413   5.168   3.872   5.783 -0.1430 -0.3827  0.5769
 8003SOL    HW127414   5.130   3.866   5.871 -2.7511  0.0806 -0.4815
 8003SOL    HW227415   5.153   3.962   5.756 -1.1118 -1.0426 -1.1201
 8004SOL     OW27416   7.477   0.746   9.902 -0.0755  0.3636 -0.1153
 8004SOL    HW127417   7.430   0.664   9.887 -0.8965  0.4757  1.7138
 8004SOL    HW227418   7.409   0.810   9.924  0.8977  0.5376  2.5619
 8005SOL     OW27419  10.830   3.752   3.449 -0.3714 -0.1429  0.5941
 8005SOL    HW127420  10.819   3.836   3.494 -0.0890  0.9451 -1.3283
 8005SOL    HW227421  10.740   3.726   3.426 -0.3203  0.5864 -0.4790
 8006SOL     OW27422   6.414  10.696  10.766  1.0799  0.2503  0.1166
 8006SOL    HW127423   6.426  10.774  10.821 -0.9072  0.3920  0.3673
 8006SOL    HW227424   6.461  10.716  10.685 -0.9015  2.4418 -0.5264
 8007SOL     OW27425   5.790   3.935   5.498 -0.2600  0.0571 -0.0968
 8007SOL    HW127426   5.778   3.972   5.585  0.3650  0.9547 -0.3843
 8007SOL    HW227427   5.799   3.841   5.512  0.7639  0.3036  0.8799
 8008SOL     OW27428   6.158  10.743   8.118  0.2298 -0.2180  0.1063
 8008SOL    HW127429   6.103  10.758   8.042 -1.1526 -3.4006  0.3816
 8008SOL    HW227430   6.102  10.766   8.193  0.9409  1.1069  0.2467
 8009SOL     OW27431   6.339  10.689   0.410  0.6356 -0.1492  0.0219
 8009SOL    HW127432   6.399  10.630   0.454  0.5094  0.9604  1.7490
 8009SOL    HW227433   6.282  10.722   0.480 -0.8904  0.1180 -1.2993
 8010SOL     OW27434   7.762  10.204   1.641  0.3071 -0.0204 -0.5852
 8010SOL    HW127435   7.837  10.195   1.582 -0.8267  1.4536 -2.2633
 8010SOL    HW227436   7.794  10.264   1.710  0.9215 -0.0126 -0.8697
 8011SOL     OW27437   5.550   1.989   8.060 -0.4996  0.2041  0.5553
 8011SOL    HW127438   5.547   1.972   8.154  1.4024  0.1307  0.6201
 8011SOL    HW227439   5.510   2.075   8.049 -1.5182 -0.1649  1.3259
 8012SOL     OW27440   7.641   4.908   0.688 -0.3713  0.5006  0.2915
 8012SOL    HW127441   7.627   4.902   0.782  0.2818 -0.0559  0.3521
 8012SOL    HW227442   7.719   4.856   0.671 -1.4935 -0.8613 -0.8015
 8013SOL     OW27443   7.162   2.954   8.640 -0.4130 -0.2153  0.3433
 8013SOL    HW127444   7.240   2.906   8.611 -1.1587 -0.8029 -0.7279
 8013SOL    HW227445   7.097   2.937   8.571 -0.2383  3.4895 -0.8583
 8014SOL     OW27446  10.717   1.229   3.183  0.5498  0.1906  0.1531
 8014SOL    HW127447  10.642   1.274   3.222  1.4726  2.2006 -0.2971
 8014SOL    HW227448  10.702   1.237   3.088  0.0492 -1.6694  0.0486
 8015SOL     OW27449   3.061   9.575  10.346 -0.0854 -0.1711 -0.5816
 8015SOL    HW127450   3.086   9.624  10.424 -0.7235 -0.5992 -0.0996
 8015SOL    HW227451   3.012   9.500  10.379 -2.2214  0.7794 -1.4767
 8016SOL     OW27452   0.490   7.921   4.200  0.4345  0.2056  0.7197
 8016SOL    HW127453   0.472   7.828   4.187 -2.6665  0.9630 -0.9553
 8016SOL    HW227454   0.409   7.957   4.237  1.4403  2.3216  0.9694
 8017SOL     OW27455   2.755   8.662   9.980 -0.0710  0.5718  0.6891
 8017SOL    HW127456   2.748   8.702  10.067  0.7490 -1.8227  1.9148
 8017SOL    HW227457   2.804   8.726   9.928  1.5589  1.0185  2.6997
 8018SOL     OW27458   4.440   8.156  10.885 -0.6252 -0.0900 -0.1965
 8018SOL    HW127459   4.530   8.177  10.910 -0.3314 -0.0220 -1.3097
 8018SOL    HW227460   4.387   8.226  10.924 -0.1200  0.2754 -0.1693
 8019SOL     OW27461   1.870   1.511   2.463 -0.9461 -0.1061  0.1699
 8019SOL    HW127462   1.949   1.518   2.410 -1.8622  2.6472 -0.9225
 8019SOL    HW227463   1.826   1.433   2.431 -0.3274  0.2223 -1.5285
 8020SOL     OW27464   0.172   4.412   7.974  0.2458 -0.7069 -0.0912
 8020SOL    HW127465   0.167   4.398   8.069 -0.1067 -2.2566 -0.3224
 8020SOL    HW227466   0.213   4.333   7.941 -1.5184 -1.0769 -1.4545
 8021SOL     OW27467   0.838   6.392   8.611 -0.5571 -0.0080  0.4625
 8021SOL    HW127468   0.814   6.479   8.642  0.8012  0.4288  0.3171
 8021SOL    HW227469   0.933   6.391   8.613 -0.5420 -1.2331 -0.2666
 8022SOL     OW27470   5.498   7.453   4.669  0.2417  0.3983 -0.2614
 8022SOL    HW127471   5.421   7.481   4.619  0.4740  1.2568 -0.1447
 8022SOL    HW227472   5.557   7.416   4.605 -0.2994 -0.3436 -0.3432
 8023SOL     OW27473   1.762   7.005   1.725 -0.2162  0.3817 -0.3032
 8023SOL    HW127474   1.785   6.942   1.656 -1.9822 -2.6681  1.7642
 8023SOL    HW227475   1.843   7.015   1.776 -0.5118 -2.1253  0.7425
 8024SOL     OW27476   4.181   5.065   2.054  0.5120  0.3943  0.2393
 8024SOL    HW127477   4.163   5.080   1.961 -2.3317  1.2440  0.8848
 8024SOL    HW227478   4.183   5.152   2.093  1.2035  0.0163  1.0757
 8025SOL     OW27479   9.048   4.621   0.829 -0.0659 -0.3685 -0.2433
 8025SOL    HW127480   9.139   4.618   0.859 -0.2516 -0.4367  0.3272
 8025SOL    HW227481   9.036   4.710   0.798  0.5234 -0.6771 -1.3770
 8026SOL     OW27482  10.459   3.227   7.209 -0.1646  0.2746  0.3673
 8026SOL    HW127483  10.500   3.308   7.178 -1.0334  0.2558 -0.8163
 8026SOL    HW227484  10.423   3.186   7.131 -1.2546 -0.3968  1.2097
 8027SOL     OW27485   8.295   3.350   3.036  0.3449  0.3794  0.1403
 8027SOL    HW127486   8.229   3.301   3.084 -0.0012  2.1576  1.5087
 8027SOL    HW227487   8.377   3.332   3.083  0.4176  0.1962 -0.0545
 8028SOL     OW27488   4.269   0.897   6.323 -0.2983 -0.1278  0.8006
 8028SOL    HW127489   4.188   0.946   6.335 -0.8575 -1.0061  0.7329
 8028SOL    HW227490   4.269   0.873   6.230 -2.4823 -4.3330  1.7353
 8029SOL     OW27491   6.490   3.767   7.286  0.2009 -0.3825 -0.0163
 8029SOL    HW127492   6.543   3.836   7.248  0.7099 -0.9329 -0.3129
 8029SOL    HW227493   6.424   3.813   7.339  0.2700  0.3343 -0.5552
 8030SOL     OW27494   3.193   4.063   6.518 -0.1213  0.2781 -0.4488
 8030SOL    HW127495   3.109   4.101   6.543  0.5501  1.8555 -0.5385
 8030SOL    HW227496   3.175   4.017   6.436 -1.0988 -0.1797  0.0215
 8031SOL     OW27497   8.118   6.319   2.211  0.9160 -0.2971  0.0640
 8031SOL    HW127498   8.029   6.289   2.225  0.6671  0.3624 -0.0875
 8031SOL    HW227499   8.152   6.263   2.141  0.5679 -0.4245 -0.0003
 8032SOL     OW27500   8.122   5.411   8.646  0.3265  0.1794 -0.4501
 8032SOL    HW127501   8.209   5.422   8.682  0.4241  0.8482 -0.8828
 8032SOL    HW227502   8.129   5.334   8.589  0.2664 -0.6346  0.6295
 8033SOL     OW27503   3.484   5.439   6.886 -0.5719 -0.2869  0.0924
 8033SOL    HW127504   3.555   5.376   6.897  0.7833  1.3964  1.3145
 8033SOL    HW227505   3.508   5.489   6.808 -0.2232  0.4930  0.6885
 8034SOL     OW27506   0.792  10.233  10.009 -0.2524 -0.1035 -0.5003
 8034SOL    HW127507   0.739  10.245  10.088  0.4138 -0.4609  0.0047
 8034SOL    HW227508   0.815  10.322   9.981  0.2552 -0.0080  0.2171
 8035SOL     OW27509   9.889   8.620   9.445 -0.4211  0.4046  0.3933
 8035SOL    HW127510   9.912   8.697   9.496 -0.5333 -0.1451  1.2779
 8035SOL    HW227511   9.892   8.548   9.507 -2.5337  0.0151  0.0931
 8036SOL     OW27512   6.321   2.754   3.000  0.4301  0.2240 -0.3026
 8036SOL    HW127513   6.259   2.748   2.927  1.5573  0.9765 -1.3360
 8036SOL    HW227514   6.399   2.795   2.963  0.9940  0.7152  1.3494
 8037SOL     OW27515  10.544   1.979   2.088  0.0039  0.0138 -0.1290
 8037SOL    HW127516  10.620   2.013   2.135  0.7462  0.7908 -1.8298
 8037SOL    HW227517  10.521   2.048   2.026 -0.6983 -1.1343 -1.1832
 8038SOL     OW27518   5.977   4.025   5.860 -0.0744  0.4220  0.1183
 8038SOL    HW127519   5.887   4.028   5.826  0.2333  0.2454 -0.7242
 8038SOL    HW227520   5.997   3.932   5.865  0.9375  0.4982 -2.0641
 8039SOL     OW27521   5.434   5.732   0.214 -0.2917 -0.6559  0.3715
 8039SOL    HW127522   5.338   5.737   0.207 -0.2284  3.7267  1.1450
 8039SOL    HW227523   5.451   5.723   0.308  0.0293 -1.0524  0.2735
 8040SOL     OW27524   2.855   3.310   6.426  0.0124 -0.0024 -0.0523
 8040SOL    HW127525   2.925   3.245   6.420  1.9489  2.0389 -0.2555
 8040SOL    HW227526   2.898   3.393   6.407 -2.0109  1.5915  2.0412
 8041SOL     OW27527   1.382   7.327   1.346 -0.5462  0.0730  0.2884
 8041SOL    HW127528   1.371   7.232   1.353 -3.4974  0.0762 -2.9282
 8041SOL    HW227529   1.477   7.340   1.342 -0.1222 -2.8511 -0.3686
 8042SOL     OW27530   6.138   1.626   3.702  0.3617 -0.2200 -0.1723
 8042SOL    HW127531   6.193   1.702   3.681  0.0804  0.2158  0.6489
 8042SOL    HW227532   6.049   1.656   3.682  0.2926 -0.4673 -0.2309
 8043SOL     OW27533   7.975   3.218   6.631  0.3861 -0.4027 -0.2611
 8043SOL    HW127534   7.992   3.144   6.689 -0.4337  0.2886  0.8782
 8043SOL    HW227535   7.990   3.183   6.543  1.0269 -1.6326  0.3228
 8044SOL     OW27536  10.795   7.782   0.625  0.6842  0.5314 -0.2098
 8044SOL    HW127537  10.768   7.858   0.573 -0.8337  0.8102  0.9378
 8044SOL    HW227538  10.770   7.707   0.572  1.0657  0.8152 -0.8014
 8045SOL     OW27539   2.371  10.722   3.080 -0.0797 -0.2927 -0.1066
 8045SOL    HW127540   2.294  10.703   3.134 -0.2791  2.2689  0.5845
 8045SOL    HW227541   2.362  10.814   3.057  2.5986 -0.0400 -0.3259
 8046SOL     OW27542   6.544   3.029  10.960 -0.4832  0.0694  0.0981
 8046SOL    HW127543   6.523   3.111  11.005 -0.6845  0.1962 -0.2286
 8046SOL    HW227544   6.639   3.027  10.957 -0.4498  2.4724 -3.8870
 8047SOL     OW27545   4.004   2.273   1.741  0.4033  0.1235  0.0114
 8047SOL    HW127546   4.057   2.257   1.663 -2.6886 -1.1601 -1.9508
 8047SOL    HW227547   3.992   2.186   1.780  0.8733  0.5899  1.2178
 8048SOL     OW27548   1.659   0.022   2.142 -0.1763 -0.5614  0.5036
 8048SOL    HW127549   1.684  -0.071   2.144 -1.0481 -0.7849  1.4734
 8048SOL    HW227550   1.730   0.067   2.187  0.0307 -0.8033  0.4217
 8049SOL     OW27551   1.403   9.256   4.169 -0.2920 -0.4097  0.2996
 8049SOL    HW127552   1.313   9.288   4.162  0.8141  3.0556  0.9886
 8049SOL    HW227553   1.401   9.197   4.245 -1.8297  0.2220  0.7736
 8050SOL     OW27554  10.670   0.461   8.682 -0.2894  0.1431  0.1194
 8050SOL    HW127555  10.714   0.431   8.762 -0.3956  0.2829  0.2307
 8050SOL    HW227556  10.697   0.398   8.615  1.8841  1.4866 -0.3216
 8051SOL     OW27557   2.635   6.005   9.464  0.2904 -0.5436  0.0864
 8051SOL    HW127558   2.682   5.931   9.502 -1.3826 -1.2070  0.9441
 8051SOL    HW227559   2.684   6.027   9.385  0.8564 -2.5196 -0.1414
 8052SOL     OW27560   4.835   1.775   5.535 -0.3056  0.0682 -0.4142
 8052SOL    HW127561   4.881   1.699   5.500 -1.5540 -0.3930 -1.1048
 8052SOL    HW227562   4.781   1.741   5.606 -1.8230  0.0616 -1.5398
 8053SOL     OW27563   8.419   0.672   2.275  0.3855  0.4031 -0.2565
 8053SOL    HW127564   8.420   0.587   2.320 -1.8989 -0.0078 -0.8895
 8053SOL    HW227565   8.486   0.664   2.207  0.2556 -0.8732 -0.2552
 8054SOL     OW27566   7.916  10.798   9.402 -0.4921 -0.3294 -0.4000
 8054SOL    HW127567   7.998  10.811   9.354 -0.3262 -1.0135 -0.3054
 8054SOL    HW227568   7.943  10.798   9.494 -0.9300  1.9412 -0.2354
 8055SOL     OW27569  10.539   9.440   3.514  0.2078  0.3304  0.3374
 8055SOL    HW127570  10.478   9.368   3.530  0.6530 -0.0178  0.4721
 8055SOL    HW227571  10.482   9.515   3.495 -0.2383 -0.5022 -1.7485
 8056SOL     OW27572   1.712   1.300   3.806 -0.0576  0.0476 -0.3305
 8056SOL    HW127573   1.807   1.290   3.801  0.0059  1.4047 -2.0372
 8056SOL    HW227574   1.698   1.389   3.838 -0.7396  0.6994 -2.3356
 8057SOL     OW27575   0.392   7.813   1.540  0.0848  0.1922 -0.4682
 8057SOL    HW127576   0.301   7.793   1.520  0.1459  0.1102 -0.6605
 8057SOL    HW227577   0.400   7.796   1.634  0.4313 -1.7684 -0.8392
 8058SOL     OW27578   5.051   4.295   3.092  0.0288  0.2899  0.0255
 8058SOL    HW127579   4.961   4.321   3.114 -0.4654 -1.2348 -0.0586
 8058SOL    HW227580   5.096   4.291   3.176 -0.5704 -0.9536  0.3112
 8059SOL     OW27581   0.748   4.244   2.058 -0.4965 -0.4495 -0.0374
 8059SOL    HW127582   0.840   4.261   2.077 -0.3106 -0.9707 -0.4767
 8059SOL    HW227583   0.701   4.281   2.132 -0.0620  1.5488 -0.7232
 8060SOL     OW27584  10.223   3.529   2.397  0.4887 -0.1873  0.3571
 8060SOL    HW127585  10.140   3.527   2.348  0.8142 -0.7597 -0.1891
 8060SOL    HW227586  10.208   3.471   2.471  0.5505 -0.6662 -0.0001
 8061SOL     OW27587   3.871   3.554   5.754 -0.7820 -0.0805 -0.2036
 8061SOL    HW127588   3.832   3.595   5.676 -0.5611  1.4994  0.5214
 8061SOL    HW227589   3.798   3.505   5.793 -1.3112  0.4912 -0.4645
 8062SOL     OW27590   6.713   0.840   1.696  0.2389  0.4213 -0.2174
 8062SOL    HW127591   6.780   0.883   1.750 -1.0169 -0.1617  1.8424
 8062SOL    HW227592   6.720   0.748   1.719 -0.8807  0.2793 -0.4495
 8063SOL     OW27593  10.916   3.436   1.636  0.2572 -0.3649 -0.7669
 8063SOL    HW127594  10.973   3.359   1.634  1.2168  0.3171 -0.2356
 8063SOL    HW227595  10.870   3.430   1.720  0.2590 -0.4181 -0.7700
 8064SOL     OW27596   8.753  10.681   9.733 -0.2780 -0.3985 -0.3447
 8064SOL    HW127597   8.719  10.622   9.665  2.5221 -0.7831 -1.4652
 8064SOL    HW227598   8.751  10.628   9.813  2.1673 -2.0709 -1.3343
 8065SOL     OW27599   9.383   8.681   8.065 -0.2338 -0.1675 -0.4295
 8065SOL    HW127600   9.302   8.717   8.103  0.4376 -0.3476  1.2024
 8065SOL    HW227601   9.413   8.617   8.129  0.4982 -1.0794 -1.6620
 8066SOL     OW27602   4.546   0.105   2.294 -0.2194  0.2245  0.5060
 8066SOL    HW127603   4.466   0.084   2.342  0.1551  0.4710  1.2396
 8066SOL    HW227604   4.607   0.035   2.318  0.0754  0.5331  0.6548
 8067SOL     OW27605   4.898   8.545   2.790 -0.0171 -0.3536  0.2727
 8067SOL    HW127606   4.900   8.521   2.698 -0.0589  0.4216  0.0731
 8067SOL    HW227607   4.967   8.492   2.830  2.2740  1.7622 -0.7815
 8068SOL     OW27608   3.601   6.655   9.817  0.2262  0.0970 -0.3483
 8068SOL    HW127609   3.608   6.635   9.910 -0.9617 -0.8454 -0.4433
 8068SOL    HW227610   3.644   6.740   9.807  1.0948 -0.1874  0.9097
 8069SOL     OW27611   0.928   9.949   0.059 -0.3498 -0.3977  0.1381
 8069SOL    HW127612   0.950   9.925   0.149 -1.2437  0.1451  0.5028
 8069SOL    HW227613   0.857   9.889   0.035  0.3710 -1.0302 -0.4648
 8070SOL     OW27614  10.188   6.902   4.936 -0.1870  0.1804  0.0108
 8070SOL    HW127615  10.218   6.817   4.904  0.0691  0.6707 -1.1018
 8070SOL    HW227616  10.249   6.924   5.007  0.2383 -0.1980 -0.2319
 8071SOL     OW27617   0.903   4.221  10.384  0.6123  1.0047 -0.0006
 8071SOL    HW127618   0.951   4.267  10.453  2.5719  1.3648 -1.5825
 8071SOL    HW227619   0.920   4.129  10.401  2.1663  1.1473 -0.7759
 8072SOL     OW27620   1.042   6.829   4.653  0.1557  0.3140 -0.3970
 8072SOL    HW127621   1.047   6.746   4.699  0.8935  0.9302  0.6523
 8072SOL    HW227622   1.053   6.896   4.721 -2.4198  1.3324 -0.9175
 8073SOL     OW27623   6.458   9.375  10.542  0.5458 -0.3284 -0.5483
 8073SOL    HW127624   6.524   9.406  10.479 -1.3593  0.7137 -2.0959
 8073SOL    HW227625   6.464   9.436  10.615  0.1457  0.8106 -1.4485
 8074SOL     OW27626   8.783   1.190   6.000  0.1533 -0.4783 -0.2800
 8074SOL    HW127627   8.721   1.245   6.048  0.4899  0.5457 -1.0079
 8074SOL    HW227628   8.835   1.251   5.949 -0.6902 -1.6037 -2.5419
 8075SOL     OW27629   2.175   2.865   0.707 -0.5852 -0.1667 -0.2829
 8075SOL    HW127630   2.239   2.812   0.660 -0.7526 -1.1163  0.5376
 8075SOL    HW227631   2.225   2.941   0.738 -0.6989  0.9981 -2.8414
 8076SOL     OW27632   3.472   5.509   3.482 -0.7494  0.1876  0.0900
 8076SOL    HW127633   3.488   5.513   3.387 -0.7203 -0.3956  0.0713
 8076SOL    HW227634   3.528   5.439   3.513 -1.1146  0.0624  0.4697
 8077SOL     OW27635   1.030   5.512   4.451  0.3905  0.3931 -0.5631
 8077SOL    HW127636   0.938   5.499   4.471  0.7247 -0.1240  0.7346
 8077SOL    HW227637   1.035   5.602   4.417 -0.4502  0.7761  0.2945
 8078SOL     OW27638  10.327   2.726  10.133 -0.5158  0.2456  0.4840
 8078SOL    HW127639  10.321   2.768  10.048  1.0315  0.3199  0.3845
 8078SOL    HW227640  10.337   2.633  10.113 -1.7170  0.0790  0.6373
 8079SOL     OW27641  10.082   2.964   7.762  0.0843  0.0733  0.2136
 8079SOL    HW127642  10.061   2.896   7.826 -1.4565 -0.1637 -0.5196
 8079SOL    HW227643  10.040   3.043   7.797 -0.2451  0.0812 -0.2080
 8080SOL     OW27644   0.598   6.485   1.507 -0.0373  0.1039  1.0978
 8080SOL    HW127645   0.687   6.455   1.487  0.1361  1.4482 -0.2686
 8080SOL    HW227646   0.606   6.580   1.514 -1.7751  0.4791 -1.3856
 8081SOL     OW27647  10.563   0.687   8.583  0.1427  0.0996 -0.3491
 8081SOL    HW127648  10.587   0.601   8.618 -3.2390 -0.8294 -0.0681
 8081SOL    HW227649  10.560   0.744   8.660 -1.4507 -0.5178  0.0736
 8082SOL     OW27650   7.135   7.806  10.337  0.0289  0.5264 -0.0266
 8082SOL    HW127651   7.084   7.870  10.287 -0.3296  0.0125 -0.3234
 8082SOL    HW227652   7.070   7.754  10.382  0.3428  0.7376  0.6751
 8083SOL     OW27653   8.446   1.860   4.784  0.3456  0.3798 -1.2358
 8083SOL    HW127654   8.500   1.934   4.812  0.3132  0.2351 -0.7825
 8083SOL    HW227655   8.508   1.788   4.771  0.1388 -0.1288  0.4673
 8084SOL     OW27656   8.450   3.499   3.320 -0.4450 -0.0796 -0.3118
 8084SOL    HW127657   8.481   3.444   3.248 -1.2414 -1.6604  0.5331
 8084SOL    HW227658   8.485   3.458   3.399 -3.1428 -0.9002  0.5316
 8085SOL     OW27659   6.052   7.052   0.838  0.5339 -0.2315 -0.5975
 8085SOL    HW127660   6.059   7.129   0.781 -1.3356 -0.8021 -1.6283
 8085SOL    HW227661   5.970   7.064   0.885  0.5964 -1.2374 -0.2175
 8086SOL     OW27662   2.183   8.593   3.300 -0.6322  0.1011  0.7185
 8086SOL    HW127663   2.274   8.569   3.287 -0.5274  0.0014  1.6154
 8086SOL    HW227664   2.136   8.509   3.305 -0.8862  0.1588 -0.4720
 8087SOL     OW27665   0.822   0.910   3.954  0.6046  0.5027 -0.1814
 8087SOL    HW127666   0.808   0.818   3.974  1.6180  0.5678  0.8390
 8087SOL    HW227667   0.855   0.948   4.036  0.9519  1.5979 -0.8204
 8088SOL     OW27668   9.251   2.620  10.301  0.2735 -0.3945 -0.5665
 8088SOL    HW127669   9.323   2.639  10.361 -1.8375  0.5421  1.7552
 8088SOL    HW227670   9.208   2.544  10.339 -1.7811  0.9218 -0.2036
 8089SOL     OW27671   8.828  10.501   1.186 -0.2484  0.3073 -0.5772
 8089SOL    HW127672   8.802  10.409   1.195  0.2042  0.3179  1.0183
 8089SOL    HW227673   8.764  10.549   1.237 -0.0937  0.8196 -0.8657
 8090SOL     OW27674   8.573   4.160   7.844  0.2179 -0.2109 -0.0869
 8090SOL    HW127675   8.484   4.125   7.852 -0.0879  0.8000  1.0647
 8090SOL    HW227676   8.564   4.235   7.784  0.5221 -0.8559 -0.9539
 8091SOL     OW27677  10.143   9.815  10.860 -0.5077 -0.1747  0.6190
 8091SOL    HW127678  10.109   9.725  10.856  0.0901 -0.3916  0.3043
 8091SOL    HW227679  10.115   9.854  10.777 -0.0397 -0.3409  0.3782
 8092SOL     OW27680   8.412   3.583   8.383  0.2439  0.2982 -0.2385
 8092SOL    HW127681   8.375   3.630   8.458  1.8716 -1.4410  1.7088
 8092SOL    HW227682   8.428   3.651   8.317  0.5703  2.1587  1.7131
 8093SOL     OW27683   7.202   2.489   9.768 -0.4325 -0.0190 -0.0682
 8093SOL    HW127684   7.272   2.507   9.831  0.0564  0.4370 -0.7225
 8093SOL    HW227685   7.220   2.550   9.696 -1.1684 -0.3092 -0.4969
 8094SOL     OW27686   6.955   0.417   5.513  0.2657  0.3924  0.3815
 8094SOL    HW127687   7.003   0.415   5.595  1.0286  2.3540  0.0109
 8094SOL    HW227688   6.864   0.429   5.539  0.6547  2.3325  0.9259
 8095SOL     OW27689   5.641   5.466   2.798  0.3716  0.4062 -0.4309
 8095SOL    HW127690   5.611   5.375   2.804 -0.4030  0.7048  0.4178
 8095SOL    HW227691   5.724   5.461   2.751  1.6965 -1.0601  1.9652
 8096SOL     OW27692   7.052   9.942   6.987  0.1665 -0.6579  0.3290
 8096SOL    HW127693   7.126   9.964   6.930  0.6383  0.1859  1.2503
 8096SOL    HW227694   7.088   9.942   7.075 -0.3703 -2.8086  0.5825
 8097SOL     OW27695  10.584   5.434   2.741  0.3942 -0.4456 -0.2484
 8097SOL    HW127696  10.570   5.380   2.819 -0.5012  0.7614  0.4508
 8097SOL    HW227697  10.667   5.478   2.758 -0.2569  0.5222  0.4511
 8098SOL     OW27698   0.391   9.773   7.533 -0.2845 -0.2113  0.1134
 8098SOL    HW127699   0.334   9.739   7.602 -0.4034  1.4334  0.8554
 8098SOL    HW227700   0.339   9.766   7.453 -0.3148 -1.7068  0.2485
 8099SOL     OW27701   2.833   4.278  10.483  0.9184  0.3388  0.5332
 8099SOL    HW127702   2.807   4.353  10.537 -1.7806 -0.1817  0.0514
 8099SOL    HW227703   2.822   4.203  10.541  0.2260 -0.0013 -0.0341
 8100SOL     OW27704   1.162   3.082   2.492 -0.0272  0.6048 -1.2434
 8100SOL    HW127705   1.133   3.089   2.401 -2.1181 -0.0227 -0.6601
 8100SOL    HW227706   1.139   3.166   2.531 -0.5595  0.3132 -0.9218
 8101SOL     OW27707   0.890   8.495  10.258  0.2448  0.6157 -0.9061
 8101SOL    HW127708   0.958   8.472  10.321  1.4458  2.3550 -1.5126
 8101SOL    HW227709   0.922   8.576  10.217 -1.3589  0.5003 -2.4534
 8102SOL     OW27710   5.210   1.176   8.313 -0.1043  0.3046  0.1271
 8102SOL    HW127711   5.272   1.200   8.382  0.6800  0.0694 -0.4835
 8102SOL    HW227712   5.149   1.116   8.355  0.4426  0.0683  0.5820
 8103SOL     OW27713  10.957   0.175   2.691  0.1870 -0.2511 -0.3022
 8103SOL    HW127714  10.866   0.198   2.713  0.8371 -1.1235  3.6277
 8103SOL    HW227715  11.008   0.247   2.727  1.0944  0.4529 -2.8849
 8104SOL     OW27716   2.569   9.636   1.575 -0.3867 -0.4190 -0.1161
 8104SOL    HW127717   2.574   9.695   1.650 -1.0274 -0.0628 -0.3528
 8104SOL    HW227718   2.654   9.592   1.573 -0.0157  0.2848  0.2293
 8105SOL     OW27719   5.184   2.111   4.420  0.0100 -0.0986 -0.4830
 8105SOL    HW127720   5.118   2.044   4.405  0.3141 -0.3949 -0.4978
 8105SOL    HW227721   5.218   2.093   4.507  0.4837 -0.3056 -0.7069
 8106SOL     OW27722   5.967   8.080   9.415  0.0237 -0.1292 -0.5090
 8106SOL    HW127723   6.003   8.034   9.491 -0.0417  0.2099 -0.2718
 8106SOL    HW227724   5.873   8.089   9.435  0.0306  0.0780 -0.5691
 8107SOL     OW27725   1.196   5.557   9.499  0.1099  0.8756  0.2925
 8107SOL    HW127726   1.287   5.549   9.472  0.6444  0.0512  2.3035
 8107SOL    HW227727   1.155   5.476   9.469  0.2118  0.9034  0.0778
 8108SOL     OW27728   8.382   4.582   6.214 -0.3591  0.5308 -0.3334
 8108SOL    HW127729   8.372   4.626   6.299  0.3086  0.8262 -0.4073
 8108SOL    HW227730   8.360   4.650   6.150 -1.1063  0.2381 -0.3957
 8109SOL     OW27731   2.775   8.709   1.564 -0.2164  0.2662 -0.0480
 8109SOL    HW127732   2.735   8.699   1.478 -0.7995 -0.4196  0.3041
 8109SOL    HW227733   2.853   8.763   1.548 -0.5184  0.4382 -0.9444
 8110SOL     OW27734   0.543   8.663  10.958 -0.6859  0.3805 -0.0803
 8110SOL    HW127735   0.624   8.615  10.977  0.0273  1.2077 -0.9531
 8110SOL    HW227736   0.547   8.680  10.864 -1.6810  0.8003 -0.0528
 8111SOL     OW27737   8.570   7.912   1.988  0.2008  0.2336 -0.1489
 8111SOL    HW127738   8.557   7.983   1.924  0.6268  0.2640 -0.2086
 8111SOL    HW227739   8.645   7.941   2.040 -0.5893  0.5373  0.8305
 8112SOL     OW27740   4.255   6.054   8.463 -0.3401 -0.0202 -0.2242
 8112SOL    HW127741   4.217   6.142   8.461  0.1138  0.1934  0.4364
 8112SOL    HW227742   4.199   6.003   8.404 -1.8119  0.2320  0.9008
 8113SOL     OW27743   1.071   2.263   4.210 -0.0527 -0.2647  0.2228
 8113SOL    HW127744   0.993   2.264   4.155 -0.1288  0.6420  0.3431
 8113SOL    HW227745   1.069   2.347   4.256  0.8706 -0.3284  0.3889
 8114SOL     OW27746   0.773   2.868   4.053 -0.0694 -0.3117 -0.4120
 8114SOL    HW127747   0.826   2.948   4.048  2.0681 -1.5556  1.4468
 8114SOL    HW227748   0.738   2.868   4.142 -1.1308 -0.8359 -0.8143
 8115SOL     OW27749   4.475   0.932   0.596 -0.4885 -0.4943 -0.1902
 8115SOL    HW127750   4.406   0.879   0.635 -0.4008  0.6375  1.5949
 8115SOL    HW227751   4.556   0.896   0.632 -0.3729  0.2374  0.2998
 8116SOL     OW27752   9.117   8.794  10.092  0.2065  0.0754 -0.2966
 8116SOL    HW127753   9.062   8.824  10.020  0.8491 -0.7403 -1.1404
 8116SOL    HW227754   9.087   8.705  10.111  0.9918 -0.2507 -0.5348
 8117SOL     OW27755   8.200   7.598   1.275 -0.5465 -0.0948  0.0835
 8117SOL    HW127756   8.267   7.665   1.260 -0.7414  0.2551  0.7469
 8117SOL    HW227757   8.185   7.560   1.189 -1.8289  2.0248 -0.6886
 8118SOL     OW27758   2.094   5.999   3.135  0.2327 -0.1298 -0.3333
 8118SOL    HW127759   2.003   6.027   3.122  0.7239  1.3674 -0.7334
 8118SOL    HW227760   2.101   5.917   3.086 -0.7608  0.0226 -0.7469
 8119SOL     OW27761   3.097   2.505   7.513 -0.1207 -0.2259  0.5694
 8119SOL    HW127762   3.007   2.509   7.545  0.3364  2.2490  1.6355
 8119SOL    HW227763   3.089   2.473   7.423 -2.2787  2.2633 -0.1568
 8120SOL     OW27764   7.200   1.531   8.521  0.3555  0.0845 -0.0091
 8120SOL    HW127765   7.118   1.481   8.523 -0.3174  1.1752  0.5930
 8120SOL    HW227766   7.188   1.594   8.450  1.1781 -0.5827 -0.7389
 8121SOL     OW27767  10.664   0.785   8.860 -0.1797 -0.4774 -0.4951
 8121SOL    HW127768  10.754   0.753   8.856 -0.3325 -0.7195 -2.3991
 8121SOL    HW227769  10.673   0.880   8.872  0.2841 -0.7697  1.8340
 8122SOL     OW27770   1.962   1.987  10.224  0.1107  0.1934  0.4764
 8122SOL    HW127771   1.909   2.056  10.264 -1.0076 -0.8794  0.8583
 8122SOL    HW227772   1.899   1.932  10.178  0.6394 -2.1857  2.5040
 8123SOL     OW27773   5.532   0.875  10.582  0.4347 -0.0927 -0.6391
 8123SOL    HW127774   5.546   0.844  10.671  0.3372  0.1523 -0.5373
 8123SOL    HW227775   5.592   0.949  10.572 -1.4950  1.6291  0.1545
 8124SOL     OW27776  10.649   0.764   4.026 -0.1627 -0.1564  0.2233
 8124SOL    HW127777  10.657   0.671   4.006 -0.5221 -0.1722  0.1503
 8124SOL    HW227778  10.607   0.801   3.948 -0.5271 -0.0290  0.4800
 8125SOL     OW27779   3.987   3.336   7.404  0.2333 -0.4591 -0.2870
 8125SOL    HW127780   4.057   3.287   7.447 -0.0060  0.4654  1.1922
 8125SOL    HW227781   4.031   3.409   7.361  0.2644 -0.3158 -0.0106
 8126SOL     OW27782   4.545   9.740   7.384  0.6511  0.5301 -0.2967
 8126SOL    HW127783   4.465   9.721   7.334  0.8383 -2.0114  0.3087
 8126SOL    HW227784   4.616   9.715   7.326  0.9156 -0.5948  0.5073
 8127SOL     OW27785   6.591   4.006   1.001  0.3892 -0.1952  0.1345
 8127SOL    HW127786   6.513   3.952   0.992  0.0695  0.2210  0.4029
 8127SOL    HW227787   6.590   4.063   0.924 -0.1216  0.5098  0.6538
 8128SOL     OW27788   3.644   2.297   4.748  0.6857 -0.7986  0.7153
 8128SOL    HW127789   3.565   2.298   4.694 -0.2165  1.2483  1.9944
 8128SOL    HW227790   3.677   2.208   4.741 -0.7842 -1.2362 -1.2007
 8129SOL     OW27791   0.728   9.025   8.919 -0.0025 -0.0071 -0.1237
 8129SOL    HW127792   0.650   9.028   8.976 -1.0242  1.4510 -1.5680
 8129SOL    HW227793   0.725   8.937   8.880 -0.8408 -0.0304 -0.0347
 8130SOL     OW27794   5.314   8.478  10.136  0.3599  0.4060  0.3998
 8130SOL    HW127795   5.328   8.383  10.131 -0.9742  0.2498 -0.6361
 8130SOL    HW227796   5.286   8.492  10.227 -0.8532 -0.4022  0.1654
 8131SOL     OW27797   5.846   7.882   8.304  0.0455 -0.7559 -0.0622
 8131SOL    HW127798   5.922   7.939   8.316  0.7827 -1.6104 -0.6217
 8131SOL    HW227799   5.834   7.841   8.390  1.2971 -1.9241 -0.4174
 8132SOL     OW27800   5.371   4.018   5.997  0.0431  0.4836 -0.6359
 8132SOL    HW127801   5.456   4.062   5.992 -0.1154  0.8747  0.0689
 8132SOL    HW227802   5.308   4.089   6.005  0.0086  0.1036  3.6168
 8133SOL     OW27803   1.286   7.626   8.146  0.8223 -0.2603  0.6079
 8133SOL    HW127804   1.209   7.640   8.090  1.1674  1.9446  0.6150
 8133SOL    HW227805   1.251   7.626   8.235  0.9277  1.9849  0.6893
 8134SOL     OW27806   6.312   4.728   7.794 -0.3559 -0.4571 -0.6302
 8134SOL    HW127807   6.255   4.725   7.871 -0.1443 -0.7935 -0.4850
 8134SOL    HW227808   6.254   4.711   7.720 -0.4380 -0.8659 -0.4759
 8135SOL     OW27809  10.868   9.228   6.253  0.3765 -0.0901 -0.2789
 8135SOL    HW127810  10.876   9.277   6.335  0.4406  0.1208 -0.4097
 8135SOL    HW227811  10.953   9.188   6.240  0.9091  1.2779 -1.1225
 8136SOL     OW27812   7.984   9.661   2.250  0.0888  0.8406 -0.6127
 8136SOL    HW127813   8.019   9.688   2.165 -0.1212 -0.0312 -0.9845
 8136SOL    HW227814   8.048   9.597   2.283  1.0552  2.4083  0.6673
 8137SOL     OW27815   0.804   6.212   0.606  0.0130 -0.0971  0.2454
 8137SOL    HW127816   0.893   6.200   0.638  0.2900 -0.3838 -0.6279
 8137SOL    HW227817   0.785   6.305   0.621  1.0359  0.3288 -1.0047
 8138SOL     OW27818   9.563   4.534   1.824 -0.1228  0.1369 -0.0707
 8138SOL    HW127819   9.490   4.524   1.763 -0.7503  0.0381  0.6916
 8138SOL    HW227820   9.604   4.617   1.799 -0.8328  0.4678 -0.1456
 8139SOL     OW27821   2.187   1.214   5.884 -0.1331  0.5478  0.5575
 8139SOL    HW127822   2.215   1.160   5.810  1.5864  1.0994  0.7843
 8139SOL    HW227823   2.102   1.248   5.858 -0.2851 -0.6022 -0.4670
 8140SOL     OW27824  10.369   6.773   1.882 -0.1379 -0.6782 -0.2684
 8140SOL    HW127825  10.329   6.861   1.887 -0.1368 -0.7108  0.3592
 8140SOL    HW227826  10.405   6.769   1.794 -1.6768 -0.7045 -0.9234
 8141SOL     OW27827   8.475   9.472   2.082  0.0577  0.3250  0.2454
 8141SOL    HW127828   8.531   9.411   2.130 -0.3137  0.0651  0.3465
 8141SOL    HW227829   8.387   9.435   2.088 -0.1534  0.8129  0.2144
 8142SOL     OW27830   8.366   7.452   4.199 -0.0634  0.4046 -0.2418
 8142SOL    HW127831   8.387   7.478   4.289  0.9615  1.1728 -0.6957
 8142SOL    HW227832   8.314   7.372   4.209  1.5071 -0.5059  0.9830
 8143SOL     OW27833   4.711   2.014  10.854 -0.1794  0.0507  0.3007
 8143SOL    HW127834   4.664   2.073  10.913  0.1421 -0.2524  0.8637
 8143SOL    HW227835   4.676   1.927  10.874  0.1229 -0.0870  0.2327
 8144SOL     OW27836   1.380   5.992   2.902 -0.2567  0.1249 -0.0648
 8144SOL    HW127837   1.284   5.995   2.898 -0.4481 -2.1212  2.0671
 8144SOL    HW227838   1.401   5.899   2.905  2.0847  0.5641 -1.7352
 8145SOL     OW27839   0.404   9.531   5.159 -0.0805  0.4384 -0.3175
 8145SOL    HW127840   0.482   9.527   5.215 -0.4080 -0.9100  0.0701
 8145SOL    HW227841   0.369   9.442   5.162 -0.6712  0.6054 -1.8589
 8146SOL     OW27842   9.756  10.901   2.555 -0.1586  0.6205  0.2725
 8146SOL    HW127843   9.691  10.971   2.547 -0.0463  0.8548  1.2954
 8146SOL    HW227844   9.839  10.942   2.530 -0.3176  0.4649 -0.5171
 8147SOL     OW27845   9.327   1.767   6.010 -0.4203 -0.5219  0.0953
 8147SOL    HW127846   9.267   1.788   6.081 -0.6247 -2.9784  0.6857
 8147SOL    HW227847   9.378   1.847   5.997 -1.2586  0.3676  2.1206
 8148SOL     OW27848   9.228   2.298  10.064 -0.1903  0.3115 -0.0602
 8148SOL    HW127849   9.177   2.241  10.006 -1.6899  0.0674  1.4414
 8148SOL    HW227850   9.297   2.334  10.008 -1.6504  0.1721 -1.9951
 8149SOL     OW27851   8.265   1.283   5.884  0.0409  0.2940  0.0557
 8149SOL    HW127852   8.223   1.357   5.840 -0.6738 -0.0236  0.1954
 8149SOL    HW227853   8.216   1.206   5.855 -0.6002  0.1016  1.5856
 8150SOL     OW27854   1.539   1.601   0.812 -0.2216  0.0393 -0.5441
 8150SOL    HW127855   1.580   1.665   0.870  1.3526 -1.2721 -0.1747
 8150SOL    HW227856   1.457   1.577   0.856  0.8544 -0.7909  1.0586
 8151SOL     OW27857   6.640   0.011   4.785  0.2363  0.7766  0.5599
 8151SOL    HW127858   6.686   0.004   4.869  1.1548 -2.1834 -0.1593
 8151SOL    HW227859   6.689   0.077   4.737  2.9776 -1.3834  0.3180
 8152SOL     OW27860  10.903  10.927   1.267 -0.4262  0.3064  0.2871
 8152SOL    HW127861  10.846  10.857   1.235 -0.3234  0.8398 -1.1126
 8152SOL    HW227862  10.956  10.951   1.191 -0.6157  2.0439  0.6826
 8153SOL     OW27863   6.111   8.116   2.530 -0.5767  0.1466  0.2815
 8153SOL    HW127864   6.085   8.100   2.439 -1.6189  0.6531  0.4780
 8153SOL    HW227865   6.127   8.210   2.534 -1.5050  0.2904  0.8501
 8154SOL     OW27866  10.508   4.767   7.142 -0.6595  0.6396  0.0610
 8154SOL    HW127867  10.452   4.824   7.194 -1.9648 -0.9220  0.4208
 8154SOL    HW227868  10.447   4.721   7.083  0.1106 -1.6137  0.9474
 8155SOL     OW27869   1.296   5.270   8.730  0.5972 -0.0524 -0.4594
 8155SOL    HW127870   1.340   5.226   8.657  1.1007 -0.6499  0.1858
 8155SOL    HW227871   1.231   5.206   8.761 -0.4775  0.6858 -1.1711
 8156SOL     OW27872   3.881   8.139   9.873  0.0553 -0.0911  0.0684
 8156SOL    HW127873   3.902   8.138   9.780  1.1470  0.3480  0.2965
 8156SOL    HW227874   3.910   8.054   9.905  2.1283  0.7283  0.4946
 8157SOL     OW27875   1.186   0.183   9.831 -0.4216  1.0432 -0.3142
 8157SOL    HW127876   1.273   0.143   9.822 -1.1993 -0.9112  0.5555
 8157SOL    HW227877   1.136   0.147   9.758 -0.6610  1.7613 -0.5086
 8158SOL     OW27878   3.686   6.018  10.414 -0.0593 -0.8708 -0.2497
 8158SOL    HW127879   3.673   6.102  10.458 -2.0631 -1.0742 -0.3999
 8158SOL    HW227880   3.778   6.018  10.388  0.4156  0.4821  1.3774
 8159SOL     OW27881  10.062   9.068   2.269  0.0219 -0.0105 -0.0950
 8159SOL    HW127882  10.006   9.131   2.222 -1.1369  0.7925  2.2589
 8159SOL    HW227883  10.005   8.993   2.284 -0.2276  0.5131  1.6707
 8160SOL     OW27884   6.793   2.747  10.007 -0.1708  0.4225 -0.5371
 8160SOL    HW127885   6.866   2.696   9.972 -0.0906  0.0437  0.1709
 8160SOL    HW227886   6.766   2.699  10.085  0.1177  1.6611  0.3250
 8161SOL     OW27887   3.419   1.566   5.513 -0.0736 -0.5769 -0.4074
 8161SOL    HW127888   3.389   1.475   5.511 -0.0179 -0.6314  0.8052
 8161SOL    HW227889   3.512   1.560   5.490 -0.1737 -0.7651 -0.7841
 8162SOL     OW27890   2.785   8.980   6.086 -0.0334 -0.3504  0.5531
 8162SOL    HW127891   2.837   8.902   6.066 -0.6159 -0.5290 -0.2747
 8162SOL    HW227892   2.847   9.040   6.127  1.0362 -0.2273 -1.1976
 8163SOL     OW27893   1.682   9.587   7.126  0.3621  0.1159 -0.2764
 8163SOL    HW127894   1.737   9.592   7.047  0.8337 -2.5089 -0.1531
 8163SOL    HW227895   1.592   9.590   7.092  0.5660 -0.4296 -0.8804
 8164SOL     OW27896   1.858   6.401   5.577  0.0816 -0.1324  0.0717
 8164SOL    HW127897   1.828   6.398   5.486 -0.3155  0.8519  0.1675
 8164SOL    HW227898   1.803   6.467   5.619 -0.6645 -1.5471  1.3847
 8165SOL     OW27899   8.487   0.690   5.080 -0.0641  0.4275 -0.4117
 8165SOL    HW127900   8.543   0.729   5.014 -0.0963 -1.2617 -1.4793
 8165SOL    HW227901   8.425   0.637   5.030  1.2215 -2.5540  1.0416
 8166SOL     OW27902   2.446   0.661   8.271 -0.4845 -0.0007 -0.6864
 8166SOL    HW127903   2.536   0.693   8.274 -0.9019  1.4191 -2.2987
 8166SOL    HW227904   2.422   0.648   8.363  0.5142  2.1217 -0.0855
 8167SOL     OW27905   2.678  10.027   9.186  0.0646 -0.5381 -0.2852
 8167SOL    HW127906   2.709   9.998   9.100 -0.7898 -0.3755 -0.6468
 8167SOL    HW227907   2.745   9.996   9.247 -0.5036 -2.6991 -0.7392
 8168SOL     OW27908   1.179   9.135   1.356 -0.0781 -0.3537  0.0588
 8168SOL    HW127909   1.225   9.219   1.356  0.9254 -0.9013  0.0950
 8168SOL    HW227910   1.088   9.158   1.336  0.1614  0.7528  0.1894
 8169SOL     OW27911   3.322   0.749   3.339 -0.1013  0.2925 -0.2941
 8169SOL    HW127912   3.254   0.798   3.386 -1.2992 -0.5898 -1.0774
 8169SOL    HW227913   3.375   0.816   3.296  0.3017  1.0489  1.3594
 8170SOL     OW27914   6.263   7.736   6.421  0.2322 -0.2455  0.2795
 8170SOL    HW127915   6.250   7.829   6.435  0.8031 -0.3321  1.4884
 8170SOL    HW227916   6.222   7.718   6.336  1.8001  1.4559 -0.8546
 8171SOL     OW27917   6.236   8.927   4.572 -0.2991  0.3430  0.9420
 8171SOL    HW127918   6.173   8.873   4.620  0.1355 -0.6745  0.4063
 8171SOL    HW227919   6.203   8.927   4.482  0.8001 -0.7454  0.5211
 8172SOL     OW27920   7.378   8.911   3.350 -0.2080 -0.0829  0.8152
 8172SOL    HW127921   7.352   8.999   3.323 -0.6758 -0.0263  1.4330
 8172SOL    HW227922   7.460   8.895   3.304  0.0720  0.8239  0.9880
 8173SOL     OW27923   5.249   3.581   8.321  0.3311  0.5320 -0.5266
 8173SOL    HW127924   5.198   3.535   8.254  2.2577 -0.8136 -1.0818
 8173SOL    HW227925   5.340   3.563   8.299  1.0097  0.6271  2.0825
 8174SOL     OW27926   4.786   5.449   8.069 -0.4158  0.4028  0.8021
 8174SOL    HW127927   4.808   5.542   8.075  0.7713  0.2094 -0.3399
 8174SOL    HW227928   4.698   5.443   8.107 -0.4502  1.9613  1.0118
 8175SOL     OW27929   1.790   3.363   5.227 -0.0778 -0.4484  0.0824
 8175SOL    HW127930   1.863   3.326   5.276  1.0181  0.0150 -1.1576
 8175SOL    HW227931   1.769   3.444   5.273  1.5719  0.4670 -0.7313
 8176SOL     OW27932   7.373   0.655   3.555 -0.1332 -0.0403 -0.2871
 8176SOL    HW127933   7.403   0.697   3.636  0.3953 -0.8912 -0.0360
 8176SOL    HW227934   7.327   0.577   3.585 -0.8316  0.1758 -0.7739
 8177SOL     OW27935   5.521   2.884   8.569  0.2870  0.4035  0.6450
 8177SOL    HW127936   5.529   2.932   8.651 -0.8053 -1.2502  1.7580
 8177SOL    HW227937   5.432   2.903   8.539  0.3796  0.3026  0.3040
 8178SOL     OW27938   5.514   4.068   2.350  0.1589  0.2004 -0.1663
 8178SOL    HW127939   5.485   4.150   2.312 -1.0390 -0.2172 -0.1791
 8178SOL    HW227940   5.610   4.071   2.346  0.1902  2.4135  1.6047
 8179SOL     OW27941   6.879   9.617   3.286 -0.9473  0.0871  0.2466
 8179SOL    HW127942   6.786   9.642   3.291 -1.1937 -0.7307 -0.1034
 8179SOL    HW227943   6.887   9.574   3.201  0.1011  1.5155 -0.3981
 8180SOL     OW27944   2.578   8.651   5.744  0.1666 -0.2239  0.1395
 8180SOL    HW127945   2.535   8.736   5.758 -0.9711 -0.4163 -2.0268
 8180SOL    HW227946   2.512   8.587   5.772  0.4871 -0.4419  0.4042
 8181SOL     OW27947   8.204   7.339   6.844 -0.2419  0.1962 -0.7371
 8181SOL    HW127948   8.117   7.310   6.815 -0.7718 -0.4019  1.3515
 8181SOL    HW227949   8.261   7.322   6.770 -1.2705 -2.6694 -0.9313
 8182SOL     OW27950   8.385   4.128   3.638  0.2872 -0.0641 -0.9775
 8182SOL    HW127951   8.385   4.124   3.734  0.7986  0.6449 -0.9453
 8182SOL    HW227952   8.292   4.135   3.615  0.1228 -0.8249 -0.5636
 8183SOL     OW27953   6.339   6.541   7.733 -0.1853 -0.2356 -0.0073
 8183SOL    HW127954   6.417   6.530   7.787  0.4178 -1.1418 -1.0415
 8183SOL    HW227955   6.266   6.541   7.795  0.5998  0.1473  0.9246
 8184SOL     OW27956   0.006   4.371   9.489 -0.1738  0.1414 -0.3592
 8184SOL    HW127957  -0.004   4.418   9.407 -0.7972  2.4596  0.9798
 8184SOL    HW227958   0.085   4.410   9.529 -1.5489  1.1969  1.4539
 8185SOL     OW27959   5.166   6.092   6.228 -0.6759 -0.1637  0.4162
 8185SOL    HW127960   5.126   6.027   6.170  0.4667 -0.2598 -0.2799
 8185SOL    HW227961   5.153   6.176   6.183  2.3190 -0.5067 -1.1917
 8186SOL     OW27962   8.936   6.840   2.502 -0.1065 -0.3086  0.0915
 8186SOL    HW127963   8.910   6.768   2.559  0.5876 -0.6997 -0.0696
 8186SOL    HW227964   8.898   6.918   2.542  0.1019 -0.6197  0.9023
 8187SOL     OW27965   4.610   8.421  10.562  0.7717  1.0424  0.1433
 8187SOL    HW127966   4.651   8.378  10.487  0.8225 -0.0857  0.8198
 8187SOL    HW227967   4.681   8.431  10.625  0.2122 -0.1082  0.9625
 8188SOL     OW27968   5.669   9.445   4.833 -0.3316  0.5716 -0.4007
 8188SOL    HW127969   5.648   9.382   4.901  0.4768 -0.0502 -0.7149
 8188SOL    HW227970   5.584   9.480   4.805 -0.9774 -1.8511 -1.6201
 8189SOL     OW27971   3.788   4.234   1.939 -0.7273 -0.1429  0.6800
 8189SOL    HW127972   3.787   4.329   1.937  0.2826 -0.1071  1.6907
 8189SOL    HW227973   3.709   4.208   1.891 -0.3582  1.1692 -0.6684
 8190SOL     OW27974   6.483  10.693  10.187  0.1966  0.2091  0.2359
 8190SOL    HW127975   6.551  10.636  10.150  0.3517  0.5921 -0.0698
 8190SOL    HW227976   6.401  10.650  10.163  0.3440 -0.8273  1.5207
 8191SOL     OW27977   2.332   4.934   0.707  0.1885  0.3093 -0.0820
 8191SOL    HW127978   2.385   4.903   0.634  1.0032  0.3224  0.4988
 8191SOL    HW227979   2.267   4.992   0.667  0.3897  0.0158 -0.8369
 8192SOL     OW27980   6.467   9.683   2.913  0.2251 -0.1373 -0.0746
 8192SOL    HW127981   6.480   9.755   2.851  0.7392 -0.5215 -0.4187
 8192SOL    HW227982   6.475   9.604   2.859 -1.7387 -0.4287  0.0359
 8193SOL     OW27983   4.105   6.366   4.201  0.0971 -0.3000 -0.5182
 8193SOL    HW127984   4.097   6.290   4.257 -2.7557 -0.2254 -0.7402
 8193SOL    HW227985   4.062   6.437   4.250  1.4790  0.8373 -0.9092
 8194SOL     OW27986   5.919   3.855   4.578 -0.3470  0.1870  0.4589
 8194SOL    HW127987   5.956   3.895   4.656  0.3200  0.2091  0.1378
 8194SOL    HW227988   5.873   3.777   4.610 -0.0628  0.1853  0.8675
 8195SOL     OW27989   8.035   5.865   8.877  0.5199 -0.0671 -0.1237
 8195SOL    HW127990   8.089   5.843   8.953  0.8413  0.7142 -0.1145
 8195SOL    HW227991   7.955   5.815   8.889  0.7579 -0.3086  0.4935
 8196SOL     OW27992   9.364  10.662   8.231  0.0575 -0.5137 -0.1321
 8196SOL    HW127993   9.441  10.668   8.287  1.0873 -0.5112 -1.5404
 8196SOL    HW227994   9.369  10.576   8.191 -0.5620 -0.4355 -0.3841
 8197SOL     OW27995   6.769   5.464   6.579 -0.2083  0.7085  0.0748
 8197SOL    HW127996   6.781   5.478   6.485  0.0916 -1.0602 -0.1686
 8197SOL    HW227997   6.858   5.465   6.614 -0.3512  1.8437  0.4236
 8198SOL     OW27998  10.952   6.946   8.249  0.6283  0.2788  0.4245
 8198SOL    HW127999  11.026   6.945   8.309  1.6577 -1.1533 -0.8433
 8198SOL    HW228000  10.973   6.880   8.184  0.4106  3.0265 -2.5685
 8199SOL     OW28001   4.216   3.252   8.679  0.0185  0.2992 -0.0663
 8199SOL    HW128002   4.207   3.163   8.714 -2.1582  0.4771 -0.0942
 8199SOL    HW228003   4.308   3.275   8.693  0.9415 -2.4659 -1.3189
 8200SOL     OW28004   5.432   3.770   0.638 -0.1732  0.1516  0.0910
 8200SOL    HW128005   5.504   3.786   0.576 -1.7165 -0.7785 -1.9842
 8200SOL    HW228006   5.356   3.813   0.599 -1.3342 -1.0162  1.0207
 8201SOL     OW28007   5.015   2.900  10.774  0.6852  0.1823  0.0521
 8201SOL    HW128008   4.954   2.906  10.700  0.9077  0.5523 -0.1064
 8201SOL    HW228009   5.098   2.934  10.739  0.8640  0.0959  0.3905
 8202SOL     OW28010   1.054  10.394   5.406  0.2092 -0.1425 -0.5835
 8202SOL    HW128011   1.027  10.356   5.489 -1.1644  0.8550 -0.5637
 8202SOL    HW228012   1.146  10.370   5.398  0.0828 -1.1326  0.7211
 8203SOL     OW28013  10.767   8.452   4.208 -0.1496 -0.2382 -0.1448
 8203SOL    HW128014  10.747   8.434   4.301 -3.1357  0.7211 -0.5524
 8203SOL    HW228015  10.801   8.369   4.175  1.7344 -0.3680  1.9889
 8204SOL     OW28016   1.279   9.119   7.879  0.3076 -0.3018  0.5516
 8204SOL    HW128017   1.248   9.029   7.870 -0.6639  0.0058  0.7539
 8204SOL    HW228018   1.368   9.118   7.844  0.6063 -1.5247  1.3261
 8205SOL     OW28019   4.720   7.169  10.974  0.3624  0.0099 -0.1485
 8205SOL    HW128020   4.773   7.161  11.053 -0.3111  0.2643  0.3220
 8205SOL    HW228021   4.658   7.097  10.979 -0.2903  0.5826  0.0139
 8206SOL     OW28022   9.700   1.284   2.751 -0.5106 -0.0414  0.1716
 8206SOL    HW128023   9.644   1.313   2.679  0.2090 -1.0872 -0.8319
 8206SOL    HW228024   9.639   1.257   2.819 -1.2320 -0.7994 -0.7592
 8207SOL     OW28025   9.606  10.881   9.758 -0.5179  0.4534  0.0860
 8207SOL    HW128026   9.643  10.943   9.696 -2.1667 -0.3821 -1.7869
 8207SOL    HW228027   9.628  10.795   9.723  0.7954 -0.0546  2.0751
 8208SOL     OW28028   5.031   5.945   1.731 -0.0739  0.0103 -0.7013
 8208SOL    HW128029   5.051   6.038   1.719 -1.7486  0.6715  1.4229
 8208SOL    HW228030   4.959   5.943   1.793  0.1021 -2.7423 -0.5040
 8209SOL     OW28031   0.952   1.484   7.025 -0.6207 -0.1929 -0.0956
 8209SOL    HW128032   0.983   1.497   6.935 -1.0393 -0.7119 -0.3147
 8209SOL    HW228033   0.986   1.399   7.050  0.4056  0.4290  0.6237
 8210SOL     OW28034   4.780   4.415   3.214  0.0300 -0.1798 -0.6237
 8210SOL    HW128035   4.723   4.489   3.236  0.4060 -0.3607  1.0346
 8210SOL    HW228036   4.817   4.388   3.298  1.2013 -1.1820 -1.4492
 8211SOL     OW28037   8.683   7.186   4.902  0.4774  0.0714 -0.0944
 8211SOL    HW128038   8.588   7.176   4.893  0.1855  1.2630  1.4335
 8211SOL    HW228039   8.719   7.144   4.824 -1.2958 -0.4975 -0.6339
 8212SOL     OW28040   4.941   2.024   7.307  0.1987 -0.7104  0.1808
 8212SOL    HW128041   4.907   1.935   7.313 -2.0880 -0.0278 -1.6937
 8212SOL    HW228042   4.983   2.028   7.221 -1.4296  0.5484 -0.5784
 8213SOL     OW28043  10.434   5.209   4.632  0.2449 -0.5614  0.4278
 8213SOL    HW128044  10.471   5.139   4.578  0.5906  0.4290 -0.6340
 8213SOL    HW228045  10.508   5.239   4.686  0.1279 -0.9291  0.7901
 8214SOL     OW28046   7.793   6.020  10.532 -0.2948 -0.9335  0.2753
 8214SOL    HW128047   7.819   5.931  10.509 -0.0887 -0.9850  0.7103
 8214SOL    HW228048   7.722   6.041  10.470 -1.5473 -2.0352  1.3018
 8215SOL     OW28049   0.646   3.605   5.936  0.0758 -0.1930 -0.3122
 8215SOL    HW128050   0.665   3.699   5.940 -0.3955 -0.0669 -0.9943
 8215SOL    HW228051   0.714   3.569   5.879  0.3267 -0.2936  0.0420
 8216SOL     OW28052   8.127   6.075   8.043  0.3652  0.2893  0.4251
 8216SOL    HW128053   8.101   6.064   7.951  2.2228  1.5682 -0.2838
 8216SOL    HW228054   8.209   6.027   8.051 -0.2948 -0.6369  1.6800
 8217SOL     OW28055   1.201   8.129   7.686  0.2474  0.8876  0.1224
 8217SOL    HW128056   1.257   8.093   7.755  0.9120  0.6288 -0.5391
 8217SOL    HW228057   1.143   8.190   7.731 -1.2105 -1.3320  1.3386
 8218SOL     OW28058   0.079   7.174   8.169  0.1536  0.3253 -0.1238
 8218SOL    HW128059   0.005   7.234   8.178  1.8211  2.2614  1.2140
 8218SOL    HW228060   0.044   7.088   8.191 -0.9811  1.6727  3.7329
 8219SOL     OW28061   7.109   4.269  10.641  0.1498  0.3852 -0.3285
 8219SOL    HW128062   7.176   4.336  10.658  0.3973  0.3737 -1.2624
 8219SOL    HW228063   7.031   4.319  10.617  0.1555  0.3560 -0.4073
 8220SOL     OW28064   9.905   1.689   3.724 -0.2020  0.1471  0.1851
 8220SOL    HW128065   9.842   1.761   3.718 -1.5779 -1.1791 -2.1154
 8220SOL    HW228066   9.856   1.618   3.765  0.3703 -0.3081  0.0842
 8221SOL     OW28067   5.144   3.290  10.376  0.0799  0.1664  0.4556
 8221SOL    HW128068   5.091   3.218  10.411  0.7422 -0.4002  0.3116
 8221SOL    HW228069   5.184   3.254  10.297  0.5556  0.6427  0.4777
 8222SOL     OW28070   3.712   8.950   4.597  0.2471  0.1345  0.3246
 8222SOL    HW128071   3.792   8.972   4.646 -0.1926  0.5257  0.8824
 8222SOL    HW228072   3.743   8.932   4.508  0.9609  0.2582  0.5400
 8223SOL     OW28073   6.887   7.511   4.888 -0.5804  0.3079  0.2226
 8223SOL    HW128074   6.871   7.590   4.940 -1.3862  0.6539 -0.5466
 8223SOL    HW228075   6.893   7.543   4.798  1.9454 -0.1258  0.1921
 8224SOL     OW28076   4.174   5.325   6.690 -0.6191 -0.1381  0.2525
 8224SOL    HW128077   4.224   5.400   6.722  1.0134 -0.7025 -0.9103
 8224SOL    HW228078   4.227   5.289   6.619 -1.8331 -1.8227  0.1632
 8225SOL     OW28079   3.483   6.771   6.989  0.2566 -0.2999 -0.2781
 8225SOL    HW128080   3.557   6.825   6.963  2.1378 -1.7673  1.8105
 8225SOL    HW228081   3.427   6.829   7.041  2.2638 -0.2926  1.9685
 8226SOL     OW28082   6.646   0.682   0.556  0.1812  0.0176 -0.0274
 8226SOL    HW128083   6.713   0.614   0.568 -0.0659 -0.0581  0.9868
 8226SOL    HW228084   6.633   0.718   0.643 -0.5881  0.5236 -0.3455
 8227SOL     OW28085   8.273   0.890  10.626 -0.2571  0.5282 -0.0724
 8227SOL    HW128086   8.270   0.813  10.570 -0.2284 -0.4707  1.2728
 8227SOL    HW228087   8.366   0.902  10.646 -0.4557 -0.3289  1.3930
 8228SOL     OW28088  10.494   7.951   2.356  0.9817  0.2911 -0.2866
 8228SOL    HW128089  10.438   7.890   2.404  2.4207  0.7680  2.0851
 8228SOL    HW228090  10.477   8.036   2.396  2.4830  0.6471 -0.3658
 8229SOL     OW28091   7.485   3.619   5.912 -0.9860  0.5566 -0.2390
 8229SOL    HW128092   7.462   3.595   5.822  0.4788 -0.6096 -0.3303
 8229SOL    HW228093   7.513   3.710   5.907  1.0792 -0.1056 -1.3633
 8230SOL     OW28094   5.511   3.587   8.078  0.1071  0.0538  0.3193
 8230SOL    HW128095   5.454   3.534   8.022 -0.0859 -0.6948  1.2149
 8230SOL    HW228096   5.516   3.538   8.161 -0.6865  1.8141  1.4292
 8231SOL     OW28097   5.400   2.601   2.351  0.0856  1.3636  0.4693
 8231SOL    HW128098   5.349   2.541   2.296 -1.7037  2.0249  1.3655
 8231SOL    HW228099   5.429   2.669   2.290 -0.2817  1.0951 -0.0168
 8232SOL     OW28100   0.030   4.139   1.245 -0.0628  0.4319  0.0269
 8232SOL    HW128101   0.073   4.054   1.252 -0.8381  0.2223  2.6521
 8232SOL    HW228102   0.103   4.202   1.243  0.4635 -0.1375  0.7676
 8233SOL     OW28103   1.530   8.659   7.524  0.6846  0.7497  0.2146
 8233SOL    HW128104   1.586   8.587   7.496  0.0902 -0.0513  1.0322
 8233SOL    HW228105   1.445   8.640   7.484  0.7966  1.5367 -0.3853
 8234SOL     OW28106   3.985   9.181   3.701 -0.3869  1.2880  0.1515
 8234SOL    HW128107   4.023   9.262   3.667  0.2985  0.8756 -0.0714
 8234SOL    HW228108   3.915   9.160   3.639  0.6016  0.7542 -0.7936
 8235SOL     OW28109   2.119   6.701   3.942 -0.7910 -0.0665  0.3841
 8235SOL    HW128110   2.029   6.677   3.918 -0.6983  1.3118 -1.3937
 8235SOL    HW228111   2.173   6.637   3.896 -0.7150  1.3259 -1.5318
 8236SOL     OW28112   3.517   3.445   7.775 -0.4125  0.1312 -0.1924
 8236SOL    HW128113   3.575   3.504   7.824  1.6651 -1.3801 -0.7755
 8236SOL    HW228114   3.555   3.358   7.788 -1.8620 -0.7420 -1.6258
 8237SOL     OW28115   6.461   2.625   0.875  0.2139  0.5698  0.0285
 8237SOL    HW128116   6.549   2.662   0.871  0.1972  0.6376  0.2389
 8237SOL    HW228117   6.429   2.628   0.785  0.2434  0.9955  0.0275
 8238SOL     OW28118   4.474   8.495   2.333  0.1589 -0.6435 -0.1265
 8238SOL    HW128119   4.523   8.423   2.291  1.8887  1.7050 -2.3243
 8238SOL    HW228120   4.387   8.459   2.349  1.0835 -3.3368 -0.8757
 8239SOL     OW28121   1.362   8.153   9.734 -0.1740  0.0421 -0.1612
 8239SOL    HW128122   1.336   8.243   9.714  0.7494  0.3590  0.0775
 8239SOL    HW228123   1.280   8.103   9.728 -0.4135  0.6058 -1.9303
 8240SOL     OW28124   6.610   3.569   2.781  0.0820 -0.4201 -0.1799
 8240SOL    HW128125   6.572   3.613   2.856  2.6810  0.5877  0.6070
 8240SOL    HW228126   6.620   3.638   2.715  2.8979 -0.0646  0.5658
 8241SOL     OW28127   4.573  10.194   0.810  0.2646  0.4504 -0.6285
 8241SOL    HW128128   4.611  10.276   0.778  1.5916  0.2847  0.4867
 8241SOL    HW228129   4.577  10.135   0.735  0.5646  0.9895 -1.0407
 8242SOL     OW28130   3.623   3.411   1.465 -0.2439  0.0130 -0.5101
 8242SOL    HW128131   3.577   3.339   1.421  0.7209 -0.3407 -0.9633
 8242SOL    HW228132   3.558   3.449   1.523 -1.1704 -0.3487 -1.2879
 8243SOL     OW28133   9.015   7.278   8.448  0.0537  0.3143 -0.1123
 8243SOL    HW128134   9.052   7.224   8.378 -3.5586 -0.1820 -1.7208
 8243SOL    HW228135   9.020   7.221   8.525 -1.3536 -1.3931 -1.2429
 8244SOL     OW28136   9.309   5.451  10.365  0.1494  0.6981  0.6375
 8244SOL    HW128137   9.320   5.414  10.277  1.6277  0.1974  1.0160
 8244SOL    HW228138   9.274   5.379  10.416  1.7109  0.2009  1.0448
 8245SOL     OW28139   0.339  10.828   7.143 -0.6631  0.0244 -0.2327
 8245SOL    HW128140   0.398  10.798   7.212 -1.0624  0.6698  0.3882
 8245SOL    HW228141   0.261  10.773   7.153 -1.9440  2.1500  1.7697
 8246SOL     OW28142   7.589   2.575   3.620  0.5666  0.2011  0.5288
 8246SOL    HW128143   7.589   2.481   3.634 -0.1686  0.2440  0.8951
 8246SOL    HW228144   7.502   2.603   3.651  1.0687  1.0941  1.1480
 8247SOL     OW28145   2.818   7.946   4.537  0.8291  0.3933 -0.3594
 8247SOL    HW128146   2.779   7.993   4.610 -0.3082  0.4999 -1.0240
 8247SOL    HW228147   2.779   7.985   4.459  0.6373 -0.9580 -0.9645
 8248SOL     OW28148   1.748   7.053   8.928  0.1462 -0.1372  0.5551
 8248SOL    HW128149   1.667   7.018   8.964 -0.1562  2.7296  2.8913
 8248SOL    HW228150   1.808   7.055   9.003  1.2835  0.8561 -0.3508
 8249SOL     OW28151   1.512  10.023   4.688  0.7445  0.1497 -0.2232
 8249SOL    HW128152   1.427  10.010   4.647  0.6243  0.4147 -0.0546
 8249SOL    HW228153   1.494  10.017   4.782  0.8133  0.7992 -0.1674
 8250SOL     OW28154   2.098   5.102   9.564  0.1930 -0.4783  0.1949
 8250SOL    HW128155   2.063   5.101   9.475 -1.8099 -0.8870  0.9729
 8250SOL    HW228156   2.151   5.022   9.569 -0.3887 -0.9075 -0.3636
 8251SOL     OW28157  10.059   4.306   7.437 -0.0262 -0.1656  0.2289
 8251SOL    HW128158  10.058   4.252   7.358  2.3638  0.2483 -0.1277
 8251SOL    HW228159   9.985   4.274   7.489 -0.7905 -1.3794 -1.5289
 8252SOL     OW28160   5.970   4.052   6.525  0.0138  0.2329 -0.4980
 8252SOL    HW128161   6.016   4.136   6.530  1.7382 -0.8029  2.4127
 8252SOL    HW228162   5.884   4.070   6.564  1.1185  0.2396  2.0628
 8253SOL     OW28163   9.150   0.426  10.026 -0.4329  0.7724 -0.1407
 8253SOL    HW128164   9.116   0.513  10.003 -1.7245  0.2425 -0.2858
 8253SOL    HW228165   9.234   0.420   9.980 -0.7417  1.6091 -0.8331
 8254SOL     OW28166   4.048   1.065   5.028 -0.3469 -0.7118 -0.1474
 8254SOL    HW128167   4.025   0.983   5.073  0.8686 -1.1464 -0.3110
 8254SOL    HW228168   4.136   1.050   4.994 -0.1485  0.6414 -0.2552
 8255SOL     OW28169   6.573   4.015   2.905  0.2154  0.3189 -0.7382
 8255SOL    HW128170   6.564   4.101   2.864  2.4675  1.0555  0.2247
 8255SOL    HW228171   6.569   3.953   2.832 -3.8701  1.0190 -1.1987
 8256SOL     OW28172   2.578   7.604   7.083  0.9783  0.5137  0.2517
 8256SOL    HW128173   2.537   7.593   6.998 -0.2927  0.4417  0.8686
 8256SOL    HW228174   2.589   7.515   7.117  1.3533  0.5501  0.2371
 8257SOL     OW28175   6.935   5.530  10.751 -0.1669  0.0841 -0.2108
 8257SOL    HW128176   6.912   5.527  10.844  1.1395 -0.7273  0.1021
 8257SOL    HW228177   7.005   5.595  10.745  0.2188 -0.3557 -0.5170
 8258SOL     OW28178   7.676   3.186   6.337 -0.6352  0.4171 -0.1418
 8258SOL    HW128179   7.608   3.118   6.340 -0.5236  0.2520 -1.2755
 8258SOL    HW228180   7.627   3.267   6.322 -0.4926  0.1133 -2.4703
 8259SOL     OW28181   4.134   6.739   7.914  0.0025  0.0680 -0.4056
 8259SOL    HW128182   4.071   6.695   7.857 -0.6544 -0.3001  0.5973
 8259SOL    HW228183   4.159   6.673   7.978  1.7167  0.1037 -1.0370
 8260SOL     OW28184   0.526   7.858   6.118 -0.1113 -0.0314  0.0020
 8260SOL    HW128185   0.485   7.936   6.155 -0.2773  1.2123 -2.6507
 8260SOL    HW228186   0.470   7.835   6.044  0.8675 -1.6703 -0.2430
 8261SOL     OW28187   0.401   7.101   9.420 -0.4845  0.2433 -0.1909
 8261SOL    HW128188   0.463   7.069   9.354  0.4649 -2.9935  2.1263
 8261SOL    HW228189   0.443   7.179   9.456  0.2541  0.4912 -1.5474
 8262SOL     OW28190   1.666   7.258   3.836  0.1722 -0.0172 -0.0405
 8262SOL    HW128191   1.680   7.352   3.842 -1.2732  0.3265 -1.5717
 8262SOL    HW228192   1.754   7.221   3.830  0.7619  1.1922  0.9518
 8263SOL     OW28193   0.395   6.432   7.187 -0.4769 -0.1660  0.1174
 8263SOL    HW128194   0.315   6.429   7.134 -0.2634 -1.4860 -0.1531
 8263SOL    HW228195   0.376   6.378   7.263  1.2072 -3.1606 -1.4893
 8264SOL     OW28196   0.672   7.607   4.023 -0.8398  0.0019 -0.2356
 8264SOL    HW128197   0.674   7.542   4.093 -0.5472 -0.5531 -0.7507
 8264SOL    HW228198   0.728   7.678   4.053 -0.4356 -0.3917 -0.0623
 8265SOL     OW28199   4.497   1.092   8.841  0.3321  0.4455  0.5706
 8265SOL    HW128200   4.573   1.149   8.852  2.3583 -2.0010 -0.2080
 8265SOL    HW228201   4.473   1.100   8.749 -1.5146  2.5528  1.1906
 8266SOL     OW28202   7.347   3.425   3.616 -0.0136  0.3149  0.0007
 8266SOL    HW128203   7.278   3.409   3.680  0.7579  0.2695  0.8274
 8266SOL    HW228204   7.329   3.513   3.582 -1.4620 -0.3659 -1.0380
 8267SOL     OW28205   1.898   6.525   1.010  0.1797  0.1878 -0.3429
 8267SOL    HW128206   1.830   6.461   1.028 -0.0052  0.3504 -0.4685
 8267SOL    HW228207   1.932   6.501   0.924  0.3077  0.0849 -0.2652
 8268SOL     OW28208   0.095   7.577  10.011 -0.1124 -0.3665 -0.4689
 8268SOL    HW128209   0.165   7.524   9.975 -1.3841 -1.9055 -0.7327
 8268SOL    HW228210   0.090   7.653   9.953  1.8366  0.1660  0.0209
 8269SOL     OW28211   1.482   6.648   9.529 -0.2559  0.3107 -0.1346
 8269SOL    HW128212   1.482   6.649   9.434  0.2837  0.5515 -0.1291
 8269SOL    HW228213   1.540   6.576   9.553 -2.3763 -1.4261 -0.0055
 8270SOL     OW28214   4.995   7.571   8.161  0.5950  0.2003 -0.2642
 8270SOL    HW128215   4.957   7.641   8.109  1.3652  0.6747 -0.2023
 8270SOL    HW228216   5.007   7.609   8.248  1.9012  0.3120 -0.4771
 8271SOL     OW28217   0.361   2.073   9.935  0.0824 -0.8290  0.4294
 8271SOL    HW128218   0.362   1.978   9.951  1.9534 -0.5910  1.8708
 8271SOL    HW228219   0.441   2.105   9.975 -2.0404  1.8321  2.7270
 8272SOL     OW28220   7.444   4.265   1.982  0.5323  0.2310 -0.4318
 8272SOL    HW128221   7.477   4.329   1.918 -2.3575  0.6146 -1.6068
 8272SOL    HW228222   7.407   4.195   1.929  1.6668 -1.3948  0.8748
 8273SOL     OW28223   1.335   4.226   1.835  0.2426 -0.3451 -0.4262
 8273SOL    HW128224   1.345   4.322   1.833 -0.2942 -0.2847 -0.3091
 8273SOL    HW228225   1.260   4.211   1.893  0.4627 -0.8477 -0.2731
 8274SOL     OW28226  10.352   2.512   6.691 -0.5127  0.2988 -0.2893
 8274SOL    HW128227  10.400   2.549   6.765 -2.1942  0.1426  0.9100
 8274SOL    HW228228  10.300   2.586   6.657  0.1397  0.3361 -1.2296
 8275SOL     OW28229   9.858   2.970   2.203  0.4000  0.2927  0.2248
 8275SOL    HW128230   9.839   3.052   2.157  2.3267  2.2647  2.8343
 8275SOL    HW228231   9.953   2.966   2.207  0.2982 -1.0621  1.8877
 8276SOL     OW28232   7.811   4.201   0.896 -0.1898 -0.1509  0.0881
 8276SOL    HW128233   7.814   4.108   0.874  2.4254  0.4452 -2.4147
 8276SOL    HW228234   7.888   4.214   0.952 -1.5932  0.1869  1.9850
 8277SOL     OW28235   3.118   8.048   9.300  0.6124  0.2556  0.5436
 8277SOL    HW128236   3.110   7.977   9.236 -1.8194 -0.4042  1.5162
 8277SOL    HW228237   3.201   8.030   9.345  0.0576 -2.0046  0.7506
 8278SOL     OW28238   5.475   2.089   0.207 -0.0914  0.3813  0.0112
 8278SOL    HW128239   5.570   2.100   0.205  0.0629 -0.8914 -0.5844
 8278SOL    HW228240   5.460   2.019   0.271 -0.5551 -0.0145 -0.5240
 8279SOL     OW28241   2.448   1.807   0.973  0.2013  0.6231  0.1363
 8279SOL    HW128242   2.500   1.875   0.930  0.5104  0.4188  0.1806
 8279SOL    HW228243   2.454   1.828   1.066  1.2877 -0.1449  0.2476
 8280SOL     OW28244  10.705   2.628  10.856 -0.0112 -0.8985 -0.1359
 8280SOL    HW128245  10.742   2.624  10.768 -0.6946  0.7305 -0.5214
 8280SOL    HW228246  10.773   2.590  10.912  0.6997 -1.3558 -1.2885
 8281SOL     OW28247  10.549   3.619   0.258 -0.3740 -0.1250 -0.2548
 8281SOL    HW128248  10.570   3.712   0.263  0.7398 -0.3191 -0.8789
 8281SOL    HW228249  10.491   3.611   0.183 -0.1107  0.0173 -0.4758
 8282SOL     OW28250   8.026   3.711   2.547 -0.1515 -0.7815 -0.1628
 8282SOL    HW128251   8.097   3.711   2.483  0.3607  0.7049  0.3748
 8282SOL    HW228252   7.969   3.782   2.520 -0.3996 -0.7163  0.5181
 8283SOL     OW28253   0.157   0.198   0.203 -0.6350 -0.1510  0.2770
 8283SOL    HW128254   0.175   0.211   0.296  0.5195  0.9821 -0.0847
 8283SOL    HW228255   0.167   0.104   0.190  0.1276 -0.1998  1.1175
 8284SOL     OW28256   8.014   6.466   2.745  0.2295 -0.0359 -0.2313
 8284SOL    HW128257   7.954   6.465   2.670  0.5987 -0.4324 -0.5197
 8284SOL    HW228258   8.097   6.434   2.710  0.6120  0.5049  0.1687
 8285SOL     OW28259  10.609   4.534   6.337 -0.3568  0.0877  0.1433
 8285SOL    HW128260  10.682   4.486   6.376 -0.2543 -0.1229 -0.2922
 8285SOL    HW228261  10.601   4.613   6.389  0.1960  0.1151  0.1898
 8286SOL     OW28262   2.820   6.537   2.380 -0.1574 -0.1783  0.3095
 8286SOL    HW128263   2.836   6.624   2.343  0.2313 -0.4923 -0.2632
 8286SOL    HW228264   2.770   6.554   2.460 -0.1515  0.5668  0.1585
 8287SOL     OW28265   7.486   6.649   9.570 -0.1609 -0.1285 -0.4359
 8287SOL    HW128266   7.472   6.744   9.570  1.7741  0.1874  1.1198
 8287SOL    HW228267   7.560   6.636   9.510  1.1799 -0.3612  1.2356
 8288SOL     OW28268   2.135   2.824   8.376  0.6734 -0.3292  0.2618
 8288SOL    HW128269   2.068   2.876   8.332  0.3312 -0.2911  0.8148
 8288SOL    HW228270   2.090   2.742   8.398  1.0471 -0.6298 -0.1038
 8289SOL     OW28271   9.980   6.007   3.027 -0.5263 -0.4915  0.6568
 8289SOL    HW128272   9.966   5.974   2.938 -0.8939  0.9077  0.1911
 8289SOL    HW228273   9.969   6.102   3.020 -1.5919 -0.4651  2.3937
 8290SOL     OW28274   3.449   2.899   8.758 -0.5871  0.4194 -0.0497
 8290SOL    HW128275   3.482   2.971   8.812  0.3872  0.5286 -0.8006
 8290SOL    HW228276   3.526   2.846   8.738 -1.2711 -0.7435  0.3501
 8291SOL     OW28277   8.824  10.352   3.060  0.2316 -0.1550 -0.4210
 8291SOL    HW128278   8.916  10.357   3.032  0.0458 -0.4309 -1.0877
 8291SOL    HW228279   8.780  10.423   3.012 -0.0255 -0.4240 -0.5833
 8292SOL     OW28280  10.350   7.744   2.920  0.1564 -0.0473  0.5998
 8292SOL    HW128281  10.419   7.683   2.947 -0.7540 -1.4280 -0.1849
 8292SOL    HW228282  10.293   7.693   2.863 -1.0028  1.3519  0.4804
 8293SOL     OW28283   9.716   5.402   4.483 -0.1806  0.0376  0.2210
 8293SOL    HW128284   9.689   5.366   4.568  1.9649 -0.7868  0.5846
 8293SOL    HW228285   9.633   5.424   4.439 -1.4068 -1.7962  1.5331
 8294SOL     OW28286   8.914   4.495   0.240  0.1754  0.5781 -0.5685
 8294SOL    HW128287   8.950   4.519   0.326 -0.0970  1.0019 -0.5705
 8294SOL    HW228288   8.939   4.567   0.182 -2.0118  1.6788 -0.2135
 8295SOL     OW28289   9.194   5.957   1.866  0.2587 -0.4581  0.0810
 8295SOL    HW128290   9.197   6.050   1.889  0.8541  0.0117 -1.7493
 8295SOL    HW228291   9.262   5.916   1.918 -1.5697 -0.3166  2.6730
 8296SOL     OW28292   8.426   2.590   9.479 -0.4324  0.7434  0.0950
 8296SOL    HW128293   8.415   2.526   9.408 -0.7266  0.5539  0.3087
 8296SOL    HW228294   8.471   2.664   9.438 -1.0034  0.8230 -0.4032
 8297SOL     OW28295   2.867   1.250   5.789 -0.1318 -0.6950 -0.5393
 8297SOL    HW128296   2.798   1.300   5.832 -0.9300 -1.0318 -1.4138
 8297SOL    HW228297   2.823   1.171   5.757  1.0624 -1.8687  0.6450
 8298SOL     OW28298   5.595   8.946   7.907 -0.7421 -0.1996 -0.7640
 8298SOL    HW128299   5.538   8.897   7.847 -0.9730  0.1053 -0.7940
 8298SOL    HW228300   5.536   8.985   7.970 -0.3444 -2.1127  0.8355
 8299SOL     OW28301  10.563   1.330   0.029  0.0892 -0.0426  0.2237
 8299SOL    HW128302  10.612   1.371  -0.042  2.5425 -0.2272  1.7649
 8299SOL    HW228303  10.521   1.403   0.074  0.4231  0.2793  0.0095
 8300SOL     OW28304   8.227   8.509   3.671  0.2348 -0.6870  0.3182
 8300SOL    HW128305   8.281   8.524   3.593 -0.7578 -1.7976 -0.6075
 8300SOL    HW228306   8.261   8.571   3.736  2.6433 -1.3826 -0.2189
 8301SOL     OW28307   4.004   9.487   0.440  0.1378  0.4845 -0.1481
 8301SOL    HW128308   4.078   9.477   0.500  0.4956  1.3234 -0.4508
 8301SOL    HW228309   4.007   9.578   0.412 -0.9855  0.5206 -0.1930
 8302SOL     OW28310   7.780   5.249   4.536 -0.6325  0.1955 -0.2329
 8302SOL    HW128311   7.768   5.326   4.480 -1.4030  0.3493  0.1408
 8302SOL    HW228312   7.703   5.195   4.519 -0.4851 -0.1207  0.0989
 8303SOL     OW28313   8.371   8.158   9.916  0.3938 -0.1827  0.4797
 8303SOL    HW128314   8.364   8.224   9.985 -0.2447 -0.2942  0.5286
 8303SOL    HW228315   8.340   8.077   9.957  0.0052 -0.2471  0.0686
 8304SOL     OW28316   0.887   8.148   4.457  0.2056  0.0235  0.2969
 8304SOL    HW128317   0.823   8.083   4.429 -0.8799  1.5624 -0.8169
 8304SOL    HW228318   0.935   8.104   4.528 -1.1162 -1.6548  0.1925
 8305SOL     OW28319   6.685   1.199   6.459 -0.0294  0.3817  0.1547
 8305SOL    HW128320   6.646   1.257   6.393 -0.8878  1.0950  1.2529
 8305SOL    HW228321   6.751   1.253   6.502  1.9669 -0.7172 -1.4584
 8306SOL     OW28322   0.829   7.806   4.116 -0.0702 -0.5502 -0.1845
 8306SOL    HW128323   0.920   7.834   4.107  0.5368 -2.4875 -0.4000
 8306SOL    HW228324   0.803   7.838   4.202  0.7223  0.2997 -0.2588
 8307SOL     OW28325   7.700   3.335   5.365 -0.1212 -0.6346  0.0829
 8307SOL    HW128326   7.733   3.395   5.432 -0.0717 -0.6661  0.0868
 8307SOL    HW228327   7.643   3.389   5.311  0.4848 -0.4121 -0.3443
 8308SOL     OW28328  10.430   1.851   4.393 -0.3046 -0.1459 -0.2627
 8308SOL    HW128329  10.344   1.845   4.437  0.1213 -0.2357  0.5715
 8308SOL    HW228330  10.493   1.832   4.462  0.5277  2.3510 -0.2701
 8309SOL     OW28331   0.098   2.861   3.462  0.1289 -0.0918 -0.0977
 8309SOL    HW128332   0.063   2.855   3.551  2.6188 -3.0125  0.7686
 8309SOL    HW228333   0.042   2.803   3.410  0.8091 -1.1539  0.3327
 8310SOL     OW28334   6.926  10.573   9.799  0.3872 -0.0375 -0.4468
 8310SOL    HW128335   6.917  10.567   9.894 -1.3070  1.0568 -0.5164
 8310SOL    HW228336   6.855  10.631   9.771  0.6526 -0.6079 -2.4223
 8311SOL     OW28337  10.192   6.439   2.245 -0.3928  0.4110 -0.2231
 8311SOL    HW128338  10.218   6.425   2.336  0.8369 -0.5818 -0.7083
 8311SOL    HW228339  10.275   6.450   2.198 -1.0355  1.3882 -1.1523
 8312SOL     OW28340   0.729   2.359   0.828 -0.1421 -0.1094 -0.1700
 8312SOL    HW128341   0.671   2.403   0.891 -0.1151 -0.3226  0.0021
 8312SOL    HW228342   0.681   2.280   0.802  0.1653 -0.3972  0.1354
 8313SOL     OW28343   2.628   9.061   3.074 -0.4260 -0.1503  0.1261
 8313SOL    HW128344   2.606   9.102   3.158 -1.5244 -0.1478 -0.1591
 8313SOL    HW228345   2.598   9.123   3.008  1.9582  0.6354 -0.2784
 8314SOL     OW28346   5.776  10.116   3.388 -0.1263 -0.0686  0.4907
 8314SOL    HW128347   5.850  10.176   3.380 -0.6643  0.6062  0.4815
 8314SOL    HW228348   5.733  10.120   3.302 -0.5072 -0.0045  0.6831
 8315SOL     OW28349   1.157   5.200   0.739  0.2093  0.0696  0.0769
 8315SOL    HW128350   1.158   5.219   0.645  2.3305 -0.8791 -0.1056
 8315SOL    HW228351   1.249   5.192   0.763 -0.2772  1.2997  2.4582
 8316SOL     OW28352   7.969   1.290   4.294 -0.3031  0.6088 -0.0884
 8316SOL    HW128353   7.964   1.385   4.306  0.0840  0.5073  0.9951
 8316SOL    HW228354   8.015   1.278   4.211 -0.3481  1.3775 -0.2228
 8317SOL     OW28355   7.753   7.633   3.916 -0.0846  0.5686  0.0806
 8317SOL    HW128356   7.803   7.589   3.847 -0.0442  2.7161 -1.3176
 8317SOL    HW228357   7.812   7.699   3.950 -1.0845  1.4067  0.1972
 8318SOL     OW28358   0.266   7.890   4.418  0.2668 -0.0501  0.0843
 8318SOL    HW128359   0.218   7.906   4.499 -0.4716 -4.2916  0.6108
 8318SOL    HW228360   0.346   7.846   4.446  0.6730 -0.2568 -1.3547
 8319SOL     OW28361   4.453   6.888  10.916  0.3925 -0.5712  0.0584
 8319SOL    HW128362   4.509   6.847  10.983 -0.3701  1.8085  2.2161
 8319SOL    HW228363   4.368   6.896  10.958 -0.5941 -0.6279 -1.8627
 8320SOL     OW28364   4.784   6.503   6.454  0.3022 -0.6244 -0.8873
 8320SOL    HW128365   4.870   6.544   6.463  0.2912 -0.5074 -1.3124
 8320SOL    HW228366   4.732   6.567   6.406 -0.3325 -0.2362  0.2813
 8321SOL     OW28367   3.189  10.474   3.443  0.1437 -0.7714 -0.4121
 8321SOL    HW128368   3.204  10.457   3.536  0.3067  0.0514 -0.2853
 8321SOL    HW228369   3.158  10.564   3.439 -1.2457 -1.2485 -1.0231
 8322SOL     OW28370   5.275   2.158   9.478 -0.2958 -0.4130  0.4726
 8322SOL    HW128371   5.253   2.065   9.485 -2.0663  0.1029  2.6300
 8322SOL    HW228372   5.330   2.176   9.555 -1.4650  0.6876  1.0793
 8323SOL     OW28373   6.605   9.137   5.649  0.3482  0.0084 -0.4874
 8323SOL    HW128374   6.674   9.077   5.623  1.2308  1.1003 -0.7298
 8323SOL    HW228375   6.542   9.134   5.577  0.4386 -0.5472 -0.5440
 8324SOL     OW28376   3.230   0.356   4.612  0.1762 -0.7216  0.1268
 8324SOL    HW128377   3.203   0.404   4.533  1.1176 -1.3642 -0.5862
 8324SOL    HW228378   3.236   0.265   4.584  0.9673 -0.8856  0.8312
 8325SOL     OW28379  10.275   8.889   4.186  0.5777  1.0349 -0.5385
 8325SOL    HW128380  10.316   8.872   4.101  3.6031 -0.4393  1.1446
 8325SOL    HW228381  10.342   8.864   4.250 -2.1092  0.8646  2.2971
 8326SOL     OW28382   8.511   7.000   7.058  0.1288  0.5701 -0.5401
 8326SOL    HW128383   8.583   7.050   7.098  0.6133 -0.3656 -0.2340
 8326SOL    HW228384   8.432   7.045   7.086  0.5517  0.9962 -0.0260
 8327SOL     OW28385   3.319   8.556   1.003  0.4626 -0.4032  0.3656
 8327SOL    HW128386   3.261   8.502   1.055 -0.6501  0.9452  0.5480
 8327SOL    HW228387   3.350   8.498   0.933 -3.3660 -0.4148 -1.4414
 8328SOL     OW28388   2.641   5.750  10.165 -0.2104 -1.3653 -0.0526
 8328SOL    HW128389   2.569   5.740  10.102  0.9060 -1.3994 -1.3463
 8328SOL    HW228390   2.680   5.663  10.170  0.9600 -0.8958 -0.8535
 8329SOL     OW28391   1.947   2.514   2.306 -0.2244 -0.3086  0.4672
 8329SOL    HW128392   1.930   2.474   2.221 -0.4505  1.0591 -0.1366
 8329SOL    HW228393   1.865   2.557   2.329  0.4310  0.9608  0.4768
 8330SOL     OW28394   7.205   8.383   1.936 -0.2620  0.6800 -0.4898
 8330SOL    HW128395   7.225   8.470   1.899 -1.4094  1.1102 -0.1114
 8330SOL    HW228396   7.258   8.379   2.016  0.0729  0.8818 -0.6970
 8331SOL     OW28397   8.411   1.811   7.147 -0.2837 -0.1890  0.3825
 8331SOL    HW128398   8.443   1.842   7.062  1.7993 -0.1793  1.1240
 8331SOL    HW228399   8.376   1.888   7.190 -0.0249  0.0837  0.1043
 8332SOL     OW28400  10.924   1.480   6.290 -0.1957 -0.1577  1.0381
 8332SOL    HW128401  10.884   1.415   6.348 -0.5788  0.5061  1.5306
 8332SOL    HW228402  11.010   1.445   6.269 -0.3920 -0.8098  1.3293
 8333SOL     OW28403   7.081   5.257   2.200  0.3872  0.1857 -0.2912
 8333SOL    HW128404   7.173   5.259   2.228  0.9038 -0.7851 -1.8357
 8333SOL    HW228405   7.040   5.191   2.256  0.7112  0.3456  0.1411
 8334SOL     OW28406   2.085   0.428   8.338 -0.3027 -0.1820 -0.3725
 8334SOL    HW128407   2.106   0.383   8.420  0.0204 -0.5363 -0.6453
 8334SOL    HW228408   2.122   0.516   8.349  0.2598 -0.4147 -0.3639
 8335SOL     OW28409   2.471   1.504   9.353  0.7179  0.1567  0.4068
 8335SOL    HW128410   2.555   1.514   9.398  0.9564 -0.7577  0.1665
 8335SOL    HW228411   2.493   1.466   9.268 -0.1972 -3.0671  1.5459
 8336SOL     OW28412   3.784   6.533   6.701  0.2138  0.6174 -0.2750
 8336SOL    HW128413   3.824   6.452   6.670  1.6285  0.9900  0.5379
 8336SOL    HW228414   3.725   6.505   6.771  1.8172  0.4059  1.0371
 8337SOL     OW28415   5.658   3.633   0.332 -0.0890 -0.9690 -0.2642
 8337SOL    HW128416   5.677   3.680   0.413 -0.2640  0.4313 -1.0097
 8337SOL    HW228417   5.743   3.596   0.305  0.2010 -0.4804 -0.0326
 8338SOL     OW28418   4.086   0.516   7.152  0.2047 -0.1440 -0.5549
 8338SOL    HW128419   4.117   0.589   7.205  1.4364 -0.1893 -1.2025
 8338SOL    HW228420   4.057   0.556   7.070  1.7174 -0.4577 -1.2636
 8339SOL     OW28421   7.271  10.685  10.884 -0.1492 -0.0149  0.1326
 8339SOL    HW128422   7.317  10.767  10.865 -0.6473  0.0695 -0.7344
 8339SOL    HW228423   7.216  10.670  10.807 -1.0653 -0.4695  0.8638
 8340SOL     OW28424   3.154   6.646   5.805 -0.0075 -0.1524  0.1584
 8340SOL    HW128425   3.082   6.678   5.860 -0.2721 -1.3680  0.5420
 8340SOL    HW228426   3.173   6.719   5.745 -1.3921  0.2782  0.2166
 8341SOL     OW28427   2.179   2.809   5.389  0.5122 -0.6333 -0.2781
 8341SOL    HW128428   2.175   2.862   5.468 -0.0450  0.5773 -1.1154
 8341SOL    HW228429   2.172   2.718   5.420  2.6384 -0.2981  1.2562
 8342SOL     OW28430   0.377   3.517   8.107  0.2565 -0.0250 -0.6902
 8342SOL    HW128431   0.460   3.507   8.154  1.1554  1.6723 -1.8512
 8342SOL    HW228432   0.398   3.494   8.016  0.0793  2.6690 -1.4741
 8343SOL     OW28433   9.429   1.403   7.208  0.0225 -0.0383  0.4627
 8343SOL    HW128434   9.394   1.431   7.292 -1.1822 -1.0423  0.3065
 8343SOL    HW228435   9.461   1.313   7.224 -1.6545 -0.8289 -0.5332
 8344SOL     OW28436   4.705   0.634   2.225 -0.5250  0.1341  0.2035
 8344SOL    HW128437   4.763   0.704   2.195 -0.0614 -0.8988 -1.3648
 8344SOL    HW228438   4.628   0.679   2.258 -0.2486  1.3875 -0.8286
 8345SOL     OW28439   3.747   2.905   6.260  0.4555 -0.3108  0.2243
 8345SOL    HW128440   3.734   3.000   6.271  0.2202 -0.4119  0.8445
 8345SOL    HW228441   3.778   2.876   6.346  0.5077 -0.8016  0.0377
 8346SOL     OW28442   0.149   6.178  10.807 -0.2681  0.6178  0.3221
 8346SOL    HW128443   0.225   6.226  10.774  1.0625 -1.7252 -0.1508
 8346SOL    HW228444   0.094   6.245  10.848  2.3960  2.2851  1.3356
 8347SOL     OW28445   9.975   0.479   8.256  0.1248 -0.5322  0.1162
 8347SOL    HW128446   9.881   0.480   8.272  0.0922 -0.6352 -0.0789
 8347SOL    HW228447  10.011   0.535   8.325 -0.0610 -0.6473  0.3080
 8348SOL     OW28448   3.704   1.399   7.519 -0.1738  0.9036  0.2741
 8348SOL    HW128449   3.674   1.373   7.606  1.6687  0.2060  0.7306
 8348SOL    HW228450   3.661   1.483   7.503  0.6766  1.8119  2.5267
 8349SOL     OW28451   1.018   8.737   6.553  0.2965 -0.2922  0.2288
 8349SOL    HW128452   1.003   8.659   6.500  1.5738  1.2480 -2.4729
 8349SOL    HW228453   0.929   8.768   6.575 -0.2239 -1.5351 -0.0819
 8350SOL     OW28454   5.366   3.796   3.624 -0.0351 -0.2949 -0.0269
 8350SOL    HW128455   5.384   3.838   3.540  1.0184  2.6157  1.6143
 8350SOL    HW228456   5.442   3.814   3.678 -0.1054 -3.2862  1.1886
 8351SOL     OW28457   6.959   3.043   3.317  0.2722  0.1094  0.0296
 8351SOL    HW128458   7.019   3.078   3.251  0.2308 -1.1606 -0.6889
 8351SOL    HW228459   6.898   3.115   3.334  1.4174  1.0846  0.0712
 8352SOL     OW28460  10.004   3.807   0.144  0.3264 -0.0330 -0.6648
 8352SOL    HW128461   9.984   3.832   0.054  1.1998  1.2583 -0.5232
 8352SOL    HW228462  10.096   3.833   0.156  0.9453 -2.3616 -0.1353
 8353SOL     OW28463   0.161   2.039   2.042  0.3433  0.2096 -0.5364
 8353SOL    HW128464   0.105   1.964   2.064 -1.6418  2.1661  1.4178
 8353SOL    HW228465   0.100   2.109   2.020  2.0448  2.1266  0.6454
 8354SOL     OW28466   5.078   2.584   5.480  0.1906 -0.3496  0.3153
 8354SOL    HW128467   5.016   2.637   5.431  1.5010  1.7434  0.8747
 8354SOL    HW228468   5.106   2.517   5.417  0.7992  1.4575 -1.3963
 8355SOL     OW28469   5.546   5.876   1.941 -0.0240  0.4507 -0.7553
 8355SOL    HW128470   5.586   5.791   1.955 -0.2873  0.6156  1.2892
 8355SOL    HW228471   5.468   5.858   1.889  0.2120 -0.4841 -0.7898
 8356SOL     OW28472   6.580   8.841   6.645  0.1215  0.3131 -0.0569
 8356SOL    HW128473   6.660   8.867   6.690  0.5153  0.4296 -0.8202
 8356SOL    HW228474   6.550   8.920   6.601 -0.9706  0.5230  1.0615
 8357SOL     OW28475   6.073   3.269  10.881  0.2851 -0.4439 -0.1055
 8357SOL    HW128476   6.006   3.213  10.921 -0.8101  0.9364  0.0330
 8357SOL    HW228477   6.113   3.214  10.814 -0.9464 -1.3082 -0.1459
 8358SOL     OW28478   2.946   2.575   4.626  0.3837 -0.2806 -0.6334
 8358SOL    HW128479   3.024   2.628   4.612  2.0895 -2.8466 -1.3176
 8358SOL    HW228480   2.887   2.597   4.554 -0.0066  2.4255  0.4536
 8359SOL     OW28481   0.078   2.990   9.886  0.1846  0.4123  0.1937
 8359SOL    HW128482   0.152   2.931   9.896  0.7987  1.2891  1.0161
 8359SOL    HW228483   0.001   2.938   9.909  0.8107  0.1886  1.8100
 8360SOL     OW28484   0.630   7.280   0.230  0.0982  0.0583  0.5902
 8360SOL    HW128485   0.537   7.266   0.213  0.1605  0.5036 -0.1669
 8360SOL    HW228486   0.632   7.330   0.312 -0.2284 -1.7651  1.7265
 8361SOL     OW28487   1.284   3.405   7.450  0.8699 -0.2491  0.3351
 8361SOL    HW128488   1.300   3.351   7.373  1.0132 -1.3031  1.0936
 8361SOL    HW228489   1.371   3.438   7.474  0.4649  2.3893 -1.5986
 8362SOL     OW28490   7.230   1.304   1.649 -0.4724  0.1915 -0.3988
 8362SOL    HW128491   7.298   1.238   1.635  0.8913  0.8878  2.7116
 8362SOL    HW228492   7.169   1.263   1.711 -1.4960  0.5708 -1.1393
 8363SOL     OW28493   6.960   3.677   2.402 -0.7024  0.0893  0.2098
 8363SOL    HW128494   6.968   3.583   2.383 -0.1326  0.0461  0.6606
 8363SOL    HW228495   7.013   3.690   2.480 -0.8252  0.7831  0.1775
 8364SOL     OW28496   6.896   8.702   0.896  0.3575 -0.6833  0.2317
 8364SOL    HW128497   6.975   8.665   0.936  0.9071 -0.6090 -0.7662
 8364SOL    HW228498   6.903   8.796   0.910  0.9884 -0.5669 -0.7821
 8365SOL     OW28499   8.695   5.219   8.328 -1.1633  0.4726 -0.2160
 8365SOL    HW128500   8.750   5.276   8.273 -0.8638  0.1249 -0.2810
 8365SOL    HW228501   8.632   5.279   8.368 -0.3016  0.9834  0.3970
 8366SOL     OW28502   7.956   6.108   8.248  0.4486  0.0787  0.2320
 8366SOL    HW128503   8.022   6.082   8.184  1.5177 -0.6392  1.5882
 8366SOL    HW228504   7.962   6.042   8.317  0.1142  1.4629  1.6216
 8367SOL     OW28505   1.759   5.770   5.210  0.4146 -0.3663  0.3836
 8367SOL    HW128506   1.777   5.823   5.288  0.3858  4.3443 -2.6146
 8367SOL    HW228507   1.845   5.754   5.172  0.2638 -0.9114  0.2641
 8368SOL     OW28508   8.411   5.300   1.165  0.5375  0.6637 -0.1452
 8368SOL    HW128509   8.459   5.232   1.118  0.7213  0.9640 -0.3882
 8368SOL    HW228510   8.367   5.350   1.097 -2.1866 -1.1506  0.1919
 8369SOL     OW28511   9.380   2.144   1.613  0.4362  0.4403  0.5870
 8369SOL    HW128512   9.441   2.160   1.541 -2.0274  1.1203 -1.4211
 8369SOL    HW228513   9.360   2.231   1.647  0.1857  0.2457  0.9406
 8370SOL     OW28514   8.340   8.747   2.809  0.1692 -0.1317  0.3240
 8370SOL    HW128515   8.366   8.836   2.785  0.9367 -0.5020 -0.2509
 8370SOL    HW228516   8.263   8.728   2.756 -0.7300  0.6361  1.3478
 8371SOL     OW28517   1.250   7.560   9.886 -0.0673 -0.2817  0.3701
 8371SOL    HW128518   1.208   7.590   9.966  0.2621 -1.5005  1.0132
 8371SOL    HW228519   1.187   7.498   9.848 -0.2309  0.3076 -0.3257
 8372SOL     OW28520   9.524   1.002   0.290  0.1579  0.4170  0.3874
 8372SOL    HW128521   9.483   0.989   0.376  0.6847 -2.4764  0.2708
 8372SOL    HW228522   9.494   0.927   0.238  1.6120  0.9473 -1.2551
 8373SOL     OW28523   9.988   0.604   0.931 -0.4183 -0.2734  0.2621
 8373SOL    HW128524   9.894   0.606   0.915 -0.6961 -1.4593  1.6457
 8373SOL    HW228525   9.998   0.554   1.012  1.5270 -1.8381 -0.8928
 8374SOL     OW28526   6.158   2.671   5.915 -0.2695  0.1339  0.5401
 8374SOL    HW128527   6.109   2.693   5.995 -0.6402 -0.2033  0.4095
 8374SOL    HW228528   6.234   2.622   5.946  0.4680  1.4092  0.8229
 8375SOL     OW28529   7.451   0.099   4.249  0.2028 -0.1728  0.4076
 8375SOL    HW128530   7.453   0.131   4.339  3.1237 -0.9608  0.6654
 8375SOL    HW228531   7.437   0.005   4.257 -1.6585  0.0318 -0.0910
 8376SOL     OW28532   3.531   4.162   9.780  0.2637 -0.3425  0.1916
 8376SOL    HW128533   3.467   4.153   9.851 -0.8149 -1.0962 -0.8591
 8376SOL    HW228534   3.594   4.091   9.796 -0.2577 -0.8242  0.0917
 8377SOL     OW28535   7.716   5.435   7.202 -0.6108 -0.3362  0.2927
 8377SOL    HW128536   7.680   5.520   7.179 -0.1134 -0.0136  0.6640
 8377SOL    HW228537   7.789   5.455   7.262  0.5210 -0.9279 -0.8510
 8378SOL     OW28538   6.697   6.978  10.400  0.3515  0.6669 -0.3591
 8378SOL    HW128539   6.657   7.035  10.466 -1.0822 -0.7775  0.0345
 8378SOL    HW228540   6.728   6.902  10.450 -0.1092 -0.1082 -1.2578
 8379SOL     OW28541   6.008   3.027   2.646 -0.1001 -0.3518 -0.3043
 8379SOL    HW128542   5.952   3.036   2.569 -1.1567 -0.7565  0.4116
 8379SOL    HW228543   5.967   2.958   2.698  0.3956  0.1777  0.7998
 8380SOL     OW28544   2.077  10.213   9.489 -0.2539  0.5008 -0.3689
 8380SOL    HW128545   2.071  10.268   9.568  1.6005 -0.3359  0.3817
 8380SOL    HW228546   2.002  10.239   9.437 -1.5575  1.0329  1.7075
 8381SOL     OW28547   2.182   4.540   3.504 -0.1133 -0.7387  0.2066
 8381SOL    HW128548   2.237   4.602   3.551 -1.1816 -0.7119  1.4449
 8381SOL    HW228549   2.127   4.595   3.447  0.6237 -0.7166 -0.4835
 8382SOL     OW28550   7.062   8.481   8.339  0.2076  0.2526 -0.3066
 8382SOL    HW128551   7.131   8.417   8.320 -1.0634 -0.9158 -1.0928
 8382SOL    HW228552   7.066   8.543   8.266  1.3721  1.0225  0.3995
 8383SOL     OW28553   8.924   4.626   5.907  0.2703 -0.2549 -0.2071
 8383SOL    HW128554   8.930   4.591   5.996 -1.0465 -0.7174 -0.2818
 8383SOL    HW228555   8.913   4.549   5.851 -1.8007  0.1925 -0.4602
 8384SOL     OW28556   8.514   1.782   3.587  0.0818 -0.6642  0.5965
 8384SOL    HW128557   8.525   1.831   3.506  0.1780 -1.7310 -0.0444
 8384SOL    HW228558   8.517   1.848   3.656 -1.4829  0.4060 -0.3606
 8385SOL     OW28559   2.434   8.157   1.231  1.0519  0.0237 -0.3121
 8385SOL    HW128560   2.491   8.220   1.275  0.4086  0.1369  0.3737
 8385SOL    HW228561   2.486   8.076   1.229  1.0224 -0.0417  0.8488
 8386SOL     OW28562   9.571   4.915   5.132  0.1184 -0.4677  0.0315
 8386SOL    HW128563   9.633   4.878   5.195  1.3059  0.6984 -0.4233
 8386SOL    HW228564   9.621   4.920   5.050 -0.7805 -0.0974 -0.4975
 8387SOL     OW28565   0.006   8.692   1.082  0.4694  0.1718  0.0907
 8387SOL    HW128566   0.088   8.658   1.047  0.1043 -0.3650 -0.2419
 8387SOL    HW228567   0.029   8.780   1.114  1.7370 -0.8575  2.1873
 8388SOL     OW28568   2.867   4.088   4.674 -0.4103 -0.2838  0.0528
 8388SOL    HW128569   2.936   4.024   4.656  0.3562  0.5939 -0.1644
 8388SOL    HW228570   2.894   4.131   4.755 -2.1053 -1.8324  1.4754
 8389SOL     OW28571   5.112   2.143   8.022 -0.2869 -0.2475 -0.8359
 8389SOL    HW128572   5.188   2.106   7.979 -0.4282  0.9344 -2.1342
 8389SOL    HW228573   5.097   2.227   7.978 -1.5125  0.1688  0.3089
 8390SOL     OW28574  10.249   3.178   8.605 -0.7861  0.2336 -0.2365
 8390SOL    HW128575  10.254   3.178   8.701  0.0234  1.8452 -0.2550
 8390SOL    HW228576  10.173   3.233   8.585  0.2490  1.5926 -0.5300
 8391SOL     OW28577   9.059   1.778   9.078 -0.2202  0.4349 -0.0772
 8391SOL    HW128578   9.083   1.857   9.127  2.2249 -0.1558 -0.2452
 8391SOL    HW228579   9.002   1.729   9.137 -1.1429  1.9510  0.3167
 8392SOL     OW28580   7.351   6.090   2.772 -0.1283 -0.2477 -0.2602
 8392SOL    HW128581   7.436   6.093   2.727 -0.0000 -1.3613 -0.1209
 8392SOL    HW228582   7.350   6.169   2.827  0.6250  0.0110 -0.6025
 8393SOL     OW28583   6.813   7.943   6.515 -0.3429  0.7864 -0.0324
 8393SOL    HW128584   6.734   7.938   6.570  1.0635  0.9328  2.0727
 8393SOL    HW228585   6.806   8.027   6.471 -0.9369  1.2155  0.8577
 8394SOL     OW28586   0.775   9.684   0.262 -0.7181 -0.4514  0.0562
 8394SOL    HW128587   0.750   9.744   0.192  0.9287 -0.0970 -0.2593
 8394SOL    HW228588   0.710   9.614   0.259  0.0854 -1.1334 -2.7348
 8395SOL     OW28589   2.321   2.518   8.549 -0.5155 -0.6326  0.4338
 8395SOL    HW128590   2.237   2.495   8.588 -1.0341 -1.5396 -1.1729
 8395SOL    HW228591   2.367   2.435   8.539  0.6779 -0.1228  1.4987
 8396SOL     OW28592   7.471   0.164   7.224 -0.2990 -0.0720  0.2013
 8396SOL    HW128593   7.493   0.102   7.293  0.0431  1.0511  1.1241
 8396SOL    HW228594   7.514   0.130   7.146 -0.1384 -1.0009  0.6885
 8397SOL     OW28595   0.365   9.854  10.565  0.4677 -0.5691 -0.2822
 8397SOL    HW128596   0.362   9.927  10.626  1.2604 -0.2049 -0.6698
 8397SOL    HW228597   0.446   9.808  10.587  0.2294 -1.0399 -0.3734
 8398SOL     OW28598   5.502   1.863   0.389 -0.1031 -0.2529  0.0288
 8398SOL    HW128599   5.523   1.818   0.307  0.3717  1.0907 -0.5961
 8398SOL    HW228600   5.567   1.831   0.451  0.2464 -0.4177 -0.4162
 8399SOL     OW28601   0.353   1.301   0.438  0.0570 -0.0940  0.7878
 8399SOL    HW128602   0.420   1.347   0.387 -1.7200  1.0104 -0.6316
 8399SOL    HW228603   0.385   1.211   0.443  1.7850  0.4668  0.3918
 8400SOL     OW28604   6.019   1.661   1.969 -0.2436 -0.0859 -0.6170
 8400SOL    HW128605   6.087   1.658   1.901  0.6195  0.5318  0.2036
 8400SOL    HW228606   6.066   1.685   2.049 -1.4222  0.2810 -0.0178
 8401SOL     OW28607  10.896   8.080   9.901  0.5306 -0.2851 -0.0063
 8401SOL    HW128608  10.850   8.083   9.817  1.8693  0.6815 -0.7332
 8401SOL    HW228609  10.827   8.080   9.967 -0.5039  0.5134 -1.0693
 8402SOL     OW28610   6.112   0.269   8.369 -0.0594 -0.0368  0.0408
 8402SOL    HW128611   6.053   0.210   8.416  0.9193 -1.2696 -0.2649
 8402SOL    HW228612   6.161   0.314   8.438  0.3670 -0.7925  0.2262
 8403SOL     OW28613   9.126  10.145   2.010  0.4081  0.0933 -0.3114
 8403SOL    HW128614   9.114  10.240   2.014 -0.6430 -0.0755  0.5340
 8403SOL    HW228615   9.039  10.110   1.991  0.4842 -0.8026  0.9334
 8404SOL     OW28616   3.695   8.621   8.707  0.3779 -0.3275  0.3791
 8404SOL    HW128617   3.643   8.652   8.781  1.4566  0.1433  0.9455
 8404SOL    HW228618   3.751   8.553   8.744  1.4446  0.4270  0.1431
 8405SOL     OW28619   0.202   4.939   0.625  0.9279 -0.6833 -0.4100
 8405SOL    HW128620   0.189   4.915   0.717  0.4710  1.1040  0.0081
 8405SOL    HW228621   0.211   4.855   0.580 -0.8941 -1.6484  0.9617
 8406SOL     OW28622   0.925   4.971   9.215 -0.1752  0.5565  0.0983
 8406SOL    HW128623   0.892   5.061   9.210 -2.3545 -0.2008  0.4265
 8406SOL    HW228624   0.944   4.957   9.307  0.5169  0.7995 -0.0060
 8407SOL     OW28625   6.074   0.178  10.395 -0.3837 -0.2483  0.1421
 8407SOL    HW128626   6.122   0.191  10.477  1.8462 -1.1803 -0.9707
 8407SOL    HW228627   6.020   0.256  10.387 -0.1515  0.1641  2.1726
 8408SOL     OW28628   2.821   7.514   8.185 -0.2893  0.1927  0.3932
 8408SOL    HW128629   2.894   7.569   8.157 -0.9653  0.3276 -1.2030
 8408SOL    HW228630   2.861   7.435   8.221  0.6327  0.3133 -0.3718
 8409SOL     OW28631   2.502   0.111   9.336 -0.0457 -0.2102 -0.0780
 8409SOL    HW128632   2.490   0.204   9.356 -0.6225 -0.4309  0.6016
 8409SOL    HW228633   2.472   0.102   9.245 -0.8223  0.0963  0.1485
 8410SOL     OW28634   9.554   2.650   5.697  0.3407 -0.8031 -0.4102
 8410SOL    HW128635   9.572   2.572   5.749  2.0121 -0.3036 -0.1934
 8410SOL    HW228636   9.502   2.706   5.755 -1.5063 -2.0242 -0.8235
 8411SOL     OW28637   0.013   6.936   2.714  0.0119 -0.3790 -0.2058
 8411SOL    HW128638  -0.055   6.992   2.750 -0.2832  0.4318 -1.9337
 8411SOL    HW228639   0.092   6.991   2.714 -0.0196 -0.3203 -0.8542
 8412SOL     OW28640   2.761   4.234   1.715  0.2360  0.4448 -1.2862
 8412SOL    HW128641   2.666   4.234   1.725  0.2776  1.2028 -0.8551
 8412SOL    HW228642   2.784   4.326   1.702  1.0908  0.4874  0.4386
 8413SOL     OW28643   4.454   0.674   1.792 -0.1550 -0.3230  0.1260
 8413SOL    HW128644   4.451   0.590   1.836 -2.1735 -0.9222 -1.0667
 8413SOL    HW228645   4.524   0.665   1.727  0.2823 -0.7291  0.6490
 8414SOL     OW28646   4.471   6.677   9.499  0.6218  0.7220  0.1409
 8414SOL    HW128647   4.402   6.715   9.444  2.0929  0.2519 -2.1330
 8414SOL    HW228648   4.430   6.601   9.540 -1.0833  2.2255  1.2686
 8415SOL     OW28649   1.682   3.597   1.978 -0.1543  0.3775 -0.1859
 8415SOL    HW128650   1.656   3.675   2.027  0.0044  1.2696 -1.5020
 8415SOL    HW228651   1.666   3.524   2.038 -0.8581  1.3706  0.8406
 8416SOL     OW28652   3.258  10.006   0.009  0.1974 -0.1546 -0.3494
 8416SOL    HW128653   3.178  10.023   0.058  0.3776  0.3114 -0.2149
 8416SOL    HW228654   3.314   9.957   0.069  0.0566 -0.3939 -0.4105
 8417SOL     OW28655   6.005   9.325   1.833 -0.3079 -0.3877 -0.0093
 8417SOL    HW128656   5.925   9.373   1.854 -1.2395 -1.3779 -1.1673
 8417SOL    HW228657   5.974   9.247   1.787  1.3398 -0.6859 -0.6462
 8418SOL     OW28658   4.152   6.672  10.131 -0.1240  0.3936  0.0032
 8418SOL    HW128659   4.177   6.683  10.223  1.9022  0.0916 -0.4709
 8418SOL    HW228660   4.189   6.587  10.106 -0.7313  0.4334 -1.0518
 8419SOL     OW28661   1.586   5.348   9.187 -0.3469 -0.4928  0.1927
 8419SOL    HW128662   1.520   5.281   9.169  0.0666 -0.5840 -1.0602
 8419SOL    HW228663   1.649   5.305   9.245  0.8804 -1.8071 -2.0398
 8420SOL     OW28664   3.784  10.806   2.700 -0.1346  0.2095 -0.1139
 8420SOL    HW128665   3.786  10.868   2.773  1.4561 -1.2574  1.1384
 8420SOL    HW228666   3.702  10.823   2.655  0.3082  3.2711  0.1683
 8421SOL     OW28667   0.152  10.285   2.339 -0.2072 -0.2667 -0.0064
 8421SOL    HW128668   0.170  10.337   2.418  0.5037 -2.1631  1.1186
 8421SOL    HW228669   0.152  10.349   2.268  0.9553  1.2208  1.2922
 8422SOL     OW28670   7.807   2.506   1.326  0.3863 -0.0685 -0.3689
 8422SOL    HW128671   7.786   2.413   1.317 -0.5410  0.1059 -0.0167
 8422SOL    HW228672   7.864   2.525   1.251  0.4551 -0.8840 -0.5250
 8423SOL     OW28673   6.476   8.873   4.730  0.3151  0.2953 -0.1520
 8423SOL    HW128674   6.433   8.805   4.782  0.4009  0.0028 -0.4629
 8423SOL    HW228675   6.417   8.887   4.656  0.2456  0.6356 -0.0346
 8424SOL     OW28676   7.800   3.194   8.674  0.5962 -0.0583  0.1648
 8424SOL    HW128677   7.725   3.171   8.619  1.6548 -0.0554 -1.3334
 8424SOL    HW228678   7.764   3.246   8.745 -0.8332 -0.2084 -0.4407
 8425SOL     OW28679   2.696   7.823   1.804  0.4064  0.3341 -0.0757
 8425SOL    HW128680   2.762   7.892   1.798  0.1955  0.5806  0.4289
 8425SOL    HW228681   2.742   7.749   1.844  0.7287  0.0615 -0.9592
 8426SOL     OW28682   0.165   4.572   4.665 -0.6043  0.2307  0.1132
 8426SOL    HW128683   0.137   4.502   4.724 -0.0967 -0.5135 -0.5232
 8426SOL    HW228684   0.219   4.630   4.719  0.3857 -0.7925  0.2223
 8427SOL     OW28685   9.461   6.701   6.228 -0.4339 -0.8075 -0.2671
 8427SOL    HW128686   9.461   6.629   6.291  2.8362  1.9168  3.1532
 8427SOL    HW228687   9.539   6.687   6.175 -0.8341 -0.7936 -0.8643
 8428SOL     OW28688   3.008   2.717   5.901 -0.1851 -0.1643 -0.5597
 8428SOL    HW128689   3.081   2.695   5.958 -0.0990  2.4473  0.4035
 8428SOL    HW228690   3.015   2.811   5.889 -2.2781 -0.1716 -2.0153
 8429SOL     OW28691   3.687   6.481   8.578  0.5121  0.0612 -0.1098
 8429SOL    HW128692   3.637   6.428   8.516  0.3223 -0.8433  0.8041
 8429SOL    HW228693   3.723   6.417   8.640  0.1212  1.0159  1.1118
 8430SOL     OW28694   0.112   8.035   5.250  0.1679  0.3425  0.3773
 8430SOL    HW128695   0.059   7.980   5.308  1.1007 -1.5726 -0.5463
 8430SOL    HW228696   0.119   8.118   5.296 -0.2258 -0.7154  2.4166
 8431SOL     OW28697   4.181   1.920   9.495  0.1680  0.1102  0.2558
 8431SOL    HW128698   4.091   1.918   9.463 -0.4784  0.3787  1.9749
 8431SOL    HW228699   4.177   1.876   9.580  1.8127 -0.5845 -0.0156
 8432SOL     OW28700   3.934   7.986   0.561 -0.1678 -0.1445 -0.1201
 8432SOL    HW128701   3.911   7.920   0.627  3.9645 -1.3531  0.2849
 8432SOL    HW228702   3.928   7.939   0.478  1.4187 -0.6688  0.0476
 8433SOL     OW28703   0.177   5.399   0.350 -0.3796  0.2751  0.2089
 8433SOL    HW128704   0.186   5.318   0.400  0.1378 -0.0179 -0.3377
 8433SOL    HW228705   0.121   5.455   0.403  1.4639  0.5940  1.8700
 8434SOL     OW28706   2.473   4.543   4.927 -0.5759 -0.4410  0.5736
 8434SOL    HW128707   2.417   4.619   4.908 -0.0775  0.3413  2.1871
 8434SOL    HW228708   2.411   4.475   4.954 -0.8574  0.0141  1.0844
 8435SOL     OW28709   7.833   9.390   3.001  0.1661 -0.0613 -0.5143
 8435SOL    HW128710   7.767   9.456   2.980  1.1560  0.3598 -2.3922
 8435SOL    HW228711   7.896   9.436   3.056  1.5999  1.0124 -2.9657
 8436SOL     OW28712   3.570   3.722   6.713 -0.7333  0.0087  0.3505
 8436SOL    HW128713   3.589   3.630   6.693 -1.6264  0.0245 -0.6401
 8436SOL    HW228714   3.537   3.757   6.630 -0.0337  1.3270  0.6160
 8437SOL     OW28715   2.817   0.491   8.417  0.3660  0.1126  0.5040
 8437SOL    HW128716   2.841   0.432   8.346 -1.3679  1.0866 -0.9299
 8437SOL    HW228717   2.721   0.485   8.423  0.2934  1.7201  1.2640
 8438SOL     OW28718   4.536   8.728   5.312  0.3070  0.5387  0.6678
 8438SOL    HW128719   4.497   8.779   5.242  1.1857 -0.2335 -0.3927
 8438SOL    HW228720   4.499   8.640   5.301  1.2835  0.1394  0.4828
 8439SOL     OW28721   0.670   3.828   3.150 -0.7724  0.2073  0.1963
 8439SOL    HW128722   0.578   3.851   3.141 -0.8288 -0.5111 -1.2434
 8439SOL    HW228723   0.674   3.771   3.227 -1.4901  0.4641  0.4186
 8440SOL     OW28724  10.132   7.148   4.852 -1.1970  0.0059  0.5788
 8440SOL    HW128725  10.105   7.142   4.760  1.5659 -0.4740 -0.2485
 8440SOL    HW228726  10.137   7.058   4.881 -2.3989  0.1700  1.3406
 8441SOL     OW28727   4.814   7.222   2.509  0.2903 -0.0838 -0.1610
 8441SOL    HW128728   4.880   7.242   2.442  0.5213 -0.6756 -0.1072
 8441SOL    HW228729   4.853   7.252   2.591  0.1476  0.3289 -0.2420
 8442SOL     OW28730   9.542  10.312   4.624  0.4433 -0.9736 -0.0831
 8442SOL    HW128731   9.590  10.329   4.704  1.6655 -1.0656 -0.7863
 8442SOL    HW228732   9.488  10.390   4.610 -1.5617 -1.9113  2.0615
 8443SOL     OW28733   3.082   6.582   3.747  0.1412 -1.1201  0.6325
 8443SOL    HW128734   3.165   6.556   3.786  0.8010  0.2024  0.0957
 8443SOL    HW228735   3.103   6.654   3.688 -1.1724 -1.6895 -0.5652
 8444SOL     OW28736   2.149   0.902   1.446 -0.1851  0.9232 -0.6718
 8444SOL    HW128737   2.212   0.975   1.451  1.4640 -0.4902 -0.2752
 8444SOL    HW228738   2.124   0.887   1.537  0.3472  0.2501 -0.6385
 8445SOL     OW28739   2.484   2.795   9.563 -0.3551 -0.2959  0.2573
 8445SOL    HW128740   2.567   2.803   9.610  0.0845 -0.9383 -0.4102
 8445SOL    HW228741   2.488   2.709   9.521 -0.4724  0.5295 -1.4726
 8446SOL     OW28742   5.222   8.564   6.456  0.0427  0.2456 -0.0909
 8446SOL    HW128743   5.150   8.540   6.397 -0.0860  0.5187 -0.0460
 8446SOL    HW228744   5.180   8.580   6.540  0.3136 -0.8363  0.2565
 8447SOL     OW28745   6.191   2.336   6.936 -0.3082  0.3591  0.4344
 8447SOL    HW128746   6.264   2.385   6.899  0.5829 -1.9696 -1.0350
 8447SOL    HW228747   6.140   2.401   6.985  1.5646  2.4271 -0.2895
 8448SOL     OW28748   5.872   2.133   6.662 -0.2987  0.9952  0.1021
 8448SOL    HW128749   5.816   2.181   6.602 -0.5159 -1.7576 -1.9587
 8448SOL    HW228750   5.958   2.131   6.619 -0.3952 -0.7907 -0.0277
 8449SOL     OW28751   8.481   8.943   3.123  0.1163  0.2199  0.6405
 8449SOL    HW128752   8.513   8.881   3.188  1.4827  0.0850 -0.1143
 8449SOL    HW228753   8.530   8.920   3.044 -1.7654  0.1508 -0.5327
 8450SOL     OW28754   9.163   2.668   6.302  0.3574 -0.1929 -1.0259
 8450SOL    HW128755   9.192   2.753   6.269 -0.8391  0.0314 -1.5321
 8450SOL    HW228756   9.091   2.643   6.244 -0.2405 -0.8743 -0.0139
 8451SOL     OW28757   9.292   3.658   4.778  0.0283 -0.2701  0.0529
 8451SOL    HW128758   9.282   3.646   4.873 -0.2748 -3.1186 -0.2839
 8451SOL    HW228759   9.237   3.590   4.740  1.3287 -0.1159 -2.1560
 8452SOL     OW28760   9.538   8.841   1.410  0.0173 -0.7071  0.3109
 8452SOL    HW128761   9.582   8.850   1.494  1.0523 -0.5912 -0.2224
 8452SOL    HW228762   9.590   8.774   1.363  0.1861  0.1023 -0.6823
 8453SOL     OW28763   1.779   0.428   7.329 -0.3149  0.0742  0.7026
 8453SOL    HW128764   1.782   0.333   7.318 -0.6511 -0.0333  1.4745
 8453SOL    HW228765   1.758   0.440   7.421  2.0479  0.9306  1.1589
 8454SOL     OW28766   1.425   8.355  10.549 -0.6921 -0.0803 -0.1375
 8454SOL    HW128767   1.475   8.341  10.630 -0.5143  0.1115 -0.2156
 8454SOL    HW228768   1.476   8.311  10.481 -0.3700  0.5485 -0.3044
 8455SOL     OW28769   4.593   1.034   5.517 -0.3593 -0.6080 -0.3243
 8455SOL    HW128770   4.571   1.019   5.425 -3.0503 -0.1689  0.2130
 8455SOL    HW228771   4.561   0.957   5.563  2.1978 -1.4510  0.1073
 8456SOL     OW28772   7.739   6.195  10.739  0.8948 -0.0004 -0.3948
 8456SOL    HW128773   7.747   6.142  10.660  1.7970 -3.0099  1.6167
 8456SOL    HW228774   7.649   6.227  10.739  1.0922  0.6057 -2.9618
 8457SOL     OW28775   9.606   3.632  10.863  0.1991 -0.6946 -0.1569
 8457SOL    HW128776   9.604   3.695  10.935 -1.1736  0.5704 -1.2532
 8457SOL    HW228777   9.539   3.567  10.887 -0.5946 -0.0116 -0.5247
 8458SOL     OW28778   4.677   4.608   9.123  0.2328  0.6146 -1.0303
 8458SOL    HW128779   4.761   4.644   9.152  0.7846 -0.8584 -0.7506
 8458SOL    HW228780   4.657   4.654   9.041  0.8619  1.6133 -0.6285
 8459SOL     OW28781   0.230   7.473   7.021  0.1234 -0.2051  0.4106
 8459SOL    HW128782   0.258   7.528   7.094 -0.7443  0.3028  0.3706
 8459SOL    HW228783   0.211   7.534   6.951 -0.1225 -0.6081  0.1214
 8460SOL     OW28784   1.062   2.109   9.573  0.3942 -0.0507  0.2501
 8460SOL    HW128785   1.090   2.021   9.595  0.9371 -0.2060 -1.0480
 8460SOL    HW228786   0.988   2.126   9.632  0.5114 -1.2289  0.7468
 8461SOL     OW28787   7.820   3.421   4.853 -0.5094 -0.1026  0.3849
 8461SOL    HW128788   7.827   3.516   4.852  0.0508 -0.1500 -0.6545
 8461SOL    HW228789   7.742   3.403   4.905 -0.9159  0.9372  0.1378
 8462SOL     OW28790   3.636   5.912   5.655 -0.1259 -0.3123  0.3020
 8462SOL    HW128791   3.593   5.827   5.643  0.3001 -0.5982  0.8058
 8462SOL    HW228792   3.727   5.897   5.630  0.4450 -0.5475  2.4296
 8463SOL     OW28793   2.894   3.778  10.669  0.5915  0.3415  0.3174
 8463SOL    HW128794   2.820   3.720  10.651  0.4229  0.8519 -0.6454
 8463SOL    HW228795   2.917   3.760  10.760  1.1510 -1.9135 -0.2511
 8464SOL     OW28796   2.443   8.987  10.701  0.2152 -0.2838  0.1986
 8464SOL    HW128797   2.362   9.031  10.674  0.8822  0.0263 -1.3227
 8464SOL    HW228798   2.511   9.053  10.690  0.8771 -0.9536  0.2446
 8465SOL     OW28799  10.450  10.016   3.053  0.2982  0.3082 -0.1480
 8465SOL    HW128800  10.514   9.965   3.004 -0.0439  0.5344 -0.8270
 8465SOL    HW228801  10.381   9.953   3.077 -0.2738  0.5129 -1.2473
 8466SOL     OW28802  10.077   8.492   6.187 -0.2345  0.4330 -0.3565
 8466SOL    HW128803  10.008   8.559   6.188 -1.6461 -1.0094  0.0412
 8466SOL    HW228804  10.031   8.409   6.189  1.4645 -0.6297 -2.7456
 8467SOL     OW28805   6.425   9.246   6.939 -0.4731 -0.1051 -0.2457
 8467SOL    HW128806   6.379   9.197   7.007 -1.5554 -0.1405 -0.9929
 8467SOL    HW228807   6.392   9.211   6.857  1.3502 -0.5575 -0.8148
 8468SOL     OW28808   0.153  10.849   4.245 -0.0557  0.0968  0.0924
 8468SOL    HW128809   0.165  10.870   4.338 -0.4042  0.2086  0.1115
 8468SOL    HW228810   0.065  10.810   4.240  0.4040 -0.9636 -0.0065
 8469SOL     OW28811   2.257   6.008   3.897 -0.3081  0.3606  0.2193
 8469SOL    HW128812   2.336   5.955   3.884 -0.7182 -0.9262  2.7435
 8469SOL    HW228813   2.220   6.019   3.810  1.9710 -0.0986 -0.8307
 8470SOL     OW28814   1.644   4.183   7.455 -0.1384 -0.1622 -0.4630
 8470SOL    HW128815   1.720   4.136   7.488  0.1409 -0.1986 -1.1384
 8470SOL    HW228816   1.664   4.198   7.362 -1.5931 -1.4852 -1.0208
 8471SOL     OW28817   7.052   3.562   6.412  0.7779 -0.2230 -0.0789
 8471SOL    HW128818   7.122   3.524   6.466  0.1990 -0.9959  0.1450
 8471SOL    HW228819   7.089   3.566   6.324  1.0987 -0.6475  0.0329
 8472SOL     OW28820   3.133   6.170   3.972  0.6713 -0.9517 -0.1448
 8472SOL    HW128821   3.154   6.247   3.919  0.3336 -1.7899 -1.5493
 8472SOL    HW228822   3.042   6.151   3.950 -0.0071 -0.3389  2.0251
 8473SOL     OW28823   9.083   6.674   4.424 -0.8186  0.2145  0.5128
 8473SOL    HW128824   9.112   6.601   4.478 -0.6250  1.1506  1.6976
 8473SOL    HW228825   9.140   6.671   4.347 -1.4607 -1.4559  0.0782
 8474SOL     OW28826   8.256   9.228   1.482  0.4291  0.1657 -0.0284
 8474SOL    HW128827   8.215   9.296   1.429  1.8198  0.2773 -0.9819
 8474SOL    HW228828   8.285   9.273   1.561  0.8552  0.5805 -0.4161
 8475SOL     OW28829   5.780   7.007   4.314  0.1235  0.0244 -0.4426
 8475SOL    HW128830   5.704   7.003   4.257  0.4910 -1.1831 -0.8714
 8475SOL    HW228831   5.828   7.085   4.285 -1.8826  1.8869  1.0673
 8476SOL     OW28832  10.491   1.574   6.891 -0.0749 -0.3125 -0.4156
 8476SOL    HW128833  10.496   1.583   6.796  2.7989 -1.0069 -0.3877
 8476SOL    HW228834  10.574   1.611   6.923 -1.0683  0.0660  1.8369
 8477SOL     OW28835   1.572   1.087   1.693 -0.2637 -0.6142 -0.1681
 8477SOL    HW128836   1.527   1.051   1.769  1.4274 -0.0993  1.1052
 8477SOL    HW228837   1.641   1.142   1.729  1.6145 -1.6514 -2.0428
 8478SOL     OW28838   6.472   9.579   2.431  0.5351 -0.3197  0.2606
 8478SOL    HW128839   6.509   9.560   2.517 -0.4089 -0.8478  0.5565
 8478SOL    HW228840   6.545   9.567   2.370  0.5311 -2.7013  0.6839
 8479SOL     OW28841   6.584   5.540   2.219 -0.4862  0.5944 -0.1052
 8479SOL    HW128842   6.520   5.495   2.274  0.2349  0.7555  0.8797
 8479SOL    HW228843   6.636   5.592   2.280 -1.7641  3.3610 -1.3095
 8480SOL     OW28844   3.402   2.390   7.980  0.6340  0.3895  0.6213
 8480SOL    HW128845   3.455   2.313   7.959  0.6144  0.3099  0.8641
 8480SOL    HW228846   3.457   2.465   7.960  0.0612  0.3390 -1.2502
 8481SOL     OW28847   5.853  10.767   4.125 -0.3365  0.2945  0.3090
 8481SOL    HW128848   5.764  10.733   4.128 -0.3651  0.2975 -0.3870
 8481SOL    HW228849   5.891  10.727   4.046  0.4315 -0.0882  0.8687
 8482SOL     OW28850   7.278   7.510  10.096 -0.4705  0.0042 -0.1658
 8482SOL    HW128851   7.369   7.485  10.077 -1.0110 -2.2042  0.0523
 8482SOL    HW228852   7.282   7.604  10.109  1.6247  0.0989 -1.2048
 8483SOL     OW28853   3.254   7.438   9.603  0.1827  0.9119 -0.0168
 8483SOL    HW128854   3.283   7.526   9.626  0.1783  1.3788 -1.7762
 8483SOL    HW228855   3.159   7.442   9.607  0.1769  1.0391 -0.2978
 8484SOL     OW28856   0.804   5.565   9.531 -0.6117 -0.3345 -0.4679
 8484SOL    HW128857   0.805   5.661   9.526 -0.0383 -0.3950 -1.7657
 8484SOL    HW228858   0.817   5.537   9.440 -1.5762 -1.6401 -0.2061
 8485SOL     OW28859   3.718   3.184   7.674 -0.2923 -0.2336  0.1586
 8485SOL    HW128860   3.697   3.142   7.591 -0.0511 -0.5228  0.2435
 8485SOL    HW228861   3.777   3.123   7.718  0.3890  0.3736  0.1024
 8486SOL     OW28862   6.915   0.535   3.985  0.5740 -0.7494  1.0526
 8486SOL    HW128863   6.871   0.459   3.946 -1.5263  0.3870  1.1544
 8486SOL    HW228864   6.889   0.609   3.930  0.9304  0.2189  2.1534
 8487SOL     OW28865   4.698   9.351   0.030  0.2089 -0.9235 -0.2053
 8487SOL    HW128866   4.635   9.297  -0.017  0.9854 -1.4789 -0.6287
 8487SOL    HW228867   4.659   9.438   0.032 -1.0768 -1.5158  0.5198
 8488SOL     OW28868   2.714   2.041   1.945 -0.0853  0.1102 -0.5854
 8488SOL    HW128869   2.776   2.064   1.876 -0.4110  0.7177 -0.6759
 8488SOL    HW228870   2.628   2.048   1.904 -0.2952  0.6898 -0.0658
 8489SOL     OW28871  10.180  10.430   6.061 -0.5533 -0.1533  0.8529
 8489SOL    HW128872  10.108  10.394   6.113  0.7205 -1.6282  1.6561
 8489SOL    HW228873  10.241  10.465   6.126 -0.9987  2.0484  0.1375
 8490SOL     OW28874   2.644   6.122   0.058  0.6041 -0.0260  0.2333
 8490SOL    HW128875   2.611   6.065   0.127  1.1789 -1.8968 -0.9964
 8490SOL    HW228876   2.710   6.069   0.012  1.1545  1.6262 -0.9391
 8491SOL     OW28877   2.605   6.471   5.822 -0.3077  0.3594 -0.2283
 8491SOL    HW128878   2.693   6.439   5.843  0.3977  2.0988 -0.4369
 8491SOL    HW228879   2.552   6.392   5.816  1.1037 -0.6803  0.5373
 8492SOL     OW28880   3.258   7.278   8.215 -0.3375 -0.1044 -0.6588
 8492SOL    HW128881   3.276   7.327   8.135  0.8957  1.8818  0.8107
 8492SOL    HW228882   3.329   7.213   8.219 -0.7283 -0.5890 -1.4675
 8493SOL     OW28883   3.923   2.091   9.210 -0.1379  0.6989  0.2713
 8493SOL    HW128884   3.955   2.056   9.126  1.2495 -0.1138  1.1267
 8493SOL    HW228885   3.930   2.186   9.200 -0.2138  0.6183 -0.6288
 8494SOL     OW28886   9.989   2.619   6.067  0.0805 -0.0741  0.4233
 8494SOL    HW128887  10.054   2.602   6.135  1.7043  1.3528 -0.7414
 8494SOL    HW228888   9.978   2.714   6.066 -0.1854 -0.1017 -1.0631
 8495SOL     OW28889   8.697   2.171   2.352 -0.2003 -0.3295  0.1360
 8495SOL    HW128890   8.618   2.121   2.373  1.8178 -3.2763  0.9606
 8495SOL    HW228891   8.751   2.111   2.300  1.0974  1.9684 -1.2645
 8496SOL     OW28892   9.420   6.631   7.777  0.1845 -0.3400  0.0022
 8496SOL    HW128893   9.344   6.602   7.727  1.8048 -2.4516 -1.3236
 8496SOL    HW228894   9.462   6.696   7.721  0.5169 -0.7248 -0.1962
 8497SOL     OW28895   8.901   2.359   5.512  0.0406  0.5073 -0.2095
 8497SOL    HW128896   8.862   2.330   5.429 -0.7502  0.8458  0.0399
 8497SOL    HW228897   8.826   2.375   5.569  0.5541  1.0978  0.3037
 8498SOL     OW28898  10.293   2.747   2.973  0.1737  0.2075  0.3262
 8498SOL    HW128899  10.303   2.652   2.978 -0.9620 -0.0256 -1.3615
 8498SOL    HW228900  10.381   2.781   2.986  1.0449 -1.2083 -1.6130
 8499SOL     OW28901   0.725   4.267   9.877 -0.3215  0.3219  0.0346
 8499SOL    HW128902   0.763   4.325   9.943 -0.3929 -0.6272  0.9226
 8499SOL    HW228903   0.668   4.323   9.826  0.6837  1.3271  0.0074
 8500SOL     OW28904   2.746   3.396   5.961  0.1401 -0.4240 -0.7824
 8500SOL    HW128905   2.691   3.338   6.014 -0.6391  0.5847 -0.4908
 8500SOL    HW228906   2.820   3.417   6.018  0.4751 -1.1845 -0.9194
 8501SOL     OW28907   8.145   2.108   9.895  0.0574 -0.0556  0.5652
 8501SOL    HW128908   8.183   2.061   9.969  0.0128 -0.8180  0.1116
 8501SOL    HW228909   8.081   2.047   9.858  0.4200  0.1391 -0.3933
 8502SOL     OW28910   8.990   8.868   1.038  0.0636 -0.3899 -0.5373
 8502SOL    HW128911   8.979   8.962   1.045 -0.2660 -0.4028 -0.8856
 8502SOL    HW228912   8.918   8.831   1.090 -0.2411 -0.4556 -1.0006
 8503SOL     OW28913   5.129   0.832   8.634 -0.7941  0.5038  0.4187
 8503SOL    HW128914   5.172   0.764   8.686 -1.7343  0.7691  1.5691
 8503SOL    HW228915   5.179   0.835   8.553  0.3511 -0.3245  1.0752
 8504SOL     OW28916   5.487   8.986   6.400 -0.0919  0.2707  0.2298
 8504SOL    HW128917   5.558   9.024   6.452  0.4140 -0.5846  0.1809
 8504SOL    HW228918   5.499   9.024   6.313  0.9610 -0.6887 -0.0505
 8505SOL     OW28919   1.754   9.560   1.906  0.2355  0.0589  0.2247
 8505SOL    HW128920   1.809   9.575   1.829 -0.1231 -0.6335 -0.1693
 8505SOL    HW228921   1.719   9.472   1.894 -1.6429  0.8009  0.0432
 8506SOL     OW28922   0.405   1.659   7.237 -0.2130 -0.0329  0.0713
 8506SOL    HW128923   0.496   1.671   7.211  0.3536 -0.8818  1.6118
 8506SOL    HW228924   0.355   1.674   7.157  1.4205 -1.5124 -1.2579
 8507SOL     OW28925   4.843   8.250   6.356 -0.3825 -0.6808  0.3668
 8507SOL    HW128926   4.868   8.312   6.423  0.6997 -0.1801 -0.4840
 8507SOL    HW228927   4.759   8.213   6.386 -2.2812  2.9194 -0.2634
 8508SOL     OW28928   4.742   1.508   6.107 -0.1740  0.2467 -0.1788
 8508SOL    HW128929   4.790   1.585   6.138 -1.2150  0.3266  1.2401
 8508SOL    HW228930   4.781   1.489   6.022  1.9787  0.6722  0.6876
 8509SOL     OW28931   6.398   1.009   0.813  0.2247 -0.6559  0.6538
 8509SOL    HW128932   6.456   1.041   0.744 -0.0129 -0.3168  0.6070
 8509SOL    HW228933   6.447   1.021   0.894 -0.6565  1.8083  0.8589
 8510SOL     OW28934   6.649   0.143   5.975  0.0276 -0.0287 -0.2239
 8510SOL    HW128935   6.722   0.198   5.947  0.6172 -0.2175  0.9145
 8510SOL    HW228936   6.686   0.086   6.043 -1.0863 -0.3802  0.1048
 8511SOL     OW28937   4.429   2.276   1.807  0.5362 -0.5503 -0.2047
 8511SOL    HW128938   4.374   2.218   1.860 -0.1372  0.4007  0.1445
 8511SOL    HW228939   4.502   2.220   1.779  0.9011 -1.0781  1.6962
 8512SOL     OW28940   6.278   2.557   8.472 -0.1721  0.4963 -0.0564
 8512SOL    HW128941   6.366   2.551   8.508  0.0269 -0.1715 -0.6686
 8512SOL    HW228942   6.247   2.467   8.466 -0.8593  0.7167  0.0504
 8513SOL     OW28943   4.805   3.593   7.594 -0.4015  0.3681 -0.3181
 8513SOL    HW128944   4.886   3.639   7.574  0.4633 -0.4027  1.3409
 8513SOL    HW228945   4.821   3.502   7.568 -0.4126  0.0362  0.8064
 8514SOL     OW28946   9.780  10.853   2.824 -0.2731  0.4284  0.2320
 8514SOL    HW128947   9.759  10.860   2.730  0.6673 -0.9174 -0.0866
 8514SOL    HW228948   9.821  10.937   2.845 -0.8495  0.8990 -0.4685
 8515SOL     OW28949   6.875   9.538   4.622 -0.4078 -0.3355 -0.0165
 8515SOL    HW128950   6.810   9.555   4.689  0.4889  3.4892 -0.0183
 8515SOL    HW228951   6.953   9.584   4.651  0.3264  0.5254 -3.0866
 8516SOL     OW28952   1.182   4.894   0.590 -0.0776  0.0155  0.0041
 8516SOL    HW128953   1.226   4.826   0.540  1.7096  0.8549  0.3889
 8516SOL    HW228954   1.126   4.939   0.526  1.9197  0.8589 -1.2096
 8517SOL     OW28955   0.365   9.516   4.532 -0.6203  0.6334 -0.4394
 8517SOL    HW128956   0.278   9.555   4.535 -1.2846 -0.8323 -0.1337
 8517SOL    HW228957   0.354   9.437   4.480  0.3187 -0.0436  0.3666
 8518SOL     OW28958   2.208   4.109   7.380  0.2313  0.4555 -0.2456
 8518SOL    HW128959   2.138   4.120   7.316 -0.0428 -0.9830 -0.2144
 8518SOL    HW228960   2.179   4.158   7.457  0.1040  1.3563 -0.8656
 8519SOL     OW28961   1.300   1.357   7.771  0.2177  0.4889 -0.3714
 8519SOL    HW128962   1.368   1.290   7.780  0.6419  1.2405  2.6210
 8519SOL    HW228963   1.296   1.398   7.857 -1.9497  2.4881 -1.3805
 8520SOL     OW28964  10.066   0.805   8.136 -0.0760  0.1295 -0.2396
 8520SOL    HW128965  10.092   0.727   8.087 -0.3955 -0.8280  1.0587
 8520SOL    HW228966  10.116   0.877   8.097  0.0053 -0.6835 -1.6412
 8521SOL     OW28967   2.175   9.664  10.908 -0.0720  0.4540 -0.2676
 8521SOL    HW128968   2.101   9.712  10.943  0.7370  0.9967  0.6994
 8521SOL    HW228969   2.143   9.574  10.898 -0.0955  0.1194  2.5548
 8522SOL     OW28970   7.767   1.477   4.522 -0.0022 -0.6565  0.0981
 8522SOL    HW128971   7.846   1.516   4.560 -0.4554  0.0384  0.3272
 8522SOL    HW228972   7.767   1.387   4.554  1.6079 -1.1674 -1.2794
 8523SOL     OW28973   5.156   5.029   3.112  0.0473 -0.1713  0.2402
 8523SOL    HW128974   5.188   4.995   3.028  0.0782  1.6262 -0.4957
 8523SOL    HW228975   5.227   5.084   3.144 -0.4300  0.0630  0.9000
 8524SOL     OW28976   1.744   9.501   5.815  0.6345 -0.0417 -0.1706
 8524SOL    HW128977   1.674   9.565   5.804  2.0996  1.9941  1.8428
 8524SOL    HW228978   1.749   9.486   5.910  1.4691 -1.8422 -0.4621
 8525SOL     OW28979  10.722   6.338   0.181  0.2392  0.0637  0.0750
 8525SOL    HW128980  10.651   6.323   0.244 -0.4808 -0.4935 -0.8654
 8525SOL    HW228981  10.791   6.278   0.208 -0.7929 -1.5340 -0.7948
 8526SOL     OW28982   6.249   6.602   8.884 -0.0730  0.3478 -0.2172
 8526SOL    HW128983   6.180   6.574   8.943  0.8389  1.4214  1.3834
 8526SOL    HW228984   6.213   6.587   8.796 -0.6672 -3.0935  0.5776
 8527SOL     OW28985   5.512   9.036   3.063  0.3232 -0.7789  0.1536
 8527SOL    HW128986   5.504   8.946   3.095 -3.2643 -1.1454 -1.5049
 8527SOL    HW228987   5.474   9.089   3.133  0.5083 -0.7306  0.2183
 8528SOL     OW28988   7.033   8.988   7.674 -0.0366  0.2282 -0.1398
 8528SOL    HW128989   7.011   8.895   7.671  1.0731 -0.0468 -0.1759
 8528SOL    HW228990   6.950   9.032   7.691 -0.5893 -0.7623 -0.2276
 8529SOL     OW28991   0.004   1.997   1.727 -0.1994 -0.1068  0.4719
 8529SOL    HW128992  -0.023   1.952   1.646 -0.9179 -0.2507  0.7867
 8529SOL    HW228993   0.036   1.926   1.783 -0.4179 -0.0979  0.6044
 8530SOL     OW28994   0.532   9.175   1.307  0.3618 -0.5317  0.2339
 8530SOL    HW128995   0.565   9.090   1.278  0.2765 -1.1009  1.7615
 8530SOL    HW228996   0.472   9.155   1.379 -0.6111  0.7434 -0.1841
 8531SOL     OW28997   3.715   5.789   2.588  0.4996  0.1854  0.1111
 8531SOL    HW128998   3.711   5.860   2.651 -0.5237  0.5970 -0.4028
 8531SOL    HW228999   3.749   5.830   2.508 -0.6622  0.2424 -0.3653
 8532SOL     OW29000   9.963   2.950   4.570  0.4047 -0.3681 -0.3944
 8532SOL    HW129001   9.929   2.956   4.480  1.4442  1.5836 -0.6793
 8532SOL    HW229002   9.999   3.037   4.588  0.9995 -1.0062  1.6100
 8533SOL     OW29003   7.173   9.970   1.213  0.4619 -0.8333  0.3397
 8533SOL    HW129004   7.206  10.033   1.277 -1.0528 -0.3554  0.6750
 8533SOL    HW229005   7.105   9.922   1.260  0.6205 -1.7546 -0.3580
 8534SOL     OW29006   1.871   6.183   0.499 -0.3209 -0.3554  0.7814
 8534SOL    HW129007   1.913   6.122   0.559  0.1461 -0.6629  0.1522
 8534SOL    HW229008   1.806   6.130   0.452  1.5447 -0.9138 -1.2889
 8535SOL     OW29009   9.691  10.630   8.609 -0.1251  0.1894 -0.5451
 8535SOL    HW129010   9.692  10.655   8.701  0.5065 -1.6448 -0.0238
 8535SOL    HW229011   9.608  10.662   8.576  0.0744  1.7352  0.4219
 8536SOL     OW29012   9.573  10.383   6.362 -0.0064 -0.7186 -0.6326
 8536SOL    HW129013   9.513  10.397   6.289 -1.1118  0.4786  0.4762
 8536SOL    HW229014   9.519  10.342   6.430  1.2130 -2.6450 -0.7922
 8537SOL     OW29015   8.784   7.788   5.251 -0.0389 -0.1792 -0.2684
 8537SOL    HW129016   8.731   7.712   5.226 -0.0064  0.2655 -1.7337
 8537SOL    HW229017   8.721   7.861   5.254 -0.1530 -0.3210  1.5578
 8538SOL     OW29018   2.049   5.694   2.711 -0.1196  0.6944 -0.0772
 8538SOL    HW129019   1.985   5.749   2.666 -2.3362 -0.9893  0.9047
 8538SOL    HW229020   2.033   5.606   2.676 -0.2556 -0.2132  2.2180
 8539SOL     OW29021   1.180   5.929   0.332  0.2350  0.3294  0.3926
 8539SOL    HW129022   1.243   5.996   0.308  0.3709 -0.0713 -0.3800
 8539SOL    HW229023   1.125   5.970   0.399 -1.1787  2.0236 -1.7421
 8540SOL     OW29024   6.392   1.687   6.274  0.1102  0.4766  0.0527
 8540SOL    HW129025   6.333   1.703   6.201  0.1241  0.6611  0.0799
 8540SOL    HW229026   6.470   1.738   6.253 -0.3975  1.6057  0.8301
 8541SOL     OW29027   9.158   0.868   5.611 -0.0563  0.2825 -0.2523
 8541SOL    HW129028   9.067   0.846   5.593 -0.7424  1.6643  1.3653
 8541SOL    HW229029   9.172   0.840   5.701  1.5379 -1.1557 -0.9292
 8542SOL     OW29030   0.109   4.824  10.206  0.8239 -0.1689  0.0504
 8542SOL    HW129031   0.088   4.897  10.147  2.2071 -0.5764 -1.0014
 8542SOL    HW229032   0.205   4.824  10.209  0.7890 -1.0032  1.2441
 8543SOL     OW29033   1.637   5.235   0.295  0.4513 -0.3945 -0.4091
 8543SOL    HW129034   1.671   5.149   0.271  0.8543 -0.2678 -0.3087
 8543SOL    HW229035   1.658   5.291   0.221  1.1334 -0.1483 -0.0417
 8544SOL     OW29036   1.757   5.145   4.226 -0.3872  0.1660  0.2732
 8544SOL    HW129037   1.850   5.156   4.249 -1.2758  1.2045  3.6247
 8544SOL    HW229038   1.754   5.162   4.132  3.0404 -1.3316 -0.2056
 8545SOL     OW29039   7.248   8.862   2.073  0.0698 -0.6191 -0.0491
 8545SOL    HW129040   7.206   8.924   2.133 -0.0016 -0.7700  0.0593
 8545SOL    HW229041   7.199   8.780   2.086  0.0254 -0.6414 -0.3469
 8546SOL     OW29042   4.479   3.804   0.223  0.0486 -0.2856  0.1242
 8546SOL    HW129043   4.481   3.797   0.127 -0.3403 -0.3378  0.1173
 8546SOL    HW229044   4.423   3.879   0.240  0.8688  0.2904  0.2955
 8547SOL     OW29045   1.839   2.543   0.229  0.7745 -0.3176  0.0925
 8547SOL    HW129046   1.747   2.563   0.244  0.3727 -2.2675  0.3130
 8547SOL    HW229047   1.862   2.480   0.297  1.7404 -1.3143 -1.1286
 8548SOL     OW29048   7.312   5.060   1.749  0.3730 -0.3701 -0.3305
 8548SOL    HW129049   7.342   5.024   1.665  2.6675 -1.3537  0.8777
 8548SOL    HW229050   7.392   5.086   1.794 -0.8927  0.8851  1.2485
 8549SOL     OW29051   0.542   0.455   4.716 -0.1497  0.2906  0.2297
 8549SOL    HW129052   0.472   0.423   4.774 -0.3348  0.5365  0.1423
 8549SOL    HW229053   0.495   0.492   4.641  0.1079 -1.7335 -0.9854
 8550SOL     OW29054   7.088   2.291   1.538 -0.6636  0.8902  0.3761
 8550SOL    HW129055   7.142   2.367   1.515 -2.4438  3.0607  3.0936
 8550SOL    HW229056   7.075   2.245   1.454  2.8346  1.9254 -0.8330
 8551SOL     OW29057   2.820   1.573   0.714 -0.1772 -0.1341 -0.2668
 8551SOL    HW129058   2.848   1.511   0.781  0.0787  1.1224  0.8148
 8551SOL    HW229059   2.900   1.618   0.688 -0.4833  0.3109 -0.4469
 8552SOL     OW29060   4.905   0.726   7.670 -0.5386 -0.1259 -0.5955
 8552SOL    HW129061   5.000   0.717   7.675 -0.5119  1.1995  1.9862
 8552SOL    HW229062   4.872   0.670   7.740 -1.6946 -0.7607 -1.6256
 8553SOL     OW29063   9.741   1.427   7.263 -0.3600  0.0438 -0.3654
 8553SOL    HW129064   9.797   1.502   7.280 -0.4502 -0.1077  0.5970
 8553SOL    HW229065   9.713   1.439   7.172  0.2956  0.7268 -0.4862
 8554SOL     OW29066   0.620   7.573  10.006 -0.0873  0.1902 -0.4867
 8554SOL    HW129067   0.608   7.478  10.002  0.1017  0.1798 -0.8846
 8554SOL    HW229068   0.673   7.587  10.084 -0.6954  0.0302 -0.0444
 8555SOL     OW29069  10.235   5.953   3.415 -0.1740 -0.0938 -0.1062
 8555SOL    HW129070  10.253   6.005   3.336 -3.2698  1.3773  0.0889
 8555SOL    HW229071  10.220   5.864   3.382 -0.9926  0.4143 -1.1519
 8556SOL     OW29072   3.188  10.472   0.124 -0.3910  0.0863  0.7882
 8556SOL    HW129073   3.186  10.543   0.059 -3.1306  0.0054  0.7256
 8556SOL    HW229074   3.165  10.393   0.074 -0.2883 -0.3382  1.4148
 8557SOL     OW29075   6.222   8.904   1.238 -0.2165  0.5485  0.1582
 8557SOL    HW129076   6.198   8.834   1.178 -0.2309  1.0602 -0.4370
 8557SOL    HW229077   6.170   8.887   1.317  1.3229 -1.2992  0.8170
 8558SOL     OW29078   8.447   0.079   7.765  0.1854  0.2420  0.0001
 8558SOL    HW129079   8.514   0.112   7.825  1.0163  0.6471 -1.1295
 8558SOL    HW229080   8.390   0.026   7.820 -0.0418  1.9583  1.4579
 8559SOL     OW29081   5.342   0.042   9.471  0.2328 -0.4746  0.6681
 8559SOL    HW129082   5.316   0.014   9.559  0.8481 -2.0823  0.3555
 8559SOL    HW229083   5.434   0.068   9.480 -0.0826  0.5981  0.7732
 8560SOL     OW29084   9.410   0.148   5.676 -0.1081 -0.4717  0.0031
 8560SOL    HW129085   9.353   0.080   5.640  1.2007 -0.6104 -1.9250
 8560SOL    HW229086   9.426   0.207   5.602 -0.3140  1.3232  1.3549
 8561SOL     OW29087  10.937   6.911   5.656 -0.1037 -0.0460 -0.7992
 8561SOL    HW129088  10.910   6.984   5.712 -1.2946 -0.8001 -0.3722
 8561SOL    HW229089  11.000   6.949   5.596 -1.1634  1.4734 -0.9742
 8562SOL     OW29090   7.297   5.524   3.431 -0.2304  0.1058  0.1466
 8562SOL    HW129091   7.217   5.487   3.468  0.4134 -1.1903  0.2798
 8562SOL    HW229092   7.317   5.466   3.357 -0.3240  1.4070 -0.9260
 8563SOL     OW29093   6.484   2.571   0.604  0.1158 -0.3211  0.4479
 8563SOL    HW129094   6.476   2.602   0.514 -0.6082 -0.1106  0.5766
 8563SOL    HW229095   6.576   2.545   0.613  0.4908  0.8393  0.0342
 8564SOL     OW29096   9.663   1.310   5.491  1.0706  0.1945 -0.0251
 8564SOL    HW129097   9.657   1.214   5.481  2.4616  0.1698 -0.7221
 8564SOL    HW229098   9.732   1.324   5.555 -1.8750  0.6598  3.2022
 8565SOL     OW29099   2.059   2.498   8.643  0.2707 -0.8337  0.6268
 8565SOL    HW129100   2.067   2.482   8.737  0.1813 -2.8263  0.3331
 8565SOL    HW229101   1.994   2.567   8.635 -0.1407 -1.0521  2.0059
 8566SOL     OW29102  10.009   0.380   1.288  0.1013  0.2142 -0.2689
 8566SOL    HW129103  10.077   0.367   1.354  0.4885  1.9598 -0.2788
 8566SOL    HW229104   9.998   0.475   1.286 -0.5623  0.0982 -2.0667
 8567SOL     OW29105   5.167   0.639   9.654  0.3733 -0.2106 -0.1686
 8567SOL    HW129106   5.214   0.719   9.678  0.0010 -0.6748  2.1918
 8567SOL    HW229107   5.083   0.645   9.700 -0.4066 -1.1166 -1.4291
 8568SOL     OW29108   4.935   7.382   4.078 -0.2431  0.1323 -1.0094
 8568SOL    HW129109   4.973   7.440   4.144 -0.8259 -0.5545 -0.0520
 8568SOL    HW229110   4.925   7.437   4.000  0.6530  0.8951 -0.5970
 8569SOL     OW29111   3.349   4.200   7.749 -0.6305  0.0875 -0.7638
 8569SOL    HW129112   3.333   4.106   7.739 -1.3029  0.1409 -0.1844
 8569SOL    HW229113   3.444   4.206   7.763 -0.5743 -0.4987 -0.8707
 8570SOL     OW29114  10.597   6.617   6.262 -0.0527  0.0915 -0.1122
 8570SOL    HW129115  10.676   6.581   6.220  1.0924  1.1612  1.0856
 8570SOL    HW229116  10.561   6.544   6.312 -0.2105 -0.5966 -1.2188
 8571SOL     OW29117   1.688  10.813   6.854  0.0986  0.6597 -0.1107
 8571SOL    HW129118   1.711  10.886   6.797 -0.8789  0.6960 -0.4707
 8571SOL    HW229119   1.634  10.756   6.799  0.2559  0.0274  0.3810
 8572SOL     OW29120   4.946   0.815   3.945  0.0733 -0.1210 -0.7048
 8572SOL    HW129121   5.041   0.823   3.950  0.0701  0.5015 -1.6583
 8572SOL    HW229122   4.913   0.904   3.955 -0.3635 -0.1995 -1.3982
 8573SOL     OW29123   7.726  10.320   3.129 -0.3930  0.0843  0.0779
 8573SOL    HW129124   7.666  10.257   3.170 -0.6570  0.4798  0.2945
 8573SOL    HW229125   7.786  10.265   3.077  0.0700 -0.4372  1.1508
 8574SOL     OW29126   1.667   7.939   2.828 -0.1312 -0.3803  0.0568
 8574SOL    HW129127   1.587   7.974   2.865  0.0889 -0.3534  0.5075
 8574SOL    HW229128   1.645   7.921   2.736 -0.7916 -0.8299  0.2992
 8575SOL     OW29129   5.946   7.106   3.167  0.2148  0.7889  0.4993
 8575SOL    HW129130   5.926   7.042   3.099 -1.4179 -0.2490  1.9345
 8575SOL    HW229131   6.025   7.072   3.209 -1.0854 -0.7729  1.7808
 8576SOL     OW29132   7.707   5.784   7.670 -0.1119  0.6595 -0.3282
 8576SOL    HW129133   7.717   5.691   7.649 -0.8148  0.5574 -0.2176
 8576SOL    HW229134   7.753   5.795   7.753 -1.3601  0.0796  0.4557
 8577SOL     OW29135   4.511   6.666   3.890 -0.6051  0.2447 -0.5822
 8577SOL    HW129136   4.538   6.724   3.961 -0.9534 -0.5436  0.1951
 8577SOL    HW229137   4.437   6.711   3.849 -1.8942 -0.3768  1.0111
 8578SOL     OW29138   1.886   6.132   9.106  0.9434  0.1537 -0.5351
 8578SOL    HW129139   1.919   6.043   9.110  0.1129 -0.0736  2.2875
 8578SOL    HW229140   1.964   6.187   9.102  1.6323 -0.5500  2.1936
 8579SOL     OW29141   9.022   8.286   9.893  0.0739  0.0499 -0.1055
 8579SOL    HW129142   9.003   8.361   9.836 -0.1594  0.7194  0.8331
 8579SOL    HW229143   9.115   8.293   9.912  0.3829 -0.7751 -1.2377
 8580SOL     OW29144   6.518   5.360   2.901  0.2752 -0.2608  0.3104
 8580SOL    HW129145   6.435   5.354   2.855 -0.1815 -3.1533  1.4220
 8580SOL    HW229146   6.583   5.329   2.837  0.3451  0.6859 -0.0910
 8581SOL     OW29147   6.161   8.735   0.394 -0.5621  0.2653  0.4415
 8581SOL    HW129148   6.141   8.641   0.398  1.4448 -0.2236 -0.4339
 8581SOL    HW229149   6.196   8.748   0.306 -2.0244  2.1064  0.1059
 8582SOL     OW29150   6.872   8.052   3.902 -0.2666  0.6764 -0.3544
 8582SOL    HW129151   6.890   8.146   3.898 -0.7013  0.6744 -2.9297
 8582SOL    HW229152   6.914   8.016   3.825 -0.1079 -1.2705  0.6087
 8583SOL     OW29153   6.059   0.974   3.787 -0.2493 -0.0097  0.0035
 8583SOL    HW129154   5.965   0.992   3.796 -0.8655 -2.2542 -1.5010
 8583SOL    HW229155   6.087   1.031   3.716 -0.1607  1.6367  1.3319
 8584SOL     OW29156   1.019  10.224   3.724 -0.1113  0.1547  0.4375
 8584SOL    HW129157   1.038  10.162   3.654 -2.1476 -1.3596  1.2103
 8584SOL    HW229158   1.057  10.307   3.693  0.7600 -0.9613 -1.5440
 8585SOL     OW29159   5.995   0.701  10.337  0.2337  0.3966  0.3041
 8585SOL    HW129160   5.979   0.763  10.266 -0.5099 -1.4407 -1.1483
 8585SOL    HW229161   5.939   0.733  10.409  0.1284  1.6063 -0.2971
 8586SOL     OW29162   6.575   0.660   6.154 -0.0452  0.0296  0.7556
 8586SOL    HW129163   6.648   0.601   6.139 -0.0792  0.2401 -0.2519
 8586SOL    HW229164   6.518   0.649   6.077  0.6458  2.3711 -0.1256
 8587SOL     OW29165   9.485   6.476   6.400  0.2184 -0.0672  0.0019
 8587SOL    HW129166   9.576   6.449   6.415  0.2629 -0.0323 -0.1949
 8587SOL    HW229167   9.453   6.502   6.486  0.4722  0.1600  0.0264
 8588SOL     OW29168   9.051   6.928   0.032 -0.2375 -0.1889 -0.5930
 8588SOL    HW129169   9.030   7.001  -0.027 -0.8033  0.6184  0.6070
 8588SOL    HW229170   9.144   6.939   0.051 -0.4442  0.5272  0.0106
 8589SOL     OW29171   1.001   1.318  10.900  0.5306  0.5456 -0.5228
 8589SOL    HW129172   0.947   1.259  10.952  2.7324 -0.3239  0.8483
 8589SOL    HW229173   1.048   1.261  10.840  2.2918  0.9336  0.4585
 8590SOL     OW29174   8.037   9.118  10.515  0.2851 -0.6336  0.1756
 8590SOL    HW129175   7.955   9.157  10.544  1.5243  0.8431  1.8124
 8590SOL    HW229176   8.013   9.064  10.440 -1.5548  2.9595 -1.9263
 8591SOL     OW29177   0.203   8.036   6.100  0.0165 -0.2871 -0.5893
 8591SOL    HW129178   0.150   8.107   6.137  0.0600  0.7565 -2.4974
 8591SOL    HW229179   0.283   8.037   6.152 -0.1892  0.7476 -0.2699
 8592SOL     OW29180   0.709   2.305   8.219  0.6116  0.2793 -0.0912
 8592SOL    HW129181   0.636   2.341   8.268  0.1522 -1.7645  0.7996
 8592SOL    HW229182   0.706   2.211   8.238  3.2875  0.1223 -0.2620
 8593SOL     OW29183   5.380   5.504   5.850 -0.2918 -0.2464 -0.0649
 8593SOL    HW129184   5.385   5.573   5.917 -0.1595 -0.9338  0.6334
 8593SOL    HW229185   5.301   5.455   5.872 -0.0209 -0.7279 -0.1622
 8594SOL     OW29186   2.233   1.288   7.299 -0.1654 -0.1924  0.1299
 8594SOL    HW129187   2.314   1.285   7.247 -0.0468 -0.1380  0.3090
 8594SOL    HW229188   2.172   1.339   7.246  0.2091  0.5303  0.3905
 8595SOL     OW29189   0.372   0.165   4.581  0.3483 -0.0402  0.5435
 8595SOL    HW129190   0.418   0.082   4.590 -1.9873 -1.5098 -0.8122
 8595SOL    HW229191   0.366   0.198   4.671 -0.7519 -2.4824  1.4101
 8596SOL     OW29192  10.739   7.516   2.881  0.4340  0.0139  0.1258
 8596SOL    HW129193  10.683   7.589   2.906 -0.5136 -0.4901 -0.4646
 8596SOL    HW229194  10.780   7.543   2.799 -0.7560 -0.5289 -0.6672
 8597SOL     OW29195   9.878   3.312   7.547 -0.1027  0.4636 -0.0462
 8597SOL    HW129196   9.911   3.397   7.518 -1.5660  1.1851  0.3621
 8597SOL    HW229197   9.884   3.256   7.470  1.8494  0.6261 -0.0451
 8598SOL     OW29198   6.603   4.342   0.145 -0.1350  0.3699  0.0350
 8598SOL    HW129199   6.635   4.431   0.160  0.5891  0.4128 -1.5559
 8598SOL    HW229200   6.666   4.305   0.082 -0.2027 -1.4018  0.9854
 8599SOL     OW29201   0.118   8.915   2.163  0.5336  0.2224  0.6005
 8599SOL    HW129202   0.164   8.973   2.224 -0.3330  2.2409 -0.6190
 8599SOL    HW229203   0.025   8.936   2.175  0.1053 -1.7579  0.9616
 8600SOL     OW29204   5.672   9.720   1.849  0.4532  0.1188 -0.0558
 8600SOL    HW129205   5.727   9.669   1.909  1.8285  0.3514 -1.0900
 8600SOL    HW229206   5.733   9.783   1.809 -0.2421 -0.6396 -2.3556
 8601SOL     OW29207   7.449   8.892   4.535  0.1996  0.5803 -0.4292
 8601SOL    HW129208   7.438   8.855   4.623  1.1991  1.3168  0.0175
 8601SOL    HW229209   7.526   8.847   4.500 -1.2571 -1.0192 -1.6428
 8602SOL     OW29210   7.999   9.108   2.173  0.1143  0.3271  0.2607
 8602SOL    HW129211   7.948   9.035   2.208 -0.6880  0.2822 -0.9405
 8602SOL    HW229212   7.941   9.147   2.107  1.9154 -0.1669 -1.6663
 8603SOL     OW29213   9.926   5.515  10.353  0.4444  0.3017 -0.0838
 8603SOL    HW129214   9.845   5.466  10.367  0.3325  0.4326 -0.2707
 8603SOL    HW229215   9.915   5.595  10.404  0.3126  0.4754 -0.3824
 8604SOL     OW29216   4.957   6.387   9.485 -0.5196 -0.0999 -0.6799
 8604SOL    HW129217   5.020   6.444   9.529 -1.8627  1.2592 -0.4719
 8604SOL    HW229218   4.910   6.445   9.425 -2.0339 -0.9483 -0.3400
 8605SOL     OW29219   4.763   8.383   3.847  0.1069 -0.0053  0.3909
 8605SOL    HW129220   4.719   8.325   3.785 -1.4757  0.4896  1.0358
 8605SOL    HW229221   4.709   8.462   3.849  2.4259  1.7053 -0.7636
 8606SOL     OW29222   5.198   8.319   6.726  0.0028 -0.1393 -0.3216
 8606SOL    HW129223   5.208   8.258   6.799  1.6157  0.6630  0.1687
 8606SOL    HW229224   5.210   8.265   6.648  1.9750 -0.3963  0.1205
 8607SOL     OW29225   9.611   8.066   7.020  0.7221  0.0535 -0.0344
 8607SOL    HW129226   9.692   8.018   7.002  1.2061  0.9306 -0.2429
 8607SOL    HW229227   9.581   8.095   6.934 -0.5317 -1.3765 -0.1000
 8608SOL     OW29228   0.300   4.765   8.402 -0.0528  0.2508  0.2140
 8608SOL    HW129229   0.352   4.744   8.324  0.1798  1.4689  0.0358
 8608SOL    HW229230   0.355   4.737   8.475 -0.1699 -0.6731 -0.0407
 8609SOL     OW29231   3.125   4.680   8.747  0.1012 -0.6368 -0.5575
 8609SOL    HW129232   3.098   4.622   8.818 -0.0068 -1.5040 -1.2872
 8609SOL    HW229233   3.218   4.663   8.736  0.6391  1.1957  0.9039
 8610SOL     OW29234   9.516   7.516   0.529 -0.0285  0.1230 -0.0847
 8610SOL    HW129235   9.430   7.547   0.557  0.5655 -0.1342  2.1770
 8610SOL    HW229236   9.535   7.565   0.449 -1.5183  1.4774  0.3646
 8611SOL     OW29237   2.612   8.066   5.381 -0.4543  0.1125 -0.6489
 8611SOL    HW129238   2.700   8.056   5.417 -1.3001  0.2487  1.4736
 8611SOL    HW229239   2.588   7.977   5.354  0.6796  0.2252 -2.1406
 8612SOL     OW29240   9.467  10.065  10.618  0.1367  0.8422 -0.2914
 8612SOL    HW129241   9.503  10.148  10.588  0.6615  1.2499  1.4167
 8612SOL    HW229242   9.417  10.087  10.696  0.8363 -0.5262  0.5730
 8613SOL     OW29243   9.057   3.889   0.495 -0.1813  0.6923  0.0202
 8613SOL    HW129244   9.010   3.921   0.418 -0.2964 -1.5487 -0.8892
 8613SOL    HW229245   9.142   3.932   0.491 -1.0906  2.5381  0.0599
 8614SOL     OW29246   2.294   5.097   1.903  0.0054  0.4924 -0.3807
 8614SOL    HW129247   2.214   5.047   1.886 -0.1804  0.4974  0.4309
 8614SOL    HW229248   2.325   5.122   1.816  0.0209 -0.8979 -0.7931
 8615SOL     OW29249   3.641   6.503   5.928 -0.1455 -0.1356 -0.3749
 8615SOL    HW129250   3.638   6.437   5.997  1.2466 -0.4748 -0.6295
 8615SOL    HW229251   3.636   6.587   5.975  0.5240 -0.3709  0.1235
 8616SOL     OW29252   6.355   4.443   0.477 -0.5298  0.3865 -0.2294
 8616SOL    HW129253   6.410   4.506   0.431  0.2872 -1.1770 -1.4459
 8616SOL    HW229254   6.357   4.471   0.568  1.2800  1.0721 -0.4690
 8617SOL     OW29255   1.314   6.866   8.191  0.3773  0.5108 -0.3518
 8617SOL    HW129256   1.250   6.895   8.126 -0.5857 -0.7014  0.0496
 8617SOL    HW229257   1.381   6.821   8.139 -0.6890 -0.9803 -0.4792
 8618SOL     OW29258   9.348   0.860   8.636 -0.4533  0.3225 -0.2947
 8618SOL    HW129259   9.395   0.892   8.559  0.1428 -1.1026 -0.5326
 8618SOL    HW229260   9.318   0.772   8.612 -1.1503  0.2664  0.7285
 8619SOL     OW29261   4.799   1.296   6.965 -0.0995  0.4430 -0.3312
 8619SOL    HW129262   4.707   1.276   6.980 -0.0034 -0.3108 -0.7517
 8619SOL    HW229263   4.832   1.222   6.914  0.9182  0.3498  0.4556
 8620SOL     OW29264   3.260   5.773   2.065  0.2466 -0.4795 -0.2323
 8620SOL    HW129265   3.181   5.720   2.058  0.6327 -0.9083 -1.4051
 8620SOL    HW229266   3.282   5.772   2.159  1.1922 -3.7556 -0.4367
 8621SOL     OW29267  10.489   5.312  10.381  0.4149 -0.3094 -0.3871
 8621SOL    HW129268  10.494   5.372  10.456 -2.3420 -0.7778  0.2165
 8621SOL    HW229269  10.574   5.268  10.381  2.1883  2.8898 -0.3006
 8622SOL     OW29270   1.246   3.552   5.440 -0.1284 -0.5895 -0.1259
 8622SOL    HW129271   1.203   3.537   5.524  0.8075  0.3956  0.5448
 8622SOL    HW229272   1.183   3.522   5.375 -0.6310 -1.9027  0.9442
 8623SOL     OW29273   7.474   7.699   4.260 -0.1626  0.1067  0.3085
 8623SOL    HW129274   7.511   7.746   4.335  2.2901 -0.4030 -0.5087
 8623SOL    HW229275   7.551   7.668   4.212 -1.6818  0.1442 -2.2451
 8624SOL     OW29276   1.014   0.762   7.692 -0.2548 -0.1557  0.0230
 8624SOL    HW129277   1.059   0.678   7.701 -0.0531 -0.1689 -1.0687
 8624SOL    HW229278   1.037   0.792   7.604 -2.1042 -0.0186 -0.4331
 8625SOL     OW29279   4.396   6.412   3.970 -0.1274  0.3977  0.0858
 8625SOL    HW129280   4.450   6.490   3.968  0.1376  0.2328  0.9449
 8625SOL    HW229281   4.458   6.339   3.966 -0.4012  0.2264 -1.4613
 8626SOL     OW29282   1.669  10.435   4.148  0.5219 -0.5928 -0.0654
 8626SOL    HW129283   1.591  10.388   4.176  0.4582 -0.5267 -0.1310
 8626SOL    HW229284   1.662  10.439   4.053  0.6165 -0.6075 -0.0731
 8627SOL     OW29285   5.249   4.558   7.317  0.1388  0.0015 -0.0522
 8627SOL    HW129286   5.196   4.555   7.397 -0.3033  0.6315 -0.3120
 8627SOL    HW229287   5.186   4.538   7.247  0.6557 -1.1788 -0.1861
 8628SOL     OW29288   3.312   0.981   3.919  0.2437  0.2970 -0.7705
 8628SOL    HW129289   3.339   0.978   3.827 -0.7484 -2.4429 -1.0287
 8628SOL    HW229290   3.223   1.016   3.917  0.8032  1.7308 -0.6961
 8629SOL     OW29291  10.685   4.225   6.926  0.0759 -0.0823  0.0744
 8629SOL    HW129292  10.758   4.192   6.873 -0.2958 -0.4338 -0.2171
 8629SOL    HW229293  10.611   4.170   6.902 -0.0940 -0.2433  0.9574
 8630SOL     OW29294   5.061   5.017   7.592  0.3117 -0.2596  0.3760
 8630SOL    HW129295   5.078   5.096   7.541 -0.3337  0.0064  0.5714
 8630SOL    HW229296   4.986   4.976   7.548  0.0965 -0.3121  0.7888
 8631SOL     OW29297   1.300   1.439   3.121 -0.2541  0.2175  0.3560
 8631SOL    HW129298   1.292   1.435   3.217  1.2450 -0.5079  0.4662
 8631SOL    HW229299   1.379   1.491   3.106 -1.5981  2.0669 -0.5497
 8632SOL     OW29300   1.251  10.264   7.199 -0.2454 -0.0509  0.2237
 8632SOL    HW129301   1.260  10.242   7.106 -0.7248  1.6502 -0.2363
 8632SOL    HW229302   1.162  10.298   7.208 -0.6118 -1.3014  1.5431
 8633SOL     OW29303   7.323   5.000   3.379 -0.3617  0.2060 -0.0150
 8633SOL    HW129304   7.387   5.029   3.314 -0.1317  0.3604  0.2813
 8633SOL    HW229305   7.263   5.073   3.389 -0.6377  0.0255 -0.3626
 8634SOL     OW29306   8.238   3.212   7.192  0.2786 -0.2244 -0.1798
 8634SOL    HW129307   8.332   3.209   7.174  0.4113 -1.1072  0.6475
 8634SOL    HW229308   8.211   3.298   7.159  1.6334  0.6170  0.8202
 8635SOL     OW29309  10.974   6.961  10.434  0.1661  0.2011  0.0384
 8635SOL    HW129310  10.975   6.998  10.346 -0.1033  1.3733  0.5328
 8635SOL    HW229311  10.990   7.035  10.492  1.1929 -0.7017  0.9374
 8636SOL     OW29312   3.928   2.758   4.363 -0.0981  0.9199 -0.3179
 8636SOL    HW129313   3.952   2.760   4.456 -0.6858 -2.7062  0.0106
 8636SOL    HW229314   3.837   2.787   4.361  0.3809  2.4803  0.0268
 8637SOL     OW29315  10.463   0.425   6.462 -0.1091 -0.3799  0.0506
 8637SOL    HW129316  10.378   0.396   6.497  0.5656 -2.0250  0.4159
 8637SOL    HW229317  10.480   0.508   6.506 -1.2636 -0.3359  0.4261
 8638SOL     OW29318   8.950   5.665   4.388 -0.3383  0.1360 -0.7254
 8638SOL    HW129319   8.983   5.589   4.340  0.0055  0.9700 -1.8243
 8638SOL    HW229320   8.941   5.633   4.479  0.8891 -0.8872 -0.9398
 8639SOL     OW29321   4.529   6.112   0.692  0.5111  0.3290 -0.0029
 8639SOL    HW129322   4.493   6.091   0.779 -0.4691  0.1345 -0.4436
 8639SOL    HW229323   4.460   6.164   0.651  0.7266 -0.0852 -0.8910
 8640SOL     OW29324   7.034   6.124  10.567 -0.7734  0.3410 -0.0629
 8640SOL    HW129325   7.082   6.043  10.584 -0.0835  0.6178 -0.7094
 8640SOL    HW229326   6.945   6.104  10.596 -0.2150 -0.0723  1.4309
 8641SOL     OW29327   1.474   5.145   2.465 -0.6586 -0.0417 -0.1769
 8641SOL    HW129328   1.565   5.170   2.448 -1.2696  3.4778  1.2817
 8641SOL    HW229329   1.464   5.156   2.559 -1.8304 -3.3856  0.1615
 8642SOL     OW29330   7.053   8.333   3.528  0.1971  0.2460  0.0628
 8642SOL    HW129331   7.142   8.363   3.545  0.9979 -1.6434 -0.6991
 8642SOL    HW229332   7.059   8.281   3.448 -1.6959  0.5866 -0.3350
 8643SOL     OW29333   5.284   7.300   0.449 -0.1363  0.2322 -0.1131
 8643SOL    HW129334   5.227   7.249   0.391  0.4963 -0.5930 -0.0240
 8643SOL    HW229335   5.357   7.326   0.393  0.0339  0.1897  0.0882
 8644SOL     OW29336   3.938   4.909   1.626  0.0090 -0.3934 -0.4494
 8644SOL    HW129337   3.857   4.871   1.659 -0.0129  1.6405  1.9850
 8644SOL    HW229338   4.005   4.880   1.687  0.3111  1.7562  0.2879
 8645SOL     OW29339  10.941   3.620   3.969  0.2892 -0.0204  1.0654
 8645SOL    HW129340  10.935   3.602   3.875  1.3585 -2.3955  1.4130
 8645SOL    HW229341  10.851   3.621   3.999 -0.2589  3.3164 -0.3795
 8646SOL     OW29342   5.510   1.496   0.576 -0.4924 -0.3493  0.0387
 8646SOL    HW129343   5.580   1.493   0.641 -0.9538 -2.0063  0.4851
 8646SOL    HW229344   5.552   1.524   0.495 -0.3392  4.3172  1.5886
 8647SOL     OW29345   5.998   6.715   7.400  0.0928 -0.9607 -0.4317
 8647SOL    HW129346   6.077   6.695   7.451  0.8001 -1.5997 -1.7283
 8647SOL    HW229347   6.032   6.744   7.315 -1.0792 -2.9558 -1.6137
 8648SOL     OW29348   9.121   8.888   4.044  0.6397 -0.5147  0.5983
 8648SOL    HW129349   9.173   8.912   3.967  2.8012 -1.3173  1.7625
 8648SOL    HW229350   9.112   8.793   4.038 -0.8575 -0.3690  0.3346
 8649SOL     OW29351   5.064   4.742   2.519  0.6260  0.3334  0.0801
 8649SOL    HW129352   5.014   4.660   2.511 -1.7135  1.8032 -0.8199
 8649SOL    HW229353   5.155   4.715   2.508 -0.0992 -2.1508 -0.2322
 8650SOL     OW29354   0.823   0.380   6.132 -0.4487 -0.6641  0.0608
 8650SOL    HW129355   0.885   0.308   6.126  0.2721 -0.1107  0.7521
 8650SOL    HW229356   0.764   0.355   6.203 -0.9022 -1.0987 -0.4651
 8651SOL     OW29357   8.880   7.537   6.956 -0.1510  0.6506 -0.5051
 8651SOL    HW129358   8.811   7.547   7.021  1.4061 -1.1223  1.4686
 8651SOL    HW229359   8.837   7.496   6.881 -1.6493  1.3733 -0.0447
 8652SOL     OW29360   0.283   7.748   2.305 -0.0751  0.2975 -0.1492
 8652SOL    HW129361   0.355   7.720   2.248  0.9324  0.0282  1.2224
 8652SOL    HW229362   0.324   7.761   2.391 -1.4978  1.0189  0.4416
 8653SOL     OW29363  10.867   7.030   0.201 -0.3638 -0.1178 -0.0503
 8653SOL    HW129364  10.796   6.980   0.161 -0.5688  0.1824 -0.0599
 8653SOL    HW229365  10.855   7.119   0.168 -1.5182  0.5164  1.9668
 8654SOL     OW29366  10.401   6.600   8.967  0.4480  0.7044  0.0525
 8654SOL    HW129367  10.354   6.636   9.042 -0.0082  1.5314 -0.6155
 8654SOL    HW229368  10.377   6.657   8.894  1.4524  0.3483 -0.5754
 8655SOL     OW29369   4.022  10.516   4.952 -0.0683 -0.3723 -0.3130
 8655SOL    HW129370   4.028  10.533   5.046  0.7113  0.2596 -0.4784
 8655SOL    HW229371   4.039  10.600   4.910  2.6657 -1.2580 -1.1003
 8656SOL     OW29372   7.695   9.520   4.005 -0.0572 -0.4282 -0.0531
 8656SOL    HW129373   7.761   9.588   4.019 -1.3824  1.0895 -0.9566
 8656SOL    HW229374   7.718   9.481   3.922  0.1437 -0.3958 -0.0119
 8657SOL     OW29375   4.888   6.306   7.906  0.2381 -0.3207  0.5609
 8657SOL    HW129376   4.847   6.253   7.975  1.7201 -0.8407  1.0635
 8657SOL    HW229377   4.882   6.396   7.939  0.1908 -0.4787  0.9950
 8658SOL     OW29378   4.199   4.859   7.432  0.5040  0.1174  0.2834
 8658SOL    HW129379   4.238   4.901   7.509 -0.0319  0.9028  0.1257
 8658SOL    HW229380   4.249   4.895   7.358 -0.0980  0.6542  0.1312
 8659SOL     OW29381   5.186  10.276   9.593 -0.1917  0.4037 -0.5343
 8659SOL    HW129382   5.271  10.286   9.549 -0.3126  0.7551 -0.6859
 8659SOL    HW229383   5.176  10.356   9.645 -0.1378  0.0755 -0.0154
 8660SOL     OW29384   9.861   6.276   0.186  0.3233  0.1472 -0.0286
 8660SOL    HW129385   9.940   6.309   0.144  0.7401 -1.1658 -0.3017
 8660SOL    HW229386   9.878   6.286   0.280  1.7734 -2.1819  0.0054
 8661SOL     OW29387   1.457   6.358   9.123 -0.7583  0.1081 -0.2918
 8661SOL    HW129388   1.517   6.285   9.142  0.9866  0.9984 -2.1157
 8661SOL    HW229389   1.405   6.327   9.049 -0.2356  0.5528 -0.8590
 8662SOL     OW29390   9.416   1.883   3.273 -0.2365 -0.1831 -0.5436
 8662SOL    HW129391   9.496   1.881   3.221 -0.1834 -0.0940 -0.4671
 8662SOL    HW229392   9.423   1.963   3.325 -0.0796 -0.5002 -0.0737
 8663SOL     OW29393   1.927   3.190   5.454 -0.4490 -0.2988  0.2761
 8663SOL    HW129394   1.951   3.127   5.522 -0.9408 -1.6056 -0.7649
 8663SOL    HW229395   1.832   3.182   5.446 -0.6395  1.2436  0.7857
 8664SOL     OW29396   6.441   7.791   7.593 -0.5722  0.2687 -0.1861
 8664SOL    HW129397   6.368   7.831   7.545 -1.1790  0.6660  1.0570
 8664SOL    HW229398   6.451   7.845   7.672  0.2285 -0.5507  0.2859
 8665SOL     OW29399   0.206   7.402   8.301 -0.1397  0.0241  0.1047
 8665SOL    HW129400   0.190   7.335   8.234  3.3815  0.0292 -0.8264
 8665SOL    HW229401   0.256   7.356   8.369 -0.5654  0.9242  1.0353
 8666SOL     OW29402   8.813   7.099   4.283  0.7566 -0.1470 -0.6965
 8666SOL    HW129403   8.766   7.145   4.213 -1.3116 -0.2806  0.5909
 8666SOL    HW229404   8.767   7.017   4.294  1.9829 -0.7838 -0.1756
 8667SOL     OW29405   3.345   4.053   4.932 -0.2682 -0.3123  0.3332
 8667SOL    HW129406   3.436   4.073   4.910 -0.2984  0.0299  0.5105
 8667SOL    HW229407   3.307   4.021   4.850  0.1463 -0.9457  0.3837
 8668SOL     OW29408   0.641   9.081   8.610  0.6570 -0.1287 -0.4834
 8668SOL    HW129409   0.561   9.086   8.661  1.8240  0.7810  1.3338
 8668SOL    HW229410   0.700   9.144   8.652  2.1183 -0.3570 -2.1272
 8669SOL     OW29411   2.659   0.829   3.451 -0.6168  0.2529 -0.1341
 8669SOL    HW129412   2.724   0.900   3.456  0.3736 -0.5938 -0.6147
 8669SOL    HW229413   2.704   0.754   3.489 -1.4735 -0.2433 -0.1149
 8670SOL     OW29414  10.269   3.418   2.702  0.1202  0.0418  0.2458
 8670SOL    HW129415  10.199   3.353   2.697  0.6898 -0.5547  0.1459
 8670SOL    HW229416  10.225   3.496   2.738 -0.3810 -0.6304  1.1195
 8671SOL     OW29417  10.939   9.895   6.148  0.0199 -0.2019  0.2109
 8671SOL    HW129418  11.025   9.905   6.189 -0.0501 -0.4019  0.4047
 8671SOL    HW229419  10.915   9.804   6.165  0.5085 -0.6278 -1.2549
 8672SOL     OW29420   5.080  10.503   5.137 -0.0534 -0.3918 -0.3578
 8672SOL    HW129421   5.124  10.462   5.063 -0.0497 -1.4760  0.2351
 8672SOL    HW229422   5.050  10.587   5.104  2.8536  0.5840 -0.6654
 8673SOL     OW29423   1.942   3.558   1.954 -0.0209 -0.0072  0.5051
 8673SOL    HW129424   1.849   3.567   1.971 -0.0167  0.0137  0.5154
 8673SOL    HW229425   1.953   3.586   1.863  0.4024  2.7167  1.3541
 8674SOL     OW29426   4.047   6.264   8.892 -0.0683  0.2200 -0.4343
 8674SOL    HW129427   3.972   6.298   8.941 -1.2326 -0.4030 -1.7585
 8674SOL    HW229428   4.065   6.179   8.932 -1.0653 -0.3213 -1.1079
 8675SOL     OW29429   4.107   0.722   1.800 -0.0058 -0.5606  0.4430
 8675SOL    HW129430   4.192   0.692   1.832 -1.4992 -3.7903  1.5386
 8675SOL    HW229431   4.057   0.642   1.786 -1.7061  1.0574 -3.6717
 8676SOL     OW29432   8.255   6.383   2.673 -0.2061  0.5281 -0.1503
 8676SOL    HW129433   8.328   6.373   2.735  0.3561  0.4259 -0.8285
 8676SOL    HW229434   8.294   6.425   2.597 -0.4294 -1.3782 -1.3304
 8677SOL     OW29435   2.700   0.485   4.390  0.2832  0.3396 -0.1710
 8677SOL    HW129436   2.679   0.574   4.417 -1.9151 -0.4223  0.7208
 8677SOL    HW229437   2.721   0.493   4.297  2.7501  2.1765  0.5094
 8678SOL     OW29438   3.063   7.102  10.488 -0.5476 -0.1606  0.2212
 8678SOL    HW129439   3.038   7.015  10.457 -0.8090  0.8096 -2.4309
 8678SOL    HW229440   3.158   7.105  10.476 -0.7506  0.5162 -1.3858
 8679SOL     OW29441   9.405   4.906   2.780 -0.5381  0.4745 -0.3442
 8679SOL    HW129442   9.404   4.811   2.785 -1.0315  0.5617  1.5844
 8679SOL    HW229443   9.472   4.933   2.843 -0.1738  1.3986 -1.1145
 8680SOL     OW29444   6.793   4.547   3.638 -0.4257  0.1773 -0.0973
 8680SOL    HW129445   6.868   4.579   3.588 -0.0631  2.0768  1.5806
 8680SOL    HW229446   6.832   4.493   3.707 -0.4984  1.7009  1.1771
 8681SOL     OW29447   5.746   8.400   3.450  0.0100 -0.3541  0.2035
 8681SOL    HW129448   5.777   8.373   3.364 -0.1304 -0.9313  0.3284
 8681SOL    HW229449   5.724   8.318   3.494  1.7687 -0.1961  1.4424
 8682SOL     OW29450   3.603   9.180   4.917  0.5200  0.1494 -0.1334
 8682SOL    HW129451   3.636   9.090   4.912  0.5758  0.2147 -0.9382
 8682SOL    HW229452   3.530   9.175   4.978 -0.8697 -0.8673 -1.8271
 8683SOL     OW29453   2.163   6.500   4.728 -0.0311  0.6843  0.4693
 8683SOL    HW129454   2.122   6.586   4.737  0.1267  0.7721  0.3610
 8683SOL    HW229455   2.114   6.443   4.788 -1.4154  0.3803 -0.9263
 8684SOL     OW29456   2.435   3.831   0.280 -0.1544  0.0451 -0.2157
 8684SOL    HW129457   2.383   3.899   0.239 -2.0729 -0.9402  0.5450
 8684SOL    HW229458   2.437   3.855   0.373 -0.7461 -0.8578  0.0393
 8685SOL     OW29459   6.995   6.798   9.751  0.2237  0.5121 -0.0331
 8685SOL    HW129460   6.982   6.879   9.800 -1.5879 -0.6285  1.4875
 8685SOL    HW229461   7.062   6.751   9.799  0.6891  0.7539 -0.4456
 8686SOL     OW29462  10.408   6.017   6.357 -0.1628  0.5036  0.9665
 8686SOL    HW129463  10.371   6.074   6.424 -1.5823 -1.6899  2.1286
 8686SOL    HW229464  10.461   5.954   6.407  1.1048  0.5929 -0.2437
 8687SOL     OW29465   6.556  10.131  10.422 -0.0030  0.4257  0.0146
 8687SOL    HW129466   6.550  10.220  10.458  1.7770  1.0514 -1.1582
 8687SOL    HW229467   6.514  10.138  10.336 -0.3043  0.0074  0.1268
 8688SOL     OW29468  10.917   0.996   8.712 -0.3802 -0.1331 -0.1226
 8688SOL    HW129469  10.917   1.067   8.647 -2.0149 -0.7839 -0.8579
 8688SOL    HW229470  10.978   0.932   8.676 -0.8636 -0.2441 -0.7584
 8689SOL     OW29471   1.834   0.425   6.940  0.2357 -0.2521  0.0597
 8689SOL    HW129472   1.868   0.459   6.858  1.0140 -0.1025  0.4401
 8689SOL    HW229473   1.779   0.351   6.914 -0.0872  0.2283 -0.6390
 8690SOL     OW29474   3.283   8.105   5.011  0.1920  0.0149  0.4827
 8690SOL    HW129475   3.229   8.179   5.038  0.7288  0.1663  1.1565
 8690SOL    HW229476   3.226   8.029   5.018  0.2460  0.0861  1.8181
 8691SOL     OW29477   4.305   5.901   6.383 -0.2554 -0.5496 -0.2640
 8691SOL    HW129478   4.273   5.912   6.293 -0.6299  0.8178  0.0280
 8691SOL    HW229479   4.384   5.955   6.387  0.3850 -1.4970 -0.0926
 8692SOL     OW29480   3.526   5.084   4.677 -0.6523 -0.5534 -0.1548
 8692SOL    HW129481   3.451   5.064   4.734 -1.1536  1.3283 -0.1170
 8692SOL    HW229482   3.503   5.044   4.593 -0.7660 -1.7325  0.4230
 8693SOL     OW29483   3.348  10.910   8.753 -0.7193  0.5916  0.0895
 8693SOL    HW129484   3.315  10.835   8.703  0.0270  0.5334 -0.3353
 8693SOL    HW229485   3.443  10.907   8.739 -0.5316  0.7420  1.2878
 8694SOL     OW29486   4.548  10.386   6.370 -0.1670  0.4366 -0.4277
 8694SOL    HW129487   4.519  10.372   6.461  1.2328 -0.8020 -0.1566
 8694SOL    HW229488   4.520  10.307   6.324 -1.1798  1.2107 -1.1761
 8695SOL     OW29489   6.148   3.962   7.244 -0.2999  0.6162 -0.1281
 8695SOL    HW129490   6.223   4.012   7.275  0.8843 -1.0649 -0.2010
 8695SOL    HW229491   6.169   3.940   7.153 -1.1532  0.6396 -0.3401
 8696SOL     OW29492   2.033   3.106   2.781 -0.5141 -0.1776 -0.0498
 8696SOL    HW129493   2.072   3.048   2.716  0.8734 -0.7771  1.3077
 8696SOL    HW229494   1.969   3.051   2.826 -0.1267 -0.2924  0.3610
 8697SOL     OW29495   9.826   1.967   9.033 -0.6026  0.0846  0.1484
 8697SOL    HW129496   9.778   1.884   9.035 -0.7308  0.1640  1.7593
 8697SOL    HW229497   9.901   1.952   9.090 -0.9101  1.2260  0.8724
 8698SOL     OW29498   2.334  10.843   3.757 -0.2265 -0.1238  0.4616
 8698SOL    HW129499   2.350  10.773   3.821 -0.0690  1.1721  1.8574
 8698SOL    HW229500   2.255  10.886   3.788 -0.2371  0.4144 -0.3060
 8699SOL     OW29501   5.080   3.423   8.083 -0.1858  0.4212 -0.4700
 8699SOL    HW129502   5.102   3.459   7.997 -0.9956  3.9385  0.7122
 8699SOL    HW229503   4.986   3.403   8.078  0.2601 -1.6042 -1.1211
 8700SOL     OW29504   1.304   0.472   1.566  0.5514  0.0280 -0.0204
 8700SOL    HW129505   1.252   0.463   1.646  0.8608  0.1076  0.1887
 8700SOL    HW229506   1.261   0.414   1.503  1.4336 -1.4897  0.7612
 8701SOL     OW29507   7.954  10.954   3.318  0.3504  0.4294 -0.0728
 8701SOL    HW129508   7.980  10.897   3.246 -0.9739 -1.0616  0.6070
 8701SOL    HW229509   7.861  10.935   3.331  0.0069  2.3596  0.5184
 8702SOL     OW29510   5.255   5.126   8.576  0.4732  0.7237  0.1055
 8702SOL    HW129511   5.202   5.205   8.564 -1.1104 -0.2572  0.4706
 8702SOL    HW229512   5.212   5.060   8.522 -0.0913 -0.7283  2.2715
 8703SOL     OW29513   1.136   1.789   0.833  0.0351 -0.0405  0.1882
 8703SOL    HW129514   1.157   1.703   0.796 -0.4654  0.0333 -0.2813
 8703SOL    HW229515   1.113   1.771   0.924 -1.1012 -0.5531 -0.1860
 8704SOL     OW29516   5.351   7.564   3.912 -0.4628 -0.5020 -0.2139
 8704SOL    HW129517   5.371   7.642   3.860  0.3536 -0.6186 -0.0788
 8704SOL    HW229518   5.388   7.492   3.861  0.4296 -0.6049  0.5798
 8705SOL     OW29519   8.292   3.929   2.191 -0.3404  0.5944 -0.1173
 8705SOL    HW129520   8.197   3.935   2.191 -0.2155  2.7792 -0.8597
 8705SOL    HW229521   8.317   3.942   2.282 -0.8798 -2.9134  0.6008
 8706SOL     OW29522   5.121   8.621   2.156  0.2986  0.1869 -0.1333
 8706SOL    HW129523   5.200   8.663   2.191  0.5813  1.1040 -1.7969
 8706SOL    HW229524   5.145   8.529   2.145  1.1319  0.4623 -0.6208
 8707SOL     OW29525   9.494   8.045   4.020 -0.1532  0.3328  0.1372
 8707SOL    HW129526   9.585   8.062   3.997  0.4034  0.2052  2.0930
 8707SOL    HW229527   9.448   8.041   3.937  1.2483  2.5278 -0.7682
 8708SOL     OW29528   7.802   6.986   8.068  0.5470 -0.3007  0.0315
 8708SOL    HW129529   7.722   6.951   8.030 -0.3447 -0.0887  1.6702
 8708SOL    HW229530   7.778   7.073   8.099  0.9143 -0.9378  2.1923
 8709SOL     OW29531   7.443   6.905   5.149 -0.1217  0.0317 -0.3790
 8709SOL    HW129532   7.434   6.967   5.076 -1.7426 -0.1733 -0.3555
 8709SOL    HW229533   7.522   6.855   5.128  0.2580  0.9832 -1.2400
 8710SOL     OW29534  10.232   1.445   6.982  0.0871 -0.1622 -0.6655
 8710SOL    HW129535  10.159   1.481   6.932  0.4495 -0.9160 -1.7457
 8710SOL    HW229536  10.309   1.487   6.945  0.2967 -0.1766 -0.2466
 8711SOL     OW29537   5.596   4.657   3.674 -0.5081 -0.3579  0.6091
 8711SOL    HW129538   5.595   4.655   3.770 -0.9880  1.8367  0.6867
 8711SOL    HW229539   5.506   4.634   3.649  0.2471 -3.4338  0.5662
 8712SOL     OW29540   5.358   1.493   4.127 -0.6159  0.0470 -0.4066
 8712SOL    HW129541   5.374   1.440   4.049 -0.3731 -0.4889  0.0011
 8712SOL    HW229542   5.391   1.440   4.199 -0.6203  0.6397  0.0389
 8713SOL     OW29543   1.068   8.632   9.004 -0.4545 -0.1848 -0.2478
 8713SOL    HW129544   1.005   8.690   9.047  0.8419  0.6574  0.5639
 8713SOL    HW229545   1.127   8.691   8.957  1.8645 -0.7167  1.9187
 8714SOL     OW29546   6.803   4.775   7.449  0.5408  0.5142 -0.0177
 8714SOL    HW129547   6.762   4.752   7.532  1.3958 -1.4911 -0.1195
 8714SOL    HW229548   6.749   4.732   7.383  0.4592  1.2382 -0.4186
 8715SOL     OW29549   1.356   1.983   4.239  0.0155  0.3072  0.5093
 8715SOL    HW129550   1.386   1.893   4.252  0.9292  0.6039  0.4249
 8715SOL    HW229551   1.401   2.013   4.160 -0.4059  0.7943  0.4461
 8716SOL     OW29552   4.802   9.275   0.990  0.3443 -0.8271  0.2107
 8716SOL    HW129553   4.851   9.193   0.999  0.8843 -0.8187 -2.1565
 8716SOL    HW229554   4.722   9.250   0.943 -0.6181 -0.3864  1.6040
 8717SOL     OW29555   4.864   1.489  10.692  0.0072  0.0419  0.1032
 8717SOL    HW129556   4.782   1.516  10.651  0.2465  0.2520 -0.2422
 8717SOL    HW229557   4.871   1.542  10.771  0.4374  0.9382 -0.5341
 8718SOL     OW29558   9.887   5.782   4.149  0.0361  0.0214 -0.5649
 8718SOL    HW129559   9.826   5.735   4.206 -3.0578  0.5811 -3.2729
 8718SOL    HW229560   9.893   5.870   4.187  1.2627 -0.7927  1.1910
 8719SOL     OW29561   6.902   8.992   0.167 -0.1206  0.2930  0.1216
 8719SOL    HW129562   6.960   8.920   0.141  0.1682  1.1136 -1.6251
 8719SOL    HW229563   6.951   9.039   0.234  1.0295  0.6752 -0.9669
 8720SOL     OW29564   9.772   7.506   0.632  0.3591 -0.5565 -0.1237
 8720SOL    HW129565   9.684   7.509   0.594 -0.6820 -2.9191  1.8662
 8720SOL    HW229566   9.829   7.480   0.560 -1.1370 -2.3487 -0.7032
 8721SOL     OW29567   1.886   8.417   5.532 -0.9033 -0.5510  0.2883
 8721SOL    HW129568   1.837   8.498   5.545  1.2909  0.7206  0.9401
 8721SOL    HW229569   1.910   8.418   5.439  1.0750  0.7435  0.7726
 8722SOL     OW29570   1.438   5.631   6.748  0.2439  0.5870  0.5959
 8722SOL    HW129571   1.496   5.599   6.817  0.6257  0.5209  0.2437
 8722SOL    HW229572   1.379   5.557   6.730  2.0436 -0.4604 -1.2281
 8723SOL     OW29573   4.104   1.958   8.447  0.3488  0.2445 -0.1762
 8723SOL    HW129574   4.187   1.915   8.426  1.1289  0.3529  2.4274
 8723SOL    HW229575   4.118   2.050   8.426  0.0795 -0.0957 -1.9099
 8724SOL     OW29576  10.870   8.591   5.363  0.1293 -0.1514  0.2132
 8724SOL    HW129577  10.891   8.560   5.275 -0.2851 -0.1901  0.1272
 8724SOL    HW229578  10.803   8.530   5.394 -0.9856  0.8920 -0.1107
 8725SOL     OW29579  10.124   1.994   2.094 -0.5357 -0.0150  0.0894
 8725SOL    HW129580  10.211   2.030   2.078  0.2685 -1.7752  0.3557
 8725SOL    HW229581  10.088   1.979   2.007  0.8831 -2.6374 -0.0948
 8726SOL     OW29582   4.712   7.013   8.035 -0.0183 -0.0893 -0.3129
 8726SOL    HW129583   4.662   6.955   7.979  1.3162 -1.4401 -0.1252
 8726SOL    HW229584   4.795   6.967   8.051  0.9774  1.7518  0.0071
 8727SOL     OW29585   6.069   9.968   5.788 -0.0978 -0.4363 -0.0561
 8727SOL    HW129586   6.003   9.991   5.723  0.0182  0.1677  0.0449
 8727SOL    HW229587   6.018   9.928   5.859 -0.2399 -0.9462 -0.4374
 8728SOL     OW29588   3.508   5.074   8.425 -0.3556  0.3965 -0.6384
 8728SOL    HW129589   3.451   5.011   8.379  1.1554 -1.1532 -0.4318
 8728SOL    HW229590   3.449   5.145   8.450 -2.1972 -1.1129 -0.5347
 8729SOL     OW29591   8.206   0.338   6.793 -0.4168  0.4026 -0.4806
 8729SOL    HW129592   8.185   0.313   6.703  0.2112  1.7248 -1.0123
 8729SOL    HW229593   8.235   0.429   6.786  1.4695 -0.0741  0.8041
 8730SOL     OW29594   9.881   6.889   9.801 -0.0031  0.2570  0.3433
 8730SOL    HW129595   9.886   6.969   9.749  0.0802  0.8297  1.2325
 8730SOL    HW229596   9.972   6.869   9.823  0.0066 -0.2685 -0.1450
 8731SOL     OW29597   2.544   9.278   1.375 -0.1520  0.0131  0.3298
 8731SOL    HW129598   2.479   9.290   1.445 -0.6693  1.0696 -0.3234
 8731SOL    HW229599   2.501   9.220   1.312  0.8242 -2.0681  1.5163
 8732SOL     OW29600  10.325   0.176   5.749 -0.0659  0.0227  0.0664
 8732SOL    HW129601  10.309   0.268   5.771 -1.1191 -0.1087 -0.1129
 8732SOL    HW229602  10.312   0.172   5.655  1.3805 -0.0367 -0.1414
 8733SOL     OW29603   1.329   5.408   3.801  0.3708 -1.1381  0.4426
 8733SOL    HW129604   1.335   5.369   3.888  0.6000 -0.6188  0.6640
 8733SOL    HW229605   1.393   5.360   3.748  1.6756 -0.1293  1.0692
 8734SOL     OW29606   0.384   1.390   0.737  0.1621  0.0774 -0.6504
 8734SOL    HW129607   0.392   1.318   0.799  0.1547  0.7343  0.1180
 8734SOL    HW229608   0.344   1.350   0.659  0.4974 -0.8218 -0.3761
 8735SOL     OW29609   8.635   6.746   5.339  0.1332  0.4878 -0.0465
 8735SOL    HW129610   8.589   6.665   5.359  0.8913 -0.4099 -1.8337
 8735SOL    HW229611   8.586   6.814   5.385 -0.9164 -0.8980  0.8919
 8736SOL     OW29612   9.204   9.777  10.170  0.9282 -0.7810 -0.6418
 8736SOL    HW129613   9.203   9.810  10.081  2.5475 -0.1272 -0.4301
 8736SOL    HW229614   9.158   9.693  10.165  0.4980 -0.4665 -1.9744
 8737SOL     OW29615   8.679   1.541   7.379  0.1062 -0.0571 -0.3906
 8737SOL    HW129616   8.752   1.596   7.405  0.6216 -0.9792  0.1504
 8737SOL    HW229617   8.609   1.603   7.356  0.4326  0.8191  0.8961
 8738SOL     OW29618  10.596   3.532   6.097 -0.6066 -0.6551 -0.0067
 8738SOL    HW129619  10.628   3.568   6.014 -0.5733  0.8235  0.6274
 8738SOL    HW229620  10.514   3.487   6.073 -0.0104 -1.2198 -1.0173
 8739SOL     OW29621   6.950   1.389   1.622 -0.0753 -0.4835 -0.3770
 8739SOL    HW129622   6.939   1.421   1.712  1.2813 -2.1496  0.4125
 8739SOL    HW229623   7.040   1.357   1.619  0.0819  0.0669 -2.5217
 8740SOL     OW29624   8.105   9.130   2.818  0.2632  0.3569 -0.5124
 8740SOL    HW129625   8.047   9.182   2.762 -0.9220 -0.4096 -0.0043
 8740SOL    HW229626   8.074   9.148   2.907  2.0982  1.5188 -0.0902
 8741SOL     OW29627   6.068   7.653   0.578 -0.5222 -0.6499  0.0623
 8741SOL    HW129628   6.073   7.662   0.483 -2.2199 -0.4750 -0.0293
 8741SOL    HW229629   6.009   7.579   0.593 -1.9419  0.6146  0.9610
 8742SOL     OW29630   7.907   9.613   5.648  0.6342  0.3805  0.0564
 8742SOL    HW129631   7.971   9.546   5.623  0.9939  0.4352  0.8033
 8742SOL    HW229632   7.959   9.693   5.656  0.3941  0.5140  0.2581
 8743SOL     OW29633   3.753   3.140   3.326 -0.3943  0.4912 -0.1072
 8743SOL    HW129634   3.707   3.197   3.264 -0.4335  0.0473 -0.4884
 8743SOL    HW229635   3.780   3.065   3.274  0.5056  0.6141  0.1848
 8744SOL     OW29636   7.622   4.292   6.176  0.4496  0.1491 -0.4476
 8744SOL    HW129637   7.700   4.298   6.231  0.3388 -2.8151  0.1122
 8744SOL    HW229638   7.552   4.267   6.236 -0.3463  0.0265 -1.4165
 8745SOL     OW29639   1.570   7.129   4.054 -0.0209  0.4737  0.6953
 8745SOL    HW129640   1.596   7.162   3.968  2.6882 -0.0937  1.2750
 8745SOL    HW229641   1.591   7.200   4.114 -1.3853  0.6466  0.9886
 8746SOL     OW29642   3.973   2.137   4.044 -0.2468  1.2584 -0.0192
 8746SOL    HW129643   3.890   2.161   4.002 -1.3990  0.9261  2.0245
 8746SOL    HW229644   3.975   2.189   4.124  1.0783  0.5571  0.4137
 8747SOL     OW29645   4.524   2.131   4.990 -0.3305 -0.4286 -0.0294
 8747SOL    HW129646   4.495   2.102   5.076 -0.8577 -0.1255 -0.0996
 8747SOL    HW229647   4.559   2.052   4.948 -0.7204 -0.7220  0.2007
 8748SOL     OW29648   1.247   3.334  10.201 -0.2250 -0.0744  0.0050
 8748SOL    HW129649   1.158   3.306  10.182 -0.1773 -0.9737  1.0999
 8748SOL    HW229650   1.259   3.317  10.294  1.0204  0.2356 -0.0868
 8749SOL     OW29651   6.285   2.784   1.489  0.3491  0.5100  0.2098
 8749SOL    HW129652   6.367   2.743   1.517 -0.1493 -1.5874 -1.2705
 8749SOL    HW229653   6.221   2.757   1.555  0.4232  0.4504  0.2570
 8750SOL     OW29654   6.940   1.682   3.119  0.2328  0.0653  0.6502
 8750SOL    HW129655   6.938   1.662   3.026  1.3110  0.6006  0.5041
 8750SOL    HW229656   7.016   1.635   3.153 -0.8604 -1.1163  1.5041
 8751SOL     OW29657   3.640   0.416   5.478  0.3057 -0.2178  0.1597
 8751SOL    HW129658   3.648   0.431   5.384 -1.1538 -0.2982  0.0087
 8751SOL    HW229659   3.691   0.487   5.518  0.2286  0.3157 -0.6815
 8752SOL     OW29660   6.093   6.830   6.897  0.1544 -0.4163 -0.1341
 8752SOL    HW129661   6.140   6.813   6.816 -1.6656 -2.7838 -0.7469
 8752SOL    HW229662   6.055   6.917   6.884  1.2240 -0.0747 -1.1286
 8753SOL     OW29663   3.963   7.495   6.010  0.2355 -0.2680 -0.6546
 8753SOL    HW129664   3.946   7.578   5.966 -1.5475  0.0306  0.5684
 8753SOL    HW229665   3.948   7.429   5.943  1.3317  0.3523 -1.5372
 8754SOL     OW29666   5.478   2.936   1.437  0.2588 -0.7141  0.0200
 8754SOL    HW129667   5.511   2.848   1.456 -0.2858 -0.9944 -0.2865
 8754SOL    HW229668   5.405   2.948   1.498 -0.3796 -0.9258 -0.6941
 8755SOL     OW29669   0.232   2.225   6.989 -0.1481  0.4885 -0.1443
 8755SOL    HW129670   0.216   2.184   7.074  1.9765 -1.7004 -0.7355
 8755SOL    HW229671   0.159   2.197   6.934 -0.5729  0.4218  0.4445
 8756SOL     OW29672   9.932   8.718   1.390 -0.7051 -0.0553  0.3605
 8756SOL    HW129673   9.902   8.643   1.340 -0.2472 -0.8085  1.1886
 8756SOL    HW229674  10.017   8.741   1.351  1.3412 -2.8376  2.9442
 8757SOL     OW29675   3.649   3.994   0.761 -0.0524 -0.3447 -0.3830
 8757SOL    HW129676   3.707   3.920   0.778  0.2963  0.2449  1.0625
 8757SOL    HW229677   3.568   3.953   0.729  0.7956 -1.2206 -1.4901
 8758SOL     OW29678   3.448  10.418  10.696 -0.0059 -0.3231  0.0169
 8758SOL    HW129679   3.462  10.338  10.747  1.1967  0.0289  0.2608
 8758SOL    HW229680   3.440  10.387  10.605  0.6605 -0.7166  0.0841
 8759SOL     OW29681   4.927  10.143   7.026  0.0940  0.5070 -0.3846
 8759SOL    HW129682   4.951  10.197   6.951  2.0091  1.3905  0.8530
 8759SOL    HW229683   4.847  10.183   7.060  0.7592  1.7652 -0.2898
 8760SOL     OW29684   0.652   8.686   1.786 -0.2586  0.1857 -0.3378
 8760SOL    HW129685   0.682   8.601   1.754 -0.4330 -0.0874  0.2342
 8760SOL    HW229686   0.564   8.695   1.748 -0.3291  0.0136 -0.2146
 8761SOL     OW29687   0.891   0.978   4.987 -0.1890  0.4679 -0.2119
 8761SOL    HW129688   0.936   0.897   4.962  0.6034  0.8849 -0.1281
 8761SOL    HW229689   0.826   0.991   4.918 -1.1806 -0.9240  0.4407
 8762SOL     OW29690   1.804   2.306   1.328  0.7421  0.2761 -0.0526
 8762SOL    HW129691   1.743   2.236   1.351  0.4528  0.7079  0.4841
 8762SOL    HW229692   1.890   2.264   1.329  0.6393  0.0947  0.9495
 8763SOL     OW29693   1.833   8.100   2.998  0.3882 -0.1806 -0.5565
 8763SOL    HW129694   1.819   8.077   3.089 -2.3829  3.2074 -0.0318
 8763SOL    HW229695   1.769   8.048   2.950 -1.7912  1.8486  0.0354
 8764SOL     OW29696   8.116  10.084   8.900 -0.6243 -0.0328  0.1730
 8764SOL    HW129697   8.109  10.112   8.808 -1.1598 -1.6435 -0.2861
 8764SOL    HW229698   8.035  10.113   8.940  0.0665  1.6312  0.4192
 8765SOL     OW29699   0.353   4.044   1.350  0.2836  0.2063  0.2276
 8765SOL    HW129700   0.410   3.972   1.378  1.2487  0.9204  0.1156
 8765SOL    HW229701   0.293   4.004   1.287 -0.0253 -0.7794  1.1385
 8766SOL     OW29702   3.956   0.911   4.741  0.1126  0.9904 -0.0321
 8766SOL    HW129703   4.011   0.987   4.725  0.9925  0.5209  0.7123
 8766SOL    HW229704   3.898   0.906   4.665  1.0601  1.5203 -0.7963
 8767SOL     OW29705  10.626   1.849   5.005  0.4143  0.1457  0.3441
 8767SOL    HW129706  10.642   1.763   4.966 -1.9633  0.1564 -0.7369
 8767SOL    HW229707  10.697   1.904   4.974  0.5948 -0.8030 -0.9390
 8768SOL     OW29708   0.716   6.811   9.532  0.1953  0.8364  0.2749
 8768SOL    HW129709   0.718   6.762   9.450 -0.1127  1.3384 -0.0372
 8768SOL    HW229710   0.768   6.890   9.515  2.0388 -0.1369  1.2767
 8769SOL     OW29711   2.974   9.005   9.477 -0.8662 -0.2616  0.3675
 8769SOL    HW129712   3.040   8.952   9.522  1.0562  1.6231 -0.1471
 8769SOL    HW229713   2.930   9.053   9.547 -0.2188  0.0922  0.5328
 8770SOL     OW29714   9.688   9.839   5.195 -0.0642  0.8294  0.0055
 8770SOL    HW129715   9.702   9.838   5.290 -0.6515 -0.2219  0.0800
 8770SOL    HW229716   9.759   9.894   5.162  0.5292  0.6798  0.9909
 8771SOL     OW29717   6.124   6.203   5.584 -0.3889 -0.3011 -0.1200
 8771SOL    HW129718   6.077   6.254   5.518  1.0814  0.1191 -0.8755
 8771SOL    HW229719   6.187   6.264   5.621 -2.0216 -0.1881  2.5899
 8772SOL     OW29720   7.494   7.557   7.043 -0.6224  0.2445  0.1904
 8772SOL    HW129721   7.457   7.620   7.104 -0.1614  0.0871  0.6422
 8772SOL    HW229722   7.421   7.501   7.017 -0.7715  0.1559  0.8001
 8773SOL     OW29723   7.214   9.130   9.703  0.0834  0.4763  0.0404
 8773SOL    HW129724   7.285   9.141   9.640 -0.3018  1.1983 -0.2723
 8773SOL    HW229725   7.147   9.193   9.675 -0.7331 -0.2808  0.2566
 8774SOL     OW29726   2.481  10.963   5.877 -0.5789 -0.0145  0.0450
 8774SOL    HW129727   2.531  10.911   5.813 -1.9025 -1.0326 -0.1707
 8774SOL    HW229728   2.527  10.948   5.960 -0.1103 -0.3971 -0.2736
 8775SOL     OW29729   4.177   4.719   3.254 -0.4720 -0.1433 -0.1977
 8775SOL    HW129730   4.258   4.670   3.267 -1.1811 -1.2025  0.3207
 8775SOL    HW229731   4.199   4.809   3.278 -0.1492 -0.9205  2.6453
 8776SOL     OW29732   1.843   7.661   6.233 -0.3347  0.3502  0.0992
 8776SOL    HW129733   1.756   7.635   6.201 -0.8818  1.6404  0.4583
 8776SOL    HW229734   1.903   7.633   6.164 -1.3544  1.9748 -1.5262
 8777SOL     OW29735   2.713   1.893   1.626  0.3508 -0.0804 -0.8505
 8777SOL    HW129736   2.763   1.843   1.691 -0.6879  1.9028  1.5431
 8777SOL    HW229737   2.759   1.976   1.619 -1.6401  1.1522  0.1721
 8778SOL     OW29738   2.354   8.308   2.305 -0.1646 -0.0892 -0.0969
 8778SOL    HW129739   2.341   8.399   2.334  0.4304  0.1357 -0.5420
 8778SOL    HW229740   2.387   8.316   2.216 -1.6075 -0.7779 -0.7026
 8779SOL     OW29741   7.636   8.801   7.317 -0.1182 -0.0112  0.0260
 8779SOL    HW129742   7.644   8.888   7.355 -1.3396 -0.6826  1.9298
 8779SOL    HW229743   7.575   8.812   7.245  0.8979  0.9790 -0.6867
 8780SOL     OW29744   5.949   2.452  10.022 -0.1420 -0.0207  0.2840
 8780SOL    HW129745   5.981   2.364  10.046  0.4423  0.1032 -0.0228
 8780SOL    HW229746   6.023   2.510  10.041  0.1336  0.1577 -1.2382
 8781SOL     OW29747   7.206   6.332   1.342  0.3468 -0.1837 -0.0015
 8781SOL    HW129748   7.261   6.280   1.284 -2.5456 -0.0870 -2.9687
 8781SOL    HW229749   7.217   6.422   1.312 -0.8520 -0.0800 -0.1600
 8782SOL     OW29750   9.550   3.677   9.739 -0.2298  0.1277 -0.5664
 8782SOL    HW129751   9.536   3.609   9.804 -1.2394  0.9043  0.0426
 8782SOL    HW229752   9.504   3.753   9.774 -0.8525  0.5272 -2.2282
 8783SOL     OW29753   8.727  10.145   5.379 -0.1981 -0.2495 -0.2220
 8783SOL    HW129754   8.669  10.079   5.417 -0.0582 -0.1729  0.1310
 8783SOL    HW229755   8.805  10.143   5.436 -1.8002  3.0222  2.2208
 8784SOL     OW29756   9.282   4.937   9.015  0.6653  0.4376  0.0859
 8784SOL    HW129757   9.200   4.921   8.967  0.0993 -0.4415  1.3402
 8784SOL    HW229758   9.330   4.855   9.009  0.7727  0.4541  0.6807
 8785SOL     OW29759   6.669   7.089   7.754  0.2417  0.5784 -0.4161
 8785SOL    HW129760   6.655   7.118   7.844 -0.4480 -1.1254  0.0396
 8785SOL    HW229761   6.597   7.029   7.736  0.2318  1.0958 -2.2023
 8786SOL     OW29762   1.717   8.993   0.270 -0.1136  0.0495 -0.3594
 8786SOL    HW129763   1.651   9.035   0.324  1.3411  2.8207 -0.6156
 8786SOL    HW229764   1.775   9.064   0.243  1.3629 -1.8506 -2.4525
 8787SOL     OW29765   2.735   8.438   6.388 -0.1097  0.1339  0.5428
 8787SOL    HW129766   2.789   8.436   6.467 -0.4238 -0.7886  0.7399
 8787SOL    HW229767   2.797   8.425   6.316 -0.0872 -1.1649  0.7834
 8788SOL     OW29768   9.941   9.458   8.481 -0.1537 -0.7089 -0.2787
 8788SOL    HW129769   9.899   9.415   8.406  1.3878  1.1639 -2.3087
 8788SOL    HW229770   9.969   9.387   8.538 -2.8539 -2.1086 -0.6341
 8789SOL     OW29771   8.297   6.874   0.191 -0.3447  1.0683  0.2618
 8789SOL    HW129772   8.322   6.790   0.153  1.8044  0.7427  2.2748
 8789SOL    HW229773   8.224   6.853   0.249 -2.0073  1.1735 -1.7418
 8790SOL     OW29774   2.448   0.194   5.524 -0.5026 -0.0707 -0.5567
 8790SOL    HW129775   2.538   0.160   5.524  0.0841  1.4446 -1.8890
 8790SOL    HW229776   2.405   0.148   5.452 -1.2397 -1.8458  0.9616
 8791SOL     OW29777   2.499   8.193   2.512  0.7057 -0.0443 -0.6980
 8791SOL    HW129778   2.582   8.240   2.526  0.7318 -0.2470 -0.1692
 8791SOL    HW229779   2.444   8.256   2.466 -0.1368  1.4330  2.1723
 8792SOL     OW29780   6.176   9.941   2.817  0.6080 -0.3858  0.0558
 8792SOL    HW129781   6.218   9.877   2.759  0.6860 -1.6468  1.4896
 8792SOL    HW229782   6.086   9.946   2.786  0.9261 -0.2546 -0.8535
 8793SOL     OW29783   5.417   1.011   6.206  0.0648 -0.2938  0.1823
 8793SOL    HW129784   5.364   0.943   6.248 -1.6166  0.9097  0.0831
 8793SOL    HW229785   5.378   1.020   6.119  1.5768 -0.6213 -0.5356
 8794SOL     OW29786   1.144   3.603  10.695  0.2555 -0.3126 -0.2407
 8794SOL    HW129787   1.090   3.622  10.771 -0.9709  0.2187 -1.2285
 8794SOL    HW229788   1.085   3.559  10.633  0.9539  0.2198 -1.3159
 8795SOL     OW29789   1.233   4.777   0.201  0.1805  0.5473 -0.1043
 8795SOL    HW129790   1.164   4.744   0.259 -0.8078  0.9852 -1.0132
 8795SOL    HW229791   1.189   4.794   0.118  0.9134  2.9183 -0.0654
 8796SOL     OW29792   4.459   1.525   4.857  0.2685 -0.4125 -0.3612
 8796SOL    HW129793   4.451   1.614   4.890  0.4112 -0.0873 -1.2202
 8796SOL    HW229794   4.435   1.530   4.765 -0.2046 -1.3498 -0.2997
 8797SOL     OW29795   6.648   9.710   8.527  0.0445 -0.1998 -0.6029
 8797SOL    HW129796   6.576   9.765   8.497  0.7741  1.0192 -0.1963
 8797SOL    HW229797   6.606   9.632   8.562 -1.1580  0.9606  0.6206
 8798SOL     OW29798   1.687   4.443  10.554  0.6410  0.0033 -0.1086
 8798SOL    HW129799   1.666   4.382  10.483  4.1622 -1.3391 -0.1367
 8798SOL    HW229800   1.700   4.387  10.631  0.0459  1.1257  0.8214
 8799SOL     OW29801   2.423   5.351  10.243 -0.2133  0.0307  0.1091
 8799SOL    HW129802   2.401   5.300  10.164 -0.0098 -1.4416  0.9955
 8799SOL    HW229803   2.344   5.404  10.259 -0.0863  0.7084 -1.3377
 8800SOL     OW29804   2.672   6.360   7.354  0.0473  0.0156 -0.4873
 8800SOL    HW129805   2.672   6.438   7.409  1.0758 -0.2664 -0.0749
 8800SOL    HW229806   2.586   6.360   7.311  0.3564  1.8022 -1.1237
 8801SOL     OW29807   2.235   8.664   7.478 -0.1656  0.0759 -0.4864
 8801SOL    HW129808   2.169   8.619   7.425  0.4631  0.4331 -1.5872
 8801SOL    HW229809   2.191   8.744   7.507 -0.3626  0.1019 -0.8545
 8802SOL     OW29810   9.771   5.724   7.808 -0.2510 -0.4550 -0.2643
 8802SOL    HW129811   9.803   5.678   7.885  0.9038 -0.4820 -0.7479
 8802SOL    HW229812   9.703   5.667   7.773  1.5417 -2.1252 -1.1722
 8803SOL     OW29813   8.006   5.867   3.931  0.1050 -0.5604  0.7341
 8803SOL    HW129814   7.995   5.936   3.996  1.4610  0.0415  0.3334
 8803SOL    HW229815   8.100   5.849   3.930  0.3383  0.5983 -2.2255
 8804SOL     OW29816   2.134   1.656   5.609 -0.4827 -0.1931  0.0861
 8804SOL    HW129817   2.072   1.727   5.625 -1.0989 -0.7185  0.0508
 8804SOL    HW229818   2.218   1.700   5.598 -1.2494  0.7396 -2.4344
 8805SOL     OW29819   6.772   4.323  10.861  0.6699  0.2283 -0.2104
 8805SOL    HW129820   6.707   4.393  10.870 -0.8221 -1.3467  1.4659
 8805SOL    HW229821   6.720   4.244  10.847  2.2922 -0.8029 -0.4512
 8806SOL     OW29822  10.400   0.523   8.063  0.3299  0.5692  0.2504
 8806SOL    HW129823  10.304   0.517   8.065  0.3077  1.1933  1.1432
 8806SOL    HW229824  10.418   0.616   8.078  1.0760  0.4670 -0.0138
 8807SOL     OW29825   3.676   1.096   3.689 -0.3258 -0.3063 -0.8621
 8807SOL    HW129826   3.600   1.038   3.688  0.7565 -1.8048  0.5374
 8807SOL    HW229827   3.717   1.083   3.603 -1.2046 -0.0835 -1.3190
 8808SOL     OW29828   5.702   3.218   0.855  0.0944  0.3755  0.5343
 8808SOL    HW129829   5.782   3.167   0.841  0.4488  1.1341 -0.2074
 8808SOL    HW229830   5.727   3.283   0.921 -0.5311 -0.7701  1.9587
 8809SOL     OW29831   2.296   2.217   7.605 -0.1000  0.0070 -0.0727
 8809SOL    HW129832   2.224   2.221   7.543 -0.2168  0.4340  0.0940
 8809SOL    HW229833   2.368   2.178   7.555 -0.7298 -1.3525  0.0303
 8810SOL     OW29834   7.487   4.161   5.645  0.7189  0.4169 -0.7207
 8810SOL    HW129835   7.495   4.166   5.550 -1.5004  0.3474 -0.9441
 8810SOL    HW229836   7.523   4.075   5.668  0.5740  0.1220 -1.5812
 8811SOL     OW29837   0.930   5.327  10.921 -0.2186  0.4294  0.0963
 8811SOL    HW129838   0.959   5.313  10.831 -1.9709 -2.9842 -0.0021
 8811SOL    HW229839   0.945   5.420  10.937  0.5647  0.9816 -3.5384
 8812SOL     OW29840   0.950   7.266   3.892  0.3156  0.1103  0.1845
 8812SOL    HW129841   1.018   7.331   3.911  1.1702 -0.7419  0.0761
 8812SOL    HW229842   0.905   7.253   3.975 -1.4119  2.5655 -0.2978
 8813SOL     OW29843   4.972   0.468   4.426 -0.6775 -0.3519 -0.6741
 8813SOL    HW129844   4.888   0.513   4.413 -1.1403 -1.4710 -1.6165
 8813SOL    HW229845   4.995   0.435   4.339  1.2546  0.8066 -0.6264
 8814SOL     OW29846   5.965   2.162   1.278  0.0123 -0.4205  0.5869
 8814SOL    HW129847   5.976   2.254   1.252 -0.7040 -0.8162 -1.2132
 8814SOL    HW229848   6.054   2.129   1.288  0.2996 -0.0193 -0.5817
 8815SOL     OW29849   9.665   8.895   1.627  0.4676 -0.1295  0.4240
 8815SOL    HW129850   9.716   8.814   1.627 -2.1198 -1.8197  0.8150
 8815SOL    HW229851   9.620   8.895   1.711 -0.7263  0.9552 -0.1941
 8816SOL     OW29852   1.191   5.764   8.838 -0.4248  0.4146 -0.0022
 8816SOL    HW129853   1.221   5.704   8.770  3.7180  0.8780  1.2443
 8816SOL    HW229854   1.131   5.713   8.892  0.8078 -1.7433 -0.6434
 8817SOL     OW29855   0.354   7.857   2.803 -0.5792  0.9660 -0.6542
 8817SOL    HW129856   0.270   7.880   2.844 -1.0059  0.0742 -1.0091
 8817SOL    HW229857   0.400   7.940   2.794 -1.5014  1.4858 -0.6071
 8818SOL     OW29858   5.266  10.209   2.000  0.5748 -0.2007  0.0612
 8818SOL    HW129859   5.358  10.191   1.982  0.3678 -1.5394  0.2833
 8818SOL    HW229860   5.219  10.163   1.931  0.0917  1.1472 -0.5227
 8819SOL     OW29861   8.876   3.615   7.237 -0.3973 -0.1204  0.4369
 8819SOL    HW129862   8.877   3.543   7.174  1.3686 -0.6737  1.0670
 8819SOL    HW229863   8.921   3.686   7.193 -1.7313  0.4651 -0.0062
 8820SOL     OW29864   9.820   2.758   4.676 -0.2863  0.6719  0.0109
 8820SOL    HW129865   9.881   2.828   4.651 -0.7491  1.2453  0.4780
 8820SOL    HW229866   9.763   2.747   4.600  1.0648 -0.6044 -0.8419
 8821SOL     OW29867   8.225  10.744   9.395  0.2443 -0.2635  0.0720
 8821SOL    HW129868   8.238  10.683   9.467 -2.7540  0.2276  1.0751
 8821SOL    HW229869   8.184  10.693   9.326 -1.5634  0.4208  0.6270
 8822SOL     OW29870   6.037   2.874   9.636  0.0182  0.1551  0.0104
 8822SOL    HW129871   6.111   2.916   9.681 -0.4935  1.4619 -0.3260
 8822SOL    HW229872   6.007   2.806   9.696  0.3288  0.8524  0.9618
 8823SOL     OW29873   4.590   1.810  10.312  0.0971  0.7321  0.3918
 8823SOL    HW129874   4.519   1.864  10.277 -1.4968 -0.9247  0.9593
 8823SOL    HW229875   4.591   1.830  10.406 -1.4175 -1.1367  0.8603
 8824SOL     OW29876   3.784   2.729   9.948 -0.3476  0.1447 -0.5494
 8824SOL    HW129877   3.786   2.700  10.039 -1.2765 -1.2865 -0.9676
 8824SOL    HW229878   3.762   2.822   9.953 -0.7613 -0.0105  0.6858
 8825SOL     OW29879   5.913   3.899   6.969 -0.1260 -0.2787 -0.0657
 8825SOL    HW129880   5.870   3.982   6.947  0.7882 -0.0044 -0.8916
 8825SOL    HW229881   5.931   3.859   6.884  0.9158 -0.5535  0.2786
 8826SOL     OW29882   8.617   2.834   2.963  0.4447  0.4398 -0.5039
 8826SOL    HW129883   8.552   2.825   2.894 -0.4175  0.1346  0.3297
 8826SOL    HW229884   8.632   2.744   2.994 -0.9850  0.7964  1.3275
 8827SOL     OW29885   4.318   4.046   9.728 -0.7326  0.3266  0.4838
 8827SOL    HW129886   4.375   4.028   9.653  0.5222 -0.2460  1.5482
 8827SOL    HW229887   4.284   3.961   9.754 -1.0579  0.5030  0.6349
 8828SOL     OW29888   2.183   8.621   4.390 -0.3250 -0.0593  0.1018
 8828SOL    HW129889   2.126   8.573   4.450 -0.7186 -0.4512 -0.5771
 8828SOL    HW229890   2.144   8.708   4.384  0.8801  0.6530  2.0148
 8829SOL     OW29891   1.821   7.437   7.184  0.0031 -0.3401 -0.5555
 8829SOL    HW129892   1.859   7.451   7.271 -1.0843 -1.2681  0.0805
 8829SOL    HW229893   1.795   7.345   7.183 -2.1417  0.2326 -0.9880
 8830SOL     OW29894   0.851  10.664  10.750  0.2076  0.2592 -0.0876
 8830SOL    HW129895   0.762  10.693  10.773  0.4613  1.2449 -0.3443
 8830SOL    HW229896   0.839  10.573  10.724 -1.0061  0.8569 -1.7139
 8831SOL     OW29897   6.343   8.141   2.939 -0.0592 -0.2689  0.1915
 8831SOL    HW129898   6.347   8.215   2.999  0.8825 -0.6515  0.6051
 8831SOL    HW229899   6.290   8.173   2.865  0.2376  0.7668  0.4192
 8832SOL     OW29900   4.714   9.847   1.408 -0.1286  0.0554  0.3027
 8832SOL    HW129901   4.737   9.937   1.429 -2.3661  0.8525 -0.5462
 8832SOL    HW229902   4.778   9.821   1.342  0.5016  1.0426  0.5114
 8833SOL     OW29903   1.404   6.389   1.968 -0.1146  0.2802 -0.2867
 8833SOL    HW129904   1.309   6.375   1.974 -0.2044  1.1236  0.3100
 8833SOL    HW229905   1.423   6.379   1.875 -0.8080  0.2026 -0.4247
 8834SOL     OW29906   5.251  10.388   4.505 -0.4490  0.1789  0.5863
 8834SOL    HW129907   5.274  10.296   4.515 -1.0495  0.0527  0.8035
 8834SOL    HW229908   5.160  10.387   4.474  0.1279  0.6424 -1.2313
 8835SOL     OW29909   2.537   7.194   0.538 -0.2388  0.5857 -0.0243
 8835SOL    HW129910   2.454   7.218   0.498 -1.3601 -1.1113  1.2250
 8835SOL    HW229911   2.520   7.194   0.632  2.0352  3.3392  0.4504
 8836SOL     OW29912   4.487   3.306   2.790 -0.0875 -0.3378  0.3135
 8836SOL    HW129913   4.436   3.340   2.716 -0.6293  3.6214  2.3681
 8836SOL    HW229914   4.565   3.268   2.749 -1.2763 -0.0039 -2.4081
 8837SOL     OW29915   8.767   0.629   3.093 -0.2733  0.1950 -0.0888
 8837SOL    HW129916   8.756   0.722   3.110 -0.4077  0.0406  0.7043
 8837SOL    HW229917   8.845   0.623   3.039  0.4082  0.6817  0.8273
 8838SOL     OW29918   4.367   3.632   3.559 -0.0416 -0.1605 -0.4909
 8838SOL    HW129919   4.444   3.575   3.559 -1.0434 -1.5189 -0.6065
 8838SOL    HW229920   4.298   3.581   3.518 -0.8778  1.2541 -0.8863
 8839SOL     OW29921   3.209   0.488   3.631 -0.6362  0.6420 -0.1044
 8839SOL    HW129922   3.212   0.440   3.714  2.0026 -0.2040 -0.6259
 8839SOL    HW229923   3.146   0.439   3.578  0.5806 -1.1740  0.0597
 8840SOL     OW29924   6.636   7.238   3.550  0.4810  0.5004  0.1635
 8840SOL    HW129925   6.636   7.179   3.625  0.8140  0.6393  0.2745
 8840SOL    HW229926   6.546   7.236   3.518  1.0618 -2.1540 -1.4975
 8841SOL     OW29927   7.398   5.772   3.330  0.2466  0.5218  0.2441
 8841SOL    HW129928   7.380   5.680   3.345  0.5801  0.1474 -1.5558
 8841SOL    HW229929   7.342   5.796   3.256  0.4152  1.6732  0.4715
 8842SOL     OW29930   7.501   9.843   3.489  0.0983 -0.2301 -0.5109
 8842SOL    HW129931   7.522   9.770   3.546  0.2220  0.5130  0.4101
 8842SOL    HW229932   7.502   9.806   3.400  1.4238 -1.0409 -0.1579
 8843SOL     OW29933   5.970   0.712   8.137 -0.4250 -0.8215 -0.1605
 8843SOL    HW129934   5.890   0.670   8.104 -0.6973  0.1390 -0.7492
 8843SOL    HW229935   5.966   0.801   8.102  0.6261 -0.5968  0.2819
 8844SOL     OW29936  10.251   8.571   7.568 -0.0902  0.3120 -0.2032
 8844SOL    HW129937  10.283   8.636   7.630  1.1654 -1.6982  1.3506
 8844SOL    HW229938  10.167   8.605   7.538  0.1855  2.2584  1.1358
 8845SOL     OW29939   6.503   2.402   3.933  0.3529 -0.1078  0.1291
 8845SOL    HW129940   6.492   2.319   3.886  1.0136  0.3957 -0.9261
 8845SOL    HW229941   6.433   2.458   3.898  2.2751  1.0357 -2.0051
 8846SOL     OW29942   3.099   3.423   7.456  0.0289  0.2783 -0.2007
 8846SOL    HW129943   3.090   3.473   7.537 -0.1563  0.0225 -0.0626
 8846SOL    HW229944   3.045   3.470   7.392 -0.7263 -0.1520  0.1159
 8847SOL     OW29945   5.075   1.918   8.740 -0.2783 -0.0175  0.9282
 8847SOL    HW129946   5.041   2.005   8.721  1.9818  0.3843 -1.7175
 8847SOL    HW229947   5.000   1.860   8.731 -1.5011  1.5046  1.2370
 8848SOL     OW29948   5.065  10.442   9.878 -0.0867 -0.1648 -0.2848
 8848SOL    HW129949   4.977  10.446   9.915 -0.0664 -1.6058 -0.0275
 8848SOL    HW229950   5.123  10.440   9.954  0.1003 -0.4249 -0.4335
 8849SOL     OW29951   0.095  10.147   9.768  0.2090  0.5579 -0.2006
 8849SOL    HW129952   0.149  10.226   9.765 -0.1259  0.8602  1.3055
 8849SOL    HW229953   0.012  10.172   9.727  0.6210  0.5720 -1.0201
 8850SOL     OW29954   5.363   8.929   4.059  0.3098 -0.0229  0.4410
 8850SOL    HW129955   5.422   9.004   4.068  0.2948  0.1438 -0.7230
 8850SOL    HW229956   5.417   8.861   4.019 -0.1525 -0.0293 -0.1767
 8851SOL     OW29957  10.609  10.029   4.597  0.0269 -0.4221  0.4344
 8851SOL    HW129958  10.578  10.118   4.616  0.9976  0.6236 -2.5166
 8851SOL    HW229959  10.535   9.986   4.556 -0.2373 -0.7594  1.2683
 8852SOL     OW29960   5.909   0.807  10.599 -0.5998 -0.1428  0.1673
 8852SOL    HW129961   5.995   0.803  10.640 -0.5039 -0.5286 -0.0658
 8852SOL    HW229962   5.874   0.892  10.624  1.0575  1.2605 -2.1383
 8853SOL     OW29963   0.530   3.035   8.357  0.2493 -0.1094  0.2019
 8853SOL    HW129964   0.525   3.104   8.291 -1.9566 -0.2800  0.1560
 8853SOL    HW229965   0.521   2.954   8.308 -0.8692 -0.2571  0.6286
 8854SOL     OW29966   3.562   5.930   6.810 -0.0278 -0.4966 -0.0319
 8854SOL    HW129967   3.467   5.930   6.793 -0.0233 -1.9107 -0.1194
 8854SOL    HW229968   3.598   5.873   6.742  0.9319  0.3028 -0.1984
 8855SOL     OW29969  10.663   1.987   0.077  1.0561  0.7046  0.3423
 8855SOL    HW129970  10.650   1.899   0.041 -0.8863  0.1914  2.1432
 8855SOL    HW229971  10.721   1.974   0.152 -0.3123  0.7322  1.4238
 8856SOL     OW29972   6.453   3.733  10.458 -0.1149  0.0367  0.8214
 8856SOL    HW129973   6.515   3.792  10.502  0.4402  0.2228 -0.2028
 8856SOL    HW229974   6.497   3.648  10.456  0.4622  0.3647 -0.6564
 8857SOL     OW29975   9.781   2.530   5.836 -0.5481  0.0844 -0.0291
 8857SOL    HW129976   9.851   2.493   5.889  0.3146  1.1611 -0.3835
 8857SOL    HW229977   9.788   2.624   5.849 -2.5017  0.1666  0.6156
 8858SOL     OW29978   6.814   3.393  10.171 -0.5735  0.1924  0.0260
 8858SOL    HW129979   6.816   3.444  10.253  0.1218  1.1932 -0.6071
 8858SOL    HW229980   6.756   3.443  10.114 -2.3418 -1.3413  0.4327
 8859SOL     OW29981   8.132   7.412   7.797 -0.0435 -0.2186  0.0093
 8859SOL    HW129982   8.117   7.496   7.754 -0.1547  0.5494  1.5052
 8859SOL    HW229983   8.131   7.348   7.726  0.7864  1.1243 -1.2402
 8860SOL     OW29984   9.984   4.875   6.392  0.1688  0.3111  0.1482
 8860SOL    HW129985   9.977   4.970   6.381  1.0084  0.4336  0.6602
 8860SOL    HW229986   9.894   4.847   6.409 -0.3509  0.7742 -1.7844
 8861SOL     OW29987   2.410   8.690   4.216  0.5518 -0.3899 -0.4135
 8861SOL    HW129988   2.346   8.652   4.276 -0.3402  2.2382  0.3312
 8861SOL    HW229989   2.454   8.614   4.178 -2.2700 -2.2359 -0.1676
 8862SOL     OW29990   6.701   9.910   0.446 -0.7008  0.3901  0.1199
 8862SOL    HW129991   6.779   9.922   0.393 -1.2817 -0.4545 -0.9651
 8862SOL    HW229992   6.632   9.891   0.383 -1.8727  1.4770  1.0225
 8863SOL     OW29993  10.561   5.521   3.655  0.1424  0.6013  0.0166
 8863SOL    HW129994  10.494   5.572   3.701  0.6476  0.0211  1.4307
 8863SOL    HW229995  10.538   5.529   3.562 -0.2571  2.7122  0.2760
 8864SOL     OW29996   4.551   2.385   3.292 -0.1208  0.6257  0.6584
 8864SOL    HW129997   4.462   2.396   3.259  1.0684  0.8456 -2.6744
 8864SOL    HW229998   4.569   2.464   3.343 -0.3938  2.5632 -2.1679
 8865SOL     OW29999   2.412   6.716   2.991 -0.2329 -0.0977  0.1381
 8865SOL    HW130000   2.388   6.741   3.080 -0.3523 -1.4749  0.5097
 8865SOL    HW230001   2.329   6.715   2.943 -0.2817 -0.1453  0.2237
 8866SOL     OW30002   4.406   8.170   2.842 -0.7342  0.0313  0.3979
 8866SOL    HW130003   4.444   8.146   2.927  0.6571  1.0924  0.0754
 8866SOL    HW230004   4.409   8.265   2.840 -0.4154 -0.0017 -1.0120
 8867SOL     OW30005   6.746  10.091   6.151  0.4016 -0.0347  0.2066
 8867SOL    HW130006   6.779  10.069   6.238 -1.9816 -0.5046  1.0343
 8867SOL    HW230007   6.788  10.028   6.093  1.7062  0.0216  1.0625
 8868SOL     OW30008   7.944   4.141   6.726 -0.1748 -0.6810  0.1936
 8868SOL    HW130009   7.855   4.125   6.695  0.0201 -1.9684  0.2515
 8868SOL    HW230010   7.974   4.217   6.677 -2.0943  1.1334  1.7784
 8869SOL     OW30011   7.565   3.403   4.482 -0.1201  0.0359 -0.4953
 8869SOL    HW130012   7.581   3.366   4.394 -1.0686  1.4062 -1.2483
 8869SOL    HW230013   7.629   3.358   4.538  1.4177  0.1039 -2.1323
 8870SOL     OW30014   2.832   4.172   5.156 -0.4536 -0.1537  0.4275
 8870SOL    HW130015   2.796   4.098   5.107 -1.4512  0.9879 -0.5934
 8870SOL    HW230016   2.918   4.186   5.117 -1.3298  0.8865 -1.1854
 8871SOL     OW30017   6.255   7.474   9.109  0.3311  0.5223 -0.1557
 8871SOL    HW130018   6.295   7.522   9.182 -0.4668  1.4703 -0.3378
 8871SOL    HW230019   6.222   7.542   9.050 -0.3947 -0.2410 -0.6454
 8872SOL     OW30020   6.857   1.543   7.175 -0.1975  0.2382  0.3538
 8872SOL    HW130021   6.866   1.566   7.267 -0.8300  1.7880  0.0394
 8872SOL    HW230022   6.790   1.602   7.142  1.1487  0.7651 -1.4781
 8873SOL     OW30023   3.894   9.689   3.011  0.4931  0.0178  0.3354
 8873SOL    HW130024   3.963   9.653   3.067  0.0161  0.5374  1.2807
 8873SOL    HW230025   3.813   9.660   3.054  0.1221  0.0680 -0.3333
 8874SOL     OW30026   5.710   8.518   2.940  0.2836 -0.0134 -0.0326
 8874SOL    HW130027   5.776   8.581   2.969  1.2351 -0.7635 -0.5326
 8874SOL    HW230028   5.731   8.502   2.848 -1.1691  0.4421 -0.4497
 8875SOL     OW30029   2.910  10.298   8.670  0.4022  0.0493  0.4410
 8875SOL    HW130030   2.973  10.301   8.743  0.9513  1.2036 -0.0780
 8875SOL    HW230031   2.958  10.335   8.596 -0.7848  0.5932 -0.0471
 8876SOL     OW30032   8.364   8.870   8.163  0.4786  0.2692  0.0454
 8876SOL    HW130033   8.362   8.957   8.123  0.3958  0.3222  0.1669
 8876SOL    HW230034   8.350   8.810   8.090  1.1582  0.3314 -0.1426
 8877SOL     OW30035   7.889   1.895   7.143 -0.0526 -0.0054  0.5403
 8877SOL    HW130036   7.939   1.942   7.210  0.1264 -1.9395  1.7805
 8877SOL    HW230037   7.878   1.960   7.073 -0.1850  2.0298  2.3734
 8878SOL     OW30038  10.583  10.403   5.660 -0.0312 -0.0362 -0.2184
 8878SOL    HW130039  10.489  10.416   5.667 -0.2512 -0.7999 -1.5205
 8878SOL    HW230040  10.592  10.329   5.599  1.3972  0.0092 -0.0744
 8879SOL     OW30041   1.681   7.461  10.031  0.7355  0.1383 -0.3091
 8879SOL    HW130042   1.684   7.410  10.111  0.2799  1.2360  0.4142
 8879SOL    HW230043   1.694   7.397   9.961 -2.5829 -1.4107  0.3965
 8880SOL     OW30044   1.602   4.012   6.361 -0.3076 -0.4877 -0.3577
 8880SOL    HW130045   1.618   3.990   6.452 -0.8881 -1.0702 -0.3861
 8880SOL    HW230046   1.689   4.013   6.320 -0.0822 -0.6143  0.1174
 8881SOL     OW30047   7.645   4.722   8.325 -0.5756 -0.0028  0.4093
 8881SOL    HW130048   7.721   4.752   8.275 -1.5965 -0.0608 -1.2142
 8881SOL    HW230049   7.679   4.707   8.413  1.1011  0.8139 -0.0702
 8882SOL     OW30050   0.539   5.762   3.978  0.0400 -0.3376 -0.1423
 8882SOL    HW130051   0.467   5.754   4.041 -0.3507 -2.2035 -0.7745
 8882SOL    HW230052   0.498   5.802   3.901 -0.3658 -1.5050 -0.5446
 8883SOL     OW30053   3.288   8.934  10.693 -0.3338  0.0406  0.0145
 8883SOL    HW130054   3.227   8.963  10.626  0.9344  1.6363 -0.4615
 8883SOL    HW230055   3.247   8.855  10.730 -2.5071  0.8981 -0.5152
 8884SOL     OW30056  10.938   0.194   4.620 -0.7238  0.1390  0.0525
 8884SOL    HW130057  10.900   0.186   4.707 -0.3626 -0.5892  0.1453
 8884SOL    HW230058  10.896   0.271   4.582 -0.4504  0.7950  1.0832
 8885SOL     OW30059   3.850   2.516   1.309 -0.3534 -0.1025  0.0141
 8885SOL    HW130060   3.917   2.465   1.355 -1.2913 -0.4711  1.0093
 8885SOL    HW230061   3.806   2.565   1.379 -0.2866  1.1206 -0.7793
 8886SOL     OW30062   7.900   0.092   1.611 -0.3983  0.7288 -0.4979
 8886SOL    HW130063   7.933   0.047   1.533 -0.1583 -0.3355  0.2165
 8886SOL    HW230064   7.806   0.078   1.609 -0.2596 -0.2827  0.0253
 8887SOL     OW30065   6.220   8.149   5.831  0.1678 -0.2160  0.0686
 8887SOL    HW130066   6.128   8.123   5.842  0.1094  0.2295  0.6709
 8887SOL    HW230067   6.263   8.070   5.798 -0.7976  0.1080 -2.0397
 8888SOL     OW30068   9.743   1.302   4.901  0.4270  0.0542  0.3979
 8888SOL    HW130069   9.746   1.247   4.979 -0.1335  0.9711  1.0735
 8888SOL    HW230070   9.805   1.373   4.920 -1.0259  1.2406  0.7479
 8889SOL     OW30071   9.941  10.451   1.635 -0.3369  0.2332 -0.2115
 8889SOL    HW130072  10.032  10.476   1.614 -0.2044  0.5445  0.6846
 8889SOL    HW230073   9.899  10.439   1.550 -0.2086  2.8689 -0.7080
 8890SOL     OW30074   8.267   6.549   3.707 -0.1025  0.6128  0.5038
 8890SOL    HW130075   8.191   6.525   3.656  0.1261  0.0707  0.4076
 8890SOL    HW230076   8.342   6.523   3.653  0.1567  1.8738  0.2541
 8891SOL     OW30077   2.409   4.912   3.952  0.2820 -0.3093 -0.3982
 8891SOL    HW130078   2.444   4.920   4.041 -0.0308  0.6343 -0.3545
 8891SOL    HW230079   2.484   4.881   3.901  0.6124 -0.3424  0.0924
 8892SOL     OW30080   7.327   5.933   6.156 -0.8837  0.5308 -0.1783
 8892SOL    HW130081   7.255   5.942   6.218 -0.1372 -0.6224  0.8733
 8892SOL    HW230082   7.290   5.881   6.084 -0.8030 -1.0288  0.8789
 8893SOL     OW30083  10.967   3.719   0.674 -0.1932  0.0095 -0.1948
 8893SOL    HW130084  11.047   3.771   0.681  0.7004 -1.2171 -0.9998
 8893SOL    HW230085  10.953   3.709   0.580 -2.2262  1.5645 -0.1194
 8894SOL     OW30086   0.830  10.766   3.696  0.3759 -0.5304  0.1142
 8894SOL    HW130087   0.898  10.728   3.641 -0.6087  0.9578 -2.1970
 8894SOL    HW230088   0.782  10.826   3.638 -1.8623 -0.3076  2.0996
 8895SOL     OW30089   5.220   6.658   7.181  0.4345 -0.4479  0.1885
 8895SOL    HW130090   5.295   6.712   7.207  0.4589 -0.2391 -0.3202
 8895SOL    HW230091   5.144   6.709   7.209  0.4556 -0.0982 -0.3882
 8896SOL     OW30092   1.494   1.924   8.402 -0.2806 -0.2378 -0.1478
 8896SOL    HW130093   1.566   1.985   8.414  0.7199 -1.3749 -0.3555
 8896SOL    HW230094   1.479   1.887   8.490 -1.9707  1.4849  0.3252
 8897SOL     OW30095   7.578  10.589   9.751 -0.7256 -0.0498 -0.0611
 8897SOL    HW130096   7.643  10.553   9.691 -0.7199 -1.0470  0.5203
 8897SOL    HW230097   7.494  10.560   9.716 -0.8000  0.4552 -0.2992
 8898SOL     OW30098   7.159   7.106   9.636  0.3435 -0.3145 -0.0412
 8898SOL    HW130099   7.075   7.106   9.591 -0.7682  2.0263  1.9338
 8898SOL    HW230100   7.137   7.097   9.729  2.0959  2.1841  0.6738
 8899SOL     OW30101   8.268   7.247   2.153  0.0056 -0.5462  0.1971
 8899SOL    HW130102   8.205   7.195   2.105  0.3004 -1.0323  0.3295
 8899SOL    HW230103   8.327   7.183   2.192  0.8764 -0.0805 -0.3332
 8900SOL     OW30104   2.301   3.626   8.649  0.1335  0.6143  0.3918
 8900SOL    HW130105   2.309   3.570   8.572 -2.2529  0.0914  0.4842
 8900SOL    HW230106   2.289   3.564   8.722 -0.4431  1.1635  0.7728
 8901SOL     OW30107   6.324   7.407   5.797 -0.1376 -0.1072 -0.1267
 8901SOL    HW130108   6.317   7.323   5.751  1.6632 -0.8882  0.9760
 8901SOL    HW230109   6.253   7.406   5.861 -0.7612 -0.3207 -0.8096
 8902SOL     OW30110   0.690   3.589   7.631 -0.2361  0.6290 -0.8416
 8902SOL    HW130111   0.641   3.635   7.699  0.5588  1.3363 -0.7384
 8902SOL    HW230112   0.671   3.638   7.551  1.2871  1.6642 -0.5843
 8903SOL     OW30113   6.619   9.821   3.121  0.1853 -0.3691 -0.7528
 8903SOL    HW130114   6.565   9.768   3.062 -0.8363 -0.5617  0.3318
 8903SOL    HW230115   6.653   9.891   3.066 -2.6104  0.7794 -1.1098
 8904SOL     OW30116   1.251   1.028   0.729 -0.4723 -0.2445 -0.3251
 8904SOL    HW130117   1.170   1.013   0.682 -0.0561  1.4733 -1.6180
 8904SOL    HW230118   1.298   1.094   0.678  1.3914 -0.6385  0.8076
 8905SOL     OW30119   0.289   1.128  10.791  0.1641 -0.0785 -0.2502
 8905SOL    HW130120   0.254   1.063  10.852 -0.1153  0.8030  0.5313
 8905SOL    HW230121   0.225   1.131  10.720 -0.0582 -0.3192 -0.0613
 8906SOL     OW30122   4.323   3.657   8.451  0.0024  0.1084  0.0680
 8906SOL    HW130123   4.254   3.659   8.517  0.6376  1.6390  0.7084
 8906SOL    HW230124   4.277   3.658   8.367 -0.7816 -0.7237  0.4891
 8907SOL     OW30125   4.628   8.340   5.008  0.2756  0.2832 -0.4406
 8907SOL    HW130126   4.539   8.326   4.977  0.2358 -0.0158 -0.1901
 8907SOL    HW230127   4.654   8.256   5.046  0.2333  0.7128  0.5535
 8908SOL     OW30128   2.884   6.728   7.401 -0.2341 -0.0184 -0.4425
 8908SOL    HW130129   2.866   6.678   7.480 -1.4069  0.0259 -0.6627
 8908SOL    HW230130   2.886   6.662   7.331  1.2332 -0.1094 -0.3164
 8909SOL     OW30131   4.388   8.398   4.040 -1.1283 -0.4663  0.2677
 8909SOL    HW130132   4.416   8.452   3.967  1.7791 -3.0483 -0.6168
 8909SOL    HW230133   4.395   8.455   4.116  0.6851  0.7770 -0.8008
 8910SOL     OW30134   8.649   7.175   3.776 -0.0611 -0.0983  0.2740
 8910SOL    HW130135   8.707   7.200   3.703  0.5455 -1.3606  0.3074
 8910SOL    HW230136   8.662   7.244   3.841  0.6868  0.1432 -0.1156
 8911SOL     OW30137   4.331   1.720   2.784  0.5361  0.7857 -0.1909
 8911SOL    HW130138   4.256   1.777   2.772  0.5715  0.4995 -1.8493
 8911SOL    HW230139   4.303   1.634   2.751  1.5668  0.6708 -0.8226
 8912SOL     OW30140   8.849   0.950   8.004  0.3844  0.2856  0.0997
 8912SOL    HW130141   8.773   0.962   8.061  0.0133  0.7294 -0.4885
 8912SOL    HW230142   8.816   0.902   7.928  0.8296 -0.0977  0.1396
 8913SOL     OW30143   2.965   4.719   6.883  0.5007  0.2011 -0.4467
 8913SOL    HW130144   2.878   4.685   6.863 -0.2437  1.2267  0.9203
 8913SOL    HW230145   3.009   4.648   6.929 -0.3437  0.3844  0.6543
 8914SOL     OW30146  10.400   5.973   0.429  0.2436  0.2463  0.0168
 8914SOL    HW130147  10.364   6.008   0.348  0.3446 -1.2956 -0.6894
 8914SOL    HW230148  10.494   5.967   0.413  0.6737  2.7983  1.3205
 8915SOL     OW30149  10.538   5.491   7.328  0.0475  0.5313 -0.2210
 8915SOL    HW130150  10.475   5.557   7.357 -0.1133  0.9912 -1.6001
 8915SOL    HW230151  10.582   5.530   7.252  2.1836  0.3208  0.8636
 8916SOL     OW30152   9.006   3.592   4.522  0.7432  0.2675  0.0411
 8916SOL    HW130153   9.048   3.514   4.558  2.0817  1.0729  0.2771
 8916SOL    HW230154   8.970   3.637   4.598 -1.1592 -0.7545 -0.2297
 8917SOL     OW30155   4.523   2.082   1.463  0.3091  0.4565 -0.2822
 8917SOL    HW130156   4.535   2.031   1.383 -0.3352  0.8125 -0.6050
 8917SOL    HW230157   4.472   2.025   1.521  0.7780  0.1978 -0.1241
 8918SOL     OW30158   9.635   9.870   4.545  0.2603 -0.3139 -0.1175
 8918SOL    HW130159   9.723   9.832   4.548  0.4374  0.0566 -0.6881
 8918SOL    HW230160   9.579   9.798   4.515  0.2766 -0.7136  0.7949
 8919SOL     OW30161   4.562   9.362   7.471  0.4724  0.0832  0.1113
 8919SOL    HW130162   4.615   9.308   7.530 -0.6926  0.7345  1.7869
 8919SOL    HW230163   4.474   9.359   7.509 -0.3531  0.3372 -1.7299
 8920SOL     OW30164   5.094   9.069   0.755  0.1426 -0.2349 -0.1276
 8920SOL    HW130165   5.124   9.050   0.843 -1.4082 -2.3155 -0.0102
 8920SOL    HW230166   5.173   9.073   0.702  0.9657 -0.3941  1.0896
 8921SOL     OW30167   2.500   4.897   5.430 -0.0757  0.0332 -0.1004
 8921SOL    HW130168   2.577   4.842   5.411  0.1343  0.8744 -1.7786
 8921SOL    HW230169   2.427   4.847   5.394 -0.3755 -0.9398  1.8275
 8922SOL     OW30170   3.336   0.490   3.384 -0.2631  0.0387  0.5978
 8922SOL    HW130171   3.313   0.469   3.474 -2.0819 -1.0185 -0.0740
 8922SOL    HW230172   3.327   0.585   3.377 -1.8647 -0.0796  1.0570
 8923SOL     OW30173   4.758   6.039   3.426 -0.3459 -0.2843  0.6680
 8923SOL    HW130174   4.836   5.995   3.461  1.8681  1.8683 -1.2898
 8923SOL    HW230175   4.772   6.131   3.449 -0.4064  0.6963 -2.9270
 8924SOL     OW30176   2.564   1.428   1.144  0.7464 -0.1522 -0.2467
 8924SOL    HW130177   2.507   1.490   1.189 -1.0757 -0.9842 -1.3271
 8924SOL    HW230178   2.554   1.449   1.051 -0.1445 -2.2185 -0.6549
 8925SOL     OW30179   2.043   7.452   1.824  0.0507 -0.7544 -0.9758
 8925SOL    HW130180   2.008   7.412   1.903 -1.1712  2.4713  0.1812
 8925SOL    HW230181   1.973   7.443   1.760 -1.0114  1.2517 -0.1264
 8926SOL     OW30182   0.969   1.681   4.691  0.5407 -0.3688 -0.7336
 8926SOL    HW130183   1.044   1.707   4.638  0.2941  0.8277 -0.4953
 8926SOL    HW230184   0.951   1.756   4.747 -0.4658 -0.8654 -0.3722
 8927SOL     OW30185   1.395   3.028  10.227  1.0864 -0.1269 -0.3980
 8927SOL    HW130186   1.306   3.038  10.193  0.8097  2.1874  0.8969
 8927SOL    HW230187   1.389   2.957  10.291 -0.3388  1.4299  1.2616
 8928SOL     OW30188   2.326   8.928  10.194 -0.3519 -0.0412 -0.1217
 8928SOL    HW130189   2.385   8.933  10.269 -0.0324  0.3734 -0.3950
 8928SOL    HW230190   2.369   8.866  10.134  0.1766  0.7968 -0.6319
 8929SOL     OW30191  10.872   2.512   5.079  0.0101 -0.1057 -0.3774
 8929SOL    HW130192  10.894   2.509   4.986 -0.1804  0.6245 -0.4472
 8929SOL    HW230193  10.952   2.544   5.121 -0.0534 -0.0010 -0.3384
 8930SOL     OW30194   2.382   4.419   2.166  0.0731  0.1338  0.4891
 8930SOL    HW130195   2.335   4.386   2.243  0.3667  0.9769  1.0374
 8930SOL    HW230196   2.333   4.383   2.092 -2.1135  1.8354  1.0295
 8931SOL     OW30197   0.886   2.238   9.773 -0.0014 -0.1695 -0.4530
 8931SOL    HW130198   0.800   2.269   9.745  0.2448  1.0669  0.1065
 8931SOL    HW230199   0.947   2.307   9.746  0.3541  0.6281  2.2158
 8932SOL     OW30200   5.952   4.272   9.562 -0.3127  0.3601 -0.2660
 8932SOL    HW130201   5.870   4.281   9.514 -0.2078 -0.8052 -0.6773
 8932SOL    HW230202   5.985   4.186   9.538  0.0773  0.0216  1.3817
 8933SOL     OW30203   1.970   0.573   4.936  0.1679 -0.3755  0.0825
 8933SOL    HW130204   1.928   0.555   5.020  0.5921 -0.5324  0.2669
 8933SOL    HW230205   1.917   0.525   4.872 -0.5685  0.3226  0.1708
 8934SOL     OW30206   2.397  10.198   2.285  0.4062 -0.1767  0.2390
 8934SOL    HW130207   2.355  10.132   2.230 -1.0462 -1.2757  2.6089
 8934SOL    HW230208   2.344  10.277   2.273 -0.1789 -0.5401  0.4490
 8935SOL     OW30209   9.068   1.211   2.059  0.6331 -0.2572 -0.2709
 8935SOL    HW130210   9.119   1.218   1.978  0.0300  0.7936 -0.5574
 8935SOL    HW230211   9.014   1.289   2.061  1.1033  0.0480  1.4766
 8936SOL     OW30212   0.825  10.448   6.628  0.1331 -0.0459  0.5590
 8936SOL    HW130213   0.779  10.366   6.611 -0.3401  0.5841 -1.2632
 8936SOL    HW230214   0.760  10.502   6.674 -0.0848 -0.1146  0.3361
 8937SOL     OW30215   2.773   1.032   0.444 -0.4076  0.1320  0.3363
 8937SOL    HW130216   2.797   1.097   0.377  0.2701 -0.4495  0.0133
 8937SOL    HW230217   2.681   1.013   0.426 -0.5110  0.7429  0.2071
 8938SOL     OW30218   0.538   2.899   5.449  0.3675 -0.2671  0.1055
 8938SOL    HW130219   0.491   2.915   5.367  1.4801  1.1253 -0.2659
 8938SOL    HW230220   0.563   2.807   5.444  0.8730 -0.0570 -1.3469
 8939SOL     OW30221   9.128   4.586   3.995  0.3294  0.0202  0.2398
 8939SOL    HW130222   9.171   4.656   4.043  0.4332  1.6503 -2.1798
 8939SOL    HW230223   9.107   4.624   3.910 -1.2668 -2.3222 -0.4618
 8940SOL     OW30224   4.931   3.763   2.834  0.0585  0.0113 -0.0103
 8940SOL    HW130225   4.902   3.673   2.822 -1.4059  0.3924  0.5292
 8940SOL    HW230226   4.859   3.816   2.800  0.8046  0.9722 -0.1109
 8941SOL     OW30227   2.047   3.444   5.523 -0.6420 -0.0344  0.6926
 8941SOL    HW130228   2.041   3.348   5.531 -2.8348  0.1671  1.9466
 8941SOL    HW230229   1.969   3.468   5.475  0.9012  0.9818 -1.3443
 8942SOL     OW30230   4.389   2.730   4.053 -0.0723 -0.0930  0.1274
 8942SOL    HW130231   4.432   2.649   4.024  1.1607 -0.1121  1.9383
 8942SOL    HW230232   4.339   2.704   4.130  0.1932  0.8189  0.6136
 8943SOL     OW30233   1.629   1.413   1.455 -0.2083  0.3253 -0.6292
 8943SOL    HW130234   1.598   1.362   1.381 -0.6775 -0.4285  0.0678
 8943SOL    HW230235   1.720   1.434   1.435 -0.1025 -0.5396 -1.0519
 8944SOL     OW30236   0.455   2.227  10.481  0.2323 -0.0737  0.1818
 8944SOL    HW130237   0.531   2.261  10.529  0.4149  0.2571 -0.3337
 8944SOL    HW230238   0.492   2.183  10.405 -0.0966  0.2866 -0.1952
 8945SOL     OW30239   4.544   7.356   3.228  0.3645  0.0493  0.0216
 8945SOL    HW130240   4.603   7.333   3.299  1.7413  0.1344 -1.0584
 8945SOL    HW230241   4.460   7.316   3.251  0.8409 -0.0607  1.5852
 8946SOL     OW30242   5.638   5.762   9.119 -0.3645  0.2604 -0.4291
 8946SOL    HW130243   5.545   5.744   9.108 -0.6678  1.3736  0.2552
 8946SOL    HW230244   5.650   5.850   9.084  0.3761  0.2377 -0.2528
 8947SOL     OW30245  10.813  10.532   9.215 -0.0629 -0.6677  0.2479
 8947SOL    HW130246  10.801  10.482   9.134  0.6249 -0.2405 -0.1325
 8947SOL    HW230247  10.778  10.476   9.284 -1.3212 -0.7296 -0.4323
 8948SOL     OW30248   5.208   6.951  10.369  0.6721 -0.1052  0.4869
 8948SOL    HW130249   5.207   6.879  10.432 -0.7362 -0.0532  0.5426
 8948SOL    HW230250   5.169   6.914  10.290 -1.0429  0.8474  0.8432
 8949SOL     OW30251   9.037  10.233   8.691 -0.2391  0.4555  0.0075
 8949SOL    HW130252   9.095  10.229   8.615  0.3629 -1.6620  0.5381
 8949SOL    HW230253   8.962  10.283   8.662  0.7545  1.1213 -1.4580
 8950SOL     OW30254  10.253  10.951   3.863 -0.4719 -0.0943 -0.2725
 8950SOL    HW130255  10.254  11.010   3.788 -0.1914  0.2573 -0.0003
 8950SOL    HW230256  10.201  10.998   3.929 -1.1786 -0.6454 -0.4371
 8951SOL     OW30257   7.162   6.923   1.967 -0.0071  0.1343 -0.0517
 8951SOL    HW130258   7.084   6.942   1.915  0.4330 -0.6422 -1.0040
 8951SOL    HW230259   7.166   6.995   2.031 -0.3121  1.3400 -1.3614
 8952SOL     OW30260   6.997   7.262   1.661 -0.0352  0.2321  0.8390
 8952SOL    HW130261   7.057   7.281   1.589 -0.3813  1.5936  0.8932
 8952SOL    HW230262   6.910   7.281   1.625 -0.2861  0.0349  1.3361
 8953SOL     OW30263   1.137   8.898   2.347  0.0804  0.0738  0.0241
 8953SOL    HW130264   1.113   8.938   2.263 -0.8087  0.2751  0.3629
 8953SOL    HW230265   1.187   8.820   2.323  1.9974  1.4674 -0.6392
 8954SOL     OW30266   4.752   2.686   5.999  0.0107 -0.1480  0.1291
 8954SOL    HW130267   4.658   2.665   6.007  0.3798 -1.1832  2.0310
 8954SOL    HW230268   4.781   2.634   5.925 -0.4907 -1.4691  0.8365
 8955SOL     OW30269   1.153   4.070   2.582  0.3538 -0.1283  0.4189
 8955SOL    HW130270   1.065   4.107   2.592 -0.0223 -0.7387 -0.5231
 8955SOL    HW230271   1.186   4.062   2.671 -0.7063 -0.2386  0.8063
 8956SOL     OW30272   6.998   8.729   3.473 -0.3212  0.2946  0.0753
 8956SOL    HW130273   6.973   8.780   3.396  0.0071 -0.4944 -0.5641
 8956SOL    HW230274   6.945   8.650   3.467  1.6352 -0.9709 -0.7890
 8957SOL     OW30275   7.544   2.036   7.039  0.0818 -0.1203  0.3609
 8957SOL    HW130276   7.590   1.997   6.965  1.5137  0.7030  0.7775
 8957SOL    HW230277   7.493   1.965   7.077  0.7340 -0.9732 -0.3537
 8958SOL     OW30278   4.108   7.596   1.083  0.0254 -0.6448  0.4036
 8958SOL    HW130279   4.041   7.564   1.023 -0.8514 -2.1349  2.1041
 8958SOL    HW230280   4.106   7.534   1.156  2.7237 -0.2636  0.8526
 8959SOL     OW30281   7.989  10.402   7.534 -0.0388  0.1448 -0.1773
 8959SOL    HW130282   7.925  10.466   7.503 -1.1862 -0.6514  0.4989
 8959SOL    HW230283   8.069  10.453   7.549 -1.1543  1.5891  1.0723
 8960SOL     OW30284   1.059   8.718   4.401 -0.1352 -0.1373  0.2416
 8960SOL    HW130285   1.004   8.794   4.381 -0.4810 -0.5547 -0.4051
 8960SOL    HW230286   1.044   8.702   4.494  0.2354  0.8148  0.4792
 8961SOL     OW30287   8.321   4.208   9.480  0.5996  0.4489 -0.5569
 8961SOL    HW130288   8.292   4.298   9.486  2.3700  1.0095  0.1198
 8961SOL    HW230289   8.404   4.206   9.529  0.2951 -1.6572 -0.0623
 8962SOL     OW30290  10.695   8.859   3.685 -0.0555  0.0730 -0.5528
 8962SOL    HW130291  10.765   8.796   3.698 -0.1270  0.1062  0.0200
 8962SOL    HW230292  10.689   8.870   3.590 -0.6856 -1.4942 -0.7032
 8963SOL     OW30293   2.748   6.639   5.192 -0.0515 -0.4426 -0.2514
 8963SOL    HW130294   2.703   6.629   5.108 -1.7257 -0.7105  0.6406
 8963SOL    HW230295   2.797   6.558   5.203 -1.4431 -1.2845 -0.0614
 8964SOL     OW30296   6.458   7.775   1.350  0.1437  0.2166 -0.4469
 8964SOL    HW130297   6.518   7.848   1.366 -1.0936  1.2429 -0.3716
 8964SOL    HW230298   6.514   7.702   1.325  1.3623  1.3942 -1.2009
 8965SOL     OW30299   0.125  10.771   9.525  0.1857  0.5874 -0.0368
 8965SOL    HW130300   0.058  10.836   9.506  1.1935  2.2886  2.0954
 8965SOL    HW230301   0.084  10.710   9.586 -0.6114 -0.5916 -1.6925
 8966SOL     OW30302   7.774  10.684   3.515  0.0975 -0.3636 -0.4304
 8966SOL    HW130303   7.750  10.775   3.500 -2.4166  0.2533  5.8202
 8966SOL    HW230304   7.701  10.633   3.481 -0.9213  0.3323  0.6799
 8967SOL     OW30305   3.269   2.822   8.133  0.2206  0.3979 -0.2294
 8967SOL    HW130306   3.251   2.730   8.152  0.1450  0.4597  0.0113
 8967SOL    HW230307   3.209   2.844   8.061  0.6277  0.1126 -0.6537
 8968SOL     OW30308   2.070   5.118   7.914  0.3590  0.6500 -0.1936
 8968SOL    HW130309   2.076   5.208   7.882  0.2482  1.8324  2.9374
 8968SOL    HW230310   1.983   5.112   7.953  1.5662  0.2426  2.5458
 8969SOL     OW30311   7.227   3.401   0.963 -0.5655  1.1017  0.4262
 8969SOL    HW130312   7.197   3.492   0.954 -1.1323  0.8427 -0.4132
 8969SOL    HW230313   7.236   3.388   1.057  1.8833  2.7687  0.4452
 8970SOL     OW30314   3.614   1.224   4.932 -0.1860  0.0276  0.0723
 8970SOL    HW130315   3.527   1.262   4.944 -0.9701 -1.2281 -1.4378
 8970SOL    HW230316   3.617   1.150   4.992 -0.2960 -0.1228 -0.1046
 8971SOL     OW30317  10.660   3.488   0.008 -0.3533  0.4128  0.0217
 8971SOL    HW130318  10.713   3.455   0.081  0.2049  2.7798  0.7528
 8971SOL    HW230319  10.570   3.482   0.039 -0.2155  0.2019  0.3891
 8972SOL     OW30320   2.382   9.116   3.813  0.2631 -0.8515  0.6130
 8972SOL    HW130321   2.315   9.175   3.848  1.3292  0.5151  0.3690
 8972SOL    HW230322   2.346   9.088   3.729  0.4080  0.6654  0.0220
 8973SOL     OW30323   4.009   6.437  10.300  0.3816  0.3535 -0.2394
 8973SOL    HW130324   4.011   6.531  10.281  1.5996  0.6386  1.1726
 8973SOL    HW230325   4.063   6.397  10.232  1.5672  0.9253  0.3478
 8974SOL     OW30326   3.343   6.679   8.884  0.1380 -0.0660 -0.2924
 8974SOL    HW130327   3.367   6.642   8.799  1.1304 -2.0764  0.8597
 8974SOL    HW230328   3.317   6.604   8.937 -0.6977  1.2000  1.1223
 8975SOL     OW30329   5.779   4.447  10.444  0.4366  1.1223 -0.3979
 8975SOL    HW130330   5.735   4.362  10.439  0.2752  1.1831  0.0359
 8975SOL    HW230331   5.857   4.436  10.388  0.0337  0.9253 -0.9300
 8976SOL     OW30332   9.559   5.828   7.239  0.2456 -0.4573  0.2582
 8976SOL    HW130333   9.472   5.868   7.243  0.2203 -0.5660  0.7552
 8976SOL    HW230334   9.608   5.885   7.180  0.2789  0.4495  1.1403
 8977SOL     OW30335   8.168   9.383   6.284  0.1831  0.4544  0.2111
 8977SOL    HW130336   8.262   9.371   6.292  0.3150  1.0354 -0.4554
 8977SOL    HW230337   8.145   9.444   6.354  0.4659  1.1453 -0.2979
 8978SOL     OW30338   8.444   8.230   4.122  0.3566 -0.0463  0.3163
 8978SOL    HW130339   8.391   8.267   4.192  3.0784  0.2625  2.3175
 8978SOL    HW230340   8.427   8.136   4.125  0.6440 -0.0639  1.5900
 8979SOL     OW30341  10.794   4.664   1.484 -0.2387 -0.5961  0.6908
 8979SOL    HW130342  10.825   4.727   1.418  0.2134  0.7677  2.1795
 8979SOL    HW230343  10.718   4.623   1.443 -0.1834  0.4814 -0.5576
 8980SOL     OW30344   7.217   1.024   0.885  0.4340  0.0379  0.1242
 8980SOL    HW130345   7.165   0.983   0.954 -0.1614 -0.4927 -0.6318
 8980SOL    HW230346   7.160   1.024   0.808  1.4108 -0.2310 -0.6186
 8981SOL     OW30347   3.135  10.472   4.628  0.2426  0.1657  0.6682
 8981SOL    HW130348   3.210  10.451   4.572 -0.1809 -0.2763  0.2551
 8981SOL    HW230349   3.158  10.436   4.714  0.8483  0.7466  0.7538
 8982SOL     OW30350   5.881   2.167  10.593  0.6168  0.2149 -0.3903
 8982SOL    HW130351   5.800   2.119  10.577  1.5037 -1.0322 -1.2268
 8982SOL    HW230352   5.951   2.102  10.580  1.7646  1.3354  0.0383
 8983SOL     OW30353   2.849   5.780   1.286  0.3245  0.0632  0.3047
 8983SOL    HW130354   2.780   5.809   1.346 -0.9537 -1.5109 -0.3837
 8983SOL    HW230355   2.862   5.855   1.227  1.1219  1.3690  2.0819
 8984SOL     OW30356   3.779   9.312   1.104  0.2862  0.7772  0.0843
 8984SOL    HW130357   3.728   9.280   1.178  1.3277 -2.2088 -0.4276
 8984SOL    HW230358   3.741   9.268   1.028  0.7526  1.9918 -0.8698
 8985SOL     OW30359   8.662   4.353  10.144 -0.0496 -0.1949  0.5428
 8985SOL    HW130360   8.582   4.371  10.195 -0.4422  0.3044 -0.2434
 8985SOL    HW230361   8.734   4.374  10.204 -0.4830  3.0549  0.0260
 8986SOL     OW30362  10.418   8.904   7.864 -0.2050 -0.5239  0.1702
 8986SOL    HW130363  10.352   8.836   7.851  0.4095 -1.0379 -0.3555
 8986SOL    HW230364  10.491   8.876   7.809  0.4025  0.0919  0.6594
 8987SOL     OW30365   5.630  10.011   5.436  0.0998  0.3080  0.0421
 8987SOL    HW130366   5.569   9.978   5.501 -0.3042  1.5119  0.2855
 8987SOL    HW230367   5.716  10.003   5.477 -0.1628  1.1268  0.7469
 8988SOL     OW30368   6.005   5.055   4.935  0.3563  0.4457 -0.5366
 8988SOL    HW130369   5.985   5.136   4.889  1.6789  0.2014 -1.5812
 8988SOL    HW230370   6.100   5.043   4.923  0.8983  0.7644  2.8980
 8989SOL     OW30371   2.792   8.408   5.355 -0.1123  0.9167 -0.0051
 8989SOL    HW130372   2.791   8.448   5.268  2.2799 -1.0988 -1.0117
 8989SOL    HW230373   2.884   8.383   5.369 -1.0699 -1.9002  1.6228
 8990SOL     OW30374   5.104   4.020  10.204 -0.0092 -0.1080 -0.1683
 8990SOL    HW130375   5.129   4.103  10.245 -0.6574 -0.7016  1.5133
 8990SOL    HW230376   5.041   4.044  10.137  0.6408  0.8609 -0.4301
 8991SOL     OW30377   0.410   6.678   5.779  0.0551  0.0672  0.7110
 8991SOL    HW130378   0.477   6.614   5.804 -0.3572  0.3557  2.6050
 8991SOL    HW230379   0.336   6.625   5.751  0.5965 -0.2603 -0.1330
 8992SOL     OW30380   4.081   9.406   5.478 -0.0452 -0.1003  0.6994
 8992SOL    HW130381   4.079   9.320   5.437 -0.4947 -0.1546  0.8336
 8992SOL    HW230382   4.023   9.398   5.554  1.3981 -0.2359  1.8079
 8993SOL     OW30383   5.039   0.104   4.118 -0.4600 -0.3639 -0.1400
 8993SOL    HW130384   5.106   0.038   4.102  1.3630  1.9308 -2.2957
 8993SOL    HW230385   5.004   0.124   4.031 -2.2373  0.2719  0.6873
 8994SOL     OW30386   8.900   6.824   1.894 -0.5109  0.5372  0.0320
 8994SOL    HW130387   8.871   6.748   1.944 -0.0605  0.3907  0.0755
 8994SOL    HW230388   8.927   6.789   1.809  0.6109  0.5045  0.3863
 8995SOL     OW30389   9.435   3.571   6.095 -0.0235  0.0797  0.4810
 8995SOL    HW130390   9.420   3.502   6.030 -0.0690  0.8649 -0.3387
 8995SOL    HW230391   9.365   3.559   6.159 -0.3622 -0.2878  0.0432
 8996SOL     OW30392   5.450   9.205  10.320 -0.0446  0.2916 -0.0012
 8996SOL    HW130393   5.448   9.270  10.250  1.2256  1.8967  1.3975
 8996SOL    HW230394   5.440   9.121  10.276 -0.3543  1.3488 -1.9835
 8997SOL     OW30395   8.172  10.011  10.111  0.0141  0.3167  0.4009
 8997SOL    HW130396   8.076  10.010  10.113  0.0221  0.5802  1.4475
 8997SOL    HW230397   8.194  10.009  10.018 -0.9446 -3.4715  0.1811
 8998SOL     OW30398   0.112  10.032   7.967  0.1539 -0.6280  0.4793
 8998SOL    HW130399   0.178   9.987   8.021 -0.0731 -0.7689  0.6379
 8998SOL    HW230400   0.151  10.118   7.950 -0.3435 -0.0878  1.9893
 8999SOL     OW30401   6.831   0.808   1.346 -0.0123 -0.2807 -0.1216
 8999SOL    HW130402   6.770   0.766   1.285 -0.2297 -0.4364  0.2049
 8999SOL    HW230403   6.859   0.738   1.404 -0.2750 -0.0019  0.3422
 9000SOL     OW30404   0.965   7.776   5.331 -0.4141  0.1125 -0.2565
 9000SOL    HW130405   0.935   7.695   5.290 -0.0581 -0.1736  0.0599
 9000SOL    HW230406   1.047   7.796   5.287 -0.9152  0.7520 -0.9241
 9001SOL     OW30407   7.894   7.296   6.381  0.6037 -0.3152  0.0898
 9001SOL    HW130408   7.884   7.240   6.304 -0.1662  0.4799 -0.3955
 9001SOL    HW230409   7.817   7.276   6.435 -0.6692  1.6076 -0.9541
 9002SOL     OW30410   6.734  10.133   7.534  0.6041 -0.3376  0.4003
 9002SOL    HW130411   6.778  10.211   7.500 -1.0381  0.0955 -0.8052
 9002SOL    HW230412   6.774  10.060   7.486 -0.8636  0.1715 -1.6806
 9003SOL     OW30413  10.458   1.433   4.080  0.1684  0.5765  0.2278
 9003SOL    HW130414  10.446   1.352   4.129 -1.0317 -0.0053 -1.0187
 9003SOL    HW230415  10.542   1.467   4.111  1.0057 -1.4716  0.3075
 9004SOL     OW30416   0.936   2.708   6.539  0.0577  0.6256  0.6211
 9004SOL    HW130417   0.949   2.673   6.627 -1.0345  0.5431  0.7621
 9004SOL    HW230418   1.016   2.756   6.519  0.6409 -0.0564  1.3323
 9005SOL     OW30419   3.200   2.317   3.330  0.3989  0.0419 -0.5537
 9005SOL    HW130420   3.113   2.277   3.322  0.1237  0.4529  0.3403
 9005SOL    HW230421   3.186   2.408   3.303  1.2388 -0.6907 -3.6242
 9006SOL     OW30422   3.734   4.786   1.767  0.6439 -0.1414  0.1383
 9006SOL    HW130423   3.791   4.830   1.830  1.2146  0.7152 -0.9607
 9006SOL    HW230424   3.649   4.828   1.778  1.1586  1.1935 -0.8230
 9007SOL     OW30425   8.539   0.857   7.229 -0.4127 -0.3845  0.4104
 9007SOL    HW130426   8.630   0.835   7.251  0.4406  0.9673 -1.5458
 9007SOL    HW230427   8.519   0.801   7.154 -0.7183  0.3134 -0.0310
 9008SOL     OW30428   8.848   0.768   5.842  0.7319 -0.0126  0.1030
 9008SOL    HW130429   8.881   0.857   5.830 -1.7981  1.0625  0.7145
 9008SOL    HW230430   8.823   0.740   5.753 -0.6540  0.8167  0.2148
 9009SOL     OW30431   9.748   8.110   7.701  0.1709  0.1466 -0.3571
 9009SOL    HW130432   9.702   8.188   7.733  2.5487  2.2073 -1.8385
 9009SOL    HW230433   9.841   8.133   7.704  0.8102 -1.8605 -2.7458
 9010SOL     OW30434   6.957   7.830   2.641  0.0188 -0.6956  0.0241
 9010SOL    HW130435   7.011   7.753   2.661 -0.3542 -1.2121 -0.9399
 9010SOL    HW230436   6.978   7.893   2.710  0.7373 -1.4594  0.5027
 9011SOL     OW30437   0.304   6.166   9.004  0.1912 -0.0745 -0.2208
 9011SOL    HW130438   0.260   6.238   8.958  0.6261 -0.8284 -1.8435
 9011SOL    HW230439   0.388   6.158   8.961  0.6408 -0.7626  0.7684
 9012SOL     OW30440   7.743   1.507   9.248  0.7010  0.3626  0.0647
 9012SOL    HW130441   7.702   1.455   9.317  1.2559  0.9089  0.8236
 9012SOL    HW230442   7.687   1.495   9.172  0.4572 -0.7999  0.4201
 9013SOL     OW30443   1.257   9.217   6.032  0.0832 -0.2899  0.2611
 9013SOL    HW130444   1.233   9.168   5.954 -2.0462 -0.2997  0.9101
 9013SOL    HW230445   1.296   9.152   6.090 -0.8115 -0.8164  0.2806
 9014SOL     OW30446   1.658   0.756   1.397 -0.0794  0.3458 -0.2263
 9014SOL    HW130447   1.694   0.830   1.447  0.3932  0.2309 -0.3903
 9014SOL    HW230448   1.576   0.789   1.360 -0.0562  0.6687  0.0106
 9015SOL     OW30449   0.009   0.041   8.584 -0.5076  0.1156  0.3738
 9015SOL    HW130450  -0.037   0.037   8.669 -0.4779 -0.2934  0.3695
 9015SOL    HW230451   0.066   0.118   8.592  0.1216 -0.4103  1.0381
 9016SOL     OW30452   4.712   4.808   9.424 -0.1869  0.1116 -0.3790
 9016SOL    HW130453   4.749   4.720   9.420  0.2779  0.3134 -0.5542
 9016SOL    HW230454   4.617   4.794   9.427 -0.1070 -0.4002 -0.1695
 9017SOL     OW30455   0.412  10.396   4.018 -0.2546 -0.1552 -0.3634
 9017SOL    HW130456   0.331  10.442   4.041 -0.3376  0.7521 -2.3139
 9017SOL    HW230457   0.396  10.365   3.929  1.1717 -0.8630 -0.3724
 9018SOL     OW30458   4.858   7.245   4.781  0.1147  0.1622  0.0184
 9018SOL    HW130459   4.894   7.159   4.759  0.0834  0.2985 -0.5727
 9018SOL    HW230460   4.794   7.227   4.850  0.2320 -0.2658  0.0203
 9019SOL     OW30461   8.893   0.075   0.817  0.2125  0.1438 -0.1994
 9019SOL    HW130462   8.815   0.130   0.808 -0.2824 -0.3143  1.2331
 9019SOL    HW230463   8.863  -0.012   0.791  0.9968  0.5114 -2.4709
 9020SOL     OW30464   2.205   0.876   4.737 -0.2738 -0.4594  0.4193
 9020SOL    HW130465   2.195   0.793   4.783 -0.4829 -0.1111  1.0209
 9020SOL    HW230466   2.193   0.855   4.645 -0.1730 -1.1200  0.5581
 9021SOL     OW30467   7.907   7.280   1.407 -0.0266 -0.0037 -0.0422
 9021SOL    HW130468   7.857   7.226   1.346 -2.1141  0.3000  1.3741
 9021SOL    HW230469   7.912   7.229   1.487  1.7244  0.0982 -0.0528
 9022SOL     OW30470  10.687   8.408   5.466  0.0334  0.0084  0.0203
 9022SOL    HW130471  10.637   8.370   5.394  0.9514 -2.4454  0.6527
 9022SOL    HW230472  10.626   8.409   5.540 -0.3392  0.8708 -0.2828
 9023SOL     OW30473   4.468   1.764   0.593  0.0530  0.1214 -0.7994
 9023SOL    HW130474   4.551   1.808   0.609 -0.0611 -0.6144  2.1718
 9023SOL    HW230475   4.493   1.673   0.572  0.0354  0.2324 -1.3207
 9024SOL     OW30476   2.734   0.474  10.611 -0.1143 -0.1187  0.7877
 9024SOL    HW130477   2.727   0.456  10.705  1.3475  0.5092  1.0304
 9024SOL    HW230478   2.724   0.569  10.604  1.8775  0.0939  0.5508
 9025SOL     OW30479   1.367   9.893   0.193  0.4118 -0.6524  0.4311
 9025SOL    HW130480   1.286   9.850   0.222 -1.3842  1.2568 -1.5773
 9025SOL    HW230481   1.436   9.850   0.243 -1.7904 -2.6736  1.8401
 9026SOL     OW30482   6.348   9.707   8.584  0.1046 -0.3613 -0.6385
 9026SOL    HW130483   6.334   9.667   8.670  0.4229 -0.3594 -0.5824
 9026SOL    HW230484   6.311   9.795   8.591 -0.6523 -0.6625 -0.7755
 9027SOL     OW30485  10.243   7.270   3.963 -0.0512  0.2697 -0.1590
 9027SOL    HW130486  10.324   7.291   3.916 -0.2804  0.2678 -0.5571
 9027SOL    HW230487  10.240   7.174   3.964  0.1340  0.2636  0.1800
 9028SOL     OW30488   7.064   7.825   0.220 -0.3976 -0.2045 -0.2244
 9028SOL    HW130489   6.980   7.799   0.182 -0.6872 -0.1099  0.3381
 9028SOL    HW230490   7.118   7.746   0.216 -0.6349 -0.3658 -0.2595
 9029SOL     OW30491   3.116   2.750   6.485 -0.1841 -0.1743  0.2494
 9029SOL    HW130492   3.199   2.706   6.467 -1.6064 -3.1171  0.5551
 9029SOL    HW230493   3.131   2.798   6.566  0.8631 -1.7825  1.0389
 9030SOL     OW30494   2.646   3.071  10.687 -0.3764  0.0916 -0.1800
 9030SOL    HW130495   2.717   3.134  10.702 -0.7107  0.5618 -0.5619
 9030SOL    HW230496   2.577   3.122  10.645 -0.9938 -0.3381  0.2941
 9031SOL     OW30497  10.158   4.817   2.779 -0.5356 -0.1187  0.0921
 9031SOL    HW130498  10.209   4.767   2.715 -1.3364  1.5308 -1.8697
 9031SOL    HW230499  10.219   4.883   2.812 -0.0360 -1.1545  1.3019
 9032SOL     OW30500  10.596   8.604   6.653 -0.0160 -0.2562 -0.0263
 9032SOL    HW130501  10.632   8.626   6.566  1.3832  0.6453  0.7600
 9032SOL    HW230502  10.599   8.686   6.701  0.7459 -1.1069  1.4074
 9033SOL     OW30503   8.391   5.276   2.918 -0.1508  0.4121  0.6153
 9033SOL    HW130504   8.478   5.242   2.939 -0.7104 -1.6958 -0.3293
 9033SOL    HW230505   8.401   5.317   2.832 -0.0966  0.0023  0.4199
 9034SOL     OW30506   8.823   3.960   7.268  0.0163  0.5415  0.0989
 9034SOL    HW130507   8.843   3.991   7.356 -0.1785  0.7875  0.0606
 9034SOL    HW230508   8.727   3.954   7.266 -0.1912  3.1051 -0.9189
 9035SOL     OW30509   1.159   0.815   0.236 -0.2259 -0.2601 -0.4426
 9035SOL    HW130510   1.078   0.833   0.284 -0.7276 -0.4640 -1.2170
 9035SOL    HW230511   1.224   0.799   0.305 -0.6502  0.7128  0.1972
 9036SOL     OW30512   9.630   3.713   5.222 -0.1724 -1.0103  0.1466
 9036SOL    HW130513   9.592   3.786   5.172 -0.4126 -1.5747 -0.5090
 9036SOL    HW230514   9.720   3.705   5.189  0.7481  0.7144  2.1238
 9037SOL     OW30515   7.237   8.207   7.966  0.6067  0.0604  0.0444
 9037SOL    HW130516   7.247   8.114   7.945  0.4260 -0.1436  0.8636
 9037SOL    HW230517   7.325   8.238   7.984  0.6560  0.0299 -0.1457
 9038SOL     OW30518   6.229   0.831   1.477 -0.4104 -0.2427 -0.2255
 9038SOL    HW130519   6.201   0.740   1.468 -0.1573 -0.4425  0.8982
 9038SOL    HW230520   6.324   0.825   1.487 -0.4203  0.1299  0.0757
 9039SOL     OW30521   9.427   6.581  10.001  0.3522  0.9329  0.2127
 9039SOL    HW130522   9.346   6.546   9.963 -0.1570  0.9616  1.2740
 9039SOL    HW230523   9.478   6.504  10.024  0.2275  0.9062  0.4008
 9040SOL     OW30524   9.466   3.001   9.573 -0.2861  0.0740  0.3092
 9040SOL    HW130525   9.448   3.051   9.493  1.0682  0.1799  0.0628
 9040SOL    HW230526   9.521   3.060   9.626 -0.0492 -0.5219  0.7307
 9041SOL     OW30527   1.892   8.188   5.093 -0.0296  0.6487 -0.3521
 9041SOL    HW130528   1.840   8.216   5.018  0.5273  0.4397 -0.8196
 9041SOL    HW230529   1.888   8.262   5.154 -2.8718 -0.3008  0.6940
 9042SOL     OW30530   8.732   8.284   8.715 -0.0272  0.2949 -0.0668
 9042SOL    HW130531   8.814   8.238   8.730  0.0030  0.0468 -0.9799
 9042SOL    HW230532   8.706   8.315   8.802  1.4383  1.0728  0.1125
 9043SOL     OW30533   2.641   4.233   5.629  0.2255 -0.4929  0.0779
 9043SOL    HW130534   2.572   4.202   5.688  0.9385  0.8431  1.6662
 9043SOL    HW230535   2.711   4.169   5.638 -0.3502 -1.2436 -0.6812
 9044SOL     OW30536  10.582   5.911   5.656  0.0627 -0.3682  0.8164
 9044SOL    HW130537  10.494   5.931   5.624  0.4139  1.6510  1.0803
 9044SOL    HW230538  10.621   5.857   5.588 -1.6767 -2.0345  1.0975
 9045SOL     OW30539   6.081   9.442   3.348  0.1482  0.8201  0.6051
 9045SOL    HW130540   6.173   9.425   3.370 -0.0327 -0.4704  0.3791
 9045SOL    HW230541   6.073   9.417   3.256 -1.1081 -1.8723  1.4090
 9046SOL     OW30542   2.427   2.148   6.014 -0.1142 -0.7852  0.3339
 9046SOL    HW130543   2.517   2.145   6.049  0.9472 -0.1350 -2.2109
 9046SOL    HW230544   2.420   2.235   5.974 -1.5573 -1.2127 -0.3703
 9047SOL     OW30545   3.080   2.041   4.015 -0.5110  0.2990  0.0038
 9047SOL    HW130546   3.144   1.970   4.024  0.0512  0.8387  0.3238
 9047SOL    HW230547   3.046   2.053   4.103 -1.8709 -0.7271 -0.3654
 9048SOL     OW30548  10.899   6.486   3.570  0.7256 -0.0309 -0.3503
 9048SOL    HW130549  10.960   6.560   3.578  1.0242 -0.4767  1.7041
 9048SOL    HW230550  10.937   6.417   3.624 -1.0904 -0.6624  0.1517
 9049SOL     OW30551   7.384   1.525   5.682 -0.7474 -0.2316 -0.7449
 9049SOL    HW130552   7.374   1.441   5.638 -1.6902  0.3350 -1.6553
 9049SOL    HW230553   7.331   1.585   5.629 -3.2727  0.1451  2.0773
 9050SOL     OW30554   0.216   4.714   1.377 -0.3917 -0.0576 -0.6965
 9050SOL    HW130555   0.131   4.758   1.388 -0.5536 -0.6042  0.3265
 9050SOL    HW230556   0.200   4.646   1.312 -0.1004  1.4599 -2.4270
 9051SOL     OW30557   4.923   4.395   3.828 -0.0672  0.1944 -0.3529
 9051SOL    HW130558   4.835   4.416   3.797 -0.0948  0.2365 -0.2479
 9051SOL    HW230559   4.914   4.310   3.871 -0.0960  0.2852 -0.1768
 9052SOL     OW30560   1.825   3.793   2.412  0.1027  0.2641  0.4899
 9052SOL    HW130561   1.904   3.740   2.426 -1.9847 -3.7277 -1.8608
 9052SOL    HW230562   1.784   3.798   2.499  1.8785  0.5933  1.3150
 9053SOL     OW30563   6.167   7.349   6.682  0.5088 -0.6050  0.0764
 9053SOL    HW130564   6.242   7.327   6.628 -0.2932 -0.2772 -1.1956
 9053SOL    HW230565   6.130   7.427   6.641  0.3085  0.0850  1.5295
 9054SOL     OW30566   9.920   4.619   0.777 -0.3468  0.7121 -0.2277
 9054SOL    HW130567   9.913   4.683   0.706 -2.1407 -0.9693 -1.6228
 9054SOL    HW230568  10.011   4.626   0.806  0.8986  0.3076 -3.7907
 9055SOL     OW30569  10.585   9.975   5.103  0.2136  0.1058  0.2023
 9055SOL    HW130570  10.648  10.042   5.078 -1.2129  1.3590 -0.1260
 9055SOL    HW230571  10.612   9.946   5.190 -0.1939  2.4189  1.1306
 9056SOL     OW30572   7.195   9.353   4.139  0.0432 -0.0691 -0.6261
 9056SOL    HW130573   7.187   9.286   4.071 -2.5836  0.8877 -1.3663
 9056SOL    HW230574   7.134   9.325   4.208 -0.7203  1.2793 -0.7339
 9057SOL     OW30575   7.968   5.672   9.425  0.2032  0.5603 -0.2032
 9057SOL    HW130576   7.991   5.638   9.339  0.5259  2.3129 -0.8352
 9057SOL    HW230577   7.892   5.620   9.451 -1.0169  1.2041 -2.3434
 9058SOL     OW30578   5.849   1.179   9.427  0.4265 -0.4552  0.1743
 9058SOL    HW130579   5.870   1.099   9.378 -1.4682 -0.2594 -1.0416
 9058SOL    HW230580   5.787   1.225   9.371 -1.7695 -0.1701  2.7528
 9059SOL     OW30581   2.263   8.645   1.118 -0.3639  0.0531 -0.5662
 9059SOL    HW130582   2.349   8.684   1.102  0.1470 -1.1867 -0.9295
 9059SOL    HW230583   2.240   8.604   1.034 -0.9213 -0.3604 -0.2122
 9060SOL     OW30584   6.751   7.890   7.248  0.0612  0.0678  0.4078
 9060SOL    HW130585   6.812   7.941   7.193  0.1113 -0.3085  0.1153
 9060SOL    HW230586   6.677   7.872   7.191 -1.0614  1.9256  1.2513
 9061SOL     OW30587   7.052   6.783   1.399 -0.1107  0.1771 -0.4635
 9061SOL    HW130588   7.088   6.784   1.488  0.2489  0.0514 -0.6074
 9061SOL    HW230589   6.958   6.794   1.412 -0.2495 -1.4494  0.0223
 9062SOL     OW30590   9.884   7.116   8.576 -0.3330  0.5869 -0.2305
 9062SOL    HW130591   9.794   7.113   8.607 -0.5219  3.9027 -0.2837
 9062SOL    HW230592   9.937   7.109   8.655 -0.5677 -2.3369 -0.2825
 9063SOL     OW30593   7.940   2.425   9.171 -0.1963 -0.7384 -0.0435
 9063SOL    HW130594   7.970   2.390   9.087 -0.1668  1.1145 -0.8330
 9063SOL    HW230595   7.928   2.519   9.155 -1.7279 -0.6323  1.5918
 9064SOL     OW30596   5.945   6.319   5.982  0.0461 -0.1856 -0.0715
 9064SOL    HW130597   5.935   6.236   5.935  1.4630 -0.3075 -0.1658
 9064SOL    HW230598   5.992   6.296   6.062  2.1767  0.8045 -0.9970
 9065SOL     OW30599  10.389   1.033   7.584  0.0053 -0.3059 -0.1472
 9065SOL    HW130600  10.336   1.109   7.607  0.8349 -0.3409  1.9239
 9065SOL    HW230601  10.413   1.048   7.492 -0.0020  1.8196  0.1783
 9066SOL     OW30602   1.836  10.030   9.564  0.0626 -0.2088 -0.0810
 9066SOL    HW130603   1.868   9.955   9.514  0.3199 -1.0279  1.2781
 9066SOL    HW230604   1.885  10.027   9.646 -0.5251  0.9637  0.3258
 9067SOL     OW30605   3.469   6.066   7.614  0.0119  0.3949 -0.0399
 9067SOL    HW130606   3.467   6.058   7.519  1.1953 -1.4662  0.0714
 9067SOL    HW230607   3.409   5.998   7.646  0.6594  0.1007  0.5719
 9068SOL     OW30608   7.050   7.297   4.340 -0.3506  0.3838 -0.7416
 9068SOL    HW130609   7.044   7.389   4.362  0.7777  0.4772 -0.7997
 9068SOL    HW230610   7.097   7.257   4.413  1.0403  0.2359 -1.6846
 9069SOL     OW30611   3.781   4.547   1.937  0.4946  0.1990  0.1847
 9069SOL    HW130612   3.752   4.622   1.885  0.3442 -0.2193 -0.3382
 9069SOL    HW230613   3.852   4.581   1.991 -0.4700  1.0475  0.9230
 9070SOL     OW30614   0.149   4.877   2.754  0.1121  0.6062  0.5054
 9070SOL    HW130615   0.239   4.872   2.785 -0.2458  0.2502  1.4840
 9070SOL    HW230616   0.115   4.788   2.763 -0.2235  0.6585 -0.2165
 9071SOL     OW30617  10.273   2.522  10.939  0.1348  0.2146 -0.1765
 9071SOL    HW130618  10.229   2.604  10.963  0.5373 -0.0069  1.2953
 9071SOL    HW230619  10.319   2.544  10.857  2.9766  2.4237  1.9189
 9072SOL     OW30620   5.928   7.240   0.205  0.1246 -0.1682 -0.9357
 9072SOL    HW130621   6.019   7.218   0.184  0.6159  0.6381  0.2469
 9072SOL    HW230622   5.932   7.270   0.296 -1.2122  0.5768 -1.1193
 9073SOL     OW30623   9.992   9.848  10.380 -0.6379  0.2120  0.7982
 9073SOL    HW130624   9.920   9.817  10.324 -0.1537  0.2854  0.1315
 9073SOL    HW230625  10.011   9.936  10.347 -1.5608  0.9714  2.2511
 9074SOL     OW30626   1.537   8.210   8.361 -0.5880 -0.1827 -0.0577
 9074SOL    HW130627   1.547   8.286   8.304 -0.3254  0.6981  1.1378
 9074SOL    HW230628   1.569   8.137   8.309  0.7289  0.7797 -0.6311
 9075SOL     OW30629   7.224   8.530   0.209  0.3547 -0.1802 -0.5793
 9075SOL    HW130630   7.300   8.581   0.240 -1.0951  0.4257  2.1650
 9075SOL    HW230631   7.171   8.594   0.163  1.0946 -0.4207 -1.7839
 9076SOL     OW30632   9.434   6.348   6.147  0.4108  0.1933  0.5559
 9076SOL    HW130633   9.391   6.405   6.083  2.5891  0.2998 -0.8692
 9076SOL    HW230634   9.453   6.405   6.221 -0.8212  0.4071  0.7196
 9077SOL     OW30635   4.526   2.181   0.027 -0.0540 -0.0930  0.2100
 9077SOL    HW130636   4.549   2.228   0.107  1.5546 -0.6262  0.0827
 9077SOL    HW230637   4.470   2.109   0.057 -1.1632  0.9350  0.5987
 9078SOL     OW30638   0.694   0.581   5.610 -0.5151 -0.2226  0.0358
 9078SOL    HW130639   0.724   0.491   5.600 -2.1567 -0.6409 -1.3937
 9078SOL    HW230640   0.773   0.634   5.600  0.5152 -1.4903  1.1739
 9079SOL     OW30641   3.904   3.172  10.022 -0.1829 -0.3839  0.3196
 9079SOL    HW130642   3.981   3.154  10.075 -0.5166 -0.0453  0.9277
 9079SOL    HW230643   3.851   3.092  10.030  0.2343 -0.7332 -0.3405
 9080SOL     OW30644   0.716   4.884   4.493  0.1885  0.2000  0.5499
 9080SOL    HW130645   0.627   4.878   4.527  0.7604 -0.5454  2.0015
 9080SOL    HW230646   0.770   4.895   4.572  1.5937 -1.8420 -0.0757
 9081SOL     OW30647   4.418   6.448   5.704  0.3840  0.1512  0.1162
 9081SOL    HW130648   4.502   6.473   5.742 -0.8154  0.7573  2.4850
 9081SOL    HW230649   4.369   6.530   5.696 -0.0148 -0.2030 -1.1789
 9082SOL     OW30650   1.723   3.206  10.644 -0.9399 -0.4160 -0.4295
 9082SOL    HW130651   1.725   3.265  10.720 -1.6282 -1.9090  0.7726
 9082SOL    HW230652   1.800   3.150  10.655 -0.4345  0.0800 -1.4275
 9083SOL     OW30653  10.520   8.548   0.757 -0.1988  0.0593  0.3148
 9083SOL    HW130654  10.573   8.469   0.766 -0.3082  0.0439  0.8879
 9083SOL    HW230655  10.465   8.532   0.680 -1.1547 -0.9748  1.1773
 9084SOL     OW30656   2.789   7.821   1.168 -0.4885 -0.4713  0.2610
 9084SOL    HW130657   2.775   7.914   1.150 -1.1650 -0.5214  0.5032
 9084SOL    HW230658   2.821   7.785   1.085 -2.2484 -0.4282 -0.4681
 9085SOL     OW30659   9.360   7.077   9.884 -0.0129 -0.1454 -0.2666
 9085SOL    HW130660   9.352   7.080   9.789  0.2529  0.6471 -0.2691
 9085SOL    HW230661   9.440   7.127   9.903 -1.7014  2.3352  0.5681
 9086SOL     OW30662   1.521   9.230   2.760 -0.1271 -0.3071 -0.2778
 9086SOL    HW130663   1.588   9.192   2.704 -0.8450 -0.5911 -0.9454
 9086SOL    HW230664   1.454   9.263   2.700  0.6136  2.3236  0.2661
 9087SOL     OW30665   3.920   4.567   8.048  0.1433  0.0112 -0.7557
 9087SOL    HW130666   3.878   4.591   8.131  0.0419 -1.6690 -0.3119
 9087SOL    HW230667   3.847   4.538   7.993  0.4520 -0.8325 -0.7242
 9088SOL     OW30668   6.194   2.746   8.285  0.4733  0.3140 -0.3390
 9088SOL    HW130669   6.198   2.671   8.344 -0.1188  0.6741  0.1656
 9088SOL    HW230670   6.159   2.817   8.338 -0.0847  0.6434 -1.1298
 9089SOL     OW30671   8.380  10.967   3.008 -0.2226  0.1038  0.7842
 9089SOL    HW130672   8.326  10.917   3.069  0.2737 -0.5821  0.6709
 9089SOL    HW230673   8.384  11.054   3.046 -1.1833  0.0894  0.9344
 9090SOL     OW30674   3.100   5.681   6.330  0.0592 -0.6398  0.3945
 9090SOL    HW130675   3.055   5.620   6.388  1.0599  0.1803  2.0668
 9090SOL    HW230676   3.095   5.640   6.243 -1.1048 -2.0677  1.1135
 9091SOL     OW30677   1.824   0.210   8.605  0.0035 -0.6254  0.0256
 9091SOL    HW130678   1.915   0.233   8.620  0.0872 -1.0148  0.1203
 9091SOL    HW230679   1.782   0.292   8.578  0.6359 -0.7015 -1.2019
 9092SOL     OW30680   9.902   0.790  10.378  0.1087  0.2081 -0.3354
 9092SOL    HW130681   9.952   0.709  10.375 -1.7210 -0.9536  0.0063
 9092SOL    HW230682   9.847   0.783  10.456 -0.7514  1.3532 -0.8122
 9093SOL     OW30683   1.625   2.858   0.813  0.1857  0.5296  0.1326
 9093SOL    HW130684   1.560   2.790   0.796 -2.0264  2.6893 -0.3480
 9093SOL    HW230685   1.633   2.905   0.730  1.6006  0.9479  0.4876
 9094SOL     OW30686   5.693   5.209   2.871 -0.4005 -0.0755  0.3212
 9094SOL    HW130687   5.715   5.234   2.960 -1.1994 -0.6486  0.6855
 9094SOL    HW230688   5.767   5.156   2.842  0.5905  1.3985  0.0779
 9095SOL     OW30689   2.497   5.402   4.022 -0.0314  0.3304 -0.0690
 9095SOL    HW130690   2.490   5.336   4.091  0.7843  0.5219  0.2104
 9095SOL    HW230691   2.507   5.484   4.069 -1.8367  0.7552 -0.4169
 9096SOL     OW30692   5.845   8.531   5.527  0.0226  0.2451 -0.5837
 9096SOL    HW130693   5.790   8.588   5.580  1.4810 -0.0525  1.2748
 9096SOL    HW230694   5.922   8.584   5.507  0.2825 -0.2612 -0.9223
 9097SOL     OW30695   1.697   3.397   9.753 -0.2530  0.0329  0.0737
 9097SOL    HW130696   1.672   3.367   9.666 -0.6339  0.6102 -0.0206
 9097SOL    HW230697   1.699   3.317   9.807 -0.7648 -0.2205 -0.2852
 9098SOL     OW30698   8.918   6.966   3.106  1.1814  0.6228 -0.5779
 9098SOL    HW130699   8.827   6.960   3.075  1.5275 -0.2630 -1.4669
 9098SOL    HW230700   8.911   7.001   3.195  0.0587  1.9121 -1.1459
 9099SOL     OW30701   3.038  10.248  10.281 -0.6342  0.0531 -0.0779
 9099SOL    HW130702   3.015  10.155  10.284  0.4756 -0.2272  0.1900
 9099SOL    HW230703   2.960  10.291  10.248 -0.7042 -1.1564 -1.5947
 9100SOL     OW30704   5.572   7.011   5.784  0.0736 -0.1413 -0.7612
 9100SOL    HW130705   5.551   7.058   5.704 -0.0732 -0.6402 -1.0178
 9100SOL    HW230706   5.516   6.933   5.781  0.0093 -0.1212 -0.1406
 9101SOL     OW30707   6.639   0.738   5.356  0.5455 -0.5802 -0.9199
 9101SOL    HW130708   6.733   0.722   5.361  1.2534  1.3703 -5.5732
 9101SOL    HW230709   6.630   0.831   5.377 -0.4810 -0.9071  0.1672
 9102SOL     OW30710   6.256   5.566   9.304  0.0872  0.1697  0.2497
 9102SOL    HW130711   6.223   5.622   9.375  0.4445 -0.7735  1.1720
 9102SOL    HW230712   6.320   5.508   9.347 -0.1442 -0.8164 -0.7228
 9103SOL     OW30713  10.420   6.698   2.976  0.7794  0.2153 -0.4325
 9103SOL    HW130714  10.499   6.729   3.020 -1.0733  1.8202  1.8853
 9103SOL    HW230715  10.384   6.776   2.934 -1.4982  0.3107  1.6187
 9104SOL     OW30716   8.923   0.163   1.546 -0.1087  0.2418 -0.4431
 9104SOL    HW130717   8.860   0.121   1.488 -1.4744  1.1808  0.3301
 9104SOL    HW230718   8.886   0.152   1.633  2.9757 -3.0416  0.5513
 9105SOL     OW30719   3.979   0.211   3.863  0.0882 -0.2968 -0.1193
 9105SOL    HW130720   3.999   0.209   3.956  0.0682  0.7335 -0.0956
 9105SOL    HW230721   4.000   0.122   3.832  0.5084 -0.5065  0.7715
 9106SOL     OW30722   0.337   5.310   8.891  0.0680 -0.3317 -0.5598
 9106SOL    HW130723   0.353   5.346   8.803 -1.1510  0.2319 -0.5631
 9106SOL    HW230724   0.243   5.293   8.893  0.0976 -0.4018  0.6212
 9107SOL     OW30725   6.682   0.696   5.063  0.7471  0.4359 -0.1976
 9107SOL    HW130726   6.635   0.750   4.999  1.9427  0.0305 -1.4499
 9107SOL    HW230727   6.645   0.720   5.147 -2.0457 -0.2133 -1.1914
 9108SOL     OW30728   2.887   3.712   2.906  0.4609  0.1025 -0.4860
 9108SOL    HW130729   2.803   3.711   2.952  0.7485  1.9830  0.1227
 9108SOL    HW230730   2.889   3.630   2.857 -1.0444 -0.6618  0.7211
 9109SOL     OW30731   3.986   5.242   7.217 -0.7721 -0.8868 -0.1891
 9109SOL    HW130732   3.988   5.249   7.312  0.6080  0.8569 -0.3144
 9109SOL    HW230733   3.961   5.152   7.199 -1.2833 -1.1508  1.8247
 9110SOL     OW30734   5.871   8.972   5.602 -0.0078 -0.1098 -0.3926
 9110SOL    HW130735   5.905   9.022   5.677 -0.8795 -0.2848  0.1282
 9110SOL    HW230736   5.779   9.000   5.595 -0.0296 -0.3766 -1.1651
 9111SOL     OW30737   6.845   7.270  10.648  0.5345 -0.4975  0.2658
 9111SOL    HW130738   6.814   7.361  10.656  3.8966  0.8115 -0.7795
 9111SOL    HW230739   6.769   7.222  10.615 -0.7763  2.3005 -0.9709
 9112SOL     OW30740   1.329   3.427   8.545 -0.0467 -0.3885 -0.3706
 9112SOL    HW130741   1.251   3.476   8.519 -0.7743 -1.4184 -0.1356
 9112SOL    HW230742   1.334   3.354   8.483  0.8736 -0.1830 -0.5464
 9113SOL     OW30743   1.067   5.767   2.630  0.4233  0.2773  0.0304
 9113SOL    HW130744   1.162   5.780   2.628  0.7814 -2.1550  0.2086
 9113SOL    HW230745   1.048   5.735   2.718 -0.1273 -2.2142 -0.9612
 9114SOL     OW30746   3.639   1.382   6.333  0.8146 -0.6866  0.2056
 9114SOL    HW130747   3.712   1.365   6.274  0.4785 -1.6066  0.0390
 9114SOL    HW230748   3.646   1.475   6.355  1.7866 -0.6824 -0.1302
 9115SOL     OW30749   4.469   0.205   4.922  0.6864 -0.6627  0.4469
 9115SOL    HW130750   4.559   0.221   4.892  0.5428 -1.8667 -0.6738
 9115SOL    HW230751   4.475   0.208   5.018  1.7854 -0.0487  0.3727
 9116SOL     OW30752  10.588   1.784   6.220 -0.3828 -0.1206 -0.2752
 9116SOL    HW130753  10.619   1.813   6.134 -0.2446  1.6303  0.3289
 9116SOL    HW230754  10.492   1.790   6.214 -0.3943 -0.5890 -0.5125
 9117SOL     OW30755   2.393   4.014   7.575 -0.0152  0.3439  0.0977
 9117SOL    HW130756   2.474   4.063   7.560 -0.4387  2.1511  3.3681
 9117SOL    HW230757   2.326   4.062   7.526  0.5477 -0.2217 -1.2669
 9118SOL     OW30758   3.407   1.186   9.356  0.9475  0.1853 -0.3573
 9118SOL    HW130759   3.500   1.174   9.374  0.9400 -0.8228 -0.9614
 9118SOL    HW230760   3.372   1.097   9.351  0.1933  0.5339 -1.3358
 9119SOL     OW30761   9.668   1.261   9.756  0.7041  0.2856  0.5888
 9119SOL    HW130762   9.753   1.219   9.769  0.4248 -0.3353  0.4081
 9119SOL    HW230763   9.689   1.355   9.754  1.4311  0.1277  0.2439
 9120SOL     OW30764  10.255   8.380   8.403  0.4445 -0.0074  0.4642
 9120SOL    HW130765  10.302   8.401   8.484  1.2703 -2.0867  0.5708
 9120SOL    HW230766  10.163   8.389   8.426  0.7044  3.9849  0.3028
 9121SOL     OW30767   2.925   7.116   5.709 -0.0055 -0.3591  0.0036
 9121SOL    HW130768   2.868   7.162   5.770  0.5093  0.2661  0.0177
 9121SOL    HW230769   3.013   7.129   5.744  0.1527 -1.2626 -0.0541
 9122SOL     OW30770   0.348   9.320   8.365 -0.1552 -0.1568 -0.1580
 9122SOL    HW130771   0.293   9.244   8.384  0.2667 -0.4045  0.0708
 9122SOL    HW230772   0.295   9.373   8.304 -0.5332 -0.5250 -0.1524
 9123SOL     OW30773   3.269   6.301   0.013 -0.0508 -0.0161 -0.5697
 9123SOL    HW130774   3.277   6.339   0.100 -0.2746 -0.8330 -0.1908
 9123SOL    HW230775   3.278   6.376  -0.047  2.1770  0.2793  0.0899
 9124SOL     OW30776   8.207   6.742   9.416 -0.2623  0.4866  0.0415
 9124SOL    HW130777   8.196   6.695   9.499 -0.2292  1.7830  0.7980
 9124SOL    HW230778   8.288   6.706   9.379 -1.3982 -1.6383 -0.5077
 9125SOL     OW30779   6.089   2.878   0.880  0.0684 -0.2802 -0.0864
 9125SOL    HW130780   6.032   2.844   0.949  0.8933 -2.4980 -0.4581
 9125SOL    HW230781   6.048   2.851   0.798  1.3192 -1.3865 -0.3654
 9126SOL     OW30782   4.161   7.043   3.631  0.7872 -0.5571 -0.0687
 9126SOL    HW130783   4.115   7.117   3.669  1.4621 -0.5817  0.8143
 9126SOL    HW230784   4.184   7.071   3.543  1.1617  0.3386  0.3092
 9127SOL     OW30785  10.597   2.764   9.804 -0.0567  0.3611 -0.0696
 9127SOL    HW130786  10.516   2.813   9.815 -1.5566 -2.3022  1.1903
 9127SOL    HW230787  10.572   2.672   9.813  2.7880 -0.6407 -1.6092
 9128SOL     OW30788   2.636   7.048   3.341  0.1516 -0.5484  0.1603
 9128SOL    HW130789   2.722   7.021   3.311  0.5241 -0.6082  1.2639
 9128SOL    HW230790   2.653   7.103   3.417 -0.7733 -0.2919  0.1917
 9129SOL     OW30791   5.329  10.159   3.869  0.0478 -0.5044 -0.0293
 9129SOL    HW130792   5.360  10.138   3.781  0.9836 -1.1994  0.4568
 9129SOL    HW230793   5.234  10.151   3.864  0.0418  0.2932 -1.1945
 9130SOL     OW30794   0.989   2.979   0.678 -0.2569  1.0096 -0.4542
 9130SOL    HW130795   1.015   3.021   0.596  0.4656 -0.6300 -1.0774
 9130SOL    HW230796   0.977   3.052   0.739 -0.4214  2.2199 -1.9007
 9131SOL     OW30797   7.668   3.633   2.172 -0.0405  0.1576  0.8138
 9131SOL    HW130798   7.720   3.645   2.251  0.8529  0.5876  0.1766
 9131SOL    HW230799   7.726   3.662   2.101 -1.1019  0.4936  0.0739
 9132SOL     OW30800   5.398   4.381   6.021  0.4464  0.4921  0.7195
 9132SOL    HW130801   5.318   4.350   6.064  0.6213  0.2826  0.8956
 9132SOL    HW230802   5.426   4.456   6.073  0.4017  0.5229  0.6998
 9133SOL     OW30803   8.780   2.164   6.399  0.0239 -0.1366 -0.6356
 9133SOL    HW130804   8.842   2.228   6.364  0.7804 -0.6988 -0.3368
 9133SOL    HW230805   8.828   2.118   6.467 -1.2031  0.4122  0.6168
 9134SOL     OW30806   4.773   3.050   7.120  0.2140 -0.0600 -0.3330
 9134SOL    HW130807   4.743   2.984   7.058  1.9968 -0.0023 -1.3074
 9134SOL    HW230808   4.850   3.010   7.162  0.1229  0.6167  0.4981
 9135SOL     OW30809   7.286   4.310   3.035 -0.8065  0.2057 -0.3253
 9135SOL    HW130810   7.277   4.227   2.988  0.2339  0.4611 -1.0063
 9135SOL    HW230811   7.200   4.351   3.028 -0.9568 -0.2306 -1.1123
 9136SOL     OW30812   0.812   9.932  10.172 -0.1952 -0.3272 -0.2813
 9136SOL    HW130813   0.897   9.895  10.150 -0.5092 -1.2398  0.0364
 9136SOL    HW230814   0.802  10.007  10.113  0.8582 -0.1656 -0.2597
 9137SOL     OW30815   7.170   1.447   6.268 -0.5136  0.3969  0.4042
 9137SOL    HW130816   7.262   1.459   6.248 -1.0945  0.7671 -2.1396
 9137SOL    HW230817   7.170   1.399   6.351  1.9508  0.2057  0.3221
 9138SOL     OW30818   9.120   0.493   8.155  0.2040 -0.4572  0.1355
 9138SOL    HW130819   9.077   0.441   8.087 -0.5367 -0.2194  0.4149
 9138SOL    HW230820   9.090   0.582   8.140  1.8824 -0.0104 -0.6607
 9139SOL     OW30821   0.243   3.046   9.458 -0.0520 -0.0824 -0.3943
 9139SOL    HW130822   0.168   3.078   9.510 -0.6299 -1.3411 -0.4259
 9139SOL    HW230823   0.269   2.965   9.502  2.4840  1.2968  0.6992
 9140SOL     OW30824   1.323   7.319   2.291  0.0123  0.2311  0.3678
 9140SOL    HW130825   1.347   7.394   2.347 -0.5705  0.7651 -0.0906
 9140SOL    HW230826   1.305   7.358   2.206  3.1933 -0.8264 -0.8937
 9141SOL     OW30827   5.184   6.176   3.359 -0.1102 -0.0561 -0.5581
 9141SOL    HW130828   5.108   6.235   3.364 -0.6680 -0.8907  1.5522
 9141SOL    HW230829   5.237   6.199   3.435  1.3724  0.0009 -1.6061
 9142SOL     OW30830   0.345   0.030   9.221  0.3065 -0.4392 -0.1571
 9142SOL    HW130831   0.387   0.112   9.196 -1.3756  0.8716  1.1545
 9142SOL    HW230832   0.342   0.033   9.317 -1.8326 -0.9604 -0.1887
 9143SOL     OW30833   3.784   5.114   0.522 -0.8058  0.3995 -0.1190
 9143SOL    HW130834   3.783   5.184   0.587 -0.2664  2.0046 -1.7911
 9143SOL    HW230835   3.715   5.138   0.460 -0.0608 -0.1035 -1.1544
 9144SOL     OW30836   1.125   9.498  10.657 -0.7503 -0.4453 -0.1553
 9144SOL    HW130837   1.039   9.503  10.616 -0.6349 -0.5833 -0.4205
 9144SOL    HW230838   1.186   9.494  10.583 -0.3177  2.3871  0.0021
 9145SOL     OW30839   2.272   8.535  10.931  0.4635 -0.2394 -0.2019
 9145SOL    HW130840   2.180   8.524  10.908 -0.2083  2.0695  1.2112
 9145SOL    HW230841   2.300   8.611  10.880  1.5645 -0.8609 -0.5342
 9146SOL     OW30842   8.292   8.935   8.582  0.1541  0.2034 -0.1099
 9146SOL    HW130843   8.325   8.848   8.602  1.8667  0.9807  0.6117
 9146SOL    HW230844   8.205   8.921   8.545 -0.2382 -1.6900  1.4971
 9147SOL     OW30845   5.045   1.753   0.695 -0.3887 -0.0382  0.2545
 9147SOL    HW130846   4.996   1.673   0.717  2.1665 -1.5676  0.6353
 9147SOL    HW230847   5.109   1.724   0.631  0.8390  1.6353  0.7055
 9148SOL     OW30848   6.890   5.001   8.098 -0.0341  0.1198  0.5111
 9148SOL    HW130849   6.925   5.034   8.181 -0.7360 -1.8779  1.6241
 9148SOL    HW230850   6.797   5.023   8.102  0.5428  3.3012 -1.4066
 9149SOL     OW30851   6.984   6.035   4.853 -0.2331  0.2498 -0.5327
 9149SOL    HW130852   7.074   6.006   4.865 -0.6179 -1.1205 -0.7660
 9149SOL    HW230853   6.989   6.105   4.789  0.6345 -0.0578 -0.8076
 9150SOL     OW30854   1.211   2.787   1.511  0.5328  0.1667 -0.2321
 9150SOL    HW130855   1.224   2.695   1.532  1.2081  0.4831  0.7749
 9150SOL    HW230856   1.294   2.829   1.534  0.3406  0.9822 -0.9735
 9151SOL     OW30857   3.048   0.663   6.403  0.2949  0.9652 -0.2895
 9151SOL    HW130858   3.013   0.648   6.491  0.1523  2.3974 -0.0901
 9151SOL    HW230859   2.971   0.666   6.347  0.5414 -2.5582 -0.8860
 9152SOL     OW30860   8.532   9.140   9.967  0.4952  0.1302  0.7446
 9152SOL    HW130861   8.556   9.095  10.049  1.3063  0.7896  0.8747
 9152SOL    HW230862   8.614   9.178   9.936 -0.0014  0.6828  0.1085
 9153SOL     OW30863   8.020   5.313   3.871 -0.2747 -0.9549  0.2598
 9153SOL    HW130864   8.090   5.297   3.933 -0.2896  0.0139  0.5296
 9153SOL    HW230865   7.941   5.282   3.915 -0.1090 -1.4503  0.2101
 9154SOL     OW30866   1.525   6.613   2.678  0.0784 -0.3405  0.1184
 9154SOL    HW130867   1.520   6.679   2.609  1.5818 -0.1101  0.2095
 9154SOL    HW230868   1.441   6.620   2.724 -0.9201 -0.4511 -1.6304
 9155SOL     OW30869   3.894   0.643   3.487 -0.2918  0.1154 -0.1793
 9155SOL    HW130870   3.899   0.683   3.400 -0.5527 -1.1552 -0.7845
 9155SOL    HW230871   3.803   0.615   3.496 -0.0267 -0.6842  0.0788
 9156SOL     OW30872   8.773   8.020   0.173 -0.0198 -0.2235 -0.3364
 9156SOL    HW130873   8.837   7.985   0.112 -0.4678 -0.1002 -0.8852
 9156SOL    HW230874   8.820   8.088   0.222 -0.1291  0.9026 -1.7668
 9157SOL     OW30875   6.540   3.041   0.324 -0.1025 -0.2060  0.3437
 9157SOL    HW130876   6.531   3.021   0.418 -2.8981  0.0678  0.1849
 9157SOL    HW230877   6.564   3.134   0.322 -1.4984  0.1744  0.7751
 9158SOL     OW30878   8.033   3.717   0.736  0.3175 -0.2620 -0.1975
 9158SOL    HW130879   8.030   3.748   0.646  0.9881  0.5238  0.0442
 9158SOL    HW230880   8.016   3.623   0.730 -0.9890  0.0097 -1.0113
 9159SOL     OW30881   6.578   3.165   6.221  0.3593 -0.0575 -0.2133
 9159SOL    HW130882   6.571   3.083   6.172 -1.8364 -0.9074  1.4603
 9159SOL    HW230883   6.487   3.189   6.240  1.1055  1.2865  1.7409
 9160SOL     OW30884   2.183   3.429   9.816  0.3136  0.2546 -0.0137
 9160SOL    HW130885   2.231   3.399   9.893 -1.9450 -1.3415  0.8447
 9160SOL    HW230886   2.149   3.515   9.841  0.6361  0.2855  0.3141
 9161SOL     OW30887   6.321   4.924   1.074 -0.1756  0.0932 -0.4444
 9161SOL    HW130888   6.295   4.993   1.013  1.6528  1.6638  0.5068
 9161SOL    HW230889   6.398   4.959   1.120 -1.6621 -0.8863  2.9885
 9162SOL     OW30890   8.512   9.319   6.596 -0.0747 -0.5343  0.3524
 9162SOL    HW130891   8.458   9.342   6.672 -0.3083  0.3452 -0.0708
 9162SOL    HW230892   8.452   9.274   6.536 -0.2756  0.1590  0.0214
 9163SOL     OW30893   5.699   9.642   1.156 -0.0539 -0.1930 -0.0221
 9163SOL    HW130894   5.609   9.642   1.190 -0.6472 -1.6294 -1.5478
 9163SOL    HW230895   5.707   9.727   1.111 -0.1838  0.5108  1.2527
 9164SOL     OW30896   2.185   4.639   6.545 -0.4982 -0.1017  0.5158
 9164SOL    HW130897   2.151   4.558   6.582 -0.5007 -0.0588  0.6073
 9164SOL    HW230898   2.160   4.637   6.453  0.4428 -0.7247  0.2665
 9165SOL     OW30899   9.755   3.034   6.291 -0.3582 -0.9376 -0.0323
 9165SOL    HW130900   9.704   2.999   6.364  2.0120 -0.0139  2.1190
 9165SOL    HW230901   9.737   3.128   6.291  0.5142 -0.7700  0.0665
 9166SOL     OW30902   6.971   1.789   9.476  0.2015 -0.3410  0.3037
 9166SOL    HW130903   6.980   1.722   9.544  1.0513  0.1915  0.7267
 9166SOL    HW230904   7.059   1.824   9.465  0.3474 -1.3800 -2.0789
 9167SOL     OW30905   0.429   9.740  10.892  0.0557  0.0147  0.3977
 9167SOL    HW130906   0.406   9.649  10.909  0.6789 -0.1834  0.2061
 9167SOL    HW230907   0.348   9.779  10.860 -0.5229 -0.1672  1.6427
 9168SOL     OW30908   6.584   3.407   0.655  0.0677 -0.1569  0.0599
 9168SOL    HW130909   6.489   3.396   0.653  0.0333 -0.1735  1.4539
 9168SOL    HW230910   6.604   3.431   0.745  1.2575  1.1204 -0.5235
 9169SOL     OW30911   2.429  10.112   3.266 -0.0536  0.0085 -0.1324
 9169SOL    HW130912   2.523  10.126   3.279 -0.1780 -0.2431  1.1402
 9169SOL    HW230913   2.387  10.164   3.334 -0.7138 -2.0030  1.0606
 9170SOL     OW30914   9.534   8.009   4.943 -0.4397 -0.5520  0.0047
 9170SOL    HW130915   9.443   8.027   4.921 -0.2423 -1.7617 -1.9203
 9170SOL    HW230916   9.535   7.916   4.967  0.0950 -0.2696  1.0966
 9171SOL     OW30917   9.854  10.746   0.866  0.1276 -0.4479  0.5767
 9171SOL    HW130918   9.763  10.754   0.894  0.2457  0.5502  0.7244
 9171SOL    HW230919   9.855  10.777   0.775  0.2714 -0.6887  0.4956
 9172SOL     OW30920   6.794   0.660   6.626 -0.7146  0.6820 -0.2484
 9172SOL    HW130921   6.704   0.632   6.642 -0.7648  0.9883 -0.0057
 9172SOL    HW230922   6.828   0.596   6.564 -2.1574  2.4314 -2.9414
 9173SOL     OW30923   0.437   8.843   2.214  0.2976  0.0632  0.2848
 9173SOL    HW130924   0.380   8.767   2.228 -0.1545  0.1210 -1.1800
 9173SOL    HW230925   0.520   8.806   2.183  0.1967  0.1417 -0.0812
 9174SOL     OW30926   7.517   0.950   0.291  0.6633 -0.7873  0.3391
 9174SOL    HW130927   7.501   1.039   0.320  0.2062 -0.8471  0.2711
 9174SOL    HW230928   7.582   0.916   0.353  1.4991 -0.1235 -0.1554
 9175SOL     OW30929   6.642   8.782   7.148  0.7644 -0.3894 -0.2577
 9175SOL    HW130930   6.598   8.732   7.079 -0.4997  0.0253  0.2404
 9175SOL    HW230931   6.605   8.870   7.141 -0.3637 -0.6704  1.7992
 9176SOL     OW30932   4.988   4.709   7.758 -0.2799  0.0673 -0.1136
 9176SOL    HW130933   4.959   4.618   7.758 -1.4589  0.4329  0.4110
 9176SOL    HW230934   5.079   4.705   7.731  0.5170 -1.5288  2.6258
 9177SOL     OW30935   5.393   7.448   6.793 -0.1197 -0.2105 -0.0235
 9177SOL    HW130936   5.444   7.367   6.794  2.1611  1.2026  1.9655
 9177SOL    HW230937   5.421   7.492   6.712  2.5215  0.9462  1.4669
 9178SOL     OW30938   8.580   3.076   7.936  0.0649 -0.0253  0.4752
 9178SOL    HW130939   8.664   3.096   7.978  0.1061  0.0166  0.3728
 9178SOL    HW230940   8.515   3.119   7.991  0.4272  3.8649 -1.9221
 9179SOL     OW30941   9.719   1.437  10.909  0.7879  0.3516  0.6389
 9179SOL    HW130942   9.682   1.524  10.889  0.8590  0.2229 -0.0776
 9179SOL    HW230943   9.814   1.449  10.900  0.7847  0.1473  0.2967
 9180SOL     OW30944   6.934  10.327   8.547 -0.2262  0.1836 -0.2046
 9180SOL    HW130945   6.935  10.236   8.516  0.8962 -0.3418  1.3090
 9180SOL    HW230946   7.018  10.362   8.519 -0.5828  0.7018 -0.6255
 9181SOL     OW30947   6.628   0.483   2.601 -0.5909  0.4950 -0.1647
 9181SOL    HW130948   6.592   0.418   2.661 -1.4590  0.1468 -1.0405
 9181SOL    HW230949   6.581   0.468   2.519 -0.3230  1.7871 -0.5649
 9182SOL     OW30950   9.305   8.342   1.983 -0.2371  0.2088 -0.1371
 9182SOL    HW130951   9.254   8.270   2.021 -0.4611  0.8270  0.7759
 9182SOL    HW230952   9.316   8.404   2.056  1.4886  0.2677 -0.4333
 9183SOL     OW30953   4.164   5.155   1.786  0.3533  0.1015  0.1414
 9183SOL    HW130954   4.252   5.190   1.770  0.9932 -0.7926  1.5812
 9183SOL    HW230955   4.125   5.147   1.699  1.0887  2.0351 -0.4062
 9184SOL     OW30956   4.931   6.587   5.786 -0.0728  0.4276 -0.1301
 9184SOL    HW130957   4.927   6.607   5.879 -0.3990  0.1802 -0.0896
 9184SOL    HW230958   5.012   6.628   5.756  0.5277 -0.3061  0.4628
 9185SOL     OW30959   5.870   1.625   1.415 -0.0376 -0.3875  0.4559
 9185SOL    HW130960   5.783   1.663   1.419 -0.5813 -1.5868  0.2871
 9185SOL    HW230961   5.864   1.557   1.348  1.8088  1.4383 -1.6445
 9186SOL     OW30962   6.506   3.139   9.590  0.1830 -0.1568  0.5150
 9186SOL    HW130963   6.559   3.079   9.642  0.0677 -1.1380 -0.4644
 9186SOL    HW230964   6.460   3.082   9.528  1.0484  1.0825 -1.2897
 9187SOL     OW30965   0.300   4.602   2.262  0.0198  0.9379 -0.0407
 9187SOL    HW130966   0.349   4.676   2.299  0.5623  0.9773 -0.8304
 9187SOL    HW230967   0.363   4.530   2.260 -1.0714 -0.1538  2.6315
 9188SOL     OW30968   7.287   2.359   3.877 -0.2381  0.1549 -0.0114
 9188SOL    HW130969   7.197   2.331   3.863 -0.0567 -0.4098 -0.0305
 9188SOL    HW230970   7.302   2.344   3.970 -0.2727  0.5664  0.0622
 9189SOL     OW30971   1.815   0.631   3.386  0.3371 -0.3104 -0.2726
 9189SOL    HW130972   1.748   0.624   3.454  0.6072 -0.9663 -0.0695
 9189SOL    HW230973   1.853   0.543   3.382  1.2926  0.1073 -0.2773
 9190SOL     OW30974   1.658   5.200   7.085  0.1766  0.4029 -0.2646
 9190SOL    HW130975   1.737   5.254   7.087  1.4227 -1.4231  0.5395
 9190SOL    HW230976   1.690   5.110   7.076 -1.7927 -0.3993  0.4430
 9191SOL     OW30977   4.024   3.535   4.443  0.2629  0.2083  0.0840
 9191SOL    HW130978   4.078   3.577   4.510 -0.6720  0.6570  0.5736
 9191SOL    HW230979   4.030   3.594   4.367  1.2894 -0.2787 -0.2191
 9192SOL     OW30980   5.372   3.465   6.424  0.7348 -0.3583  0.3370
 9192SOL    HW130981   5.412   3.542   6.383 -1.6332  0.5732 -0.2850
 9192SOL    HW230982   5.298   3.444   6.367  1.6013 -3.3963  0.2484
 9193SOL     OW30983   3.978   9.994   2.375  0.3278 -0.2376  0.3929
 9193SOL    HW130984   4.007   9.910   2.411 -1.1897 -0.6463  0.7149
 9193SOL    HW230985   4.055  10.051   2.380  1.5660 -1.8116 -0.4947
 9194SOL     OW30986   9.223   3.376  10.090  0.4220 -0.9382  0.1645
 9194SOL    HW130987   9.247   3.283  10.096  0.3578 -0.9325  0.5051
 9194SOL    HW230988   9.128   3.377  10.102  0.5167 -0.7554  0.9266
 9195SOL     OW30989  10.312   7.320  10.915  0.1102 -0.2179  0.1970
 9195SOL    HW130990  10.358   7.401  10.935  0.6494 -0.0715 -1.5164
 9195SOL    HW230991  10.231   7.325  10.966  0.9498  0.5658  1.4760
 9196SOL     OW30992   0.504   0.445   0.191  0.4156  0.4856  0.2944
 9196SOL    HW130993   0.412   0.439   0.217  0.0244  2.3174 -0.5886
 9196SOL    HW230994   0.512   0.384   0.118 -0.4213  1.3092 -0.4890
 9197SOL     OW30995   3.953   3.743   8.630 -0.3078 -0.6621  0.0670
 9197SOL    HW130996   4.002   3.661   8.622 -1.6571 -1.2541 -2.4972
 9197SOL    HW230997   3.990   3.800   8.562 -0.7139  0.1713  0.5340
 9198SOL     OW30998  10.624   6.026   2.803  0.6070 -0.0900  0.1286
 9198SOL    HW130999  10.627   6.035   2.898 -2.4497  2.2340  0.0709
 9198SOL    HW231000  10.537   5.991   2.785  0.6774  0.7324 -1.9070
 9199SOL     OW31001   9.441   1.687   2.402  0.0736  0.1378  0.0807
 9199SOL    HW131002   9.375   1.641   2.454 -0.9211 -0.8591 -1.9952
 9199SOL    HW231003   9.517   1.694   2.460 -1.6888  0.9696  2.3955
 9200SOL     OW31004   2.549   6.556   4.458  0.1088  0.4428 -0.6655
 9200SOL    HW131005   2.626   6.506   4.429  1.1987  0.8207  1.4390
 9200SOL    HW231006   2.549   6.546   4.553 -1.3143  2.0970 -0.4656
 9201SOL     OW31007   4.354   8.315   4.328 -0.6757 -0.2393 -0.0633
 9201SOL    HW131008   4.429   8.260   4.303 -1.1825 -0.8642 -0.2102
 9201SOL    HW231009   4.376   8.401   4.293 -0.1565 -0.4879 -0.3701
 9202SOL     OW31010   9.727  10.639   2.212 -0.1493  0.0562 -0.2512
 9202SOL    HW131011   9.781  10.653   2.134 -0.4047 -1.9291 -0.8065
 9202SOL    HW231012   9.789  10.609   2.278 -0.2200  0.0582 -0.1855
 9203SOL     OW31013   5.069   0.705   0.308  0.0353 -0.1390  0.1007
 9203SOL    HW131014   5.076   0.665   0.395 -0.2785  0.7006  0.5201
 9203SOL    HW231015   5.158   0.733   0.287 -0.0705  0.6218  0.6287
 9204SOL     OW31016   9.933   9.684   6.684  0.4625  0.0282 -0.6061
 9204SOL    HW131017   9.907   9.598   6.716  0.9487 -0.1193 -0.6140
 9204SOL    HW231018   9.998   9.715   6.747 -0.4779  0.8456 -0.0056
 9205SOL     OW31019  10.206   3.074   4.473  0.2181  0.0401  0.3512
 9205SOL    HW131020  10.240   3.016   4.405 -1.1998 -0.8304  0.3573
 9205SOL    HW231021  10.237   3.161   4.449  0.4198 -0.3839 -0.9473
 9206SOL     OW31022   5.041   9.379   0.352  0.0426  0.4894 -0.5788
 9206SOL    HW131023   5.013   9.458   0.398  1.8348 -0.4115  2.1896
 9206SOL    HW231024   5.092   9.411   0.277 -0.3632  1.9516 -0.2348
 9207SOL     OW31025  10.789   8.829   5.203 -0.2945 -0.2448  0.2040
 9207SOL    HW131026  10.859   8.829   5.268 -0.4064  0.3770  0.3285
 9207SOL    HW231027  10.727   8.762   5.233 -0.2995 -0.0227  0.6824
 9208SOL     OW31028   5.740   5.450   6.450 -0.2187  0.2076 -0.2567
 9208SOL    HW131029   5.760   5.411   6.365 -0.8697 -1.2471  0.2347
 9208SOL    HW231030   5.661   5.502   6.434 -2.2726 -2.6710  0.1202
 9209SOL     OW31031   2.641   6.945   9.843  0.1529  0.4217  0.5565
 9209SOL    HW131032   2.734   6.924   9.841 -0.0136 -0.3080  0.4200
 9209SOL    HW231033   2.637   7.032   9.882  0.8288  0.1046  1.3399
 9210SOL     OW31034   5.632   1.727   0.168 -0.5420  0.6949 -0.3207
 9210SOL    HW131035   5.623   1.647   0.220  0.1403  0.8216 -0.0123
 9210SOL    HW231036   5.608   1.700   0.079 -1.1016  0.3358 -0.0659
 9211SOL     OW31037   5.429   5.843  10.444  0.3287  0.3083 -0.2822
 9211SOL    HW131038   5.511   5.813  10.404 -1.7584 -2.3048 -2.8836
 9211SOL    HW231039   5.452   5.864  10.534  3.7255 -0.9987 -0.7590
 9212SOL     OW31040   0.815   9.010   5.962  0.5634  0.0819 -0.1985
 9212SOL    HW131041   0.807   9.088   5.908 -1.1241 -0.2523 -0.4798
 9212SOL    HW231042   0.851   9.041   6.045  1.1105  0.9412 -0.7551
 9213SOL     OW31043   5.604   0.773   7.335 -0.4838 -0.2825  0.4147
 9213SOL    HW131044   5.585   0.806   7.422 -0.7218 -0.1441  0.3111
 9213SOL    HW231045   5.518   0.749   7.299 -0.3139 -1.0637  0.5078
 9214SOL     OW31046   2.226   0.468   8.978  0.1958 -0.5217  0.3142
 9214SOL    HW131047   2.167   0.493   9.049 -0.1786  1.9682 -0.8384
 9214SOL    HW231048   2.216   0.373   8.972 -0.3405 -0.6902  3.0581
 9215SOL     OW31049   1.540   5.988   1.273 -0.2644  0.0371 -0.0722
 9215SOL    HW131050   1.466   5.933   1.250 -0.0891  0.2304 -1.1203
 9215SOL    HW231051   1.549   6.049   1.199 -0.2502  1.2522  0.8988
 9216SOL     OW31052   8.199   3.037   8.572  0.3231 -0.9037  0.8241
 9216SOL    HW131053   8.280   3.081   8.597 -0.5140  0.6486  0.9252
 9216SOL    HW231054   8.218   2.998   8.487  0.3817  1.7619 -0.4383
 9217SOL     OW31055   9.846   3.515  10.769  0.0843 -0.4281  0.5077
 9217SOL    HW131056   9.775   3.556  10.818  0.3609  0.5572  0.0945
 9217SOL    HW231057   9.925   3.536  10.819  0.5915  2.0931 -1.2401
 9218SOL     OW31058   1.454   4.089  10.643  0.3779 -0.0604 -0.4335
 9218SOL    HW131059   1.407   4.054  10.567  0.6972 -0.8976 -0.2532
 9218SOL    HW231060   1.547   4.084  10.619  0.3206  3.1684 -1.4530
 9219SOL     OW31061   7.579   7.249   4.937 -0.2930  0.2248  0.4542
 9219SOL    HW131062   7.519   7.225   4.866  0.9899 -1.0409 -0.2341
 9219SOL    HW231063   7.651   7.294   4.892  1.2323 -1.8548  0.7300
 9220SOL     OW31064   2.318   7.400   4.927 -0.4766  0.0245 -0.5551
 9220SOL    HW131065   2.278   7.481   4.894 -0.6151  0.2088  0.0590
 9220SOL    HW231066   2.299   7.401   5.021  0.5932 -0.0971 -0.3278
 9221SOL     OW31067   4.457   1.535  10.781 -0.1584  0.0805  0.2324
 9221SOL    HW131068   4.384   1.544  10.842  0.7943 -0.5292  1.4754
 9221SOL    HW231069   4.488   1.445  10.793  1.2514  0.5539  0.2268
 9222SOL     OW31070   0.399   9.702   9.426  0.1672 -0.1384  0.3163
 9222SOL    HW131071   0.368   9.793   9.417 -1.7004 -0.6679  1.1477
 9222SOL    HW231072   0.380   9.662   9.342 -2.3364 -0.7060  1.1109
 9223SOL     OW31073   3.731   0.105   2.471  0.8196  0.2592  0.4235
 9223SOL    HW131074   3.787   0.159   2.527  0.7813  0.8588 -0.1198
 9223SOL    HW231075   3.642   0.129   2.497  0.8020  0.5238  0.1251
 9224SOL     OW31076   9.854   0.694   8.686  0.5648 -0.0251 -0.3401
 9224SOL    HW131077   9.855   0.790   8.691 -1.6637 -0.0565  1.8863
 9224SOL    HW231078   9.913   0.666   8.756 -1.2998 -0.2598  1.1791
 9225SOL     OW31079   6.992   5.711   4.030 -0.3300  0.2467 -0.6082
 9225SOL    HW131080   7.067   5.746   4.077  0.5105 -0.4815 -1.3869
 9225SOL    HW231081   6.987   5.619   4.056 -0.6248  0.1567 -0.9637
 9226SOL     OW31082   2.715   4.469   2.443  0.4115 -0.1648  0.1636
 9226SOL    HW131083   2.716   4.407   2.516  2.0925  1.8306  1.8915
 9226SOL    HW231084   2.794   4.521   2.454  0.3238  0.6833 -2.6962
 9227SOL     OW31085   8.431   6.815   0.975  0.0040 -0.2902  0.9375
 9227SOL    HW131086   8.502   6.867   1.012  1.2665  0.7098 -2.7630
 9227SOL    HW231087   8.470   6.731   0.955 -0.1534 -0.1600  0.0564
 9228SOL     OW31088   6.731  10.715   4.120  0.1365  0.3733  0.0141
 9228SOL    HW131089   6.644  10.741   4.149 -0.8515  0.0396 -2.4590
 9228SOL    HW231090   6.744  10.763   4.038  2.5546  0.8947  0.6700
 9229SOL     OW31091   4.009   3.015   0.945 -0.0426  1.0180  0.5095
 9229SOL    HW131092   4.089   3.033   0.895 -0.2761 -1.1551 -0.6840
 9229SOL    HW231093   4.040   2.986   1.031  0.4895 -0.3648 -0.1310
 9230SOL     OW31094  10.824   0.690   5.244 -0.3333  0.6882  0.0728
 9230SOL    HW131095  10.745   0.644   5.215  1.4056 -0.8962 -2.3877
 9230SOL    HW231096  10.828   0.767   5.188 -0.4481  1.0721  0.5944
 9231SOL     OW31097   0.443   0.925   3.662 -0.1165  0.0628  0.0339
 9231SOL    HW131098   0.418   0.845   3.707  0.4929  1.3474  2.7726
 9231SOL    HW231099   0.364   0.979   3.663  0.6088  1.1606  2.0591
 9232SOL     OW31100   8.505  10.062   4.918  0.3119  0.1865  0.0121
 9232SOL    HW131101   8.553   9.979   4.921 -0.7209 -0.5756 -2.9640
 9232SOL    HW231102   8.441  10.056   4.989  0.5420 -1.3743  0.1045
 9233SOL     OW31103  10.124  10.850   4.415  0.7335 -0.4143  0.4743
 9233SOL    HW131104  10.034  10.833   4.445  0.9905 -2.3394  0.2306
 9233SOL    HW231105  10.152  10.767   4.377  2.4876  0.2968  0.1886
 9234SOL     OW31106  10.135   3.475   8.776 -0.0512  0.2964 -0.3973
 9234SOL    HW131107  10.071   3.426   8.827 -2.3364  1.7795 -1.7670
 9234SOL    HW231108  10.154   3.553   8.828 -0.4491  0.5597 -0.6453
 9235SOL     OW31109   6.786   2.624   1.877 -0.2780 -0.1452  0.8837
 9235SOL    HW131110   6.871   2.589   1.850  0.5955  0.9872  2.0459
 9235SOL    HW231111   6.725   2.551   1.867  0.2628 -0.1850 -2.6296
 9236SOL     OW31112   7.674   3.828   7.510  0.4856 -0.2213  0.0260
 9236SOL    HW131113   7.615   3.755   7.492 -1.1255  0.8451  0.9211
 9236SOL    HW231114   7.644   3.864   7.593  0.7353  1.9677 -0.8077
 9237SOL     OW31115   6.239   8.879   3.022 -0.0748  0.2679  0.4167
 9237SOL    HW131116   6.161   8.913   3.065  0.1413  1.0408  0.2058
 9237SOL    HW231117   6.229   8.905   2.930  0.9053  1.2664  0.5740
 9238SOL     OW31118   5.197   3.244   8.411  0.2753 -0.2969  0.5242
 9238SOL    HW131119   5.166   3.287   8.332  3.0617  0.9945  0.0943
 9238SOL    HW231120   5.192   3.312   8.479  0.7058 -0.5371  0.7978
 9239SOL     OW31121   9.046   6.275   9.789 -0.0196  0.5726 -0.1652
 9239SOL    HW131122   8.956   6.300   9.812  0.6302  2.0616  0.7951
 9239SOL    HW231123   9.036   6.225   9.708 -1.8478 -0.4549  0.6587
 9240SOL     OW31124  10.310   7.418   0.566  0.5682  0.2532  0.2984
 9240SOL    HW131125  10.245   7.352   0.544  0.5150 -0.0046  1.2462
 9240SOL    HW231126  10.378   7.407   0.498  0.1277 -0.1591 -0.0809
 9241SOL     OW31127   2.906   6.276   0.390 -0.0327 -0.1988  0.0698
 9241SOL    HW131128   2.966   6.232   0.449 -0.4507 -0.9878 -0.0884
 9241SOL    HW231129   2.819   6.258   0.425 -0.2812 -0.6198 -0.7393
 9242SOL     OW31130   6.441   9.750   0.410  0.4989  0.4213 -0.3314
 9242SOL    HW131131   6.461   9.682   0.346 -0.0616  0.3557 -0.4329
 9242SOL    HW231132   6.348   9.740   0.429  0.2573  1.5737 -0.8394
 9243SOL     OW31133   1.384   1.756   3.463 -0.3027  0.0123  0.3356
 9243SOL    HW131134   1.455   1.705   3.502  0.6970 -0.4397 -1.9621
 9243SOL    HW231135   1.325   1.692   3.424 -0.8505  0.4723  0.3945
 9244SOL     OW31136   0.138   9.771   2.049  0.4099  0.3400 -0.3057
 9244SOL    HW131137   0.111   9.696   1.996 -0.6166  1.9908 -2.1722
 9244SOL    HW231138   0.227   9.791   2.019 -0.1168  1.1833 -1.3300
 9245SOL     OW31139   9.731   1.804   9.705 -0.0830 -0.5730 -0.0089
 9245SOL    HW131140   9.712   1.789   9.613 -0.9175 -0.2135  0.1091
 9245SOL    HW231141   9.733   1.899   9.715 -2.1130 -0.6065  0.7839
 9246SOL     OW31142   7.566   7.213   2.568 -0.0941  0.7021  0.6445
 9246SOL    HW131143   7.557   7.180   2.657  1.2983  3.5240  1.8698
 9246SOL    HW231144   7.656   7.193   2.544 -0.6584 -0.6586 -0.4228
 9247SOL     OW31145   1.139   1.962   3.255  0.2369 -1.0683 -0.1440
 9247SOL    HW131146   1.080   1.891   3.229 -1.1595 -0.1851  0.5394
 9247SOL    HW231147   1.124   1.972   3.348  1.5586 -0.8850  0.0543
 9248SOL     OW31148   9.001   3.988   4.558  1.0285  0.8201  0.4821
 9248SOL    HW131149   9.063   3.915   4.551  0.0715 -0.1174  1.5958
 9248SOL    HW231150   8.970   4.001   4.468 -1.5647 -2.6391  0.7696
 9249SOL     OW31151   2.547   3.244   0.925 -0.1636  0.2852 -0.0959
 9249SOL    HW131152   2.580   3.173   0.870  0.1581  1.0572 -0.9234
 9249SOL    HW231153   2.624   3.295   0.948 -0.2586 -0.2281  1.3710
 9250SOL     OW31154   1.961   2.183   2.718 -0.3683  0.2991 -0.0019
 9250SOL    HW131155   1.951   2.274   2.692 -2.2659 -0.3587 -1.6615
 9250SOL    HW231156   2.055   2.169   2.722 -0.0580  1.6350 -2.2319
 9251SOL     OW31157   6.187   5.172   9.141  0.4161 -0.4738  0.0447
 9251SOL    HW131158   6.143   5.217   9.213  2.6682 -0.3402  1.3664
 9251SOL    HW231159   6.146   5.085   9.140 -1.2676  0.3014 -0.0494
 9252SOL     OW31160   7.570   9.912   4.313 -0.2889 -0.5146  0.0851
 9252SOL    HW131161   7.479   9.938   4.304 -0.3241 -1.4035 -2.3979
 9252SOL    HW231162   7.567   9.824   4.351 -0.5078 -0.8688 -0.7432
 9253SOL     OW31163   6.364   2.524   6.025  0.6442 -0.3692 -0.3553
 9253SOL    HW131164   6.403   2.501   5.941  0.7160 -0.0099 -0.4182
 9253SOL    HW231165   6.301   2.453   6.042 -0.4028  0.2956 -1.3903
 9254SOL     OW31166   4.823   6.061   2.681 -0.4977  1.0068 -0.2340
 9254SOL    HW131167   4.815   5.995   2.611 -1.0405  0.8512 -0.0279
 9254SOL    HW231168   4.774   6.136   2.648  1.8025  2.0727 -1.3605
 9255SOL     OW31169   7.389   0.992   5.002 -0.5711 -0.0879 -0.1478
 9255SOL    HW131170   7.378   0.900   5.026  3.8860 -0.4469  0.9246
 9255SOL    HW231171   7.403   0.991   4.907  1.8434 -0.8502  0.1761
 9256SOL     OW31172   6.747   3.203   9.445  0.2902  0.2421  0.3568
 9256SOL    HW131173   6.727   3.163   9.360  1.1800  0.7972 -0.1215
 9256SOL    HW231174   6.669   3.188   9.497 -0.4410  0.2896 -0.7041
 9257SOL     OW31175  10.498   4.566   0.388 -0.1548  0.3311  0.0539
 9257SOL    HW131176  10.559   4.629   0.427 -0.0387 -0.2907  0.8889
 9257SOL    HW231177  10.554   4.504   0.341 -0.2013  0.2658  0.0842
 9258SOL     OW31178   4.545   3.482   2.557  0.0217  0.0510  0.0404
 9258SOL    HW131179   4.552   3.566   2.603 -1.9764  0.0520  0.3871
 9258SOL    HW231180   4.635   3.452   2.548  0.5305  0.6611  2.8445
 9259SOL     OW31181   3.755   5.718   7.755  0.2831 -0.2000  0.3043
 9259SOL    HW131182   3.837   5.767   7.748 -0.4389  1.0569  0.6000
 9259SOL    HW231183   3.721   5.716   7.665  0.5116 -0.5126  0.2232
 9260SOL     OW31184   2.504   7.205   4.997 -0.3800  0.3288  0.5441
 9260SOL    HW131185   2.423   7.253   4.981 -0.7939 -0.7014 -0.4561
 9260SOL    HW231186   2.531   7.232   5.085 -2.7066 -0.6390  1.5868
 9261SOL     OW31187   7.258   1.249   9.118 -0.1046 -0.0204  0.6129
 9261SOL    HW131188   7.186   1.268   9.058 -1.1406  0.0737  1.8644
 9261SOL    HW231189   7.235   1.294   9.199  0.2809 -1.7800  1.7312
 9262SOL     OW31190   1.555   6.881   3.643  0.0097 -0.0066  0.2546
 9262SOL    HW131191   1.530   6.917   3.558  1.5571  0.7271  0.0919
 9262SOL    HW231192   1.472   6.869   3.690 -0.9015 -0.9268 -1.5453
 9263SOL     OW31193   3.583   3.164   9.271 -0.3073 -0.4267  0.0887
 9263SOL    HW131194   3.570   3.080   9.227 -0.1983 -1.1751  1.4251
 9263SOL    HW231195   3.581   3.142   9.364  1.0830  0.8419  0.4503
 9264SOL     OW31196   8.342   9.295  10.258 -0.0494 -0.2388  0.4511
 9264SOL    HW131197   8.284   9.219  10.252 -1.7763  1.1690 -1.0961
 9264SOL    HW231198   8.347   9.329  10.169  2.4622  0.2122  0.7195
 9265SOL     OW31199   0.521   1.917   5.827 -0.1549  0.2483 -0.5192
 9265SOL    HW131200   0.514   2.004   5.867  0.8536  0.5670 -1.0010
 9265SOL    HW231201   0.553   1.860   5.897  1.2808  0.7344 -0.7556
 9266SOL     OW31202   8.731   9.438   7.770 -0.3995  0.2415  0.0333
 9266SOL    HW131203   8.812   9.437   7.821 -0.3421 -1.0989 -0.0597
 9266SOL    HW231204   8.744   9.509   7.706  0.8932 -0.2548 -0.2724
 9267SOL     OW31205   8.681   7.423   1.941 -0.1891 -0.4696  0.1811
 9267SOL    HW131206   8.737   7.351   1.912  2.4642  1.4792  0.2588
 9267SOL    HW231207   8.605   7.419   1.884  1.8838 -0.7401 -2.6649
 9268SOL     OW31208   8.089   9.517   6.507 -0.9867  0.3092  0.4006
 9268SOL    HW131209   8.104   9.445   6.569  0.4779  0.7759  0.6145
 9268SOL    HW231210   8.137   9.591   6.545 -2.4028  1.3726  0.1346
 9269SOL     OW31211   3.766   7.642   1.104  0.1073 -0.2011  0.4491
 9269SOL    HW131212   3.729   7.567   1.152  0.5374  0.3628  1.6844
 9269SOL    HW231213   3.843   7.606   1.060 -0.8725 -0.9658 -0.6814
 9270SOL     OW31214   7.865   0.125   7.828  0.5481  0.5762 -0.4703
 9270SOL    HW131215   7.896   0.215   7.816  1.0716  0.4143 -0.3321
 9270SOL    HW231216   7.780   0.135   7.871  0.5937  1.0073 -0.4781
 9271SOL     OW31217   7.257   9.900   7.198  0.1548 -0.4841  0.1891
 9271SOL    HW131218   7.321   9.877   7.265 -0.5562  0.4817  1.2033
 9271SOL    HW231219   7.302   9.882   7.115  1.0497 -1.6449  0.9074
 9272SOL     OW31220   1.955   6.749   3.324 -0.4053  0.7805 -0.3613
 9272SOL    HW131221   2.003   6.668   3.305  1.6228  2.1011 -1.0695
 9272SOL    HW231222   1.886   6.722   3.384  0.1824 -1.4963 -0.6428
 9273SOL     OW31223   9.081   7.136   4.279 -0.1074  0.2968  0.3549
 9273SOL    HW131224   9.113   7.141   4.369  0.6180 -1.9574  0.2496
 9273SOL    HW231225   8.988   7.119   4.287 -0.0078 -0.0956  0.6868
 9274SOL     OW31226   8.288   3.388   8.192 -0.4477 -0.1765 -0.1909
 9274SOL    HW131227   8.323   3.441   8.263  1.1328  0.7746 -1.6431
 9274SOL    HW231228   8.348   3.313   8.185 -0.8313 -0.4828 -0.2633
 9275SOL     OW31229   3.914   1.316   4.703  0.4148 -0.0884 -0.1003
 9275SOL    HW131230   3.989   1.259   4.685  0.5077 -0.4437  1.3567
 9275SOL    HW231231   3.895   1.302   4.796  0.2327  2.0204  0.1990
 9276SOL     OW31232   3.400   1.978   2.732  0.5236 -0.3775  0.1233
 9276SOL    HW131233   3.459   1.983   2.657  1.5466 -0.0611  0.9405
 9276SOL    HW231234   3.456   1.995   2.808 -0.4640 -0.8664  0.9764
 9277SOL     OW31235   4.901   4.374   0.291  0.3268  0.1182 -0.3252
 9277SOL    HW131236   4.968   4.377   0.222  0.1595  0.6367 -0.4646
 9277SOL    HW231237   4.818   4.385   0.245  0.0783 -1.2765 -0.2370
 9278SOL     OW31238   9.972   0.915   3.141 -0.5536 -0.3888 -0.2900
 9278SOL    HW131239  10.032   0.981   3.177  0.2592 -0.1587 -2.0305
 9278SOL    HW231240   9.894   0.965   3.117 -0.0868 -0.1067 -1.2468
 9279SOL     OW31241   6.271   3.392   4.650 -0.4820  0.0157 -0.1439
 9279SOL    HW131242   6.226   3.450   4.589 -2.2486 -1.2179 -0.0441
 9279SOL    HW231243   6.321   3.451   4.706 -1.3004  1.3654 -0.7977
 9280SOL     OW31244  10.676   5.575   9.095  0.0116 -0.3555 -0.1729
 9280SOL    HW131245  10.625   5.634   9.039  1.0758 -0.9030 -1.7454
 9280SOL    HW231246  10.767   5.602   9.082  0.3172 -0.8496  0.8813
 9281SOL     OW31247   3.250   7.542   8.342 -0.1972 -0.3942  0.3611
 9281SOL    HW131248   3.303   7.525   8.420  0.8700 -0.8234 -0.4528
 9281SOL    HW231249   3.207   7.458   8.324 -0.1568 -0.3937  0.2657
 9282SOL     OW31250   6.959   6.287   1.734 -0.8951  0.3134  0.2382
 9282SOL    HW131251   7.011   6.246   1.665 -0.6757  1.6356 -0.3991
 9282SOL    HW231252   7.022   6.306   1.804 -0.8853  0.1233  0.2814
 9283SOL     OW31253   5.455   6.381   9.262  0.1658  0.5830  0.2044
 9283SOL    HW131254   5.406   6.312   9.218 -0.0432  0.7713  0.1440
 9283SOL    HW231255   5.453   6.455   9.202  0.3395  0.6629  0.2951
 9284SOL     OW31256   5.965   5.257   8.274  0.2788 -0.1564  0.2931
 9284SOL    HW131257   5.937   5.324   8.336  1.1016 -1.0037  1.6067
 9284SOL    HW231258   5.932   5.175   8.311  1.8787 -0.8194  0.2850
 9285SOL     OW31259   1.536   2.688   9.052  0.0620  0.1233 -0.4684
 9285SOL    HW131260   1.503   2.701   9.140 -1.6325  0.8365 -1.1764
 9285SOL    HW231261   1.589   2.609   9.057  0.6356  0.6253  1.3501
 9286SOL     OW31262  10.266   9.715   8.914  0.3517  0.7481  0.3583
 9286SOL    HW131263  10.262   9.709   9.009 -1.2837  0.4350  0.2885
 9286SOL    HW231264  10.193   9.661   8.883  2.2756 -1.0988 -1.1584
 9287SOL     OW31265   6.638   4.635   1.459 -0.4694  0.0706  0.7596
 9287SOL    HW131266   6.676   4.593   1.382  0.1469  1.1788  0.4400
 9287SOL    HW231267   6.569   4.576   1.488  2.1890 -2.5352  1.9958
 9288SOL     OW31268  10.760   3.128   0.321  0.1533  0.0734 -0.3061
 9288SOL    HW131269  10.823   3.056   0.328 -0.3076 -0.3929 -0.9605
 9288SOL    HW231270  10.675   3.086   0.319 -0.0185  0.4178 -3.6285
 9289SOL     OW31271   5.095   6.146   2.674  0.0866 -0.8862 -0.3872
 9289SOL    HW131272   5.002   6.124   2.673 -0.2695  0.5697 -1.0466
 9289SOL    HW231273   5.116   6.158   2.767 -1.1877  1.9761 -0.4218
 9290SOL     OW31274   9.532   5.590   2.770 -0.2768  0.0680  0.0673
 9290SOL    HW131275   9.456   5.620   2.820 -0.9468 -1.2662 -0.1311
 9290SOL    HW231276   9.505   5.505   2.734  1.2417 -0.3342 -0.1426
 9291SOL     OW31277   1.183   6.405   0.436 -0.1595 -0.1248 -0.6209
 9291SOL    HW131278   1.259   6.455   0.407 -1.6011  2.0823 -0.7324
 9291SOL    HW231279   1.189   6.404   0.531  2.6109 -4.2328 -0.7136
 9292SOL     OW31280   1.507  10.871  10.279 -0.1253 -0.1156  0.0601
 9292SOL    HW131281   1.585  10.832  10.317 -0.8501 -1.5863  0.0609
 9292SOL    HW231282   1.435  10.838  10.332 -0.8069  0.8153 -0.2619
 9293SOL     OW31283   5.846   9.835   3.806  0.4433 -0.6993  0.0295
 9293SOL    HW131284   5.806   9.869   3.887  0.5053  0.6582 -0.4896
 9293SOL    HW231285   5.934   9.871   3.807  0.2400 -0.1494 -0.9501
 9294SOL     OW31286   7.745   6.777  10.335 -0.1210  0.3259  0.1922
 9294SOL    HW131287   7.655   6.804  10.316 -1.1621 -2.5873  0.6953
 9294SOL    HW231288   7.773   6.730  10.256  1.2529  1.8399 -0.2495
 9295SOL     OW31289   6.462   2.642   5.790 -0.1958  0.1023 -0.1910
 9295SOL    HW131290   6.435   2.559   5.750 -1.1998  1.3339 -2.1364
 9295SOL    HW231291   6.557   2.636   5.795 -0.2093 -0.8804 -0.9571
 9296SOL     OW31292   8.587   7.012   6.123 -0.0361 -0.0003 -0.6152
 9296SOL    HW131293   8.599   7.104   6.102  1.5712 -0.1686 -0.5352
 9296SOL    HW231294   8.513   7.009   6.183 -0.9437  1.0892 -1.6575
 9297SOL     OW31295   7.510   6.643   4.694 -0.0098 -0.0844 -0.4620
 9297SOL    HW131296   7.468   6.692   4.765 -0.5143  0.1098 -0.8915
 9297SOL    HW231297   7.493   6.695   4.616  0.5005 -0.3269 -0.7342
 9298SOL     OW31298   4.351   8.262  10.336  0.1367 -0.1711 -0.0082
 9298SOL    HW131299   4.353   8.340  10.392 -0.5068 -0.3356  0.2506
 9298SOL    HW231300   4.383   8.191  10.391  2.3002  0.1975 -0.7357
 9299SOL     OW31301   8.657   3.167   5.208  0.7215  0.4661  0.4588
 9299SOL    HW131302   8.737   3.176   5.156 -0.3076 -1.1155 -1.4361
 9299SOL    HW231303   8.595   3.226   5.166  0.3980  0.4838  0.9588
 9300SOL     OW31304   2.104   9.233   4.406  0.2302 -0.1217  0.0538
 9300SOL    HW131305   2.112   9.163   4.470  1.8694 -0.4177 -0.4702
 9300SOL    HW231306   2.141   9.310   4.449  2.0628 -0.5015 -0.7995
 9301SOL     OW31307   4.965   8.882   2.444 -0.0166 -0.0888  0.0625
 9301SOL    HW131308   5.038   8.941   2.458  1.2871 -2.0373  1.8414
 9301SOL    HW231309   4.933   8.862   2.533 -2.2072  0.1148 -0.6393
 9302SOL     OW31310   0.694   1.059   3.749  0.3168  0.1524  0.1237
 9302SOL    HW131311   0.611   1.017   3.726 -0.3454  1.1429  0.6690
 9302SOL    HW231312   0.715   1.023   3.836 -0.0951  0.7082  0.4571
 9303SOL     OW31313   6.448   7.681   8.703  0.6238 -0.6582  0.4102
 9303SOL    HW131314   6.489   7.700   8.619 -1.0121  0.5538 -0.1481
 9303SOL    HW231315   6.465   7.588   8.718  0.8297 -0.9147 -1.3252
 9304SOL     OW31316   1.016   7.061   6.930  0.2012  0.2150 -0.2378
 9304SOL    HW131317   1.006   7.142   6.878  0.3657 -0.0841 -0.7401
 9304SOL    HW231318   0.959   6.998   6.886  0.7779 -0.2016 -0.3995
 9305SOL     OW31319   1.781   2.431   0.886 -0.0923 -0.4738 -0.6164
 9305SOL    HW131320   1.743   2.518   0.898  0.1824 -0.3319 -0.7773
 9305SOL    HW231321   1.844   2.422   0.957  0.6758 -0.1019 -1.2419
 9306SOL     OW31322   4.267   0.876   1.638 -0.0088  0.0328 -0.5824
 9306SOL    HW131323   4.196   0.834   1.686  0.2418  1.0117  0.6875
 9306SOL    HW231324   4.339   0.880   1.701  0.2685  1.4762 -0.9630
 9307SOL     OW31325   1.639   3.058   8.981  0.4641 -0.3043  0.5324
 9307SOL    HW131326   1.690   2.978   8.971 -0.9713 -1.2204  0.4292
 9307SOL    HW231327   1.684   3.107   9.050  1.4995 -1.0632  0.4086
 9308SOL     OW31328   1.654   6.460   9.289 -0.7922 -0.9592  0.3716
 9308SOL    HW131329   1.729   6.515   9.268 -1.6986 -0.1557 -0.8472
 9308SOL    HW231330   1.592   6.475   9.217 -1.6604 -2.4445  0.7886
 9309SOL     OW31331  10.730   1.197   7.298 -0.0715 -0.7601  0.2306
 9309SOL    HW131332  10.790   1.125   7.281  1.6186  0.7110 -0.2177
 9309SOL    HW231333  10.786   1.270   7.324 -1.7170  0.4539  0.4959
 9310SOL     OW31334   1.226  10.786   2.514  0.0533 -0.2127 -0.4953
 9310SOL    HW131335   1.131  10.775   2.513 -0.1827  1.4335  0.8501
 9310SOL    HW231336   1.243  10.860   2.456  0.6983 -1.5581 -2.0598
 9311SOL     OW31337  10.583  10.639   6.939 -0.3080 -0.7500 -0.5964
 9311SOL    HW131338  10.668  10.646   6.982  0.1009 -0.3302 -1.4720
 9311SOL    HW231339  10.571  10.723   6.895 -1.5785 -0.4711  0.2549
 9312SOL     OW31340   2.383   4.418   5.337  0.0006  1.0724 -0.0518
 9312SOL    HW131341   2.432   4.350   5.290 -1.8384 -0.1934 -0.1778
 9312SOL    HW231342   2.293   4.406   5.309 -0.7622  1.8405  2.0192
 9313SOL     OW31343  10.956  10.830   5.830  0.3932  0.2361 -0.2890
 9313SOL    HW131344  10.949  10.886   5.908  1.0714  0.4026 -0.3447
 9313SOL    HW231345  11.000  10.885   5.765 -0.1559  0.0902 -0.7849
 9314SOL     OW31346   5.520   5.805  10.714  0.6548  0.1744 -0.0353
 9314SOL    HW131347   5.601   5.755  10.709  0.7006  0.2827 -0.4611
 9314SOL    HW231348   5.510   5.828  10.806  1.7164  1.1477 -0.1498
 9315SOL     OW31349   5.287   6.527   8.636 -0.3704 -0.4888  0.5614
 9315SOL    HW131350   5.231   6.498   8.709  0.4277 -1.0437  0.9674
 9315SOL    HW231351   5.292   6.452   8.578  0.0777 -0.4976  0.6064
 9316SOL     OW31352   5.893  10.529   2.212 -0.4375 -0.1387 -0.7069
 9316SOL    HW131353   5.986  10.523   2.230 -0.2528 -2.2726 -2.1871
 9316SOL    HW231354   5.856  10.448   2.247 -1.6122  0.3641 -0.7632
 9317SOL     OW31355   8.476   0.919   6.857  0.1537 -0.1165  0.1158
 9317SOL    HW131356   8.502   0.865   6.932  0.6735 -0.1526 -0.0915
 9317SOL    HW231357   8.558   0.955   6.823 -0.3549  2.4446  1.4803
 9318SOL     OW31358   1.281   6.847   0.457 -0.5989  0.3437 -0.0690
 9318SOL    HW131359   1.232   6.868   0.377  2.0315 -1.2197 -2.1489
 9318SOL    HW231360   1.322   6.763   0.439  3.2594  1.7979  1.3892
 9319SOL     OW31361   8.879   4.066   4.219 -0.2759 -0.0674  0.2064
 9319SOL    HW131362   8.918   4.151   4.239  1.7834 -0.8755 -0.3009
 9319SOL    HW231363   8.835   4.079   4.135 -0.0763  0.5292  0.1934
 9320SOL     OW31364   6.080   6.778   2.797  0.1663  0.8861  0.0092
 9320SOL    HW131365   6.139   6.803   2.726  2.6885  2.2681  2.5179
 9320SOL    HW231366   6.122   6.702   2.837 -2.3248 -1.2208 -1.2108
 9321SOL     OW31367   1.203   5.443   8.434  0.2858 -0.0504  0.3633
 9321SOL    HW131368   1.119   5.401   8.448  0.5785 -1.0846 -0.9385
 9321SOL    HW231369   1.189   5.503   8.361  0.4376  0.4799  0.7655
 9322SOL     OW31370   2.267   7.227   4.710 -0.2247  0.8104 -0.4077
 9322SOL    HW131371   2.246   7.272   4.629 -0.1455 -0.1055 -0.9512
 9322SOL    HW231372   2.279   7.296   4.774 -0.0851  1.5512 -1.2266
 9323SOL     OW31373  10.048   8.775   2.447  0.4753 -0.0009  0.0845
 9323SOL    HW131374  10.068   8.692   2.404  0.9238  0.3748 -0.4526
 9323SOL    HW231375  10.128   8.797   2.496  0.1143 -0.2198  0.7753
 9324SOL     OW31376  10.594   0.133   4.494  0.1528  0.9463  0.3697
 9324SOL    HW131377  10.553   0.051   4.467 -1.3109  2.3200 -1.7310
 9324SOL    HW231378  10.676   0.137   4.444 -0.2030  1.2000 -0.1853
 9325SOL     OW31379   0.974   5.055  10.553 -0.2834 -0.0187 -0.1150
 9325SOL    HW131380   0.963   4.960  10.550 -3.0180  0.2984 -2.0258
 9325SOL    HW231381   0.923   5.083  10.630 -0.5005  0.0156 -0.2703
 9326SOL     OW31382   2.792   0.098  10.512 -0.6224  0.0972  0.1054
 9326SOL    HW131383   2.791   0.185  10.552  0.8249 -0.9925  2.6255
 9326SOL    HW231384   2.879   0.090  10.473 -0.7477 -0.2255 -0.1113
 9327SOL     OW31385   3.400   6.391  10.460  0.0996 -0.4348 -0.0999
 9327SOL    HW131386   3.413   6.372  10.367  1.7499 -0.4429  0.1115
 9327SOL    HW231387   3.468   6.455  10.481 -0.0893 -0.6320  1.1630
 9328SOL     OW31388   0.095   8.197   7.100  0.5520 -1.0076 -0.1192
 9328SOL    HW131389   0.122   8.229   7.186 -0.5534 -1.1814  0.3042
 9328SOL    HW231390   0.177   8.181   7.053  1.1475 -0.1262  0.6105
 9329SOL     OW31391   7.176   5.372   7.158 -0.4082 -0.2289  0.3235
 9329SOL    HW131392   7.141   5.326   7.234 -0.7930  1.4896  1.2111
 9329SOL    HW231393   7.265   5.396   7.183  0.4553 -2.0647 -0.8440
 9330SOL     OW31394   2.382   4.947   5.077  0.1222 -0.1309 -0.6992
 9330SOL    HW131395   2.456   4.972   5.132  0.2272 -0.5714 -0.6345
 9330SOL    HW231396   2.310   5.002   5.106  0.1165 -0.5279  0.0381
 9331SOL     OW31397   2.330   5.776   7.579 -0.5277  0.0208 -0.2256
 9331SOL    HW131398   2.309   5.864   7.609 -0.1360  0.5354 -1.4667
 9331SOL    HW231399   2.425   5.768   7.593 -0.9150 -1.0590  2.0882
 9332SOL     OW31400   5.459   7.082   4.489  0.1234  0.0264 -0.1626
 9332SOL    HW131401   5.463   7.133   4.407  0.9824  0.0606 -0.1108
 9332SOL    HW231402   5.550   7.082   4.520 -0.2890  0.4127  1.0370
 9333SOL     OW31403   2.935   9.431   5.492  0.2814 -0.3125  0.2241
 9333SOL    HW131404   2.924   9.423   5.397  0.5045 -0.5277  0.2143
 9333SOL    HW231405   2.847   9.431   5.527  0.1473  0.9752 -0.0791
 9334SOL     OW31406   7.296   9.458   8.668  0.5139  0.3021  0.3142
 9334SOL    HW131407   7.366   9.443   8.605  1.4869  0.6982  1.2683
 9334SOL    HW231408   7.219   9.416   8.630  1.4497 -0.7946 -0.3912
 9335SOL     OW31409   3.694   1.037  10.272  0.2069  0.3572  0.3396
 9335SOL    HW131410   3.783   1.030  10.305  0.9674 -1.3166 -1.9193
 9335SOL    HW231411   3.654   0.952  10.291 -0.2066  0.3387 -0.5809
 9336SOL     OW31412   0.260   4.951   5.100  0.1755 -0.2950 -1.0648
 9336SOL    HW131413   0.346   4.911   5.086  0.2799  0.3185 -2.2054
 9336SOL    HW231414   0.278   5.045   5.101 -0.1383 -0.2143  1.1176
 9337SOL     OW31415   4.907   8.766   0.890  0.1755 -0.0832  0.0314
 9337SOL    HW131416   4.909   8.671   0.886 -2.2903 -0.2476  1.8437
 9337SOL    HW231417   4.838   8.791   0.828  2.0008  0.6781 -1.7785
 9338SOL     OW31418  10.469  10.741   5.327  0.1849 -0.2440 -0.6040
 9338SOL    HW131419  10.469  10.759   5.421  1.2748  1.4762 -0.9134
 9338SOL    HW231420  10.386  10.778   5.296 -0.1512 -0.7667 -0.3471
 9339SOL     OW31421   2.817   4.627   0.233  0.1498  0.3552 -0.0678
 9339SOL    HW131422   2.845   4.563   0.168 -0.3461  0.1981 -0.1337
 9339SOL    HW231423   2.878   4.700   0.224 -0.0450  0.4246 -0.8565
 9340SOL     OW31424   5.082   2.340   5.137  0.8081 -0.1163 -0.0854
 9340SOL    HW131425   5.027   2.275   5.180  1.4772 -0.1488  0.7221
 9340SOL    HW231426   5.116   2.394   5.208  1.6298  0.0527 -0.6032
 9341SOL     OW31427   1.987  10.826   5.123 -0.4180  0.1458 -0.2880
 9341SOL    HW131428   2.016  10.868   5.042  0.1433 -0.5423 -0.4472
 9341SOL    HW231429   2.065  10.784   5.158 -0.7170  0.2098  0.4760
 9342SOL     OW31430   5.876   0.380   0.908 -0.0871  0.4966 -0.0891
 9342SOL    HW131431   5.831   0.446   0.962 -0.3894 -1.2104  1.7879
 9342SOL    HW231432   5.969   0.394   0.926 -0.0965  0.9880 -0.4013
 9343SOL     OW31433   1.541   2.783   5.784 -0.2808  0.1140  0.0951
 9343SOL    HW131434   1.464   2.837   5.767  0.8097  1.3042 -1.2477
 9343SOL    HW231435   1.597   2.798   5.708  0.9916 -1.2296  0.7541
 9344SOL     OW31436   4.838   6.626   8.065 -1.0554 -0.0248  0.4824
 9344SOL    HW131437   4.892   6.698   8.097 -0.5394  0.0515 -0.5519
 9344SOL    HW231438   4.796   6.591   8.144 -0.5725  0.7936  1.1104
 9345SOL     OW31439   8.770   5.293   6.814  0.3319  0.3394 -0.0024
 9345SOL    HW131440   8.743   5.203   6.829 -0.9479  0.7003 -0.0786
 9345SOL    HW231441   8.831   5.312   6.886 -1.0154  0.0831  1.2230
 9346SOL     OW31442   4.390   4.820   9.315  0.3988  0.0638  0.4468
 9346SOL    HW131443   4.457   4.792   9.254  0.0470 -1.5338  0.7702
 9346SOL    HW231444   4.402   4.914   9.323  1.8783 -0.0496 -0.3474
 9347SOL     OW31445   2.215   0.960   2.726  0.6267 -0.4486 -0.4546
 9347SOL    HW131446   2.298   1.008   2.723  1.1652 -1.1613  1.8952
 9347SOL    HW231447   2.154   1.021   2.767  0.4698 -0.6137 -0.4416
 9348SOL     OW31448   5.499   7.727  10.601 -0.6722 -0.3437 -0.4220
 9348SOL    HW131449   5.514   7.633  10.611 -0.6072 -0.2696  0.2538
 9348SOL    HW231450   5.456   7.736  10.516 -0.3065 -0.9408 -0.6763
 9349SOL     OW31451   4.889   9.069   4.491  0.0875  0.5264 -0.4448
 9349SOL    HW131452   4.910   9.116   4.572  0.3115  0.5013 -0.4874
 9349SOL    HW231453   4.816   9.118   4.453 -0.5683  0.0518  0.1974
 9350SOL     OW31454  10.717   2.037   2.293 -0.1301 -0.9879 -0.3843
 9350SOL    HW131455  10.664   1.984   2.353 -1.8672  1.3373  0.1940
 9350SOL    HW231456  10.806   2.028   2.325 -1.1266  0.8847  3.1170
 9351SOL     OW31457   9.699   8.781   6.018 -0.0133 -0.3745 -0.1502
 9351SOL    HW131458   9.689   8.867   5.979  1.0097  0.6046  1.6987
 9351SOL    HW231459   9.658   8.721   5.955 -1.1974  1.4973 -1.1890
 9352SOL     OW31460   4.664   0.008   4.536 -0.0129 -0.5417  0.1186
 9352SOL    HW131461   4.708   0.034   4.455  1.6621  0.4557  1.3134
 9352SOL    HW231462   4.734  -0.027   4.591 -0.9759 -0.3416  1.5037
 9353SOL     OW31463   4.887   3.830   6.774 -0.4153 -0.2308  0.1325
 9353SOL    HW131464   4.870   3.809   6.866 -0.9010  0.0427  0.1054
 9353SOL    HW231465   4.829   3.903   6.755  0.5684  0.5194 -0.0474
 9354SOL     OW31466   5.932   4.779   2.345 -0.4593  0.3541  0.8677
 9354SOL    HW131467   5.872   4.747   2.411 -0.7867  0.1723  0.4808
 9354SOL    HW231468   5.884   4.849   2.301 -0.8046 -0.5276 -0.1755
 9355SOL     OW31469   5.626   0.990   9.017 -0.0560  0.3372  0.0967
 9355SOL    HW131470   5.535   0.964   9.007 -0.1148  0.2300  0.8576
 9355SOL    HW231471   5.674   0.907   9.023  0.2137  0.3831 -1.2822
 9356SOL     OW31472   9.293   3.726  10.902  0.1315 -0.0267 -0.1533
 9356SOL    HW131473   9.277   3.632  10.898 -0.3445 -0.0023  1.0162
 9356SOL    HW231474   9.298   3.746  10.995  0.0422  1.1377 -0.3892
 9357SOL     OW31475  10.354   0.027   6.879 -0.4009 -0.7670  0.0782
 9357SOL    HW131476  10.440   0.059   6.906  0.6566 -3.1861 -0.2782
 9357SOL    HW231477  10.301   0.030   6.958 -0.3907  1.9061  0.0315
 9358SOL     OW31478   7.396   6.352   7.745 -0.0675 -0.0672 -0.5939
 9358SOL    HW131479   7.341   6.326   7.818 -0.3024  3.3710  0.5428
 9358SOL    HW231480   7.482   6.314   7.765 -0.1993  0.6255  1.3543
 9359SOL     OW31481  10.078   7.763   0.217 -0.4228 -0.4378  0.4031
 9359SOL    HW131482  10.165   7.729   0.236  0.6678  1.8566 -0.2697
 9359SOL    HW231483  10.080   7.854   0.248 -2.5632 -0.3276  0.3303
 9360SOL     OW31484   3.351   1.010   5.216  0.1979 -0.1227  0.9509
 9360SOL    HW131485   3.329   0.923   5.185  0.4764  0.1753 -0.1150
 9360SOL    HW231486   3.439   1.027   5.180 -0.7962  1.4939 -0.7988
 9361SOL     OW31487  10.764   2.983   2.125  0.1870 -0.4979 -0.5914
 9361SOL    HW131488  10.851   2.963   2.092  0.9602  0.0813  1.0701
 9361SOL    HW231489  10.729   2.899   2.155  1.0983 -0.3502  0.9016
 9362SOL     OW31490  10.886   9.646   5.480 -0.1947  0.4846  0.6067
 9362SOL    HW131491  10.889   9.702   5.403  1.9686 -0.7766 -0.2462
 9362SOL    HW231492  10.954   9.680   5.538 -0.8344  0.5251  1.3460
 9363SOL     OW31493   6.402   0.992   8.127  0.3754  0.2510 -0.1837
 9363SOL    HW131494   6.368   0.946   8.050 -0.3627 -0.4683  0.5572
 9363SOL    HW231495   6.484   1.032   8.097  0.2026 -0.1908 -1.2793
 9364SOL     OW31496   4.545   4.856   6.955  0.0229 -0.2279  0.1973
 9364SOL    HW131497   4.460   4.899   6.960  0.1738  0.6071 -2.9412
 9364SOL    HW231498   4.526   4.766   6.930 -0.0173 -0.4243  0.9429
 9365SOL     OW31499   5.873   0.533   1.542  0.3423  0.2844  0.1526
 9365SOL    HW131500   5.840   0.618   1.573  0.0237  0.4381 -0.5987
 9365SOL    HW231501   5.821   0.468   1.590  0.7954  0.5173  0.9513
 9366SOL     OW31502   4.911   0.221   9.778 -0.5326  0.4177 -0.4350
 9366SOL    HW131503   4.934   0.196   9.688 -0.8669 -0.0565 -0.3908
 9366SOL    HW231504   4.979   0.180   9.832  1.5228  3.3414 -0.7063
 9367SOL     OW31505   5.904   0.852   2.583 -0.1773 -0.4031  0.0415
 9367SOL    HW131506   5.903   0.770   2.632  0.4595  0.4341  1.4916
 9367SOL    HW231507   5.901   0.921   2.651  0.3329  0.7693 -1.1006
 9368SOL     OW31508   4.650   4.408   1.478  0.5535 -0.3705 -0.6301
 9368SOL    HW131509   4.700   4.464   1.419  0.5934  0.4778  0.1807
 9368SOL    HW231510   4.599   4.470   1.531 -0.5667 -1.1795 -0.7561
 9369SOL     OW31511   7.019  10.065   3.113  0.3757 -0.1326  0.0138
 9369SOL    HW131512   6.939  10.117   3.123 -0.2987 -1.0066 -0.7959
 9369SOL    HW231513   6.989   9.981   3.080  1.5627 -0.7336  0.4440
 9370SOL     OW31514   6.377   7.827   9.249 -0.5056  0.0430  0.2426
 9370SOL    HW131515   6.345   7.890   9.314 -0.2148  1.1460 -0.6493
 9370SOL    HW231516   6.371   7.742   9.291  0.9078  0.8759  2.2057
 9371SOL     OW31517   2.091   7.661   3.532 -0.3388  0.7365 -0.3263
 9371SOL    HW131518   2.172   7.627   3.493  0.2650  0.0619  1.4899
 9371SOL    HW231519   2.046   7.584   3.565 -0.4742  1.3728  0.9778
 9372SOL     OW31520   7.194   7.455  10.644 -0.0722  0.2993  0.1053
 9372SOL    HW131521   7.204   7.401  10.722 -3.3373 -1.2928 -0.4697
 9372SOL    HW231522   7.169   7.394  10.575 -0.8661  2.1391 -1.3102
 9373SOL     OW31523   2.097  10.660   8.817 -0.3998 -0.3788 -0.6491
 9373SOL    HW131524   2.151  10.592   8.776 -1.5828 -0.3064 -2.3427
 9373SOL    HW231525   2.009  10.623   8.818 -0.1723 -1.0752  3.3918
 9374SOL     OW31526   6.666   4.244   7.169 -0.2449  0.2525 -0.3577
 9374SOL    HW131527   6.639   4.331   7.198 -0.1072  0.3110 -0.4007
 9374SOL    HW231528   6.755   4.234   7.204 -0.4775 -0.0987  0.1211
 9375SOL     OW31529   6.627   5.526   6.942 -0.2252 -0.4626  0.6664
 9375SOL    HW131530   6.712   5.494   6.970 -0.0133 -0.3208  0.1946
 9375SOL    HW231531   6.646   5.584   6.868 -0.6503  0.3070  1.1537
 9376SOL     OW31532   5.561   6.557   6.611 -0.5830  0.0092  0.0771
 9376SOL    HW131533   5.520   6.512   6.685  1.2008 -1.0355  0.4552
 9376SOL    HW231534   5.616   6.490   6.570  1.1557  1.5209 -0.0993
 9377SOL     OW31535   7.729   2.158   8.872 -0.2438  0.0099 -0.4670
 9377SOL    HW131536   7.770   2.071   8.868 -1.3581 -0.4576 -2.8090
 9377SOL    HW231537   7.645   2.146   8.827 -0.4632  2.3000 -0.6987
 9378SOL     OW31538   7.151   2.533   0.127  0.3690  0.0209 -0.5628
 9378SOL    HW131539   7.210   2.466   0.161  0.3414  0.2572 -0.0415
 9378SOL    HW231540   7.163   2.530   0.032 -0.1872 -1.2339 -0.6015
 9379SOL     OW31541   7.066   0.641  10.568 -0.3681 -0.3053  0.4052
 9379SOL    HW131542   7.036   0.666  10.481 -1.5614 -1.3469  0.5008
 9379SOL    HW231543   7.122   0.713  10.596 -1.5248  0.9418 -0.4420
 9380SOL     OW31544   4.798   6.260   0.379 -0.0360 -0.1708 -0.1366
 9380SOL    HW131545   4.833   6.201   0.313  1.9622  0.7139  0.0831
 9380SOL    HW231546   4.876   6.291   0.427 -1.3612 -0.2690  2.1743
 9381SOL     OW31547   8.162   1.422   6.494 -0.2405  0.4733 -0.9202
 9381SOL    HW131548   8.243   1.384   6.459  0.5325  1.6236 -0.4105
 9381SOL    HW231549   8.097   1.407   6.425  1.0121  1.7882 -2.4262
 9382SOL     OW31550   7.339   7.933   5.474  0.8328 -0.8613 -0.5501
 9382SOL    HW131551   7.317   8.023   5.501  3.2472 -0.8721  1.6891
 9382SOL    HW231552   7.255   7.888   5.472 -0.2666  1.0955 -0.2681
 9383SOL     OW31553   3.935   8.202   1.522  0.2848 -0.2113 -0.0179
 9383SOL    HW131554   3.911   8.127   1.576  1.9208  0.3052  1.4698
 9383SOL    HW231555   4.019   8.179   1.483 -0.1579  0.0493 -1.1816
 9384SOL     OW31556  10.239   9.782   3.695 -0.2935  0.5040  0.4189
 9384SOL    HW131557  10.224   9.802   3.603  1.1773  2.2773  0.5505
 9384SOL    HW231558  10.181   9.708   3.713 -3.0973  2.2602 -1.0623
 9385SOL     OW31559   5.448   4.860   3.068 -0.1291  0.1152  0.1256
 9385SOL    HW131560   5.527   4.863   3.122  0.4841 -0.0377 -0.7396
 9385SOL    HW231561   5.391   4.796   3.111 -0.2215  0.9949  1.3286
 9386SOL     OW31562   6.276   2.150   0.273 -0.2590 -0.4028 -0.4806
 9386SOL    HW131563   6.283   2.146   0.369 -0.0705 -2.3282 -0.5460
 9386SOL    HW231564   6.366   2.138   0.243 -0.1072  1.6229 -0.8931
 9387SOL     OW31565   1.647  10.009   0.077  0.3110 -0.2390  0.0032
 9387SOL    HW131566   1.566   9.983   0.119  0.9824 -1.4429  0.5839
 9387SOL    HW231567   1.714  10.000   0.145  0.9542  0.6030 -0.5058
 9388SOL     OW31568   1.834   7.943   6.230 -0.0839  0.1658 -0.3604
 9388SOL    HW131569   1.923   7.906   6.234 -0.1834 -0.0810 -0.4664
 9388SOL    HW231570   1.777   7.871   6.256 -0.2377  0.3892 -0.0723
 9389SOL     OW31571   0.960   5.989   6.684  0.8546  0.2285 -0.0178
 9389SOL    HW131572   1.028   5.922   6.681  0.6781  0.1194 -2.3938
 9389SOL    HW231573   0.919   5.977   6.769  1.9032 -1.5999  0.2661
 9390SOL     OW31574  10.282   1.900  10.157  0.2564 -0.0745 -0.1714
 9390SOL    HW131575  10.248   1.986  10.132  1.0645  0.3580  0.1918
 9390SOL    HW231576  10.302   1.909  10.250 -1.3840 -1.2247  0.3196
 9391SOL     OW31577   1.676   0.911   7.020  0.0277 -0.0080 -0.0822
 9391SOL    HW131578   1.665   0.816   7.028 -1.6356  0.2730  1.2616
 9391SOL    HW231579   1.633   0.933   6.938 -0.5442 -0.2849  0.1383
 9392SOL     OW31580  10.804   7.808   4.079  0.6449  0.0167  0.0547
 9392SOL    HW131581  10.799   7.768   3.992  0.8475 -0.0434  0.0715
 9392SOL    HW231582  10.723   7.859   4.086 -0.4314 -1.7221  0.6953
 9393SOL     OW31583   4.746   5.320   6.247  0.1191 -0.0384  0.0319
 9393SOL    HW131584   4.717   5.409   6.228 -0.9224 -0.2879  0.4114
 9393SOL    HW231585   4.723   5.270   6.169 -0.4300 -0.2235  0.3077
 9394SOL     OW31586   6.297   9.169   3.012 -0.0610 -0.3289 -0.7293
 9394SOL    HW131587   6.294   9.075   2.995  0.1070 -0.4301 -0.2113
 9394SOL    HW231588   6.386   9.195   2.990 -0.7016  0.1263 -2.9736
 9395SOL     OW31589   7.412  10.259   4.809 -0.0260 -0.3143  0.1951
 9395SOL    HW131590   7.473  10.263   4.736 -0.8702  1.7876 -0.4576
 9395SOL    HW231591   7.407  10.167   4.832  0.3889 -0.9897 -2.2901
 9396SOL     OW31592   0.681   2.531  10.374  0.6546  0.3803  0.0926
 9396SOL    HW131593   0.600   2.518  10.325  0.7028  1.1273 -0.1873
 9396SOL    HW231594   0.686   2.455  10.432 -0.4128  0.4885  0.3405
 9397SOL     OW31595   7.923   7.343   3.222 -0.4833 -0.5848 -0.5536
 9397SOL    HW131596   7.965   7.272   3.269 -0.1752 -0.4385 -0.6085
 9397SOL    HW231597   7.846   7.303   3.181 -0.4669 -0.8226 -0.3507
 9398SOL     OW31598   0.258   3.488   1.583 -0.0743  0.3274  0.3279
 9398SOL    HW131599   0.314   3.483   1.506 -0.1034  0.0852  0.3201
 9398SOL    HW231600   0.208   3.406   1.581 -0.4519  0.5574  0.3135
 9399SOL     OW31601   9.423  10.202   5.074  0.2001  0.5728  0.2435
 9399SOL    HW131602   9.382  10.202   4.988  1.4897  1.1138 -0.3726
 9399SOL    HW231603   9.365  10.256   5.128 -0.5396  0.3318 -0.2958
 9400SOL     OW31604   1.833   1.051   5.447 -0.0426 -0.4528 -0.3654
 9400SOL    HW131605   1.810   0.965   5.483 -1.0892 -0.0857 -0.1369
 9400SOL    HW231606   1.809   1.113   5.516  1.0600 -0.0027 -0.3853
 9401SOL     OW31607   9.628   5.818   3.538  0.2242 -0.0482 -0.4787
 9401SOL    HW131608   9.557   5.798   3.477  0.2123 -0.4796 -0.3263
 9401SOL    HW231609   9.584   5.831   3.622  0.2654  0.2806 -0.5075
 9402SOL     OW31610   6.692   6.150   0.499  0.0927 -0.3033  0.1846
 9402SOL    HW131611   6.656   6.170   0.586  1.8503 -1.2946  1.1575
 9402SOL    HW231612   6.636   6.080   0.466 -3.2471  2.9177 -1.3255
 9403SOL     OW31613   1.153   5.945  10.081  0.0968 -0.7771 -0.8254
 9403SOL    HW131614   1.234   5.975  10.123  0.2522  1.5483 -2.6995
 9403SOL    HW231615   1.093   5.930  10.154  1.3037  0.2811  0.4255
 9404SOL     OW31616   4.774   1.973   5.947 -0.1819  0.1167 -0.1176
 9404SOL    HW131617   4.775   1.984   6.042  0.2521  0.6207 -0.1828
 9404SOL    HW231618   4.693   1.924   5.930  0.1643 -0.7285  0.5902
 9405SOL     OW31619   2.622   7.867   8.782 -0.7160  0.2538 -0.0460
 9405SOL    HW131620   2.601   7.859   8.689  0.6548 -1.8205 -0.2128
 9405SOL    HW231621   2.696   7.927   8.784  0.1153 -0.7463 -0.4292
 9406SOL     OW31622   2.740   7.503  10.377 -0.1507 -0.0605  0.2376
 9406SOL    HW131623   2.791   7.427  10.404  0.8298  1.0059  1.4871
 9406SOL    HW231624   2.724   7.552  10.458 -1.1688  0.8202 -0.4702
 9407SOL     OW31625   9.690  10.699   4.813 -0.7629  0.4331  0.1651
 9407SOL    HW131626   9.749  10.759   4.858  0.4460 -0.1681 -0.5738
 9407SOL    HW231627   9.650  10.751   4.743 -0.5904  0.6728  0.2476
 9408SOL     OW31628   7.131   3.016   8.929  0.7424  0.1426 -0.3723
 9408SOL    HW131629   7.218   2.981   8.910  0.8153  0.0979  0.0475
 9408SOL    HW231630   7.095   3.036   8.843 -0.7887 -4.4603 -0.9322
 9409SOL     OW31631   2.094   8.158  10.416 -0.2888 -0.5248 -0.1279
 9409SOL    HW131632   2.059   8.070  10.424 -1.5689  0.0397  0.6069
 9409SOL    HW231633   2.136   8.175  10.501  0.4387 -0.6160 -0.4594
 9410SOL     OW31634   0.574   2.748   9.808  0.2058 -0.7190  0.0264
 9410SOL    HW131635   0.561   2.655   9.788 -2.0519 -0.1961 -1.0788
 9410SOL    HW231636   0.568   2.753   9.903 -1.0928 -1.4984 -0.0069
 9411SOL     OW31637   6.794  10.945   0.882 -0.0042 -1.3451 -0.2349
 9411SOL    HW131638   6.811  10.858   0.919  0.8417 -1.6243 -1.2718
 9411SOL    HW231639   6.760  10.995   0.956  3.0285 -1.4728  1.3602
 9412SOL     OW31640   8.937   5.348  10.168  0.2404  0.5080  0.2398
 9412SOL    HW131641   8.903   5.425  10.122  0.1241  1.4248  1.8473
 9412SOL    HW231642   9.032   5.360  10.168  0.2414  0.4941  0.2073
 9413SOL     OW31643   3.296   2.419   6.982  0.0900  0.0338  0.1642
 9413SOL    HW131644   3.258   2.439   6.896  0.1173  0.1447  0.1768
 9413SOL    HW231645   3.311   2.505   7.021 -1.3465 -0.0353  0.9057
 9414SOL     OW31646   2.097   5.630   6.440  0.0705  0.0077  0.3484
 9414SOL    HW131647   2.026   5.630   6.375 -0.3273  0.6374  0.7835
 9414SOL    HW231648   2.067   5.570   6.508 -0.3142  0.7213  0.8186
 9415SOL     OW31649   1.292   5.128   1.486 -0.0156 -0.1670 -0.0221
 9415SOL    HW131650   1.364   5.191   1.493 -0.3884  0.1620  1.0459
 9415SOL    HW231651   1.289   5.104   1.394  0.3652  1.1195 -0.3749
 9416SOL     OW31652   9.287   5.293   7.898  0.2246 -0.6710  0.0512
 9416SOL    HW131653   9.216   5.296   7.963 -1.4678  1.3508 -1.8107
 9416SOL    HW231654   9.298   5.200   7.878 -3.0588 -0.9252 -0.8294
 9417SOL     OW31655   1.616   7.266   7.907 -0.1876  0.5410  0.1858
 9417SOL    HW131656   1.526   7.255   7.877 -0.5140  1.4378  0.8309
 9417SOL    HW231657   1.669   7.247   7.829 -0.9204 -0.0040 -0.1934
 9418SOL     OW31658   0.515   4.892   9.677  0.3623 -0.3354  0.1299
 9418SOL    HW131659   0.456   4.965   9.695 -0.0143 -0.3031 -1.1978
 9418SOL    HW231660   0.457   4.819   9.655  0.7924 -0.1658 -1.6907
 9419SOL     OW31661   5.447   0.889   4.453 -0.6524  0.5572 -0.2385
 9419SOL    HW131662   5.521   0.847   4.496 -0.3342  0.2622 -1.0730
 9419SOL    HW231663   5.418   0.956   4.515  0.4613  0.8375 -0.0228
 9420SOL     OW31664  10.232   9.735   5.404 -0.4781 -0.4649  0.4539
 9420SOL    HW131665  10.274   9.785   5.334  1.8050  0.1289  2.1674
 9420SOL    HW231666  10.167   9.796   5.441 -1.1085 -0.4940 -0.6006
 9421SOL     OW31667   2.912   5.660   0.762  0.3491  0.2921 -0.2182
 9421SOL    HW131668   2.981   5.604   0.796  0.8819  1.4060  0.5621
 9421SOL    HW231669   2.847   5.665   0.832  0.3353  0.7068 -0.2587
 9422SOL     OW31670   1.494   5.778   4.585  0.8253 -0.2959  0.1336
 9422SOL    HW131671   1.525   5.858   4.542 -0.9327  0.5706  0.4362
 9422SOL    HW231672   1.484   5.716   4.514 -0.8950  0.7598 -0.5702
 9423SOL     OW31673  10.163   7.700   1.349  0.4228 -0.3990 -0.2300
 9423SOL    HW131674  10.133   7.762   1.282  0.6787 -0.9103 -0.8276
 9423SOL    HW231675  10.105   7.624   1.340 -0.4807  0.1221  1.1218
 9424SOL     OW31676   1.117   7.498   9.593  0.8773  0.2281  0.1137
 9424SOL    HW131677   1.110   7.440   9.517  1.0162  3.4591 -2.5086
 9424SOL    HW231678   1.205   7.535   9.587  1.1317  0.0262  2.2736
 9425SOL     OW31679   9.315   8.570   1.050  0.4069  0.1887 -0.2865
 9425SOL    HW131680   9.317   8.511   1.125  0.0847 -0.3686 -0.7121
 9425SOL    HW231681   9.400   8.558   1.007  0.2314 -0.1703 -0.5313
 9426SOL     OW31682   5.060   9.501  10.750 -0.2048  0.1516 -0.2469
 9426SOL    HW131683   5.001   9.528  10.820  0.8916  2.5011 -0.1970
 9426SOL    HW231684   5.110   9.580  10.729 -0.4087 -0.5151 -3.5712
 9427SOL     OW31685  10.090   6.141   9.316 -0.6704 -0.1041 -0.1181
 9427SOL    HW131686  10.047   6.122   9.400 -0.8012 -0.0800 -0.1796
 9427SOL    HW231687  10.145   6.064   9.299 -0.7958 -0.1954 -0.1092
 9428SOL     OW31688   1.820   1.991   9.112  0.7996  0.3344  0.0985
 9428SOL    HW131689   1.735   2.030   9.131  0.8022  0.1825  0.4178
 9428SOL    HW231690   1.844   1.945   9.192 -0.1323 -2.0040 -0.8967
 9429SOL     OW31691   0.331   5.382   3.823 -0.3284  0.2843  0.0305
 9429SOL    HW131692   0.328   5.451   3.889  0.4348  0.9473 -0.6173
 9429SOL    HW231693   0.248   5.389   3.776 -0.4839  0.4033  0.3223
 9430SOL     OW31694   5.473   0.721   8.774  0.7335  0.3748  0.0397
 9430SOL    HW131695   5.459   0.815   8.760 -0.7913  0.3504  1.2952
 9430SOL    HW231696   5.387   0.682   8.763  1.3882 -0.9246 -0.6322
 9431SOL     OW31697   1.269   4.338   2.434  0.2369 -0.5646  0.5273
 9431SOL    HW131698   1.354   4.332   2.390  1.2420 -0.8264  2.4830
 9431SOL    HW231699   1.284   4.400   2.506 -1.3080 -0.3839  0.7017
 9432SOL     OW31700   0.716   5.490   1.278 -0.2703  0.6565 -0.6698
 9432SOL    HW131701   0.753   5.458   1.196 -1.0105  1.2176 -1.2275
 9432SOL    HW231702   0.791   5.493   1.339 -0.1465 -1.9282 -0.6429
 9433SOL     OW31703   0.904   2.254   1.532  0.4309 -0.3828  0.1832
 9433SOL    HW131704   0.945   2.256   1.445 -1.7024 -1.6909 -0.8879
 9433SOL    HW231705   0.858   2.338   1.538  0.6283 -0.2643  0.0707
 9434SOL     OW31706   8.273   8.997   3.469 -0.1860  0.1264  0.1746
 9434SOL    HW131707   8.272   8.973   3.562 -0.4927 -2.3526 -0.4258
 9434SOL    HW231708   8.356   8.963   3.437  0.1550  1.4439 -0.3681
 9435SOL     OW31709   0.791   3.642   1.998  0.6081  0.1390  0.2335
 9435SOL    HW131710   0.762   3.551   1.992 -0.7558  0.6101 -0.4295
 9435SOL    HW231711   0.732   3.682   2.062  0.7325  0.7554 -0.0334
 9436SOL     OW31712   6.896   1.999   2.105  0.4162 -0.4909 -0.6385
 9436SOL    HW131713   6.947   2.067   2.148 -0.3505  0.9373 -1.9277
 9436SOL    HW231714   6.806   2.018   2.129  0.2069 -1.1041 -0.9344
 9437SOL     OW31715   8.790   2.804   8.452  0.0642  0.0115 -0.0680
 9437SOL    HW131716   8.821   2.857   8.526  0.5462  0.1253 -0.3538
 9437SOL    HW231717   8.745   2.730   8.494 -0.8251  0.7577  0.3340
 9438SOL     OW31718   0.297   2.284   3.583 -0.3503 -0.4414  0.6294
 9438SOL    HW131719   0.260   2.199   3.561 -0.3460 -0.4470  0.6434
 9438SOL    HW231720   0.232   2.326   3.639 -1.3237  0.4162 -1.0926
 9439SOL     OW31721   6.953   0.342  10.191 -0.2369  0.0451 -0.5040
 9439SOL    HW131722   6.985   0.302  10.271 -1.6912  0.3701  0.2650
 9439SOL    HW231723   6.972   0.278  10.122  0.4765 -0.4944  0.1871
 9440SOL     OW31724   8.542   2.264   3.746 -0.4743 -0.7584  0.4892
 9440SOL    HW131725   8.569   2.284   3.836  0.7528 -0.8534  0.1593
 9440SOL    HW231726   8.488   2.339   3.721 -0.1592 -0.3395  1.0308
 9441SOL     OW31727   8.941   7.071   9.947 -0.1819  0.4170 -0.0139
 9441SOL    HW131728   8.897   6.987   9.966 -0.3501  0.4169 -0.3951
 9441SOL    HW231729   8.936   7.079   9.851  0.8943  0.2861 -0.0784
 9442SOL     OW31730   2.793   8.917   3.970  0.4328  0.1390 -0.6458
 9442SOL    HW131731   2.698   8.924   3.962  0.3685 -0.6954 -0.6190
 9442SOL    HW231732   2.826   8.998   3.931 -0.3231  0.8400  0.1497
 9443SOL     OW31733   6.754   9.263   0.959 -0.3735  0.1139  0.2906
 9443SOL    HW131734   6.748   9.265   0.863 -1.3445  1.2342  0.3629
 9443SOL    HW231735   6.663   9.249   0.988 -0.4019  1.8922  1.0956
 9444SOL     OW31736   7.303   2.493   3.225 -0.6041 -0.1563 -0.4641
 9444SOL    HW131737   7.301   2.589   3.232 -1.7761 -0.2372  0.5623
 9444SOL    HW231738   7.267   2.474   3.138 -1.6220  0.2975 -0.1528
 9445SOL     OW31739   1.473   5.831   0.210 -0.0969  0.2067  0.6254
 9445SOL    HW131740   1.443   5.921   0.200 -0.8194 -0.0497  0.4773
 9445SOL    HW231741   1.393   5.779   0.215  0.2977 -0.8097 -2.6149
 9446SOL     OW31742   1.087   1.253   5.881 -0.8049  0.0648 -0.3016
 9446SOL    HW131743   1.041   1.172   5.861 -0.7889 -0.0971  0.3156
 9446SOL    HW231744   1.060   1.275   5.970 -0.1858  0.3161 -0.1755
 9447SOL     OW31745   1.788   2.040   7.078 -0.3409  0.6788 -0.2977
 9447SOL    HW131746   1.832   1.955   7.078 -0.9423  0.3662  0.3785
 9447SOL    HW231747   1.714   2.029   7.018 -0.9682  0.4391  0.5194
 9448SOL     OW31748   9.929   3.191   3.513 -0.7375  0.0452  0.2359
 9448SOL    HW131749   9.866   3.154   3.451 -1.1473  0.3623  0.4578
 9448SOL    HW231750   9.902   3.282   3.522 -2.6120 -0.7157  3.2571
 9449SOL     OW31751   4.541   5.935   2.819  0.1094  0.1571  0.0104
 9449SOL    HW131752   4.499   6.014   2.853 -0.6245 -1.2225  2.3904
 9449SOL    HW231753   4.535   5.944   2.723 -0.3675  2.7378  0.2511
 9450SOL     OW31754   1.477   6.940   5.093  0.1303  0.1377 -0.2248
 9450SOL    HW131755   1.383   6.950   5.107  0.3527  1.3214  0.5529
 9450SOL    HW231756   1.515   6.950   5.180  1.0063  0.0827 -0.5935
 9451SOL     OW31757   3.048   2.286   8.392 -0.1816 -0.0104 -0.3745
 9451SOL    HW131758   2.988   2.226   8.348 -0.2165  0.1180 -0.4999
 9451SOL    HW231759   3.116   2.303   8.327 -0.2019  0.1321 -0.3591
 9452SOL     OW31760   7.121   1.703   4.605 -0.3006  0.0912  0.0080
 9452SOL    HW131761   7.170   1.718   4.685 -1.0682 -1.9655  0.8976
 9452SOL    HW231762   7.178   1.648   4.551 -1.1437 -1.3342  0.5601
 9453SOL     OW31763   4.668   1.738   0.834 -0.1949 -0.1059 -0.1659
 9453SOL    HW131764   4.714   1.674   0.890 -0.3327 -0.2940 -0.2672
 9453SOL    HW231765   4.730   1.758   0.764 -0.0226  0.1263  0.0514
 9454SOL     OW31766   3.232  10.766  10.201  0.2839  0.5757 -0.4090
 9454SOL    HW131767   3.261  10.738  10.288  0.0395  2.6446  0.3624
 9454SOL    HW231768   3.188  10.849  10.216  0.1587  0.9136 -2.5149
 9455SOL     OW31769   8.228   7.445   2.630  0.1266  0.0463 -0.2191
 9455SOL    HW131770   8.135   7.424   2.630  0.0394  0.4382  0.0348
 9455SOL    HW231771   8.253   7.439   2.537 -0.7144  2.4258 -0.6174
 9456SOL     OW31772   9.802   5.065   1.333  0.3082 -0.0278  0.2326
 9456SOL    HW131773   9.768   5.089   1.247 -0.0912  0.1927  0.4538
 9456SOL    HW231774   9.835   5.147   1.370 -1.1620  0.2155  1.0354
 9457SOL     OW31775  10.954   1.416  10.104  0.3836 -0.1936  0.0699
 9457SOL    HW131776  10.934   1.509  10.116  0.5628 -0.4308  2.4319
 9457SOL    HW231777  10.881   1.382  10.052 -0.1519  1.0767 -0.0166
 9458SOL     OW31778   1.101   9.664   8.006 -0.6128  0.5232  0.2259
 9458SOL    HW131779   1.026   9.628   8.054 -0.1004  0.0089  0.6400
 9458SOL    HW231780   1.098   9.620   7.921 -1.3044  1.1649 -0.0894
 9459SOL     OW31781   1.894   4.987  10.150 -0.3936  0.1719  0.5784
 9459SOL    HW131782   1.799   4.974  10.152 -0.4371  0.2120 -0.6149
 9459SOL    HW231783   1.928   4.909  10.106  0.3352 -0.8459  2.8745
 9460SOL     OW31784   3.380   5.224   4.126  0.3524 -0.0644 -0.5523
 9460SOL    HW131785   3.386   5.304   4.075  0.9706 -0.5585 -1.2775
 9460SOL    HW231786   3.302   5.235   4.179  0.1664  0.8157 -0.9959
 9461SOL     OW31787   1.329   6.028   3.273 -0.0719 -0.8518  0.5753
 9461SOL    HW131788   1.331   6.080   3.192  0.0624 -0.9574  0.5104
 9461SOL    HW231789   1.307   6.091   3.342 -2.5419 -1.1705  0.1305
 9462SOL     OW31790   6.487   0.652   0.224 -0.5679 -0.0321 -0.1327
 9462SOL    HW131791   6.428   0.689   0.158  0.0581  0.6752 -0.3130
 9462SOL    HW231792   6.499   0.722   0.287 -2.2198 -1.1535  1.4740
 9463SOL     OW31793   3.825   4.221   2.229 -0.1051 -0.2283 -0.9150
 9463SOL    HW131794   3.869   4.223   2.144 -1.1529  0.1511 -1.4707
 9463SOL    HW231795   3.733   4.204   2.207 -0.3427 -0.3414  0.1596
 9464SOL     OW31796   3.840   6.682   1.802  0.3144  0.2800  0.7102
 9464SOL    HW131797   3.830   6.645   1.890  2.1200 -2.5701 -0.2153
 9464SOL    HW231798   3.784   6.626   1.747  1.6523  0.0471 -0.4318
 9465SOL     OW31799   2.533   2.798   0.801  0.3324 -0.4323  0.5890
 9465SOL    HW131800   2.506   2.706   0.799 -0.2830 -0.2534  0.5436
 9465SOL    HW231801   2.561   2.813   0.891  0.4288 -0.6644  0.5977
 9466SOL     OW31802   2.792   6.171   7.167  0.1223 -0.8385 -0.5311
 9466SOL    HW131803   2.729   6.173   7.096  0.0558 -0.5506 -0.4649
 9466SOL    HW231804   2.777   6.253   7.215 -0.0980 -1.2065  0.0401
 9467SOL     OW31805   8.722   2.084   7.006  0.0505  0.0422  0.2621
 9467SOL    HW131806   8.707   2.146   7.077  2.4226  1.2717 -0.2733
 9467SOL    HW231807   8.708   1.998   7.046 -2.0596  0.8379  1.3189
 9468SOL     OW31808   9.934   3.130   8.541 -0.2049  0.3542  0.0781
 9468SOL    HW131809   9.972   3.081   8.469  1.9334  1.9039  0.0870
 9468SOL    HW231810   9.965   3.086   8.620 -0.0694  0.4330  0.0694
 9469SOL     OW31811   9.214   6.180  10.613  0.2008 -0.0327  0.9097
 9469SOL    HW131812   9.132   6.142  10.582  0.9961 -0.3075 -0.9575
 9469SOL    HW231813   9.223   6.261  10.562 -0.0294  1.1721  2.7436
 9470SOL     OW31814   7.058   8.654   7.360 -0.0377  0.1570  0.0753
 9470SOL    HW131815   6.978   8.617   7.324 -0.4782 -0.0799  1.2806
 9470SOL    HW231816   7.032   8.690   7.445  0.8621  1.2096 -0.0865
 9471SOL     OW31817   9.790   4.805   1.460 -0.3736  0.2988  0.1842
 9471SOL    HW131818   9.726   4.774   1.395  0.2316  0.5384 -0.5376
 9471SOL    HW231819   9.811   4.894   1.431  0.0473  0.3340  0.6024
 9472SOL     OW31820   2.814   4.351   3.139 -0.1294  0.5510 -0.0652
 9472SOL    HW131821   2.791   4.263   3.110  0.1191  0.0632  1.1924
 9472SOL    HW231822   2.891   4.339   3.195 -0.4783  1.4940  0.6268
 9473SOL     OW31823   8.516  10.967   8.447 -0.3840  0.2211 -0.0876
 9473SOL    HW131824   8.534  11.034   8.513 -1.0972  0.1187  0.2218
 9473SOL    HW231825   8.420  10.966   8.440 -0.3256  0.0320 -0.9190
 9474SOL     OW31826   0.764   9.739   4.470  0.0671  0.2684  0.3906
 9474SOL    HW131827   0.833   9.679   4.499  1.2560  1.6498  0.5003
 9474SOL    HW231828   0.811   9.816   4.438 -1.4538  1.7521  1.5986
 9475SOL     OW31829   4.521   3.606   8.665  0.5847 -0.1098  0.2559
 9475SOL    HW131830   4.526   3.691   8.708 -0.7281 -0.0629  0.3191
 9475SOL    HW231831   4.453   3.615   8.599 -1.6112 -1.9503  2.1879
 9476SOL     OW31832   2.237   5.263   0.556 -0.1294  0.1419 -0.4249
 9476SOL    HW131833   2.320   5.228   0.522 -0.7835 -0.4966 -1.3780
 9476SOL    HW231834   2.170   5.204   0.522 -1.1145  1.4815 -0.8586
 9477SOL     OW31835   8.488   6.461   1.721 -0.1462  0.4512  0.0477
 9477SOL    HW131836   8.473   6.451   1.815 -2.1305 -0.4384 -0.3363
 9477SOL    HW231837   8.532   6.546   1.713  0.8082  0.1628  1.8359
 9478SOL     OW31838   3.884   5.620  10.519  0.1552 -0.8627  0.0799
 9478SOL    HW131839   3.890   5.537  10.567  0.3847  0.0416  1.6618
 9478SOL    HW231840   3.792   5.626  10.492  0.6156 -2.6950 -2.0359
 9479SOL     OW31841   9.568   5.859   6.217  0.2464  0.4099  0.6311
 9479SOL    HW131842   9.485   5.841   6.260  0.1062  0.6100  0.4488
 9479SOL    HW231843   9.576   5.955   6.220  0.7535  0.3579  1.1794
 9480SOL     OW31844   3.655   4.610   4.962 -0.3305  0.6720 -0.5712
 9480SOL    HW131845   3.697   4.533   4.922  0.2083  0.2429  0.7976
 9480SOL    HW231846   3.681   4.683   4.905  1.5454  0.2728 -0.2701
 9481SOL     OW31847   0.439   9.508   0.070  0.0403  0.2647 -0.0729
 9481SOL    HW131848   0.383   9.541   0.141 -0.6112  0.7225 -0.7971
 9481SOL    HW231849   0.473   9.425   0.104 -2.1439 -0.7082 -0.1254
 9482SOL     OW31850   5.227   3.252   1.225  0.4804 -0.1299  0.2722
 9482SOL    HW131851   5.191   3.335   1.196 -0.3799 -1.0454 -1.3613
 9482SOL    HW231852   5.302   3.276   1.280  0.8589  1.7018 -0.9969
 9483SOL     OW31853  10.286   8.042   8.002 -0.3641 -0.1595  0.4263
 9483SOL    HW131854  10.359   7.995   8.042  0.2840 -1.8610 -2.6068
 9483SOL    HW231855  10.225   7.974   7.975 -0.3266  0.8141 -2.2985
 9484SOL     OW31856   0.557   6.306   7.540  0.0889 -0.1090  0.3059
 9484SOL    HW131857   0.491   6.373   7.526  0.3157  0.0862  0.1812
 9484SOL    HW231858   0.508   6.231   7.576 -0.4641 -0.5385 -1.3158
 9485SOL     OW31859   7.788   9.977   7.764  0.0044  0.2511 -0.4288
 9485SOL    HW131860   7.803  10.067   7.794  3.6634 -0.9806  1.7163
 9485SOL    HW231861   7.731   9.939   7.831  0.8963  0.0989  0.2459
 9486SOL     OW31862   8.018   9.874   5.636 -0.5623 -0.4132 -0.0670
 9486SOL    HW131863   7.940   9.926   5.618  0.2916  0.5663 -0.9131
 9486SOL    HW231864   8.090   9.921   5.595  0.4551 -1.4459  0.4820
 9487SOL     OW31865   9.166   1.888   3.147  0.8450 -0.0871 -0.1710
 9487SOL    HW131866   9.085   1.934   3.171  1.3959  0.4090  0.7390
 9487SOL    HW231867   9.227   1.909   3.217  0.5789 -3.6757  1.2411
 9488SOL     OW31868   6.859   2.352   3.008  0.0978 -0.4035  0.4106
 9488SOL    HW131869   6.774   2.371   2.969  0.3389 -0.4310 -0.1321
 9488SOL    HW231870   6.867   2.416   3.080  0.1456  0.4087 -0.3081
 9489SOL     OW31871  10.937   7.878   3.285  0.8043  0.0298  0.4043
 9489SOL    HW131872  10.954   7.832   3.203 -1.3362 -0.3529  0.1462
 9489SOL    HW231873  11.019   7.923   3.305  0.9599  1.1551 -2.5907
 9490SOL     OW31874  10.866   7.282   6.410 -0.1914  0.5342  0.6728
 9490SOL    HW131875  10.874   7.194   6.449  0.8661 -0.9819 -2.7795
 9490SOL    HW231876  10.783   7.280   6.363  0.4465  0.9385 -0.4863
 9491SOL     OW31877   1.243   2.731   6.737 -0.2582 -0.1115  0.4653
 9491SOL    HW131878   1.270   2.779   6.658 -0.1381 -0.5162  0.2583
 9491SOL    HW231879   1.193   2.795   6.788 -1.2693 -0.1479 -0.4562
 9492SOL     OW31880   6.351   9.606  10.341 -0.0251  0.0795 -0.1783
 9492SOL    HW131881   6.447   9.606  10.341 -0.0091 -0.0490  1.1644
 9492SOL    HW231882   6.327   9.538  10.278  0.7839 -0.4907  0.1184
 9493SOL     OW31883   9.732   1.832   5.286  0.0514  0.9487  0.0150
 9493SOL    HW131884   9.767   1.920   5.280 -0.3108  1.1634  0.9609
 9493SOL    HW231885   9.637   1.843   5.275 -0.0067  0.6918  0.2419
 9494SOL     OW31886   8.191  10.045   4.871 -0.3451  0.0180 -0.2049
 9494SOL    HW131887   8.182  10.120   4.813  0.3399 -0.1563 -0.5431
 9494SOL    HW231888   8.227   9.976   4.816 -2.2523 -0.9889 -0.2397
 9495SOL     OW31889   6.609   1.396  10.135 -0.0024 -0.0556 -0.0715
 9495SOL    HW131890   6.632   1.372  10.224  0.7699 -0.4971 -0.3934
 9495SOL    HW231891   6.574   1.485  10.143  0.1206 -0.0719  0.6599
 9496SOL     OW31892   0.680   2.562   0.632  0.4650 -0.2609  0.1143
 9496SOL    HW131893   0.760   2.609   0.657  0.5929 -0.9103  0.9397
 9496SOL    HW231894   0.699   2.471   0.651  0.1598 -0.6374 -1.3442
 9497SOL     OW31895   9.661   8.382  10.054 -0.5333  0.5251  0.0885
 9497SOL    HW131896   9.674   8.459   9.998 -0.0622  0.7296  0.4706
 9497SOL    HW231897   9.750   8.356  10.079 -0.6291 -0.7774 -0.8813
 9498SOL     OW31898   6.130   5.628  10.197 -1.1547  0.1676  0.5802
 9498SOL    HW131899   6.200   5.564  10.208  1.1211  2.5972  0.6167
 9498SOL    HW231900   6.101   5.647  10.287 -0.6068  0.5109  0.6841
 9499SOL     OW31901   7.353   4.233   4.232  0.3264  0.2164  0.4804
 9499SOL    HW131902   7.372   4.183   4.153  1.0501  0.4252  0.5097
 9499SOL    HW231903   7.427   4.294   4.240  0.0718  0.4558  1.1093
 9500SOL     OW31904   4.359   9.153   3.762  0.5227  0.0095 -0.4109
 9500SOL    HW131905   4.454   9.163   3.755  0.8209 -1.8803  0.5591
 9500SOL    HW231906   4.339   9.175   3.853  0.1105 -0.1102 -0.4708
 9501SOL     OW31907   1.966   6.763   6.522 -0.0442  0.3266  0.2759
 9501SOL    HW131908   1.942   6.730   6.609 -0.8842 -1.8336 -0.7303
 9501SOL    HW231909   2.058   6.741   6.512  0.2765  1.3509  0.9538
 9502SOL     OW31910   8.988   6.557   2.282 -0.1696 -0.6633  0.7841
 9502SOL    HW131911   8.961   6.511   2.361 -0.8295  2.3424  2.3824
 9502SOL    HW231912   8.908   6.597   2.248  0.4565 -0.3410 -0.3431
 9503SOL     OW31913   3.573   3.830   6.424  0.4566 -0.4276  0.0724
 9503SOL    HW131914   3.629   3.752   6.424 -0.1644 -0.8840  1.0417
 9503SOL    HW231915   3.541   3.835   6.334  1.2016 -0.7827 -0.2187
 9504SOL     OW31916   9.036   4.550   7.212 -0.3673  0.7107 -0.0368
 9504SOL    HW131917   9.041   4.455   7.209  0.1592  0.6846  1.2275
 9504SOL    HW231918   8.992   4.575   7.131  0.9200 -0.4992 -1.1207
 9505SOL     OW31919   8.997   1.118   7.412  0.8467  0.3684  0.0673
 9505SOL    HW131920   8.991   1.081   7.500  1.8691  1.1877  0.4981
 9505SOL    HW231921   8.945   1.198   7.416  1.5272  0.8063  0.1439
 9506SOL     OW31922   1.077   9.516   0.151  0.1619 -0.2793  0.0141
 9506SOL    HW131923   1.090   9.567   0.071 -1.4472  0.1317  0.0108
 9506SOL    HW231924   1.128   9.436   0.137  1.0107  0.3938 -0.8374
 9507SOL     OW31925   6.136  10.221   5.874 -0.3313  0.1444 -0.0339
 9507SOL    HW131926   6.209  10.238   5.934  0.3352  0.3235 -0.8893
 9507SOL    HW231927   6.122  10.127   5.879  0.4265  0.0141 -0.4095
 9508SOL     OW31928   7.876   8.981   1.080 -0.0938 -0.2147  0.0443
 9508SOL    HW131929   7.911   9.058   1.036  0.2677 -0.4741 -0.1285
 9508SOL    HW231930   7.808   8.948   1.021 -1.6504  1.1256  1.0572
 9509SOL     OW31931   5.296   5.211   9.191 -0.2309  0.2954  0.2052
 9509SOL    HW131932   5.223   5.160   9.224 -0.8931 -1.4098 -3.5637
 9509SOL    HW231933   5.374   5.163   9.221 -0.7288  0.3869  1.6467
 9510SOL     OW31934   2.355   7.480   3.225  0.4046 -0.0311 -0.3815
 9510SOL    HW131935   2.346   7.574   3.213 -0.4661 -0.1090 -0.3783
 9510SOL    HW231936   2.363   7.468   3.319  0.0571  0.0039 -0.3471
 9511SOL     OW31937   2.321   2.606   5.034 -0.1049 -0.2475 -0.3506
 9511SOL    HW131938   2.270   2.658   4.972 -0.5468  1.3983  1.3564
 9511SOL    HW231939   2.256   2.573   5.095  0.5307 -0.5244  0.1788
 9512SOL     OW31940   7.760   5.048   9.800  0.2499  0.2403  0.7592
 9512SOL    HW131941   7.835   5.040   9.740  0.8798  1.4205  1.3745
 9512SOL    HW231942   7.784   5.119   9.859 -1.4351  0.7282  0.8738
 9513SOL     OW31943   2.273   0.700  10.022 -0.2479 -0.3188 -0.2449
 9513SOL    HW131944   2.250   0.735  10.108  0.4654 -0.3306 -0.0449
 9513SOL    HW231945   2.326   0.768   9.982 -1.9143  0.3798 -1.3367
 9514SOL     OW31946   1.701   4.162   0.220  0.1220 -0.4140 -0.7427
 9514SOL    HW131947   1.718   4.211   0.300 -2.0584  0.1627 -0.5878
 9514SOL    HW231948   1.771   4.188   0.160  1.9115 -1.0337  1.0275
 9515SOL     OW31949   1.869   6.527   0.726 -0.7517  0.5307 -0.3919
 9515SOL    HW131950   1.916   6.608   0.703 -0.5420 -0.3204 -3.0897
 9515SOL    HW231951   1.777   6.548   0.711 -1.1039  1.4792  2.7324
 9516SOL     OW31952   8.064   9.516   3.863  0.1418 -0.0998  0.7645
 9516SOL    HW131953   8.117   9.478   3.794  1.3715 -2.5147  2.9399
 9516SOL    HW231954   8.111   9.596   3.888  2.0060 -1.4387  1.6565
 9517SOL     OW31955   6.512   5.564   0.762 -0.3167  0.0388  0.2578
 9517SOL    HW131956   6.450   5.638   0.761 -0.8802 -0.4298  0.2872
 9517SOL    HW231957   6.527   5.544   0.670 -1.3560 -0.7986  0.2644
 9518SOL     OW31958   7.699   8.566   5.541 -0.6696 -0.2379 -0.0093
 9518SOL    HW131959   7.651   8.586   5.621  0.4458  4.7389 -0.4387
 9518SOL    HW231960   7.671   8.632   5.479  2.0424 -1.0755 -2.2291
 9519SOL     OW31961   0.388   6.230   4.649  0.2958 -0.0669  0.0746
 9519SOL    HW131962   0.460   6.288   4.674  0.4089 -1.0357  2.0861
 9519SOL    HW231963   0.341   6.214   4.731 -1.6006 -0.2803 -1.0367
 9520SOL     OW31964   4.897   6.705   2.713 -0.0855  0.3716 -0.4094
 9520SOL    HW131965   4.962   6.736   2.650 -0.6586 -0.9320 -1.6629
 9520SOL    HW231966   4.899   6.610   2.705 -0.8084  0.2435  0.8888
 9521SOL     OW31967  10.643   0.768   3.495 -0.1366 -0.2514  0.4332
 9521SOL    HW131968  10.643   0.859   3.465  1.0829 -0.7555 -1.0966
 9521SOL    HW231969  10.734   0.750   3.519 -0.0166 -1.6342 -1.0091
 9522SOL     OW31970   4.214  10.669   0.574 -0.6782  0.4159 -0.1102
 9522SOL    HW131971   4.123  10.695   0.576 -0.5606  0.8325 -0.1837
 9522SOL    HW231972   4.263  10.751   0.564 -0.2202  0.3499  1.4728
 9523SOL     OW31973   1.022   2.763   7.835  0.5256 -0.3502  0.6037
 9523SOL    HW131974   0.955   2.818   7.877  0.5843 -0.5256  0.9301
 9523SOL    HW231975   0.975   2.685   7.807  0.2785  0.2100 -0.5877
 9524SOL     OW31976   7.289  10.599   5.424 -0.0628 -0.6340  0.2802
 9524SOL    HW131977   7.207  10.577   5.381  1.8696 -0.2761 -3.7985
 9524SOL    HW231978   7.287  10.694   5.433 -0.2709 -0.6689  0.6109
 9525SOL     OW31979   9.352   7.922   8.578  0.0709 -0.1436 -0.3088
 9525SOL    HW131980   9.444   7.933   8.553 -0.1055 -0.9528 -1.3740
 9525SOL    HW231981   9.354   7.905   8.672  1.2990 -3.3631 -0.8507
 9526SOL     OW31982   4.326   5.826   2.965  0.2896 -0.4690  0.3247
 9526SOL    HW131983   4.298   5.782   2.884  1.1798 -0.3603 -0.0499
 9526SOL    HW231984   4.410   5.866   2.942 -0.2064  0.8945  0.8557
 9527SOL     OW31985  10.384   4.332   7.537 -0.4795  0.1080 -0.4484
 9527SOL    HW131986  10.340   4.257   7.497 -0.4763  1.0098 -2.1553
 9527SOL    HW231987  10.465   4.295   7.573 -0.7044 -0.7891 -0.8471
 9528SOL     OW31988   8.295   2.822   9.985  0.3656  0.1349 -0.8040
 9528SOL    HW131989   8.370   2.793   9.933  0.3349 -0.2451 -0.6413
 9528SOL    HW231990   8.220   2.816   9.926  0.6663  1.7843 -1.3744
 9529SOL     OW31991   7.005   9.470   1.878  0.1280 -0.4120  0.1756
 9529SOL    HW131992   7.021   9.513   1.794 -0.3646  0.7986  0.6857
 9529SOL    HW231993   7.068   9.511   1.937 -0.7195  0.0008  0.7934
 9530SOL     OW31994   9.867   5.584   2.037 -0.0650 -0.3585 -0.2250
 9530SOL    HW131995   9.802   5.647   2.067  0.6436  0.5476 -0.5634
 9530SOL    HW231996   9.886   5.610   1.947  1.7829  0.2552  0.3106
 9531SOL     OW31997   1.088   7.557   1.743  0.3535  0.2203  0.0799
 9531SOL    HW131998   1.162   7.602   1.784 -0.0019  0.5105  0.3978
 9531SOL    HW231999   1.103   7.567   1.649  1.1723 -0.4544  0.1360
 9532SOL     OW32000   2.297   5.750   8.897 -0.0811  0.3491  0.1902
 9532SOL    HW132001   2.235   5.798   8.843  1.4765  0.2967 -1.7183
 9532SOL    HW232002   2.315   5.670   8.848 -0.3785 -0.8125  1.9139
 9533SOL     OW32003   0.896   7.615   8.634 -0.5217 -0.9137  0.3119
 9533SOL    HW132004   0.945   7.676   8.688 -0.0429 -0.5395 -0.5446
 9533SOL    HW232005   0.850   7.559   8.697  0.8231 -1.1306  1.1148
 9534SOL     OW32006   0.419   5.673   9.791 -0.1109 -0.6683 -0.3310
 9534SOL    HW132007   0.430   5.709   9.703 -0.6461 -1.7672 -0.8568
 9534SOL    HW232008   0.397   5.749   9.845 -1.7632 -0.2694 -1.5182
 9535SOL     OW32009   8.417   0.950   2.538  0.4740  0.4338 -0.0859
 9535SOL    HW132010   8.402   1.038   2.574 -1.1849 -0.0853  0.5612
 9535SOL    HW232011   8.381   0.955   2.449  2.8498  1.1705 -1.0344
 9536SOL     OW32012   4.701   8.248   0.023  0.5548 -0.3067 -0.3915
 9536SOL    HW132013   4.771   8.279  -0.035  1.4837  1.2547  1.5163
 9536SOL    HW232014   4.686   8.320   0.083 -0.4384 -1.8674  1.2759
 9537SOL     OW32015   4.276   5.574   6.716  0.2778  0.2563  0.0859
 9537SOL    HW132016   4.228   5.649   6.752  0.6490  1.1509 -1.2110
 9537SOL    HW232017   4.353   5.613   6.675  1.0597 -0.9620  0.3701
 9538SOL     OW32018   7.394   2.004   3.994  0.2932  0.5182 -0.6674
 9538SOL    HW132019   7.396   1.909   4.009  2.3052  0.1691 -2.9148
 9538SOL    HW232020   7.411   2.042   4.080  1.2722 -1.1831 -0.0878
 9539SOL     OW32021   9.457   0.136   8.313  0.0846  0.1427 -0.2493
 9539SOL    HW132022   9.526   0.074   8.289  0.8726  1.1051 -0.4848
 9539SOL    HW232023   9.379   0.103   8.268  0.4630 -0.7444 -0.2790
 9540SOL     OW32024  10.793   3.162   3.037  0.0469  0.4614  0.2501
 9540SOL    HW132025  10.832   3.142   2.953 -0.2968 -2.2157  0.6681
 9540SOL    HW232026  10.778   3.257   3.036  0.0216  0.4486 -2.6813
 9541SOL     OW32027   1.315   2.531   4.081 -0.0145 -0.1063 -0.3552
 9541SOL    HW132028   1.340   2.545   3.990 -1.3165 -0.4726 -0.7903
 9541SOL    HW232029   1.225   2.563   4.087 -0.4245 -1.3262  0.4535
 9542SOL     OW32030   5.391   7.091   3.850 -0.0179  0.2462 -0.0439
 9542SOL    HW132031   5.407   7.064   3.940 -0.1338  1.0921  0.2300
 9542SOL    HW232032   5.457   7.045   3.799  1.0837  1.0185  0.6704
 9543SOL     OW32033   8.306   3.267   3.700 -0.2669 -0.1739 -0.0961
 9543SOL    HW132034   8.374   3.278   3.766  0.0784  0.2270 -0.5202
 9543SOL    HW232035   8.224   3.287   3.746 -0.1550 -1.1510  0.5437
 9544SOL     OW32036   9.125   4.549   9.963 -0.8001  0.0284 -0.1610
 9544SOL    HW132037   9.141   4.464  10.004  0.6398 -0.0362 -0.7970
 9544SOL    HW232038   9.035   4.544   9.931 -1.5669 -0.3086  2.0072
 9545SOL     OW32039   6.959   3.037   8.360 -0.6661  0.7550  0.1547
 9545SOL    HW132040   6.982   2.987   8.282  0.6099  0.7433  0.5325
 9545SOL    HW232041   6.941   3.125   8.327 -0.1551  0.7463 -0.1638
 9546SOL     OW32042   3.010   8.517   1.629 -0.2218  0.6056  0.3892
 9546SOL    HW132043   2.937   8.455   1.629 -0.3953  0.8108  1.1670
 9546SOL    HW232044   3.004   8.562   1.713  1.1291  0.2230  0.7064
 9547SOL     OW32045   9.703   3.478   6.927 -0.1835 -0.4518 -0.4146
 9547SOL    HW132046   9.712   3.383   6.928 -2.8280 -0.7264  1.1981
 9547SOL    HW232047   9.624   3.494   6.875  0.9251  0.9478 -1.7168
 9548SOL     OW32048   8.966  10.414   0.851 -0.3050  0.1295  0.1612
 9548SOL    HW132049   9.008  10.329   0.862  0.9947  1.2465  4.7870
 9548SOL    HW232050   8.874  10.398   0.871 -0.5255 -0.6318 -1.3977
 9549SOL     OW32051   7.985   2.809  10.866 -0.0154 -0.0560  0.5081
 9549SOL    HW132052   8.073   2.789  10.897  0.7839 -0.8560 -2.1341
 9549SOL    HW232053   7.941   2.724  10.864 -0.2571  0.0787  0.1079
 9550SOL     OW32054   1.949   2.301   0.349 -0.0162  0.0243 -0.4999
 9550SOL    HW132055   2.030   2.254   0.328  0.9181  2.7401 -3.4567
 9550SOL    HW232056   1.963   2.335   0.437  2.0852  0.4115 -0.9576
 9551SOL     OW32057  10.275   6.487   3.055  0.3569  0.2243 -0.1807
 9551SOL    HW132058  10.303   6.578   3.065 -0.9753  0.3032  3.5799
 9551SOL    HW232059  10.182   6.493   3.030  0.5704 -0.1163 -1.0838
 9552SOL     OW32060   0.005   4.898   4.173 -0.6146 -0.5712  0.3184
 9552SOL    HW132061   0.095   4.868   4.158 -1.4486 -1.9493 -2.1022
 9552SOL    HW232062   0.011   4.950   4.253  3.0671  2.6149 -1.8371
 9553SOL     OW32063   3.839   9.097   3.504  0.6645 -0.5281  0.1870
 9553SOL    HW132064   3.838   9.147   3.422 -2.5762 -0.6686  0.0544
 9553SOL    HW232065   3.844   9.005   3.475 -0.6556 -0.5870  0.1159
 9554SOL     OW32066   3.357   8.380   5.276  0.5368  0.0387 -0.1111
 9554SOL    HW132067   3.399   8.296   5.294  0.6036  0.0949 -0.0073
 9554SOL    HW232068   3.284   8.359   5.218  0.4576 -0.1078  0.0423
 9555SOL     OW32069  10.715   9.647   1.117 -0.0659 -0.1367  0.0652
 9555SOL    HW132070  10.728   9.573   1.058 -0.3553 -0.2283  0.1123
 9555SOL    HW232071  10.768   9.627   1.194  0.7181  0.2276 -0.3807
 9556SOL     OW32072   0.881  10.206   7.062 -0.2193  0.0120 -0.0359
 9556SOL    HW132073   0.925  10.275   7.013 -1.3513  1.5265  1.0376
 9556SOL    HW232074   0.814  10.173   7.002 -1.3296  1.5754  0.3147
 9557SOL     OW32075   3.663   8.465   8.342 -0.1942  0.2528  0.0417
 9557SOL    HW132076   3.619   8.430   8.264 -2.0050  0.7532  0.8176
 9557SOL    HW232077   3.659   8.394   8.406  1.3620 -0.1847 -0.3226
 9558SOL     OW32078   5.684   2.004   5.170 -0.2139 -0.2341  0.6832
 9558SOL    HW132079   5.761   2.051   5.203 -0.1686  0.2581 -0.1141
 9558SOL    HW232080   5.645   1.965   5.248  0.9761 -0.6808  1.0665
 9559SOL     OW32081   5.739   7.339   4.545 -0.5221  0.5925 -0.1471
 9559SOL    HW132082   5.734   7.384   4.461  0.8699  1.1551  0.0491
 9559SOL    HW232083   5.776   7.405   4.605 -0.2413 -0.2213  0.5881
 9560SOL     OW32084   4.321   4.063   0.782 -0.0809  0.3236 -0.4778
 9560SOL    HW132085   4.348   4.155   0.780  1.2990 -0.0894 -2.5418
 9560SOL    HW232086   4.228   4.065   0.762 -0.1865  1.3180  0.0801
 9561SOL     OW32087   2.796   3.035   5.127 -0.0422  0.0370  0.5626
 9561SOL    HW132088   2.853   3.073   5.193 -2.7020  0.4584  2.7207
 9561SOL    HW232089   2.824   2.944   5.120  0.3816  0.0348  2.1528
 9562SOL     OW32090   3.691   7.849   8.730  0.0158 -0.2295 -0.2385
 9562SOL    HW132091   3.691   7.899   8.649  2.9097  0.8267  0.3185
 9562SOL    HW232092   3.653   7.909   8.795 -0.7798 -0.4700 -0.4765
 9563SOL     OW32093   9.539   3.541   9.287 -0.3677 -0.1491 -0.5360
 9563SOL    HW132094   9.579   3.483   9.222 -0.9576 -1.5613  0.3427
 9563SOL    HW232095   9.542   3.491   9.368 -0.3328  1.3053  0.3656
 9564SOL     OW32096   3.683   8.704   3.923  0.0336 -0.0034  0.7532
 9564SOL    HW132097   3.740   8.700   3.847 -0.5060  0.4758  0.3226
 9564SOL    HW232098   3.594   8.691   3.889 -0.2377  0.4705  1.2608
 9565SOL     OW32099   8.077   4.738   1.481 -0.0182  0.7208  0.5247
 9565SOL    HW132100   8.116   4.653   1.462 -0.2952  0.2293  2.0993
 9565SOL    HW232101   8.070   4.741   1.576  1.3146  3.0985  0.5992
 9566SOL     OW32102  10.374   6.417   3.742 -0.0916 -0.3616  0.6553
 9566SOL    HW132103  10.392   6.330   3.777  0.7892 -0.5489 -0.2426
 9566SOL    HW232104  10.406   6.477   3.809 -1.7273 -0.7074  1.7877
 9567SOL     OW32105   5.810   3.061  10.240 -0.1355  0.4496  0.5388
 9567SOL    HW132106   5.899   3.089  10.261 -0.3113 -0.1802  2.2241
 9567SOL    HW232107   5.811   2.966  10.256 -0.3061 -0.1091 -2.3447
 9568SOL     OW32108   8.285   5.839   0.390 -0.2777 -0.2328 -0.3576
 9568SOL    HW132109   8.206   5.809   0.436  0.0588 -1.0442 -0.3095
 9568SOL    HW232110   8.337   5.760   0.377  0.1511  0.1664 -1.1356
 9569SOL     OW32111   4.289   1.930   1.547 -0.1498 -0.6133  0.2180
 9569SOL    HW132112   4.289   1.854   1.606  1.4715 -1.1671 -0.4659
 9569SOL    HW232113   4.259   1.895   1.463  0.2491 -0.4201 -0.0065
 9570SOL     OW32114   7.776   7.581   2.665  0.4288 -0.0005 -0.8044
 9570SOL    HW132115   7.828   7.635   2.724  0.0790 -0.3762 -0.1504
 9570SOL    HW232116   7.741   7.643   2.600  0.0143  0.5573 -0.0522
 9571SOL     OW32117   9.201  10.011   5.124  0.3904  0.3640 -0.5076
 9571SOL    HW132118   9.127   9.972   5.077  0.4054 -1.1183  0.6530
 9571SOL    HW232119   9.265  10.032   5.056  0.8893 -2.7872 -1.0946
 9572SOL     OW32120   1.557   7.893   6.407 -0.1835  0.0029  0.3509
 9572SOL    HW132121   1.537   7.857   6.494 -0.0877  1.9222  1.1721
 9572SOL    HW232122   1.633   7.948   6.420  1.2468 -1.4730 -1.4125
 9573SOL     OW32123   0.143   9.680  10.403 -0.2083 -0.1747 -0.5020
 9573SOL    HW132124   0.147   9.602  10.459 -0.8208 -0.0933 -0.3469
 9573SOL    HW232125   0.115   9.750  10.462  1.8041  0.4958 -0.2873
 9574SOL     OW32126   8.505   0.833   7.694  0.1309  0.3015  0.2219
 9574SOL    HW132127   8.549   0.749   7.709 -0.3603  0.2423  1.3972
 9574SOL    HW232128   8.412   0.812   7.693  0.0509  0.6896 -0.4667
 9575SOL     OW32129   1.434   5.241  10.966 -0.1507  0.0870 -0.7813
 9575SOL    HW132130   1.508   5.297  10.943 -0.5085  0.8989  0.0006
 9575SOL    HW232131   1.418   5.189  10.888  1.3278 -0.1899 -0.9091
 9576SOL     OW32132   8.367   6.924   3.581  0.3648  0.2266 -0.1476
 9576SOL    HW132133   8.416   6.916   3.500  1.7399  0.2832  0.6619
 9576SOL    HW232134   8.287   6.873   3.566  1.8469 -2.0838 -0.5773
 9577SOL     OW32135   5.068   7.020   5.899  0.1808  0.0468  0.0944
 9577SOL    HW132136   5.011   6.943   5.903 -1.4862  1.3269  2.7129
 9577SOL    HW232137   5.152   6.989   5.930 -0.2980 -0.8749  0.4920
 9578SOL     OW32138   4.583   5.532   1.278 -0.1807 -0.2473  0.1743
 9578SOL    HW132139   4.515   5.598   1.289 -0.1859 -0.5075  1.8168
 9578SOL    HW232140   4.537   5.448   1.284  0.4739 -0.4688  3.1895
 9579SOL     OW32141   1.033   7.130   9.726 -0.0466  0.2874  0.2299
 9579SOL    HW132142   1.054   7.201   9.787  0.6342 -0.3262  0.7119
 9579SOL    HW232143   0.955   7.089   9.763  0.5861 -0.3215  0.8878
 9580SOL     OW32144   0.639   5.906   6.118 -0.0628  1.0869  0.5767
 9580SOL    HW132145   0.690   5.944   6.046 -0.3118  1.9257  0.8424
 9580SOL    HW232146   0.550   5.897   6.082  0.7494 -2.5671 -0.6867
 9581SOL     OW32147   8.963   0.943   1.041  0.2994  0.7251  0.1609
 9581SOL    HW132148   8.965   0.855   1.005  4.5409  0.7916  0.0026
 9581SOL    HW232149   8.921   0.933   1.127  0.6618 -1.4099  0.1149
 9582SOL     OW32150   1.630   8.276   3.181  0.1285 -0.7338 -0.3864
 9582SOL    HW132151   1.662   8.200   3.228 -1.3432 -1.4856 -0.5658
 9582SOL    HW232152   1.708   8.328   3.163  0.9195 -1.2771  1.3686
 9583SOL     OW32153   1.409   4.271  10.314 -0.0684 -0.1591 -0.3280
 9583SOL    HW132154   1.384   4.233  10.398  1.6144 -1.5792 -0.4312
 9583SOL    HW232155   1.491   4.227  10.291  1.0915  2.3480 -1.2828
 9584SOL     OW32156   8.007   2.428   5.824 -0.3169  0.5096 -0.6665
 9584SOL    HW132157   7.951   2.385   5.889  0.5539  1.1062  0.5101
 9584SOL    HW232158   7.992   2.380   5.743 -0.0240 -1.4599  0.4063
 9585SOL     OW32159   1.779   0.582   6.581 -0.5931 -0.7361 -0.7155
 9585SOL    HW132160   1.764   0.497   6.622  1.2478 -1.2174 -0.9994
 9585SOL    HW232161   1.694   0.627   6.587 -0.6931 -1.2519  2.4823
 9586SOL     OW32162   2.712   1.915   6.732  0.3289  0.2237 -0.7092
 9586SOL    HW132163   2.686   1.862   6.806  1.6303  0.0517 -0.3542
 9586SOL    HW232164   2.679   1.868   6.655  1.2454 -0.9775 -0.3870
 9587SOL     OW32165   3.964   4.167   4.862 -0.5769  0.0420  0.1262
 9587SOL    HW132166   3.874   4.154   4.893 -0.8201  1.1945 -0.0656
 9587SOL    HW232167   3.995   4.079   4.840 -1.4913 -0.4194  0.6464
 9588SOL     OW32168   1.621   8.175  10.401 -0.0783  0.3455  0.6968
 9588SOL    HW132169   1.694   8.207  10.454  0.8532  1.7230 -1.3662
 9588SOL    HW232170   1.620   8.081  10.417  0.6298  0.6330  2.5916
 9589SOL     OW32171   9.401   2.558   8.064 -0.5149 -0.1682  0.1995
 9589SOL    HW132172   9.485   2.512   8.056  0.0925  0.9430 -0.0636
 9589SOL    HW232173   9.337   2.489   8.079  0.7171 -0.9024  2.3376
 9590SOL     OW32174   4.991   5.355  10.866 -0.3955  0.1810 -0.1952
 9590SOL    HW132175   4.952   5.281  10.913 -1.4100 -0.7140 -2.3689
 9590SOL    HW232176   4.920   5.388  10.811  0.9041  0.8951 -1.4679
 9591SOL     OW32177   6.769   6.948   0.172  0.0332 -0.3374 -0.4942
 9591SOL    HW132178   6.687   6.978   0.133 -0.2524 -1.0308 -0.4332
 9591SOL    HW232179   6.836   7.006   0.135 -0.2711 -0.7900 -1.7713
 9592SOL     OW32180   8.945   3.613   4.101  0.2963  0.6143  0.0291
 9592SOL    HW132181   8.926   3.607   4.007  1.1091  2.8513 -0.3177
 9592SOL    HW232182   8.868   3.575   4.143 -0.3109  0.0623 -1.5475
 9593SOL     OW32183  10.471   8.195   2.623 -0.2631  0.7591 -0.3669
 9593SOL    HW132184  10.457   8.213   2.530 -0.3055 -0.2264 -0.5603
 9593SOL    HW232185  10.535   8.260   2.651  0.1923  0.6842 -1.2297
 9594SOL     OW32186   4.691   2.578   3.431 -0.0614 -0.1284  0.3292
 9594SOL    HW132187   4.740   2.651   3.394 -0.0260  1.7966  3.9108
 9594SOL    HW232188   4.757   2.523   3.472 -0.2922 -1.0416 -0.5133
 9595SOL     OW32189   5.980  10.730   8.328 -0.0199 -0.3035 -0.2939
 9595SOL    HW132190   6.059  10.734   8.383  0.0182  0.4935 -0.3982
 9595SOL    HW232191   5.909  10.712   8.390  0.0525  0.3935 -0.0010
 9596SOL     OW32192   4.304   3.476   2.372  0.0530  0.4506  0.2447
 9596SOL    HW132193   4.220   3.488   2.418 -0.4210  1.1586 -0.7781
 9596SOL    HW232194   4.368   3.462   2.442 -1.3213 -2.7757  0.9440
 9597SOL     OW32195   1.701   7.973   9.338  0.4481  0.2372 -0.7806
 9597SOL    HW132196   1.699   7.901   9.401  2.0692 -2.5284 -3.7631
 9597SOL    HW232197   1.612   7.980   9.305  0.4884 -1.0043 -1.1432
 9598SOL     OW32198   4.611   1.698   7.222 -0.1722  0.3074  0.1720
 9598SOL    HW132199   4.550   1.638   7.265 -2.5167 -0.3681 -3.8293
 9598SOL    HW232200   4.574   1.785   7.240 -2.2644 -0.0768 -1.9565
 9599SOL     OW32201   1.457   6.417   7.598  0.3797  0.2904  0.0107
 9599SOL    HW132202   1.497   6.330   7.593  0.9162  0.5094  0.4030
 9599SOL    HW232203   1.368   6.401   7.629  0.6336 -0.0790  0.5606
 9600SOL     OW32204   5.843   4.192   8.163  0.1092 -0.6845 -0.1585
 9600SOL    HW132205   5.864   4.177   8.256  0.5259 -0.2454 -0.1804
 9600SOL    HW232206   5.927   4.215   8.123  0.0100 -1.2987 -0.7353
 9601SOL     OW32207   0.695   4.418   0.739 -0.5532  0.4889  0.3752
 9601SOL    HW132208   0.663   4.396   0.827 -3.3140 -1.6336 -1.0724
 9601SOL    HW232209   0.707   4.333   0.697 -0.8951  1.5272 -1.8494
 9602SOL     OW32210   6.959   2.845   9.730 -0.0939 -0.3967  0.0978
 9602SOL    HW132211   7.018   2.819   9.800  0.3641 -0.6613 -0.3763
 9602SOL    HW232212   6.880   2.793   9.743  0.1337 -0.7164  0.1994
 9603SOL     OW32213   0.780   9.644   1.308  0.5809  0.0338  0.6431
 9603SOL    HW132214   0.725   9.573   1.274 -1.3583  0.0578  3.5915
 9603SOL    HW232215   0.755   9.720   1.255  0.0545 -0.6688 -0.1388
 9604SOL     OW32216   0.019   0.766   0.559  0.3105  0.3330  0.5647
 9604SOL    HW132217   0.025   0.690   0.502 -0.3587 -0.2387  1.2518
 9604SOL    HW232218  -0.069   0.801   0.544  0.6698  1.0848  0.1234
 9605SOL     OW32219   5.587   8.048  10.590 -1.3189  0.7101 -0.1979
 9605SOL    HW132220   5.527   8.069  10.518 -0.5592  0.9078 -0.7774
 9605SOL    HW232221   5.668   8.092  10.566 -0.7786 -0.0140  0.3156
 9606SOL     OW32222   4.539   4.553   3.216 -0.0676  0.3788  0.4737
 9606SOL    HW132223   4.492   4.582   3.294 -1.9727 -1.3693  0.0181
 9606SOL    HW232224   4.474   4.505   3.165  1.4487  0.5124 -1.6461
 9607SOL     OW32225   9.158   4.214   6.873 -0.3518  0.0717  0.0149
 9607SOL    HW132226   9.207   4.170   6.803  1.9313  1.0129  0.9542
 9607SOL    HW232227   9.071   4.229   6.836 -0.1753 -2.2784 -1.4683
 9608SOL     OW32228  10.608  10.356   7.063 -0.1302 -0.1387  0.1699
 9608SOL    HW132229  10.529  10.369   7.116 -1.2818 -0.6130 -1.3851
 9608SOL    HW232230  10.585  10.285   7.003  1.9569 -1.2078  0.5877
 9609SOL     OW32231   3.424   1.765  10.436  0.0307 -0.3080 -0.0519
 9609SOL    HW132232   3.422   1.857  10.462  2.0582 -0.3992  0.4982
 9609SOL    HW232233   3.455   1.766  10.346 -3.0127 -0.2778 -1.1617
 9610SOL     OW32234   6.701   5.627  10.410  0.4464 -0.0452  0.1838
 9610SOL    HW132235   6.759   5.553  10.393  0.5967  0.3427 -1.0338
 9610SOL    HW232236   6.668   5.652  10.324  0.5988  1.4589  0.5434
 9611SOL     OW32237   0.219   8.334   3.865 -0.1099  1.0159 -0.6758
 9611SOL    HW132238   0.150   8.361   3.926 -0.8983  2.1258 -2.0237
 9611SOL    HW232239   0.299   8.335   3.918 -1.1483 -0.6671  1.0037
 9612SOL     OW32240   9.268   0.022   8.670 -0.2663  0.0488  0.3901
 9612SOL    HW132241   9.362   0.020   8.685 -0.2189  1.2091  0.2294
 9612SOL    HW232242   9.242   0.112   8.687 -1.8440 -0.8912  3.4022
 9613SOL     OW32243   5.787   8.450   6.050 -0.5090 -0.7677 -0.5580
 9613SOL    HW132244   5.773   8.374   6.107 -0.5592  0.0121  0.4753
 9613SOL    HW232245   5.880   8.468   6.056 -0.8154  0.4701  0.7752
 9614SOL     OW32246   4.508   8.502   7.772 -0.5707 -0.3130 -0.1593
 9614SOL    HW132247   4.564   8.567   7.816  0.1248 -1.3558  0.5016
 9614SOL    HW232248   4.419   8.535   7.784 -0.1948  0.7347 -0.1850
 9615SOL     OW32249   2.040   4.610   1.194  0.0170  0.0711 -0.5516
 9615SOL    HW132250   2.131   4.625   1.170  0.2742 -1.5357 -0.6524
 9615SOL    HW232251   2.034   4.515   1.207 -2.2138 -0.1715 -2.9575
 9616SOL     OW32252  10.415   7.782   1.301 -0.3977  0.3840 -0.9340
 9616SOL    HW132253  10.403   7.775   1.206 -2.2021  2.6638 -0.9342
 9616SOL    HW232254  10.342   7.733   1.338  1.3379 -2.0778 -0.6539
 9617SOL     OW32255   0.904   0.873   9.374 -0.6048 -0.5449 -0.1349
 9617SOL    HW132256   0.924   0.781   9.392  0.5536 -0.2616  0.1005
 9617SOL    HW232257   0.810   0.882   9.391 -1.0815 -2.0716 -1.8415
 9618SOL     OW32258   1.931   6.726   6.835 -0.1342 -0.3306  0.5640
 9618SOL    HW132259   1.843   6.696   6.814 -0.2339  0.0388  0.4556
 9618SOL    HW232260   1.979   6.646   6.858 -0.5059 -0.5286  0.6569
 9619SOL     OW32261   7.148   1.093   6.703  0.3044 -0.4021  0.0030
 9619SOL    HW132262   7.145   1.118   6.795 -1.2905  1.9642 -0.6497
 9619SOL    HW232263   7.078   1.029   6.693  1.6498 -2.0289  0.7858
 9620SOL     OW32264   9.110   0.804   0.760 -0.0663  0.4548  0.2648
 9620SOL    HW132265   9.157   0.880   0.795  1.0770 -1.2282  2.5121
 9620SOL    HW232266   9.097   0.747   0.836 -1.4601 -1.3149 -1.2697
 9621SOL     OW32267   4.431   3.302  10.622 -0.3188  0.3383  0.2375
 9621SOL    HW132268   4.477   3.380  10.589  0.8489 -0.9737 -1.3260
 9621SOL    HW232269   4.398   3.260  10.543  0.4010 -1.5769  0.9401
 9622SOL     OW32270   8.934   8.963   7.351  0.4698  0.1713  0.8010
 9622SOL    HW132271   8.998   8.986   7.418  0.8709 -0.4700  0.6395
 9622SOL    HW232272   8.960   8.876   7.321  1.3612  1.1991 -1.4731
 9623SOL     OW32273   7.731   0.207   2.540  0.0953  0.1410 -0.0094
 9623SOL    HW132274   7.718   0.217   2.445  0.1857 -1.4783 -0.2154
 9623SOL    HW232275   7.813   0.157   2.547 -0.4922 -0.7102  0.8790
 9624SOL     OW32276   2.348   6.451   5.299 -0.3286  0.0435  0.3768
 9624SOL    HW132277   2.423   6.491   5.344  0.5159 -2.1466  0.9757
 9624SOL    HW232278   2.386   6.408   5.223 -1.1718  0.0030 -0.0246
 9625SOL     OW32279   3.317   6.413   6.293 -0.1035  0.2827 -0.2121
 9625SOL    HW132280   3.231   6.372   6.305 -0.4557  0.4340 -1.9912
 9625SOL    HW232281   3.378   6.340   6.291 -0.0651  0.2213  1.8351
 9626SOL     OW32282   4.184   6.489   1.830 -0.2276  0.2743  0.1245
 9626SOL    HW132283   4.266   6.441   1.819 -0.7321 -0.2624 -1.4718
 9626SOL    HW232284   4.186   6.556   1.761 -1.1311  0.2306  0.0425
 9627SOL     OW32285   1.590   5.238   4.919  0.2371 -0.0754  0.2771
 9627SOL    HW132286   1.658   5.286   4.965  0.7882 -0.4809 -0.1158
 9627SOL    HW232287   1.534   5.306   4.881  0.9382  0.2615 -0.1648
 9628SOL     OW32288   8.893   4.381   1.561  1.0126  0.4267 -0.0152
 9628SOL    HW132289   8.936   4.424   1.487 -0.1942 -0.4666 -1.2587
 9628SOL    HW232290   8.802   4.411   1.555  0.4837 -1.1408 -0.0379
 9629SOL     OW32291   4.095   0.777   3.195 -0.4223  0.2089 -0.1649
 9629SOL    HW132292   4.137   0.793   3.280 -0.5821  2.3173 -0.4662
 9629SOL    HW232293   4.009   0.742   3.218 -0.1077 -0.1159  0.5313
 9630SOL     OW32294   8.683   3.348   8.726 -0.1552  0.0366 -0.0464
 9630SOL    HW132295   8.678   3.338   8.821 -1.2876 -3.6224 -0.4201
 9630SOL    HW232296   8.775   3.370   8.709  0.2153  0.0356  1.8508
 9631SOL     OW32297   1.321   0.866   8.354 -0.1510 -1.0678  0.5327
 9631SOL    HW132298   1.294   0.782   8.316 -3.1353 -0.3138  0.8731
 9631SOL    HW232299   1.345   0.845   8.445 -3.2066 -1.2004  1.3401
 9632SOL     OW32300   8.815   4.270   2.239 -0.6227 -0.0368 -0.3325
 9632SOL    HW132301   8.808   4.230   2.152 -2.2491 -1.8096  0.5890
 9632SOL    HW232302   8.819   4.364   2.221 -2.5524 -0.2767 -2.2584
 9633SOL     OW32303   6.453   1.934   1.382 -0.8069  0.0976 -0.1592
 9633SOL    HW132304   6.362   1.962   1.390 -0.4908  0.5952  1.8140
 9633SOL    HW232305   6.459   1.856   1.437 -0.0701 -0.0214 -0.3998
 9634SOL     OW32306   4.092   9.047   0.980  0.4274 -0.4613  0.5142
 9634SOL    HW132307   4.021   8.984   0.989  0.1142 -0.4472 -1.6114
 9634SOL    HW232308   4.153   9.024   1.050 -0.6525 -1.8352  1.0314
 9635SOL     OW32309   0.487   6.047  10.949 -0.2794 -0.0114 -0.2455
 9635SOL    HW132310   0.469   6.140  10.935  0.2435  0.2252  0.5828
 9635SOL    HW232311   0.445   6.027  11.032 -0.1338 -0.4410 -0.2763
 9636SOL     OW32312   5.866   2.888   7.301 -0.7651  0.6109  0.0714
 9636SOL    HW132313   5.794   2.838   7.263 -0.9716  0.7533  0.2731
 9636SOL    HW232314   5.902   2.938   7.227  0.1192 -0.6199 -0.3523
 9637SOL     OW32315   5.617   8.873   5.330 -0.4407 -0.0020  0.8543
 9637SOL    HW132316   5.599   8.864   5.237  0.2996  1.0290  0.6121
 9637SOL    HW232317   5.538   8.912   5.367 -0.4383  0.2884  0.5433
 9638SOL     OW32318   7.167  10.701   7.796 -0.2501  0.4607 -0.3434
 9638SOL    HW132319   7.249  10.732   7.834 -0.9148  2.1118 -0.2073
 9638SOL    HW232320   7.162  10.609   7.823  0.6747  0.8289  1.1797
 9639SOL     OW32321   3.302   6.961   5.375  0.1379 -0.6611 -0.0221
 9639SOL    HW132322   3.258   7.033   5.420  0.8597  0.2385 -0.7322
 9639SOL    HW232323   3.263   6.959   5.288  1.7139  0.3645 -0.7775
 9640SOL     OW32324   6.082   7.180   8.011  0.4841 -0.7372 -0.5765
 9640SOL    HW132325   6.146   7.252   8.002 -0.4690  0.2634  0.4881
 9640SOL    HW232326   6.027   7.207   8.084 -0.7694 -1.9019 -1.0835
 9641SOL     OW32327   4.795   9.840   8.852 -0.4738 -0.5402 -0.2510
 9641SOL    HW132328   4.815   9.770   8.790 -1.0495 -0.3345 -0.6708
 9641SOL    HW232329   4.873   9.895   8.853 -0.7168 -0.1784 -1.2854
 9642SOL     OW32330  10.914   5.902  10.872 -0.4148 -0.4576 -0.2080
 9642SOL    HW132331  10.956   5.964  10.932  0.4450 -0.4379 -0.8264
 9642SOL    HW232332  10.830   5.943  10.851 -0.1630  0.1571 -0.0383
 9643SOL     OW32333   7.427  10.910  10.789  0.2846  0.2286  0.1902
 9643SOL    HW132334   7.431  10.950  10.702  0.9704 -0.0341  0.0971
 9643SOL    HW232335   7.407  10.983  10.848 -2.6814 -0.0050 -0.4813
 9644SOL     OW32336   4.955   7.318   2.747  0.3575 -0.0361  0.0406
 9644SOL    HW132337   4.908   7.391   2.787 -2.3554 -0.9969 -1.2384
 9644SOL    HW232338   4.985   7.265   2.821 -1.2461  0.2356  0.9028
 9645SOL     OW32339   5.817   7.733   0.404 -0.3221 -0.6856 -0.0881
 9645SOL    HW132340   5.800   7.745   0.310  2.5234  0.0532 -0.5703
 9645SOL    HW232341   5.853   7.645   0.410  0.6348 -0.2887  0.1126
 9646SOL     OW32342   6.900   5.324   5.925  0.3636  0.5370  0.1572
 9646SOL    HW132343   6.864   5.377   5.853  2.3437  2.0722  0.2658
 9646SOL    HW232344   6.979   5.285   5.888 -2.3868 -4.5920 -0.7907
 9647SOL     OW32345   2.594   1.440   0.259  0.5741 -0.1601  0.8035
 9647SOL    HW132346   2.560   1.393   0.335 -1.4775  1.7426  1.1285
 9647SOL    HW232347   2.606   1.530   0.289  1.7438  0.1643 -0.5611
 9648SOL     OW32348   3.336   1.055  10.037  0.2140 -0.9173 -0.8385
 9648SOL    HW132349   3.350   1.119  10.108  0.4922 -1.5298 -0.3359
 9648SOL    HW232350   3.357   1.103   9.957 -2.1196  0.4262 -0.6951
 9649SOL     OW32351   6.972   7.929   1.983  0.7488  0.1228  0.1444
 9649SOL    HW132352   6.938   7.985   2.052 -0.5072  0.2661 -0.5742
 9649SOL    HW232353   6.982   7.987   1.907  2.2960  0.0089  0.2549
 9650SOL     OW32354   7.321   0.492  10.433  0.4570  0.4105  0.1339
 9650SOL    HW132355   7.266   0.513  10.357  0.2633 -1.6261 -0.2982
 9650SOL    HW232356   7.403   0.540  10.416  0.3711  0.0839 -1.2928
 9651SOL     OW32357   3.172   5.147   9.097 -0.2629 -0.0949 -0.2491
 9651SOL    HW132358   3.084   5.136   9.133 -0.2331  1.0185  0.1827
 9651SOL    HW232359   3.160   5.143   9.002 -0.9910  1.4758 -0.2401
 9652SOL     OW32360   0.524   2.013   6.582 -0.1296 -0.6334 -0.2926
 9652SOL    HW132361   0.488   1.965   6.507 -2.9410  0.3292  0.3832
 9652SOL    HW232362   0.454   2.012   6.647  1.0900  1.2988  1.1066
 9653SOL     OW32363   2.774   4.863   4.035 -0.1383 -0.5231 -0.2853
 9653SOL    HW132364   2.855   4.863   3.984  0.1475  0.3023  0.1546
 9653SOL    HW232365   2.713   4.808   3.984  0.6619 -1.0647 -0.6631
 9654SOL     OW32366   8.642   2.321   9.392  0.5855 -0.0643  0.2675
 9654SOL    HW132367   8.613   2.238   9.356 -0.6158  0.3178  0.3470
 9654SOL    HW232368   8.585   2.386   9.352  1.7543  0.7747 -0.0856
 9655SOL     OW32369   1.888   7.697   4.416 -0.1699  0.1438 -0.2647
 9655SOL    HW132370   1.793   7.701   4.431  0.1971  0.5431  2.1354
 9655SOL    HW232371   1.922   7.646   4.490  1.3115 -1.5531 -2.0524
 9656SOL     OW32372   6.346   4.619   8.683  0.9359  0.0513  0.0093
 9656SOL    HW132373   6.275   4.623   8.746  0.0822  0.9845 -0.9812
 9656SOL    HW232374   6.404   4.692   8.707  1.8001 -0.9810  1.0870
 9657SOL     OW32375   4.814   9.509   4.288 -0.0117 -0.4783 -0.3035
 9657SOL    HW132376   4.850   9.433   4.334  2.5924 -1.4166 -3.6721
 9657SOL    HW232377   4.722   9.486   4.272  0.6258 -2.7745 -0.8907
 9658SOL     OW32378   9.546   8.790   0.630 -0.7408  0.1254  0.7314
 9658SOL    HW132379   9.539   8.703   0.590  0.7477  0.3998 -0.1689
 9658SOL    HW232380   9.459   8.808   0.663 -2.3889  0.4102 -3.5067
 9659SOL     OW32381   9.936  10.584   3.626  0.1387 -0.1484 -0.0732
 9659SOL    HW132382   9.904  10.670   3.653  1.7869  0.8063 -1.0605
 9659SOL    HW232383   9.973  10.599   3.539  3.3492 -1.1394  1.0415
 9660SOL     OW32384   5.598   1.618   6.748  0.3193 -0.1605 -0.2629
 9660SOL    HW132385   5.654   1.674   6.693 -1.6310  0.6196 -1.5014
 9660SOL    HW232386   5.624   1.639   6.838  1.9949  0.1927 -0.8006
 9661SOL     OW32387   8.465   2.523   8.977  0.2668  0.0863  0.0756
 9661SOL    HW132388   8.432   2.526   8.887 -1.3755 -2.0867  0.5637
 9661SOL    HW232389   8.415   2.590   9.023 -0.2624 -0.0889 -0.2325
 9662SOL     OW32390   5.099   1.588   8.713 -0.1269 -0.4750  0.0396
 9662SOL    HW132391   5.104   1.559   8.805 -1.2506 -1.9106 -0.3203
 9662SOL    HW232392   5.087   1.683   8.719 -1.2927 -0.6712  1.4382
 9663SOL     OW32393   5.589   0.807   3.487 -0.9566 -0.4362  0.6244
 9663SOL    HW132394   5.548   0.728   3.450  0.0235 -0.3496 -0.6618
 9663SOL    HW232395   5.532   0.831   3.560 -1.8719 -1.7096  0.3479
 9664SOL     OW32396   9.318   9.837   5.336  0.3247 -0.1132 -0.1611
 9664SOL    HW132397   9.251   9.772   5.314 -0.5617  0.3065  1.2443
 9664SOL    HW232398   9.305   9.907   5.272 -1.5738  0.6486  1.0161
 9665SOL     OW32399   6.255   4.226   2.785  0.5472 -0.0079 -0.1981
 9665SOL    HW132400   6.332   4.259   2.831  2.0629 -0.6967 -2.1570
 9665SOL    HW232401   6.224   4.153   2.839  1.3327  0.2100  0.5557
 9666SOL     OW32402   8.025   2.145   7.650 -0.3164 -0.2708  0.1930
 9666SOL    HW132403   8.018   2.115   7.740  0.8848  1.8070  1.0087
 9666SOL    HW232404   7.971   2.225   7.647  0.6973  0.3977 -0.5842
 9667SOL     OW32405   1.300   9.471   5.904  0.3931 -0.3896 -0.1360
 9667SOL    HW132406   1.371   9.530   5.929 -0.0789  0.0064  0.2789
 9667SOL    HW232407   1.300   9.403   5.971  0.0133 -0.0763  0.1833
 9668SOL     OW32408   4.162   3.327   9.108 -0.0131 -0.3792  0.2429
 9668SOL    HW132409   4.138   3.285   9.190 -3.2383  2.4824  0.8872
 9668SOL    HW232410   4.136   3.264   9.040  1.1678 -2.0592  1.2992
 9669SOL     OW32411   5.187   5.496   6.731 -0.3217 -0.7960 -0.2971
 9669SOL    HW132412   5.094   5.499   6.751 -0.2915 -0.2678 -0.2166
 9669SOL    HW232413   5.230   5.497   6.817 -0.2077  0.6441 -0.3638
 9670SOL     OW32414   1.690   8.258   4.924  0.0072 -0.0300 -0.6882
 9670SOL    HW132415   1.677   8.297   4.837 -1.3265  1.9833  0.3932
 9670SOL    HW232416   1.647   8.173   4.919 -1.1065  0.5815 -1.6216
 9671SOL     OW32417   1.549   9.911   5.867  0.1019 -0.3348 -0.1715
 9671SOL    HW132418   1.595   9.865   5.796  2.4920 -0.1359  1.1940
 9671SOL    HW232419   1.556  10.003   5.844  1.7294 -0.2068  0.7959
 9672SOL     OW32420   5.765   2.711   9.543 -0.4119  0.0617  0.2626
 9672SOL    HW132421   5.743   2.798   9.577  0.2315 -0.4485  2.0194
 9672SOL    HW232422   5.825   2.674   9.607 -0.4496 -1.5839 -0.6136
 9673SOL     OW32423   6.212   4.176   8.285 -0.3265 -0.6154  0.3124
 9673SOL    HW132424   6.145   4.240   8.261  0.1759  0.4865  1.7305
 9673SOL    HW232425   6.294   4.225   8.282  0.0220 -1.0741  1.7869
 9674SOL     OW32426   8.025   8.199   9.286  0.2681  0.2070 -0.3567
 9674SOL    HW132427   7.967   8.207   9.210  0.6442  0.4341 -0.6213
 9674SOL    HW232428   8.033   8.105   9.301 -0.0311  0.1686 -0.4232
 9675SOL     OW32429   9.819   7.501   6.818 -0.0426 -0.3393  0.1424
 9675SOL    HW132430   9.843   7.425   6.765 -1.6790  0.8979 -2.4056
 9675SOL    HW232431   9.726   7.490   6.836  0.3548 -0.4504  2.3610
 9676SOL     OW32432   8.432  10.958   0.922 -0.3803  0.0174 -0.0589
 9676SOL    HW132433   8.370  10.937   0.992 -0.0395  1.6277  0.7480
 9676SOL    HW232434   8.378  10.969   0.844 -1.1007  1.3694  0.6331
 9677SOL     OW32435  10.586   8.131   0.203 -0.1606  0.2632  0.4489
 9677SOL    HW132436  10.512   8.117   0.263 -0.9130  1.5750 -0.1519
 9677SOL    HW232437  10.636   8.050   0.207 -1.5370 -0.5681  1.0138
 9678SOL     OW32438   9.745   1.916   2.614  0.1567 -0.8767  0.1307
 9678SOL    HW132439   9.656   1.949   2.625  0.2728 -0.7479  0.7221
 9678SOL    HW232440   9.786   1.978   2.553 -0.0285 -0.6886  0.1974
 9679SOL     OW32441   8.349   1.724   6.776  0.5512  0.4118  0.4406
 9679SOL    HW132442   8.310   1.637   6.789  2.9215 -1.1579 -2.3194
 9679SOL    HW232443   8.326   1.747   6.685 -0.6246  3.0129  1.3456
 9680SOL     OW32444   6.499   8.533   2.512 -0.1073 -0.0348 -0.5232
 9680SOL    HW132445   6.553   8.515   2.589 -1.2446 -0.2874  0.2381
 9680SOL    HW232446   6.423   8.580   2.547 -0.9070 -0.6460 -1.4067
 9681SOL     OW32447   0.989  10.296   5.638  0.0643  0.3481  0.0511
 9681SOL    HW132448   0.897  10.277   5.656  0.0933  0.7906  0.6862
 9681SOL    HW232449   1.037  10.222   5.675 -0.0362  0.0820 -0.3439
 9682SOL     OW32450  10.407   0.507   7.765 -0.6206  0.3961 -0.0088
 9682SOL    HW132451  10.499   0.533   7.757  0.0094 -0.8017  2.6315
 9682SOL    HW232452  10.363   0.587   7.794 -0.0568  0.4945  0.6032
 9683SOL     OW32453   2.785   9.874   2.321 -0.0370 -0.3496 -0.0296
 9683SOL    HW132454   2.745   9.957   2.297 -0.6594 -0.4621  0.5929
 9683SOL    HW232455   2.711   9.820   2.349  0.1308 -1.6961 -2.0432
 9684SOL     OW32456   5.657   7.636   2.144  0.1384 -0.7265  0.3173
 9684SOL    HW132457   5.568   7.671   2.154 -0.4446 -2.1975  0.3651
 9684SOL    HW232458   5.648   7.568   2.077  0.6784 -2.7840  2.2807
 9685SOL     OW32459   7.716   8.622  10.703  0.2611  0.0191 -0.1746
 9685SOL    HW132460   7.802   8.583  10.712  1.1200  1.6488 -1.0672
 9685SOL    HW232461   7.725   8.709  10.742 -0.4519  0.9155 -1.9657
 9686SOL     OW32462   9.088   3.330   3.767 -0.0749 -0.1971  0.3783
 9686SOL    HW132463   9.134   3.351   3.849 -0.6266  0.1967  0.5968
 9686SOL    HW232464   9.066   3.237   3.775 -1.6032  0.2316  1.4358
 9687SOL     OW32465   9.877   9.527   1.143  0.1155 -0.2811  0.0433
 9687SOL    HW132466   9.810   9.549   1.078 -0.7980  0.1442  1.1056
 9687SOL    HW232467   9.915   9.444   1.112 -0.3787 -0.1275 -0.9700
 9688SOL     OW32468   9.511   0.365   9.558  0.2535 -0.0295  0.1458
 9688SOL    HW132469   9.578   0.433   9.571 -0.5708  0.9763 -0.7552
 9688SOL    HW232470   9.474   0.384   9.472 -0.5205 -1.1718  0.2171
 9689SOL     OW32471   6.739   8.896   2.598 -0.3499 -0.1329 -0.1964
 9689SOL    HW132472   6.781   8.944   2.527 -0.7320 -1.4544 -1.3379
 9689SOL    HW232473   6.671   8.955   2.631  0.5840  0.9317 -0.1470
 9690SOL     OW32474   5.798   6.035   0.900 -0.3623 -0.0101  0.1897
 9690SOL    HW132475   5.834   6.108   0.850 -0.2676  0.6611  1.2174
 9690SOL    HW232476   5.713   6.067   0.932 -0.7283 -0.6752 -0.1135
 9691SOL     OW32477   5.343  10.513   0.184  0.4449 -0.2851 -0.2019
 9691SOL    HW132478   5.325  10.544   0.273 -0.0843  1.5472 -0.9192
 9691SOL    HW232479   5.436  10.530   0.171 -0.0289  1.8812 -0.9051
 9692SOL     OW32480   4.974   4.736   8.439 -0.1280  0.3865  0.2742
 9692SOL    HW132481   4.896   4.757   8.387  0.4049  1.1302 -0.2327
 9692SOL    HW232482   4.949   4.658   8.489 -0.7669 -0.1573 -0.8600
 9693SOL     OW32483   7.841   4.932   5.254 -0.1454 -0.4108 -0.0393
 9693SOL    HW132484   7.767   4.948   5.196  0.4804 -2.1713 -1.3602
 9693SOL    HW232485   7.915   4.975   5.211 -0.4765  2.0322  1.6675
 9694SOL     OW32486   2.824  10.116   5.805  0.1788  0.6227 -0.8666
 9694SOL    HW132487   2.855  10.054   5.870  0.7510  3.3901  1.6075
 9694SOL    HW232488   2.730  10.100   5.798 -0.2100  1.4582  2.0044
 9695SOL     OW32489   1.684  10.654   2.191 -0.1398 -0.0482  0.6693
 9695SOL    HW132490   1.772  10.688   2.206 -0.4164  0.4357  1.2063
 9695SOL    HW232491   1.659  10.615   2.275 -0.0924 -0.9760  0.2578
 9696SOL     OW32492   6.242   9.707   2.662  0.1608  0.8036 -0.0627
 9696SOL    HW132493   6.189   9.693   2.584 -0.2429  3.4422 -0.3116
 9696SOL    HW232494   6.246   9.621   2.705 -2.6399  0.1246 -1.0761
 9697SOL     OW32495   5.772   2.511   3.480  0.5207 -0.1660 -0.2785
 9697SOL    HW132496   5.751   2.480   3.392 -1.7060 -0.8332  0.4626
 9697SOL    HW232497   5.779   2.606   3.471 -0.8859 -0.1187 -0.9528
 9698SOL     OW32498   0.104   2.949   5.596 -0.3976  0.0769  0.2336
 9698SOL    HW132499   0.053   3.025   5.626  0.4030  0.1993  1.3193
 9698SOL    HW232500   0.192   2.984   5.582 -0.5005 -0.2159 -1.2768
 9699SOL     OW32501   3.968   7.730   4.449 -0.1098  0.2628  0.2480
 9699SOL    HW132502   3.939   7.718   4.540 -2.4143 -2.7440 -0.8020
 9699SOL    HW232503   3.957   7.643   4.409  1.8377  1.2925 -2.6577
 9700SOL     OW32504   1.779   7.515   0.083 -0.0644  0.2036  0.5578
 9700SOL    HW132505   1.731   7.582   0.132 -0.6428  0.0259  0.2435
 9700SOL    HW232506   1.740   7.518  -0.005  0.4215 -0.0251  0.3359
 9701SOL     OW32507  10.912   5.856   9.182 -0.3298 -0.2869  0.3568
 9701SOL    HW132508  10.866   5.939   9.194 -1.3507 -0.8245  0.2561
 9701SOL    HW232509  10.894   5.832   9.091  0.3452 -0.3857  0.2503
 9702SOL     OW32510   5.355   7.917   1.530 -0.5987  0.5837  0.5033
 9702SOL    HW132511   5.439   7.885   1.562 -0.9363 -0.3726  0.4325
 9702SOL    HW232512   5.374   8.005   1.497  0.5717 -0.0049 -0.4222
 9703SOL     OW32513   2.929   2.231   6.962 -0.4219 -0.3750  0.1979
 9703SOL    HW132514   2.958   2.322   6.961  0.3791 -0.6350  0.0004
 9703SOL    HW232515   2.864   2.226   6.891 -1.8715  0.4871  1.4282
 9704SOL     OW32516   6.460   8.606   5.871 -0.5294  0.7191 -0.2646
 9704SOL    HW132517   6.373   8.619   5.834  0.1490  2.6567 -1.2666
 9704SOL    HW232518   6.520   8.632   5.801  0.8678 -1.1269  0.2257
 9705SOL     OW32519   1.105   5.530   5.534  0.1463 -0.6855 -0.1636
 9705SOL    HW132520   1.142   5.449   5.500  1.3860 -0.3925  0.4660
 9705SOL    HW232521   1.171   5.596   5.517 -0.5942  0.0804 -0.1031
 9706SOL     OW32522   5.739   3.547   4.533 -0.4312  0.5107  0.1859
 9706SOL    HW132523   5.699   3.576   4.451 -0.6099  0.0299  0.0996
 9706SOL    HW232524   5.668   3.502   4.579  0.0009 -0.3383  0.0357
 9707SOL     OW32525   0.822   8.219   8.852  0.3660 -0.3737 -0.2504
 9707SOL    HW132526   0.913   8.247   8.846 -0.0410  0.8646 -0.7909
 9707SOL    HW232527   0.771   8.298   8.838 -0.8213 -1.3471 -1.6191
 9708SOL     OW32528   0.366   3.865   3.109 -0.5331 -0.0930 -0.1868
 9708SOL    HW132529   0.388   3.923   3.036 -1.2875 -0.0616 -0.4000
 9708SOL    HW232530   0.308   3.918   3.164 -0.4433 -0.3207  0.1262
 9709SOL     OW32531   9.758   5.928   3.776  0.1438  0.5787 -0.0403
 9709SOL    HW132532   9.770   5.970   3.690 -1.5223  0.2932 -0.4323
 9709SOL    HW232533   9.687   5.977   3.816 -0.6713 -0.7967  0.2078
 9710SOL     OW32534   8.809   1.119   9.286  0.5888  0.6714  0.3004
 9710SOL    HW132535   8.814   1.210   9.258  2.0120 -0.4381 -3.5127
 9710SOL    HW232536   8.899   1.096   9.309  0.1652  0.3480  1.6568
 9711SOL     OW32537   5.279   6.172   7.243 -0.0709  0.0353  0.1399
 9711SOL    HW132538   5.280   6.252   7.191 -1.3325  0.3542  0.6022
 9711SOL    HW232539   5.215   6.189   7.312  1.0615 -0.6442  1.3814
 9712SOL     OW32540   9.277   2.697   9.834  0.2716 -0.9046 -0.3167
 9712SOL    HW132541   9.294   2.651   9.751  0.7202 -1.6063  0.1536
 9712SOL    HW232542   9.332   2.651   9.898  1.0035  0.5438  0.0986
 9713SOL     OW32543   6.981   1.684   7.799 -0.3889  0.3422 -0.2816
 9713SOL    HW132544   7.059   1.631   7.811 -1.1193 -0.4680  0.9413
 9713SOL    HW232545   7.011   1.760   7.749  1.0255 -0.3204 -0.4450
 9714SOL     OW32546   5.458   5.918  10.950 -0.0439  0.7126 -0.5574
 9714SOL    HW132547   5.421   5.888  11.033 -0.1294 -2.1727 -1.5850
 9714SOL    HW232548   5.408   5.996  10.928 -0.2654  1.3029  1.9283
 9715SOL     OW32549   7.954   7.444   9.120  0.3451  0.0991  0.3087
 9715SOL    HW132550   8.013   7.412   9.052  0.8643  0.0066  0.8030
 9715SOL    HW232551   7.873   7.464   9.074  0.3461 -0.9823 -0.1671
 9716SOL     OW32552   1.300   2.870   5.701 -0.2302  0.0166 -0.1540
 9716SOL    HW132553   1.313   2.924   5.622  0.3569  0.9290  0.5567
 9716SOL    HW232554   1.229   2.810   5.678 -2.3926  2.5313 -0.2063
 9717SOL     OW32555   9.451   8.541   1.762  0.3829  0.7290  0.0421
 9717SOL    HW132556   9.403   8.616   1.799  1.7568  1.2099  0.8774
 9717SOL    HW232557   9.521   8.524   1.825 -0.5392 -1.9382  0.4072
 9718SOL     OW32558   5.494   3.774   3.895 -0.6430 -0.5147 -0.0523
 9718SOL    HW132559   5.503   3.811   3.982 -0.0328 -0.0055 -0.3273
 9718SOL    HW232560   5.576   3.796   3.851 -1.3229  0.0288 -1.0535
 9719SOL     OW32561   5.384   9.768   9.346  0.0031  0.2837 -0.4136
 9719SOL    HW132562   5.422   9.681   9.338  0.9310  0.6303  0.1154
 9719SOL    HW232563   5.306   9.766   9.291 -0.7978 -1.3374  0.7406
 9720SOL     OW32564   7.796  10.625   4.648  0.2908  0.3495 -0.6045
 9720SOL    HW132565   7.804  10.688   4.577 -2.1447  0.9204 -0.4155
 9720SOL    HW232566   7.702  10.620   4.665  0.4030 -3.4594 -0.7118
 9721SOL     OW32567   9.881   3.000   4.325 -0.4367  0.3493 -0.2392
 9721SOL    HW132568   9.924   3.046   4.252  1.1179  0.4778  0.7467
 9721SOL    HW232569   9.793   3.037   4.327  0.0464  1.6021 -0.9705
 9722SOL     OW32570   4.532   3.428   1.096 -0.6128 -0.1774 -0.4507
 9722SOL    HW132571   4.619   3.389   1.095 -0.2646  0.4473  1.5688
 9722SOL    HW232572   4.548   3.521   1.081 -0.8878 -0.0248  0.1748
 9723SOL     OW32573   6.010   7.341   6.336  0.5209 -0.0606 -0.1707
 9723SOL    HW132574   5.962   7.417   6.303 -2.1745 -0.9859  1.5077
 9723SOL    HW232575   6.081   7.378   6.388  0.2021  1.2960 -0.6846
 9724SOL     OW32576   7.810   2.292   5.958 -0.0515 -0.4612  0.2606
 9724SOL    HW132577   7.807   2.218   5.897 -0.8595 -1.5269  1.5710
 9724SOL    HW232578   7.725   2.335   5.948  0.3648  0.2367 -0.3994
 9725SOL     OW32579   3.668   1.480  10.279 -0.0024  0.1529 -0.0242
 9725SOL    HW132580   3.749   1.500  10.325  0.2977  1.4066 -1.0734
 9725SOL    HW232581   3.695   1.427  10.204 -0.5107 -2.0468  1.2953
 9726SOL     OW32582   0.908   5.112   4.323 -0.2826  0.0886  0.1180
 9726SOL    HW132583   0.828   5.063   4.342 -0.7866  1.1952  0.9041
 9726SOL    HW232584   0.911   5.180   4.390  1.0681  0.3584 -0.2016
 9727SOL     OW32585  10.546   7.456   1.505  0.5227 -0.2542  1.2202
 9727SOL    HW132586  10.514   7.522   1.566 -0.6412  0.5716 -0.2557
 9727SOL    HW232587  10.606   7.503   1.448  1.1551 -0.8986  1.3473
 9728SOL     OW32588   8.723   4.486   4.658 -0.1996 -0.6756 -0.2411
 9728SOL    HW132589   8.760   4.471   4.571 -0.7155  1.1959 -0.8138
 9728SOL    HW232590   8.779   4.555   4.695  0.0693 -1.5203  0.9568
 9729SOL     OW32591   1.484   8.425   7.139  0.0590  0.3079  0.8730
 9729SOL    HW132592   1.450   8.369   7.069 -0.6804  0.8513  0.7926
 9729SOL    HW232593   1.457   8.381   7.220 -0.1099  0.2898  0.8079
 9730SOL     OW32594   4.032   8.607   5.065 -0.0913  0.2257  0.2404
 9730SOL    HW132595   3.977   8.579   5.137 -0.7698  2.2367  0.5293
 9730SOL    HW232596   3.973   8.611   4.989  0.3515 -0.6851 -0.1629
 9731SOL     OW32597   2.950   5.679   2.684  0.1768  0.0027 -0.4446
 9731SOL    HW132598   2.950   5.699   2.777 -0.1780  0.4670 -0.5404
 9731SOL    HW232599   3.022   5.617   2.672  0.2032 -0.0753  0.1393
 9732SOL     OW32600   4.167   9.609   9.172 -0.0569 -0.1257  0.9651
 9732SOL    HW132601   4.214   9.610   9.255  0.6994 -1.9395  0.5879
 9732SOL    HW232602   4.231   9.576   9.109 -1.3996 -1.2861  0.1729
 9733SOL     OW32603  10.693   5.614   0.146 -0.0248 -0.2167 -0.1171
 9733SOL    HW132604  10.771   5.646   0.192 -1.4881 -0.3378  2.5411
 9733SOL    HW232605  10.718   5.527   0.115  1.5371  0.5253 -0.9790
 9734SOL     OW32606   8.471  10.189   7.838 -0.0832  0.5052 -0.2053
 9734SOL    HW132607   8.415  10.192   7.761 -1.2051 -0.4745  0.5649
 9734SOL    HW232608   8.460  10.101   7.873 -0.6355  1.3562  1.8459
 9735SOL     OW32609   2.738   5.858  10.434 -0.0980 -0.6387  0.0458
 9735SOL    HW132610   2.781   5.858  10.348 -1.8525  0.4410 -0.8572
 9735SOL    HW232611   2.685   5.778  10.434  0.6765 -1.1561  0.5315
 9736SOL     OW32612   0.951   1.537   2.053  0.6424  0.0106 -0.0486
 9736SOL    HW132613   0.990   1.510   1.970  2.3961 -1.0575  1.0824
 9736SOL    HW232614   0.928   1.456   2.097 -1.9907  0.6178 -0.2516
 9737SOL     OW32615   4.197   5.153   2.823 -0.1145  0.0657  0.4584
 9737SOL    HW132616   4.270   5.173   2.882 -0.1322  0.9420  0.1898
 9737SOL    HW232617   4.220   5.068   2.786  1.3957  0.8698 -0.5389
 9738SOL     OW32618   1.909   1.404   1.406 -0.4083 -0.5610  0.0818
 9738SOL    HW132619   1.979   1.442   1.459  0.3252  1.7229 -2.4256
 9738SOL    HW232620   1.945   1.321   1.375 -0.8335 -1.9177  3.0330
 9739SOL     OW32621   4.916   2.812   7.882 -0.4503  0.2846  0.9253
 9739SOL    HW132622   5.002   2.794   7.845 -0.0381  1.4602  1.2754
 9739SOL    HW232623   4.859   2.822   7.806 -0.0222  0.6954  0.6531
 9740SOL     OW32624   3.402   7.446   6.783  0.3205 -0.1632 -0.2137
 9740SOL    HW132625   3.352   7.367   6.764 -0.7915  0.4496  0.1677
 9740SOL    HW232626   3.337   7.512   6.804  1.2648  0.7526 -0.1093
 9741SOL     OW32627   0.325   5.777   4.151 -0.1327 -0.4277  0.2848
 9741SOL    HW132628   0.361   5.800   4.237  1.9648  0.2055 -0.7146
 9741SOL    HW232629   0.300   5.861   4.112  0.4821 -0.5362 -0.3649
 9742SOL     OW32630   6.779   5.962   1.159 -0.0750 -0.0200  0.3210
 9742SOL    HW132631   6.807   6.040   1.207 -1.5893  0.3297  0.6843
 9742SOL    HW232632   6.700   5.934   1.205  1.0188 -2.3834  0.8337
 9743SOL     OW32633   5.771   0.235   6.802  0.3921 -0.5380  0.6954
 9743SOL    HW132634   5.814   0.170   6.746 -1.5963 -1.8218  0.6192
 9743SOL    HW232635   5.838   0.260   6.866  1.4794 -1.9115  0.1203
 9744SOL     OW32636   0.862   6.388   1.469 -0.3036 -0.1006 -0.3803
 9744SOL    HW132637   0.922   6.314   1.468 -0.0563  0.1044 -1.8449
 9744SOL    HW232638   0.919   6.465   1.460 -0.4049  0.4219  2.7015
 9745SOL     OW32639   3.590   7.871   7.716 -0.2700 -0.1117 -0.1064
 9745SOL    HW132640   3.524   7.864   7.648  0.7594 -0.8307 -1.0658
 9745SOL    HW232641   3.612   7.964   7.721  0.0799 -0.1361 -1.1894
 9746SOL     OW32642   2.691  10.165   3.887 -0.0509 -0.1084  0.4984
 9746SOL    HW132643   2.683  10.071   3.901  1.7720 -0.7490 -2.2529
 9746SOL    HW232644   2.601  10.197   3.883 -0.7350 -2.1432 -0.8390
 9747SOL     OW32645   1.584   7.425   0.578 -0.1834 -0.3604  0.0151
 9747SOL    HW132646   1.550   7.387   0.659  1.8178 -2.0539  0.1026
 9747SOL    HW232647   1.547   7.369   0.509  1.0275 -1.1857  0.0131
 9748SOL     OW32648   1.366   0.290   1.018  0.0267 -0.1664  0.3113
 9748SOL    HW132649   1.289   0.249   0.978  0.4821  0.0386 -0.7653
 9748SOL    HW232650   1.398   0.352   0.952  1.0724 -0.1912  0.7879
 9749SOL     OW32651   5.512   8.950   1.269  0.3774  0.3014  0.2630
 9749SOL    HW132652   5.596   8.905   1.255  0.2017  0.1244 -0.2215
 9749SOL    HW232653   5.478   8.966   1.181 -0.1028  0.3595  0.4572
 9750SOL     OW32654  10.360   0.979   9.033 -0.4981 -0.1110  0.0906
 9750SOL    HW132655  10.321   1.003   9.117  0.0354 -2.1355  0.9551
 9750SOL    HW232656  10.452   0.965   9.053  0.2798  2.4371 -1.4902
 9751SOL     OW32657   7.284   6.440   2.723  0.1603  0.8793 -0.0973
 9751SOL    HW132658   7.241   6.463   2.805 -0.6709 -1.3180  0.1253
 9751SOL    HW232659   7.374   6.418   2.749 -0.7672 -2.3349  0.6909
 9752SOL     OW32660   7.739   0.468   0.081  0.3598 -0.2773 -0.5115
 9752SOL    HW132661   7.749   0.399   0.147 -0.3277 -0.5020 -0.6397
 9752SOL    HW232662   7.697   0.425   0.007 -1.5071  0.6240 -0.0110
 9753SOL     OW32663   1.294   6.728   4.521 -0.0030 -0.6222  0.1236
 9753SOL    HW132664   1.283   6.808   4.470  0.7836 -0.3345  0.4046
 9753SOL    HW232665   1.212   6.721   4.571  0.7604  1.1787  1.7107
 9754SOL     OW32666   2.870   5.886   3.631  0.3210  0.1366 -0.5924
 9754SOL    HW132667   2.785   5.921   3.657  1.2871  2.6110 -0.5816
 9754SOL    HW232668   2.906   5.846   3.710 -0.0457  0.7929 -0.0861
 9755SOL     OW32669   7.317  10.906  10.531  0.2057 -0.5131 -0.1352
 9755SOL    HW132670   7.226  10.924  10.507  0.1065 -0.1907  0.4725
 9755SOL    HW232671   7.328  10.813  10.511 -0.1707 -0.4851 -0.4847
 9756SOL     OW32672   6.163   7.999   7.067  0.2240  0.0794 -0.9037
 9756SOL    HW132673   6.255   7.979   7.080  0.6521  2.7065  0.4760
 9756SOL    HW232674   6.137   8.047   7.146 -1.8411  0.9082 -2.0328
 9757SOL     OW32675   6.108   5.073   1.634 -0.2789 -0.1106 -0.0099
 9757SOL    HW132676   6.191   5.118   1.619  0.2523 -0.7248  1.0365
 9757SOL    HW232677   6.070   5.063   1.547  0.4752  0.6776 -0.4395
 9758SOL     OW32678   9.698   9.004   4.729  0.2516 -0.4399  0.5551
 9758SOL    HW132679   9.780   9.054   4.734  0.1506 -0.1196 -0.9771
 9758SOL    HW232680   9.724   8.920   4.692  0.3025 -1.3133  2.5023
 9759SOL     OW32681   2.550   3.663   1.412  0.2209  0.3102  0.0812
 9759SOL    HW132682   2.615   3.596   1.395 -0.7519 -1.3769  2.6870
 9759SOL    HW232683   2.580   3.705   1.493 -0.4927  1.3875 -0.1996
 9760SOL     OW32684   4.731   7.595   8.162  0.2947 -0.1654 -0.2076
 9760SOL    HW132685   4.659   7.559   8.110 -1.0232  0.4975  1.1094
 9760SOL    HW232686   4.796   7.524   8.165 -0.8158 -1.2152 -0.4386
 9761SOL     OW32687   8.354   9.412   8.790 -0.2494  0.1043 -0.3368
 9761SOL    HW132688   8.331   9.326   8.755 -1.4317  0.5536 -0.6939
 9761SOL    HW232689   8.447   9.405   8.812 -0.8306 -1.9075  1.6053
 9762SOL     OW32690   8.979   1.269   0.941  0.6002  0.3633 -0.1243
 9762SOL    HW132691   8.930   1.239   0.864  0.0323  3.2210 -0.9202
 9762SOL    HW232692   8.986   1.191   0.996 -0.3732 -1.3489 -2.3367
 9763SOL     OW32693   4.657   7.504   3.578 -0.0098  0.3358  0.0433
 9763SOL    HW132694   4.577   7.510   3.527  0.9436 -0.8613 -1.6209
 9763SOL    HW232695   4.651   7.577   3.640 -2.3054  0.3396 -0.1417
 9764SOL     OW32696   8.990   5.202   4.953  0.1288  0.3650 -0.2050
 9764SOL    HW132697   9.052   5.221   4.883  1.7175  0.2716  1.1533
 9764SOL    HW232698   9.024   5.123   4.995 -1.4204 -0.2235 -0.0275
 9765SOL     OW32699   6.524  10.671   2.856  0.0775  0.4684  0.1557
 9765SOL    HW132700   6.531  10.674   2.761  1.6563 -0.0192  0.2437
 9765SOL    HW232701   6.459  10.738   2.877  1.3665  2.1936 -1.1251
 9766SOL     OW32702  10.021   0.617   8.471 -0.1447  0.1244 -0.0723
 9766SOL    HW132703  10.091   0.678   8.493 -0.7729  0.4913  0.9544
 9766SOL    HW232704   9.942   0.656   8.510 -0.8513 -0.4685 -0.8843
 9767SOL     OW32705  10.801   1.031  10.859  0.3124  0.1654  0.0657
 9767SOL    HW132706  10.864   0.984  10.913  0.2010  1.6633  1.5554
 9767SOL    HW232707  10.787   0.975  10.783 -0.0338 -2.3173  1.9004
 9768SOL     OW32708   1.275   0.033   9.248 -0.2979  0.0954  0.0084
 9768SOL    HW132709   1.232   0.076   9.174 -1.0821  0.6236  0.7647
 9768SOL    HW232710   1.209   0.029   9.316 -0.0389 -1.7586  0.1811
 9769SOL     OW32711   7.479   6.341   7.065  0.5230 -0.4300  0.0786
 9769SOL    HW132712   7.506   6.431   7.045 -0.4616  0.3307  2.0300
 9769SOL    HW232713   7.558   6.289   7.053  1.5759  0.9826  0.7149
 9770SOL     OW32714   3.374   2.420   9.879 -0.3206 -0.0732  0.3753
 9770SOL    HW132715   3.385   2.326   9.896 -0.3287  0.0092  0.8452
 9770SOL    HW232716   3.363   2.458   9.966  2.2371  0.7101  0.4090
 9771SOL     OW32717   6.953   3.329   1.151 -0.2721  1.1137  0.0224
 9771SOL    HW132718   6.881   3.274   1.119 -1.0446  0.8002  2.1823
 9771SOL    HW232719   7.024   3.314   1.088 -0.3039 -2.7464  0.7459
 9772SOL     OW32720   0.366   9.801   5.608  0.0198 -0.2533 -0.1671
 9772SOL    HW132721   0.452   9.787   5.650 -0.5439 -1.5570  0.5949
 9772SOL    HW232722   0.380   9.876   5.550  1.5208 -0.0640  0.3968
 9773SOL     OW32723   5.273  10.453   1.852  0.2799  0.4658  0.2832
 9773SOL    HW132724   5.250  10.369   1.892 -2.0102  0.4425 -0.9753
 9773SOL    HW232725   5.359  10.438   1.813 -0.6253 -1.7056 -1.0073
 9774SOL     OW32726   9.486  10.627   9.898 -0.3932 -0.1518  0.2517
 9774SOL    HW132727   9.529  10.712   9.903 -0.1178 -0.2895  0.2325
 9774SOL    HW232728   9.528  10.584   9.823 -0.4916 -0.3272  0.2986
 9775SOL     OW32729   9.723   4.969   4.897 -0.3887  0.3423 -0.7767
 9775SOL    HW132730   9.805   4.993   4.854 -0.3264 -0.4919 -1.1403
 9775SOL    HW232731   9.722   4.873   4.896 -1.3130  0.3405 -0.6812
 9776SOL     OW32732   7.960   0.621   5.362  0.1203 -0.5249  0.0769
 9776SOL    HW132733   7.988   0.659   5.445  2.6756 -0.8234 -0.6252
 9776SOL    HW232734   7.925   0.696   5.313 -1.1964 -0.3126  1.2840
 9777SOL     OW32735   7.268   0.700   4.760  0.1424  0.5069 -0.3407
 9777SOL    HW132736   7.278   0.653   4.677 -0.2949 -0.2458  0.0286
 9777SOL    HW232737   7.269   0.631   4.827 -0.3076  1.0382  0.2197
 9778SOL     OW32738   7.845   0.374   8.889 -0.3182 -0.2942  0.7975
 9778SOL    HW132739   7.822   0.389   8.797 -0.5310 -0.5986  0.8015
 9778SOL    HW232740   7.767   0.333   8.927  0.2455 -1.4038  0.7841
 9779SOL     OW32741   8.117   7.909   2.133 -0.0681 -0.6555  0.8504
 9779SOL    HW132742   8.210   7.918   2.115 -0.2233 -0.3597  0.1581
 9779SOL    HW232743   8.083   7.861   2.057 -0.7247  0.4718  0.4157
 9780SOL     OW32744   1.161   7.476   5.766 -0.5857  0.2289  0.1631
 9780SOL    HW132745   1.145   7.565   5.735  0.2224  0.2756 -0.1380
 9780SOL    HW232746   1.223   7.486   5.838 -0.1010 -0.1289 -0.1983
 9781SOL     OW32747   2.413   7.477   0.676  0.2452  0.4366  0.2378
 9781SOL    HW132748   2.384   7.535   0.746 -0.3184  0.1769  0.2197
 9781SOL    HW232749   2.451   7.402   0.721  0.1311  0.3955  0.2649
 9782SOL     OW32750   8.019   0.059   6.165 -0.3094 -0.6453  0.3150
 9782SOL    HW132751   8.030   0.002   6.089 -1.2935  0.3243 -0.5664
 9782SOL    HW232752   7.981   0.002   6.232 -1.2668 -1.0341 -0.5553
 9783SOL     OW32753  10.179   6.300   5.346  0.0876  0.4255 -0.1400
 9783SOL    HW132754  10.106   6.284   5.406  1.0981 -1.0468  0.7147
 9783SOL    HW232755  10.157   6.249   5.268  0.7969 -1.0462  0.6036
 9784SOL     OW32756  10.578   2.672   0.989  0.0788 -0.0182 -0.5181
 9784SOL    HW132757  10.555   2.663   0.897 -0.6316  0.4852 -0.3967
 9784SOL    HW232758  10.665   2.633   0.997  1.0601  1.8927 -1.8080
 9785SOL     OW32759   4.147   1.322   9.664  0.5006  0.1151 -0.1465
 9785SOL    HW132760   4.120   1.398   9.715 -0.8696 -0.0054 -0.6745
 9785SOL    HW232761   4.099   1.249   9.702  1.7673 -0.4959  0.3226
 9786SOL     OW32762   3.914   2.365   9.231  0.2059 -0.3749  0.0543
 9786SOL    HW132763   3.985   2.421   9.199 -1.4569  1.0940 -1.1739
 9786SOL    HW232764   3.888   2.404   9.315 -0.1731  0.0242 -0.2441
 9787SOL     OW32765   6.331   0.311   8.538 -0.3056  0.3285 -0.1069
 9787SOL    HW132766   6.413   0.360   8.528  0.0852 -0.2750  0.0897
 9787SOL    HW232767   6.316   0.309   8.633 -0.6599  0.6268 -0.1583
 9788SOL     OW32768  10.260  10.947   1.517 -0.7220  0.2347 -0.3670
 9788SOL    HW132769  10.183  11.003   1.524 -1.4183 -0.9114  1.8819
 9788SOL    HW232770  10.227  10.867   1.476 -0.1752  0.6531 -1.6575
 9789SOL     OW32771   6.562   0.866   3.747  0.2645  0.6514 -0.8027
 9789SOL    HW132772   6.555   0.961   3.741  1.0761  0.7434 -0.3571
 9789SOL    HW232773   6.479   0.838   3.786  0.1370  1.1967 -0.6840
 9790SOL     OW32774   6.399   8.632   9.785  0.5328 -0.0722 -0.1181
 9790SOL    HW132775   6.482   8.671   9.812  0.0179  0.6943  0.3810
 9790SOL    HW232776   6.340   8.648   9.859  0.9180 -3.7900  1.1092
 9791SOL     OW32777   7.887   0.967   9.951 -0.3239  0.2444  0.1359
 9791SOL    HW132778   7.922   1.055   9.938  2.1008 -0.7962 -0.7249
 9791SOL    HW232779   7.855   0.967  10.042 -0.2001  1.9357  0.1927
 9792SOL     OW32780   5.534   7.356   6.293  0.1329 -0.8996  0.5282
 9792SOL    HW132781   5.589   7.369   6.215  1.8016  2.7105  2.1883
 9792SOL    HW232782   5.451   7.399   6.271  0.4339 -0.2997  0.5439
 9793SOL     OW32783   8.943   8.198   6.800  0.6419 -0.3512 -0.3174
 9793SOL    HW132784   9.037   8.210   6.805  0.3851  1.4932  0.3178
 9793SOL    HW232785   8.932   8.109   6.765  2.5935 -0.6137 -0.3080
 9794SOL     OW32786   3.978   6.575   5.423 -0.1957  0.2696  0.6051
 9794SOL    HW132787   3.967   6.580   5.518 -0.2047 -0.8375  0.6612
 9794SOL    HW232788   4.048   6.511   5.410  0.5782  1.2343 -0.0974
 9795SOL     OW32789   5.883   8.527   4.038 -0.2111  0.0136  0.3487
 9795SOL    HW132790   5.800   8.503   4.079  0.1391 -0.8639  0.5658
 9795SOL    HW232791   5.920   8.444   4.008 -1.0067  0.7499 -2.8398
 9796SOL     OW32792   1.224   4.096  10.456  0.2294 -0.3184  0.1043
 9796SOL    HW132793   1.183   4.172  10.496 -2.4000 -0.7486 -1.6463
 9796SOL    HW232794   1.180   4.021  10.495  0.1277 -0.8190 -0.9329
 9797SOL     OW32795   3.695   5.450   9.874 -0.1854 -0.2654  0.4937
 9797SOL    HW132796   3.725   5.446   9.783 -1.7316  1.5833 -0.1247
 9797SOL    HW232797   3.747   5.383   9.919  3.2805  1.2756 -0.9915
 9798SOL     OW32798   1.822  10.888   3.144  0.0811  0.0126 -0.0186
 9798SOL    HW132799   1.794  10.950   3.212  2.8984  0.2691  0.9654
 9798SOL    HW232800   1.743  10.874   3.091 -1.0000  3.3114  0.5951
 9799SOL     OW32801   0.243   1.727   3.773 -0.3521  0.3436  0.3179
 9799SOL    HW132802   0.301   1.721   3.848 -0.8013 -2.3089  0.5150
 9799SOL    HW232803   0.301   1.717   3.697 -0.3738 -1.2160  0.4813
 9800SOL     OW32804   9.084   7.113   4.885 -0.1756  0.6547 -0.5179
 9800SOL    HW132805   9.033   7.086   4.808 -0.0520 -0.4724 -0.2165
 9800SOL    HW232806   9.106   7.031   4.929  0.5811  1.2323  0.2021
 9801SOL     OW32807   7.307   9.098   2.461  0.1971  0.3152  0.0038
 9801SOL    HW132808   7.384   9.154   2.474 -0.8410  1.9208 -0.5734
 9801SOL    HW232809   7.339   9.009   2.477  1.8109  1.0919  1.2777
 9802SOL     OW32810   3.101   3.517   0.962 -0.3920  0.1270  0.0904
 9802SOL    HW132811   3.127   3.587   1.021  0.4331 -0.2704  0.2021
 9802SOL    HW232812   3.148   3.535   0.880  0.0954 -0.4876  0.2335
 9803SOL     OW32813   1.809   2.349   6.535  0.5476  0.3543 -0.1483
 9803SOL    HW132814   1.896   2.374   6.505  0.4283  0.2889 -0.5413
 9803SOL    HW232815   1.749   2.391   6.473  0.3441 -1.0190 -0.9027
 9804SOL     OW32816   0.889   5.963   6.964 -0.3091  0.3876  0.3286
 9804SOL    HW132817   0.904   6.055   6.986 -3.1262  0.8507  0.5178
 9804SOL    HW232818   0.918   5.915   7.042  1.3347  1.0607  0.1624
 9805SOL     OW32819   6.420   8.280   2.052 -0.2801 -0.0355 -0.3967
 9805SOL    HW132820   6.501   8.247   2.013 -1.1340  0.9849 -3.1606
 9805SOL    HW232821   6.410   8.230   2.133  3.7799  0.7554  0.6728
 9806SOL     OW32822   1.001   4.569   1.065 -0.1250  0.0582 -0.0306
 9806SOL    HW132823   0.923   4.518   1.089  0.7380 -1.5056 -0.5195
 9806SOL    HW232824   0.970   4.660   1.064 -1.8031 -0.4855  0.3657
 9807SOL     OW32825   1.274   1.351   2.058 -0.3161 -0.0479  0.3367
 9807SOL    HW132826   1.286   1.446   2.052  0.4124 -0.0649  1.4311
 9807SOL    HW232827   1.327   1.325   2.133  2.5842 -1.8821 -2.2574
 9808SOL     OW32828   1.362   2.758   9.638 -0.4536  0.7212  0.0050
 9808SOL    HW132829   1.436   2.734   9.582  0.1785  0.9962  0.7267
 9808SOL    HW232830   1.335   2.675   9.678 -0.9622  0.5081 -0.7644
 9809SOL     OW32831   7.925  10.692   1.650 -0.1379  0.1227 -0.0053
 9809SOL    HW132832   7.978  10.613   1.655  1.0716  0.9306  0.2122
 9809SOL    HW232833   7.974  10.757   1.701 -1.8123  0.6190  1.0224
 9810SOL     OW32834   3.756   9.525   4.549 -0.3053  0.0228  0.1308
 9810SOL    HW132835   3.696   9.455   4.573 -0.3658  0.0137 -0.0487
 9810SOL    HW232836   3.803   9.492   4.473  1.2918 -0.7289  1.4191
 9811SOL     OW32837   3.398   5.129   5.845 -0.2064  0.1530 -0.6295
 9811SOL    HW132838   3.449   5.069   5.790  0.6919  0.8641 -0.5956
 9811SOL    HW232839   3.361   5.073   5.913  0.2914 -0.4297 -0.8290
 9812SOL     OW32840   6.661   3.788   4.674 -0.5885  0.6994 -0.9000
 9812SOL    HW132841   6.698   3.865   4.631  0.2664  0.8702  0.1259
 9812SOL    HW232842   6.650   3.814   4.766  0.8318 -0.7874 -0.2846
 9813SOL     OW32843   8.912  10.591   0.139 -0.3336  0.4760 -0.0169
 9813SOL    HW132844   8.855  10.667   0.146 -0.6993  0.1387  0.6261
 9813SOL    HW232845   8.882  10.531   0.207 -0.2724 -0.3963 -0.7395
 9814SOL     OW32846   6.448   2.751   4.550  0.0917  0.0563 -0.0965
 9814SOL    HW132847   6.422   2.830   4.504  0.7688 -0.0732 -0.7065
 9814SOL    HW232848   6.463   2.779   4.640  1.5528  0.8622 -0.5840
 9815SOL     OW32849   7.341   8.881   4.955 -0.1042 -0.1272 -0.1576
 9815SOL    HW132850   7.393   8.949   4.912 -0.0501 -0.2643 -0.3107
 9815SOL    HW232851   7.279   8.852   4.888  0.3815 -0.7615 -0.3390
 9816SOL     OW32852   2.916   6.005   9.686  0.5820 -0.0280  0.6762
 9816SOL    HW132853   2.899   5.947   9.760  0.0915  0.9307  1.3251
 9816SOL    HW232854   2.882   5.958   9.610  2.5111 -1.7250  0.8107
 9817SOL     OW32855   2.567   0.808   4.171 -0.4163 -0.4314 -0.9151
 9817SOL    HW132856   2.592   0.808   4.263  2.2150  0.8809 -1.5922
 9817SOL    HW232857   2.484   0.760   4.169  0.0606 -1.4760  1.9608
 9818SOL     OW32858   9.576   5.247   3.818  0.4862 -0.0231 -0.4977
 9818SOL    HW132859   9.527   5.311   3.767 -1.4710 -1.2936 -0.2987
 9818SOL    HW232860   9.581   5.284   3.906  0.4079  0.4108 -0.6786
 9819SOL     OW32861  10.030   4.342   8.726  0.0905 -0.0119 -0.3796
 9819SOL    HW132862  10.020   4.388   8.642  0.4782  0.9504  0.0964
 9819SOL    HW232863  10.056   4.410   8.788 -0.5428 -0.6554  0.6072
 9820SOL     OW32864   1.892   1.726   6.863  0.0570 -0.6467 -0.3364
 9820SOL    HW132865   1.798   1.710   6.875  0.0129 -0.2548 -0.1647
 9820SOL    HW232866   1.926   1.741   6.951 -0.1394  1.4755 -0.6029
 9821SOL     OW32867   6.502   2.528   3.194 -0.2143 -0.2333 -0.3279
 9821SOL    HW132868   6.471   2.615   3.218  0.4325  0.0886 -0.6503
 9821SOL    HW232869   6.568   2.507   3.260  2.5274  1.2088 -2.5377
 9822SOL     OW32870   4.293   5.789  10.960  0.4094  0.1644 -0.1925
 9822SOL    HW132871   4.214   5.834  10.930 -0.9781 -1.8278  0.3862
 9822SOL    HW232872   4.354   5.860  10.980 -0.7647  1.6921 -1.8737
 9823SOL     OW32873   6.266   7.826   5.006  0.1344 -0.6206 -0.8540
 9823SOL    HW132874   6.220   7.765   5.063 -0.5886 -1.6648 -2.5121
 9823SOL    HW232875   6.212   7.905   5.007 -0.3372 -0.9441 -0.7810
 9824SOL     OW32876   5.041   7.037   1.839 -0.2081  0.1178  0.5904
 9824SOL    HW132877   5.001   7.117   1.873  1.0422  0.6692  0.7895
 9824SOL    HW232878   5.068   7.060   1.750 -1.7666 -0.7448 -0.1251
 9825SOL     OW32879   5.195  10.309   6.471 -0.0792  0.1745  0.7982
 9825SOL    HW132880   5.119  10.257   6.444  0.1134  0.5711 -0.5472
 9825SOL    HW232881   5.269  10.249   6.467  0.4503  0.9467 -2.5241
 9826SOL     OW32882   3.019   4.291   6.592  0.0932  0.3050  0.0368
 9826SOL    HW132883   2.931   4.330   6.594 -0.0188  0.1291 -1.1393
 9826SOL    HW232884   3.067   4.345   6.528  1.0686  0.8771  1.2416
 9827SOL     OW32885   4.416   1.446   4.025 -0.1589 -0.1601 -0.1438
 9827SOL    HW132886   4.380   1.397   3.951 -0.3561 -0.4152  0.1229
 9827SOL    HW232887   4.339   1.478   4.072 -0.0325  0.4590 -0.3509
 9828SOL     OW32888   3.847   8.603   0.029  0.4189 -0.3290  0.0365
 9828SOL    HW132889   3.825   8.591   0.122  1.6796 -0.8137  0.2840
 9828SOL    HW232890   3.849   8.515  -0.007 -0.6775 -0.0967 -0.6052
 9829SOL     OW32891   4.129   8.394  10.859  0.4611  0.0109  0.4066
 9829SOL    HW132892   4.202   8.394  10.921  1.0527  0.2859 -0.2769
 9829SOL    HW232893   4.131   8.481  10.819  0.3328 -0.2935 -0.2746
 9830SOL     OW32894   2.795   5.130   4.633  0.5515 -0.3475  0.3162
 9830SOL    HW132895   2.749   5.186   4.696 -1.9472  0.8762 -2.4710
 9830SOL    HW232896   2.842   5.192   4.577  1.3969 -1.3307 -0.0621
 9831SOL     OW32897   4.434   2.176  10.674  0.1146  0.5577  0.1045
 9831SOL    HW132898   4.399   2.150  10.760  1.9780 -0.0954  0.6786
 9831SOL    HW232899   4.488   2.253  10.693  1.2622 -0.1367 -0.3402
 9832SOL     OW32900   5.577  10.514   3.033 -0.1572  0.1139  0.5004
 9832SOL    HW132901   5.570  10.607   3.009 -3.2709 -0.1105  0.3630
 9832SOL    HW232902   5.580  10.514   3.128 -1.6810  0.2842  0.5517
 9833SOL     OW32903   8.072   5.339   1.316  0.7272  0.5870 -0.8589
 9833SOL    HW132904   8.073   5.424   1.274  0.5231  1.0010 -0.0450
 9833SOL    HW232905   8.140   5.345   1.384  1.2376 -0.1532 -1.2898
 9834SOL     OW32906   7.389   8.073   3.073 -0.0395 -0.8287 -0.1318
 9834SOL    HW132907   7.336   8.152   3.080  1.5927  0.2886 -0.0273
 9834SOL    HW232908   7.478   8.105   3.056  0.3299 -2.6997 -1.9587
 9835SOL     OW32909  10.057   2.561   3.224 -0.2931 -0.4333 -0.1067
 9835SOL    HW132910  10.002   2.617   3.169  3.2875  0.9139 -2.5139
 9835SOL    HW232911  10.111   2.621   3.275  2.6100 -1.5326 -1.6940
 9836SOL     OW32912   5.626   3.351  10.620  0.4209  0.1836 -0.1586
 9836SOL    HW132913   5.628   3.285  10.689 -1.8686  1.4534  1.1947
 9836SOL    HW232914   5.541   3.339  10.577 -0.0863  2.2742  0.1940
 9837SOL     OW32915   9.093   4.109   3.879 -0.6244 -0.1095  0.1480
 9837SOL    HW132916   9.040   4.080   3.805 -1.4191 -0.6943  0.9362
 9837SOL    HW232917   9.033   4.106   3.954  0.7905 -1.7747  1.2464
 9838SOL     OW32918   8.891   8.435   0.511  0.1511  0.1449  0.0824
 9838SOL    HW132919   8.807   8.461   0.550 -0.1656  0.8842 -1.0433
 9838SOL    HW232920   8.957   8.486   0.558 -0.0470 -0.3392  0.8838
 9839SOL     OW32921   5.954   2.737   3.704 -0.5316 -0.4518  0.1594
 9839SOL    HW132922   5.894   2.696   3.766 -1.8739  1.0526 -0.1154
 9839SOL    HW232923   5.945   2.831   3.721 -0.1624 -0.0747 -1.6310
 9840SOL     OW32924   8.292   2.970   8.319 -0.5195  0.5323 -0.0562
 9840SOL    HW132925   8.349   2.901   8.354 -1.9031 -1.3284 -1.3808
 9840SOL    HW232926   8.353   3.034   8.282  0.7468 -1.1749 -0.9770
 9841SOL     OW32927   8.283   5.917   5.541  0.2933 -0.2089  0.1397
 9841SOL    HW132928   8.312   5.865   5.616  0.3880 -0.0141  0.2373
 9841SOL    HW232929   8.244   5.995   5.579 -2.0628 -1.3246  0.0797
 9842SOL     OW32930   9.302  10.060   1.790 -0.0165  0.3651 -0.0479
 9842SOL    HW132931   9.231  10.043   1.729 -0.9752 -1.8401  1.6102
 9842SOL    HW232932   9.259  10.074   1.874  1.3888  1.2236  0.5494
 9843SOL     OW32933   9.271   3.030   1.595 -0.1312 -0.2619 -0.6113
 9843SOL    HW132934   9.329   3.084   1.650  0.1242 -0.0787 -1.0579
 9843SOL    HW232935   9.185   3.041   1.634 -0.0410  0.2962 -0.5628
 9844SOL     OW32936   7.160   4.655   6.091 -0.4137  1.1928 -0.0106
 9844SOL    HW132937   7.137   4.576   6.042  0.8393 -0.0323  1.3343
 9844SOL    HW232938   7.208   4.709   6.028 -0.9147  0.7147 -0.8179
 9845SOL     OW32939   9.378   2.736   4.991 -0.6696  0.3185  0.1807
 9845SOL    HW132940   9.320   2.674   4.946  1.1671 -1.4920  0.2546
 9845SOL    HW232941   9.341   2.744   5.079 -0.9960 -0.5584  0.1240
 9846SOL     OW32942   4.055   1.719   0.824 -0.1419 -0.9264 -0.5986
 9846SOL    HW132943   3.996   1.645   0.819 -1.3461  0.1061 -2.4480
 9846SOL    HW232944   4.008   1.785   0.876 -0.4477 -0.2824 -1.6685
 9847SOL     OW32945   9.677   6.353   9.169 -0.4793 -0.7796  0.0753
 9847SOL    HW132946   9.751   6.300   9.138  1.9263  0.7209  3.0275
 9847SOL    HW232947   9.674   6.337   9.263 -1.4728  2.1547  0.5882
 9848SOL     OW32948   5.309   2.496   1.905  0.9930 -0.1704 -0.3480
 9848SOL    HW132949   5.340   2.439   1.835  0.8452 -1.5264  0.6607
 9848SOL    HW232950   5.215   2.503   1.890  0.9820 -0.3502 -0.3674
 9849SOL     OW32951   6.384   9.091   6.379 -0.0210  0.3123 -0.2576
 9849SOL    HW132952   6.410   9.074   6.288  0.2549 -0.1222 -0.0970
 9849SOL    HW232953   6.461   9.069   6.431  0.1114  1.3840  0.0121
 9850SOL     OW32954   5.783   8.764   0.663 -0.2615 -0.7767  0.5929
 9850SOL    HW132955   5.861   8.818   0.677 -0.5969 -0.1062 -0.0455
 9850SOL    HW232956   5.817   8.681   0.630  0.1345 -0.1696 -0.5521
 9851SOL     OW32957   7.378   1.796   1.894  0.1029 -0.3049 -0.0232
 9851SOL    HW132958   7.303   1.739   1.911 -0.2060 -0.2361 -1.1127
 9851SOL    HW232959   7.454   1.740   1.909 -0.1882 -0.7299 -0.1314
 9852SOL     OW32960   3.778   7.162   9.590 -0.3825  0.2616 -0.4599
 9852SOL    HW132961   3.872   7.155   9.604 -0.5179  0.0389  0.3537
 9852SOL    HW232962   3.764   7.254   9.569 -0.3044  0.8860  2.0231
 9853SOL     OW32963   8.666   5.707  10.270 -0.1022  0.4414 -0.0238
 9853SOL    HW132964   8.660   5.786  10.216 -2.4321  0.5040  0.2399
 9853SOL    HW232965   8.587   5.658  10.248  0.5235 -1.0513  1.0007
 9854SOL     OW32966   9.281   2.472   3.587 -0.1427  0.0618 -0.1751
 9854SOL    HW132967   9.212   2.532   3.617  1.2049  1.8790 -0.5983
 9854SOL    HW232968   9.237   2.388   3.578 -2.5715  1.3961 -1.4736
 9855SOL     OW32969   1.777   5.899   8.096 -0.0436 -0.1034  0.0910
 9855SOL    HW132970   1.724   5.819   8.099 -0.5204  0.2546  2.3798
 9855SOL    HW232971   1.715   5.967   8.069  0.0333 -0.2567 -0.4778
 9856SOL     OW32972   3.548  10.136   3.176  0.0773  0.4522 -0.6370
 9856SOL    HW132973   3.495  10.194   3.230  2.6515 -0.1954  2.7041
 9856SOL    HW232974   3.615  10.193   3.138 -0.9443  0.6602 -2.2148
 9857SOL     OW32975   8.430   4.911   3.213 -0.2379  0.3590  0.3450
 9857SOL    HW132976   8.386   4.864   3.284 -0.8207  0.4363  0.0465
 9857SOL    HW232977   8.368   4.980   3.189  0.4281  1.0129  0.4985
 9858SOL     OW32978   5.353   7.264   3.086  0.4622 -0.5281  0.4406
 9858SOL    HW132979   5.301   7.209   3.145 -0.6078 -0.1571 -0.1504
 9858SOL    HW232980   5.376   7.206   3.013  0.8508 -0.6769  0.6767
 9859SOL     OW32981   0.281   0.530   2.319  0.4123 -0.1592 -0.5818
 9859SOL    HW132982   0.277   0.523   2.415  0.1623 -0.0236 -0.5817
 9859SOL    HW232983   0.201   0.486   2.289  0.1253  0.4406 -0.6989
 9860SOL     OW32984   9.857   0.523   5.368 -0.2931 -0.0454 -0.2409
 9860SOL    HW132985   9.889   0.521   5.458 -0.6480  1.2825 -0.0750
 9860SOL    HW232986   9.763   0.543   5.376 -0.8007 -2.0652 -0.8060
 9861SOL     OW32987   7.973   5.176  10.663 -0.2997 -0.3365 -0.0716
 9861SOL    HW132988   7.885   5.141  10.646  0.0165 -1.8383  1.3092
 9861SOL    HW232989   7.964   5.270  10.648 -2.7663 -0.1207  2.3407
 9862SOL     OW32990  10.589   1.715   4.690 -0.5002 -0.7754 -0.1635
 9862SOL    HW132991  10.622   1.801   4.716 -3.0144 -0.6516  2.8056
 9862SOL    HW232992  10.666   1.658   4.694  0.7443  0.8770 -0.0657
 9863SOL     OW32993   4.283   2.860   2.126 -0.5272  0.3036 -0.3027
 9863SOL    HW132994   4.318   2.857   2.037 -0.3104 -2.7796 -0.1599
 9863SOL    HW232995   4.192   2.834   2.118 -0.4396 -0.2429  0.3985
 9864SOL     OW32996  10.273   4.790   6.381  0.2017  0.2251 -0.1008
 9864SOL    HW132997  10.348   4.781   6.440  0.4425 -0.6470 -0.5325
 9864SOL    HW232998  10.197   4.787   6.438  0.4126 -1.1547  0.1201
 9865SOL     OW32999   3.710   4.969   2.153  0.3213 -0.0434  0.3983
 9865SOL    HW133000   3.625   4.977   2.109 -0.8016  0.3969  2.5655
 9865SOL    HW233001   3.724   5.054   2.193  1.5378 -0.2955  0.5321
 9866SOL     OW33002   0.131   9.097  10.011  0.1009 -0.1041  0.6510
 9866SOL    HW133003   0.203   9.076   9.951  1.3192  1.7998  1.3905
 9866SOL    HW233004   0.163   9.069  10.097  0.1971  1.2384  1.0645
 9867SOL     OW33005   5.513   9.110   4.175  0.4721  0.0062  0.8910
 9867SOL    HW133006   5.548   9.181   4.229  0.7028  1.4441 -1.0790
 9867SOL    HW233007   5.448   9.153   4.119 -1.8735 -1.9731  2.0095
 9868SOL     OW33008   0.102   4.368   3.106 -0.0978  0.2692  0.2856
 9868SOL    HW133009   0.130   4.454   3.073  2.7184 -0.5608  0.3918
 9868SOL    HW233010   0.106   4.376   3.201  2.7585 -0.7077  0.3111
 9869SOL     OW33011   0.922   2.348  10.534  0.0421  0.1517  0.2260
 9869SOL    HW133012   0.915   2.299  10.452  0.0205 -0.1370  0.3996
 9869SOL    HW233013   1.005   2.321  10.572 -0.4326 -0.5112  0.8113
 9870SOL     OW33014   9.675   1.802   9.438  0.7503  0.0386 -0.0531
 9870SOL    HW133015   9.606   1.751   9.395  1.3224 -0.5751 -0.2567
 9870SOL    HW233016   9.757   1.764   9.405  1.1801  1.0119 -0.1077
 9871SOL     OW33017   5.246   0.210   5.784 -0.1235 -0.2728  0.1671
 9871SOL    HW133018   5.236   0.236   5.876 -0.0043  0.7525 -0.1081
 9871SOL    HW233019   5.238   0.115   5.786 -1.5956 -0.1512  1.0529
 9872SOL     OW33020  10.312   2.182  10.301 -0.0432 -0.5476  0.1031
 9872SOL    HW133021  10.221   2.154  10.316  0.4747 -1.8366  0.8904
 9872SOL    HW233022  10.316   2.200  10.207 -1.3738  0.4854  0.2257
 9873SOL     OW33023   3.694   5.064   0.156 -0.2387 -0.1352  0.1158
 9873SOL    HW133024   3.676   5.153   0.184 -1.3067 -0.2883 -0.0328
 9873SOL    HW233025   3.619   5.041   0.100  0.6351 -0.6928 -0.8479
 9874SOL     OW33026   9.272   4.648   9.754  0.5004 -0.2624  0.0757
 9874SOL    HW133027   9.313   4.563   9.742 -0.4817 -0.8675  0.8247
 9874SOL    HW233028   9.213   4.636   9.830  0.0955  0.9769 -0.0169
 9875SOL     OW33029   1.522   5.006   8.386  0.3475 -0.1646 -0.1612
 9875SOL    HW133030   1.442   5.056   8.398  0.1294 -0.2919 -1.0842
 9875SOL    HW233031   1.496   4.915   8.398  0.5706 -0.1300  0.6199
 9876SOL     OW33032   5.303   7.486   8.813 -0.3393  0.6138 -0.2137
 9876SOL    HW133033   5.337   7.516   8.728  0.8462 -0.2395 -0.0410
 9876SOL    HW233034   5.379   7.451   8.859 -1.6504 -2.5649 -0.3648
 9877SOL     OW33035   8.533   2.054   2.018 -0.1288  0.8920 -0.1907
 9877SOL    HW133036   8.486   2.128   2.057 -1.8885 -2.1702  3.8453
 9877SOL    HW233037   8.464   1.991   1.996  1.5009 -0.5667 -1.2802
 9878SOL     OW33038   2.872   8.525   4.600 -0.0568 -0.1554  0.0111
 9878SOL    HW133039   2.785   8.525   4.559 -0.0701  0.5443  0.0289
 9878SOL    HW233040   2.865   8.589   4.670 -0.5764 -2.6561  2.3197
 9879SOL     OW33041   7.963  10.740   9.679  0.6040 -0.6691  0.0278
 9879SOL    HW133042   8.036  10.747   9.739  0.1729  2.5173  0.2336
 9879SOL    HW233043   7.885  10.747   9.735  0.2025  1.3861 -0.7394
 9880SOL     OW33044   3.992   0.946   1.938 -0.1289 -0.1731  0.4461
 9880SOL    HW133045   3.965   0.868   1.890  2.1380 -1.9396  1.9217
 9880SOL    HW233046   4.087   0.946   1.931 -0.0854  2.2937  0.7768
 9881SOL     OW33047   3.649   2.368   5.852 -0.5636  0.2578 -0.0313
 9881SOL    HW133048   3.699   2.288   5.836  0.2947  0.8808 -0.5451
 9881SOL    HW233049   3.587   2.345   5.921  0.8549 -0.3750  1.0610
 9882SOL     OW33050   6.972   3.622   3.535 -0.0821  0.3174 -0.3196
 9882SOL    HW133051   6.964   3.578   3.620 -3.5871  2.1648  0.4026
 9882SOL    HW233052   7.055   3.669   3.540 -0.3509  0.6241  2.2120
 9883SOL     OW33053   8.583   5.485   0.984  0.7636  0.6425  0.5570
 9883SOL    HW133054   8.488   5.484   0.972  0.8546 -0.7912 -0.1526
 9883SOL    HW233055   8.597   5.428   1.060  1.0698  0.6764  0.5246
 9884SOL     OW33056   2.481   9.315   2.119 -0.2925  0.2289 -0.3804
 9884SOL    HW133057   2.508   9.377   2.051  1.3135  1.6928  1.5210
 9884SOL    HW233058   2.502   9.360   2.201 -1.8224 -1.6579  1.0772
 9885SOL     OW33059   6.757  10.196   1.565 -0.0924  0.0974  1.0598
 9885SOL    HW133060   6.835  10.241   1.535  0.4427 -0.8216  1.0654
 9885SOL    HW233061   6.733  10.138   1.492 -2.1823  2.1417  0.0672
 9886SOL     OW33062   8.746   8.604   7.908 -0.3418  0.0204 -0.0256
 9886SOL    HW133063   8.706   8.534   7.857  0.9428 -0.6019 -0.1862
 9886SOL    HW233064   8.739   8.682   7.852 -3.5129  0.4957  0.9217
 9887SOL     OW33065   6.256   5.800   4.284  0.2320  0.7174  0.3723
 9887SOL    HW133066   6.257   5.772   4.375 -0.0351  3.5239  1.2877
 9887SOL    HW233067   6.276   5.721   4.234  0.2324 -0.8884  2.8426
 9888SOL     OW33068  10.819   0.891   4.444  0.1289 -0.0623 -0.2577
 9888SOL    HW133069  10.846   0.957   4.380 -0.1577  0.7458  0.4420
 9888SOL    HW233070  10.725   0.903   4.453  0.1704 -0.1389  0.3339
 9889SOL     OW33071   2.796   6.375   0.676  0.1977  0.0998 -0.6046
 9889SOL    HW133072   2.752   6.324   0.608  0.5312  0.0586 -0.7946
 9889SOL    HW233073   2.848   6.439   0.627 -2.0021  2.1323 -0.3121
 9890SOL     OW33074   3.613   6.249   1.627 -0.1238  0.6422  0.3810
 9890SOL    HW133075   3.548   6.273   1.693  1.2334 -0.3930  2.1692
 9890SOL    HW233076   3.563   6.234   1.548 -1.9387  0.9290  1.4492
 9891SOL     OW33077   5.330   0.170   4.570 -0.4920  0.0653  0.0307
 9891SOL    HW133078   5.398   0.187   4.635 -0.7689 -0.4944  0.4723
 9891SOL    HW233079   5.355   0.087   4.531  0.8146  1.3873 -2.0638
 9892SOL     OW33080   8.800   4.381   5.059 -0.1102  0.2556 -0.0353
 9892SOL    HW133081   8.746   4.428   4.995 -1.1257 -0.3424  0.3656
 9892SOL    HW233082   8.807   4.441   5.133  0.2919  0.5778 -0.3313
 9893SOL     OW33083   4.828   7.985   4.704  0.2632  0.1578  0.2314
 9893SOL    HW133084   4.768   7.955   4.772  0.3990  0.8669  0.6769
 9893SOL    HW233085   4.809   8.078   4.695  1.8738  0.5820  1.0051
 9894SOL     OW33086   7.036   8.270   4.806  0.2210 -0.0232  0.0201
 9894SOL    HW133087   7.044   8.229   4.719  0.6670  1.5148 -0.6766
 9894SOL    HW233088   7.123   8.306   4.823  0.2267 -0.6073  1.2626
 9895SOL     OW33089   4.436  10.459   6.125 -0.0320 -0.0292  0.2727
 9895SOL    HW133090   4.407  10.371   6.146 -1.3374  0.6016  1.2062
 9895SOL    HW233091   4.485  10.487   6.202 -0.6046  0.4675  0.4663
 9896SOL     OW33092   8.035   4.320   4.631  0.0838  0.3296  0.3064
 9896SOL    HW133093   8.053   4.414   4.628  0.7610  0.3119  2.5327
 9896SOL    HW233094   8.016   4.303   4.724 -1.8624 -1.3957 -0.3655
 9897SOL     OW33095   4.808   9.884   2.052  0.5867 -0.0248 -0.3109
 9897SOL    HW133096   4.765   9.823   1.992 -1.3500  0.6126  0.3779
 9897SOL    HW233097   4.901   9.875   2.034  0.1163 -0.9380 -2.3517
 9898SOL     OW33098   3.052   2.914   0.557 -0.1066  0.5575 -0.9425
 9898SOL    HW133099   3.026   2.982   0.495  0.0576  0.6303 -0.9292
 9898SOL    HW233100   3.139   2.939   0.586 -1.1194  1.8207  1.1371
 9899SOL     OW33101   2.294  10.520   3.357 -0.1895  0.1693 -0.4726
 9899SOL    HW133102   2.277  10.612   3.376 -0.5549  0.3392 -1.5943
 9899SOL    HW233103   2.242  10.501   3.279 -0.4273 -1.0936 -0.0230
 9900SOL     OW33104  10.682   3.151   4.941 -0.4459  0.0339  0.3077
 9900SOL    HW133105  10.606   3.180   4.991 -0.8849 -1.7975  0.7441
 9900SOL    HW233106  10.696   3.060   4.969  2.0890  0.4398  0.4692
 9901SOL     OW33107   3.036   3.613   1.749  0.1024  0.9566  0.6073
 9901SOL    HW133108   3.081   3.624   1.832 -0.5149  0.4472  1.0114
 9901SOL    HW233109   3.070   3.683   1.694  0.9755  0.9089  1.0869
 9902SOL     OW33110   5.365  10.417   9.219  0.2258  0.0014 -0.4460
 9902SOL    HW133111   5.400  10.348   9.163  0.8650  0.0531 -0.1256
 9902SOL    HW233112   5.271  10.415   9.205  0.3110 -0.4784 -0.9557
 9903SOL     OW33113   3.856   0.683   0.726 -0.4562 -0.2201  0.3112
 9903SOL    HW133114   3.882   0.605   0.775  0.2447 -0.3244 -0.2238
 9903SOL    HW233115   3.925   0.747   0.743 -0.7056  0.0739  0.2342
 9904SOL     OW33116   3.301   9.999   0.788 -0.0736  0.2479  0.2097
 9904SOL    HW133117   3.333  10.053   0.860 -0.4727  3.6326 -2.0500
 9904SOL    HW233118   3.226  10.047   0.753 -1.1564 -2.3597 -1.1534
 9905SOL     OW33119   9.162   2.943   6.063  0.5956  0.4326  0.1700
 9905SOL    HW133120   9.208   2.994   5.997  1.6707  0.2346  0.7481
 9905SOL    HW233121   9.107   2.883   6.013  4.4768 -2.5993 -0.7136
 9906SOL     OW33122   9.739   2.060  10.200 -0.6087 -0.0670 -0.0737
 9906SOL    HW133123   9.723   2.091  10.289 -1.9183 -0.4983 -0.1501
 9906SOL    HW233124   9.754   2.139  10.149  3.3981  0.0524  1.1136
 9907SOL     OW33125  10.255   6.905   5.384  0.0859  0.4122 -0.7013
 9907SOL    HW133126  10.271   6.870   5.472 -1.7158  1.5526  0.1189
 9907SOL    HW233127  10.330   6.962   5.366  1.0335 -0.7154 -0.3982
 9908SOL     OW33128  10.185   5.567   3.450  0.4109  0.2425 -0.3178
 9908SOL    HW133129  10.139   5.619   3.384 -0.1036 -0.5719 -0.6102
 9908SOL    HW233130  10.128   5.570   3.527  0.8091  0.8494 -0.0466
 9909SOL     OW33131   4.923   6.793   1.813 -0.1416 -0.0469  0.0860
 9909SOL    HW133132   4.912   6.779   1.907 -1.1842  1.1398  0.1580
 9909SOL    HW233133   4.961   6.881   1.806  1.9256 -0.9576 -0.5315
 9910SOL     OW33134   8.085   2.645   1.849  0.4147 -0.2317 -0.3825
 9910SOL    HW133135   8.074   2.583   1.921  0.6886 -0.2542 -0.3600
 9910SOL    HW233136   8.011   2.627   1.791  0.5588 -0.6584 -0.4352
 9911SOL     OW33137   6.263   5.938   6.723  0.0755 -0.4150 -0.5364
 9911SOL    HW133138   6.267   5.925   6.818  0.0219 -1.1543 -0.6253
 9911SOL    HW233139   6.194   5.878   6.695  0.6165 -0.7650 -1.1327
 9912SOL     OW33140   2.692   8.693   0.795  0.1926 -0.2525  0.1747
 9912SOL    HW133141   2.723   8.606   0.769  1.4350 -0.0104  0.8389
 9912SOL    HW233142   2.771   8.745   0.805 -0.4679  0.5450  1.2944
 9913SOL     OW33143   1.256   3.327   0.073  0.4527  0.0710  0.8446
 9913SOL    HW133144   1.341   3.303   0.038 -0.1847  0.6692 -1.2030
 9913SOL    HW233145   1.254   3.289   0.160  2.3710 -0.8944  0.4914
 9914SOL     OW33146   7.821   8.016   4.464  0.2813 -0.0647  0.4283
 9914SOL    HW133147   7.877   8.077   4.512  2.4697  1.4603 -3.8061
 9914SOL    HW233148   7.881   7.948   4.433 -0.7257 -0.0771 -1.5713
 9915SOL     OW33149   5.978   1.140   8.416 -0.4903  0.6961  0.2538
 9915SOL    HW133150   6.063   1.141   8.371  0.2152  0.1840  1.5430
 9915SOL    HW233151   5.940   1.056   8.393 -0.2099  0.5146  0.4374
 9916SOL     OW33152  10.571   2.530   3.053 -0.0934 -0.6989  0.2154
 9916SOL    HW133153  10.515   2.523   2.976  0.8154  0.3174 -0.5485
 9916SOL    HW233154  10.659   2.508   3.021 -0.1341 -2.9828  1.5507
 9917SOL     OW33155   3.546   3.781   4.267  0.1447  0.2272 -0.6914
 9917SOL    HW133156   3.519   3.710   4.325 -1.4112  0.5280 -1.0230
 9917SOL    HW233157   3.518   3.752   4.180  0.4478  0.7677 -0.9708
 9918SOL     OW33158   3.098   5.310  10.600 -0.4278  0.0404 -0.1898
 9918SOL    HW133159   3.019   5.258  10.589 -1.5294  2.3721 -4.0560
 9918SOL    HW233160   3.167   5.257  10.558 -0.5369 -0.4908  0.2834
 9919SOL     OW33161   6.945   8.676   5.223 -0.4996  0.0164  0.1561
 9919SOL    HW133162   6.939   8.757   5.171 -0.6619 -0.8340 -1.1750
 9919SOL    HW233163   6.858   8.638   5.218 -0.8274  0.4662  1.9936
 9920SOL     OW33164   1.616   5.291   3.931  0.0710  0.5962  0.1273
 9920SOL    HW133165   1.560   5.259   3.861 -0.3736  0.2719  0.6184
 9920SOL    HW233166   1.697   5.240   3.922 -0.2390  0.0658  0.2592
 9921SOL     OW33167   6.136   8.177   1.710 -0.1677  0.1198  0.2768
 9921SOL    HW133168   6.043   8.203   1.710  0.3536  2.1004 -0.3071
 9921SOL    HW233169   6.137   8.093   1.665 -1.6221  0.3218 -0.1817
 9922SOL     OW33170   5.021   7.838   7.176 -0.4489  0.1516  0.0903
 9922SOL    HW133171   4.996   7.797   7.093 -1.2960  0.1031  0.3650
 9922SOL    HW233172   5.005   7.931   7.163 -1.0887  0.0840  0.3760
 9923SOL     OW33173   1.276   2.526   5.711  0.2605  0.0745  0.1193
 9923SOL    HW133174   1.195   2.578   5.714  0.4470  0.3359  0.6307
 9923SOL    HW233175   1.249   2.443   5.671 -0.1557  0.3511 -0.1881
 9924SOL     OW33176   9.770   9.548   5.161 -0.0276 -0.1705  0.4689
 9924SOL    HW133177   9.737   9.629   5.121 -0.7048  0.1268  1.5954
 9924SOL    HW233178   9.860   9.569   5.186 -0.5477  0.6225  1.7641
 9925SOL     OW33179  10.220   0.570  10.902 -0.3029  0.4882 -0.4310
 9925SOL    HW133180  10.286   0.610  10.959  0.3779 -1.0982 -0.1058
 9925SOL    HW233181  10.199   0.487  10.944 -1.7654  0.5082 -1.0847
 9926SOL     OW33182   3.621   8.094   4.622 -0.1069  0.0573 -0.6614
 9926SOL    HW133183   3.655   8.137   4.543 -2.1529 -0.7335 -2.0167
 9926SOL    HW233184   3.541   8.051   4.593 -0.0914 -1.5324  1.5151
 9927SOL     OW33185   8.247   8.568  10.276 -0.4603 -0.6028 -0.9333
 9927SOL    HW133186   8.175   8.546  10.334 -0.8395 -1.1082 -1.5849
 9927SOL    HW233187   8.205   8.591  10.193  0.1491 -1.4949 -1.4958
 9928SOL     OW33188   4.010   0.816   5.167 -0.2517 -0.3263  1.0005
 9928SOL    HW133189   4.046   0.728   5.180  0.6019 -0.1297  0.0619
 9928SOL    HW233190   4.056   0.870   5.230  0.1804 -0.3122  0.6756
 9929SOL     OW33191  10.708   5.073   3.063 -0.0531  0.3796 -0.5237
 9929SOL    HW133192  10.661   5.125   2.998 -0.7670 -0.5526 -0.7656
 9929SOL    HW233193  10.723   4.989   3.020  0.3741  0.1070  0.1502
 9930SOL     OW33194   8.069   2.789   9.819 -0.1755  0.2231 -0.1150
 9930SOL    HW133195   7.991   2.843   9.828 -2.2992 -2.9957  1.9983
 9930SOL    HW233196   8.080   2.779   9.724  0.0535  3.8681 -0.5451
 9931SOL     OW33197   4.545   5.466   7.365  0.5159 -0.0892  0.4602
 9931SOL    HW133198   4.580   5.552   7.342  1.1538 -0.1641  1.1205
 9931SOL    HW233199   4.622   5.410   7.372  0.1334 -0.6274  0.4062
 9932SOL     OW33200   2.998   2.639   2.604  0.2268 -0.5352 -0.2055
 9932SOL    HW133201   2.989   2.546   2.624  0.5678 -0.4280  0.4581
 9932SOL    HW233202   3.023   2.641   2.511 -1.7666 -1.0115 -0.7776
 9933SOL     OW33203   9.300   9.542   8.304  0.1968  0.7112  0.8998
 9933SOL    HW133204   9.356   9.575   8.373  0.8882  1.8299 -0.1769
 9933SOL    HW233205   9.220   9.595   8.310  0.5069  1.2356  0.4534
 9934SOL     OW33206  10.242   0.421   1.441 -0.0435 -0.1828 -0.0867
 9934SOL    HW133207  10.303   0.456   1.377 -0.8549  1.2151 -0.1224
 9934SOL    HW233208  10.290   0.350   1.484  1.0684 -0.0702 -1.1215
 9935SOL     OW33209  10.280   6.297   2.676  0.1126 -0.0172  0.6233
 9935SOL    HW133210  10.316   6.379   2.642 -0.9911  0.1518 -0.1423
 9935SOL    HW233211  10.246   6.252   2.599 -0.2103 -0.7346  1.1841
 9936SOL     OW33212   7.076   8.620   8.591  0.1304 -0.1029  0.4674
 9936SOL    HW133213   7.132   8.563   8.642 -0.0881  0.0709  0.9066
 9936SOL    HW233214   7.101   8.604   8.500  1.7628  0.8907  0.7267
 9937SOL     OW33215   8.865   6.686   2.955  0.5214  0.1907 -0.3626
 9937SOL    HW133216   8.931   6.631   2.997  1.3634  0.1684 -1.6888
 9937SOL    HW233217   8.907   6.772   2.946  0.2376  0.2733 -0.8969
 9938SOL     OW33218  10.445   4.718   2.090 -0.3186  0.4100 -0.7433
 9938SOL    HW133219  10.411   4.641   2.044 -1.8833  0.5927  0.0492
 9938SOL    HW233220  10.513   4.684   2.148 -3.9356 -1.1418  2.8465
 9939SOL     OW33221   7.573   5.784   8.538 -0.4126  0.2926 -0.8464
 9939SOL    HW133222   7.532   5.814   8.457  0.7828  0.4402 -1.4040
 9939SOL    HW233223   7.591   5.691   8.523  0.2051  0.4208 -0.9229
 9940SOL     OW33224   1.485   6.557   4.383 -0.0066  0.2348  0.4296
 9940SOL    HW133225   1.505   6.466   4.403 -1.6946 -0.2856 -0.1183
 9940SOL    HW233226   1.416   6.580   4.446 -1.4463  0.2962 -1.1258
 9941SOL     OW33227   7.432   3.118   5.952  0.0364  0.3226  0.2146
 9941SOL    HW133228   7.413   3.190   6.011 -0.6362  0.2750  0.0567
 9941SOL    HW233229   7.372   3.131   5.878 -0.7087 -0.8991  0.5961
 9942SOL     OW33230   6.709   5.694   6.745 -0.3892  0.4688  0.0521
 9942SOL    HW133231   6.716   5.661   6.655 -1.9458  0.7186 -0.1699
 9942SOL    HW233232   6.622   5.735   6.749 -1.5261 -2.0554  2.4998
 9943SOL     OW33233   3.968   0.031   5.606 -0.2460  0.0709 -0.1443
 9943SOL    HW133234   3.926  -0.053   5.625 -0.5734  0.0353 -0.9718
 9943SOL    HW233235   3.895   0.089   5.586 -0.0331  0.6164  0.6498
 9944SOL     OW33236   6.399   1.108   7.514 -0.2430 -0.1746 -0.3780
 9944SOL    HW133237   6.426   1.194   7.484  1.4587 -1.4271 -2.6057
 9944SOL    HW233238   6.358   1.068   7.437 -1.5741 -1.1305  0.8057
 9945SOL     OW33239   0.554   7.106   7.651 -0.3958  0.3757  0.1989
 9945SOL    HW133240   0.591   7.193   7.635 -0.0380  0.0950 -0.4853
 9945SOL    HW233241   0.625   7.057   7.690 -0.1486 -0.0624 -0.7999
 9946SOL     OW33242   7.514   0.852   1.368 -0.2677 -0.5456  0.1654
 9946SOL    HW133243   7.446   0.787   1.382 -0.3350 -0.0551  2.3883
 9946SOL    HW233244   7.555   0.863   1.454  1.0130  0.9353 -0.5931
 9947SOL     OW33245  10.023   3.842   2.428  0.3667  0.2270  0.3442
 9947SOL    HW133246  10.011   3.792   2.347  0.4504 -1.1083  1.1497
 9947SOL    HW233247  10.118   3.854   2.434  0.4723 -0.8921  0.9696
 9948SOL     OW33248   0.006   3.704   1.592 -0.2124 -0.4803  0.2106
 9948SOL    HW133249   0.099   3.684   1.580 -0.6327 -0.7621 -3.0156
 9948SOL    HW233250  -0.034   3.620   1.614 -0.2354 -1.1000 -2.0848
 9949SOL     OW33251  10.356   8.030   0.322 -0.3996 -0.7605 -0.6710
 9949SOL    HW133252  10.277   8.085   0.326  1.4225  1.8690  0.2126
 9949SOL    HW233253  10.367   7.998   0.412 -1.0091 -1.9304 -1.0118
 9950SOL     OW33254   5.079   7.394   1.959  0.1759  0.1224 -0.4879
 9950SOL    HW133255   5.084   7.401   1.864 -1.2637 -0.1631 -0.5971
 9950SOL    HW233256   5.006   7.334   1.975  0.5950 -0.0610  0.7886
 9951SOL     OW33257   3.273   3.985   1.429  0.7112  0.6505 -0.1324
 9951SOL    HW133258   3.274   3.952   1.339 -0.6899  0.9206 -0.2612
 9951SOL    HW233259   3.235   4.073   1.423 -1.0001  0.0249  0.8995
 9952SOL     OW33260   6.369   4.726   4.677 -0.0140 -0.2987 -0.0201
 9952SOL    HW133261   6.289   4.746   4.628  0.3626 -0.4837 -0.7113
 9952SOL    HW233262   6.337   4.696   4.762 -0.6549  0.5735  0.0519
 9953SOL     OW33263   7.196   9.865   0.592 -0.1098  0.4736  0.7335
 9953SOL    HW133264   7.118   9.839   0.542 -0.1766  2.3048 -0.1570
 9953SOL    HW233265   7.164   9.933   0.652  0.7548  1.1211  0.4723
 9954SOL     OW33266   5.371   0.091   0.280  0.2927 -0.2350 -0.3646
 9954SOL    HW133267   5.329   0.144   0.212 -1.2793 -0.0802  0.6971
 9954SOL    HW233268   5.388   0.152   0.351 -0.5650 -0.9347  0.4537
 9955SOL     OW33269   6.081   0.199   5.915  0.0135  0.5415 -0.2963
 9955SOL    HW133270   6.120   0.193   5.828  0.3849 -2.2146  0.0322
 9955SOL    HW233271   6.151   0.236   5.970  0.3101  0.7823 -0.8324
 9956SOL     OW33272   7.370   6.596  10.166  0.2496  0.3304 -0.3978
 9956SOL    HW133273   7.436   6.527  10.160 -1.1922 -1.3738  2.4418
 9956SOL    HW233274   7.287   6.549  10.162 -0.7528  1.9910  0.8322
 9957SOL     OW33275  10.147   3.394   0.146  0.6515  0.3550  0.2869
 9957SOL    HW133276  10.152   3.322   0.083  1.7308 -0.6966  1.5371
 9957SOL    HW233277  10.190   3.360   0.225  1.3410  2.4517  0.8425
 9958SOL     OW33278   3.947   0.138   9.254 -0.2181 -0.0208  0.4564
 9958SOL    HW133279   4.011   0.175   9.314  0.6118  2.4792 -1.9004
 9958SOL    HW233280   3.863   0.150   9.298  0.3592  1.8277  1.0804
 9959SOL     OW33281   4.626   7.417   0.085  0.3360 -0.2529  0.3837
 9959SOL    HW133282   4.643   7.331   0.046 -0.4239 -1.0148  1.6920
 9959SOL    HW233283   4.535   7.412   0.116  0.2341  1.0767  0.3218
 9960SOL     OW33284   5.182  10.783   6.060 -0.0026  0.1148 -0.3463
 9960SOL    HW133285   5.256  10.740   6.103  0.3395  0.1686 -0.8724
 9960SOL    HW233286   5.130  10.819   6.131  1.5360  1.8279 -0.0499
 9961SOL     OW33287   6.018   7.598   2.994 -0.4340 -0.4536 -0.5878
 9961SOL    HW133288   6.098   7.651   2.997 -0.4776 -0.3559 -1.1738
 9961SOL    HW233289   5.994   7.587   3.086  0.0030 -0.1028 -0.4281
 9962SOL     OW33290   1.801   2.359  10.836  0.1289  0.0632 -0.0405
 9962SOL    HW133291   1.840   2.296  10.776  0.7403 -0.2598  0.6803
 9962SOL    HW233292   1.741   2.308  10.890 -0.1873  0.2969 -0.1641
 9963SOL     OW33293   3.855  10.267   1.524 -0.1179 -0.4290 -0.6236
 9963SOL    HW133294   3.894  10.293   1.441 -0.1095  0.6673 -0.2929
 9963SOL    HW233295   3.838  10.173   1.515 -2.5872  0.1764 -2.8622
 9964SOL     OW33296   8.783   8.607   4.453 -0.2126  0.3063  0.9865
 9964SOL    HW133297   8.759   8.630   4.543 -0.1791  0.6536  0.9080
 9964SOL    HW233298   8.836   8.680   4.423 -1.2076  0.7549  0.2837
 9965SOL     OW33299   5.444  10.492   3.663  0.1046  0.7878 -0.4682
 9965SOL    HW133300   5.472  10.502   3.754  0.4483  1.1485 -0.6083
 9965SOL    HW233301   5.525  10.469   3.616 -0.4319 -1.4313 -0.3620
 9966SOL     OW33302   6.718  10.463   4.595  0.1914 -0.1218  0.4655
 9966SOL    HW133303   6.629  10.468   4.560  0.2041 -1.1867  0.2460
 9966SOL    HW233304   6.750  10.553   4.595 -0.3029  0.0601 -0.9658
 9967SOL     OW33305   6.269   2.353   0.974 -0.0395 -0.1748  0.4094
 9967SOL    HW133306   6.317   2.275   0.946 -0.5157 -0.1126 -0.6033
 9967SOL    HW233307   6.334   2.423   0.971  0.1203 -0.3293  0.2753
 9968SOL     OW33308   9.897   2.179   3.463 -0.3542 -0.4406 -0.9304
 9968SOL    HW133309   9.944   2.225   3.393 -0.2205  0.2383 -0.3955
 9968SOL    HW233310   9.931   2.216   3.544 -0.3595 -1.3768 -0.4896
 9969SOL     OW33311   7.373   9.575   3.821 -0.0944  0.2479 -0.4879
 9969SOL    HW133312   7.362   9.623   3.904 -0.8022 -0.0084 -0.4301
 9969SOL    HW233313   7.442   9.623   3.775  0.5085  0.2288  0.3727
 9970SOL     OW33314   0.606   4.456   2.962 -0.0648 -0.2539 -0.1012
 9970SOL    HW133315   0.634   4.525   2.903  0.4420  1.1249  1.6853
 9970SOL    HW233316   0.614   4.376   2.911  1.3745  0.7742 -1.5460
 9971SOL     OW33317   2.721   7.142   6.794 -0.1853 -0.1479  0.1065
 9971SOL    HW133318   2.751   7.055   6.768 -0.2359 -0.5061  1.2286
 9971SOL    HW233319   2.650   7.125   6.855 -0.6621  0.6920 -0.2120
 9972SOL     OW33320   7.187   1.488   7.422 -0.0475  0.2542  0.3987
 9972SOL    HW133321   7.241   1.446   7.355 -0.4057 -1.3190  1.0529
 9972SOL    HW233322   7.248   1.508   7.493 -0.2959 -1.6012  1.1737
 9973SOL     OW33323   3.727   0.892   5.339  0.1129 -0.0895  0.2890
 9973SOL    HW133324   3.822   0.891   5.340  0.1187  0.4197  0.3458
 9973SOL    HW233325   3.702   0.912   5.429 -0.0394  0.1796  0.1886
 9974SOL     OW33326   0.737   0.292   1.912 -0.2041 -0.3713  0.7369
 9974SOL    HW133327   0.759   0.298   1.819 -1.0506  1.4594  0.6347
 9974SOL    HW233328   0.695   0.207   1.921  0.0954 -0.6644 -0.5003
 9975SOL     OW33329   6.638   8.425   7.455  0.3521  0.5848 -0.2046
 9975SOL    HW133330   6.637   8.495   7.520  1.6903 -0.7591  1.2869
 9975SOL    HW233331   6.574   8.454   7.389  0.3697  2.8661  0.7143
 9976SOL     OW33332   8.456   7.059  10.847  0.4490 -0.9453  0.5412
 9976SOL    HW133333   8.382   7.006  10.817 -0.7126 -0.3530  2.3353
 9976SOL    HW233334   8.531   7.000  10.842 -0.2254 -1.6988 -0.8102
 9977SOL     OW33335   9.904   1.837   4.523  0.0459 -1.1299 -0.6586
 9977SOL    HW133336   9.903   1.791   4.607  2.8235  0.9447  0.5799
 9977SOL    HW233337   9.957   1.782   4.466 -0.4199 -1.6795 -0.5760
 9978SOL     OW33338   9.263   5.882   5.439  0.0528 -0.5644 -0.1074
 9978SOL    HW133339   9.251   5.969   5.477  1.9907 -0.2529 -0.1260
 9978SOL    HW233340   9.238   5.821   5.509  0.8852  0.0151  0.6998
 9979SOL     OW33341   0.848   1.819   8.352 -0.2509 -0.4516 -0.3185
 9979SOL    HW133342   0.801   1.742   8.384  1.5754 -1.3050  0.3189
 9979SOL    HW233343   0.940   1.795   8.356  0.5016  2.4784  1.8577
 9980SOL     OW33344   9.343  10.723   5.863  0.3394 -0.4341  1.0068
 9980SOL    HW133345   9.274  10.778   5.901 -2.0898 -2.5472 -0.1691
 9980SOL    HW233346   9.352  10.754   5.773  0.7593 -0.3060  1.0939
 9981SOL     OW33347   1.121   3.680   1.775 -0.5639 -0.1348 -0.2586
 9981SOL    HW133348   1.210   3.714   1.771 -0.6652 -0.0429 -1.7819
 9981SOL    HW233349   1.093   3.697   1.865  0.8667  0.0471  0.1578
 9982SOL     OW33350   1.869   1.452   3.555  0.1277 -0.3011 -0.3172
 9982SOL    HW133351   1.823   1.396   3.618 -0.6555 -0.5454 -1.0924
 9982SOL    HW233352   1.907   1.522   3.608 -2.3165  0.6849  0.2358
 9983SOL     OW33353   6.933   2.982   9.486 -0.3108  0.5904 -0.4181
 9983SOL    HW133354   6.934   2.956   9.578  0.9455  0.6121 -0.4190
 9983SOL    HW233355   6.881   3.062   9.484  0.3134  1.0173  0.3919
 9984SOL     OW33356   3.979   7.331   7.015 -0.5887  0.0039 -0.2752
 9984SOL    HW133357   3.934   7.358   6.935 -0.4059 -1.1195 -0.7736
 9984SOL    HW233358   4.009   7.242   6.996  1.1000  0.4250  0.3562
 9985SOL     OW33359   4.002   6.791   3.800 -0.6110 -0.0400 -0.2789
 9985SOL    HW133360   3.923   6.844   3.784  0.0173  0.9840 -0.0382
 9985SOL    HW233361   4.071   6.837   3.754 -0.0976 -0.7891 -0.2557
 9986SOL     OW33362   6.481   6.663   6.315 -0.1185  0.0712  0.0963
 9986SOL    HW133363   6.502   6.750   6.348  0.0242  0.7108 -1.6904
 9986SOL    HW233364   6.388   6.668   6.291 -0.1162 -0.2885  0.0051
 9987SOL     OW33365   2.841   5.834   9.460  0.3232 -0.5753  0.0186
 9987SOL    HW133366   2.853   5.846   9.366 -1.2508 -0.0988 -0.1346
 9987SOL    HW233367   2.927   5.805   9.492  0.6897 -1.4163 -1.6682
 9988SOL     OW33368   0.157   6.703  10.716  0.6765 -0.2932  0.7454
 9988SOL    HW133369   0.063   6.702  10.696  1.1378  2.0603 -1.7526
 9988SOL    HW233370   0.163   6.749  10.799 -0.2820  0.5208  0.3710
 9989SOL     OW33371   8.490   1.390  10.675  0.7407 -0.2535 -0.3544
 9989SOL    HW133372   8.414   1.446  10.690  1.4514  1.3451 -2.5134
 9989SOL    HW233373   8.565   1.444  10.702  1.1602 -1.7913  1.7063
 9990SOL     OW33374   9.316   4.569  10.955  0.2315  0.0717  0.3579
 9990SOL    HW133375   9.233   4.539  10.919  0.4044  0.5392 -0.4607
 9990SOL    HW233376   9.382   4.522  10.903  0.4843 -0.6083  1.2763
 9991SOL     OW33377   1.345  10.344   5.227  1.1920 -0.5034  0.0343
 9991SOL    HW133378   1.323  10.292   5.149  0.4111  0.0096 -0.0946
 9991SOL    HW233379   1.395  10.418   5.193 -0.1027  0.3195 -0.1316
 9992SOL     OW33380   3.167   7.960   3.911  0.0195  0.2545 -0.6170
 9992SOL    HW133381   3.233   8.024   3.882  0.5047 -0.0542 -0.2115
 9992SOL    HW233382   3.114   7.944   3.834  0.2056  0.7734 -0.8577
 9993SOL     OW33383   8.003   1.654   5.574 -0.1903  0.3551 -0.0803
 9993SOL    HW133384   7.997   1.733   5.629  0.1576  0.5907 -0.3775
 9993SOL    HW233385   7.972   1.583   5.630 -2.5343  1.0227 -0.4778
 9994SOL     OW33386   7.476   2.780   2.493 -0.4144 -0.0914  0.2412
 9994SOL    HW133387   7.516   2.832   2.562 -0.8988  0.2438  0.2745
 9994SOL    HW233388   7.515   2.694   2.502  1.8271  0.7474 -1.0097
 9995SOL     OW33389   9.183   5.230   7.219  0.0737 -0.6525  0.0728
 9995SOL    HW133390   9.193   5.318   7.254  1.7138 -0.9103  0.3091
 9995SOL    HW233391   9.140   5.181   7.289 -1.4870  0.1199 -0.3300
 9996SOL     OW33392   7.583   8.787   7.591  0.4831 -0.4937 -0.0038
 9996SOL    HW133393   7.643   8.721   7.625  0.7589 -0.8536 -1.1748
 9996SOL    HW233394   7.598   8.788   7.497 -0.0759  0.6932 -0.0954
 9997SOL     OW33395   4.972   2.062   9.768  0.0554 -0.0025 -0.1874
 9997SOL    HW133396   4.981   1.998   9.698  0.0989  0.7590 -0.8855
 9997SOL    HW233397   5.062   2.094   9.783  0.0457 -0.1640  0.2085
 9998SOL     OW33398   3.901   4.318   1.171  0.3876 -0.0087  0.1909
 9998SOL    HW133399   3.889   4.366   1.252 -1.1256  0.3996 -0.2658
 9998SOL    HW233400   3.849   4.239   1.182  1.2445 -0.5954  0.1300
 9999SOL     OW33401   2.157   3.818   5.069  0.6191 -0.3764 -0.1099
 9999SOL    HW133402   2.178   3.728   5.094  0.1894 -0.4338  0.0567
 9999SOL    HW233403   2.189   3.872   5.141 -0.0696 -0.4886  0.2874
10000SOL     OW33404   9.109   3.988   5.224  0.1666  0.6154 -0.6864
10000SOL    HW133405   9.097   4.072   5.180 -1.4048  0.4894 -0.5268
10000SOL    HW233406   9.198   3.962   5.202  1.2683  3.1181  0.6445
10001SOL     OW33407   2.090   6.547   5.301 -0.1815 -0.5307 -0.2609
10001SOL    HW133408   2.085   6.614   5.369  0.9140  0.1132 -0.8025
10001SOL    HW233409   2.183   6.525   5.296 -0.0656  0.3298 -2.4096
10002SOL     OW33410   1.512   6.499   0.563  0.0935  0.1382  0.2233
10002SOL    HW133411   1.502   6.461   0.651  1.0115 -0.7727 -0.0433
10002SOL    HW233412   1.537   6.590   0.579 -2.0153  0.6091  0.8792
10003SOL     OW33413   8.849   5.666   8.147  0.2067  0.0207 -0.0521
10003SOL    HW133414   8.832   5.688   8.055 -0.0124  1.1359  0.2504
10003SOL    HW233415   8.941   5.688   8.160  0.2847 -0.3063 -0.0568
10004SOL     OW33416  10.824   0.812   5.559 -0.1101  0.2038  0.0995
10004SOL    HW133417  10.834   0.827   5.465  2.4545  1.2100  0.4903
10004SOL    HW233418  10.752   0.870   5.586  1.1979  2.2357 -0.7076
10005SOL     OW33419  10.710   6.149   5.913  0.4833  0.7971 -0.3682
10005SOL    HW133420  10.775   6.219   5.905 -0.4452  1.5240 -1.7837
10005SOL    HW233421  10.649   6.180   5.980  0.6284  0.8968 -0.2810
10006SOL     OW33422  10.342   1.521   9.659  0.2661  0.4892  0.1172
10006SOL    HW133423  10.261   1.561   9.691  0.7531  1.9558 -0.4252
10006SOL    HW233424  10.412   1.575   9.695  1.0270 -0.8781  0.7266
10007SOL     OW33425   3.961   3.719   5.145 -0.5709 -0.9514  0.4522
10007SOL    HW133426   3.918   3.646   5.101 -1.1622 -0.2122 -0.2043
10007SOL    HW233427   3.904   3.739   5.220 -1.2444 -0.1372 -0.2725
10008SOL     OW33428   9.023   2.547   1.705 -0.3036  0.1848  0.4767
10008SOL    HW133429   8.990   2.623   1.658 -1.7762 -0.8817 -0.2518
10008SOL    HW233430   8.956   2.480   1.692  0.3647 -0.8366  2.1874
10009SOL     OW33431   9.523   4.105   7.642  0.1091 -0.9252  0.1587
10009SOL    HW133432   9.461   4.069   7.706 -1.2880 -1.0216 -1.2140
10009SOL    HW233433   9.569   4.028   7.608  0.9106 -0.8673  1.0749
10010SOL     OW33434   3.647   0.347   3.618  0.1230  0.1013  0.5917
10010SOL    HW133435   3.626   0.432   3.579  1.2981 -0.1667 -0.6606
10010SOL    HW233436   3.594   0.285   3.567  1.0858 -0.1662 -0.0931
10011SOL     OW33437   1.473   9.643   9.069  0.1033 -0.5280 -0.1373
10011SOL    HW133438   1.463   9.701   8.993 -2.1188 -1.7711 -0.8419
10011SOL    HW233439   1.383   9.624   9.095  0.8170 -3.1669  0.4614
10012SOL     OW33440   2.101   4.023   6.174  0.1225 -0.2768 -0.3894
10012SOL    HW133441   2.067   4.010   6.085  0.7303 -0.5506 -0.5848
10012SOL    HW233442   2.166   4.092   6.165  0.5613 -0.6732 -0.2449
10013SOL     OW33443   4.623   2.048   2.835 -0.1392 -0.3532 -0.4337
10013SOL    HW133444   4.534   2.015   2.829 -0.6032  0.8216 -0.0564
10013SOL    HW233445   4.656   2.047   2.745 -0.9624  0.3920 -0.7468
10014SOL     OW33446   6.729   3.004   9.976  0.2239 -0.7460 -0.1693
10014SOL    HW133447   6.738   2.909   9.984  0.2275 -0.8485 -1.2560
10014SOL    HW233448   6.818   3.037   9.985  0.1353 -0.7943  0.8678
10015SOL     OW33449   2.172   1.116   2.192 -0.1215  0.0225 -0.5263
10015SOL    HW133450   2.233   1.043   2.189  0.4637  0.5123 -0.5559
10015SOL    HW233451   2.089   1.077   2.220  0.0645 -0.7330 -1.0191
10016SOL     OW33452   9.455   3.294   6.779 -0.0491 -0.1447  0.0582
10016SOL    HW133453   9.433   3.252   6.862 -0.0029 -1.5547 -0.6120
10016SOL    HW233454   9.447   3.223   6.715 -0.6805  1.0712 -1.2201
10017SOL     OW33455  10.033   1.519   7.183 -0.2450  0.6190  0.1029
10017SOL    HW133456  10.089   1.508   7.107 -0.3572  0.8737 -0.0167
10017SOL    HW233457  10.073   1.589   7.233  1.0854 -1.0257  1.4205
10018SOL     OW33458   9.304   7.941   0.649 -0.5117 -0.3269 -0.7511
10018SOL    HW133459   9.363   7.940   0.725 -0.5085 -0.2930 -0.7532
10018SOL    HW233460   9.343   8.006   0.590 -1.2628  0.6441 -0.1894
10019SOL     OW33461  10.335   8.065   4.804 -0.0451 -0.1922  0.2806
10019SOL    HW133462  10.290   8.027   4.728 -2.1620 -1.6939  2.2127
10019SOL    HW233463  10.274   8.130   4.838  1.3531  1.2436  0.0956
10020SOL     OW33464   9.276  10.336   8.522  0.4109  0.2114  0.8903
10020SOL    HW133465   9.235  10.419   8.545  0.9601  0.5128  0.8130
10020SOL    HW233466   9.306  10.349   8.432 -1.0758 -0.6979  0.2441
10021SOL     OW33467   8.623   9.099  10.570  0.3374  0.3172  0.6817
10021SOL    HW133468   8.601   9.107  10.477  1.5005  0.1972  0.3970
10021SOL    HW233469   8.671   9.179  10.590  0.6650  0.0355  1.0205
10022SOL     OW33470   2.114   5.187   5.810  0.4734  0.0658  0.3579
10022SOL    HW133471   2.181   5.199   5.877 -2.8050  0.7719  3.6400
10022SOL    HW233472   2.094   5.275   5.780  0.1236 -0.0305  0.3043
10023SOL     OW33473  10.924   9.012   2.375  0.1386  0.3163 -0.1875
10023SOL    HW133474  10.902   9.103   2.397  0.4117  0.1055  0.9839
10023SOL    HW233475  10.995   8.990   2.434  1.0228 -0.2155 -1.4328
10024SOL     OW33476   5.124   7.784   8.866 -0.1722  0.4641  0.1538
10024SOL    HW133477   5.178   7.746   8.935 -0.5713 -0.5539 -0.0866
10024SOL    HW233478   5.056   7.832   8.912 -1.0755 -1.1023  0.5115
10025SOL     OW33479   3.358   6.439   4.593  0.1014  0.0554 -0.6988
10025SOL    HW133480   3.347   6.346   4.572  2.3551 -0.1688 -0.9791
10025SOL    HW233481   3.307   6.452   4.673 -1.4125 -1.0805 -1.4544
10026SOL     OW33482   9.393   8.253   0.781  0.3672  0.1392  0.1926
10026SOL    HW133483   9.417   8.263   0.873 -0.8347  1.0696  0.4132
10026SOL    HW233484   9.299   8.234   0.782  0.8481 -2.5412 -0.7205
10027SOL     OW33485   8.241   7.135   7.751  0.2935  0.1613  0.2488
10027SOL    HW133486   8.201   7.078   7.816 -1.4028  0.1332 -0.8007
10027SOL    HW233487   8.319   7.170   7.795  0.3148 -1.4685  1.5514
10028SOL     OW33488   8.687   5.552   3.959  0.0786  0.1094  0.4933
10028SOL    HW133489   8.635   5.507   3.893  2.0308  0.2144 -1.1515
10028SOL    HW233490   8.663   5.644   3.949  3.1386  0.6486 -2.7293
10029SOL     OW33491   7.207   1.587   1.959 -0.5027  0.0293  0.4437
10029SOL    HW133492   7.193   1.534   2.037  2.7100 -0.1014  0.9879
10029SOL    HW233493   7.128   1.574   1.907 -1.3083 -2.4322  2.2014
10030SOL     OW33494   0.233   9.412   6.474 -0.2805  0.0724  0.4404
10030SOL    HW133495   0.143   9.432   6.451 -1.0148 -2.0522  1.3396
10030SOL    HW233496   0.253   9.471   6.547  0.4288  3.3250 -2.2472
10031SOL     OW33497  10.604  10.775  10.494 -0.0977 -0.2617  0.0874
10031SOL    HW133498  10.517  10.807  10.470 -0.9130 -0.9961  2.0057
10031SOL    HW233499  10.633  10.834  10.564  0.6374 -0.4720 -0.0344
10032SOL     OW33500   0.056   2.951   6.459 -0.1149 -0.1480 -0.3237
10032SOL    HW133501   0.117   2.941   6.532  0.8372 -1.0397 -1.2267
10032SOL    HW233502  -0.031   2.948   6.500  0.3852 -1.6728  0.6734
10033SOL     OW33503   0.629  10.605  10.517  0.3958  0.0051  0.1783
10033SOL    HW133504   0.663  10.516  10.520 -0.4358 -0.3929 -1.7767
10033SOL    HW233505   0.545  10.598  10.471 -0.5092  1.5429  1.5198
10034SOL     OW33506   8.252   2.059   5.268 -0.0823  0.0982  0.4732
10034SOL    HW133507   8.192   2.045   5.195  1.3664 -1.4039 -0.4835
10034SOL    HW233508   8.237   1.985   5.327  0.8366 -0.3128  0.2066
10035SOL     OW33509   5.245   2.613   5.954 -0.1650 -0.0432  0.2456
10035SOL    HW133510   5.305   2.547   5.920 -0.7135 -0.4192  0.0027
10035SOL    HW233511   5.195   2.643   5.878 -0.6555 -0.1162  0.5354
10036SOL     OW33512  10.314   2.422   7.867  0.1303 -0.1376  0.1248
10036SOL    HW133513  10.356   2.419   7.781 -0.7795 -0.6672 -0.3085
10036SOL    HW233514  10.308   2.330   7.894  2.7810  0.1763  1.9313
10037SOL     OW33515   7.745   9.453   3.764 -0.2002  0.4453  0.2423
10037SOL    HW133516   7.749   9.367   3.722 -2.0625  0.5416 -0.2088
10037SOL    HW233517   7.828   9.494   3.744 -0.1190 -0.4515 -1.3213
10038SOL     OW33518   6.592   3.839   2.681  0.4194 -0.3256  0.2162
10038SOL    HW133519   6.523   3.846   2.615  1.9596 -0.1955 -1.4199
10038SOL    HW233520   6.660   3.899   2.651  1.7064 -1.2436  1.2303
10039SOL     OW33521   5.679   6.963   8.755  0.1447  0.2588  0.7281
10039SOL    HW133522   5.762   6.917   8.743  0.6801  0.9177  1.8219
10039SOL    HW233523   5.659   6.999   8.669 -0.0819 -1.6501 -0.0463
10040SOL     OW33524   3.917   0.407   6.572  0.1314  0.8631  0.0308
10040SOL    HW133525   3.925   0.457   6.490 -3.9567  1.7885  0.0855
10040SOL    HW233526   3.882   0.322   6.545 -0.0453  0.7241  0.6924
10041SOL     OW33527   1.195  10.745   4.597 -0.8545 -0.2116  0.5898
10041SOL    HW133528   1.278  10.727   4.554 -1.3899 -1.5433  0.0634
10041SOL    HW233529   1.167  10.829   4.562 -0.4235 -0.4461 -0.3330
10042SOL     OW33530   8.024   6.469   3.562  0.1132 -0.9736 -0.0419
10042SOL    HW133531   7.936   6.448   3.592 -0.0193 -0.1433  0.1772
10042SOL    HW233532   8.020   6.460   3.467  0.3497 -2.9270  0.1086
10043SOL     OW33533   4.940   1.426   8.538 -0.4808  0.5428 -0.2796
10043SOL    HW133534   4.976   1.501   8.585  0.5107 -0.0873 -0.0171
10043SOL    HW233535   4.953   1.352   8.598 -2.9147  0.4112  0.1614
10044SOL     OW33536   0.203   4.025   0.254 -0.1859  0.6649  0.1422
10044SOL    HW133537   0.260   4.020   0.330 -1.0517  0.0015  0.7473
10044SOL    HW233538   0.243   4.093   0.199  0.4689  1.1067  1.1500
10045SOL     OW33539   8.136   2.022   0.061 -0.4279 -0.1350 -0.0708
10045SOL    HW133540   8.228   2.049   0.066 -0.0750 -1.0319 -1.4138
10045SOL    HW233541   8.133   1.942   0.114 -0.4794  0.0196  0.1586
10046SOL     OW33542  10.065   6.524   9.139 -0.3361  0.2334  0.0114
10046SOL    HW133543  10.090   6.477   9.219 -1.8039  0.9809  0.9342
10046SOL    HW233544   9.977   6.556   9.157  0.0009  1.9239 -1.2427
10047SOL     OW33545   2.540  10.351   4.584 -0.0946  0.5468 -0.2798
10047SOL    HW133546   2.518  10.398   4.664 -0.2346 -1.8260  1.1252
10047SOL    HW233547   2.578  10.268   4.614  0.9560  0.1043 -2.6710
10048SOL     OW33548   0.303   0.443   3.053  0.4473 -0.3978  0.4530
10048SOL    HW133549   0.278   0.444   3.146 -2.4325 -0.5370 -0.2518
10048SOL    HW233550   0.299   0.535   3.027  0.9715 -0.3893  0.4091
10049SOL     OW33551   9.317   1.425   9.665  0.0150 -0.7534  0.1715
10049SOL    HW133552   9.352   1.337   9.651 -0.6201 -0.9623 -0.0854
10049SOL    HW233553   9.245   1.412   9.727 -0.2561 -0.4540 -0.0818
10050SOL     OW33554   0.321   2.554   9.666  0.1934  0.1298 -0.4883
10050SOL    HW133555   0.324   2.520   9.577  1.0123  0.5457 -0.6271
10050SOL    HW233556   0.398   2.517   9.709  0.3864  0.7682 -0.2702
10051SOL     OW33557   3.723   7.177   6.306  0.3164 -0.6954  0.0565
10051SOL    HW133558   3.803   7.165   6.358  1.8677  2.1455 -1.4990
10051SOL    HW233559   3.756   7.196   6.218 -2.0148  2.3338 -0.2241
10052SOL     OW33560   3.956   4.987   7.098 -0.1483 -0.0198  0.2789
10052SOL    HW133561   3.881   4.938   7.066 -1.2224  1.5253  0.3992
10052SOL    HW233562   4.013   4.996   7.022  0.2886 -1.8366  0.3650
10053SOL     OW33563   5.523   4.794   1.843  0.1672  0.0388  0.2547
10053SOL    HW133564   5.512   4.699   1.840  0.1113 -0.0292  2.3740
10053SOL    HW233565   5.554   4.816   1.755 -0.9562 -1.7762 -0.6413
10054SOL     OW33566   9.595   6.594   7.060 -0.3030  0.1800 -0.2832
10054SOL    HW133567   9.530   6.594   7.131 -0.1281  0.2649 -0.1217
10054SOL    HW233568   9.614   6.686   7.045  1.6971  0.0935  1.4472
10055SOL     OW33569   9.262   0.099   3.423 -0.0719 -0.2233  0.2911
10055SOL    HW133570   9.244   0.151   3.501  0.7876  0.8446 -0.1960
10055SOL    HW233571   9.309   0.159   3.365 -2.8729 -0.2012 -2.0721
10056SOL     OW33572   1.488   9.086   7.700  0.0157 -0.3513  0.0954
10056SOL    HW133573   1.571   9.111   7.659 -0.6213 -0.2029 -1.1429
10056SOL    HW233574   1.439   9.042   7.630  0.1604 -2.9511  1.5927
10057SOL     OW33575  10.965   4.610   7.519 -0.3757 -0.3841  0.6904
10057SOL    HW133576  10.896   4.556   7.557 -1.6620 -0.6151 -1.9109
10057SOL    HW233577  10.954   4.601   7.425  2.4052  0.6112  0.2235
10058SOL     OW33578   2.349   0.319   1.494 -0.0774 -0.1904 -0.5633
10058SOL    HW133579   2.271   0.291   1.446  0.5833 -0.6221 -1.3883
10058SOL    HW233580   2.331   0.411   1.516 -1.2182 -0.5489  0.0814
10059SOL     OW33581   9.705   1.957   2.042  0.2474 -0.3648  0.5475
10059SOL    HW133582   9.768   1.885   2.051  1.2635  0.3643 -0.5579
10059SOL    HW233583   9.651   1.932   1.967  0.4301 -0.1069  0.3299
10060SOL     OW33584  10.308   2.415   8.546 -0.1292 -0.1140 -0.2358
10060SOL    HW133585  10.313   2.400   8.452  2.8867  3.4080 -0.7467
10060SOL    HW233586  10.381   2.365   8.583  0.8170  1.2330 -0.2289
10061SOL     OW33587   0.820   5.546   5.547 -0.0291  0.1383  0.5341
10061SOL    HW133588   0.818   5.582   5.636 -1.3936  2.2762 -0.3356
10061SOL    HW233589   0.912   5.528   5.531  0.3490  0.6094  2.0387
10062SOL     OW33590   2.391   7.961   2.455 -0.5045 -0.0404 -0.3024
10062SOL    HW133591   2.431   8.046   2.469 -0.0651 -0.4504  0.9921
10062SOL    HW233592   2.462   7.906   2.422 -0.1624 -0.5653  1.2684
10063SOL     OW33593   4.146   7.295  10.473  0.1612 -0.1575  0.2338
10063SOL    HW133594   4.133   7.386  10.444 -0.5344 -0.5296 -0.6258
10063SOL    HW233595   4.155   7.302  10.568 -1.9344  0.5940  0.3941
10064SOL     OW33596   2.923   4.613   2.500  0.5251 -0.0056  0.1932
10064SOL    HW133597   2.967   4.680   2.448  1.6498 -0.3064  0.7448
10064SOL    HW233598   2.990   4.582   2.561 -0.2700 -0.9233  0.6107
10065SOL     OW33599   6.852   2.604   8.485  0.2438  0.1344 -0.8812
10065SOL    HW133600   6.832   2.696   8.504  1.7040  0.6527 -1.7980
10065SOL    HW233601   6.874   2.566   8.570  2.5536  1.3779 -0.8936
10066SOL     OW33602  10.310   6.173   9.856 -0.3534 -0.1004  0.2943
10066SOL    HW133603  10.236   6.195   9.798  0.1882  1.1742  0.0712
10066SOL    HW233604  10.369   6.121   9.801 -2.0391 -2.9329  1.0624
10067SOL     OW33605   5.454   9.316   2.126  0.0617  0.5600 -0.2149
10067SOL    HW133606   5.454   9.334   2.032 -0.9335  1.5076 -0.0440
10067SOL    HW233607   5.437   9.401   2.166  2.2931  0.5110  0.9023
10068SOL     OW33608   7.661   5.680   0.234 -0.3831 -0.7040 -0.0542
10068SOL    HW133609   7.741   5.731   0.248 -1.5477  0.6219  2.0723
10068SOL    HW233610   7.670   5.604   0.290 -1.4815  0.5028  1.8256
10069SOL     OW33611   2.921   3.153   7.768  0.3554 -0.0739  0.4401
10069SOL    HW133612   2.851   3.198   7.721  0.1853 -1.9558 -1.1724
10069SOL    HW233613   2.876   3.089   7.823  0.6197  1.3557  2.3672
10070SOL     OW33614   5.299   3.082   6.878  0.0192  0.5866 -0.3386
10070SOL    HW133615   5.230   3.056   6.939 -0.3223 -1.2233 -1.4626
10070SOL    HW233616   5.287   3.177   6.868  0.4952  1.0583  2.8570
10071SOL     OW33617  10.821   4.653   5.684 -0.5306 -0.1320 -0.0037
10071SOL    HW133618  10.825   4.598   5.606  1.1379  0.3698 -0.2784
10071SOL    HW233619  10.820   4.743   5.650 -0.6387  0.0733  0.5336
10072SOL     OW33620   5.976   8.400   9.283  0.0217 -0.6241  0.4893
10072SOL    HW133621   6.058   8.450   9.280 -0.4186  0.0353 -0.6400
10072SOL    HW233622   5.990   8.327   9.222 -0.8023  0.3864 -0.9384
10073SOL     OW33623   2.182   6.184   8.916 -0.2897 -0.5091 -0.4806
10073SOL    HW133624   2.252   6.141   8.867  0.8356 -0.5697  1.1596
10073SOL    HW233625   2.197   6.160   9.007 -1.5633  0.6967  0.0733
10074SOL     OW33626   7.996   7.577   8.053  0.0811  0.2672 -0.9054
10074SOL    HW133627   8.058   7.555   8.122 -0.3713 -0.0304 -0.5897
10074SOL    HW233628   8.024   7.524   7.978  0.4378  0.4236 -0.8859
10075SOL     OW33629   1.675  10.604   2.972  0.3890 -0.5658 -0.3822
10075SOL    HW133630   1.755  10.553   2.957 -0.0926 -1.2305 -0.7144
10075SOL    HW233631   1.655  10.590   3.064  1.0877  0.2329 -0.1060
10076SOL     OW33632   2.523   8.775   2.720  0.0113 -0.2960  0.3217
10076SOL    HW133633   2.511   8.862   2.683 -0.7093  0.1551  1.5594
10076SOL    HW233634   2.614   8.773   2.749  0.8008 -0.9132 -2.0643
10077SOL     OW33635   5.032   1.217   9.179 -0.2853 -0.6510 -0.4307
10077SOL    HW133636   4.954   1.176   9.217 -1.6258  1.3147 -0.9826
10077SOL    HW233637   5.042   1.174   9.094 -0.6569 -1.0422 -0.2796
10078SOL     OW33638   3.892   8.302  10.254  0.2615  0.1176  0.0642
10078SOL    HW133639   3.899   8.387  10.211  0.5667  0.6304  1.1063
10078SOL    HW233640   3.967   8.252  10.220  2.6898  1.7670  2.6968
10079SOL     OW33641   6.724   6.161   0.170  0.5064  0.7462 -0.2911
10079SOL    HW133642   6.678   6.187   0.250  0.6257  0.7098 -0.2102
10079SOL    HW233643   6.761   6.243   0.136  2.6929  0.4037  1.1077
10080SOL     OW33644   0.427   4.836  10.738  0.4530 -0.0842  0.2427
10080SOL    HW133645   0.333   4.819  10.743  0.3868  0.8312  3.0554
10080SOL    HW233646   0.435   4.930  10.755  1.8024  0.0690 -1.1875
10081SOL     OW33647   9.562   4.955   2.541 -0.1021  0.3967 -0.4118
10081SOL    HW133648   9.582   4.861   2.533 -0.8313  0.3134 -1.3341
10081SOL    HW233649   9.507   4.961   2.619 -0.7144 -0.0469 -0.8091
10082SOL     OW33650   1.180   3.458   1.006  0.2905 -0.6425  0.0411
10082SOL    HW133651   1.142   3.372   1.021  0.2833 -0.4412  1.2817
10082SOL    HW233652   1.111   3.520   1.031  0.2779 -0.2771 -0.8815
10083SOL     OW33653   1.361   6.506   1.220 -0.1198 -0.7763 -0.5025
10083SOL    HW133654   1.289   6.538   1.275 -0.0520 -0.3497 -0.6584
10083SOL    HW233655   1.421   6.580   1.213  0.3219 -1.1249 -0.3956
10084SOL     OW33656   8.717   0.579   9.880 -0.0942  0.8199 -0.4179
10084SOL    HW133657   8.774   0.502   9.875 -1.0060  0.0048  1.4789
10084SOL    HW233658   8.639   0.554   9.831  0.2239  1.1132 -1.0879
10085SOL     OW33659   6.162   7.001   6.678  0.5338  0.0218  0.1884
10085SOL    HW133660   6.203   7.055   6.611 -0.8931  0.0450 -0.6647
10085SOL    HW233661   6.209   6.917   6.673  1.1538  0.3787 -0.0876
10086SOL     OW33662  10.611  10.677   0.800 -0.2571 -0.1628  0.5296
10086SOL    HW133663  10.550  10.604   0.810 -1.7191  0.8516 -0.6185
10086SOL    HW233664  10.638  10.674   0.708 -0.7801  1.0423  0.3179
10087SOL     OW33665   7.218   1.999   2.343 -0.3889 -0.4573  0.0182
10087SOL    HW133666   7.251   1.994   2.254  0.9655 -0.0261  0.4779
10087SOL    HW233667   7.153   2.070   2.340  0.1922  0.0619 -0.4601
10088SOL     OW33668  10.408   7.098   1.073  0.5335  0.1018  0.4067
10088SOL    HW133669  10.397   7.061   1.161  0.4423 -0.5831  0.1121
10088SOL    HW233670  10.372   7.186   1.080 -5.3755 -2.0259 -0.4932
10089SOL     OW33671   0.900   8.533   7.990 -0.2713  0.6146 -0.6473
10089SOL    HW133672   0.826   8.528   8.049 -0.5216  0.0560 -1.0065
10089SOL    HW233673   0.968   8.579   8.040 -0.6207  0.5107 -0.0799
10090SOL     OW33674  10.775   4.570  10.050 -0.0338  0.2213  0.2155
10090SOL    HW133675  10.727   4.633   9.997 -0.6529  0.2251  0.7800
10090SOL    HW233676  10.793   4.497   9.990 -0.4358  0.3726 -0.0880
10091SOL     OW33677   7.608   2.457   2.545  0.0355 -0.1408  0.4893
10091SOL    HW133678   7.569   2.402   2.477 -1.0568  0.5174  0.5741
10091SOL    HW233679   7.566   2.427   2.626 -1.1163  1.3155  0.4417
10092SOL     OW33680   2.595   6.435   0.016  0.1032  0.0849  0.1763
10092SOL    HW133681   2.531   6.456  -0.052  0.8927  0.1563 -0.5559
10092SOL    HW233682   2.643   6.361  -0.019 -0.3100 -0.6980  1.2134
10093SOL     OW33683   7.458   4.165   1.013  0.2059  0.0301 -0.4269
10093SOL    HW133684   7.473   4.250   1.054  1.9090  0.0243 -1.0250
10093SOL    HW233685   7.385   4.127   1.063  0.6974  1.0287  1.0674
10094SOL     OW33686   3.849   5.704   8.820  0.0899  0.5640  0.7923
10094SOL    HW133687   3.930   5.659   8.797  0.8814  2.3660  0.0050
10094SOL    HW233688   3.872   5.756   8.897 -0.4233  0.7653  0.8128
10095SOL     OW33689   6.653   8.919   4.381 -0.4517 -0.2006  0.4278
10095SOL    HW133690   6.697   8.846   4.337 -0.6852 -0.7729  1.1455
10095SOL    HW233691   6.720   8.957   4.437 -0.6048 -0.4708  0.7923
10096SOL     OW33692   0.725   0.799   4.559  0.1000 -0.3856  0.8099
10096SOL    HW133693   0.666   0.794   4.484  0.6528  0.4525  0.2996
10096SOL    HW233694   0.669   0.792   4.635 -0.6348  0.1525  0.3262
10097SOL     OW33695   4.719   0.298   5.951 -0.0930  0.8353  0.3031
10097SOL    HW133696   4.772   0.374   5.927 -0.8659  1.6013  0.9781
10097SOL    HW233697   4.757   0.269   6.034  0.9595 -0.2546 -0.5458
10098SOL     OW33698   8.656   1.456   0.959 -0.0058  0.5918  0.7670
10098SOL    HW133699   8.661   1.492   0.871  0.0815 -3.9808 -1.2088
10098SOL    HW233700   8.746   1.456   0.990  0.3111 -0.0167 -0.1255
10099SOL     OW33701   6.874   7.677   8.837 -0.4089 -0.1484 -0.4044
10099SOL    HW133702   6.908   7.677   8.927  0.6865 -0.3090 -0.8102
10099SOL    HW233703   6.788   7.718   8.844 -0.3176 -0.1271  0.7152
10100SOL     OW33704   7.003   4.084   1.399  0.1476  0.4641 -0.0999
10100SOL    HW133705   6.915   4.084   1.435  0.2429 -0.0760  0.1458
10100SOL    HW233706   6.994   4.119   1.311 -0.7096 -1.9312 -1.0020
10101SOL     OW33707   2.143  10.938   6.025  0.0295 -0.0643  0.2297
10101SOL    HW133708   2.199  10.909   5.953  0.1791 -0.7678  0.6196
10101SOL    HW233709   2.077  10.993   5.984  1.4706  1.4468 -0.1368
10102SOL     OW33710   3.500   2.149   9.855  0.2218 -0.2821 -0.2335
10102SOL    HW133711   3.581   2.193   9.879  0.3667 -1.0092  0.6351
10102SOL    HW233712   3.511   2.127   9.762  0.4837  0.7555 -0.4552
10103SOL     OW33713   1.829   4.356   5.441  0.2042  0.5283 -0.6665
10103SOL    HW133714   1.793   4.417   5.506  0.6580  0.2706 -0.1761
10103SOL    HW233715   1.924   4.366   5.450  0.2637  1.1804 -1.9364
10104SOL     OW33716   1.057   0.975   3.238  0.4332 -0.5540  0.1727
10104SOL    HW133717   1.126   0.929   3.190  1.3223  0.9602 -0.0150
10104SOL    HW233718   0.981   0.969   3.180  0.2986 -2.4798  0.5090
10105SOL     OW33719   0.725   8.369   4.455 -0.0874 -0.4308  0.0425
10105SOL    HW133720   0.777   8.291   4.441  0.3726  0.0087 -0.7262
10105SOL    HW233721   0.666   8.373   4.380  0.2456  0.2336 -0.1932
10106SOL     OW33722   0.199   8.894   4.905  0.3563 -0.2301  0.3029
10106SOL    HW133723   0.286   8.933   4.912  0.2917 -0.4182  2.3690
10106SOL    HW233724   0.159   8.938   4.830  1.7721  0.7513  0.1058
10107SOL     OW33725   9.044   7.758   6.054  0.0547 -0.2440 -0.7004
10107SOL    HW133726   9.051   7.665   6.075 -3.2496 -0.3850 -0.0087
10107SOL    HW233727   8.993   7.760   5.972 -0.9335  0.9840 -0.0709
10108SOL     OW33728   8.623   8.663   8.722 -0.1628  0.0169  0.0802
10108SOL    HW133729   8.670   8.619   8.652 -0.2881 -1.2119  0.7395
10108SOL    HW233730   8.531   8.645   8.704 -0.1641 -0.8530  0.8958
10109SOL     OW33731   4.732   5.054   6.629 -0.4654  0.1776  0.2111
10109SOL    HW133732   4.679   4.976   6.644  1.1233 -0.6383  1.7986
10109SOL    HW233733   4.820   5.021   6.614 -0.1347  1.5801 -1.0874
10110SOL     OW33734   6.723   9.741   4.996  0.6682  0.1892 -0.3005
10110SOL    HW133735   6.745   9.695   5.077 -0.0074 -1.4548 -1.0410
10110SOL    HW233736   6.671   9.816   5.025  2.2706  0.8535  0.9592
10111SOL     OW33737   5.326   4.799   9.645 -1.0189 -0.0011 -0.4742
10111SOL    HW133738   5.338   4.756   9.560 -3.5422 -1.2593 -0.2402
10111SOL    HW233739   5.298   4.728   9.704  0.5042  0.8905  1.3710
10112SOL     OW33740   5.780   8.529   8.865 -0.5596 -0.4248 -0.2584
10112SOL    HW133741   5.704   8.516   8.921 -1.8884  1.2260 -1.6217
10112SOL    HW233742   5.752   8.498   8.779  0.2615  0.3144 -0.7958
10113SOL     OW33743   6.365   4.543   3.529  0.4467 -0.0432  0.5383
10113SOL    HW133744   6.439   4.602   3.513  0.0365  1.3898  3.5410
10113SOL    HW233745   6.404   4.466   3.570  0.4761 -0.0927  0.4191
10114SOL     OW33746   9.223   0.786   2.408  0.0261 -0.3318  0.2616
10114SOL    HW133747   9.249   0.713   2.463 -0.3640 -0.3984  0.3622
10114SOL    HW233748   9.134   0.765   2.380  0.3488 -0.4614 -0.6790
10115SOL     OW33749   2.555   5.826   7.256 -0.0698 -0.4614  0.1878
10115SOL    HW133750   2.491   5.755   7.260 -1.0266  0.4230  1.4840
10115SOL    HW233751   2.501   5.906   7.252  0.9391  0.2890  1.2294
10116SOL     OW33752   1.283   0.706   2.333  0.4019  0.1282  0.1912
10116SOL    HW133753   1.256   0.615   2.325  0.7032 -0.0815  1.5635
10116SOL    HW233754   1.368   0.702   2.377  0.3307  1.0864  0.4206
10117SOL     OW33755   5.773   4.792   7.084  0.3735 -0.2703  0.2209
10117SOL    HW133756   5.726   4.770   7.004 -0.6256 -2.2386  1.2937
10117SOL    HW233757   5.705   4.801   7.150  1.1199  2.1804  0.6827
10118SOL     OW33758   9.266   0.772   5.832 -0.2300  0.6093  0.0609
10118SOL    HW133759   9.224   0.778   5.917  0.4584  0.7518  0.3973
10118SOL    HW233760   9.296   0.682   5.825  2.2541  1.2943  1.2166
10119SOL     OW33761   5.444   7.118   0.791  0.6578 -0.0406 -0.3693
10119SOL    HW133762   5.403   7.199   0.760  1.4379  0.4881 -0.0238
10119SOL    HW233763   5.462   7.134   0.883  0.8185 -0.6141 -0.3017
10120SOL     OW33764   9.144   7.889   3.086  0.2588  0.1028  0.0959
10120SOL    HW133765   9.135   7.832   3.010  1.1562  0.8079 -0.5512
10120SOL    HW233766   9.072   7.951   3.079  1.3721  1.2787 -1.1649
10121SOL     OW33767   5.498   1.378   5.828 -0.6371 -0.6209  0.1402
10121SOL    HW133768   5.489   1.449   5.764 -0.3269 -1.1696 -0.5111
10121SOL    HW233769   5.475   1.299   5.780  1.1172 -1.2331  0.2867
10122SOL     OW33770   7.195   5.435   9.879 -0.4442  0.5823 -0.0713
10122SOL    HW133771   7.249   5.509   9.853 -1.0022  1.4783  1.2702
10122SOL    HW233772   7.107   5.456   9.847 -0.1371 -0.6580 -1.8425
10123SOL     OW33773   2.940   1.457   2.811 -0.9175  0.2038  0.1868
10123SOL    HW133774   2.997   1.468   2.887 -0.9340  0.1447  0.2084
10123SOL    HW233775   2.994   1.411   2.747 -1.7529 -2.2663  1.1852
10124SOL     OW33776   5.824  10.769   9.573  0.1689  0.5363 -0.0462
10124SOL    HW133777   5.805  10.683   9.612 -0.4748  0.0100 -1.4812
10124SOL    HW233778   5.792  10.832   9.637  1.2942 -0.2764  1.3464
10125SOL     OW33779   5.646   7.350   3.314  0.6933 -0.5025  0.4584
10125SOL    HW133780   5.716   7.407   3.285  0.7293 -1.4966 -1.4750
10125SOL    HW233781   5.568   7.406   3.316  1.0357 -0.0137  0.0913
10126SOL     OW33782   4.552   5.489   8.321 -0.9905  0.4147 -0.0511
10126SOL    HW133783   4.544   5.467   8.228 -1.6191  0.0993  0.0735
10126SOL    HW233784   4.537   5.584   8.324 -0.0287  0.5860 -0.3753
10127SOL     OW33785   1.911   6.891   1.488 -0.0252  0.1070 -0.0385
10127SOL    HW133786   1.934   6.878   1.396 -1.8393  0.9143 -0.6170
10127SOL    HW233787   1.956   6.820   1.534  0.6660 -0.4632 -1.5697
10128SOL     OW33788   7.424   7.138   0.709 -0.1044  0.4800  0.2990
10128SOL    HW133789   7.467   7.222   0.725 -0.8802  0.9091  0.1950
10128SOL    HW233790   7.350   7.160   0.652 -0.1991 -0.3030  0.1163
10129SOL     OW33791   5.043   4.946   4.056  0.2554 -0.6076  0.2881
10129SOL    HW133792   4.968   5.004   4.073  1.0347  0.0790  1.4462
10129SOL    HW233793   5.101   4.999   4.001  1.2331 -0.0518  1.8181
10130SOL     OW33794   7.338  10.405   0.253  0.0196 -0.5434  0.0976
10130SOL    HW133795   7.282  10.338   0.214 -0.9212  0.3474 -0.0932
10130SOL    HW233796   7.377  10.450   0.178  1.6322 -1.6775  0.2322
10131SOL     OW33797   9.143   2.676  10.906 -0.6455  0.1759  0.0255
10131SOL    HW133798   9.167   2.630  10.826 -0.6097  0.8490 -0.3549
10131SOL    HW233799   9.091   2.750  10.876 -1.9895 -0.4703  0.7410
10132SOL     OW33800  10.752   4.901   6.072 -0.0612 -0.3578 -0.1094
10132SOL    HW133801  10.707   4.818   6.087  0.6326 -1.1304 -2.1093
10132SOL    HW233802  10.841   4.875   6.049  0.7976  1.0571  1.5619
10133SOL     OW33803   6.494   1.671   0.014 -0.2191  0.2118 -0.2532
10133SOL    HW133804   6.561   1.606   0.039 -0.5703 -0.5797 -1.3337
10133SOL    HW233805   6.474   1.717   0.095  3.1598  1.8990 -0.2446
10134SOL     OW33806   3.079   4.227   6.192 -0.1445 -0.5490  0.2909
10134SOL    HW133807   3.050   4.296   6.253 -0.6597  0.3895 -0.9823
10134SOL    HW233808   3.070   4.267   6.106  1.8941 -1.3919 -0.3378
10135SOL     OW33809   7.432   6.523   2.248 -0.0879 -0.4799  0.5817
10135SOL    HW133810   7.445   6.470   2.170  1.3345 -1.2091  1.2801
10135SOL    HW233811   7.346   6.498   2.281 -0.0696 -1.2477  0.0592
10136SOL     OW33812   4.737   1.147   4.219  0.2887 -0.1105 -0.0523
10136SOL    HW133813   4.829   1.133   4.197  0.9727 -1.1796  3.2298
10136SOL    HW233814   4.694   1.064   4.195 -0.0447  0.7089 -2.4358
10137SOL     OW33815   8.288   9.002   9.341 -0.2919 -0.5893 -0.0101
10137SOL    HW133816   8.286   8.988   9.247  0.2934  0.6691 -0.2200
10137SOL    HW233817   8.381   9.005   9.363 -0.4286 -1.2770  0.6671
10138SOL     OW33818   3.279   4.077   5.885  0.1122 -0.0965  0.7338
10138SOL    HW133819   3.288   4.123   5.802  1.3725 -0.2222  0.7890
10138SOL    HW233820   3.300   4.143   5.951  0.2897 -0.3121  0.8931
10139SOL     OW33821   0.295   1.841   8.305 -0.0362  0.1157  0.1832
10139SOL    HW133822   0.347   1.790   8.244 -1.6386 -0.7312 -0.5005
10139SOL    HW233823   0.359   1.893   8.354  1.4625 -1.2667 -0.2889
10140SOL     OW33824   8.781  10.640   3.689  0.1967 -0.2609  0.0830
10140SOL    HW133825   8.838  10.571   3.722  0.0618 -0.7212 -0.6322
10140SOL    HW233826   8.697  10.597   3.674  0.5122 -0.2954 -1.7431
10141SOL     OW33827   3.771   6.908   2.563 -0.1284 -1.0942 -0.6478
10141SOL    HW133828   3.859   6.937   2.586 -0.0319 -0.9742 -1.1461
10141SOL    HW233829   3.757   6.829   2.615  0.3801 -1.2651 -0.7612
10142SOL     OW33830  10.824   9.655   5.845  0.1696 -0.5369  0.2998
10142SOL    HW133831  10.772   9.724   5.804  2.1246  0.8426  0.0535
10142SOL    HW233832  10.811   9.578   5.789  0.4943  0.5161 -1.2591
10143SOL     OW33833  10.318   6.826   4.344 -0.4057  0.3855  0.1732
10143SOL    HW133834  10.378   6.875   4.289 -1.8645  0.7611 -1.1129
10143SOL    HW233835  10.232   6.865   4.327 -1.4418 -1.9453 -0.1349
10144SOL     OW33836   1.468   0.840   1.053 -0.1023  0.1850 -0.4059
10144SOL    HW133837   1.384   0.882   1.069  0.2266  1.3986 -1.7475
10144SOL    HW233838   1.530   0.887   1.109 -0.2207 -0.4192  0.2483
10145SOL     OW33839   4.344   8.903   0.771  0.4180  0.3157  0.3462
10145SOL    HW133840   4.367   8.812   0.788  0.0073  0.2607  0.6083
10145SOL    HW233841   4.423   8.952   0.794  0.4088  0.0890  0.8542
10146SOL     OW33842   1.011   3.991   0.014  0.4390 -0.4940  0.0209
10146SOL    HW133843   0.948   3.922   0.034  0.1891  0.4527  2.6068
10146SOL    HW233844   0.965   4.072   0.035  1.0391  0.4685 -2.1781
10147SOL     OW33845   9.318   7.492   8.073 -0.3774 -0.0885  0.1163
10147SOL    HW133846   9.345   7.499   7.981  0.6011  1.0311  0.4737
10147SOL    HW233847   9.400   7.495   8.122 -0.7522 -2.6013  0.9580
10148SOL     OW33848   6.264   9.959   5.191 -0.1526  0.3618  0.5688
10148SOL    HW133849   6.195   9.958   5.257 -0.1749 -0.8850  0.5554
10148SOL    HW233850   6.229   9.905   5.119  0.9434 -0.5560  0.6996
10149SOL     OW33851   2.714   5.337   4.782  0.0293  1.0855 -0.2338
10149SOL    HW133852   2.649   5.321   4.851  0.3593 -0.0693 -0.1865
10149SOL    HW233853   2.680   5.413   4.735 -1.1400  0.7489  0.0550
10150SOL     OW33854   7.326   5.440  10.155  0.0719  0.2948  0.2004
10150SOL    HW133855   7.377   5.520  10.162  0.6694 -0.0826  0.2609
10150SOL    HW233856   7.288   5.443  10.067  0.3759  0.4819  0.0745
10151SOL     OW33857   9.048   4.258   7.156  0.2088 -0.3166 -0.7033
10151SOL    HW133858   9.108   4.254   7.081 -0.3747 -0.2521 -1.1797
10151SOL    HW233859   8.972   4.207   7.128  0.6164 -1.5677  0.4311
10152SOL     OW33860   9.003   8.502   3.746  0.6005 -0.1606 -0.2545
10152SOL    HW133861   9.015   8.511   3.652 -1.3800 -0.5623 -0.5701
10152SOL    HW233862   9.052   8.423   3.769  0.0370 -0.7859 -1.1800
10153SOL     OW33863   7.147   6.137   8.839  0.0779 -0.4486 -0.3002
10153SOL    HW133864   7.191   6.185   8.768 -0.9790  1.3245  0.2368
10153SOL    HW233865   7.203   6.152   8.915 -1.0067  1.1300  0.1951
10154SOL     OW33866   5.306   6.965   7.656 -0.4275 -0.1596  0.0912
10154SOL    HW133867   5.272   7.012   7.731  0.6229 -1.1568  1.2067
10154SOL    HW233868   5.243   6.894   7.641 -0.1802 -0.4841  0.5759
10155SOL     OW33869   2.874   4.626   0.968  0.0454 -0.3566  0.2125
10155SOL    HW133870   2.870   4.541   0.924 -0.1026 -0.6558  0.8043
10155SOL    HW233871   2.964   4.657   0.952 -0.3905  0.1170 -1.3792
10156SOL     OW33872   6.479   9.847   1.091  0.0671  0.0910  0.0200
10156SOL    HW133873   6.555   9.905   1.081  0.5052 -0.4925 -0.0318
10156SOL    HW233874   6.405   9.907   1.099  0.6910  0.7043  1.4994
10157SOL     OW33875   1.124   0.982   8.581 -0.0456 -0.7413 -0.6539
10157SOL    HW133876   1.135   1.006   8.673  0.4833 -1.4456 -0.5238
10157SOL    HW233877   1.145   1.061   8.532 -1.9305  0.1274 -0.1225
10158SOL     OW33878   6.205   5.919   6.976  0.9324  0.3201  0.0568
10158SOL    HW133879   6.135   5.857   6.992  2.0802 -1.0886 -0.3399
10158SOL    HW233880   6.211   5.969   7.058  1.0655 -1.1569  0.9710
10159SOL     OW33881   6.915   3.333  10.576  0.1109  0.4430  0.2792
10159SOL    HW133882   6.879   3.342  10.663 -0.2160 -2.0541  0.4366
10159SOL    HW233883   6.883   3.410  10.528 -0.9699  1.0206  1.8994
10160SOL     OW33884   9.148   1.848   6.846  0.1240  0.2583 -0.1500
10160SOL    HW133885   9.166   1.763   6.807 -2.0063 -1.2372  2.0248
10160SOL    HW233886   9.157   1.835   6.940 -1.0779  2.1952  0.2731
10161SOL     OW33887   5.580   6.100   2.932 -0.2189 -0.2940 -0.1022
10161SOL    HW133888   5.494   6.138   2.951 -0.6998 -0.0887 -2.5091
10161SOL    HW233889   5.643   6.168   2.959 -0.8597  0.0254  0.5937
10162SOL     OW33890   2.901   6.137   0.148  0.2707  0.3191  0.1141
10162SOL    HW133891   2.826   6.193   0.130  1.2967  1.9277  0.7722
10162SOL    HW233892   2.915   6.144   0.243  0.2996 -1.1991  0.2384
10163SOL     OW33893   7.673   4.042   4.934  0.4139  0.4606  0.0453
10163SOL    HW133894   7.624   3.984   4.875 -1.7259 -0.0387  2.2140
10163SOL    HW233895   7.649   4.131   4.907  0.3915  0.2507 -0.6102
10164SOL     OW33896   2.906   1.598   2.174 -0.1851 -0.3406  0.1090
10164SOL    HW133897   2.918   1.519   2.121  0.5513  0.8586 -1.5688
10164SOL    HW233898   2.941   1.574   2.260 -0.2832 -1.9479 -0.2809
10165SOL     OW33899   0.219   9.177   3.359  0.3435  0.2663  0.0860
10165SOL    HW133900   0.183   9.163   3.271  1.0736  2.0572 -0.5437
10165SOL    HW233901   0.206   9.271   3.374  0.2300 -0.0348  1.9042
10166SOL     OW33902   6.624   5.742   1.663 -0.0422 -0.7383  0.3176
10166SOL    HW133903   6.582   5.756   1.748 -0.7544 -0.6452 -0.0527
10166SOL    HW233904   6.718   5.738   1.684 -0.2736 -1.6122  1.2230
10167SOL     OW33905   5.671   7.642   3.583 -0.6720  0.1051 -0.0505
10167SOL    HW133906   5.630   7.726   3.561 -0.6560 -0.0468 -0.6790
10167SOL    HW233907   5.720   7.619   3.504 -1.5071 -0.9976 -0.2615
10168SOL     OW33908   8.699   5.760   2.950 -0.0880  0.3454 -0.3398
10168SOL    HW133909   8.668   5.799   2.868  0.7597  0.8791 -0.4189
10168SOL    HW233910   8.791   5.786   2.954 -0.0548  0.0619  0.6323
10169SOL     OW33911   6.128   8.789   1.473 -0.0127  0.4687 -0.5573
10169SOL    HW133912   6.060   8.738   1.517 -0.4712  1.2303 -0.3715
10169SOL    HW233913   6.183   8.823   1.543 -0.0437  0.6989 -0.6416
10170SOL     OW33914   7.571   3.079   5.074  0.1430  0.0354  0.3135
10170SOL    HW133915   7.524   3.145   5.022  0.9110 -0.2893 -0.8288
10170SOL    HW233916   7.659   3.114   5.082  0.0810 -0.0175  1.2451
10171SOL     OW33917   2.228   2.173   2.660  0.0279 -0.2411  0.3690
10171SOL    HW133918   2.246   2.256   2.703  1.4250  1.5758 -3.4821
10171SOL    HW233919   2.281   2.109   2.708  1.5181  1.6741  1.3581
10172SOL     OW33920   6.396   8.871   5.586  0.0383 -0.0351  0.1558
10172SOL    HW133921   6.421   8.872   5.678 -1.7718  1.5749  0.6465
10172SOL    HW233922   6.468   8.824   5.543 -0.9604 -4.3365  2.8786
10173SOL     OW33923   3.200   7.950   8.726 -0.6062 -0.1826  0.4159
10173SOL    HW133924   3.277   7.900   8.700  0.5060  1.7359 -0.1032
10173SOL    HW233925   3.136   7.884   8.753 -0.0457 -1.9830 -2.4738
10174SOL     OW33926  10.810   9.141   9.510 -0.3681  0.2978 -0.1140
10174SOL    HW133927  10.792   9.051   9.485  0.6698  0.0949 -0.1783
10174SOL    HW233928  10.814   9.140   9.606 -0.2017  0.2342 -0.1206
10175SOL     OW33929   3.363   0.034   2.947  0.3222  0.2421  0.6344
10175SOL    HW133930   3.285   0.079   2.914  1.6977  1.6819 -0.7370
10175SOL    HW233931   3.329  -0.044   2.991 -1.8778  0.8150  0.0172
10176SOL     OW33932   0.929   0.333   5.219 -0.3033 -0.2590  0.6166
10176SOL    HW133933   0.976   0.415   5.235  2.2702 -1.4195 -0.7500
10176SOL    HW233934   0.874   0.352   5.143  0.1270  0.2495  0.4292
10177SOL     OW33935   4.468   2.017   0.919  0.6450  0.4231 -0.9363
10177SOL    HW133936   4.397   2.023   0.855  0.2287 -0.7928 -0.5944
10177SOL    HW233937   4.522   1.944   0.889  0.6409  0.0688 -0.0751
10178SOL     OW33938   0.155   6.334   7.054  0.9620  0.1221  0.3312
10178SOL    HW133939   0.076   6.300   7.097  1.1616 -1.0595 -0.2402
10178SOL    HW233940   0.124   6.409   7.004  0.0205 -0.9149 -0.6540
10179SOL     OW33941   9.282   2.753   6.606  0.5440  0.4830 -0.4304
10179SOL    HW133942   9.329   2.796   6.535  1.6816  1.1763  0.7148
10179SOL    HW233943   9.204   2.806   6.620  0.1802  0.1925 -1.3280
10180SOL     OW33944   5.726   0.262   2.624  0.3149  0.0606 -0.1036
10180SOL    HW133945   5.709   0.170   2.643 -2.9200  0.3839 -1.1968
10180SOL    HW233946   5.671   0.310   2.685 -0.2199  1.2214 -1.4614
10181SOL     OW33947   2.857   5.858   5.761  0.2701 -0.4141  0.6397
10181SOL    HW133948   2.886   5.936   5.714 -1.8615  1.5202  2.4087
10181SOL    HW233949   2.867   5.787   5.698 -3.0735  2.1275 -2.9924
10182SOL     OW33950   7.016   6.065   9.230 -0.6036  0.1444 -0.1668
10182SOL    HW133951   7.021   6.004   9.156 -2.5323  1.4691 -1.4587
10182SOL    HW233952   7.103   6.104   9.235 -0.2886 -0.3681 -1.3756
10183SOL     OW33953   7.691   9.141   9.118 -0.3824 -0.7040  0.8482
10183SOL    HW133954   7.637   9.072   9.156 -0.2617 -0.9912  0.5008
10183SOL    HW233955   7.719   9.105   9.033 -1.2303  0.1965  0.1670
10184SOL     OW33956   3.521   4.133   4.189 -0.3686 -0.1250 -0.6545
10184SOL    HW133957   3.479   4.071   4.249  0.0918 -0.7081 -0.9266
10184SOL    HW233958   3.611   4.101   4.180 -0.3254  0.1696 -1.3522
10185SOL     OW33959   2.472   2.428   5.170 -0.4313  0.1981  0.7913
10185SOL    HW133960   2.412   2.485   5.121  0.4962  0.8015  0.3497
10185SOL    HW233961   2.458   2.341   5.133 -2.4163 -0.0430  1.9877
10186SOL     OW33962   2.304   5.437   8.023 -0.1735 -0.0519  0.5079
10186SOL    HW133963   2.313   5.509   7.960 -1.1622  0.2229  0.6728
10186SOL    HW233964   2.251   5.473   8.094  1.3898 -0.1834  1.7899
10187SOL     OW33965   0.949   1.491   4.000 -0.5985  0.0643  0.3457
10187SOL    HW133966   0.938   1.480   3.905  0.0503 -1.2841  0.4207
10187SOL    HW233967   0.879   1.551   4.025 -3.3035 -2.6653 -0.3517
10188SOL     OW33968   5.611   1.973   9.713  0.1701 -0.5435 -0.3225
10188SOL    HW133969   5.643   1.916   9.783  0.6752 -0.8782 -0.8205
10188SOL    HW233970   5.669   1.955   9.639  2.0589  2.5778  0.3259
10189SOL     OW33971   1.081   9.402   3.230  0.1938 -0.5578  0.2086
10189SOL    HW133972   0.991   9.432   3.241  0.2576  0.2284 -1.2299
10189SOL    HW233973   1.100   9.418   3.137  1.2766 -2.2004  0.1361
10190SOL     OW33974   7.076  10.770   3.649 -0.3692 -0.0745 -0.1432
10190SOL    HW133975   6.981  10.784   3.651 -0.4823 -0.6991 -1.0274
10190SOL    HW233976   7.097  10.759   3.556  0.4431 -0.8276  0.1196
10191SOL     OW33977   7.169   6.640   8.033 -0.2376 -0.0182 -0.4060
10191SOL    HW133978   7.192   6.596   7.951 -0.8777  1.5752 -1.4713
10191SOL    HW233979   7.217   6.723   8.028 -2.3510  1.2317 -0.4034
10192SOL     OW33980   6.424   1.456   1.241 -0.2503 -0.2319  0.4454
10192SOL    HW133981   6.417   1.392   1.171  0.2961 -0.2384  0.3921
10192SOL    HW233982   6.359   1.523   1.220 -2.0955 -1.6423  1.4471
10193SOL     OW33983   7.236   9.525   2.328  0.2150 -0.8387 -0.0429
10193SOL    HW133984   7.208   9.615   2.343 -0.1572 -0.9267 -0.2072
10193SOL    HW233985   7.216   9.508   2.236  2.1109 -0.4507 -0.5427
10194SOL     OW33986   1.365   4.933   6.695 -0.3723  0.0851 -0.7492
10194SOL    HW133987   1.455   4.912   6.672 -0.3555  0.5757 -1.1178
10194SOL    HW233988   1.333   4.853   6.738  0.7074  0.4383  0.7696
10195SOL     OW33989   2.856   4.926   7.896  0.1373 -0.0550  0.3674
10195SOL    HW133990   2.828   4.910   7.986  0.9254  0.4272  0.6931
10195SOL    HW233991   2.946   4.895   7.893  0.5584  1.1961  0.0982
10196SOL     OW33992   8.469   6.906   5.474 -0.1475 -0.1972  0.1374
10196SOL    HW133993   8.373   6.909   5.469 -0.1943  1.8926  1.7741
10196SOL    HW233994   8.497   6.995   5.453  1.3496 -0.4714  0.9194
10197SOL     OW33995   0.385   9.832   1.926 -0.1460  0.4043 -0.3079
10197SOL    HW133996   0.457   9.877   1.969  0.3387 -0.1626 -0.5174
10197SOL    HW233997   0.333   9.902   1.886 -0.2941  0.8836  0.7197
10198SOL     OW33998   3.624   6.288   5.464 -0.3080  0.3002  0.2594
10198SOL    HW133999   3.601   6.339   5.387 -0.0325  0.6426  0.4009
10198SOL    HW234000   3.675   6.215   5.430  1.7306  1.6619  0.3288
10199SOL     OW34001   1.475   9.152   3.016  0.0343  0.1806 -0.1693
10199SOL    HW134002   1.425   9.071   3.005  1.9645 -0.9446 -1.0650
10199SOL    HW234003   1.485   9.186   2.927 -3.3579  3.0917  0.4677
10200SOL     OW34004   8.689   5.479   4.220 -0.0209 -0.3055  0.1059
10200SOL    HW134005   8.703   5.503   4.128 -0.6692  1.1561  0.3638
10200SOL    HW234006   8.665   5.561   4.262 -1.9367 -1.3352  1.1273
10201SOL     OW34007   0.888   6.448   8.057 -0.2540 -0.3768 -0.6446
10201SOL    HW134008   0.836   6.370   8.038  0.8897 -1.5911  1.0491
10201SOL    HW234009   0.978   6.424   8.035  0.1340  0.4229  0.0044
10202SOL     OW34010   8.896   9.013  10.746  0.2343  0.3906  0.0477
10202SOL    HW134011   8.955   9.053  10.810 -0.2092 -0.0485  0.7341
10202SOL    HW234012   8.812   9.057  10.760 -0.0611 -0.2451  0.2968
10203SOL     OW34013   5.901   6.922   2.952  0.5395 -0.1722  0.2675
10203SOL    HW134014   5.950   6.877   2.883 -0.0428  2.0510 -1.6659
10203SOL    HW234015   5.811   6.923   2.920  0.3040  1.1176  0.9336
10204SOL     OW34016   0.520   5.186   3.915  0.9246 -0.4147  0.1405
10204SOL    HW134017   0.448   5.236   3.878  0.5359 -0.1164  1.2746
10204SOL    HW234018   0.506   5.190   4.009  1.8141 -1.2772  0.3180
10205SOL     OW34019   9.698   4.838   7.144 -0.0156  0.4744 -0.0080
10205SOL    HW134020   9.670   4.772   7.081  0.2081  0.3185  0.0588
10205SOL    HW234021   9.631   4.907   7.137 -1.1777 -0.5260  1.1482
10206SOL     OW34022   6.708   2.767   8.087 -0.4336 -0.2611 -0.5435
10206SOL    HW134023   6.626   2.785   8.135 -0.5874  1.4935 -1.4506
10206SOL    HW234024   6.772   2.828   8.125  0.6542 -2.0723  0.6091
10207SOL     OW34025   3.039   0.366   0.512 -0.6785  0.2252  0.1988
10207SOL    HW134026   2.960   0.320   0.542 -0.7737  0.1244 -0.2115
10207SOL    HW234027   3.076   0.310   0.445 -0.0598  0.1045  0.6374
10208SOL     OW34028   1.548   2.832   7.867  0.0413  0.0900 -0.0066
10208SOL    HW134029   1.600   2.785   7.932  1.5262 -1.4995 -2.2609
10208SOL    HW234030   1.613   2.883   7.818 -1.0437  1.2414 -0.2412
10209SOL     OW34031   5.068   7.632   3.533 -0.2262 -0.1275  0.3122
10209SOL    HW134032   5.062   7.547   3.488 -1.3195 -0.5695  1.2517
10209SOL    HW234033   5.081   7.608   3.625 -1.2221  0.7096  0.6773
10210SOL     OW34034  10.780  10.104   6.834 -0.5020 -0.0174 -0.0090
10210SOL    HW134035  10.758  10.131   6.745  0.0665 -0.3886 -0.2691
10210SOL    HW234036  10.696  10.084   6.875 -0.7891  0.4285 -0.3701
10211SOL     OW34037   8.620   2.799   8.724 -0.1365 -0.1293 -0.3405
10211SOL    HW134038   8.605   2.807   8.818 -0.5598 -0.0756 -0.4156
10211SOL    HW234039   8.693   2.858   8.706 -1.0979  1.0715 -0.3230
10212SOL     OW34040   5.354   6.540   0.968 -0.4319 -0.2647 -0.3052
10212SOL    HW134041   5.314   6.537   1.055  2.2735  2.5966  1.1246
10212SOL    HW234042   5.428   6.480   0.973 -0.6511 -0.5930 -0.8851
10213SOL     OW34043   4.636   9.546   2.620 -0.4203 -0.1295 -0.4953
10213SOL    HW134044   4.682   9.482   2.565  2.1787 -0.0781  1.5366
10213SOL    HW234045   4.606   9.495   2.695  0.2400  0.7347  0.3519
10214SOL     OW34046   1.262   4.240  10.725 -0.1026 -0.2233  0.2827
10214SOL    HW134047   1.296   4.310  10.780 -0.1657  0.6726 -0.8113
10214SOL    HW234048   1.340   4.190  10.699  0.5978  2.3939 -3.0184
10215SOL     OW34049   4.691   7.771   1.506 -0.2310 -0.6045 -0.1816
10215SOL    HW134050   4.621   7.830   1.533  0.1698  0.1852 -0.8366
10215SOL    HW234051   4.687   7.771   1.411 -0.7777 -2.3163 -0.1601
10216SOL     OW34052   5.641   2.987   6.604  0.2628 -0.2006 -0.3522
10216SOL    HW134053   5.558   2.955   6.640  0.1052  0.0158 -0.5240
10216SOL    HW234054   5.616   3.036   6.525  0.6274 -0.8718 -0.8910
10217SOL     OW34055   7.346   5.737   4.573  0.1323  0.3654  0.0783
10217SOL    HW134056   7.279   5.690   4.622 -0.7519  1.8346  0.3219
10217SOL    HW234057   7.361   5.684   4.495 -1.6400  0.2378 -0.1884
10218SOL     OW34058  10.542  10.068   0.658 -0.1783 -0.0980 -0.3781
10218SOL    HW134059  10.455  10.095   0.629  0.4820  1.5572 -0.8834
10218SOL    HW234060  10.589  10.048   0.577  0.6819  1.4617 -0.2875
10219SOL     OW34061   6.608   0.195   6.335  0.1335  0.4641 -0.1693
10219SOL    HW134062   6.526   0.157   6.367 -0.5367  1.8599 -0.2095
10219SOL    HW234063   6.636   0.135   6.266 -0.8542 -0.0295 -0.1615
10220SOL     OW34064   0.130   9.188   6.689 -0.0984 -0.1720  0.4225
10220SOL    HW134065   0.100   9.151   6.773  0.4192 -0.4701  0.4806
10220SOL    HW234066   0.226   9.179   6.692 -0.1958 -2.1383 -1.0959
10221SOL     OW34067   5.525   9.800   8.723  0.0594  0.2165  0.2132
10221SOL    HW134068   5.547   9.816   8.631 -0.8493  3.7173  0.5106
10221SOL    HW234069   5.602   9.831   8.772  0.2197 -0.9045  0.6960
10222SOL     OW34070   0.664   9.020   1.593  0.1753 -0.0303  0.1551
10222SOL    HW134071   0.577   9.010   1.631  0.2597  0.5855  0.5201
10222SOL    HW234072   0.683   9.114   1.602  0.8019 -0.1358 -0.0785
10223SOL     OW34073   4.442  10.188   6.205 -0.1031  0.2869  0.4060
10223SOL    HW134074   4.511  10.160   6.145  0.1746  1.0378  0.3779
10223SOL    HW234075   4.400  10.106   6.232 -0.5696 -0.0216 -1.2152
10224SOL     OW34076   2.259   3.933   5.311 -0.2448 -0.0413  0.2635
10224SOL    HW134077   2.252   3.942   5.406 -1.2691 -1.1697  0.3127
10224SOL    HW234078   2.350   3.907   5.296  0.2861  1.4450  0.8104
10225SOL     OW34079   6.008  10.560   8.968  0.0308  1.0209 -0.2263
10225SOL    HW134080   6.012  10.607   8.884  2.4886  0.8532 -0.2477
10225SOL    HW234081   6.036  10.624   9.033 -0.8055  0.8314  0.3283
10226SOL     OW34082   9.777   3.079   3.020  0.0724 -0.1175  0.0283
10226SOL    HW134083   9.839   3.108   2.953 -1.7307  1.9789 -0.7718
10226SOL    HW234084   9.718   3.020   2.974 -0.9077  0.9851 -0.1417
10227SOL     OW34085   3.742   3.750   7.086  0.2090  0.2159 -0.1846
10227SOL    HW134086   3.678   3.750   7.015 -0.6295 -0.8962  0.5611
10227SOL    HW234087   3.818   3.704   7.050  1.3283  3.1255 -1.6938
10228SOL     OW34088   5.312   2.215  10.288 -0.2551 -0.1552  0.3378
10228SOL    HW134089   5.266   2.209  10.205  0.2209 -1.1313  0.1401
10228SOL    HW234090   5.348   2.128  10.302  0.7420  0.3468  0.9498
10229SOL     OW34091   1.373   2.739   3.488  0.1445 -0.1099  0.3853
10229SOL    HW134092   1.425   2.678   3.436  0.9998  0.0468  1.0555
10229SOL    HW234093   1.410   2.825   3.469  0.8542 -0.1164  1.7214
10230SOL     OW34094   5.695   6.487   8.025 -0.0100  0.2618 -0.7159
10230SOL    HW134095   5.656   6.571   8.003  0.5314  0.1985 -1.9630
10230SOL    HW234096   5.645   6.423   7.976 -1.0452 -0.2602  0.9847
10231SOL     OW34097   3.806   2.024   5.014 -0.1226  0.1420 -0.0518
10231SOL    HW134098   3.899   2.001   5.011 -0.4079 -1.3734  1.5307
10231SOL    HW234099   3.803   2.107   5.063  0.4634  0.8108 -1.1197
10232SOL     OW34100   8.064   3.353   4.040  0.1736  0.6834 -0.4693
10232SOL    HW134101   7.975   3.322   4.026  0.4572 -0.4169  0.0842
10232SOL    HW234102   8.091   3.388   3.955 -0.0751 -0.8209 -1.1712
10233SOL     OW34103   1.543   7.664   8.052 -0.1026  0.1174  0.0174
10233SOL    HW134104   1.502   7.626   7.974 -0.3482  1.0231 -0.2975
10233SOL    HW234105   1.469   7.685   8.109  0.2125 -3.7682  2.0243
10234SOL     OW34106   5.233   0.354   8.799 -0.4959 -0.1811 -0.2907
10234SOL    HW134107   5.245   0.279   8.741 -1.2258 -1.1596  0.7835
10234SOL    HW234108   5.297   0.342   8.868 -0.5399  0.2453 -0.1706
10235SOL     OW34109   5.182   6.090   2.054 -0.9577  0.4135 -0.0808
10235SOL    HW134110   5.242   6.128   1.990 -0.0024 -2.4034 -0.9508
10235SOL    HW234111   5.097   6.127   2.032  0.0562  2.7008 -0.2981
10236SOL     OW34112   9.857  10.978   8.418 -0.0786 -0.2066 -0.0999
10236SOL    HW134113   9.819  10.967   8.331  0.3282  3.4606 -0.8430
10236SOL    HW234114   9.951  10.984   8.402  0.1132 -0.9151  0.7583
10237SOL     OW34115   2.282   3.925   5.598  0.1592 -0.3222 -0.2647
10237SOL    HW134116   2.244   3.901   5.683  0.5701  2.1722  0.6548
10237SOL    HW234117   2.285   3.842   5.549 -1.2215 -1.5736  1.6874
10238SOL     OW34118   0.575   3.168  10.513 -0.0392 -0.5043 -0.0936
10238SOL    HW134119   0.557   3.090  10.461 -0.4115 -1.5743  1.5968
10238SOL    HW234120   0.488   3.198  10.542  0.2319 -0.5236  0.7543
10239SOL     OW34121   5.784   0.327   1.681 -0.5406  0.3783 -0.3777
10239SOL    HW134122   5.702   0.297   1.641 -0.5610 -0.4094  0.2405
10239SOL    HW234123   5.796   0.269   1.756 -0.8096  2.2033  1.1084
10240SOL     OW34124   9.969   6.176   2.420 -0.5886  0.1963  0.3868
10240SOL    HW134125   9.908   6.143   2.354  0.0070 -1.3315  0.5806
10240SOL    HW234126   9.937   6.264   2.440 -0.5702  0.8205 -2.1640
10241SOL     OW34127   5.430   5.133   0.424  0.2081  0.0199  0.0193
10241SOL    HW134128   5.517   5.111   0.390  0.1080 -0.8726  0.3304
10241SOL    HW234129   5.372   5.125   0.348 -0.0839 -2.3820  0.4755
10242SOL     OW34130   9.595   4.338   5.033 -0.1390  0.1051  0.0161
10242SOL    HW134131   9.565   4.427   5.015  1.7641  0.4200 -1.8362
10242SOL    HW234132   9.624   4.340   5.124 -4.8651 -0.0473  1.6832
10243SOL     OW34133   8.327   7.298   6.611  0.2267 -0.3143  0.3129
10243SOL    HW134134   8.391   7.236   6.576 -0.3440 -0.1534 -1.0652
10243SOL    HW234135   8.276   7.325   6.534  0.9902  2.4718  0.7541
10244SOL     OW34136   1.003  10.404   6.884 -0.9223 -0.1509  0.4914
10244SOL    HW134137   0.981  10.493   6.912 -2.0849  0.2151 -1.4677
10244SOL    HW234138   1.009  10.410   6.788 -2.8994 -2.5352  0.1591
10245SOL     OW34139   8.362   7.091   7.349  0.6150 -0.1381 -0.0806
10245SOL    HW134140   8.402   7.005   7.356  0.8378 -0.0224  0.0950
10245SOL    HW234141   8.325   7.093   7.261  0.4629 -0.4740 -0.0239
10246SOL     OW34142   3.453   9.128   7.649 -0.4128  0.3629  0.4244
10246SOL    HW134143   3.411   9.158   7.730 -3.2147 -0.9320 -0.4865
10246SOL    HW234144   3.396   9.159   7.579  0.5413 -0.8259 -0.9099
10247SOL     OW34145   9.024  10.746   2.817  0.1671 -0.2307 -0.1048
10247SOL    HW134146   8.991  10.700   2.894 -2.0421  0.3332 -0.6711
10247SOL    HW234147   9.010  10.838   2.836  1.4156  0.0308 -0.3955
10248SOL     OW34148   0.193   7.340   2.771  0.1637  0.0557  0.0939
10248SOL    HW134149   0.235   7.388   2.842  1.5011  0.6079 -1.0471
10248SOL    HW234150   0.181   7.405   2.702 -2.1558 -0.2062  0.2170
10249SOL     OW34151   5.727   4.473   7.763  0.2045  0.2313 -0.0650
10249SOL    HW134152   5.755   4.495   7.674  0.4299 -1.8111 -0.5429
10249SOL    HW234153   5.766   4.540   7.818  1.5398  0.5170 -1.3309
10250SOL     OW34154   8.278   5.519   1.914  0.2652  0.0068  0.4662
10250SOL    HW134155   8.370   5.536   1.890  1.0362 -2.4751  1.5345
10250SOL    HW234156   8.262   5.577   1.988  0.9637  0.4750  0.2590
10251SOL     OW34157   0.991   2.465   0.859 -0.3648  0.4024 -0.0124
10251SOL    HW134158   0.904   2.432   0.835 -0.1889 -0.7611  0.9167
10251SOL    HW234159   0.977   2.558   0.876 -1.5351  0.1368  0.5572
10252SOL     OW34160   6.225   1.909   6.335  0.2083  0.2799 -0.0466
10252SOL    HW134161   6.134   1.887   6.352  0.2199 -0.4465 -0.8996
10252SOL    HW234162   6.275   1.850   6.391  0.1522  1.1069  0.8937
10253SOL     OW34163   4.579   4.132   4.990  0.0642  0.1598  0.0274
10253SOL    HW134164   4.508   4.168   4.936 -0.2995  1.2539  1.2139
10253SOL    HW234165   4.569   4.175   5.074  1.7631 -0.1670  0.4121
10254SOL     OW34166   0.216   8.370   4.798  0.0584 -0.5000 -0.1196
10254SOL    HW134167   0.214   8.466   4.801 -1.7850 -0.4910 -1.0889
10254SOL    HW234168   0.140   8.343   4.850 -0.3027 -1.3836 -1.0751
10255SOL     OW34169   4.396   5.226   8.309 -0.7703  0.2043 -0.2542
10255SOL    HW134170   4.371   5.311   8.275 -1.3207  0.4686  0.7967
10255SOL    HW234171   4.374   5.164   8.239  0.7070  1.0450 -1.4723
10256SOL     OW34172   9.010   9.485   3.150  0.3166  0.8811 -0.3257
10256SOL    HW134173   9.054   9.546   3.091  0.0706  1.6404  0.2694
10256SOL    HW234174   8.975   9.540   3.220 -1.4821  0.2815 -0.7293
10257SOL     OW34175   3.205   2.752   5.353  0.0321 -0.0484  0.1043
10257SOL    HW134176   3.192   2.845   5.372 -0.4358 -0.3058  1.0532
10257SOL    HW234177   3.117   2.716   5.351  0.2354 -0.5434  0.0999
10258SOL     OW34178   6.754   6.340   9.972 -0.0246 -0.0079 -0.4198
10258SOL    HW134179   6.723   6.352   9.882 -0.2335 -0.8766 -0.4725
10258SOL    HW234180   6.833   6.393   9.977  0.3956 -0.5257 -1.3523
10259SOL     OW34181   4.509   4.166   7.757 -0.5011  0.0621  0.2885
10259SOL    HW134182   4.488   4.133   7.670  0.1927 -0.4062  0.2954
10259SOL    HW234183   4.444   4.235   7.773 -0.7538  0.0110 -0.5109
10260SOL     OW34184   7.559  10.585   0.521  0.0622 -0.0474  0.1217
10260SOL    HW134185   7.603  10.603   0.438  0.1347  1.7141  0.5390
10260SOL    HW234186   7.593  10.499   0.547 -1.5296 -1.6016 -2.6829
10261SOL     OW34187   9.332  10.902   7.217  0.2732  0.0562 -0.0027
10261SOL    HW134188   9.283  10.874   7.140 -2.0115  2.0131  0.7002
10261SOL    HW234189   9.377  10.982   7.189 -1.2389  1.2475  0.9127
10262SOL     OW34190   0.071  10.627   3.829  0.0167 -0.1159  0.6491
10262SOL    HW134191  -0.014  10.672   3.831 -0.9793 -1.8747 -0.3574
10262SOL    HW234192   0.136  10.697   3.839 -1.3611  1.9681 -3.6685
10263SOL     OW34193  10.274   5.729   5.003 -0.3158 -0.1324  0.4774
10263SOL    HW134194  10.218   5.747   5.079 -0.4094 -0.1214  0.4062
10263SOL    HW234195  10.363   5.750   5.033 -0.6212  2.3170 -0.2007
10264SOL     OW34196   2.526   2.623   5.599 -0.3566 -0.1226  0.2254
10264SOL    HW134197   2.496   2.533   5.610  0.4689 -0.6274 -1.4097
10264SOL    HW234198   2.601   2.631   5.658 -0.6721 -0.3926  0.6634
10265SOL     OW34199   9.373   6.066   6.064  0.3351 -0.0049 -0.0268
10265SOL    HW134200   9.409   6.146   6.103  1.8397 -0.4473 -0.4698
10265SOL    HW234201   9.306   6.038   6.125  1.1297  0.5492  1.1231
10266SOL     OW34202   0.677   0.905   0.445 -0.0913  0.2602  0.1537
10266SOL    HW134203   0.656   0.836   0.382  2.2449 -0.0965 -0.2477
10266SOL    HW234204   0.596   0.957   0.451 -0.8454 -0.6208 -1.9228
10267SOL     OW34205   1.502   5.730  10.592 -0.3616 -0.6577  0.3256
10267SOL    HW134206   1.408   5.743  10.576 -0.6463 -1.0521  1.6085
10267SOL    HW234207   1.544   5.805  10.551 -1.3456  0.2315  0.9315
10268SOL     OW34208   4.343   5.156  10.621 -0.1847 -0.2700 -0.1054
10268SOL    HW134209   4.307   5.123  10.539  0.1805 -1.4175  0.1981
10268SOL    HW234210   4.283   5.227  10.646 -0.3632  0.0067 -1.2894
10269SOL     OW34211   5.712   8.902   6.905 -0.1274 -0.3191  0.1103
10269SOL    HW134212   5.686   8.834   6.968 -0.4411  0.4472  0.8229
10269SOL    HW234213   5.687   8.984   6.947  1.5254  0.3326 -0.1196
10270SOL     OW34214   9.957   5.582   6.423 -0.4740  0.3768 -0.4286
10270SOL    HW134215   9.876   5.601   6.374 -1.0959 -1.7020 -0.2528
10270SOL    HW234216   9.967   5.657   6.482 -0.9748  1.7976 -2.0977
10271SOL     OW34217  10.911  10.275   5.693 -0.0415  0.1169  0.6021
10271SOL    HW134218  10.878  10.343   5.752  0.3965 -0.3692  1.4129
10271SOL    HW234219  10.834  10.220   5.675 -0.0116 -0.1656  1.3171
10272SOL     OW34220   9.234   6.812   4.633 -0.4656 -0.4558 -0.2542
10272SOL    HW134221   9.177   6.790   4.560 -0.4547  0.9788 -0.6928
10272SOL    HW234222   9.176   6.822   4.708 -0.6444 -0.3208 -0.4121
10273SOL     OW34223   8.956   9.410   3.803  0.3797 -0.0161 -0.3948
10273SOL    HW134224   8.896   9.485   3.808  1.2138  0.6842 -0.7697
10273SOL    HW234225   9.043   9.449   3.805  0.8106 -0.9003 -1.7606
10274SOL     OW34226   2.331   0.069   6.921  0.4135 -0.1239  0.6686
10274SOL    HW134227   2.362  -0.007   6.873 -0.0844  0.6279 -0.8620
10274SOL    HW234228   2.267   0.034   6.983  0.6535 -1.0149  0.4183
10275SOL     OW34229   4.656   0.668   1.153 -0.4378 -0.0749  0.1804
10275SOL    HW134230   4.605   0.699   1.079 -0.8587  3.0550  1.7055
10275SOL    HW234231   4.591   0.636   1.216 -0.4250  1.4974  1.0352
10276SOL     OW34232   0.885   9.975   5.582  0.2007  0.0768  0.3618
10276SOL    HW134233   0.806   9.921   5.573  0.1580  0.2834 -0.5681
10276SOL    HW234234   0.856  10.052   5.631 -0.8888  1.5577 -2.5081
10277SOL     OW34235   2.695   2.383   9.597  0.2420  0.0127  0.3382
10277SOL    HW134236   2.786   2.354   9.609  0.7086  1.4317  0.2875
10277SOL    HW234237   2.662   2.397   9.685 -0.2988 -1.5777  0.4076
10278SOL     OW34238   1.879   5.425  10.630  0.1424  0.4032  0.2392
10278SOL    HW134239   1.797   5.412  10.679 -0.0720  0.8759  0.0098
10278SOL    HW234240   1.893   5.342  10.585 -0.9237  0.7699 -0.7830
10279SOL     OW34241   1.109   4.670   1.431 -0.1539 -0.0044  0.3033
10279SOL    HW134242   1.146   4.629   1.353  1.1659  0.3186  0.7463
10279SOL    HW234243   1.179   4.728   1.463 -0.7547  0.0123  1.6079
10280SOL     OW34244   7.274   2.800   3.261  0.5569  0.4576 -0.6919
10280SOL    HW134245   7.180   2.782   3.259  0.7314 -0.6250  0.3105
10280SOL    HW234246   7.287   2.848   3.343  0.7840  1.1772 -1.1473
10281SOL     OW34247   1.329   8.686   2.317 -0.4843 -0.3287 -0.3083
10281SOL    HW134248   1.333   8.591   2.327 -0.3603 -0.2328  0.6407
10281SOL    HW234249   1.411   8.717   2.357 -0.7639  0.2055 -0.1512
10282SOL     OW34250   5.913   6.791   3.414 -0.0168 -0.0227  0.4155
10282SOL    HW134251   5.955   6.714   3.375  0.7233 -0.3596  1.8231
10282SOL    HW234252   5.819   6.773   3.408  0.0715  0.1623 -1.6308
10283SOL     OW34253   3.619   9.616  10.055  0.7744  0.9968 -0.2182
10283SOL    HW134254   3.631   9.596   9.962 -0.5629  1.4618 -0.4931
10283SOL    HW234255   3.631   9.532  10.099  0.7193  0.6403 -0.8724
10284SOL     OW34256   7.448   6.481   8.143  0.3882 -0.1930  0.0658
10284SOL    HW134257   7.410   6.530   8.216  0.2810 -0.3014  0.0826
10284SOL    HW234258   7.491   6.548   8.090 -1.2558  0.1819 -0.8585
10285SOL     OW34259  10.598   2.526   9.977  0.1803 -0.1464  0.1111
10285SOL    HW134260  10.612   2.450   9.921 -0.8058 -0.4196  0.2236
10285SOL    HW234261  10.683   2.569   9.981  1.1608 -2.1263  1.3753
10286SOL     OW34262   1.468   9.655   1.656 -0.0556  0.2288 -0.3680
10286SOL    HW134263   1.482   9.699   1.739 -2.3038 -1.2527  0.8342
10286SOL    HW234264   1.491   9.721   1.590  0.9604  1.6737  1.3803
10287SOL     OW34265   8.707   1.015   8.218 -0.3941 -0.0074  0.1906
10287SOL    HW134266   8.692   1.065   8.298 -1.4927 -0.0139 -0.0118
10287SOL    HW234267   8.671   0.928   8.235 -2.8456  0.7079 -1.1513
10288SOL     OW34268   6.293   6.586   0.894  0.2276  0.2904 -0.3429
10288SOL    HW134269   6.361   6.612   0.956  0.6170  2.7762 -1.7867
10288SOL    HW234270   6.335   6.592   0.808 -1.3126  0.1878 -1.1112
10289SOL     OW34271   3.968   4.896   2.791  0.5906 -0.4298  0.1017
10289SOL    HW134272   3.976   4.857   2.878 -0.4087 -0.8363  0.0122
10289SOL    HW234273   4.057   4.897   2.756  0.6346 -2.4938  0.1491
10290SOL     OW34274  10.570   0.911   5.695 -0.4261 -0.4477  0.0486
10290SOL    HW134275  10.581   0.997   5.735 -0.5173 -0.3768 -0.0776
10290SOL    HW234276  10.483   0.882   5.725  0.1728 -1.0832  1.1893
10291SOL     OW34277   6.953   8.012   5.583  0.0084 -0.4712 -0.2894
10291SOL    HW134278   7.006   7.937   5.556 -1.8115 -2.2910  0.9214
10291SOL    HW234279   6.974   8.023   5.676 -1.1104 -0.7128  0.0041
10292SOL     OW34280   4.529   5.337   4.740 -0.2619  0.0589  0.0739
10292SOL    HW134281   4.471   5.282   4.792  1.1681  0.2337  1.9494
10292SOL    HW234282   4.584   5.276   4.692 -0.5716 -0.1274 -0.0416
10293SOL     OW34283   8.492   0.210   6.260  0.2013  0.4180 -0.0993
10293SOL    HW134284   8.550   0.191   6.334 -0.0436  0.8596  0.2158
10293SOL    HW234285   8.407   0.230   6.302 -0.0437  0.2657 -0.5234
10294SOL     OW34286   5.743  10.168   5.745 -0.4224 -0.1082  0.2284
10294SOL    HW134287   5.670  10.211   5.789  0.4510  1.3367  0.3094
10294SOL    HW234288   5.782  10.236   5.690  2.6012 -0.0009  2.3660
10295SOL     OW34289   2.028   6.178   1.921 -0.4208 -0.1554  0.4867
10295SOL    HW134290   2.116   6.185   1.958 -0.2584 -1.5759  0.3870
10295SOL    HW234291   1.977   6.243   1.969  0.6048  0.4432  0.7818
10296SOL     OW34292   6.049   7.709   9.384 -0.4429 -0.1685  0.2892
10296SOL    HW134293   5.994   7.786   9.399 -1.1793 -0.6094 -0.1709
10296SOL    HW234294   6.072   7.713   9.291  0.9911  0.4638  0.6519
10297SOL     OW34295   4.876   2.491   4.016  0.5277  0.3049 -0.7168
10297SOL    HW134296   4.953   2.526   4.060  1.1650 -0.7926 -0.9282
10297SOL    HW234297   4.803   2.517   4.071  1.2149 -0.0977  0.4059
10298SOL     OW34298   3.003   0.335   3.203 -0.3353 -0.0473  0.3905
10298SOL    HW134299   2.926   0.279   3.196 -0.3781  0.0858 -0.1832
10298SOL    HW234300   3.027   0.355   3.113 -0.2995  0.8369  0.5887
10299SOL     OW34301   6.545   7.851  10.094  0.3435 -0.3845 -0.1117
10299SOL    HW134302   6.460   7.886  10.120  1.7588 -0.1022  4.5630
10299SOL    HW234303   6.599   7.928  10.078  1.0921 -0.4722  1.8899
10300SOL     OW34304  10.259   7.249   5.146 -0.3749  0.2136 -0.2338
10300SOL    HW134305  10.309   7.174   5.114 -0.7151  0.4864 -1.4351
10300SOL    HW234306  10.169   7.218   5.150 -0.3972  0.3159  0.0283
10301SOL     OW34307   8.843   3.463  10.563  0.1037 -0.1007  0.0289
10301SOL    HW134308   8.810   3.476  10.474 -0.0394  0.2753  0.1363
10301SOL    HW234309   8.815   3.374  10.586  1.6311 -0.8650 -0.9459
10302SOL     OW34310   4.302   2.560   0.158  0.3640 -1.0423 -0.0377
10302SOL    HW134311   4.241   2.596   0.222  2.0173 -0.5067  1.2541
10302SOL    HW234312   4.356   2.498   0.207 -0.8513 -3.5214 -1.7337
10303SOL     OW34313   1.803   7.501   1.170 -0.2102  0.2707 -0.2576
10303SOL    HW134314   1.782   7.528   1.081 -1.3428  1.5907  0.3905
10303SOL    HW234315   1.795   7.581   1.222 -0.1837 -0.6119  1.1335
10304SOL     OW34316   0.820   3.228   4.825 -0.3850 -0.1609  0.4975
10304SOL    HW134317   0.789   3.139   4.844 -0.7378 -0.0921  0.2415
10304SOL    HW234318   0.873   3.251   4.902 -0.8595 -0.3269  0.8771
10305SOL     OW34319   6.140   9.921   3.853 -0.3455  0.7380  0.3662
10305SOL    HW134320   6.207   9.938   3.787 -0.1853 -0.4500  0.2150
10305SOL    HW234321   6.154   9.989   3.919 -1.5168  2.9470 -1.5534
10306SOL     OW34322   9.742   4.286   6.810 -0.2164 -0.1952 -0.4298
10306SOL    HW134323   9.730   4.378   6.790  1.9508  0.0834 -0.5807
10306SOL    HW234324   9.766   4.246   6.726 -0.8400 -0.8405 -0.3052
10307SOL     OW34325  10.046   5.719   2.962  0.1222 -0.0885  0.0731
10307SOL    HW134326  10.045   5.690   2.871 -0.5173 -0.8713  0.3268
10307SOL    HW234327   9.968   5.775   2.969  1.0330  1.2542 -0.2627
10308SOL     OW34328   1.928   7.216   6.248 -0.0661 -0.1311  0.0620
10308SOL    HW134329   1.962   7.141   6.297 -0.4249  0.3332  1.0264
10308SOL    HW234330   1.952   7.198   6.157  1.4116 -0.5558  0.5232
10309SOL     OW34331   7.220   9.858   5.154  0.0472  0.3982  0.4282
10309SOL    HW134332   7.179   9.913   5.088  0.9985  1.0011  0.3298
10309SOL    HW234333   7.163   9.782   5.161  0.1689  0.1296 -1.3887
10310SOL     OW34334   1.777   0.170   4.917 -0.0960 -0.3359 -0.4253
10310SOL    HW134335   1.687   0.198   4.932 -0.2113 -0.7861 -0.2929
10310SOL    HW234336   1.772   0.108   4.845  0.3216  0.9541 -1.5870
10311SOL     OW34337   6.296  10.523   0.883 -0.6264 -0.3716  0.3157
10311SOL    HW134338   6.209  10.549   0.851 -0.2373  1.4044  0.6266
10311SOL    HW234339   6.304  10.566   0.968  0.4356 -0.7574  0.4161
10312SOL     OW34340   5.783   2.823   8.590 -0.1642 -0.0842 -0.5284
10312SOL    HW134341   5.693   2.836   8.558  0.2557  1.3317 -1.1825
10312SOL    HW234342   5.837   2.829   8.511  0.6377  0.6262  0.0699
10313SOL     OW34343   5.870  10.830   3.328  0.3720  0.0648 -0.0726
10313SOL    HW134344   5.892  10.747   3.286  2.8462 -0.1150  1.4860
10313SOL    HW234345   5.924  10.895   3.283 -0.5364  0.6227 -0.3710
10314SOL     OW34346   1.243   5.999   0.826 -0.0359  0.2045 -0.4266
10314SOL    HW134347   1.274   5.960   0.745 -1.1698  2.3619 -1.9452
10314SOL    HW234348   1.188   5.931   0.866  1.9019 -1.4911 -0.5690
10315SOL     OW34349   5.187   6.428   4.512 -0.0081  0.2320 -0.0785
10315SOL    HW134350   5.141   6.344   4.516 -1.8209  1.2141  0.4513
10315SOL    HW234351   5.280   6.406   4.521 -0.5356 -1.6253  0.9484
10316SOL     OW34352  10.594   2.084   5.600  0.6592  0.5456  0.6750
10316SOL    HW134353  10.500   2.087   5.582  0.8039 -0.4490 -0.2620
10316SOL    HW234354  10.600   2.053   5.690  0.0991  0.3602  0.6494
10317SOL     OW34355   6.840   5.792   7.719 -0.1071 -0.1482  0.0619
10317SOL    HW134356   6.858   5.775   7.626  1.7538 -0.2918  0.4389
10317SOL    HW234357   6.830   5.705   7.757  0.2838 -0.1262  0.2157
10318SOL     OW34358   6.566   4.420   6.155 -0.1355  0.4185 -0.1558
10318SOL    HW134359   6.617   4.423   6.075  0.2621 -0.0958  0.0692
10318SOL    HW234360   6.495   4.358   6.136 -0.4516  0.8375 -0.3422
10319SOL     OW34361   0.382   6.169   2.438 -0.2369  0.5349  0.1890
10319SOL    HW134362   0.357   6.206   2.523 -0.3433  0.4095  0.2104
10319SOL    HW234363   0.328   6.092   2.428 -0.3471  0.6490 -0.0749
10320SOL     OW34364   9.889   7.278   5.487 -0.6200 -0.8353 -0.2823
10320SOL    HW134365   9.862   7.187   5.493  1.1800 -1.4373 -1.0194
10320SOL    HW234366   9.836   7.313   5.415 -0.8917 -1.4405 -0.3835
10321SOL     OW34367  10.726   2.054   8.658 -0.1442  0.3136 -0.2393
10321SOL    HW134368  10.793   2.060   8.591 -0.4443 -0.2547 -0.5964
10321SOL    HW234369  10.692   1.965   8.649 -1.4858  0.8533 -0.5759
10322SOL     OW34370   5.078   5.584   6.227 -0.4036 -0.1664 -0.0229
10322SOL    HW134371   5.067   5.669   6.185 -3.5773 -0.3820  0.2280
10322SOL    HW234372   5.087   5.604   6.320 -1.0130 -0.0852  0.0205
10323SOL     OW34373   7.607   9.098   7.019  0.0103  0.4473 -0.0274
10323SOL    HW134374   7.700   9.083   7.033 -0.2599 -0.2757  1.1405
10323SOL    HW234375   7.590   9.063   6.932  1.1029  1.9266 -0.8501
10324SOL     OW34376   4.792   9.417   5.718  0.4132 -0.6718  0.2701
10324SOL    HW134377   4.790   9.375   5.804  1.0674 -1.2920 -0.0099
10324SOL    HW234378   4.794   9.511   5.737  1.3012 -0.8209  0.9594
10325SOL     OW34379   3.291   2.379   9.448 -0.0387  0.5309  0.2469
10325SOL    HW134380   3.327   2.359   9.361  0.9143  0.3704  0.6707
10325SOL    HW234381   3.343   2.326   9.508  0.7400  2.2515  1.1357
10326SOL     OW34382   7.529   3.548   1.471 -0.3094  0.0671  0.5202
10326SOL    HW134383   7.620   3.552   1.501 -0.6941 -1.7254  2.0220
10326SOL    HW234384   7.496   3.637   1.483  1.0586  0.5784  0.5804
10327SOL     OW34385   7.789   0.027   0.924  0.3943 -0.2145  0.3278
10327SOL    HW134386   7.729   0.095   0.893  1.0574  0.6139  0.8378
10327SOL    HW234387   7.741  -0.018   0.994 -0.1985 -0.5477 -0.2852
10328SOL     OW34388   1.801   9.646   1.482 -0.3788  0.0701 -1.0087
10328SOL    HW134389   1.728   9.647   1.420 -1.2752 -1.8830 -0.0517
10328SOL    HW234390   1.878   9.668   1.430 -1.8490  3.7862 -1.7229
10329SOL     OW34391   9.385   0.149   2.137  0.0557 -0.4742 -0.4009
10329SOL    HW134392   9.382   0.152   2.042  1.6566 -0.8050 -0.4725
10329SOL    HW234393   9.371   0.240   2.165 -1.1129 -0.4911 -0.9155
10330SOL     OW34394   0.516   5.281   4.896  0.1140  0.3066  0.0620
10330SOL    HW134395   0.461   5.334   4.953  1.7268 -0.3580  2.3412
10330SOL    HW234396   0.546   5.341   4.828 -1.4394  1.2575  0.1930
10331SOL     OW34397   4.566   2.510  10.366 -0.3615  0.1696  0.3440
10331SOL    HW134398   4.488   2.533  10.316 -0.0234 -0.6864 -0.5945
10331SOL    HW234399   4.551   2.420  10.396  0.6117 -0.3076 -0.5614
10332SOL     OW34400   6.700   1.071   2.086  0.4656 -0.3991  0.3198
10332SOL    HW134401   6.629   1.040   2.030  1.2355  0.2369 -1.0360
10332SOL    HW234402   6.779   1.031   2.048  0.8325 -1.1448  1.8332
10333SOL     OW34403   9.280   1.875   1.654 -0.0973 -0.3457 -0.3249
10333SOL    HW134404   9.300   1.837   1.740  0.3458 -1.6055 -0.9666
10333SOL    HW234405   9.252   1.964   1.673 -0.6704 -0.8287  1.1897
10334SOL     OW34406  10.399   1.243   4.278 -0.2822  0.1062 -0.1552
10334SOL    HW134407  10.308   1.269   4.260 -0.8420 -0.6671  1.4499
10334SOL    HW234408  10.408   1.255   4.372  1.5954  1.1042 -0.4450
10335SOL     OW34409   2.227   4.936   8.061 -0.1674  0.3625 -0.4421
10335SOL    HW134410   2.160   4.887   8.108  0.7643 -2.0422 -1.5643
10335SOL    HW234411   2.178   5.002   8.011 -1.4876  0.1870  0.5952
10336SOL     OW34412   7.748   8.008   3.074  0.3764  0.1220  0.3511
10336SOL    HW134413   7.834   8.036   3.045  0.3349  0.4309  0.5204
10336SOL    HW234414   7.761   7.979   3.165  0.1331  1.0186  0.6750
10337SOL     OW34415   7.039   4.523  10.384 -0.2735  0.0682 -0.2737
10337SOL    HW134416   7.018   4.466  10.458 -1.6916  0.0205 -0.7048
10337SOL    HW234417   6.990   4.603  10.401  0.9319  0.7936 -0.1766
10338SOL     OW34418   3.240   6.718   1.082 -0.0027  0.2999  0.4500
10338SOL    HW134419   3.215   6.628   1.060 -1.6070  0.3097  2.0936
10338SOL    HW234420   3.335   6.721   1.070 -0.2551 -0.8786 -2.1167
10339SOL     OW34421   8.140   1.961   8.529 -0.4735  0.0654  0.1765
10339SOL    HW134422   8.211   1.960   8.593 -0.3879 -0.5192  0.0759
10339SOL    HW234423   8.149   1.878   8.481 -1.5261 -0.2479  0.4954
10340SOL     OW34424   2.339   3.526   9.614  1.0321 -0.7091  0.0767
10340SOL    HW134425   2.403   3.561   9.676  0.5189  2.1030 -0.9063
10340SOL    HW234426   2.265   3.498   9.669  1.1075  0.5664  0.8451
10341SOL     OW34427   4.880   1.326   5.405 -0.4485  0.0923  0.1219
10341SOL    HW134428   4.864   1.366   5.491  0.6320  0.0226  0.3617
10341SOL    HW234429   4.793   1.306   5.371 -0.8010 -2.4621  2.4062
10342SOL     OW34430   1.047   4.881   7.984  0.6034  0.7491 -0.1351
10342SOL    HW134431   0.989   4.832   7.925  0.7009  1.6316 -0.9824
10342SOL    HW234432   1.130   4.885   7.937  0.9212  0.7321  0.4316
10343SOL     OW34433  10.554   7.966   9.547 -0.1287 -0.3102  0.2988
10343SOL    HW134434  10.609   7.999   9.618 -2.0772 -0.2688  1.8495
10343SOL    HW234435  10.612   7.962   9.471  1.4788  1.5827  1.3898
10344SOL     OW34436  10.825  10.112   5.090  0.2482  0.2164  0.2886
10344SOL    HW134437  10.916  10.096   5.063 -0.5130 -1.8013 -1.2109
10344SOL    HW234438  10.833  10.169   5.166  2.7084  1.3673 -0.7743
10345SOL     OW34439   4.838   8.127   1.789  0.1736  0.1753 -0.0470
10345SOL    HW134440   4.831   8.168   1.703 -0.4381 -0.4440 -0.3036
10345SOL    HW234441   4.818   8.197   1.851 -0.1355  0.4404 -0.4432
10346SOL     OW34442   1.959   3.627   1.700 -0.2694 -0.2415  0.1820
10346SOL    HW134443   1.907   3.642   1.621 -1.1080 -2.8927  0.1866
10346SOL    HW234444   2.049   3.625   1.668 -0.2726  2.1572 -0.1431
10347SOL     OW34445   1.743   1.819  10.818 -0.1726  0.6012 -0.2798
10347SOL    HW134446   1.663   1.833  10.868  0.7836  1.6243  0.9895
10347SOL    HW234447   1.770   1.730  10.841 -1.1036  0.1248 -0.9753
10348SOL     OW34448   9.463   0.734   7.315 -0.3479 -0.0474 -0.1827
10348SOL    HW134449   9.547   0.778   7.321 -0.6965  0.8427 -1.6648
10348SOL    HW234450   9.405   0.798   7.272 -1.4919 -1.0254 -0.1180
10349SOL     OW34451   4.273   6.820   6.584  0.0576  0.1600  0.1084
10349SOL    HW134452   4.182   6.802   6.607  0.6638  0.2086  2.7031
10349SOL    HW234453   4.299   6.748   6.527 -1.4124 -0.1636 -0.1655
10350SOL     OW34454   9.827   3.082   4.834 -0.8875 -0.0967  0.0247
10350SOL    HW134455   9.918   3.053   4.822 -1.2025 -0.3565 -1.9003
10350SOL    HW234456   9.825   3.116   4.924  0.9176 -0.7816  0.3588
10351SOL     OW34457   1.698   8.561   9.873 -0.0238 -0.7572 -0.3783
10351SOL    HW134458   1.719   8.474   9.840  1.6655 -0.8626  0.8890
10351SOL    HW234459   1.729   8.560   9.964  0.5031  1.3274 -0.5170
10352SOL     OW34460   2.775   5.083   1.892 -0.6791  0.1425  0.3556
10352SOL    HW134461   2.821   5.003   1.919  1.0870  1.2442  0.7356
10352SOL    HW234462   2.691   5.053   1.860  0.5846 -2.0602 -1.0357
10353SOL     OW34463  10.179   3.713   6.578  0.4906  0.1568 -0.8152
10353SOL    HW134464  10.095   3.710   6.533 -0.3710  2.6822  0.5188
10353SOL    HW234465  10.168   3.780   6.646  3.5349  0.4954 -0.5716
10354SOL     OW34466   2.943   8.783   7.566  0.1862 -0.6251 -0.6146
10354SOL    HW134467   2.871   8.838   7.598  0.2923 -1.2774  0.8191
10354SOL    HW234468   3.019   8.841   7.566 -0.3375  0.0782 -2.1770
10355SOL     OW34469   6.516   8.242   0.588 -0.2372  0.5419 -0.4973
10355SOL    HW134470   6.520   8.288   0.504 -2.6260  0.6054 -0.6223
10355SOL    HW234471   6.541   8.308   0.653 -0.5951  1.1438 -0.9597
10356SOL     OW34472   7.967   6.129   5.282 -0.1550 -0.1602 -0.4626
10356SOL    HW134473   8.058   6.153   5.300  0.0401 -1.3547  0.1583
10356SOL    HW234474   7.918   6.171   5.353 -0.1065  0.5570 -0.8458
10357SOL     OW34475  10.085   0.339  10.978  0.3309  0.6670 -0.3871
10357SOL    HW134476  10.024   0.369  10.911  0.8144  2.6619  0.0273
10357SOL    HW234477  10.030   0.292  11.041 -0.4533  0.6720 -1.0655
10358SOL     OW34478   9.832   0.094   3.013 -0.0276 -0.0028 -0.1206
10358SOL    HW134479   9.877   0.086   3.097  0.4336  0.4785 -0.3193
10358SOL    HW234480   9.897   0.134   2.955 -0.4824  0.0489 -0.5959
10359SOL     OW34481   8.391   0.853   3.189  0.2527 -0.5493  0.0440
10359SOL    HW134482   8.311   0.800   3.189  0.9345 -1.5899  1.1699
10359SOL    HW234483   8.437   0.828   3.269  0.6192  1.7153  0.5852
10360SOL     OW34484   7.041   5.069   3.864 -0.7633 -0.1236 -0.3793
10360SOL    HW134485   6.992   5.083   3.945 -0.1721 -0.5329  0.0586
10360SOL    HW234486   6.978   5.027   3.805 -0.9574 -0.6151  0.1653
10361SOL     OW34487   2.696   1.367   9.801 -0.4354 -0.8411 -0.1487
10361SOL    HW134488   2.758   1.440   9.804 -0.1804 -1.0317 -0.7194
10361SOL    HW234489   2.750   1.289   9.811 -0.5946 -1.0012 -0.5216
10362SOL     OW34490  10.251  10.432   4.088 -0.2262 -0.0561  0.1474
10362SOL    HW134491  10.217  10.342   4.083 -3.5972  1.1225  0.8902
10362SOL    HW234492  10.243  10.465   3.999 -0.6308  0.0879  0.2380
10363SOL     OW34493   1.404   1.607   1.091  0.0838 -0.5530 -0.0493
10363SOL    HW134494   1.480   1.664   1.086  0.1604 -0.6465  0.0631
10363SOL    HW234495   1.373   1.615   1.181  0.1411 -0.7477 -0.0119
10364SOL     OW34496   0.518   5.760  10.179  0.8636  0.3259  0.3946
10364SOL    HW134497   0.540   5.667  10.191  2.0099  0.2188 -2.1718
10364SOL    HW234498   0.503   5.793  10.268  1.0848 -2.1536  1.4000
10365SOL     OW34499   9.885   8.622   7.245 -0.0432  0.1921  0.5905
10365SOL    HW134500   9.952   8.643   7.181 -1.9511  2.0339 -0.8421
10365SOL    HW234501   9.864   8.529   7.229  0.3223  0.3253 -0.6716
10366SOL     OW34502  10.706   1.327   2.913 -0.3722  0.2510  0.1341
10366SOL    HW134503  10.785   1.291   2.873  0.7472 -0.2230  2.6915
10366SOL    HW234504  10.644   1.334   2.840  1.2909 -1.4130 -1.5088
10367SOL     OW34505   7.123   9.668   8.639  0.1953 -0.3355 -0.1370
10367SOL    HW134506   7.073   9.638   8.564  0.6899  1.3893 -1.1890
10367SOL    HW234507   7.179   9.594   8.662 -1.3599 -1.5609 -0.2153
10368SOL     OW34508   2.855   2.333   6.399 -0.4563 -0.3552 -0.3814
10368SOL    HW134509   2.932   2.389   6.389  1.8393 -3.1317  0.9861
10368SOL    HW234510   2.862   2.300   6.489 -3.8455  0.1529  0.1102
10369SOL     OW34511   6.875   2.468   9.295 -0.2340  0.1466 -0.3334
10369SOL    HW134512   6.794   2.516   9.314 -0.3003 -1.0786  2.6947
10369SOL    HW234513   6.945   2.529   9.318 -0.3208 -0.6752  2.2203
10370SOL     OW34514  10.433   2.023   5.135  0.1788  0.3495  0.4865
10370SOL    HW134515  10.504   1.998   5.076  0.2184  1.2377  0.1461
10370SOL    HW234516  10.400   1.940   5.170  0.4542 -0.1561 -0.4393
10371SOL     OW34517   9.423   1.405   3.952  0.7078 -0.2784 -0.5032
10371SOL    HW134518   9.510   1.441   3.967  1.3696 -1.7123 -0.8852
10371SOL    HW234519   9.411   1.339   4.020  1.2912 -2.4852 -2.4722
10372SOL     OW34520   5.556   9.416   7.272  0.1061  0.0579 -0.5339
10372SOL    HW134521   5.467   9.394   7.246 -0.1819  1.0206 -0.3952
10372SOL    HW234522   5.603   9.428   7.189 -0.2791  1.0334 -0.6227
10373SOL     OW34523   8.534   7.672   7.682  0.2039 -1.0436 -0.2482
10373SOL    HW134524   8.459   7.630   7.641 -0.1993  0.1686 -0.7785
10373SOL    HW234525   8.508   7.686   7.773  0.8212 -3.0673  0.2729
10374SOL     OW34526   8.680  10.110   8.891 -0.8331 -0.2160 -0.2052
10374SOL    HW134527   8.653  10.099   8.982  0.3285 -0.1284  0.1688
10374SOL    HW234528   8.733  10.190   8.891 -1.6921  0.3617 -1.1639
10375SOL     OW34529   5.084   4.068   2.706 -0.1659 -0.4326 -0.0835
10375SOL    HW134530   5.171   4.045   2.737 -0.2740 -1.7271 -0.6982
10375SOL    HW234531   5.056   3.992   2.654 -0.6880  0.9477 -1.8833
10376SOL     OW34532   3.542   2.282   6.968  0.3357 -0.1478  0.0120
10376SOL    HW134533   3.510   2.351   6.910  0.3264 -0.9089 -0.8989
10376SOL    HW234534   3.463   2.244   7.006  0.1794 -1.3246 -1.4279
10377SOL     OW34535   8.792   6.383   8.427 -0.2483  0.1093  0.3181
10377SOL    HW134536   8.874   6.421   8.458  0.8630 -2.8213  1.1761
10377SOL    HW234537   8.791   6.399   8.333  2.0222 -1.0525  0.0711
10378SOL     OW34538   3.399   3.982   4.375 -0.4719 -0.1582  0.2534
10378SOL    HW134539   3.463   3.912   4.360 -0.2134  0.2683 -0.6844
10378SOL    HW234540   3.317   3.949   4.338 -0.0827  0.4683 -1.2376
10379SOL     OW34541   0.354  10.381   5.753 -0.1206 -0.5200 -0.4562
10379SOL    HW134542   0.383  10.290   5.746  2.8831  0.2318  1.3072
10379SOL    HW234543   0.353  10.413   5.662  1.0089 -1.6768 -0.8828
10380SOL     OW34544   0.526   4.661   1.636 -0.1673  0.3539  0.1921
10380SOL    HW134545   0.584   4.694   1.705 -0.7756 -0.5986  1.1639
10380SOL    HW234546   0.445   4.639   1.681 -0.4144 -0.7073 -0.7506
10381SOL     OW34547   6.857   1.559   9.000  0.2272  0.1204  0.2939
10381SOL    HW134548   6.881   1.650   9.017 -2.4990  0.8603  0.4684
10381SOL    HW234549   6.766   1.564   8.969  0.2307 -2.4945 -0.2378
10382SOL     OW34550  10.288   3.337   0.400  0.1145  0.4325  0.5659
10382SOL    HW134551  10.262   3.267   0.459 -4.5977 -0.5491 -2.4152
10382SOL    HW234552  10.373   3.309   0.366  1.3653 -0.5632  4.2339
10383SOL     OW34553   8.215   7.071  10.980  0.2422  0.1084  0.0146
10383SOL    HW134554   8.252   6.999  11.030  0.5941 -0.1870 -0.6610
10383SOL    HW234555   8.264   7.148  11.008 -0.9202  0.2966  1.5977
10384SOL     OW34556   8.208   3.870  10.724  0.5409 -0.1094 -0.4261
10384SOL    HW134557   8.273   3.938  10.705  1.4234 -1.0173 -0.6777
10384SOL    HW234558   8.170   3.848  10.639 -1.3318  1.6067 -0.0965
10385SOL     OW34559   2.130  10.398   9.673 -0.1037 -0.6673 -0.5735
10385SOL    HW134560   2.214  10.412   9.717 -0.9118  1.8690  0.2321
10385SOL    HW234561   2.065  10.440   9.730 -1.5841 -0.3481 -2.4443
10386SOL     OW34562   3.253   8.116   2.454 -0.3623 -0.0519  0.4480
10386SOL    HW134563   3.253   8.153   2.365  0.3969 -0.7570  0.1439
10386SOL    HW234564   3.308   8.038   2.447 -0.2913 -0.1074  1.5455
10387SOL     OW34565   7.340   6.847   6.333  0.1730  0.2473 -0.4636
10387SOL    HW134566   7.333   6.942   6.331  1.1476  0.3053 -1.6590
10387SOL    HW234567   7.276   6.817   6.268 -0.2570  0.0670  0.0342
10388SOL     OW34568   6.406   3.391   1.241 -0.3780 -0.5382  0.1406
10388SOL    HW134569   6.421   3.333   1.315  1.9978 -1.3498 -0.9390
10388SOL    HW234570   6.426   3.338   1.164  1.9859  1.7129 -0.8705
10389SOL     OW34571   1.005   3.178  10.579  0.1307  0.0266 -0.2432
10389SOL    HW134572   0.959   3.098  10.605  0.4994  0.1679  0.8549
10389SOL    HW234573   0.935   3.240  10.560 -0.1450 -0.0360  0.5587
10390SOL     OW34574   1.682   6.548   7.470  0.1292  0.0766 -0.0850
10390SOL    HW134575   1.609   6.531   7.529  0.2565 -0.3708 -0.0542
10390SOL    HW234576   1.660   6.501   7.389  0.3022  0.0783 -0.1333
10391SOL     OW34577   7.422   8.382   8.094 -0.2185 -0.3859  0.0165
10391SOL    HW134578   7.441   8.430   8.013 -1.0734  0.4662  0.3145
10391SOL    HW234579   7.455   8.438   8.164 -0.9300 -0.3659  0.3484
10392SOL     OW34580   2.169   1.137   4.482 -0.0002  0.2705 -0.4348
10392SOL    HW134581   2.136   1.062   4.532  0.7108 -0.9488 -1.7667
10392SOL    HW234582   2.260   1.114   4.462  1.0997  2.7087  1.4537
10393SOL     OW34583   4.934   5.562   5.747  0.0359  0.0317 -0.0849
10393SOL    HW134584   4.970   5.532   5.830  2.2056  1.1108 -0.5923
10393SOL    HW234585   4.954   5.493   5.685 -0.1053 -0.0271 -0.0655
10394SOL     OW34586   2.262   8.428   3.065  0.4693  0.1936  0.1697
10394SOL    HW134587   2.345   8.381   3.070 -0.1937 -0.9764  0.2297
10394SOL    HW234588   2.285   8.512   3.025  2.0797  0.8755  2.4281
10395SOL     OW34589   1.309   8.495   5.804 -0.3946  0.3095  0.2740
10395SOL    HW134590   1.220   8.472   5.830 -0.8098 -0.2173 -1.5955
10395SOL    HW234591   1.311   8.591   5.810 -0.4435  0.2025  2.3179
10396SOL     OW34592   9.364  10.725   6.428 -0.4500 -0.9027 -0.2583
10396SOL    HW134593   9.325  10.791   6.485  1.2395  1.0216 -1.2508
10396SOL    HW234594   9.445  10.699   6.472  0.6856  0.3354 -1.5774
10397SOL     OW34595  10.396   7.811   8.461  0.3663 -0.1956  0.0230
10397SOL    HW134596  10.366   7.763   8.538  1.0696 -0.9545 -0.1595
10397SOL    HW234597  10.332   7.789   8.393  0.9997 -1.3770 -0.2175
10398SOL     OW34598   8.055   7.697   2.304 -0.8401 -0.1305  0.1845
10398SOL    HW134599   8.081   7.617   2.258 -1.3208  0.4270 -1.0762
10398SOL    HW234600   8.060   7.766   2.237 -1.6846  0.6643  0.9270
10399SOL     OW34601   9.879   0.843   5.159 -0.5183  0.1974  0.3507
10399SOL    HW134602   9.797   0.894   5.160  0.6497  2.1365 -0.1802
10399SOL    HW234603   9.854   0.758   5.124 -2.4017  0.6078  0.6398
10400SOL     OW34604   0.236   5.396   5.677  0.1425  0.0380  0.5672
10400SOL    HW134605   0.282   5.371   5.757  1.7170  2.8626  0.6032
10400SOL    HW234606   0.257   5.325   5.615  0.6696 -1.0836  1.9927
10401SOL     OW34607   8.178   0.757   0.115 -0.1728 -0.4449 -0.0434
10401SOL    HW134608   8.090   0.727   0.092 -0.2497 -0.7062  0.5915
10401SOL    HW234609   8.174   0.775   0.209  0.5414 -0.7748  0.0527
10402SOL     OW34610   0.746   7.395   1.328 -0.7228  0.1145 -0.2886
10402SOL    HW134611   0.785   7.360   1.248  0.1781  0.6976 -0.0992
10402SOL    HW234612   0.658   7.422   1.301 -0.5765 -0.0854 -0.9813
10403SOL     OW34613   9.016   9.833  10.661 -0.0994  0.0183 -0.2799
10403SOL    HW134614   9.041   9.794  10.577 -0.2764 -0.2050 -0.2336
10403SOL    HW234615   9.063   9.780  10.726  0.0714  0.2187 -0.2422
10404SOL     OW34616   1.417   1.012   1.918 -0.3510  0.0255 -0.3355
10404SOL    HW134617   1.471   1.044   1.990  0.9499 -0.1454 -1.2171
10404SOL    HW234618   1.379   0.930   1.950  1.9424 -1.1668 -0.6111
10405SOL     OW34619   7.673   4.975   1.390 -0.4206 -0.3379 -0.0818
10405SOL    HW134620   7.749   4.944   1.341 -0.5489  0.1985 -0.6208
10405SOL    HW234621   7.697   5.063   1.418 -0.1639 -0.8038  1.2143
10406SOL     OW34622   1.266   9.307   0.099 -0.0124 -0.0875  0.2704
10406SOL    HW134623   1.328   9.373   0.067 -0.0352  0.4792  1.3694
10406SOL    HW234624   1.247   9.253   0.023  0.0589  1.1460 -0.6437
10407SOL     OW34625   6.090  10.053   0.855  0.3102  0.2682 -0.3143
10407SOL    HW134626   6.174  10.100   0.857  1.2870 -1.4832  0.5646
10407SOL    HW234627   6.114   9.961   0.850 -1.5920 -0.2118 -1.2724
10408SOL     OW34628   0.535  10.088   1.122 -0.2823  0.7864  0.2256
10408SOL    HW134629   0.596  10.115   1.053  2.0845 -0.4778  1.7382
10408SOL    HW234630   0.583  10.105   1.203 -1.4761 -1.3944  1.4248
10409SOL     OW34631   2.836   2.165  10.195 -0.0212 -0.4772  0.5607
10409SOL    HW134632   2.890   2.217  10.136 -0.1713  0.7084  1.4619
10409SOL    HW234633   2.898   2.115  10.248  0.1149 -1.4308 -0.4945
10410SOL     OW34634  10.667   2.708   5.216 -0.4383 -0.1909 -0.1081
10410SOL    HW134635  10.652   2.613   5.222 -0.8665 -0.1637 -0.6837
10410SOL    HW234636  10.720   2.719   5.137 -1.2148  0.1360 -0.5915
10411SOL     OW34637   6.594   6.555  10.624  0.4210 -0.1067 -0.4736
10411SOL    HW134638   6.500   6.544  10.613  0.2356  0.9475  0.0674
10411SOL    HW234639   6.625   6.468  10.648 -0.8114  0.1282  2.0595
10412SOL     OW34640   4.286   0.017   9.569 -0.1918 -1.0805  0.5701
10412SOL    HW134641   4.332   0.025   9.653  2.6791  0.5800 -1.0706
10412SOL    HW234642   4.279  -0.077   9.554  1.3913 -1.3795  1.5682
10413SOL     OW34643   6.577   6.647   5.511  0.1031  0.1284  0.4097
10413SOL    HW134644   6.512   6.699   5.560 -0.2093  0.8141 -0.6979
10413SOL    HW234645   6.526   6.605   5.442  0.7830  0.3939 -0.2584
10414SOL     OW34646   0.983   9.587   9.757  0.0254  0.1664  1.0032
10414SOL    HW134647   0.921   9.657   9.778  1.2291  1.7051 -0.4272
10414SOL    HW234648   0.940   9.507   9.788 -2.0655  1.3414  1.2667
10415SOL     OW34649   7.591   0.213   3.515 -0.1083  0.4575  0.4327
10415SOL    HW134650   7.589   0.188   3.607 -0.4348 -1.3764 -0.0563
10415SOL    HW234651   7.501   0.240   3.495 -0.5032 -1.0128  0.1654
10416SOL     OW34652   6.208   2.035   3.440 -0.2978 -0.7517 -0.0082
10416SOL    HW134653   6.246   1.974   3.376  1.3620 -1.0581  1.2223
10416SOL    HW234654   6.275   2.103   3.450 -1.0025 -0.1469  0.6099
10417SOL     OW34655   6.429   6.508   3.320  0.1061 -0.3277 -0.0934
10417SOL    HW134656   6.486   6.459   3.260 -0.8027  0.4174 -1.6051
10417SOL    HW234657   6.340   6.486   3.291 -0.3267  1.2050  0.0056
10418SOL     OW34658   3.674   5.318   3.481  0.5154  0.0529  0.0310
10418SOL    HW134659   3.618   5.242   3.464  0.8510 -0.5113  1.4036
10418SOL    HW234660   3.724   5.329   3.400 -2.1110  1.0538 -1.5351
10419SOL     OW34661   3.172   2.360   3.902  0.8918  0.1456  0.2409
10419SOL    HW134662   3.178   2.341   3.995  0.1421  0.7334  0.4200
10419SOL    HW234663   3.096   2.310   3.872 -0.5304  2.0614  0.5291
10420SOL     OW34664   8.660   4.352   5.840 -0.1093 -0.5653  0.2157
10420SOL    HW134665   8.665   4.412   5.915 -0.1178  0.9794 -0.9937
10420SOL    HW234666   8.745   4.308   5.839  0.9093  1.3367 -0.4040
10421SOL     OW34667   9.576   6.329  10.011  0.0928  0.0602 -0.0130
10421SOL    HW134668   9.610   6.240  10.022 -0.4287 -0.0804  0.5094
10421SOL    HW234669   9.650   6.386  10.029 -0.1042 -0.2295  1.8353
10422SOL     OW34670   0.545   6.565   0.349 -0.7416 -0.4227 -0.0010
10422SOL    HW134671   0.613   6.502   0.325 -0.8761  0.3484 -2.4383
10422SOL    HW234672   0.586   6.620   0.416  0.4424 -1.0507 -0.1981
10423SOL     OW34673   0.202  10.374   3.856 -0.3549  0.2033  0.3920
10423SOL    HW134674   0.151  10.442   3.901 -0.9102  0.0134  0.0623
10423SOL    HW234675   0.153  10.357   3.776  1.2112  1.3143 -0.8074
10424SOL     OW34676   7.324   1.987   2.113 -0.0925 -0.0782 -0.2796
10424SOL    HW134677   7.359   1.921   2.053  0.4824  0.4064 -0.4814
10424SOL    HW234678   7.312   2.064   2.058  1.1028  0.5863  0.3705
10425SOL     OW34679   1.950   6.770   8.875 -0.1404 -0.0769  0.3147
10425SOL    HW134680   1.962   6.838   8.941 -1.2684  0.7790 -0.3527
10425SOL    HW234681   1.855   6.758   8.869 -0.0679  0.1143 -1.4104
10426SOL     OW34682  10.777   5.747   0.728  0.5873  0.4588  0.4263
10426SOL    HW134683  10.785   5.669   0.784  0.8950  0.7477  0.7903
10426SOL    HW234684  10.729   5.716   0.651  2.3272 -0.5496 -0.2858
10427SOL     OW34685   3.484   7.049   1.882  0.1224 -1.0246 -0.1621
10427SOL    HW134686   3.390   7.036   1.896  0.1820  0.0868  1.4195
10427SOL    HW234687   3.524   6.969   1.917 -0.1130 -0.5776  1.1717
10428SOL     OW34688   4.832   7.883  10.366 -0.2305  0.3028  0.3482
10428SOL    HW134689   4.833   7.826  10.443 -1.6465 -1.8347 -1.1788
10428SOL    HW234690   4.924   7.885  10.338 -0.1915 -1.3883  0.3055
10429SOL     OW34691   3.358   4.409   0.385 -0.2164  0.4692 -0.2877
10429SOL    HW134692   3.386   4.415   0.477  3.3440 -2.4782 -1.0841
10429SOL    HW234693   3.397   4.485   0.343  1.6159 -0.3661 -0.1433
10430SOL     OW34694  10.286   2.096   8.841 -0.0012 -0.0730  0.3091
10430SOL    HW134695  10.245   2.179   8.868 -2.2073 -1.1017  0.2130
10430SOL    HW234696  10.379   2.109   8.859 -0.5755  1.6785  2.2435
10431SOL     OW34697   8.158   3.740   5.586  0.1166 -0.1476  0.0316
10431SOL    HW134698   8.207   3.692   5.652 -0.2531 -0.8170 -0.1741
10431SOL    HW234699   8.098   3.675   5.549  0.9258 -0.0025 -1.5650
10432SOL     OW34700   4.329   1.415   5.931 -0.0095 -0.3244 -0.0940
10432SOL    HW134701   4.362   1.498   5.967 -0.5674  0.0523 -0.4436
10432SOL    HW234702   4.305   1.363   6.007  1.5478 -0.6698  0.1789
10433SOL     OW34703   2.204   7.056   0.879 -0.1460 -0.1883 -0.0792
10433SOL    HW134704   2.282   7.111   0.869  1.1869 -1.9776  0.2398
10433SOL    HW234705   2.180   7.065   0.972  1.5633 -2.0303  0.5916
10434SOL     OW34706   9.758   1.395   6.271  0.4527 -0.0721 -0.1006
10434SOL    HW134707   9.718   1.368   6.189  1.7457  0.1793 -0.8367
10434SOL    HW234708   9.795   1.481   6.252  2.5776 -0.8941  0.0971
10435SOL     OW34709   0.323   3.170   6.758 -0.7716  0.1459 -0.8120
10435SOL    HW134710   0.396   3.109   6.746  0.2856  1.4710 -1.3201
10435SOL    HW234711   0.351   3.249   6.711 -1.7267  1.3186  0.5796
10436SOL     OW34712   7.404   4.771   5.880 -0.3927  0.1111 -0.3611
10436SOL    HW134713   7.430   4.682   5.905 -0.1315  0.4714  0.6601
10436SOL    HW234714   7.390   4.766   5.786 -0.2901 -0.9969 -0.3235
10437SOL     OW34715   0.573   6.847   8.354  0.1817 -0.8800 -0.3122
10437SOL    HW134716   0.647   6.883   8.305  0.3990 -1.2623 -0.2663
10437SOL    HW234717   0.507   6.916   8.352  1.5180  0.5036  1.9154
10438SOL     OW34718   6.932   8.361   1.997 -0.2719 -0.5474  0.0919
10438SOL    HW134719   6.916   8.416   2.073 -1.4372 -0.0509 -0.5085
10438SOL    HW234720   7.024   8.378   1.974 -0.6715  1.2912 -0.2099
10439SOL     OW34721   2.079   7.953   6.463 -0.0303 -0.7566 -0.0419
10439SOL    HW134722   2.155   7.907   6.497 -0.5412 -0.8111  1.0543
10439SOL    HW234723   2.115   8.021   6.406  1.0210  1.0832  2.6851
10440SOL     OW34724   6.920   4.309   2.811 -0.1751  0.4238 -0.3491
10440SOL    HW134725   6.849   4.362   2.776  0.5464 -0.0077 -2.5239
10440SOL    HW234726   6.999   4.359   2.793  0.5178 -1.3730 -2.5064
10441SOL     OW34727   5.238  10.104   3.214  0.4413  0.5798  0.4865
10441SOL    HW134728   5.179  10.057   3.272  0.8803  1.7927  1.9597
10441SOL    HW234729   5.298  10.037   3.182 -0.3352 -0.2596  0.7624
10442SOL     OW34730   1.055   1.279   5.257  0.0833  0.2807  0.2078
10442SOL    HW134731   1.037   1.364   5.298  2.7995  1.3156 -0.6795
10442SOL    HW234732   1.133   1.247   5.302  0.7652 -0.4128 -1.4560
10443SOL     OW34733   6.615  10.515   3.532  0.0512  0.1424  0.0303
10443SOL    HW134734   6.666  10.589   3.499  0.4779  0.2156  0.8536
10443SOL    HW234735   6.649  10.499   3.620  0.2492 -1.3161 -0.2997
10444SOL     OW34736   5.284   5.934   3.316 -0.4308 -0.1562  0.2131
10444SOL    HW134737   5.234   5.938   3.235 -1.7737  0.1562  1.0479
10444SOL    HW234738   5.252   6.008   3.367 -0.8764 -1.4052  1.7727
10445SOL     OW34739   2.232   5.070   2.436 -0.0177 -0.4935 -0.5647
10445SOL    HW134740   2.232   5.049   2.343 -0.7731 -0.1672 -0.6394
10445SOL    HW234741   2.273   4.993   2.478  2.0357  0.1548 -1.3197
10446SOL     OW34742  10.709   3.727   1.897  0.2621  0.4941 -1.0811
10446SOL    HW134743  10.735   3.819   1.904  0.2756  0.5033 -1.2455
10446SOL    HW234744  10.791   3.678   1.901  0.1856  0.4292 -0.0408
10447SOL     OW34745   3.107   1.028   0.267 -0.1486  0.1108 -0.5102
10447SOL    HW134746   3.107   1.030   0.362  0.4054  0.1204 -0.5108
10447SOL    HW234747   3.108   1.120   0.240 -0.5277  0.1116 -0.5279
10448SOL     OW34748   0.703   8.363  10.532 -0.1479 -0.0985 -0.3371
10448SOL    HW134749   0.795   8.389  10.542 -0.1238  0.4121 -1.7547
10448SOL    HW234750   0.654   8.442  10.555 -0.2185 -0.3015  0.1983
10449SOL     OW34751   5.837   3.739   0.803  0.1171 -0.0377  0.0967
10449SOL    HW134752   5.755   3.783   0.826  0.5553  1.3139 -0.8780
10449SOL    HW234753   5.906   3.800   0.828  0.8419 -1.0819  0.7113
10450SOL     OW34754   4.356  10.675   5.196 -0.2553 -0.0711 -0.1643
10450SOL    HW134755   4.431  10.723   5.232  0.8858 -1.6580 -0.3518
10450SOL    HW234756   4.368  10.680   5.101 -1.1217  0.7974 -0.2295
10451SOL     OW34757   6.053   1.523   5.681 -0.0196 -0.0259 -0.5048
10451SOL    HW134758   6.124   1.469   5.717  0.0023 -0.9928 -1.9517
10451SOL    HW234759   6.092   1.567   5.606 -0.4251  0.9407 -0.1504
10452SOL     OW34760   5.847   8.327   3.728  0.8536  0.0110 -0.2888
10452SOL    HW134761   5.780   8.355   3.790 -0.5940 -0.3281 -1.6650
10452SOL    HW234762   5.907   8.402   3.723 -0.7274  1.2925 -0.8101
10453SOL     OW34763   0.480   1.866   5.149 -0.3152 -0.3972  0.3911
10453SOL    HW134764   0.395   1.883   5.190  0.4130 -0.5252  1.9850
10453SOL    HW234765   0.503   1.949   5.106 -0.8601 -0.1083  0.6543
10454SOL     OW34766   6.133   7.611   5.374 -0.2246 -0.2258 -0.1658
10454SOL    HW134767   6.122   7.532   5.321 -0.2752  0.3050 -0.9532
10454SOL    HW234768   6.220   7.644   5.350 -0.7441  0.6777 -0.8223
10455SOL     OW34769   0.682   2.911   2.302 -0.2524 -0.2332 -0.2793
10455SOL    HW134770   0.707   2.998   2.270  0.4882 -0.5413 -0.5718
10455SOL    HW234771   0.759   2.881   2.350 -1.0887 -0.0855  1.1580
10456SOL     OW34772   4.163  10.063   0.602 -0.1788 -0.1833 -0.3545
10456SOL    HW134773   4.209  10.113   0.669  0.1305 -1.9111  0.7542
10456SOL    HW234774   4.073  10.056   0.635 -0.2308 -0.2921 -0.5189
10457SOL     OW34775   3.811   5.756   6.251  0.0446  0.0243 -0.3653
10457SOL    HW134776   3.765   5.774   6.333 -0.5536  2.0140 -1.1092
10457SOL    HW234777   3.900   5.733   6.278 -0.3205  0.0125  0.8757
10458SOL     OW34778   5.003   8.250  10.813 -0.2038 -0.1618  0.1583
10458SOL    HW134779   5.012   8.218  10.903  0.4648  3.2493  1.3776
10458SOL    HW234780   5.066   8.322  10.807 -1.1003  0.4276 -2.6695
10459SOL     OW34781   5.337  10.521   9.482 -0.5645  0.6471  0.0838
10459SOL    HW134782   5.365  10.528   9.391 -1.0494 -0.3915 -0.1486
10459SOL    HW234783   5.250  10.560   9.484 -1.5370 -1.4131 -0.3848
10460SOL     OW34784   6.054   9.439   2.121  0.0136 -0.8317  0.1538
10460SOL    HW134785   6.128   9.475   2.170 -0.9637  0.9446  0.3478
10460SOL    HW234786   6.090   9.423   2.034  0.6206  0.0984  0.2210
10461SOL     OW34787   7.946   0.262   3.284 -0.2462  0.0437 -0.0416
10461SOL    HW134788   7.966   0.169   3.275 -0.0651  0.2086 -1.4476
10461SOL    HW234789   7.877   0.265   3.351 -0.9047 -1.1776 -0.6485
10462SOL     OW34790   6.944   7.133   6.218  0.6689  0.6304  0.1602
10462SOL    HW134791   6.922   7.184   6.296 -1.8238 -0.0828 -0.0537
10462SOL    HW234792   6.869   7.075   6.205  1.6118 -0.1382 -2.0449
10463SOL     OW34793   0.564   3.592   5.305 -0.2116 -0.3673  0.1095
10463SOL    HW134794   0.631   3.584   5.237  0.2371  0.6487  0.4209
10463SOL    HW234795   0.587   3.526   5.370 -1.9303 -2.8922 -1.7797
10464SOL     OW34796   0.167   3.791   0.436 -0.6103  0.4196 -0.1368
10464SOL    HW134797   0.130   3.758   0.354 -0.1655  1.3500 -0.7160
10464SOL    HW234798   0.169   3.886   0.425  0.1727  0.4985  0.6561
10465SOL     OW34799   4.594   5.265   0.918  0.3397  0.1645  0.0557
10465SOL    HW134800   4.594   5.314   0.836 -2.8495 -1.0800 -0.7644
10465SOL    HW234801   4.501   5.247   0.935  1.0816 -1.1550  2.9925
10466SOL     OW34802   7.662   5.187   0.820  0.1131  0.3659 -0.9713
10466SOL    HW134803   7.632   5.270   0.785  0.2025  0.8241  0.0142
10466SOL    HW234804   7.585   5.149   0.862  0.6581  1.1407  0.7987
10467SOL     OW34805   1.050   2.066  10.661 -0.2820 -0.1616  0.6212
10467SOL    HW134806   1.081   2.065  10.570 -0.1206 -0.4982  0.6783
10467SOL    HW234807   0.978   2.004  10.662 -0.7630  0.3943  0.5559
10468SOL     OW34808   6.112   2.023   2.977  0.1940 -0.2811 -0.3478
10468SOL    HW134809   6.034   2.056   3.023  0.6803  0.3420  0.0350
10468SOL    HW234810   6.161   1.976   3.044 -0.5113 -1.8264 -0.8986
10469SOL     OW34811   5.289   6.167   1.469  0.0929 -0.0945  0.0883
10469SOL    HW134812   5.330   6.087   1.502  1.4958  0.8217  0.5987
10469SOL    HW234813   5.334   6.184   1.386  0.0799  0.3785  0.1780
10470SOL     OW34814  10.010   9.340   5.143 -0.1730 -0.1318 -0.6656
10470SOL    HW134815   9.962   9.293   5.075  1.5458 -2.7870 -0.1025
10470SOL    HW234816   9.972   9.310   5.225  1.4853 -1.1926 -0.2685
10471SOL     OW34817   4.999  10.314   4.212  0.2163 -0.2924  0.1239
10471SOL    HW134818   4.950  10.342   4.289  0.6194 -1.3952  0.8030
10471SOL    HW234819   5.014  10.220   4.226  0.9664 -0.3450 -0.9214
10472SOL     OW34820   3.587   0.036   1.732 -0.0132  0.0806 -0.0361
10472SOL    HW134821   3.546   0.122   1.718 -0.7893 -0.3740 -0.6074
10472SOL    HW234822   3.674   0.044   1.695  0.0864  0.7752  0.3436
10473SOL     OW34823   3.611   7.493   5.609 -0.3686  0.0200 -0.1949
10473SOL    HW134824   3.584   7.485   5.700 -0.6654  0.7651 -0.2164
10473SOL    HW234825   3.602   7.405   5.573  0.1296 -0.3619  0.5984
10474SOL     OW34826   3.828   4.215   4.555  0.0938 -0.3100 -0.0988
10474SOL    HW134827   3.823   4.272   4.632  0.9412 -1.4018  0.7862
10474SOL    HW234828   3.759   4.151   4.568 -0.8918  0.5166 -1.1212
10475SOL     OW34829   6.986   3.670   1.223  0.1129 -0.4642  0.2246
10475SOL    HW134830   7.080   3.678   1.236  0.1443 -0.8427  0.2446
10475SOL    HW234831   6.948   3.687   1.309  0.1177  0.3947  0.0633
10476SOL     OW34832   2.221   0.887   5.160 -0.4499 -0.2653  0.4183
10476SOL    HW134833   2.270   0.827   5.104  0.6147  1.5304 -0.6468
10476SOL    HW234834   2.131   0.883   5.127 -0.2963 -0.9733  0.0891
10477SOL     OW34835   6.664   7.330   5.751  0.0770  0.0586 -0.4415
10477SOL    HW134836   6.756   7.348   5.770  0.3651 -1.3262 -0.5092
10477SOL    HW234837   6.616   7.389   5.810  1.0019  0.0657  0.3195
10478SOL     OW34838   2.242   2.054   8.075 -0.3823  0.3485 -0.1385
10478SOL    HW134839   2.280   2.043   8.163 -1.0145  0.3099  0.1358
10478SOL    HW234840   2.217   2.147   8.072  1.1352  0.7403 -0.8912
10479SOL     OW34841   7.175   1.485   7.849 -0.1775 -0.7922  0.3123
10479SOL    HW134842   7.186   1.406   7.798  0.9588 -0.5831  0.2272
10479SOL    HW234843   7.258   1.497   7.894 -0.5850 -0.0403  0.8900
10480SOL     OW34844   2.926   0.193   3.972 -0.2115 -0.4494  0.4095
10480SOL    HW134845   2.854   0.149   4.018 -0.6609 -0.0913  0.0581
10480SOL    HW234846   3.004   0.173   4.024 -0.8807  0.9163  1.9771
10481SOL     OW34847   5.919  10.104   9.876 -0.1759  0.3604  0.7579
10481SOL    HW134848   5.842  10.060   9.840 -0.1252 -1.4572  2.7703
10481SOL    HW234849   5.889  10.192   9.896 -0.9973  0.4780 -0.9246
10482SOL     OW34850   9.539   0.110   7.934 -0.4491 -0.0612  0.0472
10482SOL    HW134851   9.496   0.076   7.855  0.9172 -0.5389 -0.5146
10482SOL    HW234852   9.467   0.143   7.988 -1.5883 -1.5890 -0.4965
10483SOL     OW34853   0.838   7.189   9.189 -0.5188  0.0039 -0.3458
10483SOL    HW134854   0.748   7.209   9.213 -0.0222  0.5854  1.0969
10483SOL    HW234855   0.885   7.272   9.200  0.9282 -1.1204  2.6178
10484SOL     OW34856   1.774   1.221   3.425 -0.1296 -0.1246  0.2333
10484SOL    HW134857   1.845   1.157   3.427 -0.9290 -1.0285  0.0873
10484SOL    HW234858   1.795   1.284   3.494 -1.6585 -3.0435  3.4885
10485SOL     OW34859   7.206   4.743   3.721  0.6367 -0.1908  0.9073
10485SOL    HW134860   7.221   4.664   3.668  2.0426  0.2872  0.5667
10485SOL    HW234861   7.280   4.745   3.782 -0.0724  0.1815  1.7618
10486SOL     OW34862   8.614   8.301   7.074 -0.4766 -0.0074 -0.4446
10486SOL    HW134863   8.549   8.257   7.127 -0.3635 -0.1605 -0.4319
10486SOL    HW234864   8.698   8.274   7.111 -0.4194  0.9623  0.1667
10487SOL     OW34865   5.181   5.051   4.805 -0.0615 -0.6840  0.0632
10487SOL    HW134866   5.176   5.134   4.852  0.8429 -0.5683 -0.0384
10487SOL    HW234867   5.235   4.995   4.861  1.2556 -0.4564 -0.9401
10488SOL     OW34868   8.100   7.789   0.345  0.4212 -0.3708 -0.0254
10488SOL    HW134869   8.040   7.733   0.394  0.2699  1.6908  2.2282
10488SOL    HW234870   8.044   7.838   0.285  0.3092 -1.1020 -0.5263
10489SOL     OW34871   0.423   7.791  10.713  0.5148 -0.3353 -0.7644
10489SOL    HW134872   0.371   7.869  10.732  1.0925 -0.4067  1.2967
10489SOL    HW234873   0.504   7.825  10.676  1.1304  0.1288  0.9569
10490SOL     OW34874   9.467   7.534   6.807  0.1354 -0.2055  0.4448
10490SOL    HW134875   9.430   7.524   6.720  1.0992  3.0626 -0.4017
10490SOL    HW234876   9.398   7.505   6.866 -2.3744  2.1293 -1.2244
10491SOL     OW34877  10.245   6.589   3.966  0.4250  0.0743  0.5531
10491SOL    HW134878  10.210   6.646   4.035 -1.3613  1.6075 -1.5534
10491SOL    HW234879  10.187   6.513   3.967  0.1067  0.3111  0.4408
10492SOL     OW34880  10.065   2.295   8.800  0.0989  0.6108 -1.0087
10492SOL    HW134881  10.081   2.364   8.735  0.6661  1.2832 -0.1680
10492SOL    HW234882  10.007   2.234   8.756 -1.9007  2.5430 -1.1695
10493SOL     OW34883   5.427   4.404   7.458 -0.2707  0.4997  0.2264
10493SOL    HW134884   5.355   4.350   7.490  0.7087 -3.3827 -3.6788
10493SOL    HW234885   5.386   4.462   7.394 -0.3176 -0.1683 -0.3581
10494SOL     OW34886   7.767   6.786   7.833 -0.3602 -0.0014 -0.0563
10494SOL    HW134887   7.857   6.801   7.863 -0.4123  0.4371 -0.1135
10494SOL    HW234888   7.776   6.767   7.740 -0.4531  1.4694 -0.3729
10495SOL     OW34889   0.610   7.049  10.061  0.2521 -0.2175 -0.1600
10495SOL    HW134890   0.660   6.967  10.069 -1.6855 -1.4828 -0.6341
10495SOL    HW234891   0.519   7.021  10.060 -0.4102  1.8966 -1.2236
10496SOL     OW34892   3.390   0.823  10.301 -0.5807 -0.2533 -0.8795
10496SOL    HW134893   3.480   0.796  10.320 -1.1433  0.6001  3.4363
10496SOL    HW234894   3.397   0.871  10.218  2.5335 -2.1040 -1.7952
10497SOL     OW34895   4.599   5.412   5.448 -0.3925  0.1058  0.3089
10497SOL    HW134896   4.682   5.416   5.400 -0.2565 -0.6423  0.4712
10497SOL    HW234897   4.536   5.379   5.385 -0.3547 -0.2569  0.4626
10498SOL     OW34898   5.489   5.273  10.354  0.1150 -0.4604 -0.4691
10498SOL    HW134899   5.408   5.299  10.397  1.2416  0.6795  1.0092
10498SOL    HW234900   5.534   5.219  10.418  0.7587 -0.6844 -1.1052
10499SOL     OW34901   8.731   1.317  10.273  0.4031 -0.3251 -0.0679
10499SOL    HW134902   8.645   1.301  10.311  1.8072 -2.4609  2.3921
10499SOL    HW234903   8.755   1.404  10.305 -1.2223  0.6939 -1.5633
10500SOL     OW34904   0.056   4.410   5.291 -0.5734  0.2373 -0.3386
10500SOL    HW134905  -0.026   4.371   5.322 -0.2361  0.6938  1.1863
10500SOL    HW234906   0.124   4.358   5.333 -0.0656  0.0292 -1.3973
10501SOL     OW34907   6.570   2.338   3.609  0.0296  0.2283  0.0750
10501SOL    HW134908   6.532   2.321   3.695  0.3257 -1.1365 -0.0588
10501SOL    HW234909   6.621   2.260   3.589 -0.2413  0.4264 -1.4608
10502SOL     OW34910   0.950  10.112   3.457 -0.4868 -0.1379  0.8139
10502SOL    HW134911   0.948  10.023   3.492 -0.0524 -0.0055  1.1787
10502SOL    HW234912   0.858  10.132   3.438 -0.8003 -0.0023  2.4321
10503SOL     OW34913   7.734   5.088   5.460  0.1880  0.0869  0.3899
10503SOL    HW134914   7.805   5.135   5.505  1.7400 -0.1805 -1.7370
10503SOL    HW234915   7.777   5.014   5.418 -1.5063 -0.5471 -0.2582
10504SOL     OW34916   4.779   5.569   2.278 -0.0954  0.0340  0.1564
10504SOL    HW134917   4.833   5.501   2.319 -0.5057  0.0946  0.7993
10504SOL    HW234918   4.706   5.521   2.238  1.0298 -0.1702 -1.7212
10505SOL     OW34919  10.404   2.220   7.368  0.4631 -0.5589 -0.1493
10505SOL    HW134920  10.356   2.231   7.286  0.9451  0.0518 -0.3579
10505SOL    HW234921  10.467   2.293   7.369 -0.7017  0.4548  1.5776
10506SOL     OW34922   2.611   4.009   8.838 -0.4589  0.1486 -0.0724
10506SOL    HW134923   2.668   4.074   8.878 -2.0727  1.2862  0.4103
10506SOL    HW234924   2.661   3.975   8.764  1.0596  0.7121  0.6782
10507SOL     OW34925   4.051  10.331   4.549 -0.1479  0.0401  0.1962
10507SOL    HW134926   4.067  10.414   4.595 -2.3696  0.9415 -0.5541
10507SOL    HW234927   3.988  10.285   4.605 -0.6537 -0.1278 -0.5055
10508SOL     OW34928   4.852   1.777   7.264 -0.6709 -0.0636  0.2055
10508SOL    HW134929   4.769   1.734   7.244 -0.8025  0.2192  0.1507
10508SOL    HW234930   4.918   1.711   7.242 -1.0085 -1.6722  3.8232
10509SOL     OW34931   3.062   3.543   7.172 -0.0861  0.0227 -0.2195
10509SOL    HW134932   3.122   3.469   7.162 -0.4194 -0.7513  3.0237
10509SOL    HW234933   2.984   3.518   7.123 -0.4072 -2.0810  1.3024
10510SOL     OW34934   9.756   4.117  10.070 -0.0836  0.4441  0.2399
10510SOL    HW134935   9.762   4.212  10.075  0.3140  0.4427 -0.1706
10510SOL    HW234936   9.844   4.088  10.045 -0.5141  0.0621 -0.8861
10511SOL     OW34937   5.800  10.843   4.646 -0.3491 -0.3144  0.1121
10511SOL    HW134938   5.779  10.749   4.645 -1.2283 -0.1628  1.9258
10511SOL    HW234939   5.814  10.863   4.739  2.1536  0.8598 -0.4888
10512SOL     OW34940   1.436   2.999   6.392 -0.2552 -0.3228  0.3100
10512SOL    HW134941   1.406   3.082   6.355  0.6976 -1.0549 -2.2409
10512SOL    HW234942   1.512   3.022   6.445 -0.5457  0.5466  0.3490
10513SOL     OW34943   8.913   5.757   1.398 -1.2455  0.6843 -0.0783
10513SOL    HW134944   8.960   5.827   1.352  0.2449 -1.2748 -1.6239
10513SOL    HW234945   8.850   5.725   1.333 -0.1218 -1.1280 -0.3248
10514SOL     OW34946   2.380   3.243  10.444  0.3345  0.0077 -0.3174
10514SOL    HW134947   2.341   3.211  10.525 -0.1279  1.3187 -0.0227
10514SOL    HW234948   2.414   3.330  10.466  0.4848  0.2430 -1.4465
10515SOL     OW34949   1.589   3.488   8.421  0.1093 -0.2286 -0.6629
10515SOL    HW134950   1.623   3.400   8.434  0.0093 -0.1448  0.1733
10515SOL    HW234951   1.505   3.489   8.467 -0.9689 -0.3909 -2.5814
10516SOL     OW34952   4.847   4.409  10.013  0.1635  0.7243 -0.4281
10516SOL    HW134953   4.779   4.474  10.034 -0.2299 -0.1902  1.2178
10516SOL    HW234954   4.880   4.380  10.098 -0.2807 -1.8677 -1.0932
10517SOL     OW34955   2.399   7.343   7.458 -0.2124 -0.5672 -0.1329
10517SOL    HW134956   2.368   7.253   7.447  0.5246 -0.6761 -1.4421
10517SOL    HW234957   2.362   7.390   7.384  0.0531  0.0258  0.1130
10518SOL     OW34958   0.643   3.594   2.983 -0.4851 -0.5264  0.6016
10518SOL    HW134959   0.654   3.672   3.036 -0.2264 -0.4945  0.4988
10518SOL    HW234960   0.710   3.533   3.015  0.5700 -0.0158 -0.6018
10519SOL     OW34961   0.047  10.534   5.720  0.2023 -0.1884 -0.4118
10519SOL    HW134962   0.034  10.447   5.681 -0.7630 -0.5534  0.6980
10519SOL    HW234963   0.135  10.559   5.692  1.3607 -2.4565  0.9990
10520SOL     OW34964   4.404   7.765   1.320  0.2507 -0.0445  0.2891
10520SOL    HW134965   4.494   7.794   1.306  0.6606 -1.5675 -0.2971
10520SOL    HW234966   4.406   7.671   1.303 -1.1250 -0.3805  1.8058
10521SOL     OW34967   7.386   8.145   9.071 -0.4181  0.0156  0.3106
10521SOL    HW134968   7.455   8.101   9.021 -0.7924  1.7158 -1.7690
10521SOL    HW234969   7.366   8.085   9.143  2.5048 -0.9709  0.3542
10522SOL     OW34970   7.416   8.241   2.787 -0.0352  0.4556 -0.1484
10522SOL    HW134971   7.395   8.322   2.833 -0.2315  0.5190 -0.3439
10522SOL    HW234972   7.487   8.202   2.837  0.5928  1.1395 -0.4923
10523SOL     OW34973   2.642   2.227   8.850 -0.3175  0.2574  0.0384
10523SOL    HW134974   2.663   2.142   8.889 -1.1463  0.4364  0.9060
10523SOL    HW234975   2.595   2.206   8.770  1.0361 -0.1128 -0.6817
10524SOL     OW34976   2.567   7.526   0.436 -0.1279 -0.1303 -0.0703
10524SOL    HW134977   2.503   7.551   0.502  0.1096 -0.3657  0.2517
10524SOL    HW234978   2.524   7.456   0.387 -0.7003  0.7404 -0.8228
10525SOL     OW34979  10.184   4.338   4.841 -0.1225 -0.4887  0.2326
10525SOL    HW134980  10.263   4.358   4.892  0.2008  0.8154 -0.7519
10525SOL    HW234981  10.217   4.308   4.756 -0.6973 -0.0308 -0.1526
10526SOL     OW34982  10.436   8.639   8.820  0.5170  0.0035 -0.1767
10526SOL    HW134983  10.359   8.600   8.863  0.9769 -0.6818  0.0433
10526SOL    HW234984  10.433   8.731   8.844 -0.3652  0.0303 -0.3551
10527SOL     OW34985   5.534   3.983   1.414  0.0265 -0.0026 -0.8739
10527SOL    HW134986   5.587   4.062   1.405  1.4311 -0.8683 -0.4183
10527SOL    HW234987   5.586   3.915   1.372 -1.5088 -0.5484 -1.9195
10528SOL     OW34988   0.641   5.412   4.681  0.1549  0.5255  0.1901
10528SOL    HW134989   0.722   5.430   4.730 -0.6207  0.2523  1.5996
10528SOL    HW234990   0.654   5.456   4.597  2.0758 -0.1458  0.1149
10529SOL     OW34991   1.792   0.285   9.815 -0.3610 -0.2403 -0.3230
10529SOL    HW134992   1.753   0.282   9.728 -1.4625  1.0973  0.1066
10529SOL    HW234993   1.828   0.197   9.829  0.4990 -0.2367 -2.4125
10530SOL     OW34994  10.704   9.580   7.281  0.3405  0.5307 -0.1509
10530SOL    HW134995  10.685   9.592   7.374  0.4171  1.5711 -0.2616
10530SOL    HW234996  10.623   9.545   7.244  0.8504 -1.5362  0.6073
10531SOL     OW34997   4.474   6.243   9.352  0.4848  0.2034 -0.0188
10531SOL    HW134998   4.560   6.206   9.330  0.4288  0.5048 -0.7492
10531SOL    HW234999   4.475   6.330   9.312 -0.3669  0.0005 -0.4762
10532SOL     OW35000   0.534   7.776  10.337  0.0861 -0.1860 -0.2325
10532SOL    HW135001   0.608   7.751  10.281  0.3931  0.4293 -0.1001
10532SOL    HW235002   0.573   7.798  10.421 -0.2919 -0.2802 -0.0310
10533SOL     OW35003   1.949   7.250   1.184 -0.1077 -0.1688  0.1119
10533SOL    HW135004   1.914   7.339   1.194 -1.9618 -0.9088  0.3475
10533SOL    HW235005   1.955   7.236   1.090 -0.8910 -0.2151  0.0717
10534SOL     OW35006   8.935   2.611   7.070 -0.1694  0.2442  0.0821
10534SOL    HW135007   8.885   2.546   7.020  0.1342  2.1893 -2.8612
10534SOL    HW235008   8.878   2.688   7.073  0.8825  1.0166  0.4584
10535SOL     OW35009   3.547   5.909   7.964  0.1110 -0.0317 -0.1754
10535SOL    HW135010   3.518   5.872   7.880  0.7759 -1.8311  0.3683
10535SOL    HW235011   3.633   5.871   7.978 -0.0920  0.0970  1.4400
10536SOL     OW35012   5.291   6.315   6.644 -0.3265  0.3882  0.4717
10536SOL    HW135013   5.298   6.369   6.565  0.7134 -1.9042 -1.0778
10536SOL    HW235014   5.337   6.234   6.621 -0.9935 -0.7673  3.0548
10537SOL     OW35015   0.190   5.774   7.934 -0.4711  0.4541 -0.1865
10537SOL    HW135016   0.222   5.835   7.868  0.2209  0.2793 -0.0167
10537SOL    HW235017   0.230   5.690   7.911 -2.9372 -0.3923 -1.5544
10538SOL     OW35018   6.566  10.865   9.049  0.0324 -0.2487 -0.1846
10538SOL    HW135019   6.654  10.878   9.084 -0.0023 -0.2709 -0.0918
10538SOL    HW235020   6.580  10.851   8.955  0.1642 -0.6987 -0.0990
10539SOL     OW35021  10.328   7.835   4.936 -0.0905 -0.3594  0.2195
10539SOL    HW135022  10.351   7.922   4.903 -0.8121 -0.1127  0.3725
10539SOL    HW235023  10.270   7.798   4.869 -0.8375 -0.2102  0.7806
10540SOL     OW35024   6.226   0.439   6.181 -0.3031 -0.0773 -0.6099
10540SOL    HW135025   6.268   0.497   6.117  0.8068  0.6262  0.7530
10540SOL    HW235026   6.206   0.495   6.255 -2.1932 -0.7595 -0.5836
10541SOL     OW35027   9.997   6.450   6.856 -0.4732  0.6836 -0.2685
10541SOL    HW135028   9.918   6.453   6.910 -2.1654 -0.5637 -2.6211
10541SOL    HW235029  10.022   6.358   6.856  0.9860  1.0594  0.3959
10542SOL     OW35030   2.602   1.297   4.193  0.9822 -0.0122  0.5975
10542SOL    HW135031   2.546   1.372   4.210  0.7806  0.2497 -1.0828
10542SOL    HW235032   2.614   1.255   4.278 -1.4303  0.1616  1.0596
10543SOL     OW35033   6.637   3.533   9.957  0.0045  0.0996 -0.0856
10543SOL    HW135034   6.650   3.456   9.901  2.0392 -0.7660  1.4837
10543SOL    HW235035   6.544   3.552   9.951  0.0969 -0.0821 -3.5820
10544SOL     OW35036   2.478   7.817   4.850 -0.8973 -0.2267 -0.0235
10544SOL    HW135037   2.423   7.741   4.835 -1.7288 -0.1801  2.5910
10544SOL    HW235038   2.567   7.787   4.831 -1.2222 -1.8329  0.9250
10545SOL     OW35039   3.196   2.031   8.174  0.0312 -0.2086  0.2387
10545SOL    HW135040   3.113   2.025   8.222 -0.4249  1.8588 -0.2377
10545SOL    HW235041   3.180   1.984   8.092  0.6016 -3.1866  1.7932
10546SOL     OW35042   2.616   6.656   3.670 -0.1662  0.0567  0.1993
10546SOL    HW135043   2.627   6.613   3.585 -1.1355 -0.6890  0.4520
10546SOL    HW235044   2.641   6.589   3.734  0.8419  0.7072  0.5019
10547SOL     OW35045   8.237   4.944   8.542 -0.3114 -0.2747 -0.5440
10547SOL    HW135046   8.161   4.888   8.526  0.9386 -2.1926 -0.0229
10547SOL    HW235047   8.309   4.897   8.500  0.8624  0.6810  0.3855
10548SOL     OW35048   4.448   4.776   4.626  0.2124  0.0355  0.3756
10548SOL    HW135049   4.446   4.871   4.617 -0.3243 -0.0185 -0.1029
10548SOL    HW235050   4.540   4.753   4.611  0.9050  0.7317  3.3568
10549SOL     OW35051   6.405  10.018   6.012  0.0434 -0.2988  0.1056
10549SOL    HW135052   6.456  10.050   5.938 -2.4786  0.4679 -1.3458
10549SOL    HW235053   6.376  10.098   6.058  1.5146 -0.7615  1.8986
10550SOL     OW35054   1.157   4.345   3.376 -0.5623 -0.5237 -0.7337
10550SOL    HW135055   1.247   4.363   3.349 -0.4447 -1.7024 -1.2047
10550SOL    HW235056   1.161   4.336   3.471 -0.7233  2.3017 -0.4178
10551SOL     OW35057   7.332   2.046   1.772  0.1759  0.4731 -0.7630
10551SOL    HW135058   7.355   1.962   1.811 -1.1610 -0.6746 -2.3979
10551SOL    HW235059   7.242   2.062   1.800  0.5269  1.5108 -0.2074
10552SOL     OW35060   9.893   5.781   7.212 -0.6345  0.1051  0.4175
10552SOL    HW135061   9.974   5.823   7.182 -0.5083 -1.1204 -1.0232
10552SOL    HW235062   9.830   5.796   7.142 -0.4102 -2.5974 -0.4202
10553SOL     OW35063   7.380   1.653   3.435  0.0190  0.2627 -0.4890
10553SOL    HW135064   7.296   1.651   3.389  0.7501  3.0448 -2.0664
10553SOL    HW235065   7.446   1.659   3.365  1.3167  1.5993  0.8040
10554SOL     OW35066  10.579   2.040  10.410  1.1386  0.0757 -0.2959
10554SOL    HW135067  10.486   2.065  10.408  1.4715  1.2675 -2.5227
10554SOL    HW235068  10.600   2.034  10.503 -1.0526  0.2205  0.2420
10555SOL     OW35069   6.923   2.824   8.821 -0.7778 -0.1491  0.4778
10555SOL    HW135070   7.006   2.829   8.774 -1.2029 -0.4915 -0.3085
10555SOL    HW235071   6.884   2.742   8.792 -1.9782  0.6294 -0.1221
10556SOL     OW35072   7.597   1.387   3.020  0.2694 -0.1610 -0.4708
10556SOL    HW135073   7.650   1.459   3.053 -0.5122 -0.1221  0.7317
10556SOL    HW235074   7.592   1.402   2.925  1.3525  0.5190 -0.4204
10557SOL     OW35075   1.721   5.376   9.437  0.6428  0.1093 -0.1141
10557SOL    HW135076   1.726   5.317   9.513  1.2025  1.4195  0.8660
10557SOL    HW235077   1.811   5.388   9.409  0.3614 -1.1998 -1.6550
10558SOL     OW35078   9.452   4.170   2.105  0.1263  0.0279 -0.2441
10558SOL    HW135079   9.476   4.122   2.184 -0.6121 -0.0561 -0.0621
10558SOL    HW235080   9.527   4.226   2.086  0.1746  0.2903  0.7050
10559SOL     OW35081   7.334   0.741   8.073  0.2723  0.3290  0.0422
10559SOL    HW135082   7.325   0.740   7.978  0.0975  0.0529  0.0647
10559SOL    HW235083   7.249   0.713   8.107  0.5011 -0.0858  0.2720
10560SOL     OW35084   7.769   3.012   7.168  0.0285 -0.8917  0.3524
10560SOL    HW135085   7.726   2.984   7.249 -0.8292  2.2258  1.0476
10560SOL    HW235086   7.859   3.031   7.194  0.0872 -1.1183  0.3127
10561SOL     OW35087   1.587   4.814   0.615  0.5887  0.6007 -0.1206
10561SOL    HW135088   1.531   4.791   0.541 -0.2701 -0.2441  0.7837
10561SOL    HW235089   1.656   4.747   0.614  0.4253  0.4308  0.0065
10562SOL     OW35090   9.602   3.809   7.216 -0.1539  0.0479  0.9845
10562SOL    HW135091   9.650   3.730   7.192 -0.0486  0.3278  0.2807
10562SOL    HW235092   9.659   3.851   7.281  0.6759  0.4903 -0.0086
10563SOL     OW35093   4.221  10.959   5.522 -0.2839 -1.1262  0.4373
10563SOL    HW135094   4.130  10.980   5.544 -0.0869  0.0618  0.1062
10563SOL    HW235095   4.246  10.892   5.586 -0.5743  0.3923  2.1632
10564SOL     OW35096  10.907   4.627   7.907  0.5887 -0.1967 -0.1884
10564SOL    HW135097  10.819   4.627   7.871 -0.9964  3.1368  3.1946
10564SOL    HW235098  10.912   4.548   7.961 -1.6243  1.1812  2.1668
10565SOL     OW35099   9.833   8.239   0.468 -0.3662  0.1278  0.0035
10565SOL    HW135100   9.738   8.230   0.458 -0.7536  3.6076 -0.2186
10565SOL    HW235101   9.859   8.298   0.397  1.7998  0.1244  0.7549
10566SOL     OW35102   9.009   5.821  10.252  0.1601 -0.7395  0.1406
10566SOL    HW135103   9.015   5.740  10.303 -0.1758 -1.0870 -0.3766
10566SOL    HW235104   8.919   5.850  10.263  0.7894  0.6332  1.9516
10567SOL     OW35105   5.579   3.813   0.149  0.1562  0.8047 -0.0552
10567SOL    HW135106   5.617   3.753   0.213  0.9636  2.2264  0.8273
10567SOL    HW235107   5.485   3.812   0.167  0.2810  0.5327  0.5792
10568SOL     OW35108   9.934   3.317   8.898  0.0914  0.1348 -0.1185
10568SOL    HW135109   9.882   3.268   8.962 -1.2773 -1.4849 -2.3855
10568SOL    HW235110   9.869   3.367   8.849  0.8482 -0.4560 -1.7542
10569SOL     OW35111  10.651   3.748  10.922 -0.4142 -0.8884 -0.0316
10569SOL    HW135112  10.622   3.757  10.831  0.4543 -1.8274 -0.4061
10569SOL    HW235113  10.673   3.655  10.931 -2.1566 -1.1708  1.6331
10570SOL     OW35114   3.661   6.439   4.537  0.1268 -0.6717 -0.1073
10570SOL    HW135115   3.570   6.464   4.553  0.2561 -0.0388 -0.3388
10570SOL    HW235116   3.668   6.436   4.441  0.1099 -1.6271 -0.0891
10571SOL     OW35117   1.309  10.009   7.302 -0.1296 -0.5166  0.2732
10571SOL    HW135118   1.314  10.094   7.259  1.9185 -1.5684 -1.6227
10571SOL    HW235119   1.232   9.967   7.264 -0.8434  0.2622  0.8385
10572SOL     OW35120   3.044   1.678   7.405 -0.1082 -0.1269 -0.2087
10572SOL    HW135121   3.047   1.725   7.488 -0.4757  0.7898 -0.7086
10572SOL    HW235122   3.128   1.633   7.399 -0.2464 -0.5471  0.8586
10573SOL     OW35123   3.537   0.456   0.618 -0.3188  0.3360  0.1571
10573SOL    HW135124   3.506   0.547   0.626  0.1108  0.6393 -1.5147
10573SOL    HW235125   3.478   0.406   0.673 -0.7262  1.5980  0.8999
10574SOL     OW35126   2.005   1.969   3.676 -0.4528  0.3438 -0.4034
10574SOL    HW135127   1.961   2.043   3.636 -1.5763  0.8031  1.6332
10574SOL    HW235128   1.945   1.938   3.744 -0.5801 -3.2247 -1.9925
10575SOL     OW35129  10.377   0.729   9.701  0.1475 -0.4041  0.2076
10575SOL    HW135130  10.349   0.644   9.667  0.8373 -0.0633 -1.2794
10575SOL    HW235131  10.296   0.775   9.721 -0.3089 -0.3840 -1.6115
10576SOL     OW35132  10.207   2.259   4.652  0.4630 -0.3724  0.3354
10576SOL    HW135133  10.228   2.350   4.632  1.0604 -0.5273  0.2495
10576SOL    HW235134  10.157   2.263   4.734 -0.5807  0.1316 -0.3174
10577SOL     OW35135   3.130   8.868   6.686  0.3527  0.2047  0.2124
10577SOL    HW135136   3.202   8.845   6.745 -0.6852 -1.2257  0.9665
10577SOL    HW235137   3.053   8.826   6.725 -0.5156 -0.0490 -1.6987
10578SOL     OW35138   7.279  10.639   6.046  0.0539 -0.2665 -0.3385
10578SOL    HW135139   7.348  10.647   5.980  1.0854 -0.9457  0.6284
10578SOL    HW235140   7.284  10.547   6.074 -0.5940 -0.0700  0.4302
10579SOL     OW35141   6.264   7.022   5.897 -0.0113 -0.2123  0.2798
10579SOL    HW135142   6.325   7.037   5.969 -2.1544 -0.9037  2.3286
10579SOL    HW235143   6.262   6.927   5.886 -0.5027 -0.1816  0.0621
10580SOL     OW35144   2.269   7.566   9.684 -0.0329  0.6142 -0.1501
10580SOL    HW135145   2.282   7.485   9.634  0.4593  1.2494 -1.0751
10580SOL    HW235146   2.324   7.630   9.640 -0.0482  1.3391  0.8777
10581SOL     OW35147   8.750   4.888   2.146 -0.3605  0.5145  0.9647
10581SOL    HW135148   8.674   4.931   2.185 -2.1833 -0.5023 -1.2786
10581SOL    HW235149   8.765   4.936   2.064  3.1455  2.4022  2.5963
10582SOL     OW35150   3.384   3.229   1.730  0.3963 -0.4999  0.2031
10582SOL    HW135151   3.376   3.265   1.818  0.8609  1.3173 -0.4836
10582SOL    HW235152   3.294   3.222   1.698  0.3389  0.8530  0.0418
10583SOL     OW35153   2.643   5.595   1.657 -0.4594  0.3985 -0.1962
10583SOL    HW135154   2.666   5.549   1.738 -0.2857 -0.6165 -0.8202
10583SOL    HW235155   2.663   5.687   1.675  1.3322 -0.0776  0.2625
10584SOL     OW35156   9.992   2.731   0.211  0.3849 -0.1658 -0.7304
10584SOL    HW135157  10.052   2.760   0.142  0.9754 -1.8587 -0.9356
10584SOL    HW235158  10.027   2.647   0.240 -0.3331  0.1411  1.0700
10585SOL     OW35159   5.496   2.184   2.712 -0.6449  0.4224 -0.0959
10585SOL    HW135160   5.469   2.266   2.671  1.1915  0.1392 -1.9646
10585SOL    HW235161   5.591   2.192   2.721 -0.0994 -2.3575 -2.4176
10586SOL     OW35162   8.062   8.817   5.012  0.0878  0.1811 -0.1146
10586SOL    HW135163   8.112   8.882   5.063 -0.4329 -1.4009  2.4742
10586SOL    HW235164   8.027   8.757   5.077 -1.3515 -1.4183 -2.3036
10587SOL     OW35165   4.977   4.480   2.457  0.3581  0.0697 -0.1978
10587SOL    HW135166   4.960   4.387   2.446  1.0100  0.0676 -1.3353
10587SOL    HW235167   4.974   4.495   2.551 -0.2110 -1.0093 -0.0405
10588SOL     OW35168   4.098   8.697  10.956  0.1601  0.3975  0.4738
10588SOL    HW135169   4.013   8.659  10.978  1.0919 -1.7474  0.4574
10588SOL    HW235170   4.094   8.709  10.861 -0.4811  1.2822  0.5971
10589SOL     OW35171   5.618   9.974   6.257 -0.1561  0.1430  0.0692
10589SOL    HW135172   5.672  10.031   6.202 -2.5166  2.1606 -0.2683
10589SOL    HW235173   5.635  10.004   6.347 -2.6322  2.5839 -0.2201
10590SOL     OW35174  10.558   8.957   1.916  0.3056  0.2584 -0.0346
10590SOL    HW135175  10.594   8.935   2.002  0.3219  1.4503  0.2740
10590SOL    HW235176  10.485   8.897   1.904  0.1618  0.2345  0.9127
10591SOL     OW35177   2.577   5.582   0.472  0.3648  0.0481 -0.3810
10591SOL    HW135178   2.580   5.648   0.542 -2.2847  2.3702 -2.3284
10591SOL    HW235179   2.484   5.564   0.460  0.8136 -0.8414 -2.7861
10592SOL     OW35180   3.056   6.650   4.466  0.4566 -0.0346  0.3253
10592SOL    HW135181   3.001   6.609   4.533 -1.2568  0.6707 -0.5875
10592SOL    HW235182   3.098   6.723   4.510  0.0980 -0.1557  0.8807
10593SOL     OW35183   6.509   3.100   2.023  0.1968  0.2376  0.1090
10593SOL    HW135184   6.564   3.111   2.101  1.2679 -0.3005 -0.5681
10593SOL    HW235185   6.433   3.050   2.054  0.7619 -0.2367  0.7305
10594SOL     OW35186   8.314   7.199   1.839  0.2019  0.0517 -0.8225
10594SOL    HW135187   8.246   7.255   1.877 -1.1856 -0.6087 -2.2571
10594SOL    HW235188   8.316   7.122   1.896  0.0989  0.3037 -0.4776
10595SOL     OW35189   8.198   7.813   0.602 -0.0623 -0.2685 -0.4448
10595SOL    HW135190   8.186   7.877   0.532  1.7159 -0.0482 -0.5692
10595SOL    HW235191   8.193   7.728   0.559 -0.6991 -0.1763 -0.5558
10596SOL     OW35192   1.359  10.189   1.161  0.0472  0.1104 -0.3298
10596SOL    HW135193   1.417  10.248   1.208  1.0182 -2.0673  1.2494
10596SOL    HW235194   1.363  10.219   1.070  1.7576  1.4504  0.1703
10597SOL     OW35195   8.348   9.467   8.122  0.4171  0.3560  0.3245
10597SOL    HW135196   8.410   9.514   8.066  2.3088 -0.2268  1.8901
10597SOL    HW235197   8.271   9.454   8.066  1.8183  0.7892 -1.7688
10598SOL     OW35198   7.269   1.708   4.844 -0.5730  0.4543  0.1412
10598SOL    HW135199   7.264   1.615   4.864 -0.3946  0.2787 -0.6053
10598SOL    HW235200   7.246   1.752   4.926  2.2729 -0.2022  1.3487
10599SOL     OW35201   8.752   4.459   4.388  0.5947 -0.4731 -0.4458
10599SOL    HW135202   8.741   4.554   4.397  1.5378 -0.2964 -1.0474
10599SOL    HW235203   8.671   4.429   4.347 -0.2428 -0.1135  0.9472
10600SOL     OW35204  10.001   3.257   7.107  0.4732 -0.0059  0.1932
10600SOL    HW135205  10.076   3.290   7.056 -0.1119 -0.5049 -1.0206
10600SOL    HW235206   9.926   3.268   7.048 -0.4791  0.8328  1.5351
10601SOL     OW35207   2.815   2.634   4.398  0.2723  0.2658  0.4274
10601SOL    HW135208   2.773   2.719   4.411 -0.9214 -0.3028  0.3285
10601SOL    HW235209   2.883   2.651   4.332 -0.5196  0.9600 -0.2134
10602SOL     OW35210   8.784   8.841   2.408  0.1331 -0.2255 -0.1527
10602SOL    HW135211   8.814   8.903   2.475  0.5052  0.4192 -0.9130
10602SOL    HW235212   8.753   8.765   2.458 -3.2182  1.7692  0.9473
10603SOL     OW35213   5.985  10.543   3.472  0.1601  0.2657  0.5989
10603SOL    HW135214   5.976  10.507   3.383 -2.1615  0.8984  0.5475
10603SOL    HW235215   6.066  10.595   3.468  1.3290 -1.5608 -0.4793
10604SOL     OW35216   2.593   6.698   2.523 -0.2303  0.3747 -0.6259
10604SOL    HW135217   2.531   6.729   2.590  0.1800 -1.5457  0.6906
10604SOL    HW235218   2.679   6.714   2.562  0.0033 -1.4341 -0.3435
10605SOL     OW35219   6.547   3.054   3.165 -0.3810  0.0466  0.0670
10605SOL    HW135220   6.585   2.970   3.140  1.5760  1.5643 -2.2580
10605SOL    HW235221   6.477   3.069   3.100  1.0323  1.4004 -1.1944
10606SOL     OW35222   1.195   0.405   8.571  0.1494 -0.8785  0.3747
10606SOL    HW135223   1.278   0.401   8.524 -0.2717 -0.3490 -0.4168
10606SOL    HW235224   1.130   0.374   8.508 -0.5600  0.7927  0.2576
10607SOL     OW35225  10.416   4.448   0.630  0.6965 -0.0813  0.3046
10607SOL    HW135226  10.467   4.492   0.698  0.3231 -0.3011  0.7276
10607SOL    HW235227  10.438   4.495   0.550 -0.2854  1.3763  0.8788
10608SOL     OW35228   8.822   6.215   8.705 -0.0595 -0.4254  0.2571
10608SOL    HW135229   8.828   6.285   8.769  0.5376 -0.3894  0.1664
10608SOL    HW235230   8.818   6.261   8.620  1.2619 -0.5105  0.1346
10609SOL     OW35231   5.754   8.344   5.309  0.3464  0.1435  0.2982
10609SOL    HW135232   5.821   8.382   5.253  0.0443  0.4715  0.1613
10609SOL    HW235233   5.689   8.309   5.247  0.7531 -0.8266  0.4147
10610SOL     OW35234   3.009   3.046   6.509 -0.6853 -0.0915 -0.0870
10610SOL    HW135235   3.037   2.961   6.475 -0.5614  0.2122 -0.7492
10610SOL    HW235236   3.077   3.069   6.573 -0.7778 -0.5360  0.1765
10611SOL     OW35237   0.581   4.704   3.504 -0.2787  0.1241 -0.1227
10611SOL    HW135238   0.555   4.629   3.452 -0.1794  1.2740 -1.8670
10611SOL    HW235239   0.525   4.701   3.582 -0.1445 -1.8343 -0.0924
10612SOL     OW35240   8.600   6.793   4.883  0.0032 -0.3155  0.5703
10612SOL    HW135241   8.563   6.729   4.822  0.5114 -0.9556  0.9334
10612SOL    HW235242   8.648   6.741   4.947  1.4911  0.5085  0.1446
10613SOL     OW35243   0.836  10.332   9.197  0.4551  0.7988 -0.4734
10613SOL    HW135244   0.758  10.353   9.147 -0.7987 -2.0299  0.1841
10613SOL    HW235245   0.857  10.413   9.244 -0.5863  2.3201 -2.5727
10614SOL     OW35246   8.797   7.203   9.436  0.2101 -0.5592 -0.0463
10614SOL    HW135247   8.815   7.216   9.343 -0.0404  0.5277  0.0454
10614SOL    HW235248   8.717   7.253   9.452  0.6318 -0.1695  0.8971
10615SOL     OW35249  10.376   4.696   2.643 -0.3862  0.0021 -0.4024
10615SOL    HW135250  10.405   4.780   2.607  0.3245 -0.7799 -1.6751
10615SOL    HW235251  10.456   4.657   2.680 -1.0478  0.6709  1.7986
10616SOL     OW35252   1.058   0.090   8.683  0.4976  0.2247  0.2088
10616SOL    HW135253   0.990   0.030   8.715  0.0127  1.0522  0.7500
10616SOL    HW235254   1.027   0.177   8.710  0.3345  0.8897 -2.0699
10617SOL     OW35255  10.248   6.278   6.912 -0.3799  0.2768  0.0273
10617SOL    HW135256  10.249   6.264   7.007  0.8956 -0.3934 -0.0708
10617SOL    HW235257  10.307   6.352   6.898 -1.4308  1.0891 -0.1462
10618SOL     OW35258   8.793   3.417   0.927  0.1120  0.0084 -0.0068
10618SOL    HW135259   8.715   3.461   0.960  1.0535  1.8181 -0.1021
10618SOL    HW235260   8.766   3.378   0.844 -0.6627  0.7735 -0.1220
10619SOL     OW35261   0.099   9.446   2.793  0.2288  0.2183 -1.0187
10619SOL    HW135262   0.068   9.464   2.704 -1.7198  2.2566  0.0188
10619SOL    HW235263   0.138   9.528   2.822 -0.6411  0.0755  0.6051
10620SOL     OW35264   9.181  10.865  10.411  0.3252  0.4039 -0.3721
10620SOL    HW135265   9.121  10.794  10.435 -0.5040  1.1531 -0.1797
10620SOL    HW235266   9.173  10.872  10.316 -0.1672  0.7364 -0.3084
10621SOL     OW35267   5.636   9.468   6.148 -0.2483 -0.1340 -0.1035
10621SOL    HW135268   5.612   9.479   6.240  0.9408  0.0215  0.1910
10621SOL    HW235269   5.665   9.555   6.120 -1.3484  0.0011 -0.8514
10622SOL     OW35270   6.337   4.029   6.669 -0.1755 -0.0651  0.3950
10622SOL    HW135271   6.369   3.960   6.727 -0.5724  1.1497  2.0785
10622SOL    HW235272   6.252   4.053   6.705 -1.4339 -0.8010 -1.9773
10623SOL     OW35273   1.239   0.275  10.083 -0.3460  0.1964  0.0172
10623SOL    HW135274   1.238   0.272   9.988  1.9679 -0.0269 -0.0368
10623SOL    HW235275   1.287   0.196  10.110 -2.6958 -0.7851  1.4614
10624SOL     OW35276   8.436   8.914  10.391  0.0851  0.0340  0.6976
10624SOL    HW135277   8.365   8.932  10.330  1.3983 -0.8754 -1.1320
10624SOL    HW235278   8.418   8.970  10.466 -2.1989  0.3008 -0.0153
10625SOL     OW35279   1.088   2.581  10.286  0.2965 -0.1584  0.2970
10625SOL    HW135280   1.116   2.640  10.356 -1.5788 -0.4643  1.3286
10625SOL    HW235281   1.145   2.504  10.295  1.3787  0.6221  0.2182
10626SOL     OW35282   9.432   6.481   7.489  0.2222 -0.3802  0.2881
10626SOL    HW135283   9.371   6.536   7.538 -2.2938 -0.4457 -2.6213
10626SOL    HW235284   9.404   6.391   7.510 -0.3332 -0.4162 -0.5667
10627SOL     OW35285   9.159   0.037   2.221 -0.3588 -0.7071 -0.4056
10627SOL    HW135286   9.246   0.072   2.206 -0.7188  0.6769  0.6046
10627SOL    HW235287   9.168  -0.019   2.298 -0.1682 -1.3540 -0.8938
10628SOL     OW35288   0.052   5.758   3.091 -0.2724 -0.0141 -0.2370
10628SOL    HW135289  -0.035   5.794   3.108 -0.8321 -1.3444 -0.1579
10628SOL    HW235290   0.042   5.711   3.008  0.9721  1.7217 -1.4018
10629SOL     OW35291   4.356   0.173   2.855 -0.2918 -0.2724  0.2046
10629SOL    HW135292   4.319   0.261   2.867  1.8080  0.5288  1.1328
10629SOL    HW235293   4.370   0.166   2.761  0.8636  0.9635  0.2729
10630SOL     OW35294   0.297   8.703  10.809 -0.3751  0.7646 -0.0313
10630SOL    HW135295   0.252   8.691  10.893 -0.4563 -2.4719 -0.4701
10630SOL    HW235296   0.298   8.616  10.770  1.3053  1.8742 -2.5852
10631SOL     OW35297   2.237   8.747   0.640 -0.3156 -0.4466 -0.2109
10631SOL    HW135298   2.213   8.820   0.698 -2.3018 -0.7259 -0.6342
10631SOL    HW235299   2.326   8.767   0.612 -0.8134  1.8043 -0.2731
10632SOL     OW35300   3.897   3.817   3.933 -0.0184  0.4209  0.8419
10632SOL    HW135301   3.985   3.835   3.900  0.2364 -1.3602  0.5253
10632SOL    HW235302   3.842   3.816   3.855 -0.1961  0.7092  0.9594
10633SOL     OW35303   9.079   3.417   0.973 -0.1195  0.9543  0.1500
10633SOL    HW135304   9.082   3.506   1.010  0.7815  1.2332 -0.5698
10633SOL    HW235305   8.986   3.396   0.970 -0.3801  2.1099 -0.2194
10634SOL     OW35306   9.036   7.201  10.849  0.3858  0.6015  0.3265
10634SOL    HW135307   9.028   7.291  10.881  1.3961 -0.2561  3.1844
10634SOL    HW235308   9.130   7.184  10.848  0.2047 -0.4400 -0.1544
10635SOL     OW35309   4.074   8.877   0.720  0.2998  0.3046  0.3678
10635SOL    HW135310   4.039   8.902   0.806 -0.2767  1.4955 -0.1928
10635SOL    HW235311   4.166   8.859   0.736  0.0476 -0.1423  1.3601
10636SOL     OW35312   9.863  10.230   8.454  0.7525 -0.1490 -0.0189
10636SOL    HW135313   9.952  10.265   8.462  0.5307  0.1796  1.2021
10636SOL    HW235314   9.814  10.273   8.525 -0.5643  0.2341 -1.1431
10637SOL     OW35315   8.631   3.910   2.602 -0.6812  0.7045 -0.3987
10637SOL    HW135316   8.674   3.960   2.534  1.1259 -1.3457 -0.8124
10637SOL    HW235317   8.570   3.972   2.643  2.1743  3.5215 -0.2065
10638SOL     OW35318   2.906   9.626   5.042 -0.1639  0.6334 -0.0585
10638SOL    HW135319   2.882   9.558   5.104  0.4346  1.6212  1.2711
10638SOL    HW235320   2.995   9.650   5.066 -0.2290  1.6051 -0.7653
10639SOL     OW35321   5.572   7.297   2.201  0.0349 -0.1370  0.0114
10639SOL    HW135322   5.506   7.227   2.197 -0.6111  0.4884 -0.1781
10639SOL    HW235323   5.584   7.325   2.111  1.3641 -0.9826 -0.0977
10640SOL     OW35324   2.910   9.812   4.595 -0.1081  0.1561 -0.4571
10640SOL    HW135325   2.997   9.794   4.631 -0.6040  0.2349  0.7773
10640SOL    HW235326   2.849   9.780   4.661 -1.0374 -0.6828 -1.7000
10641SOL     OW35327   6.813   5.887   0.224 -0.3716  0.7517 -0.2550
10641SOL    HW135328   6.794   5.977   0.252  0.8476  0.9102  0.0833
10641SOL    HW235329   6.875   5.898   0.152 -1.8203  0.2579 -1.6002
10642SOL     OW35330   9.545  10.769   2.032 -0.2253  0.0258  0.0378
10642SOL    HW135331   9.575  10.761   2.122 -0.3570 -2.2215 -0.0976
10642SOL    HW235332   9.515  10.860   2.024  0.4132  0.4218  2.0456
10643SOL     OW35333   9.929   3.914   7.384 -0.5027 -0.4869  0.4052
10643SOL    HW135334   9.921   3.999   7.340 -1.6665 -0.1890  1.2066
10643SOL    HW235335   9.854   3.909   7.443  0.2572 -1.5232  1.3082
10644SOL     OW35336   0.812   6.141   6.495 -0.7050 -0.4395  0.1253
10644SOL    HW135337   0.874   6.079   6.533 -0.3935 -0.8039 -0.9815
10644SOL    HW235338   0.814   6.216   6.555  0.6969 -0.5011  0.1707
10645SOL     OW35339   2.933   7.449   8.634 -0.2641 -0.5591 -0.4083
10645SOL    HW135340   3.025   7.424   8.644  0.6288  2.7023 -0.0770
10645SOL    HW235341   2.933   7.512   8.562 -2.3074 -0.7127 -0.5723
10646SOL     OW35342   5.850   8.911   8.670  0.3604  0.0946  0.0455
10646SOL    HW135343   5.898   8.878   8.745  0.5371  0.5509  0.1369
10646SOL    HW235344   5.777   8.850   8.659 -0.0624  0.4220  1.0090
10647SOL     OW35345   6.745   2.116   4.042 -0.0790 -0.0100 -0.1336
10647SOL    HW135346   6.797   2.092   3.966 -0.5972 -1.3824 -0.0785
10647SOL    HW235347   6.767   2.207   4.059 -0.3602  0.4797 -2.2614
10648SOL     OW35348   3.646   5.373   5.462 -0.4316  0.2029  0.7607
10648SOL    HW135349   3.704   5.417   5.524 -0.3754 -0.0495  0.8850
10648SOL    HW235350   3.566   5.355   5.511 -0.2840 -0.2444  0.8389
10649SOL     OW35351   1.683   2.916   1.915  0.6321 -0.0395  0.0189
10649SOL    HW135352   1.658   2.999   1.873  0.1950 -0.3106 -0.2684
10649SOL    HW235353   1.641   2.918   2.000  0.6031  0.0270  0.0027
10650SOL     OW35354   6.157   4.922   8.752  0.5775  0.0911  0.2771
10650SOL    HW135355   6.111   4.846   8.717  1.9723 -0.5836 -0.1351
10650SOL    HW235356   6.239   4.887   8.787  1.3360  1.4199 -0.1243
10651SOL     OW35357   9.734   8.031   7.443  0.3680  0.0984  0.0381
10651SOL    HW135358   9.732   8.071   7.530 -0.2300 -0.8182  0.4427
10651SOL    HW235359   9.703   7.942   7.456  1.7972 -0.5482 -0.8564
10652SOL     OW35360   0.993  10.645   6.990  0.1675 -0.7480  0.0528
10652SOL    HW135361   0.923  10.684   7.043 -0.9619 -3.0983  0.3787
10652SOL    HW235362   1.006  10.706   6.918 -1.3643  0.3492  0.6787
10653SOL     OW35363   3.279   7.936   1.071 -0.1429  0.1826  0.4647
10653SOL    HW135364   3.214   7.986   1.120 -0.3885  1.1821 -0.8603
10653SOL    HW235365   3.355   7.994   1.067  0.8429 -0.9621  1.9625
10654SOL     OW35366   3.111   0.130   1.950  0.1188  0.0800  0.0320
10654SOL    HW135367   3.121   0.217   1.913 -0.9177  0.3221  0.2954
10654SOL    HW235368   3.083   0.075   1.876  0.5972  0.0012 -0.0946
10655SOL     OW35369   3.593   9.467   2.674  0.0960  0.2877 -0.3084
10655SOL    HW135370   3.680   9.466   2.636  0.1823 -1.5467 -0.1031
10655SOL    HW235371   3.603   9.514   2.756  1.0579 -0.5797  0.0820
10656SOL     OW35372   6.633  10.866   0.345  0.3403 -0.2999 -0.5784
10656SOL    HW135373   6.625  10.919   0.425  0.5000 -0.8572 -0.1863
10656SOL    HW235374   6.543  10.840   0.325  0.4860 -1.7087  0.4933
10657SOL     OW35375   4.369   6.353   8.678 -0.4292  0.1094 -0.3066
10657SOL    HW135376   4.421   6.292   8.627 -1.4073 -2.0100  1.1647
10657SOL    HW235377   4.341   6.303   8.755 -2.7168  1.8711  0.0712
10658SOL     OW35378   2.748   3.479   4.963  0.0078  0.8541 -0.4309
10658SOL    HW135379   2.798   3.400   4.944  0.1691  0.9734 -0.5037
10658SOL    HW235380   2.712   3.464   5.051 -2.3040 -0.5152 -1.5438
10659SOL     OW35381   6.626   7.867  10.963 -0.4738  0.1968  0.0997
10659SOL    HW135382   6.555   7.918  11.002  0.5463  0.8723  1.0977
10659SOL    HW235383   6.673   7.830  11.037  1.1801  1.0742 -0.4789
10660SOL     OW35384   7.832   0.367   7.312 -0.1202  0.4646 -0.0514
10660SOL    HW135385   7.882   0.415   7.378 -0.8848  1.0166  0.1340
10660SOL    HW235386   7.768   0.431   7.280 -1.1169 -0.4073  0.1668
10661SOL     OW35387   1.972   6.733   0.610  0.2348 -0.4933 -0.1207
10661SOL    HW135388   1.923   6.795   0.556  0.0132  0.1254  0.7771
10661SOL    HW235389   2.054   6.777   0.630  0.4501 -0.8470 -0.2126
10662SOL     OW35390   1.192   7.829   6.753  0.1142 -0.2184 -0.6869
10662SOL    HW135391   1.268   7.884   6.733 -0.5177  0.8296 -0.2907
10662SOL    HW235392   1.174   7.848   6.846  0.3519 -1.6724 -0.3438
10663SOL     OW35393   0.396  10.268   0.778  0.3598  0.1419 -0.2745
10663SOL    HW135394   0.440  10.298   0.698  0.1099 -0.5120 -0.6619
10663SOL    HW235395   0.429  10.326   0.846  0.1620  1.0612 -0.9442
10664SOL     OW35396   1.865   5.495   4.185 -0.1653 -0.0557 -0.1388
10664SOL    HW135397   1.862   5.575   4.134 -0.3325  0.0254 -0.0009
10664SOL    HW235398   1.774   5.476   4.207 -0.1284 -0.2855 -0.1732
10665SOL     OW35399   5.724   3.260   8.702  0.2393  0.8624  0.0803
10665SOL    HW135400   5.753   3.347   8.730 -0.1082  0.9806  0.0743
10665SOL    HW235401   5.629   3.262   8.712  0.3687 -0.0937  1.7316
10666SOL     OW35402   8.308   4.526   4.983  0.1322 -0.0843  0.3016
10666SOL    HW135403   8.294   4.517   4.889 -0.4010  0.5856  0.3122
10666SOL    HW235404   8.280   4.615   5.003  1.4310  0.2032  0.8875
10667SOL     OW35405   8.245   9.205   8.620 -0.3108  0.0219  0.4518
10667SOL    HW135406   8.250   9.112   8.600 -0.2578  0.2962 -0.8776
10667SOL    HW235407   8.152   9.226   8.615 -0.3134  0.0661  0.6714
10668SOL     OW35408   7.570   6.473   2.504  0.2101 -0.2043  0.1360
10668SOL    HW135409   7.513   6.518   2.441  0.1333 -0.2239  0.1921
10668SOL    HW235410   7.515   6.462   2.582 -0.1365 -1.4261 -0.2794
10669SOL     OW35411   1.249   3.546   8.219 -0.2224  0.7111 -0.0999
10669SOL    HW135412   1.185   3.528   8.288  0.5832 -0.8322  0.2634
10669SOL    HW235413   1.209   3.615   8.167 -1.8065  0.3670  0.6269
10670SOL     OW35414   6.259   3.165   7.887  0.3115 -0.0278  0.0976
10670SOL    HW135415   6.315   3.211   7.825 -1.9931  2.7463 -0.0252
10670SOL    HW235416   6.231   3.086   7.840  0.1315  1.0718 -1.6682
10671SOL     OW35417   8.139   8.663   5.541  0.1716 -0.5173 -0.2681
10671SOL    HW135418   8.196   8.629   5.473  3.5141  1.0974  1.5567
10671SOL    HW235419   8.147   8.601   5.613  1.5780  0.9429  0.8756
10672SOL     OW35420  10.280   5.537   9.414  0.6702 -0.9610  0.1167
10672SOL    HW135421  10.312   5.588   9.340 -0.3059 -2.3605 -1.3046
10672SOL    HW235422  10.354   5.483   9.440  0.7733 -1.0623 -0.3794
10673SOL     OW35423   6.906   4.805   2.495 -0.0767  0.0885 -0.1527
10673SOL    HW135424   6.866   4.877   2.446  1.4214  0.4824 -0.8428
10673SOL    HW235425   6.917   4.735   2.430 -2.3353 -1.1416  0.7089
10674SOL     OW35426   2.657   1.105   2.305  0.0349  0.2106 -0.5131
10674SOL    HW135427   2.587   1.048   2.275 -0.4618  0.6945 -0.2706
10674SOL    HW235428   2.614   1.171   2.359  0.4881  1.3141 -1.4589
10675SOL     OW35429   8.620   2.871  10.170 -0.5810 -0.1788 -0.1945
10675SOL    HW135430   8.692   2.887  10.230 -1.3211  0.3204  0.5737
10675SOL    HW235431   8.599   2.778  10.181 -1.7423  0.2678  1.4867
10676SOL     OW35432   7.932   9.800   4.795 -0.0945  0.4924 -0.2734
10676SOL    HW135433   8.026   9.795   4.777 -0.2429 -0.2801 -0.8042
10676SOL    HW235434   7.896   9.718   4.763 -1.0225  0.9572 -0.4302
10677SOL     OW35435   7.094   6.767   8.645 -0.0391  0.0573 -0.3599
10677SOL    HW135436   7.078   6.765   8.739 -0.3876  0.1497 -0.4167
10677SOL    HW235437   7.165   6.830   8.634 -0.1457  0.2119 -0.1770
10678SOL     OW35438   9.736   1.804   7.690  0.0224  0.1325  0.3854
10678SOL    HW135439   9.720   1.731   7.631 -1.1064  0.7168 -0.0425
10678SOL    HW235440   9.651   1.847   7.700  0.9985  2.4098 -0.7278
10679SOL     OW35441   6.254   5.708   0.564 -0.9241  0.1745 -0.3396
10679SOL    HW135442   6.285   5.773   0.627 -0.6022 -1.7521  1.5462
10679SOL    HW235443   6.227   5.760   0.487  1.4711  2.3374  0.2028
10680SOL     OW35444   2.454   4.148   4.292 -0.4520  0.3847 -0.4100
10680SOL    HW135445   2.498   4.068   4.322  0.0805  1.3911  1.5689
10680SOL    HW235446   2.395   4.118   4.222  0.2459 -1.6291 -0.1685
10681SOL     OW35447   6.010   5.969   9.206  0.3484 -0.1392  0.3058
10681SOL    HW135448   6.026   6.044   9.148  1.8157  0.2566  1.1986
10681SOL    HW235449   6.092   5.919   9.205 -0.4814 -1.5138  0.0394
10682SOL     OW35450   3.983   8.648   1.512 -0.1614  0.3469  0.0413
10682SOL    HW135451   4.004   8.710   1.582 -0.2140  1.2233 -0.7047
10682SOL    HW235452   3.937   8.576   1.556  0.1157  0.7245  0.9523
10683SOL     OW35453   8.269   1.468   2.321 -0.5665 -0.1457 -0.8551
10683SOL    HW135454   8.190   1.415   2.330  1.0816 -2.4678  0.6146
10683SOL    HW235455   8.319   1.424   2.251  0.9034 -0.6840  0.5131
10684SOL     OW35456  10.080   8.966   8.085  0.2876  0.4826  0.2026
10684SOL    HW135457  10.095   8.898   8.151  0.8403  1.2773  0.9121
10684SOL    HW235458  10.165   8.978   8.043 -0.1107 -0.1596 -0.7975
10685SOL     OW35459   2.645   4.738   9.904 -0.0472 -0.1718 -0.4111
10685SOL    HW135460   2.623   4.828   9.881  0.9095  0.0372 -0.5498
10685SOL    HW235461   2.718   4.716   9.846  0.8152 -0.4705  0.7635
10686SOL     OW35462   2.033   1.862   5.738 -0.0056  0.6918  0.2113
10686SOL    HW135463   1.960   1.921   5.758 -0.0049  0.1762  1.7788
10686SOL    HW235464   2.107   1.898   5.787 -0.2458 -1.1442  1.9719
10687SOL     OW35465  10.251   0.341   6.155  0.4993 -0.0838  0.4920
10687SOL    HW135466  10.304   0.413   6.121  0.4459  0.4965  1.6056
10687SOL    HW235467  10.232   0.366   6.245 -1.3525 -0.4707  0.2340
10688SOL     OW35468   9.931   0.822   9.218 -0.9962 -0.2590  0.3125
10688SOL    HW135469   9.851   0.868   9.195 -0.7568 -0.8103 -1.6852
10688SOL    HW235470   9.928   0.740   9.169 -0.2137 -1.2716  1.8798
10689SOL     OW35471   0.032  10.280  10.935  0.4482  0.2390  0.2036
10689SOL    HW135472   0.095  10.208  10.947  0.7388  0.2013 -1.4384
10689SOL    HW235473   0.078  10.357  10.969  0.5565 -0.1452  0.9584
10690SOL     OW35474   3.122   0.915  10.827  0.2457 -0.0887  0.6302
10690SOL    HW135475   3.076   0.845  10.780 -0.6658  1.5255 -0.9259
10690SOL    HW235476   3.058   0.947  10.891  0.0533  0.4694  0.1651
10691SOL     OW35477   5.717   1.479   0.751 -0.3171 -0.0891  0.4847
10691SOL    HW135478   5.788   1.419   0.730  0.6969  0.8551  1.1362
10691SOL    HW235479   5.681   1.447   0.833 -0.3958 -0.3384  0.3547
10692SOL     OW35480   0.803   0.971   8.249  0.2968 -0.5090  0.0923
10692SOL    HW135481   0.842   1.044   8.201 -1.0104  0.0728 -0.1296
10692SOL    HW235482   0.730   0.942   8.193 -1.7581  0.7150  2.0541
10693SOL     OW35483   5.016  10.978   1.033  0.1126  0.2210 -0.4407
10693SOL    HW135484   5.017  11.048   0.968  1.9791  0.3586 -0.2942
10693SOL    HW235485   5.107  10.972   1.064 -0.4790 -0.7189  1.2047
10694SOL     OW35486   3.072   3.295  10.496  0.8236  0.2088  0.2363
10694SOL    HW135487   3.120   3.372  10.466 -0.1144  0.6107 -0.2571
10694SOL    HW235488   3.087   3.229  10.428  0.4551  0.4261 -0.0582
10695SOL     OW35489   2.827   9.844   4.903 -0.2879  1.0805  0.1023
10695SOL    HW135490   2.849   9.756   4.932  1.1639  1.7588  1.0814
10695SOL    HW235491   2.764   9.875   4.968 -0.2174  1.0590  0.1806
10696SOL     OW35492   5.381  10.970   0.930  0.1970  0.0134 -0.2205
10696SOL    HW135493   5.450  10.906   0.947  0.6556  0.4494 -0.4274
10696SOL    HW235494   5.347  10.992   1.017  1.1607  0.7226 -0.0217
10697SOL     OW35495   9.956   7.974   1.512 -0.3608  0.2082  0.1625
10697SOL    HW135496   9.942   7.925   1.431 -0.1405  0.0389  0.2254
10697SOL    HW235497   9.972   8.064   1.484  0.3582  0.0281 -0.0246
10698SOL     OW35498   3.943   3.360   1.643 -0.3119  0.4703  0.1540
10698SOL    HW135499   3.877   3.421   1.676 -0.2609  2.6943 -3.5708
10698SOL    HW235500   4.019   3.414   1.624  0.5858 -1.1547 -0.9920
10699SOL     OW35501   3.479  10.926   1.471  0.2476 -0.1247  0.4072
10699SOL    HW135502   3.560  10.919   1.522  0.4400 -1.2652 -0.0361
10699SOL    HW235503   3.410  10.929   1.537  0.6035  0.0709  0.7713
10700SOL     OW35504   8.545  10.501   7.831  0.3473 -0.0616  0.4191
10700SOL    HW135505   8.545  10.410   7.860 -0.1317 -0.0044  0.6031
10700SOL    HW235506   8.632  10.534   7.854 -0.0661  0.0160  1.8723
10701SOL     OW35507  10.755   0.722   0.706  0.4689 -0.1201  0.4458
10701SOL    HW135508  10.832   0.676   0.742  0.7501 -0.1380 -0.1736
10701SOL    HW235509  10.681   0.667   0.731  0.5164  0.5805  2.2047
10702SOL     OW35510   8.358   8.926   0.205  0.3029  0.3373 -0.1308
10702SOL    HW135511   8.390   9.000   0.154 -0.0014  0.2738 -0.4212
10702SOL    HW235512   8.405   8.931   0.288  0.4835  0.6961 -0.2549
10703SOL     OW35513   3.221   3.549   2.812 -0.4819  0.3776 -0.4377
10703SOL    HW135514   3.204   3.618   2.876  1.6811  1.0812 -0.5870
10703SOL    HW235515   3.261   3.594   2.738  1.1401 -1.0472 -0.4558
10704SOL     OW35516   8.839   9.590   5.331  0.4385 -0.0984  0.6027
10704SOL    HW135517   8.745   9.580   5.346  0.7662 -1.4765  1.8325
10704SOL    HW235518   8.847   9.590   5.235 -0.7937 -0.1908  0.4871
10705SOL     OW35519   5.234   1.916   3.960 -0.1566 -0.5148 -0.3481
10705SOL    HW135520   5.305   1.864   3.923 -2.3238 -4.3957  0.7334
10705SOL    HW235521   5.273   1.955   4.039  1.4952 -0.4255 -1.1777
10706SOL     OW35522   5.094   8.528   5.680 -0.8925  0.1966  0.0248
10706SOL    HW135523   5.044   8.544   5.600 -0.6198 -0.6552 -0.3163
10706SOL    HW235524   5.163   8.467   5.654  0.7671  1.8824  0.3150
10707SOL     OW35525  10.337   3.879   8.487 -0.1256 -0.0041  0.1224
10707SOL    HW135526  10.297   3.801   8.448  0.3266 -0.2252  0.0983
10707SOL    HW235527  10.411   3.846   8.537 -0.9755  0.2235  1.5817
10708SOL     OW35528   5.575   4.029   3.988 -0.4470  0.2894  0.2911
10708SOL    HW135529   5.655   3.991   4.025 -0.8362 -1.4059 -0.5770
10708SOL    HW235530   5.520   4.048   4.065 -0.0354 -0.4248  0.7655
10709SOL     OW35531   4.311   4.994   0.597 -1.2378  0.4475  0.0918
10709SOL    HW135532   4.224   5.033   0.606 -1.2682  0.4123 -0.0379
10709SOL    HW235533   4.308   4.950   0.512 -0.8939  0.9613 -0.1931
10710SOL     OW35534  10.292   3.129  10.040  0.2571 -0.1445  0.6975
10710SOL    HW135535  10.284   3.206   9.984 -1.6754 -1.3746 -0.7736
10710SOL    HW235536  10.252   3.155  10.123 -0.8595  0.2768  0.0330
10711SOL     OW35537   0.407   5.216   4.160  0.3514  0.5629  0.4080
10711SOL    HW135538   0.468   5.195   4.231 -0.6077 -0.5477  0.9128
10711SOL    HW235539   0.321   5.196   4.195 -0.0054 -1.9715 -1.7437
10712SOL     OW35540   1.190   0.352   9.259 -0.6147  0.0289  0.1304
10712SOL    HW135541   1.190   0.443   9.289 -0.1387  0.1880 -0.3494
10712SOL    HW235542   1.132   0.307   9.320  0.1686  0.4003  1.1624
10713SOL     OW35543   8.968   9.503   0.333  0.1391  0.2105  0.2406
10713SOL    HW135544   9.003   9.585   0.299 -0.9674  0.3194 -0.6684
10713SOL    HW235545   8.905   9.529   0.400  0.3680  0.0774  0.5089
10714SOL     OW35546  10.271   6.649   5.558  0.0666 -0.0944  0.5014
10714SOL    HW135547  10.277   6.620   5.649 -0.6122  0.5997  0.7674
10714SOL    HW235548  10.344   6.604   5.514 -0.8669 -2.1103  0.9241
10715SOL     OW35549   8.826   4.772   7.291 -0.6477 -0.1479 -0.1561
10715SOL    HW135550   8.762   4.701   7.282 -0.4575 -0.3023 -0.2846
10715SOL    HW235551   8.907   4.728   7.319 -0.2025 -0.1236 -1.3855
10716SOL     OW35552   0.749   3.496   0.042  0.1815 -0.0717  0.7843
10716SOL    HW135553   0.718   3.486  -0.048  0.3431  2.4257  0.3988
10716SOL    HW235554   0.844   3.502   0.033  0.1704  0.5532  1.0705
10717SOL     OW35555   7.578   7.002   1.444  0.1036 -0.4007 -0.2011
10717SOL    HW135556   7.564   7.090   1.480  0.2530  0.0565 -1.2216
10717SOL    HW235557   7.510   6.948   1.484 -2.7807  1.1237 -2.8378
10718SOL     OW35558   5.985   7.242   2.405  0.0753 -0.5013  0.4967
10718SOL    HW135559   6.065   7.238   2.353 -0.6930 -1.8376 -0.6203
10718SOL    HW235560   6.013   7.224   2.495  1.1103 -0.2986  0.2151
10719SOL     OW35561   9.041   3.666   3.534 -0.5862  0.2751 -0.3940
10719SOL    HW135562   9.126   3.630   3.509 -0.4355 -1.4062  2.3686
10719SOL    HW235563   9.062   3.741   3.590 -0.9389  1.7307 -2.1695
10720SOL     OW35564   5.130   5.062   0.678 -0.0425  0.4580 -0.0536
10720SOL    HW135565   5.048   5.094   0.716 -0.5663  0.4342 -1.1522
10720SOL    HW235566   5.113   4.970   0.658  0.7957  0.0083  1.2108
10721SOL     OW35567   0.058   3.402  10.057  0.1320 -0.0519  0.1938
10721SOL    HW135568  -0.019   3.359  10.020 -0.2646 -0.1813  1.1581
10721SOL    HW235569   0.131   3.368  10.005 -0.2382 -1.4653  0.5778
10722SOL     OW35570   5.400   5.094   4.395  0.3796 -0.1417  1.0277
10722SOL    HW135571   5.332   5.028   4.389  0.1104 -0.0513  2.8247
10722SOL    HW235572   5.476   5.055   4.352 -0.3555 -0.8301  0.3469
10723SOL     OW35573   8.175  10.167   2.450  0.6709  0.0707  0.0498
10723SOL    HW135574   8.164  10.078   2.416 -0.4880  0.8090 -1.5493
10723SOL    HW235575   8.267  10.171   2.477  0.9403 -1.3548 -0.6335
10724SOL     OW35576   6.266  10.235   2.537 -0.5867 -0.9927 -0.2143
10724SOL    HW135577   6.246  10.159   2.483 -1.0244 -0.2350 -1.1324
10724SOL    HW235578   6.305  10.199   2.616  0.3291 -2.1076 -1.1501
10725SOL     OW35579   6.265   1.910   1.082  0.4662 -0.0623 -0.3186
10725SOL    HW135580   6.187   1.873   1.041 -0.3084  0.7913  0.3377
10725SOL    HW235581   6.327   1.922   1.011 -0.7763  1.2005 -1.2254
10726SOL     OW35582   9.173   2.767   7.092 -0.4111 -0.0977  0.3885
10726SOL    HW135583   9.121   2.687   7.084  1.0463 -0.9490 -0.8527
10726SOL    HW235584   9.257   2.737   7.126  0.1056  0.9256  0.0201
10727SOL     OW35585   6.993   0.919   1.036  0.1019  0.1637  0.4285
10727SOL    HW135586   6.936   0.888   0.966 -0.9448 -0.2007  1.4221
10727SOL    HW235587   6.936   0.968   1.094  0.6604 -0.7214  1.7653
10728SOL     OW35588  10.822   3.168   5.201 -0.2682  0.2201  0.2626
10728SOL    HW135589  10.730   3.180   5.181 -0.7734 -0.8117  1.8484
10728SOL    HW235590  10.849   3.093   5.149 -0.0823  1.0704 -0.8802
10729SOL     OW35591  10.764   4.498   9.601 -0.0701 -0.5552  0.2809
10729SOL    HW135592  10.835   4.461   9.549 -0.3742 -2.8065  1.3980
10729SOL    HW235593  10.684   4.473   9.553 -0.1336  1.8298 -0.8920
10730SOL     OW35594   8.458   0.263   8.086  0.2528 -0.0761 -0.1506
10730SOL    HW135595   8.521   0.242   8.017  1.6118 -0.3199  1.1587
10730SOL    HW235596   8.395   0.190   8.083  1.0401 -0.7552 -0.2557
10731SOL     OW35597  10.331   3.817   7.551 -0.1765  0.1250 -0.5597
10731SOL    HW135598  10.273   3.798   7.478  0.6813  0.0509 -1.2224
10731SOL    HW235599  10.354   3.731   7.587 -1.2025  0.1854  0.2916
10732SOL     OW35600   0.133   8.678   1.476 -0.0534 -0.8684 -0.1751
10732SOL    HW135601   0.182   8.756   1.449 -0.1544 -0.9840 -0.6969
10732SOL    HW235602   0.069   8.710   1.539 -0.2749 -0.4890 -0.5960
10733SOL     OW35603   8.059   4.774   8.425  0.5238 -0.0290  0.1333
10733SOL    HW135604   7.967   4.752   8.443  0.2748  1.7072  1.0628
10733SOL    HW235605   8.059   4.799   8.333 -0.0415  0.5335  0.2840
10734SOL     OW35606   5.093   1.110  10.182  0.0232 -0.3249 -0.8282
10734SOL    HW135607   5.049   1.181  10.136 -0.5515 -0.1383  0.0084
10734SOL    HW235608   5.147   1.153  10.247 -0.2074 -0.6479 -0.4208
10735SOL     OW35609   9.499   4.068   9.660  0.7823  0.2547  0.1269
10735SOL    HW135610   9.506   4.019   9.742  0.9098 -1.0274 -0.6337
10735SOL    HW235611   9.420   4.034   9.619  0.1183  1.6627  0.2033
10736SOL     OW35612   9.754   2.885  10.638 -0.2209 -0.7479 -0.5769
10736SOL    HW135613   9.717   2.845  10.716  0.6060  0.5911  0.5334
10736SOL    HW235614   9.835   2.926  10.668  1.3286 -2.1779 -2.6082
10737SOL     OW35615   9.337   6.902   9.002  0.8937 -0.1193 -0.0264
10737SOL    HW135616   9.429   6.880   9.015  0.2538 -3.3167 -0.6002
10737SOL    HW235617   9.298   6.899   9.090  1.1428  0.3760  0.1025
10738SOL     OW35618   6.423   7.229   7.360 -0.1725  0.3652 -0.0197
10738SOL    HW135619   6.424   7.278   7.278 -1.7176 -0.5640 -0.6062
10738SOL    HW235620   6.503   7.256   7.405 -0.1242  2.0954 -1.1080
10739SOL     OW35621   9.082   8.023   6.116  0.2547 -0.3327 -0.0150
10739SOL    HW135622   9.083   7.927   6.107  1.0675 -0.4146  0.9184
10739SOL    HW235623   9.004   8.041   6.169  0.3749 -0.5121  0.2237
10740SOL     OW35624   7.766   5.536   1.375 -0.4859  1.0086 -0.2948
10740SOL    HW135625   7.685   5.516   1.327 -0.8759  0.5524  0.5598
10740SOL    HW235626   7.836   5.508   1.315 -0.9522  1.2074 -0.9465
10741SOL     OW35627   8.453   4.151   6.554 -0.3901 -0.2594 -0.3029
10741SOL    HW135628   8.479   4.085   6.490  0.0869 -0.0307 -0.3425
10741SOL    HW235629   8.406   4.217   6.503  1.2616  0.6520 -0.6409
10742SOL     OW35630   1.390  10.536   2.138 -0.4789 -0.2897  0.6702
10742SOL    HW135631   1.451  10.497   2.201  0.7560 -2.2836 -1.6623
10742SOL    HW235632   1.314  10.561   2.191  0.4233 -2.0961  2.9152
10743SOL     OW35633   0.967   4.056   4.701  0.0014 -0.3691  0.4911
10743SOL    HW135634   0.994   3.976   4.655  1.1509  0.1402  0.2630
10743SOL    HW235635   0.879   4.036   4.733 -0.0057 -1.4752 -0.1654
10744SOL     OW35636   1.522  10.618   4.996 -0.8222  0.4494 -0.0746
10744SOL    HW135637   1.428  10.613   5.015 -0.8774 -1.3416 -0.6517
10744SOL    HW235638   1.564  10.611   5.081 -1.2334  3.4585  0.4040
10745SOL     OW35639   0.140   5.999   3.033  0.1733  0.0106  0.0636
10745SOL    HW135640   0.124   5.910   3.062 -0.7294  0.5694  1.3250
10745SOL    HW235641   0.052   6.034   3.013  0.5418  0.5177 -0.7218
10746SOL     OW35642   8.027   2.770   2.850 -0.2008  0.3147  0.0155
10746SOL    HW135643   7.931   2.777   2.852 -0.2604 -0.1598 -0.8814
10746SOL    HW235644   8.047   2.691   2.899 -0.4103 -0.7722 -1.6335
10747SOL     OW35645   6.092   0.234   2.025  0.0679 -0.3606  0.2068
10747SOL    HW135646   6.025   0.303   2.031  0.8292  0.6444 -2.1315
10747SOL    HW235647   6.072   0.189   1.943  0.3421 -2.1501  1.1030
10748SOL     OW35648   7.579   9.927   1.314  0.4891  0.1098 -0.0359
10748SOL    HW135649   7.523   9.934   1.391 -0.5514  2.6383 -0.9911
10748SOL    HW235650   7.576   9.834   1.291 -1.0634 -0.2637  1.5808
10749SOL     OW35651   3.657   9.681   3.258 -0.0430 -0.1406 -0.1167
10749SOL    HW135652   3.566   9.690   3.229  0.0540 -1.1558 -0.7600
10749SOL    HW235653   3.682   9.769   3.286 -0.6948  0.5060 -1.5010
10750SOL     OW35654   5.090  10.760   8.956 -0.3196  0.1321  0.0236
10750SOL    HW135655   5.120  10.683   8.908  1.1253  0.4563  0.3778
10750SOL    HW235656   5.025  10.800   8.899  2.1565  1.1196 -2.2381
10751SOL     OW35657   8.844   2.834   0.303 -0.3913 -0.2955 -0.7065
10751SOL    HW135658   8.797   2.855   0.384 -1.9766 -1.4346 -1.3144
10751SOL    HW235659   8.840   2.914   0.251  1.3174  0.7095  0.6316
10752SOL     OW35660   0.964   6.568   7.374  0.1034 -0.2915  0.2382
10752SOL    HW135661   0.995   6.636   7.434  2.3252  0.9857 -2.2567
10752SOL    HW235662   0.923   6.616   7.302  0.9575 -1.6010 -1.1634
10753SOL     OW35663   4.135   6.523   6.621  0.1105  0.7653  0.2112
10753SOL    HW135664   4.224   6.500   6.595  0.2070  2.1998 -0.7935
10753SOL    HW235665   4.125   6.487   6.709  2.2679  2.0040  1.0033
10754SOL     OW35666   8.559   7.306   9.012 -0.2686 -0.0840  0.6563
10754SOL    HW135667   8.597   7.256   8.939  1.4267  0.1519  1.3549
10754SOL    HW235668   8.477   7.261   9.031 -0.0875 -0.9568 -0.5200
10755SOL     OW35669   5.684   8.098   5.549 -0.0472  0.4263  0.1911
10755SOL    HW135670   5.743   8.024   5.534 -0.8321 -0.0989 -0.3440
10755SOL    HW235671   5.617   8.064   5.608 -0.1863  0.8329  0.2699
10756SOL     OW35672   4.741  10.633   1.654 -0.1792  0.8908  0.0699
10756SOL    HW135673   4.817  10.639   1.596  0.3215  1.2340  0.7506
10756SOL    HW235674   4.740  10.542   1.683 -1.2644  0.3574 -1.5741
10757SOL     OW35675   2.001   3.722   7.966 -0.0780  0.2468  0.3236
10757SOL    HW135676   2.089   3.757   7.959 -0.3624  0.8022 -0.5462
10757SOL    HW235677   1.977   3.736   8.058  0.6708  0.2439  0.5216
10758SOL     OW35678   6.780   1.050   1.208 -0.2958  0.8742  0.1604
10758SOL    HW135679   6.785   1.134   1.254  2.7726  0.6799  0.3346
10758SOL    HW235680   6.756   0.987   1.276  1.9682  0.9514  1.1038
10759SOL     OW35681   9.608   2.948   8.430  0.0246  0.3528  0.5088
10759SOL    HW135682   9.659   3.006   8.372  0.3320 -0.7880 -0.3933
10759SOL    HW235683   9.674   2.895   8.474 -0.3318 -0.6632 -0.1563
10760SOL     OW35684   8.653   8.571   5.262  0.2129  0.1459 -0.3971
10760SOL    HW135685   8.740   8.544   5.291 -0.3744 -1.2154  0.1252
10760SOL    HW235686   8.626   8.504   5.200  0.0658  1.2745 -1.5932
10761SOL     OW35687   1.029   9.444   6.042 -0.1653 -0.1904  0.6550
10761SOL    HW135688   1.072   9.401   5.969 -0.9450  0.5143 -0.2319
10761SOL    HW235689   0.935   9.434   6.024 -0.4088  3.3947 -0.5387
10762SOL     OW35690   3.802   3.567   0.467 -0.2977  0.3795 -0.5139
10762SOL    HW135691   3.893   3.579   0.442  0.5575  1.1419  2.7621
10762SOL    HW235692   3.763   3.654   0.460 -0.3117  0.3986 -0.2140
10763SOL     OW35693   3.980   2.877   0.083 -0.0446  0.0890  0.2113
10763SOL    HW135694   4.042   2.928   0.031 -0.6392  0.5478 -0.0465
10763SOL    HW235695   3.959   2.933   0.158  0.3601 -0.3348  0.6489
10764SOL     OW35696   6.831   0.264   1.984  0.3669  0.5240 -0.1390
10764SOL    HW135697   6.751   0.219   2.010 -0.2843  1.5069 -0.3941
10764SOL    HW235698   6.898   0.195   1.979 -0.7355 -0.4974 -1.0756
10765SOL     OW35699   3.564   7.730   7.364  0.2980 -0.4270  0.6336
10765SOL    HW135700   3.499   7.774   7.418  0.2244  0.9708 -0.5616
10765SOL    HW235701   3.577   7.644   7.406 -1.5945 -0.3405  1.4122
10766SOL     OW35702  10.655   5.269   5.252  0.1397  0.8530 -0.0335
10766SOL    HW135703  10.718   5.269   5.180 -2.6122  0.0106 -2.5794
10766SOL    HW235704  10.692   5.209   5.316  1.8713  0.2739 -1.5131
10767SOL     OW35705   1.394   6.913   9.425  0.0305  0.9056  0.0780
10767SOL    HW135706   1.335   6.944   9.357  0.4602  0.4571 -0.5029
10767SOL    HW235707   1.412   6.822   9.401  0.7095  0.9487  0.4264
10768SOL     OW35708  10.719   6.765   1.421  0.0837  0.2512  0.0232
10768SOL    HW135709  10.786   6.768   1.490  0.7373 -0.8596 -0.5565
10768SOL    HW235710  10.693   6.673   1.417 -0.4484  0.4329 -0.7541
10769SOL     OW35711   6.816   4.484   1.978  0.1937 -0.2059  0.5485
10769SOL    HW135712   6.746   4.499   1.914 -0.4351 -2.2504  0.7287
10769SOL    HW235713   6.870   4.563   1.974  0.0256 -0.2070 -2.3384
10770SOL     OW35714   6.369   2.538   3.693  0.8644 -0.3732 -0.1820
10770SOL    HW135715   6.314   2.470   3.654 -0.5838  1.5254 -1.5625
10770SOL    HW235716   6.430   2.562   3.623  1.0836  0.0585  0.1593
10771SOL     OW35717   3.688   2.070   3.671  0.2926 -0.5792 -0.0530
10771SOL    HW135718   3.663   2.101   3.584  1.0030 -1.1561 -0.4632
10771SOL    HW235719   3.732   1.987   3.656 -0.7247 -1.3299  0.9647
10772SOL     OW35720   0.524   0.315   5.678 -0.3111 -0.1165 -0.2615
10772SOL    HW135721   0.567   0.369   5.612 -1.2155 -1.4554 -1.9681
10772SOL    HW235722   0.557   0.226   5.663 -0.2141 -0.3785  1.3494
10773SOL     OW35723   7.575  10.210   0.255  0.1855 -0.1910 -0.4654
10773SOL    HW135724   7.557  10.118   0.274 -0.4287 -0.1609 -0.8810
10773SOL    HW235725   7.493  10.243   0.220  0.4403  0.4901 -0.4169
10774SOL     OW35726   4.988   3.062  10.375  0.2184 -0.5194  0.3646
10774SOL    HW135727   5.041   2.984  10.358  1.0399  0.2424 -0.6359
10774SOL    HW235728   4.915   3.031  10.429 -0.2150 -2.2548 -1.1671
10775SOL     OW35729   5.027   2.013   2.405 -0.2423 -0.2351  0.3427
10775SOL    HW135730   5.003   1.997   2.313 -0.7296  0.9065  0.2626
10775SOL    HW235731   4.956   1.973   2.455 -0.4264 -0.0958  0.1964
10776SOL     OW35732   1.378   2.013   7.438 -0.2232  0.0133 -0.2408
10776SOL    HW135733   1.437   2.081   7.469 -0.2422  0.3327 -0.9054
10776SOL    HW235734   1.382   1.945   7.506  1.9639 -0.5876 -0.9238
10777SOL     OW35735   3.429   5.739   0.129 -0.2195  0.7581  0.2802
10777SOL    HW135736   3.452   5.824   0.091  0.3375 -0.0899 -1.3768
10777SOL    HW235737   3.376   5.696   0.061 -0.4965 -0.2164  1.0940
10778SOL     OW35738   1.806   9.662   9.410 -0.5926 -0.2061  0.0688
10778SOL    HW135739   1.892   9.704   9.404  0.1066 -1.3143  1.9062
10778SOL    HW235740   1.817   9.578   9.366 -1.4741  0.7025 -1.9520
10779SOL     OW35741   2.226   2.613   7.116 -0.0077 -0.0741  0.5362
10779SOL    HW135742   2.166   2.541   7.135  0.8083 -0.4809  1.6474
10779SOL    HW235743   2.221   2.669   7.193  2.0984 -0.8648  1.3023
10780SOL     OW35744  10.582   4.527   6.682  0.0098 -0.4873 -1.3357
10780SOL    HW135745  10.640   4.503   6.754 -0.9674 -0.2454 -0.4420
10780SOL    HW235746  10.573   4.622   6.690 -0.8568 -0.5745 -1.1737
10781SOL     OW35747  10.809   9.833   7.530 -0.1737  0.2352 -0.4550
10781SOL    HW135748  10.784   9.916   7.572 -0.2305  0.2199 -0.4590
10781SOL    HW235749  10.728   9.784   7.522  0.2488 -0.9799  2.0721
10782SOL     OW35750   3.470   1.526   1.837 -0.7146 -0.1224  0.0204
10782SOL    HW135751   3.525   1.464   1.788  0.6602  0.8384  0.3118
10782SOL    HW235752   3.404   1.471   1.879  0.5204 -1.4053  0.3174
10783SOL     OW35753   1.254   9.049  10.207  0.5760  0.0218 -0.0912
10783SOL    HW135754   1.300   9.129  10.178 -1.4942  1.3581  0.2092
10783SOL    HW235755   1.204   9.022  10.130 -1.0229  0.7090  0.6979
10784SOL     OW35756   2.620   0.101   7.680 -0.0437  0.1316  0.0546
10784SOL    HW135757   2.699   0.151   7.660  0.0358  0.1742  0.4711
10784SOL    HW235758   2.610   0.108   7.775 -1.6130  1.7234 -0.2008
10785SOL     OW35759   6.140   5.972   3.115 -0.2499 -0.4268  0.1064
10785SOL    HW135760   6.141   5.963   3.020  0.5072  1.7383 -0.1379
10785SOL    HW235761   6.056   6.014   3.134 -0.6313 -1.3481  0.4437
10786SOL     OW35762   8.142   4.096   9.914  0.1612 -0.0365 -0.3722
10786SOL    HW135763   8.085   4.031   9.955 -2.1926  1.8230 -0.5939
10786SOL    HW235764   8.157   4.062   9.826  0.9382 -1.4548  0.2947
10787SOL     OW35765   7.378  10.406   2.538 -0.6014  0.5287 -0.4285
10787SOL    HW135766   7.450  10.440   2.592 -0.6356  0.9496 -0.6502
10787SOL    HW235767   7.412  10.325   2.501 -0.4618  0.4053 -0.0297
10788SOL     OW35768   1.297   2.545  10.888  0.0379  0.1758 -0.0990
10788SOL    HW135769   1.302   2.472  10.949  0.1409  1.2605  1.1892
10788SOL    HW235770   1.275   2.504  10.804 -0.3988 -1.2853  0.7155
10789SOL     OW35771   5.000  10.516   3.757  0.9575 -0.3452 -0.4656
10789SOL    HW135772   5.002  10.446   3.822  1.1960 -1.1263 -1.2820
10789SOL    HW235773   4.989  10.597   3.807 -1.7167 -1.1685  0.3278
10790SOL     OW35774   9.550   3.388   0.478  0.0738  0.2328  0.1403
10790SOL    HW135775   9.463   3.402   0.441  0.6532  0.1974 -1.2654
10790SOL    HW235776   9.547   3.431   0.564 -1.6754 -0.7398  0.5836
10791SOL     OW35777   2.673   1.940   4.023 -0.3945  0.0020  0.5904
10791SOL    HW135778   2.618   2.018   4.026 -0.1405  0.1884  0.4621
10791SOL    HW235779   2.678   1.918   3.929 -0.2592 -0.0193  0.6018
10792SOL     OW35780   6.683   1.901   2.874 -0.1967  0.7228 -0.1089
10792SOL    HW135781   6.634   1.966   2.822  1.7252  2.6696  0.4478
10792SOL    HW235782   6.737   1.953   2.933  1.3605 -1.4097  0.4099
10793SOL     OW35783   3.056   1.161   4.197  0.3989  0.0553  0.0297
10793SOL    HW135784   3.007   1.185   4.118 -1.0267 -0.7755  0.6458
10793SOL    HW235785   3.002   1.094   4.239  1.4910 -0.0089  1.3534
10794SOL     OW35786   3.955   6.606   5.683 -0.0760 -0.1894 -0.6195
10794SOL    HW135787   3.959   6.521   5.728 -5.4006 -0.5210 -0.4999
10794SOL    HW235788   3.946   6.670   5.754  1.0824  0.2426 -0.8473
10795SOL     OW35789   7.636   1.308   6.639  0.4452 -0.2698  0.1235
10795SOL    HW135790   7.570   1.370   6.610  0.5801  0.0816  0.5509
10795SOL    HW235791   7.715   1.361   6.649  0.6554 -0.5843  0.1298
10796SOL     OW35792   2.017   4.026   5.913  0.0808  0.8889  0.1268
10796SOL    HW135793   2.058   3.951   5.871  0.5931  0.9211  0.5664
10796SOL    HW235794   1.970   4.070   5.842 -1.2294 -0.5228  0.1025
10797SOL     OW35795   2.161   2.276   2.361  0.0799  0.3483 -0.1535
10797SOL    HW135796   2.187   2.258   2.451 -1.6844 -1.5245  0.0408
10797SOL    HW235797   2.240   2.261   2.309  0.6339 -0.4447  0.8959
10798SOL     OW35798   7.752   5.008  10.627  0.5807 -0.3870 -0.1079
10798SOL    HW135799   7.789   4.935  10.676  0.0334 -0.7359 -0.2034
10798SOL    HW235800   7.657   4.999  10.639  0.5600  0.9931  0.8577
10799SOL     OW35801   6.581   3.042   8.448 -0.1436  0.2805  0.6851
10799SOL    HW135802   6.556   3.119   8.397  1.5779  0.6016  0.2748
10799SOL    HW235803   6.556   3.064   8.538  0.0710  1.2072  0.5308
10800SOL     OW35804   6.283   9.604   5.455  0.4673  0.0806  0.4870
10800SOL    HW135805   6.243   9.585   5.540  0.0081  1.8705  0.6979
10800SOL    HW235806   6.223   9.565   5.391 -0.2253  0.4264  0.9127
10801SOL     OW35807  10.453   8.892   8.272  0.0039  0.2009  0.8148
10801SOL    HW135808  10.507   8.892   8.351  1.7719 -0.6614 -0.3593
10801SOL    HW235809  10.516   8.891   8.200 -1.5865 -1.8971 -0.5888
10802SOL     OW35810   5.759   0.372  10.836 -0.2050  0.2822  0.3768
10802SOL    HW135811   5.769   0.454  10.884 -0.4337  0.5495 -0.0228
10802SOL    HW235812   5.666   0.349  10.847 -0.1548  0.1073  0.4401
10803SOL     OW35813  10.723  10.334   2.827 -0.2895 -0.1797 -0.7857
10803SOL    HW135814  10.797  10.337   2.887 -1.4239  2.1674  0.5789
10803SOL    HW235815  10.763  10.334   2.740  1.3398  0.0889 -0.0490
10804SOL     OW35816   8.845   0.891   8.685 -0.1162 -0.2395 -0.2293
10804SOL    HW135817   8.907   0.953   8.723 -0.0068 -0.0499 -0.7275
10804SOL    HW235818   8.890   0.852   8.611 -0.2671 -0.7512 -0.0602
10805SOL     OW35819   3.511   2.909   7.121 -0.0272  0.0156 -0.5909
10805SOL    HW135820   3.467   2.943   7.199 -0.1301 -1.1337 -0.1419
10805SOL    HW235821   3.586   2.861   7.155  0.4790  0.3367 -1.2576
10806SOL     OW35822   5.324   5.905   8.845 -0.4120  0.4370  0.2475
10806SOL    HW135823   5.257   5.933   8.783 -1.2663  0.4094  1.1567
10806SOL    HW235824   5.312   5.810   8.854 -0.0684  0.3852  0.2003
10807SOL     OW35825   5.761   1.518   4.279  0.1347  0.2865 -0.0648
10807SOL    HW135826   5.731   1.441   4.231 -0.4485  0.6305 -0.2620
10807SOL    HW235827   5.717   1.591   4.236  1.1230  0.7856 -0.2344
10808SOL     OW35828   6.308   0.029   6.002  0.3958  0.2017 -0.0836
10808SOL    HW135829   6.246   0.052   6.072  0.5208 -2.1985  0.8769
10808SOL    HW235830   6.356   0.110   5.985 -1.7418  1.6215  0.4644
10809SOL     OW35831   9.547   1.763   2.164 -0.4172 -0.6166 -0.2814
10809SOL    HW135832   9.641   1.754   2.181 -0.4156  1.1228  0.7187
10809SOL    HW235833   9.505   1.728   2.242 -0.5585  0.1136 -0.0251
10810SOL     OW35834   6.935   4.703   1.907  0.4802 -0.0146 -0.9813
10810SOL    HW135835   6.952   4.745   1.991  0.6779 -1.0979 -0.4796
10810SOL    HW235836   6.965   4.767   1.842  0.1676  0.8927 -0.2362
10811SOL     OW35837   7.700   2.555   6.639 -0.3363  0.0476  0.5368
10811SOL    HW135838   7.681   2.557   6.545 -0.4607 -2.5128  0.4780
10811SOL    HW235839   7.613   2.550   6.680 -0.2287 -0.4067  0.7113
10812SOL     OW35840   9.742   1.105   9.479  1.0084  0.3394  0.2735
10812SOL    HW135841   9.709   1.023   9.517 -0.3181  0.1196 -1.3009
10812SOL    HW235842   9.684   1.172   9.512  1.9669  0.6345  1.3887
10813SOL     OW35843   9.196   3.229   5.762  0.1625 -0.2694  0.4187
10813SOL    HW135844   9.239   3.146   5.739  0.5878 -0.1426  0.7517
10813SOL    HW235845   9.153   3.256   5.681  3.0419  1.0163 -0.7578
10814SOL     OW35846   8.933   0.552   6.043  0.0696 -0.2527  0.1025
10814SOL    HW135847   8.970   0.639   6.062  1.0217 -1.0203  1.8483
10814SOL    HW235848   8.861   0.570   5.982  1.5483  1.5591 -1.1700
10815SOL     OW35849   0.965   2.613   2.707  0.2674 -0.4279  0.7613
10815SOL    HW135850   0.926   2.641   2.790  1.3995 -0.4420  1.3129
10815SOL    HW235851   1.037   2.675   2.692 -1.8394  1.5164 -1.8170
10816SOL     OW35852   7.345   5.771   7.964  0.2298  0.3782 -0.5534
10816SOL    HW135853   7.415   5.837   7.956  1.5396 -1.0651 -1.2084
10816SOL    HW235854   7.390   5.692   7.992 -1.2774 -0.3879 -0.2587
10817SOL     OW35855   4.135   9.644  10.900  0.4762  0.7258  0.9659
10817SOL    HW135856   4.163   9.734  10.885  0.7581  0.6254  0.8868
10817SOL    HW235857   4.216   9.596  10.916  0.3021  0.5409  1.2951
10818SOL     OW35858  10.679   7.040   8.065  0.0120  0.0565 -0.2393
10818SOL    HW135859  10.616   7.076   8.003 -2.4667 -1.0358  1.5596
10818SOL    HW235860  10.636   7.047   8.150  1.4996 -2.5533  0.7905
10819SOL     OW35861   6.629   4.557  10.850 -0.0565  0.0435 -0.1688
10819SOL    HW135862   6.582   4.572  10.767 -0.0135 -0.2421 -0.2440
10819SOL    HW235863   6.702   4.618  10.846 -0.1986  0.2132 -0.2277
10820SOL     OW35864   4.766   2.394   4.704 -0.0557 -0.5681  0.0665
10820SOL    HW135865   4.727   2.385   4.791 -0.4945 -0.2749 -0.0978
10820SOL    HW235866   4.792   2.486   4.699 -0.6985 -0.4034 -0.3858
10821SOL     OW35867   0.798   1.700   6.400  0.2046  0.3690  0.0098
10821SOL    HW135868   0.871   1.641   6.420  0.2045  0.0091 -1.0279
10821SOL    HW235869   0.732   1.679   6.466  0.8600  0.3927  0.6918
10822SOL     OW35870   7.824   8.566  10.195  0.5927 -0.2391 -0.6631
10822SOL    HW135871   7.913   8.576  10.230  0.3461 -1.9412  0.5278
10822SOL    HW235872   7.813   8.471  10.187 -0.9200 -0.0076 -1.3313
10823SOL     OW35873   5.120   0.904   6.288 -0.7037  0.1088  0.1167
10823SOL    HW135874   5.082   0.910   6.376  0.0711  1.3149  0.3690
10823SOL    HW235875   5.122   0.994   6.256  0.1346 -0.1835 -0.6633
10824SOL     OW35876   9.607   8.661   3.428  0.3028 -0.7938  0.7870
10824SOL    HW135877   9.676   8.726   3.434  0.6078 -0.9004 -1.2491
10824SOL    HW235878   9.649   8.579   3.454  1.0692 -0.9267 -0.7983
10825SOL     OW35879   1.497   2.323   0.855  0.0716  0.1093 -0.3017
10825SOL    HW135880   1.452   2.366   0.927 -0.5273  1.6687 -1.5847
10825SOL    HW235881   1.430   2.267   0.815 -0.3199  1.2113 -1.2206
10826SOL     OW35882   3.329   1.298   5.206 -0.3959 -0.6046 -0.2316
10826SOL    HW135883   3.335   1.203   5.205 -1.2741 -0.7199  1.9776
10826SOL    HW235884   3.268   1.319   5.136 -1.5157 -1.8078  0.3544
10827SOL     OW35885   6.237   6.439   6.741 -0.3872  0.4230  0.3477
10827SOL    HW135886   6.280   6.446   6.656  0.4056 -1.2091  0.5839
10827SOL    HW235887   6.172   6.370   6.728  2.4720 -2.7558  2.1067
10828SOL     OW35888   6.783   1.677   3.658 -0.1733 -0.0133  0.0356
10828SOL    HW135889   6.808   1.646   3.745  1.1145  1.4774  0.2108
10828SOL    HW235890   6.796   1.600   3.601 -1.1638 -1.0333  1.1630
10829SOL     OW35891   1.636  10.222   4.505 -0.6018  0.2277 -0.1219
10829SOL    HW135892   1.723  10.254   4.528 -0.5069 -0.4483  0.5023
10829SOL    HW235893   1.596  10.200   4.590 -1.2361  0.1811 -0.4316
10830SOL     OW35894   0.515   2.777   9.428  0.2382 -0.3258 -0.3063
10830SOL    HW135895   0.515   2.716   9.354 -0.5405  0.2121 -0.7591
10830SOL    HW235896   0.431   2.762   9.472 -0.4162  1.1256 -1.0219
10831SOL     OW35897   2.468   5.442   2.294 -0.0148 -0.8108 -0.5442
10831SOL    HW135898   2.431   5.402   2.373 -1.2568  1.2480 -0.0460
10831SOL    HW235899   2.411   5.412   2.223 -0.1188 -1.0419 -0.3620
10832SOL     OW35900   2.613   8.287   8.850 -0.5199  0.5158  0.2951
10832SOL    HW135901   2.703   8.262   8.830 -1.1073 -1.0898 -0.4497
10832SOL    HW235902   2.601   8.264   8.942 -0.3584  0.1207  0.2196
10833SOL     OW35903   6.868   9.865   6.036  0.6010  0.0902  0.1843
10833SOL    HW135904   6.833   9.810   5.966  2.6450 -2.1067  0.8280
10833SOL    HW235905   6.831   9.827   6.116  1.1904  0.2940  0.5537
10834SOL     OW35906  10.730   7.727   1.733 -0.6160 -0.5440 -0.4117
10834SOL    HW135907  10.738   7.795   1.666 -0.4559 -0.4425 -0.2908
10834SOL    HW235908  10.636   7.710   1.738 -0.6398 -0.4742 -0.5847
10835SOL     OW35909   9.329  10.830   3.163  0.2183 -0.0360  0.1143
10835SOL    HW135910   9.378  10.863   3.238  1.2294 -2.0431  0.3732
10835SOL    HW235911   9.248  10.796   3.201  0.2349 -0.0219  0.1623
10836SOL     OW35912   1.380   6.599   1.675 -0.1648  0.3462 -0.4743
10836SOL    HW135913   1.460   6.551   1.697 -1.3900 -1.5643 -0.0129
10836SOL    HW235914   1.400   6.690   1.695  0.8440 -0.5138  2.8096
10837SOL     OW35915   0.648   5.053   5.037  0.4648 -0.5725 -0.3870
10837SOL    HW135916   0.643   5.075   4.944 -0.4521  0.0485 -0.1990
10837SOL    HW235917   0.627   5.135   5.083  3.2118 -0.2681  0.4037
10838SOL     OW35918   4.104  10.758   4.409 -0.0829  0.0155 -0.9051
10838SOL    HW135919   4.115  10.849   4.436  1.6719 -0.7785  1.1719
10838SOL    HW235920   4.188  10.716   4.427 -1.1518 -2.2368 -0.9151
10839SOL     OW35921   9.134   7.702   6.932  0.1343 -0.1451  0.0929
10839SOL    HW135922   9.058   7.649   6.958 -0.5642  0.9475  0.2962
10839SOL    HW235923   9.112   7.734   6.845  0.5963 -0.2443 -0.0637
10840SOL     OW35924   9.737   2.769   4.402  0.6160 -0.0592  0.2599
10840SOL    HW135925   9.785   2.846   4.374  1.1168 -0.8292 -1.0379
10840SOL    HW235926   9.688   2.741   4.324  1.1029 -1.5384  0.4650
10841SOL     OW35927  10.228   8.673   5.720  0.2445  0.0163  0.2353
10841SOL    HW135928  10.181   8.663   5.803  1.1693  0.5825  0.8259
10841SOL    HW235929  10.160   8.659   5.653 -0.4186 -0.8623  1.0671
10842SOL     OW35930   0.422   6.154   7.725  0.4285 -0.2681 -0.0281
10842SOL    HW135931   0.341   6.193   7.759  0.7822 -0.8470  1.4891
10842SOL    HW235932   0.492   6.208   7.760  0.8509 -1.4704  1.0447
10843SOL     OW35933   3.561   5.209   2.287  0.5215 -0.0981 -0.0702
10843SOL    HW135934   3.512   5.290   2.276 -0.8907 -1.0876 -1.2390
10843SOL    HW235935   3.519   5.147   2.227  3.3572 -0.9070 -1.3331
10844SOL     OW35936   8.024   1.444  10.186 -0.2593  0.3586  0.1279
10844SOL    HW135937   8.009   1.505  10.114  1.6320  0.0562 -0.5575
10844SOL    HW235938   8.032   1.499  10.264 -0.3232  0.8362 -0.2055
10845SOL     OW35939   1.993   8.027   4.651 -0.2896  0.2947 -0.5229
10845SOL    HW135940   2.052   7.982   4.591 -0.2775 -0.4990  0.0676
10845SOL    HW235941   1.905   8.013   4.614 -0.3884 -1.1711  0.2492
10846SOL     OW35942   0.885   9.208  10.188 -0.3776  0.1717 -0.0383
10846SOL    HW135943   0.812   9.268  10.200  0.3096  1.3111 -1.3898
10846SOL    HW235944   0.873   9.142  10.256 -1.9675  1.0187  0.5374
10847SOL     OW35945   9.772   8.125   8.642 -0.4285 -0.8740  0.0299
10847SOL    HW135946   9.862   8.150   8.662 -0.1763 -2.0908  0.4985
10847SOL    HW235947   9.736   8.095   8.725 -1.3899 -0.0451 -0.0818
10848SOL     OW35948   0.532   6.015   5.003 -0.1693 -0.6808 -0.6280
10848SOL    HW135949   0.502   6.008   5.093  2.4729 -1.4012  0.2494
10848SOL    HW235950   0.599   5.947   4.994  0.9715  0.6191 -2.5474
10849SOL     OW35951   8.389   5.404   8.707 -0.1676 -0.3843 -0.6022
10849SOL    HW135952   8.473   5.411   8.662  0.1877  2.4789  0.4101
10849SOL    HW235953   8.410   5.363   8.790  0.2408  0.2992 -0.3616
10850SOL     OW35954   0.701   8.304   7.179  0.3334  0.1318 -0.0220
10850SOL    HW135955   0.716   8.388   7.223  2.6460 -0.4469  0.3696
10850SOL    HW235956   0.721   8.322   7.087  0.3466  0.1332 -0.0192
10851SOL     OW35957   0.440   2.407   0.598 -0.1648  0.0469 -0.1860
10851SOL    HW135958   0.516   2.457   0.628  0.1079 -1.6289  1.9915
10851SOL    HW235959   0.452   2.320   0.635 -3.3018 -0.1816  0.4388
10852SOL     OW35960   3.838   0.739  10.201 -0.0504 -0.0341  0.0406
10852SOL    HW135961   3.897   0.809  10.173 -0.7776  0.7720  0.5287
10852SOL    HW235962   3.890   0.659  10.189  1.0690  0.6434  0.2417
10853SOL     OW35963   2.593   5.310  10.684 -0.4985 -0.3740  0.0354
10853SOL    HW135964   2.628   5.245  10.623  1.0276  2.0272 -1.7696
10853SOL    HW235965   2.503   5.325  10.655 -0.2402 -0.3209 -0.7632
10854SOL     OW35966   6.608   0.883  10.503 -0.6018 -0.2609  0.7681
10854SOL    HW135967   6.513   0.869  10.505 -0.1904 -4.3994 -1.7123
10854SOL    HW235968   6.637   0.858  10.591 -1.7179  0.6347  1.4204
10855SOL     OW35969   3.665   7.467   0.303 -0.1603  0.0241 -0.0584
10855SOL    HW135970   3.693   7.377   0.319 -0.0236 -0.0465 -0.6796
10855SOL    HW235971   3.737   7.521   0.334 -1.0348  0.0099  2.1097
10856SOL     OW35972   9.848   7.651   6.589  0.8117  0.6037  0.2133
10856SOL    HW135973   9.922   7.711   6.597 -0.1404  1.9806 -1.0356
10856SOL    HW235974   9.850   7.599   6.670  3.0657  0.6781  0.2274
10857SOL     OW35975   9.761   2.212   1.740  0.2210  0.2492  0.1285
10857SOL    HW135976   9.796   2.129   1.707  0.8187  0.2057  0.8717
10857SOL    HW235977   9.668   2.194   1.753  0.1050  0.0725 -0.9128
10858SOL     OW35978   5.960   5.110   8.678 -0.2940 -0.1822 -0.1715
10858SOL    HW135979   6.003   5.028   8.703 -1.8566 -0.6922  0.9204
10858SOL    HW235980   5.899   5.127   8.749 -1.0832  1.1264 -1.1480
10859SOL     OW35981   6.152   2.722   8.685 -0.1764  0.2977  0.4742
10859SOL    HW135982   6.167   2.648   8.626  0.0871  1.7249 -1.3002
10859SOL    HW235983   6.126   2.793   8.627 -0.2810  1.6433  2.1453
10860SOL     OW35984  10.002   4.039   8.147  0.3852  0.4731  0.2537
10860SOL    HW135985   9.971   4.038   8.057  0.5638  0.4860  0.1897
10860SOL    HW235986  10.094   4.065   8.140  0.3888  0.5137  0.4420
10861SOL     OW35987   8.597   2.026   3.044 -0.4227  0.1108  0.6743
10861SOL    HW135988   8.620   2.057   2.956  1.2572 -0.9683  0.7120
10861SOL    HW235989   8.507   1.996   3.035 -0.5342  0.7474 -0.4912
10862SOL     OW35990   0.584   8.398   2.115  0.3513  0.4711 -0.0056
10862SOL    HW135991   0.656   8.388   2.053 -0.0607  0.0952 -0.4345
10862SOL    HW235992   0.505   8.385   2.062 -0.0413  1.1867  0.3996
10863SOL     OW35993   7.370   6.320   0.991  0.1306 -0.4653  0.1758
10863SOL    HW135994   7.465   6.321   0.995  0.3513  2.0496 -3.4093
10863SOL    HW235995   7.342   6.379   1.061  1.2545 -0.1842  0.3931
10864SOL     OW35996   1.434   2.050   2.829 -0.0162 -0.9204  0.3225
10864SOL    HW135997   1.357   2.070   2.883 -0.2286 -1.1994  0.1303
10864SOL    HW235998   1.404   1.978   2.772  0.5487 -1.3827  0.6105
10865SOL     OW35999   5.236   2.586   1.502  0.4666 -0.0981 -0.9039
10865SOL    HW136000   5.302   2.644   1.539  0.2988 -0.6034  0.2217
10865SOL    HW236001   5.285   2.522   1.451  0.8735 -0.5558  0.0408
10866SOL     OW36002   7.853   5.034   4.684 -0.2112  0.0337  0.2530
10866SOL    HW136003   7.826   5.114   4.639  1.5316  0.3970 -0.1753
10866SOL    HW236004   7.772   4.983   4.692 -1.4052  1.9636  0.8391
10867SOL     OW36005   4.636   4.720   3.958  0.0437  0.1515 -0.0835
10867SOL    HW136006   4.542   4.728   3.944 -0.0366 -0.3249  0.1836
10867SOL    HW236007   4.649   4.628   3.981  1.0733 -0.7246 -3.9781
10868SOL     OW36008   7.772   3.574   2.416  0.0045  0.1497 -0.2285
10868SOL    HW136009   7.804   3.590   2.504 -1.2016  0.9402  0.0747
10868SOL    HW236010   7.711   3.500   2.425  1.0778 -0.7949 -0.6595
10869SOL     OW36011  10.567   0.911  10.120  0.2591  0.7499  0.0571
10869SOL    HW136012  10.633   0.890  10.054  0.1593  2.6671 -0.6964
10869SOL    HW236013  10.512   0.977  10.078 -1.4359  0.0396  1.1036
10870SOL     OW36014   0.527   3.776   4.008  0.0728  0.2063 -0.3344
10870SOL    HW136015   0.567   3.859   4.034  0.7300  0.0475 -0.8248
10870SOL    HW236016   0.524   3.779   3.913 -1.7264  0.5046 -0.2771
10871SOL     OW36017   9.597   7.606   3.257  0.5539  0.0438  0.3046
10871SOL    HW136018   9.658   7.538   3.284 -1.0602 -1.0524  1.2905
10871SOL    HW236019   9.567   7.646   3.339  0.7763  1.3196 -0.2203
10872SOL     OW36020  10.259   6.617   6.128 -0.5105 -0.3007 -0.1303
10872SOL    HW136021  10.286   6.676   6.198 -0.0640 -1.9023  1.0669
10872SOL    HW236022  10.335   6.560   6.114 -0.1607  0.7141 -2.7191
10873SOL     OW36023   6.271   5.928   3.702 -0.5020  0.4005 -0.5618
10873SOL    HW136024   6.218   5.862   3.657 -0.6814  0.3049 -0.2082
10873SOL    HW236025   6.222   6.009   3.693  0.0575  0.6387 -1.6143
10874SOL     OW36026   5.013   4.415   7.819  0.2464  0.2254  0.0762
10874SOL    HW136027   4.995   4.438   7.911 -1.7362 -1.1418  0.0591
10874SOL    HW236028   5.104   4.440   7.806  0.7707 -0.2053  2.6498
10875SOL     OW36029   6.950   0.947   3.728 -0.7865  0.0509 -0.2328
10875SOL    HW136030   6.974   0.863   3.689 -2.6961  0.0952 -1.5978
10875SOL    HW236031   6.862   0.933   3.764 -0.9171  1.3197 -0.0289
10876SOL     OW36032   0.750   7.626   0.389 -0.5705 -0.0985  0.7237
10876SOL    HW136033   0.774   7.582   0.470 -1.8181 -1.6486  0.2761
10876SOL    HW236034   0.677   7.575   0.354 -0.1510  0.6303 -1.3030
10877SOL     OW36035   2.557   5.141   6.881  0.1133  0.7475 -0.4416
10877SOL    HW136036   2.639   5.122   6.927 -0.6937  0.5728  0.9507
10877SOL    HW236037   2.531   5.058   6.841  0.2810  0.6473 -0.3410
10878SOL     OW36038   2.575   9.440   1.842 -0.4537 -0.0297  0.3047
10878SOL    HW136039   2.571   9.534   1.858 -1.3607 -0.4933  2.9993
10878SOL    HW236040   2.517   9.426   1.768  0.0339  1.5692 -0.4117
10879SOL     OW36041   0.683   2.364   6.022 -0.0335  0.3962  0.3007
10879SOL    HW136042   0.775   2.337   6.024  0.8012  3.0122 -0.9375
10879SOL    HW236043   0.680   2.442   6.078 -1.8740 -0.7018  1.7808
10880SOL     OW36044   6.288   2.636   7.261 -0.8055  0.3187 -0.1454
10880SOL    HW136045   6.325   2.596   7.183  1.8590  0.1307  1.1701
10880SOL    HW236046   6.293   2.731   7.244 -0.0785  0.2843 -0.1470
10881SOL     OW36047   6.801  10.903   3.931  0.1098  0.3275  0.1808
10881SOL    HW136048   6.872  10.965   3.921  0.7495 -0.4250 -0.0025
10881SOL    HW236049   6.723  10.951   3.904  0.3526  1.5728  1.6606
10882SOL     OW36050   8.184   1.963   4.216  0.4357  0.2805  0.3099
10882SOL    HW136051   8.143   2.041   4.179  0.9194  0.2093 -0.3830
10882SOL    HW236052   8.254   1.998   4.272  0.0632  0.3701  0.7237
10883SOL     OW36053   5.913   9.685   5.489 -0.3323  0.4446 -0.4400
10883SOL    HW136054   5.894   9.722   5.403  0.3615  1.0267 -0.3451
10883SOL    HW236055   5.869   9.743   5.550  0.3984  0.8800 -0.3174
10884SOL     OW36056   3.065   3.236   7.996  0.6017  0.3670  0.1571
10884SOL    HW136057   3.011   3.301   8.040  0.4667 -0.2999  0.9877
10884SOL    HW236058   3.002   3.176   7.955  0.7224  0.4010 -0.0826
10885SOL     OW36059   2.568   8.178   9.335  0.7863  0.4517  0.5648
10885SOL    HW136060   2.616   8.100   9.365 -0.7060 -0.7103  0.0262
10885SOL    HW236061   2.517   8.205   9.411 -2.4565 -2.0760 -0.5467
10886SOL     OW36062   9.454   9.387   5.985  0.2287 -0.6130  0.4424
10886SOL    HW136063   9.471   9.405   6.078 -0.9981 -0.0289  0.5662
10886SOL    HW236064   9.463   9.472   5.942 -0.0431 -0.7279  0.1574
10887SOL     OW36065   7.408   4.848   4.123  0.0555 -0.3385 -0.0928
10887SOL    HW136066   7.387   4.940   4.109 -0.5396 -0.1825  1.6890
10887SOL    HW236067   7.336   4.814   4.176  0.4027 -1.7692 -0.4991
10888SOL     OW36068  10.919   2.097   1.038 -0.0483  0.5283  0.2265
10888SOL    HW136069  10.891   2.087   1.129  0.1135 -0.8905  0.1377
10888SOL    HW236070  10.892   2.016   0.996  1.4049  0.4369 -0.5812
10889SOL     OW36071   2.202   2.148   1.408 -0.2452  0.0362 -0.1729
10889SOL    HW136072   2.156   2.103   1.478 -2.2328  0.1108 -1.3823
10889SOL    HW236073   2.263   2.083   1.373  0.4987 -0.1086  1.3401
10890SOL     OW36074   6.976   9.836   2.221 -0.2788 -0.5560 -0.0334
10890SOL    HW136075   7.057   9.884   2.204 -0.1293 -0.3654  1.1742
10890SOL    HW236076   6.962   9.844   2.315 -1.0994 -1.5484 -0.0531
10891SOL     OW36077  10.360  10.015   2.616 -0.1357  1.0337  0.1339
10891SOL    HW136078  10.321  10.023   2.529 -0.2237 -0.2859  0.0466
10891SOL    HW236079  10.291   9.977   2.670  0.9684 -1.2199 -0.0003
10892SOL     OW36080   9.466   6.882   8.115 -0.2842  0.2598 -0.3169
10892SOL    HW136081   9.409   6.900   8.190  1.2010  0.6485  0.7502
10892SOL    HW236082   9.500   6.968   8.090  0.0097  0.0018 -0.8065
10893SOL     OW36083   8.399   2.750   9.074  0.0015  0.0601 -0.4202
10893SOL    HW136084   8.327   2.769   9.013 -0.0749  0.3538 -0.2369
10893SOL    HW236085   8.368   2.783   9.158 -0.3965 -1.4353  0.0403
10894SOL     OW36086   2.430   0.852   2.345 -0.4234 -0.3133  0.1055
10894SOL    HW136087   2.419   0.768   2.300 -2.1282  0.4780 -1.0109
10894SOL    HW236088   2.464   0.829   2.431 -1.4263 -2.1887  0.0169
10895SOL     OW36089   2.550   0.182   4.770 -0.5084 -0.2000 -0.2301
10895SOL    HW136090   2.563   0.095   4.734  0.4223 -0.4667  0.7126
10895SOL    HW236091   2.574   0.174   4.862 -1.3176  0.8330  0.0845
10896SOL     OW36092   7.469   5.630   1.800 -0.4466  0.2037  0.1762
10896SOL    HW136093   7.536   5.584   1.749  0.5972  0.6157  1.1572
10896SOL    HW236094   7.421   5.681   1.735  0.7919  0.6220 -0.4258
10897SOL     OW36095  10.316  10.019   8.618  0.5358  0.1667  0.0623
10897SOL    HW136096  10.238  10.072   8.636  0.5187  0.5634 -1.1688
10897SOL    HW236097  10.386  10.064   8.666  0.2966  0.6502 -0.0334
10898SOL     OW36098   9.639   5.468   5.874 -0.0016  0.2505 -1.1760
10898SOL    HW136099   9.659   5.405   5.805 -1.1839 -0.0536 -1.2450
10898SOL    HW236100   9.719   5.471   5.928  0.3714 -0.6422 -1.6747
10899SOL     OW36101   7.232   9.131   9.964  0.0105  0.3351  0.2228
10899SOL    HW136102   7.228   9.101   9.873 -0.4907 -0.9411  0.6583
10899SOL    HW236103   7.266   9.220   9.958  0.3131  0.1372 -1.1885
10900SOL     OW36104   3.844   3.441   9.623 -0.3020 -0.6839  0.3296
10900SOL    HW136105   3.759   3.407   9.596 -0.8056 -0.1122  1.1535
10900SOL    HW236106   3.872   3.381   9.692  0.9135 -2.0595 -1.3251
10901SOL     OW36107   0.792   6.254   7.880 -0.3247 -0.8488 -0.7943
10901SOL    HW136108   0.795   6.180   7.941 -0.9996  0.0639  0.3620
10901SOL    HW236109   0.723   6.310   7.914  2.2249  1.8691  0.1337
10902SOL     OW36110   8.352   9.933   1.359  0.4433 -0.0444  0.4568
10902SOL    HW136111   8.329  10.005   1.418  1.2010  0.0129  0.6868
10902SOL    HW236112   8.268   9.907   1.320  0.0543  0.4647  0.9308
10903SOL     OW36113   5.850   6.022   6.826 -0.6831  0.0431 -0.2751
10903SOL    HW136114   5.873   6.018   6.919  1.5444  1.2585 -0.7315
10903SOL    HW236115   5.807   5.939   6.808 -0.3793 -0.5501  1.6609
10904SOL     OW36116  10.607   8.126   0.927 -0.3061 -0.3848 -0.1861
10904SOL    HW136117  10.633   8.037   0.903  0.8422 -0.1118  0.0008
10904SOL    HW236118  10.579   8.119   1.018 -0.1357 -0.5441 -0.1442
10905SOL     OW36119   0.969   4.751   9.665  0.4102 -0.4889 -0.0109
10905SOL    HW136120   1.045   4.699   9.691 -0.2673 -1.1483  0.6730
10905SOL    HW236121   0.911   4.689   9.622  0.4699  0.1167 -0.9660
10906SOL     OW36122   6.949   0.184   0.793 -0.0864 -0.0687  0.9301
10906SOL    HW136123   7.021   0.123   0.779 -0.8376 -0.4825 -1.4669
10906SOL    HW236124   6.870   0.130   0.783 -0.7857  1.3752 -2.0602
10907SOL     OW36125   0.176   6.094   3.284  0.1894  0.4371 -0.3321
10907SOL    HW136126   0.177   6.074   3.191  0.4642  1.1994 -0.4904
10907SOL    HW236127   0.260   6.062   3.317 -0.9686 -2.3092  0.1896
10908SOL     OW36128   4.208   2.562   0.624  0.4123 -0.3747  0.1297
10908SOL    HW136129   4.180   2.487   0.676 -1.9758  0.3369 -0.0732
10908SOL    HW236130   4.129   2.615   0.613  1.5751  1.0879 -1.5450
10909SOL     OW36131   9.096   9.135   7.511 -0.0449  0.8306  0.2033
10909SOL    HW136132   9.048   9.217   7.520 -0.7615  0.4003  0.3650
10909SOL    HW236133   9.095   9.097   7.599 -1.1034 -0.1062 -0.2007
10910SOL     OW36134   6.815   5.012   5.293  0.1348  0.7967 -0.4236
10910SOL    HW136135   6.761   4.977   5.364  0.8174  1.5930  0.4991
10910SOL    HW236136   6.885   5.059   5.337 -0.4433  2.8460 -1.6276
10911SOL     OW36137   6.402   9.357   9.298  0.5834  0.2061  0.3230
10911SOL    HW136138   6.479   9.389   9.251  1.9050 -2.9260  0.1750
10911SOL    HW236139   6.336   9.345   9.230  0.5610  1.1831  0.1699
10912SOL     OW36140   6.112   4.195   8.579 -0.0261 -0.2926 -0.2671
10912SOL    HW136141   6.169   4.214   8.654  0.2950 -0.9245 -0.3486
10912SOL    HW236142   6.171   4.200   8.503 -0.3066  0.1284 -0.4619
10913SOL     OW36143   6.078  10.265   6.329  0.7440  0.2043 -0.7528
10913SOL    HW136144   6.010  10.290   6.391  0.8400 -1.7917  0.2040
10913SOL    HW236145   6.153  10.319   6.352  0.2801  0.6177 -0.1886
10914SOL     OW36146   6.783   3.965   8.977 -0.0672 -0.2740  0.7185
10914SOL    HW136147   6.842   4.034   8.948 -0.4688  0.5699  1.8969
10914SOL    HW236148   6.743   3.999   9.057 -0.3406 -1.8326  1.2588
10915SOL     OW36149   7.069   6.608   0.311 -0.0710  0.1307 -0.9489
10915SOL    HW136150   7.000   6.566   0.260 -2.4486  2.5700  0.1607
10915SOL    HW236151   7.109   6.671   0.251 -1.3629  1.3859 -0.5299
10916SOL     OW36152   9.935   4.384   8.055 -0.3973  0.0547 -0.1449
10916SOL    HW136153   9.875   4.340   8.115 -1.4528  0.7057 -0.7031
10916SOL    HW236154   9.904   4.475   8.052  1.4000  0.7180  0.5447
10917SOL     OW36155   4.483   5.826   0.918 -0.2088 -0.2652 -0.8682
10917SOL    HW136156   4.536   5.893   0.961 -0.8298  0.0587 -0.5946
10917SOL    HW236157   4.546   5.762   0.886  0.3085 -0.2222  0.0407
10918SOL     OW36158   5.506   0.272   6.792 -0.1004  0.6885 -0.0429
10918SOL    HW136159   5.601   0.258   6.794 -0.0961  0.8403  0.8796
10918SOL    HW236160   5.480   0.245   6.704  1.0507  2.3016 -0.8963
10919SOL     OW36161   7.651   0.168  10.934 -0.3039 -0.3896 -0.0412
10919SOL    HW136162   7.673   0.084  10.974 -0.1767  0.6940  2.2371
10919SOL    HW236163   7.560   0.185  10.962 -0.4487  0.0560 -0.7805
10920SOL     OW36164   7.172   9.166   9.368 -0.0858  0.4416  0.1194
10920SOL    HW136165   7.207   9.171   9.279 -0.1568 -1.3964 -0.0266
10920SOL    HW236166   7.241   9.204   9.423  0.8754 -0.3947 -0.4893
10921SOL     OW36167  10.619   1.709   2.647  0.4173  0.2437  0.5638
10921SOL    HW136168  10.580   1.777   2.701  0.1501  1.4441 -1.1322
10921SOL    HW236169  10.553   1.689   2.581  1.2863 -0.2370 -0.1674
10922SOL     OW36170   5.781   4.980   2.643  0.3273 -0.7326  0.2535
10922SOL    HW136171   5.825   4.896   2.650 -0.3217 -1.0709  0.3536
10922SOL    HW236172   5.694   4.958   2.607  0.3256 -0.0585 -0.1690
10923SOL     OW36173   2.133   0.707  10.480 -0.4265  0.2104 -0.6428
10923SOL    HW136174   2.067   0.642  10.457 -0.1675  0.1957 -1.3519
10923SOL    HW236175   2.098   0.790  10.450  0.3182  0.0681 -1.9459
10924SOL     OW36176  10.097   7.741   2.088  0.2521  0.0159  0.5739
10924SOL    HW136177  10.098   7.803   2.015  0.2607 -0.2696  0.3312
10924SOL    HW236178  10.079   7.795   2.165  0.8449  0.4032  0.4408
10925SOL     OW36179   3.475   0.454   9.460 -0.6118 -0.0887 -0.5590
10925SOL    HW136180   3.535   0.394   9.503 -1.3551 -1.5308 -1.4817
10925SOL    HW236181   3.427   0.496   9.531  0.0704 -0.4290  0.1000
10926SOL     OW36182   7.592   2.332   3.977  0.1305 -0.0681  0.6847
10926SOL    HW136183   7.561   2.369   3.895  0.2940 -0.2953  0.5209
10926SOL    HW236184   7.630   2.248   3.953 -0.8910 -0.6822  1.1419
10927SOL     OW36185   5.616   2.238   9.990  0.0429  0.8700 -0.0917
10927SOL    HW136186   5.608   2.303  10.060 -0.6294  0.9624 -0.2557
10927SOL    HW236187   5.534   2.188   9.994  0.5619  0.0125  0.0539
10928SOL     OW36188   8.815   6.397   4.019  0.3453 -0.3725  0.0527
10928SOL    HW136189   8.896   6.437   4.051  0.5777 -0.2085 -0.7141
10928SOL    HW236190   8.754   6.404   4.091  0.6962  0.4672  0.2721
10929SOL     OW36191   9.409   1.664   4.534  0.1989 -0.0856 -0.8417
10929SOL    HW136192   9.341   1.613   4.578  0.8142 -0.0193  0.1935
10929SOL    HW236193   9.483   1.663   4.595 -0.0408  2.7341 -0.4322
10930SOL     OW36194   2.842   9.829   1.605  0.0023  0.2634 -0.0814
10930SOL    HW136195   2.904   9.865   1.668 -0.3662 -0.8043  0.8923
10930SOL    HW236196   2.829   9.738   1.632 -1.8331  0.4146 -0.3952
10931SOL     OW36197   9.951   4.509   1.616  0.2248 -0.2068 -0.5299
10931SOL    HW136198   9.875   4.557   1.650  0.0537 -0.2382 -0.8680
10931SOL    HW236199  10.026   4.564   1.639  0.3449 -1.4023  2.1158
10932SOL     OW36200   8.255   5.905  10.356  0.1452  0.3376  0.0919
10932SOL    HW136201   8.241   5.996  10.384  2.4871  1.1382 -1.2261
10932SOL    HW236202   8.212   5.899  10.270  0.7630  0.4526 -0.2257
10933SOL     OW36203   1.084   0.778   3.977  0.0701  0.6085 -0.0361
10933SOL    HW136204   1.115   0.865   4.003 -2.2631  1.4157  0.1017
10933SOL    HW236205   1.028   0.793   3.901 -0.6775 -0.7354  0.2280
10934SOL     OW36206   5.051   7.161   0.089  0.4106  0.3438 -0.0550
10934SOL    HW136207   5.039   7.117   0.005 -0.1574 -1.3816  0.9067
10934SOL    HW236208   5.000   7.109   0.151  1.1545  1.3552  1.4301
10935SOL     OW36209   7.394   0.452   9.252  0.4934 -0.4374  0.3051
10935SOL    HW136210   7.485   0.426   9.270  0.2882 -0.6145  1.1117
10935SOL    HW236211   7.358   0.475   9.338 -0.5942 -1.5618  0.1642
10936SOL     OW36212   2.427   1.826  10.083 -0.0001 -0.0287  0.2742
10936SOL    HW136213   2.491   1.862  10.145  0.1916 -1.9718  1.2330
10936SOL    HW236214   2.343   1.851  10.120  0.1708  2.0809 -0.7095
10937SOL     OW36215   5.882   2.996   1.402 -0.0822  0.2791 -0.8314
10937SOL    HW136216   5.828   2.987   1.481 -0.3460  3.0778 -0.6483
10937SOL    HW236217   5.919   2.909   1.389 -0.9628 -0.5346  1.7157
10938SOL     OW36218   1.783   7.720   4.051 -0.2860 -0.2936 -0.3770
10938SOL    HW136219   1.711   7.658   4.041 -1.4067  0.6148  1.7407
10938SOL    HW236220   1.775   7.779   3.976 -1.2319 -0.7042 -0.6065
10939SOL     OW36221   2.908  10.754  10.087  0.2173  0.2324  1.0627
10939SOL    HW136222   2.942  10.840  10.111  1.0134 -0.0433  0.9289
10939SOL    HW236223   2.943  10.738   9.999 -1.0956  0.3881  0.4956
10940SOL     OW36224   3.987   7.232   8.608 -0.2292 -0.7489 -0.5741
10940SOL    HW136225   3.914   7.170   8.603 -0.5019 -0.5521  0.7704
10940SOL    HW236226   3.967   7.287   8.684  1.2517 -0.6185 -0.2596
10941SOL     OW36227   5.108   9.674   5.953  0.2117 -0.0007  0.0044
10941SOL    HW136228   5.014   9.667   5.937 -0.0370 -1.4132  1.8496
10941SOL    HW236229   5.115   9.738   6.024  0.6481  0.0104 -0.0487
10942SOL     OW36230   6.720   0.606   4.719  0.5184  0.1062 -0.2999
10942SOL    HW136231   6.678   0.676   4.670 -0.1643 -1.0233 -1.3742
10942SOL    HW236232   6.652   0.573   4.777  0.9597  0.6013  0.5072
10943SOL     OW36233   8.710   6.269   5.796 -0.0858  0.3374 -0.6079
10943SOL    HW136234   8.642   6.229   5.742 -0.5061 -0.7392  0.6909
10943SOL    HW236235   8.672   6.352   5.825 -0.3820  0.2980 -0.8875
10944SOL     OW36236  10.771   3.241   2.425  0.3581 -0.3240  0.1290
10944SOL    HW136237  10.846   3.293   2.395  1.1321 -1.1132  0.6802
10944SOL    HW236238  10.808   3.156   2.449 -0.7292 -0.7587  0.3260
10945SOL     OW36239   9.472   4.241   1.156  0.7286  0.7248  0.4197
10945SOL    HW136240   9.453   4.158   1.112  0.8896  1.3363 -0.8307
10945SOL    HW236241   9.502   4.216   1.243  3.6393 -0.6815 -0.9053
10946SOL     OW36242   9.169   4.748  10.378  0.4217 -0.0492 -0.3455
10946SOL    HW136243   9.251   4.724  10.423  0.6912 -0.0355 -0.8350
10946SOL    HW236244   9.187   4.733  10.286  0.3011  1.2277 -0.5827
10947SOL     OW36245  10.001   1.880   9.837 -0.3573 -0.3200  0.0861
10947SOL    HW136246   9.915   1.923   9.836  0.4473  1.3232 -0.0963
10947SOL    HW236247  10.028   1.886   9.929 -0.3768 -0.7163  0.1171
10948SOL     OW36248   8.761   6.389   8.135  0.1854 -0.3723  0.1222
10948SOL    HW136249   8.803   6.395   8.049 -1.0186 -2.9650 -0.7198
10948SOL    HW236250   8.669   6.371   8.115 -0.7155  1.9480  1.9570
10949SOL     OW36251   7.353   9.747   4.032  0.0693  0.4385 -0.2446
10949SOL    HW136252   7.292   9.803   3.983  0.6611  1.2457 -0.0678
10949SOL    HW236253   7.354   9.785   4.120 -3.1427 -2.6267  1.2704
10950SOL     OW36254   0.445   9.696   5.904 -0.4787 -0.5031  0.2824
10950SOL    HW136255   0.356   9.662   5.912  0.0806 -1.9548  0.5536
10950SOL    HW236256   0.440   9.786   5.937 -1.3614 -1.3354  2.5001
10951SOL     OW36257   5.829   9.639   2.396 -0.1131  0.2786 -0.0816
10951SOL    HW136258   5.871   9.712   2.351 -2.3050  0.5186 -1.8109
10951SOL    HW236259   5.787   9.679   2.472  0.3271  0.4943  0.0479
10952SOL     OW36260   4.239   5.940   4.562 -0.2972  0.3139  0.3864
10952SOL    HW136261   4.202   5.880   4.496  0.6997 -0.9462  0.9426
10952SOL    HW236262   4.233   5.891   4.644  1.1329  0.7254  0.7451
10953SOL     OW36263  10.191   1.330   3.107  0.1515  0.1354 -0.5110
10953SOL    HW136264  10.204   1.359   3.017 -0.6396 -1.3424 -1.1150
10953SOL    HW236265  10.130   1.393   3.144 -0.6207 -0.0411 -1.4521
10954SOL     OW36266   3.304   5.794   3.723 -0.0285 -0.6403 -0.9540
10954SOL    HW136267   3.371   5.761   3.783  0.3264 -0.3563 -1.1897
10954SOL    HW236268   3.334   5.882   3.700 -0.9942 -0.1266 -0.2859
10955SOL     OW36269   9.733   7.765   5.239  0.3788  0.4080  0.0889
10955SOL    HW136270   9.702   7.747   5.150 -0.1210 -0.2791  0.3934
10955SOL    HW236271   9.828   7.766   5.232  0.3531 -0.1407 -0.3633
10956SOL     OW36272   7.843   3.216   3.557  0.1212 -0.0687  0.6435
10956SOL    HW136273   7.759   3.258   3.541  1.0617  1.0608 -1.4160
10956SOL    HW236274   7.883   3.207   3.471  2.3171 -0.1651  1.6364
10957SOL     OW36275   2.439  10.764   5.496 -0.4867  0.0933 -0.0784
10957SOL    HW136276   2.525  10.765   5.537 -0.3629 -0.6080 -0.3182
10957SOL    HW236277   2.444  10.833   5.429  0.0890 -0.3440 -0.4938
10958SOL     OW36278   3.941   1.005  10.386 -0.3065  0.3345  0.4709
10958SOL    HW136279   3.978   1.079  10.434 -0.7268 -0.1914  1.6034
10958SOL    HW236280   3.999   0.932  10.407 -1.6883 -0.3911  1.8897
10959SOL     OW36281   3.717   6.842  10.664 -0.1173 -0.1422 -0.5975
10959SOL    HW136282   3.766   6.809  10.739 -0.7235  1.0348  0.3559
10959SOL    HW236283   3.689   6.764  10.616  0.8998 -0.8800 -0.0048
10960SOL     OW36284   3.478   5.438   0.497  0.4253  0.0442  0.0090
10960SOL    HW136285   3.407   5.502   0.501  0.4822  0.0378  1.7929
10960SOL    HW236286   3.557   5.489   0.515  0.4862 -0.4965  1.2983
10961SOL     OW36287   6.722   8.595   9.690  0.3681  0.2626 -0.1453
10961SOL    HW136288   6.785   8.552   9.748  0.6197 -0.2821 -0.8125
10961SOL    HW236289   6.753   8.686   9.686  0.4174  0.2743  0.4774
10962SOL     OW36290   4.431   1.730   1.885 -0.4818 -0.7592 -0.3615
10962SOL    HW136291   4.345   1.692   1.868 -0.9411 -0.2376  0.7297
10962SOL    HW236292   4.424   1.765   1.974  1.1704 -1.5938  0.1161
10963SOL     OW36293   6.920   9.026   8.954 -0.3212  0.2394 -0.0215
10963SOL    HW136294   6.931   9.016   9.049 -0.7193  1.6710  0.1880
10963SOL    HW236295   6.874   8.946   8.927  1.3085 -0.9764  0.7060
10964SOL     OW36296   9.481   5.626   7.457 -0.2721  0.0998 -0.1420
10964SOL    HW136297   9.521   5.584   7.533 -1.2301 -0.5313  0.0260
10964SOL    HW236298   9.543   5.611   7.385 -0.2305 -0.9301  0.0983
10965SOL     OW36299   2.585  10.348   6.062  0.0320 -0.4905  0.0131
10965SOL    HW136300   2.592  10.260   6.099 -0.7483  0.0521  1.4904
10965SOL    HW236301   2.491  10.362   6.052  0.0984  0.6131  0.8580
10966SOL     OW36302   3.611   8.609   5.659  0.6351 -0.3953 -0.0039
10966SOL    HW136303   3.545   8.563   5.607 -0.3477  0.1473  0.7458
10966SOL    HW236304   3.670   8.540   5.689 -0.8955 -1.2030  1.2130
10967SOL     OW36305   1.541   1.523   3.294  0.3182 -0.8746 -0.1973
10967SOL    HW136306   1.634   1.539   3.309  0.0463 -0.0664  0.7044
10967SOL    HW236307   1.511   1.478   3.373  0.1911 -2.2195 -0.9966
10968SOL     OW36308   2.815   2.585   9.345  0.0167 -0.4353 -0.1321
10968SOL    HW136309   2.845   2.675   9.353  0.1541 -0.4755 -0.1916
10968SOL    HW236310   2.869   2.536   9.407 -0.9552 -0.2651  0.8530
10969SOL     OW36311   0.078   5.012   6.671  0.2152  0.4316  0.3818
10969SOL    HW136312  -0.006   5.045   6.703 -0.6575 -1.0644 -0.3224
10969SOL    HW236313   0.114   4.963   6.745  0.0383  0.3111  0.3897
10970SOL     OW36314   4.533  10.938   4.014  0.2113  0.4508 -0.4322
10970SOL    HW136315   4.448  10.902   4.042  0.7388 -0.6011 -0.1454
10970SOL    HW236316   4.576  10.963   4.096  0.8464 -0.5585 -0.4433
10971SOL     OW36317   7.610  10.652   7.439 -0.0222 -0.5294 -0.7468
10971SOL    HW136318   7.626  10.602   7.359 -0.9743 -0.5618 -0.9240
10971SOL    HW236319   7.697  10.668   7.475  0.3882 -0.8647 -1.5749
10972SOL     OW36320   1.340   6.160   3.496  0.0098  0.1822  0.2666
10972SOL    HW136321   1.351   6.245   3.453  1.1145 -0.0268  0.1177
10972SOL    HW236322   1.306   6.182   3.583  2.7985  0.9865  1.2186
10973SOL     OW36323   7.336   4.594   2.146 -0.1739  0.2016  0.1745
10973SOL    HW136324   7.269   4.566   2.083  1.2245  0.0397 -1.2711
10973SOL    HW236325   7.385   4.663   2.100  1.1907 -0.2669  0.8954
10974SOL     OW36326   8.296   4.469   1.940  0.3457  0.0650  0.1438
10974SOL    HW136327   8.275   4.392   1.993 -0.5523  0.4049  0.2989
10974SOL    HW236328   8.218   4.523   1.946  1.8992  2.1690  2.0785
10975SOL     OW36329   1.761   6.836   8.034  0.4886  0.1830  0.2926
10975SOL    HW136330   1.781   6.926   8.007  2.4585 -0.5000 -0.6192
10975SOL    HW236331   1.790   6.832   8.125  1.0779  0.2672  0.1124
10976SOL     OW36332   5.412   0.150   2.869 -0.3542  0.1402 -0.1589
10976SOL    HW136333   5.373   0.078   2.820  1.2655 -0.9909  0.1877
10976SOL    HW236334   5.357   0.158   2.947  0.6053 -2.0736  0.7977
10977SOL     OW36335   6.990   8.960   4.246 -0.1860 -0.3280  0.2223
10977SOL    HW136336   6.967   8.891   4.308 -1.3579 -0.0602  0.0899
10977SOL    HW236337   7.017   8.913   4.167  0.4393 -0.6548  0.6302
10978SOL     OW36338  10.094   3.702   8.091 -0.1337 -0.2941  0.9599
10978SOL    HW136339  10.128   3.617   8.062 -0.2455 -0.7676  2.1942
10978SOL    HW236340  10.130   3.765   8.029  1.6587 -0.9909  1.2871
10979SOL     OW36341   0.103   7.023   1.265  0.3097  0.4326  0.6064
10979SOL    HW136342   0.080   7.092   1.328  0.5552  0.7921  0.3026
10979SOL    HW236343   0.029   6.962   1.269 -1.0351  1.8977 -0.8320
10980SOL     OW36344   9.716   2.294   0.638 -0.0374 -0.4810  0.1794
10980SOL    HW136345   9.662   2.321   0.712 -0.4006 -2.3334  0.6031
10980SOL    HW236346   9.671   2.218   0.601  0.6840 -0.2064 -1.3230
10981SOL     OW36347   6.575   7.169   1.394  0.1023  0.3464  0.4270
10981SOL    HW136348   6.587   7.254   1.353 -0.7294 -0.8345 -2.3789
10981SOL    HW236349   6.485   7.170   1.426  0.0725  0.5099  0.3380
10982SOL     OW36350   0.116   1.793  10.210  0.0104  0.0775  0.2874
10982SOL    HW136351   0.034   1.840  10.195  0.8794  1.4041 -0.3379
10982SOL    HW236352   0.093   1.726  10.275 -1.4430  0.7715  0.5073
10983SOL     OW36353   0.174   9.974   8.246  0.2969 -0.1998  0.3678
10983SOL    HW136354   0.107  10.042   8.240  1.5222  0.9750 -0.4461
10983SOL    HW236355   0.252  10.021   8.278  1.6456 -0.8616 -1.8461
10984SOL     OW36356   0.874   8.285   7.496  0.5207  0.4005  0.4784
10984SOL    HW136357   0.856   8.377   7.514 -0.3086  0.4862 -0.7538
10984SOL    HW236358   0.818   8.238   7.558 -1.0936  0.7127 -0.7165
10985SOL     OW36359   0.239   5.500   1.066  0.1461  0.1653 -0.2834
10985SOL    HW136360   0.251   5.537   1.153  0.7467 -0.0679 -0.2666
10985SOL    HW236361   0.324   5.464   1.043 -0.3378 -0.8878 -0.4479
10986SOL     OW36362   6.456  10.596   6.305  0.6035 -0.7350  0.0323
10986SOL    HW136363   6.541  10.601   6.350  1.2143 -0.9177 -1.0884
10986SOL    HW236364   6.478  10.601   6.212 -0.6363 -0.5951 -0.2569
10987SOL     OW36365   4.247   1.351   2.117 -0.1860 -0.3737 -0.1018
10987SOL    HW136366   4.326   1.299   2.131 -0.1016  0.2379  1.7834
10987SOL    HW236367   4.225   1.336   2.025  2.2011 -0.4290 -0.7123
10988SOL     OW36368   7.941   1.674   9.688  0.1090  0.4945 -0.5866
10988SOL    HW136369   7.881   1.602   9.671 -0.4892  0.2667  2.1654
10988SOL    HW236370   8.022   1.650   9.644 -0.5624 -1.1367 -0.9506
10989SOL     OW36371  10.681   5.303   6.244 -0.2919 -0.6261  0.0024
10989SOL    HW136372  10.600   5.301   6.193  0.5462 -0.0688 -1.3717
10989SOL    HW236373  10.746   5.340   6.184  1.0285 -1.2746  1.0229
10990SOL     OW36374  10.519   9.478   9.215 -0.1576 -0.1227  0.0138
10990SOL    HW136375  10.480   9.404   9.169  0.3194 -0.4065  0.0698
10990SOL    HW236376  10.549   9.442   9.298  2.0758 -0.3748 -0.8501
10991SOL     OW36377   5.904   1.639  10.644  0.2393 -0.0256  0.0044
10991SOL    HW136378   5.952   1.630  10.561 -0.2642  2.4239 -0.6064
10991SOL    HW236379   5.972   1.645  10.710  0.9169  4.2430 -0.9451
10992SOL     OW36380   0.161  10.638   4.873 -0.1463 -0.3839  0.3016
10992SOL    HW136381   0.189  10.699   4.941 -0.2187  0.7787 -0.6850
10992SOL    HW236382   0.098  10.688   4.821  0.4263 -1.0193 -1.0244
10993SOL     OW36383   5.079   6.151   1.280 -0.6237  0.1615 -0.0974
10993SOL    HW136384   5.124   6.097   1.215 -1.5468 -1.5852  0.6733
10993SOL    HW236385   5.031   6.088   1.333 -1.6689  1.7660  0.8764
10994SOL     OW36386   6.998   6.395   7.886 -0.0259  0.2456  0.1509
10994SOL    HW136387   7.031   6.405   7.797  0.8315  0.7498  0.5083
10994SOL    HW236388   7.076   6.370   7.937 -0.1254  1.6862  1.0594
10995SOL     OW36389   8.900   5.956   8.969  0.9450 -0.5055 -0.6235
10995SOL    HW136390   8.827   5.902   8.938  0.2359  0.5904 -0.8899
10995SOL    HW236391   8.934   5.908   9.045 -1.0623 -0.2503  0.4787
10996SOL     OW36392   6.731  10.524   6.409  0.0400 -0.0068  0.0553
10996SOL    HW136393   6.735  10.469   6.487 -0.7669 -0.7605 -0.4256
10996SOL    HW236394   6.803  10.494   6.354  0.0503 -0.0957  0.1166
10997SOL     OW36395   9.260   7.531   2.698  0.5769 -0.5668 -0.3712
10997SOL    HW136396   9.343   7.533   2.650  0.7467  0.3597 -0.0664
10997SOL    HW236397   9.198   7.489   2.639  0.8045  0.4829 -1.3711
10998SOL     OW36398  10.767   4.268   2.767 -0.0985  0.0925  0.2885
10998SOL    HW136399  10.791   4.336   2.705 -1.2470  0.3097  0.0668
10998SOL    HW236400  10.850   4.239   2.805  0.2498  2.6956  1.5488
10999SOL     OW36401   5.920   2.755  10.184  0.0962  0.0247 -0.6460
10999SOL    HW136402   5.999   2.725  10.140 -0.2352  0.4542 -1.5355
10999SOL    HW236403   5.906   2.692  10.255  0.9475 -0.3348 -0.7999
11000SOL     OW36404   9.994   2.264  10.632  0.0118 -0.6181  0.0954
11000SOL    HW136405   9.976   2.284  10.540  0.4868 -2.5713 -0.4599
11000SOL    HW236406  10.014   2.348  10.672  0.2591  0.2015 -1.6998
11001SOL     OW36407   3.719   7.000   5.030  0.5759  0.8482 -0.4801
11001SOL    HW136408   3.763   7.083   5.047  0.5181  1.2694 -2.3385
11001SOL    HW236409   3.780   6.952   4.973  0.8005 -0.5650  0.9208
11002SOL     OW36410  10.584   2.960   4.396 -0.1170 -0.2989 -0.6717
11002SOL    HW136411  10.538   2.918   4.469  0.5889  1.8746  1.0764
11002SOL    HW236412  10.676   2.935   4.407  0.0635  0.4162 -0.5503
11003SOL     OW36413   0.313   2.807   4.758 -0.3469 -0.1242  0.3203
11003SOL    HW136414   0.304   2.746   4.684 -0.1535 -0.2793  0.4247
11003SOL    HW236415   0.233   2.860   4.755 -0.5584 -0.4452  0.2822
11004SOL     OW36416   4.549   3.893   0.531  0.2508 -0.6130  0.2380
11004SOL    HW136417   4.558   3.973   0.479  0.5901 -0.5695  0.3637
11004SOL    HW236418   4.624   3.839   0.505  0.5203 -0.5201  0.8069
11005SOL     OW36419   1.513   8.103   5.719  0.2736 -0.0936  0.4388
11005SOL    HW136420   1.552   8.032   5.771  1.2874  1.7021  2.1727
11005SOL    HW236421   1.464   8.155   5.782  1.0586  1.8037 -0.4858
11006SOL     OW36422   0.969   2.904   9.639  0.1569  0.7649 -0.2489
11006SOL    HW136423   0.936   2.979   9.688 -0.4016  0.2909  0.1140
11006SOL    HW236424   0.890   2.854   9.616  0.5787 -0.1331  0.2162
11007SOL     OW36425   2.680   4.816   0.879  0.0933 -0.3258  0.0080
11007SOL    HW136426   2.703   4.881   0.813  0.1835 -0.7236 -0.3572
11007SOL    HW236427   2.759   4.762   0.888 -0.5809 -1.5472 -1.0766
11008SOL     OW36428   7.337   3.598   4.964 -0.2738  0.5761  0.7898
11008SOL    HW136429   7.263   3.610   4.905  0.2925 -1.4116 -0.3502
11008SOL    HW236430   7.309   3.529   5.024 -0.0386  1.1059  1.5140
11009SOL     OW36431   3.452   8.454   4.002  0.4603 -0.1698  0.0210
11009SOL    HW136432   3.404   8.533   4.029  0.3880 -1.1376  2.8617
11009SOL    HW236433   3.484   8.475   3.914  0.0088  2.8433  0.5069
11010SOL     OW36434   9.588   4.452   1.028  0.0679  0.1433 -0.2847
11010SOL    HW136435   9.653   4.448   1.098 -0.0609 -0.3065 -0.1916
11010SOL    HW236436   9.522   4.387   1.052 -0.3544  0.5118 -0.4425
11011SOL     OW36437   5.341   0.920   3.337 -0.0402 -0.0213  0.2098
11011SOL    HW136438   5.338   0.953   3.427 -0.3074 -0.3153  0.3073
11011SOL    HW236439   5.250   0.900   3.315  0.1720 -1.1033  0.2940
11012SOL     OW36440   8.033   9.391   5.554 -0.5781  0.2437 -0.4881
11012SOL    HW136441   7.970   9.385   5.482 -1.6423  0.3781  0.4128
11012SOL    HW236442   8.113   9.350   5.520 -1.8450 -1.9393 -0.8650
11013SOL     OW36443   5.168   6.732   5.750  0.4178  0.0792 -0.1382
11013SOL    HW136444   5.202   6.746   5.839  1.0032 -0.7753 -0.2180
11013SOL    HW236445   5.219   6.791   5.695 -0.7117  1.4173  0.2508
11014SOL     OW36446   1.518  10.482   4.476  0.0270 -0.3877 -0.0714
11014SOL    HW136447   1.556  10.394   4.474 -2.2738 -1.4623  1.7483
11014SOL    HW236448   1.499  10.498   4.568 -1.2935  1.2730 -0.6095
11015SOL     OW36449   3.736   7.919   9.515 -0.5855  0.3755 -0.0118
11015SOL    HW136450   3.702   8.003   9.546 -1.7491 -0.0416 -0.1359
11015SOL    HW236451   3.662   7.859   9.522  0.6869 -1.0597  1.6688
11016SOL     OW36452   3.960   9.293   0.221  0.1328  1.3324 -0.0077
11016SOL    HW136453   3.869   9.293   0.192 -0.3576  0.2141  1.4288
11016SOL    HW236454   3.968   9.372   0.274 -1.0375 -0.3115  2.7706
11017SOL     OW36455   3.325   0.072   0.964 -0.3352  0.1948  0.6871
11017SOL    HW136456   3.247   0.017   0.956 -0.3186  0.1857  0.5794
11017SOL    HW236457   3.349   0.068   1.056 -0.3839  0.0895  0.6946
11018SOL     OW36458   9.906   6.920   4.838  0.0503 -0.2202  0.3628
11018SOL    HW136459   9.943   6.917   4.926  0.5342 -0.1972  0.1630
11018SOL    HW236460   9.939   6.841   4.795  1.6980  0.9089 -0.5279
11019SOL     OW36461   4.960   6.736   5.160 -0.4738 -0.2214 -0.1801
11019SOL    HW136462   5.007   6.736   5.244  1.0583 -0.8301 -1.0150
11019SOL    HW236463   4.982   6.651   5.120 -1.6921 -0.1998 -0.9300
11020SOL     OW36464   4.001   7.838   8.938 -0.0411  0.7533  0.8654
11020SOL    HW136465   4.015   7.926   8.902  0.5858  0.2806 -0.0601
11020SOL    HW236466   3.947   7.852   9.016 -3.0816  1.6150 -1.2942
11021SOL     OW36467   7.050   7.403   3.308  0.1610 -0.8376  0.1830
11021SOL    HW136468   6.984   7.458   3.267  0.2474  0.7524  2.1178
11021SOL    HW236469   7.002   7.325   3.337 -0.4924 -0.5229 -0.0557
11022SOL     OW36470   3.953   9.641   9.570 -0.6261 -1.0334  0.3330
11022SOL    HW136471   4.008   9.603   9.638 -0.5878 -0.9705  0.3392
11022SOL    HW236472   3.911   9.566   9.528 -1.8228 -0.9892  1.4229
11023SOL     OW36473   3.457   5.897   1.909  0.2751  0.4373 -0.2772
11023SOL    HW136474   3.493   5.972   1.956  1.1589 -0.8855  1.2190
11023SOL    HW236475   3.384   5.866   1.964 -0.1184  0.2419 -0.9058
11024SOL     OW36476   5.812   5.424   9.890  0.2289  1.0227  0.1194
11024SOL    HW136477   5.903   5.454   9.897  0.9471 -0.2261 -2.8212
11024SOL    HW236478   5.769   5.488   9.833 -0.0507  0.3065 -0.4962
11025SOL     OW36479   7.607   1.256  10.397  0.3493 -0.2801 -0.2512
11025SOL    HW136480   7.681   1.229  10.451  0.7255 -0.0981 -0.6680
11025SOL    HW236481   7.534   1.204  10.429  0.3307  0.5410  1.0895
11026SOL     OW36482   2.180   6.811  10.667  0.1922  0.0357  0.2677
11026SOL    HW136483   2.244   6.784  10.733  0.1117 -0.3606  0.1842
11026SOL    HW236484   2.192   6.749  10.595 -0.0792  0.1470  0.1265
11027SOL     OW36485   7.583   6.043   8.647  0.3924 -0.0816  0.0494
11027SOL    HW136486   7.531   6.078   8.575 -0.2800  0.7056  0.8987
11027SOL    HW236487   7.586   5.949   8.631 -2.3284 -0.3124  0.6103
11028SOL     OW36488   2.893   1.851   2.092 -0.0587  0.6444 -0.0472
11028SOL    HW136489   2.802   1.876   2.083 -0.0051  0.1467 -2.0949
11028SOL    HW236490   2.891   1.767   2.136 -0.6261  0.2813 -0.7654
11029SOL     OW36491   9.827   5.225   7.060 -0.4028  0.7069  0.4764
11029SOL    HW136492   9.782   5.284   7.000  0.6831 -0.4101 -1.4679
11029SOL    HW236493   9.757   5.170   7.096 -0.7227 -0.5446 -1.9783
11030SOL     OW36494   3.364   2.809   2.899  0.1993 -0.5587  0.1183
11030SOL    HW136495   3.403   2.741   2.955  0.3195  0.0634  0.8045
11030SOL    HW236496   3.436   2.842   2.847  0.3781 -0.1661  0.6071
11031SOL     OW36497   8.187  10.667   3.434  0.3199 -0.3589 -0.6786
11031SOL    HW136498   8.092  10.667   3.430  0.2333  0.0839  1.1609
11031SOL    HW236499   8.211  10.575   3.429 -0.1539 -0.4348 -1.8174
11032SOL     OW36500   6.635   3.985   7.223  0.0447  0.5688  0.1564
11032SOL    HW136501   6.615   4.067   7.177 -0.4347  0.2773 -0.1589
11032SOL    HW236502   6.619   4.005   7.316 -1.4446  0.4266 -0.0632
11033SOL     OW36503   4.347   9.091  10.536 -0.1756 -0.1130  0.0738
11033SOL    HW136504   4.376   9.105  10.445 -1.2322  0.5712 -0.1653
11033SOL    HW236505   4.272   9.032  10.528 -0.2527 -0.0746  0.5142
11034SOL     OW36506   8.278   6.909   8.184  0.1396 -0.2657 -0.1547
11034SOL    HW136507   8.326   6.888   8.104 -1.9701 -0.4268 -1.4161
11034SOL    HW236508   8.328   6.865   8.253  1.6556 -0.6327 -1.4357
11035SOL     OW36509   9.803   4.829   5.285 -0.0616 -0.2903  0.0389
11035SOL    HW136510   9.795   4.779   5.366  1.1060 -0.1675  0.2366
11035SOL    HW236511   9.822   4.919   5.314 -1.7623  0.2194 -0.3226
11036SOL     OW36512   9.560   6.505   7.975  0.0632 -0.6220 -0.2294
11036SOL    HW136513   9.515   6.572   7.924  1.0139 -0.2531 -0.5864
11036SOL    HW236514   9.606   6.553   8.044  1.4059 -0.8290 -0.9693
11037SOL     OW36515   7.302   0.553   2.831  0.2166  0.5345 -0.1961
11037SOL    HW136516   7.309   0.624   2.767 -1.0702  0.7126 -0.1488
11037SOL    HW236517   7.351   0.584   2.907 -3.0034  2.8269  1.0825
11038SOL     OW36518   4.197   9.746   5.102 -0.1715 -0.2425  0.1382
11038SOL    HW136519   4.152   9.683   5.159  1.1278 -0.0283  1.4281
11038SOL    HW236520   4.148   9.827   5.113 -0.2333 -0.3367  0.5644
11039SOL     OW36521   6.859   4.769  10.458 -0.1278  0.4910 -0.3845
11039SOL    HW136522   6.799   4.807  10.394 -0.0505 -0.1327 -0.8421
11039SOL    HW236523   6.932   4.831  10.463  0.7069 -0.3083 -2.2401
11040SOL     OW36524   5.654   6.521   7.131  0.2605 -0.6900  0.2276
11040SOL    HW136525   5.586   6.455   7.146 -0.1565 -0.4465 -0.5394
11040SOL    HW236526   5.709   6.517   7.209  0.1728 -1.8643  0.2338
11041SOL     OW36527  10.384   9.482   8.775 -0.2882 -0.3461 -0.2294
11041SOL    HW136528  10.338   9.474   8.692 -0.3753 -1.5330 -0.0740
11041SOL    HW236529  10.354   9.565   8.812 -0.1852  0.2293 -1.4123
11042SOL     OW36530   2.213   6.007   5.584  0.3656  0.1748  0.3766
11042SOL    HW136531   2.253   6.069   5.524  1.8853 -0.0302  1.1581
11042SOL    HW236532   2.207   6.054   5.667  0.5434 -0.3616  0.6961
11043SOL     OW36533   4.708   4.638  10.051 -0.0165  0.4704 -0.0279
11043SOL    HW136534   4.615   4.635  10.076  0.4924 -0.2913  1.8769
11043SOL    HW236535   4.738   4.724  10.081  0.0263  0.4847 -0.1137
11044SOL     OW36536   2.587   6.666   5.405  0.2575  0.1944  0.0503
11044SOL    HW136537   2.543   6.744   5.371 -0.0107  0.2874  0.6018
11044SOL    HW236538   2.665   6.657   5.351  0.1920  0.7392 -0.1349
11045SOL     OW36539   2.693   0.799   1.686 -0.6874  0.3216  0.5235
11045SOL    HW136540   2.736   0.728   1.734 -0.7022 -0.5440 -0.7348
11045SOL    HW236541   2.608   0.763   1.661 -0.4529  0.5647 -0.6479
11046SOL     OW36542   6.673   4.144   5.263  0.0801 -0.3811 -0.4449
11046SOL    HW136543   6.580   4.140   5.285  0.4678  1.0644  1.6103
11046SOL    HW236544   6.689   4.237   5.246  1.2808 -0.5424 -0.2301
11047SOL     OW36545  10.938   1.269   9.521  0.1035  0.1710  0.3143
11047SOL    HW136546  10.918   1.202   9.455 -1.0105  0.4029  0.3965
11047SOL    HW236547  10.852   1.298   9.551  0.5643  1.9792 -0.0552
11048SOL     OW36548   7.662   1.619   2.292 -0.2103  0.1540 -0.2193
11048SOL    HW136549   7.668   1.595   2.385 -0.6072 -1.8585 -0.6964
11048SOL    HW236550   7.647   1.714   2.293  1.5559  0.4453  1.7119
11049SOL     OW36551   9.697   2.060   8.825  0.4381  0.3903  0.3549
11049SOL    HW136552   9.728   2.016   8.904  0.0699 -0.4279  0.0526
11049SOL    HW236553   9.629   2.003   8.791 -0.2119  1.3213  0.0755
11050SOL     OW36554   0.665   6.430  10.441  0.3023 -0.0278 -0.5412
11050SOL    HW136555   0.659   6.418  10.346 -0.5983 -0.1142 -0.4758
11050SOL    HW236556   0.656   6.525  10.454  2.3857  0.2287 -0.6733
11051SOL     OW36557   8.495   8.608   1.279  0.0273 -0.0959  0.4949
11051SOL    HW136558   8.415   8.648   1.312 -0.1707 -1.7968  2.1116
11051SOL    HW236559   8.558   8.680   1.277 -1.1633  0.9785  0.3940
11052SOL     OW36560   2.200   7.682   0.526 -0.2809 -0.0938  0.1748
11052SOL    HW136561   2.162   7.605   0.568 -0.7004  0.4626  0.8211
11052SOL    HW236562   2.285   7.693   0.570 -1.1860  1.1334  1.6676
11053SOL     OW36563   2.469  10.201   0.677 -0.1547 -0.2814 -0.3978
11053SOL    HW136564   2.522  10.281   0.676 -0.8411  0.2043  0.6575
11053SOL    HW236565   2.506  10.149   0.748 -1.1235  0.0878  0.3810
11054SOL     OW36566   9.440   6.542   2.275  0.3612  0.0389 -0.9683
11054SOL    HW136567   9.505   6.599   2.233  2.0847  0.0239  1.5717
11054SOL    HW236568   9.464   6.454   2.246  1.2127  0.0789 -0.4133
11055SOL     OW36569  10.539   8.889   4.429  0.0671  0.3330  0.2102
11055SOL    HW136570  10.573   8.848   4.508  2.6109  0.6621 -0.6640
11055SOL    HW236571  10.573   8.836   4.357 -1.5130  0.5385 -0.7175
11056SOL     OW36572   0.940   5.422   6.792  0.8719  0.6427  0.0814
11056SOL    HW136573   0.914   5.511   6.815  0.6619  1.2406 -2.3809
11056SOL    HW236574   0.901   5.367   6.861 -0.4213  2.2763  0.6836
11057SOL     OW36575   5.585   7.692   8.046  0.4318  0.0245  0.2196
11057SOL    HW136576   5.606   7.599   8.057  0.8617  0.2264  1.1811
11057SOL    HW236577   5.505   7.705   8.097  0.5829  0.2555  0.4022
11058SOL     OW36578   9.585   7.191  10.379 -0.1223 -0.3035 -0.1810
11058SOL    HW136579   9.571   7.271  10.329 -2.3835 -0.0675  0.7444
11058SOL    HW236580   9.506   7.139  10.363  0.2874 -1.3389  1.0465
11059SOL     OW36581  10.845   4.188   6.345  0.1268 -0.0251 -0.4074
11059SOL    HW136582  10.776   4.227   6.399 -0.5713  1.2110 -2.1321
11059SOL    HW236583  10.915   4.253   6.345  0.8789 -0.8237  0.4843
11060SOL     OW36584   1.887  10.294   4.616  0.6492  0.4103 -0.0488
11060SOL    HW136585   1.832  10.362   4.655 -0.1637  0.4522 -1.2400
11060SOL    HW236586   1.937  10.339   4.549  0.0724 -0.1561 -0.8798
11061SOL     OW36587   6.883   6.564   7.709 -0.2611 -0.6160  0.1683
11061SOL    HW136588   6.900   6.510   7.632  0.4267  0.2370 -0.2880
11061SOL    HW236589   6.893   6.654   7.678 -1.4473 -0.2233  0.9078
11062SOL     OW36590   2.979   7.844   5.772  0.4399  0.3105 -0.0414
11062SOL    HW136591   2.940   7.765   5.808 -0.2706 -0.2719 -2.0040
11062SOL    HW236592   3.071   7.822   5.757  0.1914 -0.2136 -0.7867
11063SOL     OW36593   7.893   4.940   2.183  0.2059  0.0054  0.0368
11063SOL    HW136594   7.983   4.919   2.206 -0.0640  1.3561  2.5011
11063SOL    HW236595   7.842   4.919   2.262 -1.4615  0.3885 -0.9038
11064SOL     OW36596   5.768   2.743   0.263 -0.1169 -0.0929  0.6848
11064SOL    HW136597   5.841   2.705   0.312  0.0801  0.1350  0.5718
11064SOL    HW236598   5.762   2.691   0.184  0.9715  0.8811 -0.0739
11065SOL     OW36599   4.059   1.210   6.938  0.0413 -0.3825 -0.5020
11065SOL    HW136600   4.048   1.122   6.975 -0.0068 -0.3125 -0.3498
11065SOL    HW236601   4.148   1.235   6.963  0.0204 -0.3483 -0.4606
11066SOL     OW36602  10.387   0.987   6.586  0.2045  0.1005  0.0341
11066SOL    HW136603  10.293   1.002   6.576  0.1964  1.0932  1.6156
11066SOL    HW236604  10.415   0.957   6.499 -1.3646  0.8546 -0.7522
11067SOL     OW36605   9.237   4.100   9.372  0.4629 -0.2861 -0.6881
11067SOL    HW136606   9.196   4.116   9.288 -3.7092 -0.8934  1.0972
11067SOL    HW236607   9.194   4.161   9.432  2.3717 -0.8051  1.2843
11068SOL     OW36608   8.079   9.728   9.749  0.0264 -0.5844  0.1219
11068SOL    HW136609   8.145   9.721   9.680  0.3980  1.9854  0.1845
11068SOL    HW236610   7.996   9.727   9.703  0.2671  0.9457 -0.3588
11069SOL     OW36611   4.963   1.324   8.276 -0.5417 -0.1751 -0.3044
11069SOL    HW136612   4.954   1.370   8.360 -1.2470 -0.9753  0.0672
11069SOL    HW236613   5.044   1.274   8.285 -0.7471 -0.4569 -0.0009
11070SOL     OW36614   0.360   1.406  10.702 -0.1645 -0.4992  0.7201
11070SOL    HW136615   0.337   1.330  10.757 -1.7955  0.2481  1.0965
11070SOL    HW236616   0.403   1.467  10.762 -0.0242 -0.5798  0.7013
11071SOL     OW36617   8.876   7.398   3.920  0.1696 -0.2821  0.5290
11071SOL    HW136618   8.895   7.374   3.829  2.8565  1.1083  0.6710
11071SOL    HW236619   8.930   7.338   3.971 -1.6715 -1.3502  1.2476
11072SOL     OW36620   3.337   0.581   1.615 -0.7088 -0.1229 -0.1592
11072SOL    HW136621   3.279   0.656   1.628  3.0772  2.6917  1.2316
11072SOL    HW236622   3.337   0.535   1.698  0.2626  0.8042  0.3652
11073SOL     OW36623   0.427   1.794   0.278  0.0357 -0.1201  0.3643
11073SOL    HW136624   0.394   1.857   0.342  0.1728 -0.2282  0.5439
11073SOL    HW236625   0.370   1.718   0.287  0.2888 -0.2802  0.6251
11074SOL     OW36626   8.809   1.775   9.786 -0.5630 -0.5045  0.4038
11074SOL    HW136627   8.836   1.867   9.775  1.6803 -0.9542  1.8496
11074SOL    HW236628   8.751   1.777   9.862 -0.4234 -0.2907  0.5091
11075SOL     OW36629   8.643   0.275   0.653 -0.4353 -0.7215  0.5558
11075SOL    HW136630   8.565   0.271   0.598  0.4412 -0.6316 -0.7009
11075SOL    HW236631   8.611   0.259   0.742 -2.0835  0.6889  0.2279
11076SOL     OW36632   7.274   0.541   9.515  0.3727 -0.4434 -0.5713
11076SOL    HW136633   7.193   0.586   9.491 -0.1284  0.6370  2.8421
11076SOL    HW236634   7.254   0.497   9.597  3.2852 -0.0932  0.3920
11077SOL     OW36635   6.209   0.165   6.225 -0.3049  0.7177 -0.1960
11077SOL    HW136636   6.228   0.254   6.197 -0.1918  0.5081 -0.7975
11077SOL    HW236637   6.267   0.150   6.300  0.9031  0.5734 -1.1349
11078SOL     OW36638   1.819   7.597   7.730  0.1285  0.5069  0.7248
11078SOL    HW136639   1.865   7.675   7.761  0.3334 -0.6019  3.3970
11078SOL    HW236640   1.889   7.536   7.705 -0.0129  0.8821 -0.5932
11079SOL     OW36641   1.780   7.347   5.127 -0.0794 -0.1373 -0.2820
11079SOL    HW136642   1.714   7.319   5.064  1.1479 -0.1214 -1.6285
11079SOL    HW236643   1.858   7.296   5.104  0.1844 -0.6771  1.7272
11080SOL     OW36644   8.949   7.627   9.444  0.4881  0.6093 -0.2480
11080SOL    HW136645   8.983   7.701   9.394 -1.5142  1.4267 -0.4505
11080SOL    HW236646   8.928   7.664   9.530 -0.8587  0.3889 -0.4664
11081SOL     OW36647   9.471   8.261   0.207 -0.0891  0.3191  0.4503
11081SOL    HW136648   9.455   8.167   0.220 -0.4489  0.1740 -0.8882
11081SOL    HW236649   9.383   8.300   0.207 -0.0589  0.4091 -0.6596
11082SOL     OW36650   9.816   2.981   6.725  0.0991  0.2723 -0.1559
11082SOL    HW136651   9.877   2.927   6.675 -0.4260 -0.7336  0.2803
11082SOL    HW236652   9.768   2.919   6.779  0.0466  1.2692  0.9432
11083SOL     OW36653   0.558   9.370   5.810  0.3922  0.2852 -0.3886
11083SOL    HW136654   0.534   9.440   5.749  0.0127  0.3627 -0.1473
11083SOL    HW236655   0.612   9.310   5.758 -0.5044 -0.0093 -0.9806
11084SOL     OW36656   7.211   2.054   3.187 -0.4657 -0.6249 -0.2037
11084SOL    HW136657   7.181   2.121   3.248  2.9529  0.1146  0.8230
11084SOL    HW236658   7.247   2.103   3.113  1.8430 -1.2594  0.4444
11085SOL     OW36659   6.355   3.748   6.520 -0.0064 -0.5402  0.0313
11085SOL    HW136660   6.341   3.733   6.427  0.4961 -1.6173  0.1200
11085SOL    HW236661   6.321   3.835   6.536  1.0511  0.1576 -1.4196
11086SOL     OW36662   6.919   4.814   3.653 -0.1925 -0.0348 -0.1905
11086SOL    HW136663   7.014   4.822   3.661 -0.5337  1.9082  2.5698
11086SOL    HW236664   6.906   4.729   3.611  2.7656  0.0110 -1.3341
11087SOL     OW36665   2.595  10.506   8.034  0.1813  0.6750 -0.3133
11087SOL    HW136666   2.555  10.484   8.118  0.3870 -1.4617 -0.7388
11087SOL    HW236667   2.566  10.595   8.016  0.4175  1.2789  2.1704
11088SOL     OW36668   6.300   8.249  10.084 -0.0837  0.0764  0.8242
11088SOL    HW136669   6.286   8.192  10.009  0.8918 -0.0009  0.6853
11088SOL    HW236670   6.279   8.336  10.052  1.3042  0.1838  0.1375
11089SOL     OW36671   7.683   7.959   1.966 -0.0699  0.2252 -0.1116
11089SOL    HW136672   7.654   7.892   2.028 -2.5881  0.8577 -0.5868
11089SOL    HW236673   7.722   8.027   2.022 -0.9012  0.0798  0.6551
11090SOL     OW36674   1.645   2.911   0.499  0.3871  0.8970  0.0646
11090SOL    HW136675   1.649   2.883   0.408  2.7366  1.2994  0.0118
11090SOL    HW236676   1.635   3.006   0.495 -0.8752  0.7776  0.2373
11091SOL     OW36677   0.499   1.041   1.630 -0.0154  0.9177  0.7058
11091SOL    HW136678   0.589   1.023   1.603  0.0475  0.5697  1.1341
11091SOL    HW236679   0.476   1.122   1.585  0.1977  0.5225 -0.1366
11092SOL     OW36680   2.210   3.880   1.612  0.6507 -0.3920  0.1726
11092SOL    HW136681   2.224   3.789   1.638 -1.8934 -0.2522  2.2183
11092SOL    HW236682   2.234   3.931   1.689 -2.9076  0.3019  0.8952
11093SOL     OW36683  10.655   5.309   7.042  0.0574  0.2307 -0.4596
11093SOL    HW136684  10.607   5.227   7.030  0.9103 -0.0766 -1.8823
11093SOL    HW236685  10.590   5.377   7.019 -0.1012 -0.1264 -1.0890
11094SOL     OW36686   6.069  10.115   9.425  0.4735 -0.1571 -0.1599
11094SOL    HW136687   5.981  10.101   9.460  0.6323  1.8730  1.1718
11094SOL    HW236688   6.127  10.077   9.490  0.6292  0.2112 -0.0792
11095SOL     OW36689   4.116   7.753   0.042 -0.0985  0.7417  0.1872
11095SOL    HW136690   4.049   7.719  -0.019  0.5390  1.1580 -0.7526
11095SOL    HW236691   4.199   7.732   0.000  0.3636  0.5204  1.2037
11096SOL     OW36692   7.883   9.944  10.208 -0.4741 -0.2113 -0.0310
11096SOL    HW136693   7.899   9.939  10.302  2.7552 -0.7540 -0.5568
11096SOL    HW236694   7.860   9.854  10.182  0.3478 -0.4188 -0.0404
11097SOL     OW36695   9.174   8.615   9.216 -0.0999  0.1066 -0.9558
11097SOL    HW136696   9.254   8.640   9.168  0.1114  0.6506 -0.3258
11097SOL    HW236697   9.202   8.545   9.274 -0.3665 -0.5839 -1.6525
11098SOL     OW36698   9.514  10.866   3.672  0.3292 -0.3637 -0.7554
11098SOL    HW136699   9.478  10.799   3.730  2.9871 -1.2354 -0.0579
11098SOL    HW236700   9.447  10.934   3.670 -1.3526 -1.9213  0.4789
11099SOL     OW36701   1.006   3.526   6.751  0.2284  0.0131  0.0501
11099SOL    HW136702   0.942   3.489   6.691  0.8111 -1.1253  0.1264
11099SOL    HW236703   1.001   3.621   6.736 -0.8070 -0.1353 -0.5928
11100SOL     OW36704   6.540   2.054   4.731  0.3444 -0.3108 -0.0817
11100SOL    HW136705   6.540   1.990   4.660 -0.4542  1.8209 -2.0715
11100SOL    HW236706   6.462   2.032   4.783  0.0427 -0.9221 -0.7912
11101SOL     OW36707  10.602   5.497   7.871  0.4679 -0.3058 -0.1882
11101SOL    HW136708  10.665   5.429   7.891 -0.3765 -1.2009 -0.5076
11101SOL    HW236709  10.606   5.506   7.776  1.9881  1.4889  0.0252
11102SOL     OW36710   2.926   6.546   4.705 -0.0483  0.2922 -0.1023
11102SOL    HW136711   2.962   6.459   4.689  0.6900  1.0008 -2.3961
11102SOL    HW236712   2.993   6.590   4.757  0.5575  0.2158 -0.8121
11103SOL     OW36713   8.064   4.890   8.189  0.1342  0.7640  0.1178
11103SOL    HW136714   8.102   4.974   8.213 -3.2871  2.2943  0.5475
11103SOL    HW236715   8.077   4.884   8.094  0.8754  1.5424  0.1677
11104SOL     OW36716   8.743   0.353   7.713 -0.1948  0.0141  0.5563
11104SOL    HW136717   8.690   0.308   7.778 -0.4675 -0.5986 -0.0802
11104SOL    HW236718   8.799   0.285   7.676 -0.2524  0.2918 -0.0526
11105SOL     OW36719   4.838   0.279   2.810 -0.7371 -0.2059 -0.2939
11105SOL    HW136720   4.820   0.362   2.765 -0.4819  0.1712  0.2924
11105SOL    HW236721   4.761   0.264   2.863  1.1922  2.1943  3.4031
11106SOL     OW36722   7.331   5.649   6.774 -0.1384 -0.2022 -0.4124
11106SOL    HW136723   7.390   5.609   6.838 -0.1788  0.6411  0.1595
11106SOL    HW236724   7.244   5.616   6.797 -0.1649  0.1743  0.0207
11107SOL     OW36725   4.105   0.525   1.378  0.0667 -0.2211  0.2669
11107SOL    HW136726   4.100   0.617   1.405 -0.2580 -0.0894 -0.2331
11107SOL    HW236727   4.166   0.485   1.440 -0.6549  0.0830  1.1985
11108SOL     OW36728   3.147   9.206   2.819 -0.6067 -0.0201 -0.3488
11108SOL    HW136729   3.156   9.111   2.804 -0.6192 -0.1873  0.6947
11108SOL    HW236730   3.219   9.245   2.769  0.5644 -0.7114  0.7720
11109SOL     OW36731   4.065   9.188   3.983 -0.0488 -0.0523  0.0751
11109SOL    HW136732   4.037   9.140   3.905  1.3779 -1.8724  0.6532
11109SOL    HW236733   3.986   9.193   4.037  0.3971 -4.5704  1.4062
11110SOL     OW36734   7.615   1.572   3.935  0.2170  0.0257 -0.0873
11110SOL    HW136735   7.663   1.537   4.010 -0.1744  0.1222  0.2145
11110SOL    HW236736   7.683   1.601   3.874  0.5445 -2.5585 -0.9843
11111SOL     OW36737   0.590   1.139   5.052  0.1178  0.1306  0.0950
11111SOL    HW136738   0.620   1.122   4.963  0.6706  2.3043 -0.1553
11111SOL    HW236739   0.669   1.127   5.106  0.1294  0.2476  0.1054
11112SOL     OW36740   9.126   5.087   3.200  0.0418  0.6096  0.4826
11112SOL    HW136741   9.129   4.995   3.225 -0.6559  0.5644  0.4280
11112SOL    HW236742   9.217   5.115   3.197  0.3299 -0.4695 -0.9519
11113SOL     OW36743   6.810  10.924   9.125  0.0098 -0.1025 -0.0027
11113SOL    HW136744   6.890  10.954   9.082  0.0611 -2.0003 -1.2878
11113SOL    HW236745   6.839  10.854   9.184 -0.6918 -0.7256 -0.3941
11114SOL     OW36746   6.719   2.737   4.492  0.1925  0.1196 -0.0972
11114SOL    HW136747   6.744   2.748   4.584  0.1233 -1.4510  0.1217
11114SOL    HW236748   6.624   2.751   4.491  0.1063 -0.4352  0.1748
11115SOL     OW36749   3.999   2.392   5.164 -0.0361 -0.1181 -0.4437
11115SOL    HW136750   4.060   2.321   5.145 -0.1219  0.3738 -2.6602
11115SOL    HW236751   3.917   2.349   5.186  0.5337 -0.7281  0.5631
11116SOL     OW36752   1.800   7.782   1.743  0.2107 -0.1962  0.1720
11116SOL    HW136753   1.875   7.807   1.797  0.3431 -1.3877  0.5479
11116SOL    HW236754   1.827   7.802   1.653  2.3040 -3.6583 -0.0815
11117SOL     OW36755   2.736   3.693   7.305 -0.3245  0.4055  0.3596
11117SOL    HW136756   2.684   3.763   7.265 -1.7494  0.8519  2.8464
11117SOL    HW236757   2.812   3.738   7.343 -0.2140  0.3287  0.2280
11118SOL     OW36758   6.475   5.515   8.293  0.0434  0.4795  0.2715
11118SOL    HW136759   6.381   5.497   8.288  0.0175  1.2813 -4.1483
11118SOL    HW236760   6.514   5.430   8.314 -1.6329  0.1835  2.4075
11119SOL     OW36761  10.917   1.602   0.533  0.2406  0.3033  0.0258
11119SOL    HW136762  10.997   1.646   0.504  0.6825 -1.8399 -2.1993
11119SOL    HW236763  10.945   1.514   0.558 -1.4326 -0.6025 -1.1384
11120SOL     OW36764  10.730  10.429   8.166 -0.7386  0.5276  0.4603
11120SOL    HW136765  10.693  10.506   8.209  0.4799  0.8795  0.8976
11120SOL    HW236766  10.662  10.400   8.105 -1.4006  1.6378  0.6637
11121SOL     OW36767   1.808   2.633   8.658 -0.5335  0.2194  0.2256
11121SOL    HW136768   1.759   2.568   8.708  0.8777 -0.1836  1.1237
11121SOL    HW236769   1.741   2.689   8.618 -1.7325 -1.0392  0.4367
11122SOL     OW36770   6.528   2.486   9.591 -0.3729  0.2972  0.1262
11122SOL    HW136771   6.468   2.560   9.575 -0.6679 -0.2345 -1.2693
11122SOL    HW236772   6.501   2.419   9.528  1.8302  0.1217 -0.6655
11123SOL     OW36773   4.801  10.818   5.548  0.7249 -0.3042  0.3836
11123SOL    HW136774   4.895  10.813   5.566  0.3113  0.3948  2.9969
11123SOL    HW236775   4.789  10.902   5.504  1.3786 -0.6811 -0.5369
11124SOL     OW36776   2.290   5.850   4.954  0.1410 -0.2732 -0.0908
11124SOL    HW136777   2.200   5.837   4.985  0.9407 -0.7081  2.1368
11124SOL    HW236778   2.325   5.919   5.011  0.8275  0.7765 -1.7604
11125SOL     OW36779   2.156   0.465   0.958  0.0151 -0.3194  0.1927
11125SOL    HW136780   2.183   0.375   0.937  0.0416 -0.0463 -0.9683
11125SOL    HW236781   2.090   0.486   0.893 -0.2028  0.4115  0.6419
11126SOL     OW36782   0.638   5.955   3.622 -0.4888  0.2106  0.2752
11126SOL    HW136783   0.547   5.951   3.653 -0.3974  2.2578  0.8885
11126SOL    HW236784   0.676   5.872   3.650 -2.2540 -0.8221 -0.2884
11127SOL     OW36785   8.995   4.332   6.640 -0.1025  0.0745 -0.0412
11127SOL    HW136786   9.014   4.341   6.547 -1.5102  2.9482 -0.1313
11127SOL    HW236787   8.903   4.304   6.643 -0.0311 -0.1163  0.4545
11128SOL     OW36788   0.322   0.670   0.251  0.4494 -0.5593 -0.5071
11128SOL    HW136789   0.417   0.682   0.242  0.2708  0.6969 -0.7640
11128SOL    HW236790   0.290   0.755   0.282 -0.6296 -0.8998 -0.6664
11129SOL     OW36791   9.162   4.388   5.854  0.1364  0.0823 -0.0438
11129SOL    HW136792   9.218   4.464   5.871  0.4388 -0.5521  1.9119
11129SOL    HW236793   9.222   4.314   5.858 -0.6003 -0.4805  0.6418
11130SOL     OW36794   7.467   8.230  10.700  0.1773  0.3079  0.4398
11130SOL    HW136795   7.372   8.246  10.696  0.1614  0.0827 -0.1544
11130SOL    HW236796   7.493   8.264  10.785 -0.7628 -1.3026  1.4084
11131SOL     OW36797   5.008   5.917   3.123  0.0419  0.7576  0.0505
11131SOL    HW136798   4.919   5.949   3.106  0.2065  1.1282 -0.1056
11131SOL    HW236799   4.995   5.841   3.179 -0.3795  0.7873 -0.0028
11132SOL     OW36800   6.975   4.320   4.145 -0.3690  0.4321  0.1411
11132SOL    HW136801   6.934   4.247   4.099  0.2465  0.5200 -0.5423
11132SOL    HW236802   6.948   4.397   4.095  1.1677  0.4364 -0.7067
11133SOL     OW36803   9.071   8.663   5.928 -0.4334 -0.0469  0.4010
11133SOL    HW136804   8.978   8.677   5.909 -0.7531 -2.8985 -0.3230
11133SOL    HW236805   9.089   8.574   5.897  3.0492  1.1828 -1.4321
11134SOL     OW36806  10.052   8.768   4.869 -0.1425  0.4100  0.2272
11134SOL    HW136807  10.121   8.822   4.908 -0.7441  1.1917  0.2211
11134SOL    HW236808  10.081   8.755   4.779 -0.5348  1.6702 -0.0915
11135SOL     OW36809   0.223   2.206   1.188 -0.0216 -0.0794  0.3736
11135SOL    HW136810   0.276   2.279   1.221 -0.0732  0.7268 -1.2951
11135SOL    HW236811   0.133   2.236   1.193 -0.1641 -0.5832  1.0190
11136SOL     OW36812   5.922   5.592   9.508  0.8500  0.4351 -0.4484
11136SOL    HW136813   5.848   5.619   9.453 -0.3359  1.8103  1.7539
11136SOL    HW236814   5.914   5.497   9.515  1.2476  0.1866 -2.9311
11137SOL     OW36815   7.332  10.312   9.145 -0.2492 -0.3243 -0.0225
11137SOL    HW136816   7.414  10.359   9.157  0.0247 -0.1520 -2.2385
11137SOL    HW236817   7.344  10.229   9.190  0.7100  0.1711  0.6331
11138SOL     OW36818   2.811   5.716   8.750 -0.3522  0.5325 -0.1932
11138SOL    HW136819   2.865   5.784   8.791 -0.9514  0.4363  0.7700
11138SOL    HW236820   2.754   5.764   8.689 -0.0101  0.7629 -0.3326
11139SOL     OW36821   6.486   6.641   2.630 -0.3380 -0.2891  0.2630
11139SOL    HW136822   6.524   6.581   2.694 -0.6681 -1.2072 -0.3857
11139SOL    HW236823   6.548   6.713   2.624  0.7159 -1.2062  0.0680
11140SOL     OW36824  10.307   3.969   4.579  0.1205  0.7140  0.4759
11140SOL    HW136825  10.347   4.016   4.652  1.8920 -0.7573  0.5076
11140SOL    HW236826  10.246   4.031   4.540  0.5586  2.1556  2.0346
11141SOL     OW36827   5.334   3.153   5.222 -0.4732 -0.0490 -0.2917
11141SOL    HW136828   5.410   3.128   5.169  0.6014  1.8956  0.2870
11141SOL    HW236829   5.261   3.105   5.183  0.8912 -1.2711 -1.4042
11142SOL     OW36830   1.722   9.432   4.555 -0.2025  0.2078  0.1575
11142SOL    HW136831   1.788   9.403   4.618  2.2891  1.0843 -1.9571
11142SOL    HW236832   1.758   9.513   4.518 -1.6608 -0.2140 -2.2741
11143SOL     OW36833  10.829  10.094   7.903 -0.7615  0.0509 -0.4124
11143SOL    HW136834  10.924  10.091   7.899 -0.7789 -0.3779 -0.6219
11143SOL    HW236835  10.808  10.089   7.996 -0.5641  0.8406 -0.3204
11144SOL     OW36836  10.692   1.122   1.854  0.2698  0.5614  0.4712
11144SOL    HW136837  10.655   1.053   1.799 -4.1260 -0.4504  4.3620
11144SOL    HW236838  10.641   1.200   1.832  0.4117  0.8286  1.0692
11145SOL     OW36839   6.527   3.037   7.711 -0.1044  0.0209  0.2505
11145SOL    HW136840   6.558   3.004   7.627 -0.0708  0.2624  0.1676
11145SOL    HW236841   6.436   3.008   7.717 -0.2417  0.3844 -0.0696
11146SOL     OW36842   1.909   9.389   6.337 -0.1219  0.0538 -0.5310
11146SOL    HW136843   1.832   9.412   6.389 -0.2570 -0.6721 -0.4038
11146SOL    HW236844   1.893   9.428   6.251  0.4148  1.8542  0.1614
11147SOL     OW36845   9.439   4.690   1.088  0.3735  0.0699  0.1191
11147SOL    HW136846   9.371   4.650   1.143  0.4286  2.2868  1.8868
11147SOL    HW236847   9.456   4.625   1.020 -3.1065 -0.7716 -0.0534
11148SOL     OW36848  10.922   6.541   1.221 -0.1132 -0.4333  0.4890
11148SOL    HW136849  10.918   6.461   1.170 -1.9757  0.3457 -0.6131
11148SOL    HW236850  10.907   6.513   1.312  0.2555 -1.4374  0.2470
11149SOL     OW36851   6.865   6.302   3.591 -0.3597 -0.1229  0.4684
11149SOL    HW136852   6.826   6.216   3.577 -1.1309  0.5005 -1.2762
11149SOL    HW236853   6.811   6.342   3.659  0.2869 -1.1755  1.6293
11150SOL     OW36854   6.274   8.277   4.437 -0.1888 -0.0823  0.3844
11150SOL    HW136855   6.289   8.190   4.474  1.1446 -0.2679 -0.5360
11150SOL    HW236856   6.331   8.335   4.488  0.5225 -0.1047 -0.3630
11151SOL     OW36857   5.090   5.489   5.510  0.2783  0.1111  0.5267
11151SOL    HW136858   5.147   5.477   5.434  2.9040 -1.5960  2.6650
11151SOL    HW236859   5.112   5.576   5.543 -0.4100  0.5977 -0.2920
11152SOL     OW36860   7.205   6.391   7.111 -0.1765  0.1830 -0.4189
11152SOL    HW136861   7.299   6.397   7.090  0.4765  0.0303  2.3125
11152SOL    HW236862   7.172   6.323   7.051  0.7854  2.2781 -3.4596
11153SOL     OW36863   3.234   9.845   3.340  0.0321 -0.2964  0.2190
11153SOL    HW136864   3.316   9.835   3.293  1.0151  0.1263  1.8236
11153SOL    HW236865   3.194   9.923   3.302  1.0524  0.3254  0.4109
11154SOL     OW36866  10.496   5.833   5.915 -0.2122 -0.8166 -0.2607
11154SOL    HW136867  10.542   5.751   5.936  0.2877 -0.7984 -1.2719
11154SOL    HW236868  10.529   5.857   5.829 -0.6922  0.2243 -0.1509
11155SOL     OW36869   3.207   5.419   1.867 -0.0468 -0.7923  0.0355
11155SOL    HW136870   3.142   5.352   1.847 -0.5364 -0.3763  0.2015
11155SOL    HW236871   3.182   5.493   1.811 -0.5744 -0.1227  1.1451
11156SOL     OW36872   2.834   8.135   8.490 -0.2043 -0.5522  0.2232
11156SOL    HW136873   2.866   8.133   8.400 -1.0130  3.5780 -0.2808
11156SOL    HW236874   2.913   8.141   8.544  0.1817  1.4602 -0.5277
11157SOL     OW36875   5.741  10.934  10.183  0.4213  0.0123  0.1900
11157SOL    HW136876   5.736  10.915  10.277 -1.1655  1.8519  0.4977
11157SOL    HW236877   5.805  11.004  10.177 -0.0682  0.4396 -0.0210
11158SOL     OW36878   4.791   4.676   4.963  0.2385  0.2132  0.3313
11158SOL    HW136879   4.839   4.723   4.894  0.9968 -0.8594  0.1152
11158SOL    HW236880   4.744   4.607   4.916  0.9260 -0.6575  0.9142
11159SOL     OW36881   0.064   8.126   6.605  0.1060  0.1192  0.4366
11159SOL    HW136882  -0.019   8.083   6.587  0.0324 -0.3522  1.8169
11159SOL    HW236883   0.110   8.066   6.663  0.8393  0.9989  0.7801
11160SOL     OW36884   3.458   6.569   7.264 -0.2665 -0.0589  0.0311
11160SOL    HW136885   3.528   6.548   7.202 -0.7246 -1.1682 -0.1193
11160SOL    HW236886   3.478   6.657   7.294  1.0033 -0.2340 -0.2877
11161SOL     OW36887   2.095   9.847   5.126  0.6131  0.0032  0.0217
11161SOL    HW136888   2.119   9.805   5.043  0.7481  1.4910 -0.7194
11161SOL    HW236889   2.178   9.874   5.164  0.4799  0.2559  0.1330
11162SOL     OW36890   0.826   5.782  10.915 -0.3461 -0.2783  0.2371
11162SOL    HW136891   0.824   5.858  10.973 -0.5709 -0.0317 -0.0989
11162SOL    HW236892   0.734   5.762  10.897 -0.2288  1.6251 -2.6620
11163SOL     OW36893   5.784   5.638   0.187 -0.1155  0.3523 -0.0476
11163SOL    HW136894   5.739   5.613   0.268 -0.0388  1.1289  0.2432
11163SOL    HW236895   5.787   5.558   0.135  1.2939 -0.5639  1.4093
11164SOL     OW36896   5.635   4.508   3.132 -0.3038 -0.0183  0.3053
11164SOL    HW136897   5.604   4.546   3.214  0.7471  0.3777  0.5332
11164SOL    HW236898   5.695   4.574   3.096 -0.3468 -0.4176 -0.5134
11165SOL     OW36899   2.456   6.687   0.476  0.2495 -0.5739  0.6584
11165SOL    HW136900   2.365   6.677   0.449  1.0521 -0.8836 -2.2017
11165SOL    HW236901   2.466   6.628   0.550 -2.3427  0.9585  2.3194
11166SOL     OW36902   1.898   8.365   1.459 -0.5618  0.5154  0.3324
11166SOL    HW136903   1.971   8.405   1.506 -0.4306 -0.8950  1.3611
11166SOL    HW236904   1.851   8.315   1.526 -0.2273 -1.7511 -1.0707
11167SOL     OW36905   8.347   6.713   3.151 -0.1256  0.4966 -0.1297
11167SOL    HW136906   8.289   6.697   3.076  0.7112 -1.2082 -0.4359
11167SOL    HW236907   8.428   6.667   3.129  0.6666  1.2351  1.1662
11168SOL     OW36908   1.527   4.333   5.704 -0.5866 -0.5505 -0.3337
11168SOL    HW136909   1.433   4.320   5.715 -0.6965  0.8443  0.5400
11168SOL    HW236910   1.540   4.334   5.609 -1.8367  1.7377 -0.5102
11169SOL     OW36911   7.216   5.439   8.416 -0.1655  0.1626  0.1484
11169SOL    HW136912   7.187   5.530   8.410 -1.5297 -0.2228  0.6567
11169SOL    HW236913   7.293   5.442   8.473 -0.3936  0.9647  0.4195
11170SOL     OW36914   9.674   4.392   3.663 -0.0200 -0.7564  0.5875
11170SOL    HW136915   9.631   4.469   3.700  0.8889 -0.5677  1.2729
11170SOL    HW236916   9.613   4.359   3.597 -0.6048  0.2907  0.6031
11171SOL     OW36917   6.729   1.259   4.434  0.1307  0.2929  0.3411
11171SOL    HW136918   6.704   1.341   4.476  0.3683  0.7662 -0.4376
11171SOL    HW236919   6.721   1.276   4.340 -0.3464 -0.7379  0.1786
11172SOL     OW36920   8.669   0.181   6.455 -0.1967  0.7100  0.3250
11172SOL    HW136921   8.678   0.088   6.434  0.3228  0.9765 -0.6585
11172SOL    HW236922   8.757   0.216   6.446 -0.4677  1.3816  0.3015
11173SOL     OW36923   9.979   3.731   5.471  0.4629  0.3581  0.0638
11173SOL    HW136924   9.933   3.785   5.535  0.2651 -1.9337  1.9245
11173SOL    HW236925   9.911   3.701   5.411  0.3173  0.8564 -0.0236
11174SOL     OW36926   3.906   4.861   1.978 -0.0471  0.0940 -0.1405
11174SOL    HW136927   3.864   4.932   2.026 -1.0002 -0.4388 -0.1829
11174SOL    HW236928   3.946   4.807   2.046 -1.3403 -0.6238  0.0721
11175SOL     OW36929   5.247   2.075   5.264 -0.1105  0.7635 -0.5881
11175SOL    HW136930   5.286   2.103   5.182 -0.1428  2.2153 -0.1255
11175SOL    HW236931   5.182   2.143   5.284  0.2304  0.6879  0.8632
11176SOL     OW36932   0.018   1.990   2.325 -0.1297 -0.1471 -0.3498
11176SOL    HW136933   0.054   1.949   2.404 -2.0377  0.1926  0.7158
11176SOL    HW236934   0.053   2.079   2.327  4.0588 -1.6098 -2.6935
11177SOL     OW36935   7.181   3.839   6.758 -0.4375  0.1711  0.2733
11177SOL    HW136936   7.246   3.908   6.744  0.0345 -0.2972  0.1225
11177SOL    HW236937   7.110   3.859   6.696 -0.6867  0.9896  0.8186
11178SOL     OW36938   0.308   0.122   6.428 -0.3175 -0.1857  0.2015
11178SOL    HW136939   0.401   0.103   6.424 -0.3259  0.0559 -1.7962
11178SOL    HW236940   0.265   0.045   6.390 -0.9061 -0.1641  0.8108
11179SOL     OW36941   0.477   8.037  10.284  0.2418  0.1558  0.1427
11179SOL    HW136942   0.412   8.045  10.214  0.3485 -0.8293 -0.0686
11179SOL    HW236943   0.484   7.943  10.300  0.9524  0.3169  0.7929
11180SOL     OW36944  10.204   7.619   6.747  0.1739  0.2515 -0.1759
11180SOL    HW136945  10.296   7.638   6.762 -0.2935  1.9439  0.8185
11180SOL    HW236946  10.197   7.600   6.654  1.6359 -0.6144 -0.1152
11181SOL     OW36947   8.823   7.352   0.571  0.5177 -0.0792  0.1198
11181SOL    HW136948   8.828   7.430   0.515 -0.2402  1.0240  1.5489
11181SOL    HW236949   8.862   7.282   0.519  1.4177  1.3114 -1.1046
11182SOL     OW36950   8.663   9.505   8.747  0.0787  0.4254  0.2712
11182SOL    HW136951   8.717   9.507   8.668 -0.9860  0.7966 -0.4584
11182SOL    HW236952   8.723   9.530   8.817  0.8944  0.6606 -0.4972
11183SOL     OW36953   1.002   3.623   1.302  0.2604  0.4446 -0.3029
11183SOL    HW136954   0.999   3.701   1.358 -2.5544 -1.1662  1.8947
11183SOL    HW236955   0.959   3.650   1.221 -2.5326  0.6885  1.1936
11184SOL     OW36956   9.189   7.534  10.719 -0.5066  0.5171 -0.1918
11184SOL    HW136957   9.189   7.595  10.645  0.7128  0.5609 -0.1625
11184SOL    HW236958   9.097   7.508  10.729 -0.4836 -0.5158 -2.5407
11185SOL     OW36959   5.365   0.166   5.048 -0.2240 -0.3671  0.0062
11185SOL    HW136960   5.307   0.184   5.122  0.3646 -0.6101  0.5251
11185SOL    HW236961   5.443   0.128   5.087  1.4135  2.4552 -0.3989
11186SOL     OW36962   1.370   5.894   7.793 -0.4320 -0.1667 -1.0378
11186SOL    HW136963   1.363   5.919   7.885 -0.6223  0.5912 -1.2560
11186SOL    HW236964   1.282   5.863   7.771 -0.4960  0.0483 -1.0818
11187SOL     OW36965  10.323   7.695   0.285  0.1285 -0.4650 -0.2784
11187SOL    HW136966  10.322   7.692   0.381  1.4089  0.3847 -0.2144
11187SOL    HW236967  10.415   7.679   0.262 -0.3111 -1.4238 -1.3995
11188SOL     OW36968   8.018   7.227   5.137  0.1908  0.2913  0.1127
11188SOL    HW136969   8.075   7.182   5.199  0.1207  0.9296  0.6501
11188SOL    HW236970   7.938   7.245   5.187  0.2525  1.0862 -0.0731
11189SOL     OW36971  10.909   2.139   1.391  0.6094  0.1588  0.1925
11189SOL    HW136972  10.995   2.102   1.411  0.8862  1.1578  0.9047
11189SOL    HW236973  10.848   2.067   1.405  1.0779  0.0975  2.0895
11190SOL     OW36974   0.992   3.710   9.769  0.1645  0.2176 -0.6977
11190SOL    HW136975   1.051   3.644   9.807 -0.3191  0.8212  1.1210
11190SOL    HW236976   1.046   3.789   9.764 -0.2414  0.5492  0.1838
11191SOL     OW36977   9.187  10.110   2.721  0.4212 -0.0835  0.1391
11191SOL    HW136978   9.139  10.190   2.698 -0.7856 -0.3288  1.7124
11191SOL    HW236979   9.271  10.141   2.755  0.4952  0.4489 -0.5092
11192SOL     OW36980   6.712   8.765  10.777  1.4103  0.2697  0.0758
11192SOL    HW136981   6.792   8.713  10.787  0.0698 -1.5475  1.8077
11192SOL    HW236982   6.642   8.701  10.766  0.1439  1.8264 -1.2733
11193SOL     OW36983   5.517   7.904   0.087  0.1413 -0.1270 -0.0180
11193SOL    HW136984   5.466   7.864   0.016 -2.2188 -0.0684  1.5621
11193SOL    HW236985   5.489   7.857   0.166 -0.0103  2.2018  1.3852
11194SOL     OW36986   6.529   1.512   9.822  0.4418  0.3012  0.4883
11194SOL    HW136987   6.582   1.533   9.746  2.6586  0.8531  2.1288
11194SOL    HW236988   6.496   1.597   9.853 -0.6297  0.0603  0.0385
11195SOL     OW36989   7.999   7.595   4.860  0.6087 -0.1247 -0.7366
11195SOL    HW136990   8.086   7.591   4.900  0.5116  0.6658 -0.4577
11195SOL    HW236991   8.008   7.659   4.790  0.0987  0.3566 -0.3579
11196SOL     OW36992   4.635   8.431   0.194  0.4537 -0.2236 -0.1927
11196SOL    HW136993   4.558   8.453   0.247 -0.5026  0.3861 -1.8126
11196SOL    HW236994   4.709   8.464   0.245 -0.4711  0.5879  0.6520
11197SOL     OW36995   4.229   6.002   1.213  0.0986  0.8933  0.2708
11197SOL    HW136996   4.245   6.064   1.142  0.5938  2.3282  1.6178
11197SOL    HW236997   4.300   6.018   1.276  1.0626 -1.9895  0.0129
11198SOL     OW36998  10.474   9.933  10.345 -0.1039  0.4838 -0.4132
11198SOL    HW136999  10.435   9.893  10.422  2.1478  0.3317  0.6837
11198SOL    HW237000  10.534   9.999  10.380 -0.4576  1.7412 -2.0977
11199SOL     OW37001   7.824   9.333  10.624  0.2356  0.1276 -0.1615
11199SOL    HW137002   7.752   9.334  10.560  1.2247  2.3218 -1.3305
11199SOL    HW237003   7.884   9.400  10.592  2.2933 -0.9287  1.3928
11200SOL     OW37004   2.921   6.441   5.904  0.2066  0.2099  0.4381
11200SOL    HW137005   2.937   6.535   5.911  0.1382  0.2163  0.5154
11200SOL    HW237006   3.008   6.404   5.888  0.3676  0.2059  1.2993
11201SOL     OW37007   4.884   0.403   3.618  0.5354  0.5996 -0.0467
11201SOL    HW137008   4.848   0.353   3.544  0.2220  0.6534  0.0677
11201SOL    HW237009   4.942   0.467   3.577  1.4696 -0.2916 -0.1548
11202SOL     OW37010   0.285   6.174   9.867  0.0564  0.3381 -0.0706
11202SOL    HW137011   0.209   6.204   9.917  1.3903  0.5172  1.8774
11202SOL    HW237012   0.296   6.082   9.891  0.0221  0.0993 -0.9252
11203SOL     OW37013   2.030   3.410   1.070 -0.2074 -0.7715 -0.1793
11203SOL    HW137014   1.939   3.411   1.101 -0.6789  0.9728 -1.5537
11203SOL    HW237015   2.030   3.347   0.998 -1.0550  1.3535 -2.1300
11204SOL     OW37016  10.143   6.344   3.891 -0.4940  0.1009 -0.1149
11204SOL    HW137017  10.190   6.383   3.817 -0.5899  0.2270 -0.1092
11204SOL    HW237018  10.051   6.368   3.876 -0.6773 -0.8931 -0.6035
11205SOL     OW37019   9.991   1.452   0.038 -0.0151  0.1847 -0.2733
11205SOL    HW137020  10.011   1.361   0.019 -0.4366  0.0277  0.0291
11205SOL    HW237021   9.951   1.450   0.125  0.0112  0.6619 -0.2486
11206SOL     OW37022   5.220   0.259   3.457 -0.8827 -0.4457 -0.6353
11206SOL    HW137023   5.150   0.217   3.407  1.2100 -1.4862 -2.7701
11206SOL    HW237024   5.210   0.353   3.440 -2.7520 -0.4260  0.4392
11207SOL     OW37025   9.342   1.737   3.945 -0.3044  0.1627 -0.9527
11207SOL    HW137026   9.434   1.734   3.970 -0.3833 -1.1096 -0.7627
11207SOL    HW237027   9.342   1.761   3.853  0.2976 -1.2639 -1.3342
11208SOL     OW37028   8.802   8.689   5.860  0.6284 -0.7618  0.0377
11208SOL    HW137029   8.805   8.769   5.913  2.4796  0.4070 -1.7550
11208SOL    HW237030   8.715   8.689   5.821  0.5573  0.2883  0.1782
11209SOL     OW37031   1.738   9.319   9.569  0.0273  0.1986  0.3542
11209SOL    HW137032   1.797   9.275   9.629 -0.2390 -0.3190  0.2391
11209SOL    HW237033   1.795   9.353   9.500  0.0023 -1.9617 -0.7758
11210SOL     OW37034   6.847   8.935   8.412  0.4416  0.5860 -0.9318
11210SOL    HW137035   6.898   8.898   8.484  0.1516 -0.2532 -1.1541
11210SOL    HW237036   6.759   8.899   8.423 -0.1128  2.0267 -0.5473
11211SOL     OW37037   9.836   2.586   6.955 -0.5225  0.0343  0.1259
11211SOL    HW137038   9.885   2.614   7.032  1.3328  0.1157 -1.0641
11211SOL    HW237039   9.806   2.497   6.976  0.5917 -0.2175  0.6717
11212SOL     OW37040   5.249   7.623   1.943  0.1201  0.1135 -0.2888
11212SOL    HW137041   5.165   7.583   1.965 -0.2775  1.6881  1.0552
11212SOL    HW237042   5.293   7.556   1.890 -1.1533 -1.5128  0.6562
11213SOL     OW37043   5.764  10.303   8.070  0.3332 -0.3214  0.1360
11213SOL    HW137044   5.792  10.394   8.079  2.0435 -0.8540  0.3613
11213SOL    HW237045   5.756  10.289   7.975 -1.1316  0.4150  0.1506
11214SOL     OW37046   4.819   6.433   6.909 -0.1364 -0.7611 -0.2451
11214SOL    HW137047   4.890   6.372   6.890  0.0615 -0.3040 -0.9861
11214SOL    HW237048   4.765   6.433   6.830 -0.7301 -0.7786  0.1522
11215SOL     OW37049  10.855   4.864   7.202  0.9389 -0.8645  0.4050
11215SOL    HW137050  10.804   4.928   7.252 -0.5852 -2.7426  1.3555
11215SOL    HW237051  10.945   4.880   7.228  0.3288 -0.6796  2.5493
11216SOL     OW37052   5.949   6.673   7.721 -0.0636  0.9234  0.0481
11216SOL    HW137053   5.926   6.691   7.629 -1.3100 -2.1438 -0.2862
11216SOL    HW237054   5.888   6.728   7.771 -0.1014  1.8047 -0.9332
11217SOL     OW37055   5.631   6.286   3.926 -0.0162 -0.3099 -0.8016
11217SOL    HW137056   5.559   6.319   3.873  0.4579 -0.7759 -1.7431
11217SOL    HW237057   5.598   6.290   4.016 -0.4747  1.3991 -1.0213
11218SOL     OW37058   6.936   9.142   9.213 -0.1024  0.0245  0.1662
11218SOL    HW137059   6.934   9.231   9.180 -0.6275  0.1796  0.6188
11218SOL    HW237060   7.003   9.143   9.281 -1.5263  0.5672  1.5803
11219SOL     OW37061   7.737  10.166   7.992  0.2405  0.3876 -0.8326
11219SOL    HW137062   7.734  10.111   8.070 -0.7757 -1.0955 -1.8802
11219SOL    HW237063   7.646  10.168   7.961  0.2073  2.9351 -0.6342
11220SOL     OW37064   7.078   1.655   2.851 -0.7106 -0.2890 -0.1195
11220SOL    HW137065   7.131   1.727   2.883  0.0514 -0.0783 -1.8165
11220SOL    HW237066   6.992   1.693   2.832 -0.3287  0.1688 -0.9468
11221SOL     OW37067   9.916   2.400   7.597 -0.3825  0.2261 -0.2453
11221SOL    HW137068   9.890   2.384   7.688  0.6499 -1.1404 -0.1754
11221SOL    HW237069  10.011   2.386   7.597 -0.5908 -1.3575 -1.8554
11222SOL     OW37070   4.230   1.453   9.156 -0.5944 -0.2367  0.5566
11222SOL    HW137071   4.232   1.495   9.070  0.1952  0.9108  1.1228
11222SOL    HW237072   4.142   1.468   9.189 -0.5124  0.4067  0.4747
11223SOL     OW37073   2.778   2.497   6.866 -0.2965  0.8300 -0.0743
11223SOL    HW137074   2.705   2.557   6.882  0.8117  2.8983 -2.4064
11223SOL    HW237075   2.737   2.410   6.858 -2.5859  1.9975 -1.7103
11224SOL     OW37076   4.046   5.686   4.772 -0.4303 -0.2660  0.0798
11224SOL    HW137077   4.076   5.596   4.759 -2.1432 -0.7427 -0.7607
11224SOL    HW237078   4.012   5.712   4.686 -0.7529  0.8646  0.5386
11225SOL     OW37079   9.431   0.794  10.324  0.3293 -0.1917  0.1083
11225SOL    HW137080   9.360   0.773  10.263 -0.5703  1.7425  0.4732
11225SOL    HW237081   9.395   0.862  10.381  1.1267 -2.0421  2.8947
11226SOL     OW37082   9.190   2.377   0.996  0.0780 -0.2909  0.0334
11226SOL    HW137083   9.194   2.287   1.027  1.5330 -0.3099 -0.2063
11226SOL    HW237084   9.101   2.405   1.018  0.2799 -1.0918  2.0168
11227SOL     OW37085   5.647   3.212   4.346 -0.2609  0.1205  0.1515
11227SOL    HW137086   5.651   3.230   4.439 -0.6657  0.3567  0.1219
11227SOL    HW237087   5.566   3.253   4.316 -0.4481 -0.4813 -0.1861
11228SOL     OW37088   2.052   0.066   2.429  0.3991 -0.4991  0.1642
11228SOL    HW137089   2.095   0.149   2.452  0.4051 -0.2835 -0.6129
11228SOL    HW237090   2.111   0.026   2.366  0.5632 -1.2641  0.7924
11229SOL     OW37091   0.395   2.476   9.399  0.1814  0.0655 -0.6684
11229SOL    HW137092   0.360   2.450   9.313 -0.6785  0.5449 -0.4746
11229SOL    HW237093   0.469   2.417   9.414  0.3727  0.0112 -1.7636
11230SOL     OW37094   9.637   0.467   3.178  0.1008 -0.2919 -0.2802
11230SOL    HW137095   9.701   0.478   3.249  0.9915  0.8220 -1.2426
11230SOL    HW237096   9.644   0.548   3.127 -1.7569 -0.3592 -0.6582
11231SOL     OW37097   6.104   3.439   6.898 -0.1551 -0.2312 -0.1166
11231SOL    HW137098   6.117   3.532   6.911 -0.5722 -0.1341 -0.3895
11231SOL    HW237099   6.025   3.418   6.948 -0.4231 -0.3117 -0.5667
11232SOL     OW37100   8.905   1.439   3.602  0.1023  0.5187  0.2222
11232SOL    HW137101   8.832   1.455   3.542  1.5946 -0.0874 -1.7936
11232SOL    HW237102   8.950   1.523   3.607 -0.5637  0.8238  1.2656
11233SOL     OW37103   8.786   3.808  10.751  0.4038  0.4738 -0.4850
11233SOL    HW137104   8.706   3.781  10.705 -0.2220  1.1082  0.2341
11233SOL    HW237105   8.812   3.730  10.800  0.8880 -0.1048 -1.6223
11234SOL     OW37106   8.960   1.433   9.177  0.2949  0.7266  0.5577
11234SOL    HW137107   9.037   1.471   9.218  1.4552  0.3583 -1.2348
11234SOL    HW237108   8.993   1.389   9.099 -1.4421 -1.2052  0.8506
11235SOL     OW37109   0.783   9.190   3.094 -0.3843  0.3447  0.1817
11235SOL    HW137110   0.765   9.135   3.170  0.5966  2.4399  1.9826
11235SOL    HW237111   0.878   9.196   3.090 -0.3623 -0.8211 -2.0515
11236SOL     OW37112   6.533  10.737   9.483 -0.3156  0.2173  0.8353
11236SOL    HW137113   6.468  10.705   9.546  0.1806  0.1907  1.3401
11236SOL    HW237114   6.490  10.811   9.440 -1.1924 -0.6511  0.1930
11237SOL     OW37115   3.123   1.295   0.194  0.0290 -0.2105  0.1487
11237SOL    HW137116   3.041   1.325   0.153 -0.3349  0.0319  1.0457
11237SOL    HW237117   3.177   1.374   0.199  0.9341 -0.6743 -1.8601
11238SOL     OW37118   6.058   8.067   2.019 -0.2739  0.4909  0.2587
11238SOL    HW137119   6.024   8.000   1.960 -0.4266  0.4026  0.4454
11238SOL    HW237120   6.106   8.127   1.962 -1.7073  1.2456 -0.1890
11239SOL     OW37121   3.696   4.908   9.077  0.0034 -0.2400 -0.4412
11239SOL    HW137122   3.733   4.821   9.093 -0.4447 -0.0753  1.5411
11239SOL    HW237123   3.767   4.968   9.097 -0.7039 -0.0118  1.4392
11240SOL     OW37124   1.243  10.448   5.804 -0.0214 -0.3325  0.3402
11240SOL    HW137125   1.196  10.366   5.792  0.1475 -0.6574  1.8433
11240SOL    HW237126   1.335  10.426   5.788  0.1932 -0.7486  2.0170
11241SOL     OW37127   3.349   9.216   7.898  0.1140 -0.1825 -0.1590
11241SOL    HW137128   3.413   9.227   7.969 -0.5687  1.1308  0.2599
11241SOL    HW237129   3.271   9.261   7.929 -0.1351  0.5630 -1.8189
11242SOL     OW37130   4.668   4.299   6.758 -0.5777 -0.2115  0.3105
11242SOL    HW137131   4.753   4.334   6.785 -1.3048  2.1995 -0.4491
11242SOL    HW237132   4.659   4.327   6.667 -2.6526  0.4759  0.7184
11243SOL     OW37133  10.670   5.411   2.083 -0.1265 -0.9261  0.6493
11243SOL    HW137134  10.689   5.437   2.174 -0.3562 -1.7524  0.9439
11243SOL    HW237135  10.756   5.404   2.042 -0.0662  0.2550  0.5706
11244SOL     OW37136   2.711   9.024   1.651  0.0338  0.2109  0.1617
11244SOL    HW137137   2.733   9.076   1.574  0.4482  0.5629  0.5167
11244SOL    HW237138   2.616   9.033   1.660 -0.0355  0.0613 -0.3818
11245SOL     OW37139   9.087   6.785   0.548  0.3270  0.3169 -0.6127
11245SOL    HW137140   9.075   6.868   0.594  0.8460 -0.4292  0.8799
11245SOL    HW237141   9.071   6.806   0.456 -0.2127  1.9267 -0.1601
11246SOL     OW37142   6.102   9.569   4.918 -0.0423  0.1797  0.1567
11246SOL    HW137143   6.153   9.645   4.944  1.4578 -1.1227  1.1166
11246SOL    HW237144   6.093   9.518   4.999 -1.8633 -0.1929 -0.2604
11247SOL     OW37145   2.728   8.532   5.121  0.4251 -0.3246 -0.4767
11247SOL    HW137146   2.659   8.586   5.159  1.9313  0.9001  0.6387
11247SOL    HW237147   2.759   8.582   5.046  0.4329 -0.6158 -0.6658
11248SOL     OW37148   7.320   7.125   0.041  0.2374 -0.1104 -0.6642
11248SOL    HW137149   7.255   7.111   0.110  1.7905 -0.4312  0.7862
11248SOL    HW237150   7.396   7.162   0.086  1.4748 -0.7952 -2.0991
11249SOL     OW37151   8.066   3.549   5.384 -0.4216  0.7848  0.3228
11249SOL    HW137152   8.007   3.552   5.309 -1.0889 -0.8544  0.7729
11249SOL    HW237153   8.150   3.582   5.349 -1.3938  2.4952 -0.4731
11250SOL     OW37154   7.677   5.708   6.434  0.4843  0.3086 -0.6527
11250SOL    HW137155   7.625   5.636   6.399 -1.7685  0.8007  1.4993
11250SOL    HW237156   7.655   5.783   6.380  1.4433 -0.1756 -1.7451
11251SOL     OW37157   9.537   2.221   5.749  0.5265  0.3471  0.0850
11251SOL    HW137158   9.498   2.252   5.667 -0.0796  0.4799  0.4186
11251SOL    HW237159   9.520   2.127   5.749  0.1069  0.4203  0.2780
11252SOL     OW37160   8.468   2.255  10.680  0.5804  0.5379 -0.1400
11252SOL    HW137161   8.448   2.213  10.597 -0.3404  0.4948  0.1022
11252SOL    HW237162   8.500   2.342  10.655  1.3020  0.1516 -0.5784
11253SOL     OW37163   5.720   0.398   9.308 -0.1719 -0.7182 -0.0971
11253SOL    HW137164   5.784   0.358   9.367  1.1058  1.8410  0.3349
11253SOL    HW237165   5.762   0.396   9.222  1.0228  1.9099  0.3652
11254SOL     OW37166   2.765   6.366   4.586  0.9086  0.5783 -0.6365
11254SOL    HW137167   2.804   6.364   4.499  1.4456  1.4128 -0.4189
11254SOL    HW237168   2.782   6.455   4.618  0.5894  0.3212  0.2543
11255SOL     OW37169   6.742   1.836   9.722  0.1461  0.2333 -0.4669
11255SOL    HW137170   6.740   1.774   9.649 -0.0592 -0.2455 -0.0530
11255SOL    HW237171   6.768   1.784   9.798  0.5920  0.7789 -0.2417
11256SOL     OW37172  10.511   8.541   7.999 -0.1980  0.5723  0.3389
11256SOL    HW137173  10.449   8.475   7.969  0.6252 -0.0470 -0.0059
11256SOL    HW237174  10.487   8.556   8.090 -0.1080 -0.5254  0.5515
11257SOL     OW37175  10.044   3.964   5.686  0.1585 -0.4199 -0.2347
11257SOL    HW137176  10.134   3.935   5.673 -0.2547 -1.2543 -1.2518
11257SOL    HW237177   9.997   3.886   5.715 -0.5858 -0.3674 -1.2895
11258SOL     OW37178   6.744   7.015   5.050 -0.4850 -0.3459  0.0138
11258SOL    HW137179   6.811   7.065   5.096  0.4440 -0.7204 -0.9137
11258SOL    HW237180   6.789   6.982   4.972 -1.9506  0.0536 -1.0165
11259SOL     OW37181   6.409   3.483   8.602 -0.0370  0.3969 -0.0448
11259SOL    HW137182   6.380   3.516   8.517 -0.6786  0.0773  0.0416
11259SOL    HW237183   6.335   3.430   8.633 -0.3290  1.5476  1.2902
11260SOL     OW37184   9.847   0.965   4.355  0.4904  0.1124  0.5767
11260SOL    HW137185   9.885   1.010   4.431 -2.4311 -1.1460  2.8810
11260SOL    HW237186   9.820   0.880   4.389 -0.5085 -0.6419 -2.0079
11261SOL     OW37187   0.931   7.747   6.934 -0.3715  0.4217  1.0082
11261SOL    HW137188   0.949   7.693   6.857 -0.6547  1.5940  0.0979
11261SOL    HW237189   0.871   7.815   6.902 -0.7445  0.7449  2.3407
11262SOL     OW37190   1.346   2.684   8.842 -0.3104  0.1882 -0.1922
11262SOL    HW137191   1.286   2.746   8.884 -2.7294 -2.9749  1.2188
11262SOL    HW237192   1.417   2.672   8.906 -1.4818 -0.9097  0.9137
11263SOL     OW37193   1.282   5.817   0.598  0.5411  0.1273  0.0586
11263SOL    HW137194   1.367   5.859   0.593  0.3069  0.5470 -0.4301
11263SOL    HW237195   1.262   5.791   0.508  0.8263 -1.3146  0.3933
11264SOL     OW37196   2.568   6.902   6.085  0.1471 -0.0563 -0.2852
11264SOL    HW137197   2.550   6.808   6.089  0.3369 -0.1238 -0.8566
11264SOL    HW237198   2.496   6.943   6.132  0.0754 -0.4928 -0.0176
11265SOL     OW37199  10.560   1.960   7.100 -0.6796 -0.7773  0.2767
11265SOL    HW137200  10.646   1.999   7.117 -0.9539 -0.6370  1.3456
11265SOL    HW237201  10.529   1.931   7.186 -1.4401 -1.3723 -0.1912
11266SOL     OW37202   9.778   9.513   2.831 -0.5088  0.3121  0.3045
11266SOL    HW137203   9.841   9.528   2.761 -0.0978  0.4954  0.7141
11266SOL    HW237204   9.695   9.499   2.786 -0.0383 -0.6592 -0.2624
11267SOL     OW37205   5.700   7.050   6.275  0.2391 -0.5495  0.2026
11267SOL    HW137206   5.750   7.100   6.210 -1.4686 -0.6627 -1.2271
11267SOL    HW237207   5.675   7.115   6.341 -0.1469  0.0608 -0.5404
11268SOL     OW37208   5.409  10.553   0.648  0.1669 -0.4836 -0.3303
11268SOL    HW137209   5.464  10.542   0.726  1.8754 -1.8335 -1.6976
11268SOL    HW237210   5.464  10.524   0.576 -1.3275  0.9834 -2.0903
11269SOL     OW37211   4.217   3.539   3.069 -0.4473  0.7325 -1.1762
11269SOL    HW137212   4.131   3.506   3.096 -0.4725  1.0192 -0.8970
11269SOL    HW237213   4.263   3.463   3.034 -0.0061  0.0922  0.7262
11270SOL     OW37214   4.743   7.948   2.246 -0.4746  0.3069  0.0738
11270SOL    HW137215   4.831   7.920   2.219 -0.3801 -0.2660  0.9454
11270SOL    HW237216   4.686   7.922   2.174  0.1692  1.2525 -0.7732
11271SOL     OW37217   8.049  10.535   2.245  0.8918 -0.1296  0.1270
11271SOL    HW137218   8.099  10.461   2.212  0.5200 -0.1217 -0.4583
11271SOL    HW237219   7.996  10.564   2.170  1.1240  0.7990  0.3137
11272SOL     OW37220   2.123   0.443   6.857 -0.4782  0.5198 -0.0411
11272SOL    HW137221   2.089   0.376   6.797 -0.1963 -0.3072  0.7074
11272SOL    HW237222   2.187   0.396   6.911  1.2266  1.8403 -0.8563
11273SOL     OW37223   6.056   0.434   3.380 -0.4827 -0.2231  0.1129
11273SOL    HW137224   5.963   0.444   3.360  0.0138  3.6108 -0.6684
11273SOL    HW237225   6.099   0.437   3.295  0.4028 -1.3682  0.5200
11274SOL     OW37226   2.717   4.070   0.301 -0.7264 -0.3653  0.7369
11274SOL    HW137227   2.634   4.024   0.290 -1.1444  0.5277  0.1073
11274SOL    HW237228   2.730   4.073   0.396 -0.9590 -1.3043  0.8004
11275SOL     OW37229   8.509   1.761   9.975  0.4586  0.3878  0.0456
11275SOL    HW137230   8.466   1.737  10.057  0.2810  0.6434  0.0298
11275SOL    HW237231   8.444   1.816   9.930  0.7939  0.7587  0.0109
11276SOL     OW37232   8.700   7.076   5.160  0.1162 -0.1238 -0.2896
11276SOL    HW137233   8.699   7.167   5.192  0.9127  0.1410 -1.0174
11276SOL    HW237234   8.702   7.084   5.065  0.2625 -0.9171 -0.3546
11277SOL     OW37235   4.008   2.490   7.044 -0.0920  0.6550 -0.1038
11277SOL    HW137236   3.922   2.458   7.016 -0.5103  0.8462  0.9132
11277SOL    HW237237   4.071   2.432   7.002 -0.7681 -0.1109 -0.0651
11278SOL     OW37238   2.123  10.623   2.994 -0.4539 -0.7151 -0.5342
11278SOL    HW137239   2.206  10.626   2.946 -1.5232  0.8379 -2.3724
11278SOL    HW237240   2.058  10.600   2.928 -1.9036  1.0134  0.2483
11279SOL     OW37241   2.867   7.662   1.992 -0.1047  0.1236  0.2733
11279SOL    HW137242   2.852   7.591   2.055  0.5276 -0.2956 -0.0348
11279SOL    HW237243   2.961   7.659   1.974 -0.0953  0.9536  0.1482
11280SOL     OW37244   6.516   7.555   0.411 -0.3352  0.0853 -0.7686
11280SOL    HW137245   6.456   7.487   0.383  0.8573 -0.8179 -1.1726
11280SOL    HW237246   6.486   7.580   0.498 -0.3327 -1.4924 -0.2984
11281SOL     OW37247  10.842   0.484   6.422 -0.7653  0.3664 -0.0938
11281SOL    HW137248  10.822   0.456   6.511 -0.6876 -1.4746 -0.6487
11281SOL    HW237249  10.763   0.465   6.372 -0.1767 -0.2651 -0.7869
11282SOL     OW37250   7.334   6.702   3.858 -0.5173 -0.2824  0.1884
11282SOL    HW137251   7.381   6.625   3.890  1.3254  0.0845 -1.5396
11282SOL    HW237252   7.260   6.666   3.809 -0.4414 -0.9253  0.5378
11283SOL     OW37253  10.071   7.463   4.844 -0.0632 -0.2542  0.5183
11283SOL    HW137254  10.068   7.368   4.857  2.0630 -0.8581 -2.7006
11283SOL    HW237255   9.987   7.485   4.804  0.3125 -1.1641 -0.8003
11284SOL     OW37256   2.681   8.566   9.173  0.0048 -0.0885 -0.1675
11284SOL    HW137257   2.588   8.546   9.163  0.0932  0.2979 -1.8632
11284SOL    HW237258   2.683   8.636   9.239 -1.1262  1.7240 -2.0213
11285SOL     OW37259   1.632   7.613   2.181 -0.4375  0.0151 -0.5556
11285SOL    HW137260   1.720   7.649   2.178 -0.1103 -0.8246 -1.1104
11285SOL    HW237261   1.574   7.690   2.183  0.3140  0.5627  0.1951
11286SOL     OW37262  10.117   3.569   9.988  0.2962  0.1091  0.0422
11286SOL    HW137263  10.098   3.479  10.017  1.1620 -0.7344 -1.9298
11286SOL    HW237264  10.196   3.593  10.036 -0.2934  0.0707  1.0530
11287SOL     OW37265   0.551   4.186   4.201  0.2259  0.1013 -0.4367
11287SOL    HW137266   0.590   4.268   4.170  1.2476 -0.0901  0.3127
11287SOL    HW237267   0.601   4.117   4.156 -1.4119 -0.1161 -1.9928
11288SOL     OW37268   9.949  10.155   8.046  0.0691  0.7456  0.5210
11288SOL    HW137269  10.000  10.100   8.106  0.6299  0.2936 -0.3655
11288SOL    HW237270  10.014  10.203   7.995 -0.4067  1.1568  0.2962
11289SOL     OW37271   4.798   9.447   4.942  0.2606  0.0394  0.5955
11289SOL    HW137272   4.851   9.518   4.906 -1.2247  0.8969  0.0434
11289SOL    HW237273   4.768   9.479   5.027 -1.5238  0.6658 -0.2358
11290SOL     OW37274   5.276   0.262   9.320  0.4070 -0.2087  0.3072
11290SOL    HW137275   5.286   0.181   9.371  1.5152  0.1805  0.7064
11290SOL    HW237276   5.249   0.232   9.233  0.5652 -0.9942  0.5266
11291SOL     OW37277   5.666  10.039   2.030  0.3444  0.0232  0.7852
11291SOL    HW137278   5.662   9.975   1.958 -0.1319  1.5612 -0.5715
11291SOL    HW237279   5.753  10.025   2.068  1.9923  1.4728 -2.2659
11292SOL     OW37280   6.327   3.099   7.361 -0.2988  0.0729  0.4014
11292SOL    HW137281   6.273   3.133   7.433  0.3055 -0.7586  1.2701
11292SOL    HW237282   6.338   3.174   7.302  0.3928  1.2010  1.9183
11293SOL     OW37283   9.346   5.992   2.174 -0.2284  0.3043 -0.1612
11293SOL    HW137284   9.264   6.017   2.217 -0.3150  2.3835 -1.4430
11293SOL    HW237285   9.379   5.918   2.225 -2.3369  0.1591  1.0348
11294SOL     OW37286   9.647   8.511   1.961  0.1378  0.3005  0.7686
11294SOL    HW137287   9.581   8.485   2.025  0.2533 -1.2120  0.3021
11294SOL    HW237288   9.714   8.557   2.012 -0.0501 -0.3846  1.6388
11295SOL     OW37289   8.781   7.306   8.784 -0.1295 -0.3697 -0.7296
11295SOL    HW137290   8.742   7.388   8.754 -2.9658 -1.0134  1.0103
11295SOL    HW237291   8.726   7.237   8.746  0.4471 -1.3689  0.2123
11296SOL     OW37292   0.052   8.714   3.160  0.3487  0.1330  0.3412
11296SOL    HW137293   0.009   8.789   3.119 -0.7653 -0.6894 -0.0187
11296SOL    HW237294   0.053   8.736   3.253 -2.7047 -0.6947  0.6262
11297SOL     OW37295   9.265   3.432  10.387 -0.3856  0.0226 -0.1371
11297SOL    HW137296   9.229   3.352  10.426 -1.0478 -0.0688 -0.9234
11297SOL    HW237297   9.286   3.407  10.297 -0.2167  0.6229 -0.2633
11298SOL     OW37298   5.902   9.225   5.142 -0.1034  0.2025  0.4295
11298SOL    HW137299   5.956   9.301   5.120 -1.0810  0.5013 -1.0532
11298SOL    HW237300   5.882   9.236   5.235  1.6115  0.5689  0.7721
11299SOL     OW37301   7.726   4.893   6.169  0.1191  0.5046  0.1342
11299SOL    HW137302   7.807   4.930   6.205 -0.3408  1.3967  0.2773
11299SOL    HW237303   7.721   4.805   6.205  0.7099  0.6673  0.6167
11300SOL     OW37304  10.391   1.993   3.268  0.0795  0.4443  0.1107
11300SOL    HW137305  10.386   1.897   3.271  0.8333  0.4001  0.2162
11300SOL    HW237306  10.355   2.021   3.352  0.2065  0.2304  0.2379
11301SOL     OW37307  10.216   9.759   4.564  0.2731 -0.0382  0.1548
11301SOL    HW137308  10.212   9.690   4.498  0.5726  0.8207 -0.7878
11301SOL    HW237309  10.224   9.713   4.647 -2.0287 -1.1726 -0.2367
11302SOL     OW37310  10.064  10.764   7.328  0.6033  0.3728 -0.4789
11302SOL    HW137311  10.014  10.712   7.391  1.2641 -0.0311 -0.2810
11302SOL    HW237312  10.024  10.851   7.332  2.8963  1.3647  3.1266
11303SOL     OW37313   8.611   9.906   5.479  0.1550 -0.6908 -0.2268
11303SOL    HW137314   8.577   9.820   5.456  0.0907 -0.6361 -0.3341
11303SOL    HW237315   8.700   9.889   5.511  0.4318 -0.7135 -1.0047
11304SOL     OW37316   4.098   5.050   5.160  0.0430  0.1630  0.4053
11304SOL    HW137317   4.136   4.963   5.173  0.5010  0.2716 -0.1647
11304SOL    HW237318   4.021   5.051   5.216 -1.0302 -1.2880 -1.0114
11305SOL     OW37319   7.907   8.704   0.012 -0.6836  0.5727  0.5366
11305SOL    HW137320   7.888   8.790   0.050 -3.2175 -0.7601  2.4851
11305SOL    HW237321   7.821   8.671  -0.014  0.0066 -2.1666  1.6155
11306SOL     OW37322   3.165  10.678   2.312  0.3744  0.0139 -0.1458
11306SOL    HW137323   3.153  10.763   2.354 -1.2169 -0.4366  0.3663
11306SOL    HW237324   3.254  10.681   2.276  0.3864  1.8414 -0.0349
11307SOL     OW37325   1.253  10.151   0.251  0.8178  0.6062 -0.1166
11307SOL    HW137326   1.282  10.065   0.221  1.5988  0.4991  0.9161
11307SOL    HW237327   1.219  10.136   0.339 -1.0803  0.9823 -0.7749
11308SOL     OW37328   1.354   8.624   0.725 -0.5880  0.6409  0.2336
11308SOL    HW137329   1.300   8.547   0.747  0.1571  0.0993  0.1973
11308SOL    HW237330   1.405   8.640   0.804 -1.4179  1.6781  0.5614
11309SOL     OW37331  10.139   5.855   0.607 -0.2735 -0.4514  0.2032
11309SOL    HW137332  10.130   5.865   0.512  0.7230  1.4925  0.2705
11309SOL    HW237333  10.148   5.761   0.621  2.9555 -0.5509 -1.9726
11310SOL     OW37334   3.230   1.794   5.006  0.0757  0.3509  0.2215
11310SOL    HW137335   3.238   1.706   4.969  2.5899  0.5777  0.1571
11310SOL    HW237336   3.206   1.780   5.097 -0.8941 -0.3464 -0.1321
11311SOL     OW37337   8.555   8.987   9.314  0.0534 -0.5320 -0.6839
11311SOL    HW137338   8.546   8.968   9.221 -0.8890 -2.2815 -0.2724
11311SOL    HW237339   8.639   8.948   9.339 -0.3698 -1.3577 -0.5173
11312SOL     OW37340  10.298   0.749   8.875  0.1712 -0.7737 -0.4204
11312SOL    HW137341  10.310   0.815   8.943 -2.2709 -2.8189  2.0759
11312SOL    HW237342  10.365   0.683   8.893 -0.5186 -1.3485  0.0641
11313SOL     OW37343  10.747   0.121   3.930 -0.1807  0.3725 -0.5762
11313SOL    HW137344  10.666   0.124   3.880  0.1150 -0.7998 -1.1461
11313SOL    HW237345  10.738   0.044   3.985  0.1986  0.7212 -0.0176
11314SOL     OW37346   4.156  10.573   0.262 -0.3889  0.0939 -0.2777
11314SOL    HW137347   4.137  10.538   0.349  2.1097 -0.6137  0.0198
11314SOL    HW237348   4.119  10.661   0.263 -2.4425 -0.7406  0.6611
11315SOL     OW37349   2.859   3.032   0.806 -0.4528  0.0667 -0.1627
11315SOL    HW137350   2.851   3.120   0.769 -3.0158 -0.6813 -1.5612
11315SOL    HW237351   2.790   2.982   0.762  0.2242 -2.3569  1.4396
11316SOL     OW37352   2.412   0.208   7.483 -0.8898  0.1948  0.6877
11316SOL    HW137353   2.466   0.131   7.501 -0.2337  0.5247  0.1974
11316SOL    HW237354   2.453   0.278   7.533  0.1538  0.8163 -0.9769
11317SOL     OW37355   5.175   7.470   7.962 -0.0646 -0.2856 -0.2749
11317SOL    HW137356   5.116   7.510   8.027  0.4512  1.2863 -0.7533
11317SOL    HW237357   5.120   7.405   7.918 -1.5591  1.3479 -0.9040
11318SOL     OW37358   5.983   3.084   4.977 -0.0046  0.4267  0.3503
11318SOL    HW137359   6.049   3.123   4.920  1.4077  0.1229  1.7328
11318SOL    HW237360   5.900   3.120   4.947  0.8173  0.9917 -1.2773
11319SOL     OW37361   3.198  10.185   3.680 -0.3444  0.3560  0.4632
11319SOL    HW137362   3.239  10.106   3.645  1.0040  1.0390  0.4641
11319SOL    HW237363   3.117  10.194   3.630  0.4528  0.0491 -0.9159
11320SOL     OW37364   6.393   4.449   1.468 -0.5156 -0.3908 -0.1286
11320SOL    HW137365   6.432   4.361   1.472 -0.0332 -0.1798 -0.2019
11320SOL    HW237366   6.318   4.439   1.409  0.5477 -0.3598 -1.5086
11321SOL     OW37367  10.217   9.887   3.429 -0.3668  0.4349  0.0588
11321SOL    HW137368  10.149   9.948   3.459 -1.7455 -0.4862 -1.1174
11321SOL    HW237369  10.219   9.898   3.334  1.2486  0.5530  0.1080
11322SOL     OW37370   6.328   2.758   3.965 -0.5619  0.1454  0.3232
11322SOL    HW137371   6.286   2.672   3.959 -1.8141  0.7889 -0.3685
11322SOL    HW237372   6.374   2.768   3.882 -0.4503  0.1469  0.3863
11323SOL     OW37373   6.694   8.420   4.793 -0.1500 -0.0543 -0.1740
11323SOL    HW137374   6.766   8.457   4.844  0.7527  0.9566 -2.1212
11323SOL    HW237375   6.681   8.333   4.830  0.8272  0.4432  1.4138
11324SOL     OW37376   1.421   6.567   4.799  0.2245  0.3262 -0.6706
11324SOL    HW137377   1.427   6.471   4.790  0.0249  0.3938 -1.6631
11324SOL    HW237378   1.341   6.589   4.752 -0.6379  0.8076  1.0296
11325SOL     OW37379   6.011   0.352   3.932  0.2897 -0.0067 -0.5852
11325SOL    HW137380   5.952   0.412   3.979 -0.7789 -0.8231 -0.8932
11325SOL    HW237381   6.087   0.407   3.910  0.3676  0.6471  1.2134
11326SOL     OW37382   8.601   8.337   8.494 -0.6641  0.1282  0.1127
11326SOL    HW137383   8.646   8.385   8.424 -0.9405  0.2189 -0.0005
11326SOL    HW237384   8.664   8.338   8.567 -0.1751 -0.3883 -0.2958
11327SOL     OW37385   5.427   2.965   4.554  0.1542 -0.2445 -0.1378
11327SOL    HW137386   5.407   3.012   4.473  0.9388  0.6998  0.2092
11327SOL    HW237387   5.480   2.890   4.526 -0.0998 -0.2612 -0.5680
11328SOL     OW37388   7.853   6.016  10.911 -0.0961  0.0925  0.6382
11328SOL    HW137389   7.942   6.051  10.903 -0.3572  0.8602  1.1044
11328SOL    HW237390   7.799   6.075  10.860 -0.1522 -1.1565 -0.7869
11329SOL     OW37391   2.621   6.377   6.793  0.0432 -0.4443 -0.1590
11329SOL    HW137392   2.598   6.294   6.836  0.3263 -0.3338  0.2194
11329SOL    HW237393   2.669   6.350   6.714 -0.6128 -0.6540 -0.4851
11330SOL     OW37394  10.422   4.100   4.780  0.0002  0.0029  0.3545
11330SOL    HW137395  10.503   4.057   4.752 -0.2245  0.4586 -1.0339
11330SOL    HW237396  10.389   4.044   4.850  0.1375 -1.6532 -0.8608
11331SOL     OW37397   9.569   7.777   6.835 -0.2494  0.3153  0.0214
11331SOL    HW137398   9.638   7.791   6.901  1.1018 -0.9146 -1.0866
11331SOL    HW237399   9.545   7.685   6.845 -0.4557  0.2771 -0.8219
11332SOL     OW37400   4.239   2.171   8.311  0.0154 -0.0348 -0.6946
11332SOL    HW137401   4.296   2.160   8.387 -0.1456  1.5221 -0.3213
11332SOL    HW237402   4.174   2.236   8.340  0.2621  0.9606 -2.3315
11333SOL     OW37403   5.056   1.207   0.834 -0.4722  0.2239 -0.1187
11333SOL    HW137404   5.068   1.220   0.740 -0.8862 -1.2640 -0.3898
11333SOL    HW237405   5.084   1.117   0.850  1.6352  1.1470  1.5700
11334SOL     OW37406  10.604   4.068   6.564  0.4251 -0.3676  0.1474
11334SOL    HW137407  10.646   4.154   6.565  0.6048 -0.4555  0.7108
11334SOL    HW237408  10.526   4.079   6.618  0.5247 -0.5930  0.3401
11335SOL     OW37409   0.178   8.506   8.667  0.0031 -0.0503  0.4216
11335SOL    HW137410   0.107   8.446   8.689 -1.7325  2.2633  1.3477
11335SOL    HW237411   0.165   8.525   8.574 -0.7968  0.5815  0.6502
11336SOL     OW37412   8.280   3.124   9.903  0.3294  0.3984 -0.3847
11336SOL    HW137413   8.198   3.111   9.952  1.0495 -1.6488  0.3490
11336SOL    HW237414   8.346   3.079   9.956  1.3181 -0.9716 -2.6955
11337SOL     OW37415   4.031   8.566   4.197  0.6293 -0.3028  0.3203
11337SOL    HW137416   3.984   8.589   4.278 -0.9401  0.0240 -0.6498
11337SOL    HW237417   4.027   8.646   4.145  2.1053 -0.3503  0.1258
11338SOL     OW37418   8.660   2.796   7.960 -0.1238 -0.2960 -0.1665
11338SOL    HW137419   8.697   2.811   8.047  1.7265 -0.5485 -0.8716
11338SOL    HW237420   8.616   2.878   7.938  2.1766  0.9581 -0.3007
11339SOL     OW37421   5.610  10.640   4.134 -0.1131  0.0361 -0.4018
11339SOL    HW137422   5.611  10.609   4.225  1.1471  0.7478 -0.1561
11339SOL    HW237423   5.527  10.687   4.125 -0.2009  0.0362  0.4109
11340SOL     OW37424   0.701   1.163  10.093  0.2337  0.5997 -0.0470
11340SOL    HW137425   0.659   1.217  10.160  0.8253 -0.0487  0.8473
11340SOL    HW237426   0.794   1.185  10.098  0.0803  1.7376 -1.7557
11341SOL     OW37427   0.307   7.188   6.263  0.4308 -0.0647  0.0528
11341SOL    HW137428   0.333   7.197   6.355  1.2888  0.0092 -0.1942
11341SOL    HW237429   0.236   7.251   6.252 -0.1050 -0.5274  0.8292
11342SOL     OW37430   6.862   9.263   2.876  0.6350 -0.0788  0.2706
11342SOL    HW137431   6.949   9.237   2.846  0.5931 -2.3586  1.9898
11342SOL    HW237432   6.879   9.322   2.951  0.7051 -0.4265  0.5294
11343SOL     OW37433   1.062   4.410   0.535 -0.3330 -0.1042  0.4318
11343SOL    HW137434   1.018   4.329   0.508  2.5889 -1.3363 -0.8900
11343SOL    HW237435   1.033   4.424   0.625  1.2384 -4.2832  1.7157
11344SOL     OW37436   6.107   4.084   7.643  0.2853 -0.3316  0.0045
11344SOL    HW137437   6.134   4.074   7.734 -0.0033  0.7414  0.2114
11344SOL    HW237438   6.027   4.033   7.635  0.2107 -0.2720  0.3989
11345SOL     OW37439   0.617   1.729   2.571 -0.1965 -0.7454 -0.4993
11345SOL    HW137440   0.639   1.693   2.485 -1.4536  0.7683 -1.4820
11345SOL    HW237441   0.693   1.780   2.595 -0.7829  0.8242 -1.8533
11346SOL     OW37442  10.250   4.869   1.871 -0.0701 -0.1875  0.1158
11346SOL    HW137443  10.344   4.854   1.867  0.0192  0.4982 -0.2983
11346SOL    HW237444  10.239   4.940   1.933 -0.1621  1.0928 -1.3491
11347SOL     OW37445   1.783  10.262   7.952 -0.0556 -0.6778  0.1993
11347SOL    HW137446   1.743  10.198   8.011 -0.3313 -0.2792  0.4486
11347SOL    HW237447   1.851  10.214   7.906  0.2773 -0.9519  0.9670
11348SOL     OW37448   4.946   4.088   4.902 -0.0127 -0.3920 -0.5950
11348SOL    HW137449   4.953   4.003   4.944 -0.3584 -0.6180 -0.9890
11348SOL    HW237450   5.004   4.145   4.953 -1.4137 -0.3371  1.0341
11349SOL     OW37451   5.255   4.249   5.795 -0.1333 -0.3045 -0.1789
11349SOL    HW137452   5.337   4.208   5.768 -0.0174 -1.3983  1.7760
11349SOL    HW237453   5.266   4.266   5.888 -3.0505 -2.8154  0.7097
11350SOL     OW37454   8.254   5.709   6.838  0.1318 -0.3864 -0.1613
11350SOL    HW137455   8.241   5.665   6.753 -1.5107 -1.1207  0.4366
11350SOL    HW237456   8.183   5.773   6.843  0.9838  0.5475  0.1146
11351SOL     OW37457   9.086   5.374   2.567 -0.3866  0.2138 -0.2931
11351SOL    HW137458   9.156   5.411   2.513 -1.0662 -1.1979 -2.2122
11351SOL    HW237459   9.123   5.293   2.602 -0.8937 -0.3372 -0.9969
11352SOL     OW37460   1.990   4.841   8.130 -0.0715  0.0428  0.2701
11352SOL    HW137461   1.950   4.763   8.170  0.7852 -1.2865 -1.3582
11352SOL    HW237462   1.966   4.913   8.188 -1.8854 -1.2536  1.1993
11353SOL     OW37463  10.490   9.986   2.017  0.2964  0.0110  0.0187
11353SOL    HW137464  10.407  10.012   2.057 -0.4823 -0.5124 -1.2222
11353SOL    HW237465  10.465   9.941   1.936  1.8396  1.5625 -1.3750
11354SOL     OW37466   3.334   2.873   9.675  0.1884 -0.3986  0.4985
11354SOL    HW137467   3.353   2.817   9.750 -0.2193  0.1653  1.0303
11354SOL    HW237468   3.280   2.819   9.618 -0.0278 -0.6217  0.9139
11355SOL     OW37469   4.123   6.128   3.971 -0.0881  0.4420  0.1219
11355SOL    HW137470   4.158   6.202   4.020  0.0106 -0.3338  1.2603
11355SOL    HW237471   4.039   6.110   4.013 -0.1019 -0.0943 -0.1319
11356SOL     OW37472   9.261   5.312   2.113  0.7568  0.9097 -0.0258
11356SOL    HW137473   9.255   5.218   2.130 -0.0018  1.1829  1.2005
11356SOL    HW237474   9.210   5.324   2.033 -1.3294  0.6628  1.2322
11357SOL     OW37475   7.896   9.488   9.202 -0.3649  0.8563  0.7813
11357SOL    HW137476   7.818   9.542   9.190  0.7688  2.1153 -1.1145
11357SOL    HW237477   7.964   9.531   9.150  1.3691 -0.7210  1.6767
11358SOL     OW37478   3.451   0.297   9.733 -0.2572 -0.0425  0.2643
11358SOL    HW137479   3.494   0.353   9.669 -1.7041  0.4304 -0.3286
11358SOL    HW237480   3.490   0.211   9.720 -0.6431  0.0036 -1.3827
11359SOL     OW37481   2.357   3.756   4.402 -0.3425 -0.0787 -0.1383
11359SOL    HW137482   2.426   3.691   4.417  1.3624  1.3525 -1.5628
11359SOL    HW237483   2.329   3.740   4.312 -0.6628  0.4493 -0.1302
11360SOL     OW37484   2.182   8.129   6.289 -0.4482 -0.2953  0.0292
11360SOL    HW137485   2.276   8.148   6.294 -0.5930  0.2587  0.6388
11360SOL    HW237486   2.147   8.197   6.231 -0.1145 -1.8385 -2.0468
11361SOL     OW37487  10.704   2.315   0.304 -0.2983 -0.3935  0.3660
11361SOL    HW137488  10.611   2.317   0.325 -0.4410  1.7264 -0.3278
11361SOL    HW237489  10.706   2.311   0.208  0.2920  1.1211  0.2996
11362SOL     OW37490   2.573   8.714   5.195  0.0096  0.8185  0.1208
11362SOL    HW137491   2.506   8.755   5.140 -2.1553  0.9834  2.7317
11362SOL    HW237492   2.636   8.784   5.212 -0.9285  1.6304  0.3186
11363SOL     OW37493   2.666   9.828   4.215 -0.3559 -0.4898 -0.3427
11363SOL    HW137494   2.660   9.794   4.126  2.4794 -0.7597 -0.4843
11363SOL    HW237495   2.749   9.791   4.249 -1.4961 -0.5968  2.4751
11364SOL     OW37496   1.604   2.587   6.683 -0.2532 -0.2835 -0.1209
11364SOL    HW137497   1.660   2.534   6.741  0.0981  1.1871  0.8958
11364SOL    HW237498   1.605   2.674   6.722 -0.3981  0.6183 -2.0973
11365SOL     OW37499  10.586   3.777   8.567 -0.0397 -0.0218  0.1756
11365SOL    HW137500  10.634   3.815   8.641  1.3701  0.9307 -1.1705
11365SOL    HW237501  10.643   3.793   8.491 -1.5836 -0.6889 -1.1648
11366SOL     OW37502   3.833   6.010   4.423  0.8614  0.0095  0.2288
11366SOL    HW137503   3.742   5.982   4.412  0.3857  0.3484  3.1082
11366SOL    HW237504   3.831   6.105   4.412  0.5189  0.2510  2.2193
11367SOL     OW37505   4.242   0.156   0.199  0.2634  0.0369  0.2995
11367SOL    HW137506   4.326   0.175   0.240  0.5918 -0.1089 -0.2902
11367SOL    HW237507   4.230   0.062   0.214  0.2698  0.0323  0.2766
11368SOL     OW37508   1.060   9.178   6.884 -0.7554 -0.1739  0.4154
11368SOL    HW137509   0.998   9.109   6.908 -0.0267 -1.1934 -0.6121
11368SOL    HW237510   1.123   9.179   6.956  0.3497 -1.9366 -0.4908
11369SOL     OW37511   6.187   8.671   6.426 -0.2704 -0.1154 -0.0941
11369SOL    HW137512   6.212   8.674   6.333 -1.1666  1.2603 -0.2982
11369SOL    HW237513   6.220   8.752   6.463  3.3539 -2.2849  1.6790
11370SOL     OW37514   6.893   2.251   2.614  0.0151  0.0716  0.7515
11370SOL    HW137515   6.824   2.318   2.611 -1.0351 -1.0214 -0.3468
11370SOL    HW237516   6.953   2.276   2.543 -2.1480 -1.9669 -1.8772
11371SOL     OW37517   6.124  10.536   1.757  0.3703  0.2285 -0.2957
11371SOL    HW137518   6.121  10.471   1.827  0.4947  0.3058 -0.2192
11371SOL    HW237519   6.187  10.601   1.787  1.2941 -0.3281 -0.9972
11372SOL     OW37520   0.473   2.424   8.323 -0.2850  0.0713  0.4707
11372SOL    HW137521   0.444   2.492   8.384 -0.4912 -0.2651  0.7504
11372SOL    HW237522   0.416   2.434   8.247  1.3875  1.8936 -0.5738
11373SOL     OW37523   7.545   4.529   6.104  0.4914 -0.4219  0.0944
11373SOL    HW137524   7.619   4.565   6.055  0.3021 -1.0602 -0.6665
11373SOL    HW237525   7.565   4.436   6.114 -0.4893 -0.7235 -0.6484
11374SOL     OW37526   3.189   0.960   0.980  0.1570 -0.1127  0.3341
11374SOL    HW137527   3.108   0.954   1.031  0.1743 -0.0524  0.3686
11374SOL    HW237528   3.163   0.998   0.897 -0.4084 -3.0451 -0.8938
11375SOL     OW37529   1.421   9.160   4.698  0.2456 -0.0551  0.0939
11375SOL    HW137530   1.492   9.143   4.760 -1.1057 -1.0665  1.4228
11375SOL    HW237531   1.441   9.246   4.661  2.4292 -0.5561  0.0338
11376SOL     OW37532   1.520   5.910   2.297  0.1354  0.2266  0.1802
11376SOL    HW137533   1.425   5.916   2.306  0.3647  3.2513  1.3502
11376SOL    HW237534   1.539   5.953   2.214  0.6180  1.7933  1.0665
11377SOL     OW37535   9.162   9.630   6.447 -0.1161 -0.3854 -0.2144
11377SOL    HW137536   9.175   9.683   6.368 -0.0695  0.3474  0.2761
11377SOL    HW237537   9.238   9.572   6.450  2.0709  2.4196  1.4834
11378SOL     OW37538   5.370   5.125   7.635  0.6863  0.1765  0.4137
11378SOL    HW137539   5.388   5.218   7.616  0.3671  0.0407 -0.6159
11378SOL    HW237540   5.312   5.126   7.711 -0.1493  0.8657 -0.2282
11379SOL     OW37541   0.577   3.574   6.241  0.3591  0.7150 -0.3161
11379SOL    HW137542   0.619   3.611   6.163 -1.3220 -0.4730 -1.8544
11379SOL    HW237543   0.645   3.523   6.283  1.0909  0.6956 -1.4886
11380SOL     OW37544   4.040   5.396   0.918 -0.2105  0.6316 -0.1052
11380SOL    HW137545   3.984   5.419   0.992 -1.6844 -0.1071 -0.9679
11380SOL    HW237546   4.120   5.446   0.932 -1.7059  3.0199  0.2914
11381SOL     OW37547   6.039   8.832   4.037 -0.3643 -0.2456  0.2404
11381SOL    HW137548   6.082   8.750   4.014 -1.5292 -0.3921 -1.4922
11381SOL    HW237549   5.995   8.813   4.120  0.9823 -0.7647  0.8506
11382SOL     OW37550   7.240   6.305   8.618  0.2400  0.4549  0.2199
11382SOL    HW137551   7.291   6.254   8.556 -0.7056 -2.5485  1.7963
11382SOL    HW237552   7.273   6.394   8.610  0.9199 -0.0741 -3.7079
11383SOL     OW37553   8.472   4.348   2.422  0.5436 -0.5202  0.2538
11383SOL    HW137554   8.440   4.408   2.490 -1.4539 -0.1645 -0.9579
11383SOL    HW237555   8.550   4.308   2.460  0.2680  0.7278  2.1984
11384SOL     OW37556   6.837   0.048   8.732  0.0960  0.5140  0.4762
11384SOL    HW137557   6.755   0.096   8.740 -0.3284 -0.3877  1.8225
11384SOL    HW237558   6.822  -0.015   8.662 -0.1544  0.7467  0.3234
11385SOL     OW37559   5.342   9.450   6.898  0.2087  0.3309 -0.0996
11385SOL    HW137560   5.353   9.481   6.988 -0.1037  0.7110 -0.1929
11385SOL    HW237561   5.388   9.366   6.896 -0.6420 -0.1605  0.6821
11386SOL     OW37562   8.842   9.347  10.209 -0.4029 -0.3049  0.1632
11386SOL    HW137563   8.896   9.269  10.205 -1.6579 -1.1411 -0.8875
11386SOL    HW237564   8.887   9.412  10.156  1.1006 -0.0022  1.7603
11387SOL     OW37565   3.506   1.556   9.345  0.1734 -0.2023 -0.2609
11387SOL    HW137566   3.455   1.502   9.285 -1.9606  0.0439  1.2515
11387SOL    HW237567   3.451   1.633   9.360  0.7118 -0.1872  1.8482
11388SOL     OW37568   2.078   4.592   1.473 -0.1901 -0.1588 -0.0996
11388SOL    HW137569   1.997   4.639   1.492  0.6145  1.2333 -0.0649
11388SOL    HW237570   2.073   4.572   1.380  0.1432  1.3396 -0.4456
11389SOL     OW37571   8.105   8.964   2.594 -0.7047  0.5708  0.5517
11389SOL    HW137572   8.032   8.912   2.560  1.2300 -1.3046 -0.8670
11389SOL    HW237573   8.091   8.966   2.689 -1.0138 -2.3007  0.6082
11390SOL     OW37574   9.297   8.256   2.988  0.0035  0.2452 -0.5774
11390SOL    HW137575   9.243   8.235   3.064  0.1094  1.5892 -0.1342
11390SOL    HW237576   9.344   8.335   3.012  0.5692  0.2886 -1.7778
11391SOL     OW37577   7.321   1.052   6.513  0.0404 -0.5450  0.6403
11391SOL    HW137578   7.268   1.066   6.592 -0.4187 -1.9335  0.5960
11391SOL    HW237579   7.411   1.056   6.544 -0.1354 -1.0909  1.2382
11392SOL     OW37580   3.504   0.599  10.823  0.4542 -0.2404  0.1225
11392SOL    HW137581   3.587   0.596  10.870 -0.2320 -1.5467  1.2690
11392SOL    HW237582   3.456   0.522  10.853 -1.3168  0.6921 -0.2476
11393SOL     OW37583   7.783   3.821   1.429  0.6605 -0.2846 -0.1029
11393SOL    HW137584   7.698   3.822   1.474 -1.6747  1.3259 -4.2068
11393SOL    HW237585   7.837   3.881   1.479 -1.4954  0.6998  1.1432
11394SOL     OW37586   8.086   7.428   7.334  0.0871  0.0177 -0.7107
11394SOL    HW137587   8.129   7.365   7.394 -0.0608  1.1583  0.6238
11394SOL    HW237588   8.158   7.481   7.300 -0.2573  2.4250  2.1088
11395SOL     OW37589   4.774   9.491   5.196  0.1823 -0.2461 -0.0190
11395SOL    HW137590   4.734   9.578   5.190 -0.9958 -0.6771  1.2838
11395SOL    HW237591   4.838   9.499   5.267  0.2668 -0.3812 -0.0799
11396SOL     OW37592   2.025  10.473   6.485  0.1943 -1.1803  0.8851
11396SOL    HW137593   2.093  10.408   6.500  1.4912 -0.4545 -1.5795
11396SOL    HW237594   1.963  10.429   6.426  0.0786 -0.8195  0.7384
11397SOL     OW37595   9.284   7.288   8.727  0.0143  0.9951  0.0667
11397SOL    HW137596   9.221   7.348   8.688 -0.3737  0.9485  0.6054
11397SOL    HW237597   9.274   7.207   8.677  1.0195  1.5872 -1.0935
11398SOL     OW37598   7.658   8.488   2.363  0.0979 -0.0383  0.4401
11398SOL    HW137599   7.679   8.472   2.271 -1.6505 -1.1557  0.2259
11398SOL    HW237600   7.624   8.405   2.395  0.8094  0.3083  2.1466
11399SOL     OW37601  10.453   2.990   1.337 -0.2178 -0.7990 -0.0793
11399SOL    HW137602  10.397   3.067   1.333  0.4047 -0.3540 -0.2242
11399SOL    HW237603  10.531   3.019   1.383  0.9743 -0.7518 -2.0969
11400SOL     OW37604   3.503  10.878  10.130 -0.0359 -0.2855  0.0868
11400SOL    HW137605   3.454  10.831  10.062  2.0136 -1.6427 -0.5004
11400SOL    HW237606   3.479  10.834  10.212 -1.5895  0.5869  0.1334
11401SOL     OW37607   2.401   4.301   2.652 -0.2008 -0.4657 -0.3598
11401SOL    HW137608   2.320   4.258   2.681 -0.4162  0.2040  0.0524
11401SOL    HW237609   2.470   4.256   2.700 -0.5629  0.7206  1.3351
11402SOL     OW37610   6.871   2.037  10.042  0.3394 -0.2496  0.0310
11402SOL    HW137611   6.920   1.968   9.996 -0.0107 -0.0399 -0.6600
11402SOL    HW237612   6.885   2.017  10.134  4.2460  1.5283 -0.0544
11403SOL     OW37613   0.333   6.956   9.684 -0.3954  0.1395  0.5157
11403SOL    HW137614   0.265   6.888   9.688 -1.0427  0.7882  0.5803
11403SOL    HW237615   0.362   6.955   9.592  0.3762 -0.9722  0.7597
11404SOL     OW37616   0.319   2.749   2.019 -1.0047  0.0763 -0.2723
11404SOL    HW137617   0.402   2.706   2.036 -1.1416 -0.0040  0.1961
11404SOL    HW237618   0.329   2.836   2.057 -0.6688  0.5281 -1.3609
11405SOL     OW37619   2.786   4.424  10.091 -0.5032  0.6234  0.3874
11405SOL    HW137620   2.696   4.404  10.062 -0.1455  0.5064 -0.6422
11405SOL    HW237621   2.775   4.460  10.179 -1.4308 -1.1719  1.0318
11406SOL     OW37622   6.575   4.271   3.206 -0.3999 -0.2028  0.5353
11406SOL    HW137623   6.660   4.291   3.167 -0.5638 -1.0553 -0.2735
11406SOL    HW237624   6.537   4.357   3.227 -0.2826  0.2730 -1.1253
11407SOL     OW37625   7.805   9.439   1.174  0.2161  0.7721  0.8065
11407SOL    HW137626   7.872   9.469   1.113 -0.9156  1.7133  0.0131
11407SOL    HW237627   7.781   9.352   1.143  0.7297  0.6326  0.8067
11408SOL     OW37628   8.644   9.959  10.064  0.5828 -0.1463 -0.2738
11408SOL    HW137629   8.707   9.887  10.068 -1.4306 -2.0091 -0.9372
11408SOL    HW237630   8.587   9.938   9.990  0.7807  2.8841 -1.3694
11409SOL     OW37631   0.048   2.889   6.211 -0.7094  0.2000  0.0646
11409SOL    HW137632   0.053   2.929   6.298 -1.4060 -0.0780  0.2430
11409SOL    HW237633   0.132   2.844   6.200 -1.1542 -0.9488  1.1919
11410SOL     OW37634   3.589  10.903   3.432  0.7518  0.2466  0.2423
11410SOL    HW137635   3.613  10.837   3.496  1.2546  0.1684 -0.0264
11410SOL    HW237636   3.568  10.854   3.352  0.1043  0.3406  0.3478
11411SOL     OW37637   8.333   3.279   5.621 -0.0154 -0.6470 -0.5515
11411SOL    HW137638   8.306   3.188   5.629 -3.3122  0.4351  1.5175
11411SOL    HW237639   8.382   3.297   5.701 -0.4758 -0.2422 -0.3601
11412SOL     OW37640   9.535  10.795   6.022 -0.1482 -0.2056  0.0861
11412SOL    HW137641   9.465  10.768   5.962 -2.5933  1.9191  1.8333
11412SOL    HW237642   9.565  10.714   6.062 -0.1019 -1.3884 -2.2660
11413SOL     OW37643   6.262   0.535   1.426  0.5907  0.5003 -0.7833
11413SOL    HW137644   6.201   0.557   1.356  0.2680  0.2500 -0.5777
11413SOL    HW237645   6.215   0.474   1.482  1.4216 -0.5930 -1.2537
11414SOL     OW37646   6.172   2.618   1.293 -0.0748 -0.0475 -0.2681
11414SOL    HW137647   6.212   2.702   1.318 -0.4104  0.3535 -1.0526
11414SOL    HW237648   6.241   2.553   1.307  0.2586  0.3854  0.1404
11415SOL     OW37649   5.062   6.400   8.467 -0.4127  0.2632  0.3040
11415SOL    HW137650   5.016   6.336   8.522  0.4774  1.0412  1.9743
11415SOL    HW237651   5.149   6.364   8.454 -0.6881 -0.0354 -0.8450
11416SOL     OW37652  10.014   3.122   2.867 -0.2038 -0.0373 -0.0300
11416SOL    HW137653  10.064   3.049   2.831  0.2007  0.4468 -0.4420
11416SOL    HW237654  10.071   3.161   2.933 -0.1800  0.2784 -0.2326
11417SOL     OW37655   3.059   8.985   0.671  0.4510  0.6522 -0.3256
11417SOL    HW137656   3.030   9.064   0.716 -0.2141  0.5073 -0.5056
11417SOL    HW237657   3.045   8.915   0.735  1.4040  0.7256 -0.0224
11418SOL     OW37658   9.041   1.315   8.942 -0.0179  0.5272  0.6737
11418SOL    HW137659   9.127   1.327   8.903 -0.0554 -0.9623  0.1311
11418SOL    HW237660   8.981   1.360   8.882  0.3277  1.2634  0.8719
11419SOL     OW37661   2.142   8.200   3.788 -0.5483 -0.4532 -0.0456
11419SOL    HW137662   2.121   8.109   3.765  2.9706 -1.4050  0.3245
11419SOL    HW237663   2.163   8.242   3.705  1.0068 -0.8653  0.1270
11420SOL     OW37664   4.427   2.230   0.599 -0.1875 -0.0462 -0.4996
11420SOL    HW137665   4.338   2.206   0.625 -0.0605 -2.0975 -1.8011
11420SOL    HW237666   4.466   2.266   0.679 -1.7046 -0.5374  0.4993
11421SOL     OW37667   9.106   8.927   3.554  0.0327  0.5441  0.4461
11421SOL    HW137668   9.068   8.933   3.466  0.3803  3.2161  0.4619
11421SOL    HW237669   9.195   8.895   3.539  0.1838  1.2589 -0.2068
11422SOL     OW37670   2.253   3.367   8.766 -0.1204  0.6487 -0.0894
11422SOL    HW137671   2.240   3.311   8.690 -0.4373 -0.3629  0.7023
11422SOL    HW237672   2.264   3.306   8.839  2.3460  1.5596  0.3419
11423SOL     OW37673   9.941   3.782   9.523  0.2238 -0.1304  0.4100
11423SOL    HW137674   9.867   3.743   9.570  1.3410 -2.2374  0.4846
11423SOL    HW237675  10.015   3.775   9.584  1.1138 -0.5746 -0.6894
11424SOL     OW37676   4.714   8.836   5.704  0.1788 -0.5052 -0.3582
11424SOL    HW137677   4.701   8.819   5.797 -2.1068 -2.2969 -0.9349
11424SOL    HW237678   4.780   8.772   5.677  0.1808 -0.5952 -0.1382
11425SOL     OW37679   7.145   0.962   8.875 -0.5815  0.3181  0.0727
11425SOL    HW137680   7.167   0.869   8.870  2.7237  1.0862 -0.5775
11425SOL    HW237681   7.120   0.975   8.966  0.1972 -0.9319  0.4815
11426SOL     OW37682   6.343   4.919   0.707  0.3327 -0.6150 -1.1919
11426SOL    HW137683   6.436   4.923   0.727  0.2437 -0.9311 -0.7014
11426SOL    HW237684   6.339   4.917   0.611  0.8546 -1.1737 -1.2055
11427SOL     OW37685   4.469   5.399   8.573 -0.0122  0.2857  0.0627
11427SOL    HW137686   4.492   5.409   8.481 -2.0641 -0.2234 -0.5359
11427SOL    HW237687   4.387   5.447   8.583 -0.2374 -0.3488  1.4275
11428SOL     OW37688   0.061   6.999  10.162 -0.0617 -0.0017  0.0222
11428SOL    HW137689   0.055   7.082  10.114  0.2711  0.1146  0.1815
11428SOL    HW237690   0.128   6.950  10.115 -0.8882 -0.5343 -0.6110
11429SOL     OW37691   6.352   1.516   4.476 -0.2058  0.2906  0.0039
11429SOL    HW137692   6.363   1.581   4.545  0.0355  0.7658 -0.4805
11429SOL    HW237693   6.402   1.551   4.402 -2.3670  0.9417 -1.1943
11430SOL     OW37694   8.726   9.598   9.726 -0.3464 -0.1542 -0.4081
11430SOL    HW137695   8.781   9.648   9.666  0.6077 -1.8769 -0.9904
11430SOL    HW237696   8.636   9.618   9.698  0.0494  0.5281 -1.1977
11431SOL     OW37697   2.669   1.266   3.457 -0.9505 -0.5617  0.2271
11431SOL    HW137698   2.705   1.294   3.373 -0.7067  2.3953  1.2704
11431SOL    HW237699   2.586   1.313   3.464 -0.9832 -0.8135  1.6394
11432SOL     OW37700   1.477   0.566   6.664 -0.6184  0.2109  0.0760
11432SOL    HW137701   1.496   0.619   6.742  0.1740  0.9126 -0.5914
11432SOL    HW237702   1.406   0.508   6.692  0.3039 -0.2016  1.6125
11433SOL     OW37703   1.854   0.910   0.025  0.2369  0.0914  0.1041
11433SOL    HW137704   1.852   0.938  -0.067 -0.6702  0.1895  0.1519
11433SOL    HW237705   1.781   0.955   0.066  0.5691 -0.0398  0.8575
11434SOL     OW37706   3.270  10.840   4.030 -0.0614  0.0682  0.2096
11434SOL    HW137707   3.280  10.753   4.067 -1.8801  0.5941  2.0802
11434SOL    HW237708   3.325  10.840   3.952  0.5673 -2.4846  0.6082
11435SOL     OW37709   3.981   8.083   6.071  0.2247  0.1960 -0.5584
11435SOL    HW137710   4.054   8.025   6.051 -0.2316 -0.7283  0.4000
11435SOL    HW237711   3.906   8.044   6.027 -0.1693 -0.2011  0.4434
11436SOL     OW37712   0.945   5.043   5.398 -0.1950  0.0304 -0.8658
11436SOL    HW137713   0.860   5.064   5.436 -0.0411 -1.1541  0.1639
11436SOL    HW237714   0.991   4.996   5.467  1.2261  0.4838 -1.4845
11437SOL     OW37715   8.119   8.957   6.187 -0.6153  0.0930 -0.2066
11437SOL    HW137716   8.042   8.978   6.241 -1.2156  1.2810 -1.5142
11437SOL    HW237717   8.103   8.867   6.159 -0.7978 -0.1864  0.7404
11438SOL     OW37718   6.336   9.373   6.335 -0.0921  0.0889 -0.5529
11438SOL    HW137719   6.407   9.417   6.381 -0.6897  0.6541 -0.1699
11438SOL    HW237720   6.351   9.280   6.350  1.2273  0.1464 -1.4435
11439SOL     OW37721   4.468   1.759   9.767  0.0713  0.3579 -0.4515
11439SOL    HW137722   4.401   1.766   9.835  1.2085  1.3946  0.5810
11439SOL    HW237723   4.548   1.792   9.808  1.2657 -0.9979 -1.6186
11440SOL     OW37724   1.699   1.442   9.617 -0.1040 -0.4933 -0.2907
11440SOL    HW137725   1.725   1.350   9.612  0.2467 -0.5684  2.0300
11440SOL    HW237726   1.695   1.460   9.711 -0.7225  1.7132 -0.7110
11441SOL     OW37727   2.600   6.708   5.676 -0.0840 -0.4488  0.4600
11441SOL    HW137728   2.587   6.633   5.733 -0.7417 -0.5341  0.1980
11441SOL    HW237729   2.612   6.671   5.589 -2.0200 -0.1859  0.0623
11442SOL     OW37730   5.401   0.484   2.554  0.1931  0.4698 -0.4300
11442SOL    HW137731   5.445   0.532   2.483  0.3940  0.6341 -0.1933
11442SOL    HW237732   5.337   0.546   2.588  1.0643  0.8770  0.4667
11443SOL     OW37733  10.607   2.404   1.261  0.4282 -0.2466  0.0128
11443SOL    HW137734  10.612   2.312   1.236 -1.0894  0.2864 -2.3115
11443SOL    HW237735  10.674   2.447   1.207  1.6215 -0.0542  1.5945
11444SOL     OW37736   0.034   3.521   2.978 -0.0937  0.3931 -0.1062
11444SOL    HW137737   0.128   3.505   2.975 -0.1168  0.4272 -1.3520
11444SOL    HW237738   0.018   3.556   3.066  0.8078 -1.1473  0.6940
11445SOL     OW37739   5.583   2.971   8.271 -0.4385 -0.0458  0.3140
11445SOL    HW137740   5.504   2.961   8.324  0.0959  0.9012  1.3265
11445SOL    HW237741   5.553   2.971   8.181 -1.3120 -2.4018  0.5687
11446SOL     OW37742   4.203   7.324   5.208  0.6127  0.2715  0.1879
11446SOL    HW137743   4.269   7.284   5.264  1.1664 -1.2090 -1.4940
11446SOL    HW237744   4.124   7.271   5.222  0.6123  0.2105 -0.0339
11447SOL     OW37745   0.466   4.399   2.339 -0.4193 -0.3261 -0.1666
11447SOL    HW137746   0.557   4.369   2.346  0.4398  2.5799  1.9990
11447SOL    HW237747   0.426   4.373   2.422 -1.0812 -0.0277 -0.3899
11448SOL     OW37748   5.236   3.910   9.918  0.3287  0.1458  0.0155
11448SOL    HW137749   5.319   3.956   9.926 -0.6525  1.9730 -0.0123
11448SOL    HW237750   5.170   3.974   9.946 -1.1584 -0.8935 -1.0015
11449SOL     OW37751   8.384   6.705   0.439 -0.5333 -0.2510  0.1224
11449SOL    HW137752   8.357   6.795   0.457 -0.9450 -0.5490  1.0259
11449SOL    HW237753   8.373   6.659   0.523  2.8432 -0.3832  0.5718
11450SOL     OW37754   4.508   3.554   5.956  0.4030  0.0230 -0.4810
11450SOL    HW137755   4.440   3.559   6.024  1.0390 -0.4028  0.2052
11450SOL    HW237756   4.525   3.645   5.932 -1.9930  0.0519 -2.2909
11451SOL     OW37757   9.107   0.328   6.733 -0.3968 -0.3556  0.0401
11451SOL    HW137758   9.077   0.238   6.723  0.8125 -0.6167 -1.3860
11451SOL    HW237759   9.033   0.382   6.704 -0.9206 -0.8769  0.3837
11452SOL     OW37760  10.855   0.207   1.912 -0.2105 -0.2132  0.4201
11452SOL    HW137761  10.888   0.215   1.822 -0.8590 -0.6452  0.1412
11452SOL    HW237762  10.784   0.270   1.917  0.0588  0.0666  0.7440
11453SOL     OW37763   4.205   0.768   2.163 -0.2518  0.0801 -0.1606
11453SOL    HW137764   4.141   0.700   2.142  0.7861 -0.6989 -0.8277
11453SOL    HW237765   4.151   0.846   2.182 -1.3935 -0.5133 -0.8914
11454SOL     OW37766   7.233   1.823   7.642 -0.0855  0.3125 -0.3535
11454SOL    HW137767   7.296   1.751   7.647  0.2426  0.6535  0.5202
11454SOL    HW237768   7.204   1.823   7.551  0.5494 -0.3812 -0.5614
11455SOL     OW37769   0.759   7.468   8.808 -0.1538  0.3749  0.4132
11455SOL    HW137770   0.780   7.445   8.899  0.0485  0.6032  0.4260
11455SOL    HW237771   0.664   7.469   8.805 -0.1611  0.2235  0.5882
11456SOL     OW37772   2.373   3.348   5.755  0.6724  0.1781  0.2332
11456SOL    HW137773   2.374   3.284   5.684  1.2156  0.5899 -0.1281
11456SOL    HW237774   2.392   3.296   5.834  0.5823 -0.1924  0.0128
11457SOL     OW37775  10.821   2.637  10.566  0.0898 -0.2940  0.0280
11457SOL    HW137776  10.852   2.724  10.591  0.4020 -0.3564 -0.1442
11457SOL    HW237777  10.888   2.577  10.598  0.2035 -0.4201 -0.4376
11458SOL     OW37778   6.321   5.666   3.894  0.0415 -0.8219 -0.7420
11458SOL    HW137779   6.408   5.677   3.856  0.1824  0.1322 -0.1798
11458SOL    HW237780   6.270   5.740   3.860 -0.0760 -0.4521  0.2025
11459SOL     OW37781   2.959   3.599   6.356  0.4558  0.1499  0.7019
11459SOL    HW137782   3.053   3.590   6.374  0.4272 -0.3423  0.6364
11459SOL    HW237783   2.934   3.682   6.396  1.0850  0.6627  0.0399
11460SOL     OW37784   7.008   1.254   7.567 -0.1425 -0.1594  0.1953
11460SOL    HW137785   6.953   1.320   7.610 -1.3962 -0.6304 -0.6658
11460SOL    HW237786   7.086   1.303   7.539  0.2354  0.3489  2.1116
11461SOL     OW37787   0.533   4.423  10.180 -0.0833 -0.4579  0.1192
11461SOL    HW137788   0.614   4.468  10.154  0.1268  0.1646  1.7725
11461SOL    HW237789   0.482   4.490  10.225 -1.7682 -0.7176 -1.3746
11462SOL     OW37790   7.271   4.531   8.683  0.4375 -0.5006  0.3290
11462SOL    HW137791   7.335   4.591   8.719  1.4305  0.0204 -2.2283
11462SOL    HW237792   7.213   4.586   8.631  0.5485 -1.5464 -0.9243
11463SOL     OW37793   5.201   4.401   3.388 -0.1984 -0.4377  0.2054
11463SOL    HW137794   5.147   4.381   3.465  0.3657 -0.8034  0.4996
11463SOL    HW237795   5.210   4.318   3.342 -1.0106 -0.1134 -0.5713
11464SOL     OW37796   7.140   6.247   5.002  0.1928 -0.2280 -0.3716
11464SOL    HW137797   7.116   6.292   5.083  1.6159 -0.3510  0.1348
11464SOL    HW237798   7.058   6.208   4.971 -0.4608  0.2190  0.7573
11465SOL     OW37799   0.356   9.122   6.075  0.3228 -0.3816  0.1721
11465SOL    HW137800   0.443   9.085   6.090  0.1028 -0.6098  0.9082
11465SOL    HW237801   0.298   9.046   6.072  0.2275 -0.2726 -0.9118
11466SOL     OW37802   6.895   3.273   9.107  0.2852  0.4207  0.3710
11466SOL    HW137803   6.981   3.257   9.146  0.0586  1.1313  1.1754
11466SOL    HW237804   6.855   3.186   9.101 -0.3274  0.4592  3.2475
11467SOL     OW37805   7.489   4.885   6.488 -0.2633  0.2463  0.6210
11467SOL    HW137806   7.432   4.873   6.565  1.5110  0.2433  1.9531
11467SOL    HW237807   7.504   4.797   6.456 -0.3960  0.1892  0.7113
11468SOL     OW37808   5.262   3.606   1.369  0.0779 -0.6618 -0.2396
11468SOL    HW137809   5.268   3.700   1.387 -0.3591 -1.0359  2.0714
11468SOL    HW237810   5.265   3.599   1.274  1.0824  1.6260 -0.4080
11469SOL     OW37811   3.731   2.948   5.255 -0.0434  0.1656 -0.0139
11469SOL    HW137812   3.743   2.861   5.292  0.0118  0.7967  1.5111
11469SOL    HW237813   3.643   2.946   5.218  0.0467 -0.6163 -0.1917
11470SOL     OW37814   1.937   6.985   3.953 -0.4867  0.0592 -0.0981
11470SOL    HW137815   1.878   6.921   3.993 -1.5154  1.8667  1.3575
11470SOL    HW237816   1.970   7.036   4.027  1.1064  0.5534 -1.1384
11471SOL     OW37817   8.334   5.310   3.384  0.1782 -0.4165  0.9799
11471SOL    HW137818   8.324   5.391   3.334  2.1458 -0.4511  0.4951
11471SOL    HW237819   8.303   5.241   3.326 -1.7040 -0.0315  1.4681
11472SOL     OW37820   1.312  10.511   0.198 -0.5996 -0.1349 -1.1588
11472SOL    HW137821   1.363  10.586   0.167 -0.5228  0.2479 -0.1074
11472SOL    HW237822   1.229  10.518   0.149 -0.0927 -0.1188 -2.0284
11473SOL     OW37823   7.599   0.980   4.051  0.5654 -0.4608 -0.0834
11473SOL    HW137824   7.620   0.908   4.110 -1.0961 -1.8955 -1.1850
11473SOL    HW237825   7.672   0.982   3.988  1.3466 -0.2104  0.8267
11474SOL     OW37826   1.748   4.161   6.653 -0.6976  0.2735 -0.0145
11474SOL    HW137827   1.680   4.095   6.648 -0.2177 -0.1657 -0.7450
11474SOL    HW237828   1.701   4.244   6.658 -1.2787 -0.0421 -0.2702
11475SOL     OW37829   2.141   0.022   7.116 -0.0814  0.1295 -0.3550
11475SOL    HW137830   2.091   0.101   7.097 -0.6754  0.4236  2.1611
11475SOL    HW237831   2.124   0.005   7.209  1.5521 -1.8743 -0.3791
11476SOL     OW37832   9.086   6.989   2.034 -0.4563  0.0103 -0.2997
11476SOL    HW137833   9.036   6.931   1.977 -0.3353 -0.7136  0.3318
11476SOL    HW237834   9.061   6.963   2.123  0.7675 -0.1139  0.0135
11477SOL     OW37835  10.046   9.544   6.462 -0.1519 -0.7158 -0.6470
11477SOL    HW137836   9.975   9.592   6.505 -0.3336  0.4063 -2.1484
11477SOL    HW237837  10.118   9.547   6.525 -0.4204  0.8665 -0.3921
11478SOL     OW37838   2.776   9.201   0.688  0.1144  0.4537 -0.3550
11478SOL    HW137839   2.857   9.214   0.737  0.5305  0.4487 -1.0301
11478SOL    HW237840   2.707   9.235   0.745  0.6427  0.9038  0.0172
11479SOL     OW37841   3.930   5.570   1.313 -0.5217 -0.1473 -0.1970
11479SOL    HW137842   3.956   5.596   1.401 -1.7575 -1.7998  0.6936
11479SOL    HW237843   3.861   5.504   1.326  0.6098 -1.8584 -2.3390
11480SOL     OW37844   8.812   8.589   0.985 -0.1556  0.3127  1.2920
11480SOL    HW137845   8.791   8.496   0.997 -0.9301  0.5179  1.5740
11480SOL    HW237846   8.865   8.592   0.905 -1.5906 -0.1814  0.2981
11481SOL     OW37847   9.761   1.316  10.575 -0.3039 -0.1365  0.2424
11481SOL    HW137848   9.685   1.372  10.587 -0.5142  0.2463 -2.5011
11481SOL    HW237849   9.738   1.234  10.618 -1.8493  0.3193  0.2948
11482SOL     OW37850   5.937   2.621   9.741 -1.2213 -0.4860  0.6551
11482SOL    HW137851   5.921   2.653   9.830 -1.4728 -1.1941  0.8672
11482SOL    HW237852   5.920   2.527   9.746 -1.3441 -0.5088 -0.1712
11483SOL     OW37853   2.986   8.404   2.009 -0.1869 -0.4014 -0.1444
11483SOL    HW137854   2.951   8.488   2.038  1.5059  0.6457 -1.0370
11483SOL    HW237855   2.914   8.342   2.022 -1.0150  0.9080  1.8163
11484SOL     OW37856   9.253   5.394   5.034  0.2034  0.5951  0.2708
11484SOL    HW137857   9.273   5.332   5.104  0.6682  1.6694  1.0954
11484SOL    HW237858   9.337   5.408   4.990 -0.5120 -1.8761 -2.0178
11485SOL     OW37859   6.307   2.140   2.467 -0.5344  0.0140  0.0233
11485SOL    HW137860   6.281   2.082   2.539 -1.0057  0.4887  0.2440
11485SOL    HW237861   6.238   2.206   2.464  0.2999  0.9147  0.1729
11486SOL     OW37862   7.319  10.088   7.694  0.0605  0.4049  0.2699
11486SOL    HW137863   7.377  10.033   7.642 -0.2319 -1.0172  1.4194
11486SOL    HW237864   7.287  10.154   7.633  1.0703 -0.1990 -0.9269
11487SOL     OW37865   6.896   9.885   1.268  0.4415  0.2416  0.7799
11487SOL    HW137866   6.823   9.927   1.314  0.1748 -1.5472  2.0376
11487SOL    HW237867   6.862   9.867   1.180  0.3058  1.9352  0.4774
11488SOL     OW37868   6.858   3.617   4.592 -1.0325  0.5821 -0.3131
11488SOL    HW137869   6.780   3.668   4.613 -1.1574  0.5038 -0.5744
11488SOL    HW237870   6.914   3.677   4.543 -1.4044  0.3217 -1.0695
11489SOL     OW37871   6.999   8.198  10.564  0.3470 -0.1033 -0.5923
11489SOL    HW137872   6.932   8.129  10.572 -0.2730  0.8249  3.6876
11489SOL    HW237873   6.949   8.278  10.546  0.3193  0.3998  1.5283
11490SOL     OW37874   0.003   4.935   2.242  0.1392  0.5016 -0.1587
11490SOL    HW137875  -0.010   5.029   2.252  1.6728  0.6048  1.0283
11490SOL    HW237876   0.031   4.905   2.329 -0.7887 -1.1273 -0.3974
11491SOL     OW37877   4.277   9.256   4.381 -0.0035  0.2735 -0.7668
11491SOL    HW137878   4.293   9.259   4.475  1.1599 -1.6425 -0.8737
11491SOL    HW237879   4.233   9.339   4.361  1.5178  1.5623  1.1040
11492SOL     OW37880   8.203   1.300   4.012  0.1926 -0.4715 -0.2198
11492SOL    HW137881   8.155   1.218   4.005 -0.4941  0.0365 -1.7546
11492SOL    HW237882   8.135   1.367   4.022  0.7128 -0.0271  0.4021
11493SOL     OW37883   3.128   4.650   0.885 -0.4631  0.8376 -0.1763
11493SOL    HW137884   3.182   4.608   0.951 -0.8122  1.6277  0.6239
11493SOL    HW237885   3.156   4.742   0.885 -1.0399  1.0186 -0.5215
11494SOL     OW37886   9.952   9.518  10.806  0.7388 -0.2719 -0.0902
11494SOL    HW137887   9.987   9.429  10.813 -1.0492 -1.0904 -1.1037
11494SOL    HW237888   9.860   9.506  10.780  0.2515  1.8486  0.5311
11495SOL     OW37889   0.222   8.490   3.171 -0.0096  0.2821  0.0340
11495SOL    HW137890   0.303   8.531   3.200  0.8572  0.4757 -2.5273
11495SOL    HW237891   0.163   8.563   3.151  0.6735  0.2669 -2.1459
11496SOL     OW37892   1.126   8.256   6.544 -0.6681  0.1178  0.6750
11496SOL    HW137893   1.036   8.225   6.557 -0.0638 -2.0907 -0.1367
11496SOL    HW237894   1.143   8.312   6.619 -3.4689  2.3599 -0.2728
11497SOL     OW37895  10.595   6.236   8.522  0.2195  0.4123  0.6169
11497SOL    HW137896  10.629   6.279   8.444 -2.1711 -1.9588 -1.8492
11497SOL    HW237897  10.559   6.307   8.575 -0.7549  1.8049 -1.8156
11498SOL     OW37898   7.159   2.492   5.991  0.1577 -0.7936  0.1707
11498SOL    HW137899   7.153   2.477   5.897 -0.3435 -1.1550  0.2584
11498SOL    HW237900   7.251   2.514   6.006  0.0722  0.0215 -0.5046
11499SOL     OW37901   1.975   1.892   6.550 -0.0059 -0.1171 -0.1358
11499SOL    HW137902   1.992   1.835   6.474  1.0448  1.2215 -0.9165
11499SOL    HW237903   1.882   1.877   6.571 -0.1144 -1.0381 -1.2170
11500SOL     OW37904   7.571   4.896   0.294 -0.1259 -0.0573 -0.5360
11500SOL    HW137905   7.503   4.868   0.232 -1.2544  1.8227 -0.1738
11500SOL    HW237906   7.537   4.872   0.380  0.0944  0.0496 -0.4186
11501SOL     OW37907   8.775  10.399   1.868 -0.1864  0.1572 -0.1556
11501SOL    HW137908   8.847  10.345   1.835 -1.4811 -1.5925 -0.2234
11501SOL    HW237909   8.760  10.464   1.800 -0.0779 -0.8000 -1.1056
11502SOL     OW37910   1.404   3.272   5.598 -0.5066 -0.2765  0.3514
11502SOL    HW137911   1.402   3.368   5.595 -0.5993 -0.2069  2.4186
11502SOL    HW237912   1.387   3.250   5.689  0.5255 -2.2589  0.0906
11503SOL     OW37913   7.715   3.087   9.615 -0.0579 -0.0704  0.1708
11503SOL    HW137914   7.752   3.153   9.674 -1.7164 -0.6482  1.9281
11503SOL    HW237915   7.738   3.004   9.656 -0.4008 -0.5047 -0.5195
11504SOL     OW37916   9.287   4.586   0.246  0.4875 -0.5951  0.0076
11504SOL    HW137917   9.313   4.566   0.156  0.9731 -0.8579  0.2068
11504SOL    HW237918   9.363   4.629   0.285 -0.2579  0.9298 -0.1691
11505SOL     OW37919   7.043  10.696   8.676  0.0395  0.5019  0.0296
11505SOL    HW137920   7.023  10.603   8.675  1.5613  0.1740 -1.1056
11505SOL    HW237921   6.976  10.737   8.621  0.0824 -0.0693 -0.4405
11506SOL     OW37922   1.728   6.690   1.923  0.1088  0.6375  0.3131
11506SOL    HW137923   1.685   6.689   1.838  0.7577  1.6117 -0.0259
11506SOL    HW237924   1.665   6.732   1.982 -0.2458  0.1704  0.2636
11507SOL     OW37925   6.601   4.968   4.062 -0.0049 -0.5155  0.3105
11507SOL    HW137926   6.660   4.915   4.008  1.0105 -1.0165  1.8906
11507SOL    HW237927   6.530   4.908   4.085 -0.0189 -0.5353  0.2155
11508SOL     OW37928   7.257   4.779  10.687 -0.1347 -0.1119 -0.2767
11508SOL    HW137929   7.178   4.797  10.635  0.5546 -0.0466 -1.3158
11508SOL    HW237930   7.282   4.864  10.723 -0.0127  0.0323 -0.7006
11509SOL     OW37931   5.365   3.040   4.821 -0.4245 -0.0120 -0.5014
11509SOL    HW137932   5.335   3.130   4.808  1.2268  0.4875 -0.8312
11509SOL    HW237933   5.417   3.020   4.744  0.9788 -0.5139  0.5639
11510SOL     OW37934  10.361   5.315   5.436 -0.4142  0.3260  0.6583
11510SOL    HW137935  10.331   5.247   5.496 -0.6753 -0.5463 -0.4488
11510SOL    HW237936  10.286   5.332   5.379 -0.0883  0.9584  0.4146
11511SOL     OW37937   2.632   8.727   3.726 -0.6951  0.1000  0.0337
11511SOL    HW137938   2.650   8.636   3.704  0.3372  0.9457 -2.8689
11511SOL    HW237939   2.564   8.755   3.665  0.3656  1.7883 -0.4442
11512SOL     OW37940   3.157   6.469   4.029  0.1542 -0.0611 -0.2163
11512SOL    HW137941   3.182   6.562   4.027 -0.9451  0.2264 -0.7068
11512SOL    HW237942   3.222   6.429   4.088 -0.1625  1.2587  1.0677
11513SOL     OW37943   3.018   3.760   7.356 -0.6943  0.1536 -0.4744
11513SOL    HW137944   3.051   3.847   7.335  1.8413 -0.2491  1.5098
11513SOL    HW237945   3.062   3.701   7.295  0.6975 -0.1584  0.8111
11514SOL     OW37946   0.861   6.423   0.058 -0.8345 -0.0265  0.7727
11514SOL    HW137947   0.809   6.411  -0.022 -0.1266  0.7216  0.1943
11514SOL    HW237948   0.951   6.433   0.026 -0.3999 -0.7736  1.7367
11515SOL     OW37949   3.357   2.686   7.036  0.1092 -0.1402 -0.6391
11515SOL    HW137950   3.278   2.716   7.081  0.1055  0.1208 -0.8204
11515SOL    HW237951   3.423   2.752   7.059 -0.0472  0.3341 -1.5172
11516SOL     OW37952   9.538  10.582  10.527 -0.3668  0.1364  0.1544
11516SOL    HW137953   9.483  10.599  10.450 -0.0164  0.7976  0.0553
11516SOL    HW237954   9.476  10.580  10.600 -0.5753  0.4994 -0.0097
11517SOL     OW37955   6.741  10.976   6.621 -0.4736  0.5144  0.2522
11517SOL    HW137956   6.767  11.058   6.663  0.4785 -0.6239  1.9245
11517SOL    HW237957   6.665  10.946   6.671 -0.1149 -0.2032  0.3781
11518SOL     OW37958  10.935   9.332   6.505  0.2004  0.5299  0.2518
11518SOL    HW137959  11.020   9.310   6.544 -0.0141 -1.3038 -0.2676
11518SOL    HW237960  10.891   9.386   6.571  1.0935  0.0646  1.2384
11519SOL     OW37961   4.214   3.039  10.050  0.0307  0.8459 -0.1903
11519SOL    HW137962   4.197   3.072  10.139  1.6744 -0.5519  0.6667
11519SOL    HW237963   4.278   3.099  10.013 -0.5767  1.3686 -0.4043
11520SOL     OW37964   9.770  10.500  10.685  0.3735 -0.8099 -0.2182
11520SOL    HW137965   9.717  10.566  10.641  0.8223 -0.8185 -0.7704
11520SOL    HW237966   9.825  10.550  10.746 -0.7335 -0.8589  0.8438
11521SOL     OW37967   2.783   3.963   8.614  0.0103 -0.2928 -0.2280
11521SOL    HW137968   2.796   4.047   8.658 -0.6902 -2.1898  3.8748
11521SOL    HW237969   2.823   3.974   8.528  0.4145  4.0253  0.3895
11522SOL     OW37970   4.108   6.264   8.433  0.1983 -0.2624  0.1179
11522SOL    HW137971   4.132   6.355   8.454  0.5488 -0.4374  0.4806
11522SOL    HW237972   4.070   6.269   8.345 -0.9604  0.4287  0.6537
11523SOL     OW37973   1.469   0.099   1.966 -0.6718  0.4833  0.0098
11523SOL    HW137974   1.514   0.182   1.949 -0.3790  0.8753  2.5694
11523SOL    HW237975   1.531   0.048   2.017 -1.4611 -0.7080 -0.2108
11524SOL     OW37976  10.900   0.101   8.861 -0.3440 -0.5744  0.0051
11524SOL    HW137977  10.823   0.044   8.850  1.0779 -2.3559 -0.9654
11524SOL    HW237978  10.948   0.063   8.935  0.3990 -0.3781 -0.3731
11525SOL     OW37979   3.210   8.449   9.366 -0.3186  0.1749  0.5218
11525SOL    HW137980   3.119   8.420   9.367  0.2177 -1.6293 -1.1379
11525SOL    HW237981   3.205   8.543   9.384 -2.4363 -0.0530  1.2606
11526SOL     OW37982   1.868   1.288   8.512  0.4911 -0.1641  0.2494
11526SOL    HW137983   1.815   1.222   8.557 -0.0927  1.4137  1.9769
11526SOL    HW237984   1.812   1.320   8.442  0.0761 -0.2407  0.5389
11527SOL     OW37985  10.324   7.673   8.222  0.6209 -0.1832  0.1454
11527SOL    HW137986  10.377   7.715   8.154 -0.0708 -2.0083 -1.5426
11527SOL    HW237987  10.251   7.635   8.175  0.5115 -2.1088  1.8341
11528SOL     OW37988   8.297  10.156   1.525  0.2106 -0.0947  0.2478
11528SOL    HW137989   8.291  10.249   1.503 -1.2023 -0.2448 -0.0281
11528SOL    HW237990   8.383  10.147   1.566  0.1176  1.4479  0.8262
11529SOL     OW37991   7.748   9.657  10.158 -0.1930 -0.3612  0.1239
11529SOL    HW137992   7.683   9.648  10.088 -0.3561 -0.2228  0.2582
11529SOL    HW237993   7.701   9.697  10.230 -0.0136 -0.4727  0.3032
11530SOL     OW37994   6.914   0.556   1.504  0.3815 -0.8196 -0.0752
11530SOL    HW137995   6.886   0.476   1.549 -1.0554 -0.9780 -1.2006
11530SOL    HW237996   6.855   0.563   1.428  0.0027  1.6899  0.3951
11531SOL     OW37997   0.042   3.007   1.502 -0.2899 -0.0541 -0.8038
11531SOL    HW137998  -0.048   3.028   1.525 -0.4529 -0.8858 -0.6690
11531SOL    HW237999   0.038   2.984   1.409 -0.4525 -1.4261 -0.4656
11532SOL     OW38000   9.095   5.642   3.071 -0.2472 -0.2138  0.4663
11532SOL    HW138001   9.037   5.688   3.011  1.8219  1.8715 -0.0184
11532SOL    HW238002   9.072   5.676   3.158 -1.3988 -1.2070  0.5512
11533SOL     OW38003   2.080   2.764   7.297  0.4681  0.0868 -0.1891
11533SOL    HW138004   2.023   2.730   7.366  0.8591 -0.4425 -0.1256
11533SOL    HW238005   2.026   2.763   7.218  0.1225  0.3830  0.0437
11534SOL     OW38006   7.750   8.867  10.794 -0.5172 -0.1813 -0.5189
11534SOL    HW138007   7.724   8.955  10.764  0.2206 -0.1756 -1.1674
11534SOL    HW238008   7.760   8.876  10.889 -0.6971  0.3797 -0.5503
11535SOL     OW38009   7.801   5.519   3.925  0.2324  0.1948 -0.6311
11535SOL    HW138010   7.863   5.544   3.856  0.0361  2.3103 -0.0760
11535SOL    HW238011   7.716   5.521   3.881  0.4026 -1.5222 -1.0854
11536SOL     OW38012   7.836   6.241   9.001 -0.0280  0.0182 -0.0099
11536SOL    HW138013   7.900   6.260   8.932  1.1295 -0.6115  0.8648
11536SOL    HW238014   7.753   6.228   8.954  0.4070  1.2078 -1.1306
11537SOL     OW38015   2.482   4.494   9.872  0.0815  0.1905 -0.0862
11537SOL    HW138016   2.466   4.501   9.778  1.0889  0.7221 -0.2249
11537SOL    HW238017   2.560   4.547   9.887 -0.0898  0.1290  1.0564
11538SOL     OW38018   0.203   2.804   1.792  0.5742 -0.1059  0.0676
11538SOL    HW138019   0.251   2.783   1.872  1.0726 -1.3333 -0.5347
11538SOL    HW238020   0.271   2.825   1.728  0.1431  1.6393  0.1728
11539SOL     OW38021  10.893   7.706   6.369 -0.0999 -0.1004 -0.6205
11539SOL    HW138022  10.888   7.794   6.332 -0.4761  1.7348  3.4989
11539SOL    HW238023  10.977   7.704   6.415 -0.1152 -1.9021 -0.6362
11540SOL     OW38024   5.642   5.722   4.859 -0.1434 -0.5251 -0.2703
11540SOL    HW138025   5.693   5.644   4.883 -0.4294 -0.6968 -0.2212
11540SOL    HW238026   5.638   5.718   4.763 -1.9664 -1.7340 -0.1800
11541SOL     OW38027   8.681   9.048   3.345 -0.6144  0.2211 -0.5666
11541SOL    HW138028   8.689   8.971   3.402 -0.6688  0.4045 -0.3087
11541SOL    HW238029   8.596   9.036   3.302 -1.5675  1.1424  0.9930
11542SOL     OW38030   8.128   2.895   3.502  0.1753 -0.5387 -0.1375
11542SOL    HW138031   8.202   2.933   3.455 -0.5429  0.0507 -0.7934
11542SOL    HW238032   8.120   2.948   3.581  1.1426 -1.2967  0.4871
11543SOL     OW38033   7.560   7.794   3.093 -0.3915 -0.5523 -0.7293
11543SOL    HW138034   7.594   7.719   3.142 -0.0945  0.3907  0.5340
11543SOL    HW238035   7.622   7.865   3.111  0.0951 -0.3715 -3.0472
11544SOL     OW38036   8.438   5.510   9.693 -0.0512 -0.2193 -0.2958
11544SOL    HW138037   8.349   5.522   9.659  0.1182 -1.4573 -1.2152
11544SOL    HW238038   8.427   5.511   9.788 -1.1535 -1.0616 -0.4021
11545SOL     OW38039   6.545   9.982   5.061 -0.4079 -0.5321  0.1889
11545SOL    HW138040   6.535  10.019   4.973  1.1795  1.2917  0.7453
11545SOL    HW238041   6.456   9.978   5.095 -0.8497  0.5156 -0.8112
11546SOL     OW38042   8.774   5.786   7.179 -0.3864  0.0262  0.1481
11546SOL    HW138043   8.844   5.723   7.195  0.3867  0.8828  0.2465
11546SOL    HW238044   8.786   5.812   7.088  0.1928  1.0613  0.5002
11547SOL     OW38045   5.154   0.479  10.596  0.2036  0.1657  0.3067
11547SOL    HW138046   5.072   0.528  10.604 -0.2088  0.2010 -3.2393
11547SOL    HW238047   5.194   0.483  10.683 -1.4062  3.9840  0.9526
11548SOL     OW38048   9.437   6.274   1.786 -0.1752  0.5180 -0.0925
11548SOL    HW138049   9.351   6.283   1.746  0.2231 -1.2994 -1.4625
11548SOL    HW238050   9.447   6.351   1.842 -1.7815  1.8641 -1.6226
11549SOL     OW38051   0.406   4.804   2.836  0.5255  0.4441 -0.1321
11549SOL    HW138052   0.500   4.809   2.821  0.7186 -2.1252  0.0448
11549SOL    HW238053   0.398   4.771   2.925 -0.5482  0.0373 -0.3778
11550SOL     OW38054   9.184   2.931  10.320  0.3328 -0.4759 -0.7213
11550SOL    HW138055   9.239   2.857  10.295  1.1243 -0.3325  0.5204
11550SOL    HW238056   9.118   2.893  10.378 -1.1904 -0.7294 -2.6018
11551SOL     OW38057   2.065   1.653   4.718  0.7664  0.1341 -0.3625
11551SOL    HW138058   2.102   1.628   4.634  0.6326 -1.6760  0.1082
11551SOL    HW238059   1.979   1.611   4.721 -0.0007  1.6649 -0.0773
11552SOL     OW38060   7.215   9.443   7.583  0.1710  0.1455 -0.4769
11552SOL    HW138061   7.279   9.385   7.543 -0.6353  0.2371 -1.9445
11552SOL    HW238062   7.208   9.414   7.674  1.5155 -0.5203 -0.5855
11553SOL     OW38063   5.366   1.143   6.493  0.7671 -0.4829  0.0299
11553SOL    HW138064   5.394   1.203   6.561  0.1088  0.3436 -0.4227
11553SOL    HW238065   5.273   1.129   6.509  0.7583 -0.8126 -0.2940
11554SOL     OW38066   8.250   7.870   6.477  0.0037 -0.1255 -0.5158
11554SOL    HW138067   8.315   7.864   6.407  0.1173  0.2876 -0.4530
11554SOL    HW238068   8.237   7.780   6.507 -0.8926 -0.4512 -1.8400
11555SOL     OW38069   2.321   7.857   3.763  0.5937  0.0466 -0.0144
11555SOL    HW138070   2.390   7.920   3.743  0.4867  0.8588  2.0536
11555SOL    HW238071   2.246   7.886   3.711  1.0563  0.6634 -0.3393
11556SOL     OW38072   8.396   8.864   6.646 -0.5323 -0.5445 -0.1128
11556SOL    HW138073   8.333   8.871   6.717 -0.1273  1.9402  0.0651
11556SOL    HW238074   8.477   8.834   6.688 -0.7141 -0.5820  0.2092
11557SOL     OW38075   0.402   8.590   3.750  0.0313 -0.2772  0.0141
11557SOL    HW138076   0.463   8.542   3.805 -0.9000 -1.6942 -0.1486
11557SOL    HW238077   0.353   8.646   3.810  1.4273  0.7997  0.1479
11558SOL     OW38078   2.745   6.157   7.975 -0.0894  0.0937  0.2092
11558SOL    HW138079   2.653   6.180   7.965 -0.0598  0.5262  0.9397
11558SOL    HW238080   2.748   6.096   8.048  0.4880  1.9869  1.8131
11559SOL     OW38081   0.657  10.124   5.255  0.0346  0.0253  0.1071
11559SOL    HW138082   0.727  10.070   5.291  1.4527  0.9668 -1.1591
11559SOL    HW238083   0.654  10.201   5.312  0.9796  0.6205 -0.6273
11560SOL     OW38084   7.151  10.231  10.341 -0.1217  0.4909 -0.3346
11560SOL    HW138085   7.136  10.308  10.286 -1.4478  1.7042  1.6078
11560SOL    HW238086   7.086  10.167  10.311 -0.2710  0.8235 -0.7274
11561SOL     OW38087   8.392  10.158   8.925 -0.1835  0.7271 -0.3593
11561SOL    HW138088   8.444  10.196   8.995  0.3765  1.3491 -1.0985
11561SOL    HW238089   8.301  10.163   8.956  0.1287  0.2688  0.6433
11562SOL     OW38090   5.474   8.957   4.443 -0.2065 -0.2660 -0.2643
11562SOL    HW138091   5.552   8.903   4.431 -0.4924 -0.9315  0.8293
11562SOL    HW238092   5.443   8.974   4.354 -0.2016 -2.0312 -0.6249
11563SOL     OW38093   8.302   2.050   0.482 -0.5418  0.2512 -0.2847
11563SOL    HW138094   8.356   1.993   0.427  1.0536  2.5011 -1.1309
11563SOL    HW238095   8.302   2.135   0.436 -0.9714  1.5758  2.0800
11564SOL     OW38096   1.757   7.119   7.178 -0.5214  0.4771 -0.1773
11564SOL    HW138097   1.804   7.043   7.211  2.2988  2.0367 -0.5016
11564SOL    HW238098   1.778   7.122   7.085 -1.6442  0.9467 -0.4241
11565SOL     OW38099   7.111   8.631   8.128  0.9232 -0.4708  0.2581
11565SOL    HW138100   7.082   8.719   8.104  0.0086 -0.4661  1.3245
11565SOL    HW238101   7.169   8.604   8.057 -2.3473 -0.7934 -2.3711
11566SOL     OW38102   3.755   7.725   2.875  0.2189 -0.5113  0.1649
11566SOL    HW138103   3.700   7.792   2.916  0.3780  0.2368 -0.8211
11566SOL    HW238104   3.698   7.649   2.864 -0.8311  0.4769 -1.4401
11567SOL     OW38105   7.664   8.336   7.158 -0.3926 -0.0101 -0.0891
11567SOL    HW138106   7.697   8.382   7.081 -0.4959  0.5386  0.1928
11567SOL    HW238107   7.627   8.254   7.124  1.4973 -0.7592 -0.3787
11568SOL     OW38108   7.201   9.584   4.897  0.2463 -0.6345 -0.0604
11568SOL    HW138109   7.205   9.489   4.894 -0.5169 -0.6685  0.1100
11568SOL    HW238110   7.150   9.605   4.975 -0.3513 -0.1013 -0.5868
11569SOL     OW38111   1.689   3.710  10.616  0.2640  0.0810 -0.0661
11569SOL    HW138112   1.622   3.648  10.588  0.6875 -0.4714  0.1106
11569SOL    HW238113   1.688   3.779  10.550 -0.7327  0.2674  0.1466
11570SOL     OW38114   3.683   8.943   0.938 -0.0255  0.0133 -0.3686
11570SOL    HW138115   3.753   8.890   0.977  1.7194  1.7063 -1.0932
11570SOL    HW238116   3.609   8.883   0.929  2.1580 -2.5519 -2.0249
11571SOL     OW38117   1.393   8.720   5.602  0.7237 -0.0244  0.5147
11571SOL    HW138118   1.328   8.651   5.595  0.9714 -0.1589 -0.5565
11571SOL    HW238119   1.387   8.767   5.518  3.1452 -1.0636 -0.2868
11572SOL     OW38120   8.991   3.178   8.770 -0.1814 -1.4158 -0.1529
11572SOL    HW138121   8.959   3.259   8.730 -0.3864 -2.1112 -1.4135
11572SOL    HW238122   9.086   3.184   8.764 -0.2167 -1.5958 -0.8936
11573SOL     OW38123   2.932   4.034   6.708 -0.0955 -0.1714  0.0733
11573SOL    HW138124   2.954   4.119   6.669  1.7374 -0.4174  0.5077
11573SOL    HW238125   2.943   4.048   6.802 -0.5540 -0.6896  0.2059
11574SOL     OW38126   6.710   7.733   9.800 -0.1712 -0.1475 -0.0052
11574SOL    HW138127   6.618   7.744   9.775  0.0501  0.9254 -0.3826
11574SOL    HW238128   6.727   7.639   9.790 -1.7201 -0.6580  1.8124
11575SOL     OW38129   2.081   4.641   0.197 -0.4771 -0.4439 -0.2547
11575SOL    HW138130   2.138   4.577   0.156  0.9452  0.3188  0.5019
11575SOL    HW238131   2.080   4.618   0.290 -0.4339  0.2668 -0.0713
11576SOL     OW38132   6.970   9.809   6.616 -0.0544 -0.1016 -0.5442
11576SOL    HW138133   6.988   9.748   6.545  0.3342  0.5037 -0.9771
11576SOL    HW238134   7.052   9.856   6.629 -0.2180  0.0164  0.0811
11577SOL     OW38135   9.701   4.483   0.774 -0.1574  0.9187 -0.5415
11577SOL    HW138136   9.790   4.517   0.781  0.1135  0.3695 -1.2338
11577SOL    HW238137   9.665   4.492   0.862  0.7818  0.6111 -0.1196
11578SOL     OW38138   0.093  10.644   9.238  0.4064  0.2151 -0.2521
11578SOL    HW138139   0.004  10.678   9.233  0.9009  1.4651 -0.8867
11578SOL    HW238140   0.083  10.551   9.259 -1.0324  0.3922 -0.1484
11579SOL     OW38141   6.333   7.298  10.615 -0.2156  0.7116 -0.5814
11579SOL    HW138142   6.402   7.357  10.584  1.3507 -1.1396 -0.6825
11579SOL    HW238143   6.317   7.238  10.542  0.5132 -1.0322  0.6826
11580SOL     OW38144   9.605   8.452   7.160 -0.2897 -0.2811  0.0309
11580SOL    HW138145   9.627   8.368   7.202  2.8965  0.2677 -0.3646
11580SOL    HW238146   9.606   8.433   7.066 -4.0061 -0.7377  0.0145
11581SOL     OW38147   9.562   2.936   1.534 -0.0568 -0.9110 -0.9563
11581SOL    HW138148   9.565   2.928   1.630  0.7193 -2.5754 -1.1064
11581SOL    HW238149   9.469   2.926   1.512 -0.3767  0.4768 -0.3160
11582SOL     OW38150   2.622  10.284   4.310  0.0459 -0.3823 -0.1213
11582SOL    HW138151   2.594  10.194   4.323  0.0755 -0.4831 -0.7417
11582SOL    HW238152   2.631  10.320   4.398 -1.5763 -0.4940  0.1132
11583SOL     OW38153   1.586   6.899   0.332 -0.2007 -0.1169 -0.1130
11583SOL    HW138154   1.502   6.857   0.350 -0.2749 -0.6174 -1.5607
11583SOL    HW238155   1.637   6.832   0.285  0.7186  0.4474  0.0607
11584SOL     OW38156   5.773   4.715   8.133  0.0901  0.2436 -0.4635
11584SOL    HW138157   5.704   4.743   8.073 -1.4421  0.7432  1.4930
11584SOL    HW238158   5.728   4.661   8.198  1.5416  0.5400  0.8233
11585SOL     OW38159   5.609   4.722   6.845  0.0773  0.3289 -0.3903
11585SOL    HW138160   5.542   4.774   6.890 -1.2334 -1.3575 -0.3663
11585SOL    HW238161   5.561   4.669   6.783  1.4355 -0.6744 -0.6133
11586SOL     OW38162   9.565   1.351   0.394  0.3676  0.1135  0.3950
11586SOL    HW138163   9.592   1.439   0.421 -0.2668  0.4595 -0.0941
11586SOL    HW238164   9.578   1.350   0.300  1.1348 -0.5901  0.5076
11587SOL     OW38165   3.236   1.389   7.903 -0.2040 -0.1057 -0.4479
11587SOL    HW138166   3.164   1.438   7.941 -1.0701 -1.2475 -0.5960
11587SOL    HW238167   3.215   1.385   7.810  0.8344  0.8613 -0.7377
11588SOL     OW38168   9.115   4.303   2.002 -0.5380 -0.2493  0.0114
11588SOL    HW138169   9.091   4.334   1.915 -0.0081 -0.0632 -0.0729
11588SOL    HW238170   9.117   4.381   2.056  1.6572  0.0249 -0.3980
11589SOL     OW38171  10.625   6.927   2.055  0.1589 -0.1331  0.0708
11589SOL    HW138172  10.598   6.990   1.988  0.3763 -0.2290 -0.1058
11589SOL    HW238173  10.618   6.842   2.012  2.0947 -0.0635 -0.4335
11590SOL     OW38174   4.786   7.790   0.046 -0.2900 -0.9235 -0.4146
11590SOL    HW138175   4.849   7.836  -0.009 -0.4191 -0.2097  0.0226
11590SOL    HW238176   4.775   7.705   0.004  0.4151 -0.7844 -0.8943
11591SOL     OW38177   1.829   9.803   3.181 -0.0132 -0.2892 -0.5615
11591SOL    HW138178   1.774   9.834   3.252  1.5589  0.5119  0.3106
11591SOL    HW238179   1.834   9.876   3.120  1.7055  0.3699  0.3313
11592SOL     OW38180   2.583   0.810   5.514  0.8007  0.5191 -0.2180
11592SOL    HW138181   2.527   0.821   5.437  0.6210  2.5705  0.1714
11592SOL    HW238182   2.657   0.869   5.498  0.3986  1.5110  1.5038
11593SOL     OW38183   4.453   3.469   9.050  0.3287 -0.0814  0.0481
11593SOL    HW138184   4.393   3.407   9.091  0.6496 -0.6142 -0.2728
11593SOL    HW238185   4.480   3.425   8.969 -0.6779  1.1517 -0.9797
11594SOL     OW38186   7.754   4.183   8.355  0.1730 -0.4457  0.2728
11594SOL    HW138187   7.715   4.186   8.268 -1.0814  1.5792  0.8625
11594SOL    HW238188   7.824   4.119   8.348  0.0287 -0.3743 -2.1993
11595SOL     OW38189   2.335   7.294   3.658  0.0488 -0.1636 -0.5620
11595SOL    HW138190   2.248   7.331   3.642  0.0600 -0.6465 -1.7618
11595SOL    HW238191   2.322   7.235   3.732 -0.3241  0.9082  0.2478
11596SOL     OW38192   7.762  10.389   2.379  0.0711  0.1930 -0.1581
11596SOL    HW138193   7.826  10.392   2.308  1.7081  1.3706  1.3251
11596SOL    HW238194   7.691  10.447   2.351  0.1267 -0.2978 -1.3358
11597SOL     OW38195   9.490   3.048   3.177 -0.0730 -0.6048  0.2273
11597SOL    HW138196   9.495   2.967   3.229  3.0455 -1.0341 -0.6189
11597SOL    HW238197   9.573   3.050   3.129  0.0250  3.2863  0.4710
11598SOL     OW38198   8.982   2.946   4.124  0.5057  0.8325  0.0573
11598SOL    HW138199   9.002   3.025   4.173  1.0389  0.5558  0.2874
11598SOL    HW238200   9.059   2.932   4.068  1.5972 -1.0105  1.9446
11599SOL     OW38201   9.717   5.282   8.489  0.0252 -0.2954 -0.1401
11599SOL    HW138202   9.652   5.351   8.504  0.3256 -0.3398  1.5042
11599SOL    HW238203   9.676   5.222   8.428 -0.8733  0.5066 -0.3255
11600SOL     OW38204   5.595   4.664   1.475 -0.2899  0.1445  0.0031
11600SOL    HW138205   5.524   4.636   1.418  0.9676 -0.5942 -1.2394
11600SOL    HW238206   5.642   4.584   1.496 -1.0267  0.3348  2.5194
11601SOL     OW38207   6.680   2.383   7.598 -0.2645  0.3536  0.0295
11601SOL    HW138208   6.597   2.416   7.632 -0.7236 -1.5625  0.8154
11601SOL    HW238209   6.746   2.434   7.644 -0.9737  1.0827  0.2559
11602SOL     OW38210  10.014   0.890   0.015  0.4462  0.4269  0.0101
11602SOL    HW138211  10.060   0.836   0.079 -0.9893 -2.0383 -0.9145
11602SOL    HW238212  10.043   0.856  -0.070 -0.7035  0.8793 -0.5843
11603SOL     OW38213   1.763   5.803   6.968  0.3636  0.2147  0.3408
11603SOL    HW138214   1.831   5.743   6.937  0.5221  1.0643 -0.9856
11603SOL    HW238215   1.796   5.834   7.053  1.1883 -0.0853  0.1404
11604SOL     OW38216  10.217   0.201   9.438 -0.2276  0.1620  0.2665
11604SOL    HW138217  10.191   0.263   9.370 -1.4365 -0.0324  0.5360
11604SOL    HW238218  10.312   0.197   9.432 -0.1708  1.6949 -0.0617
11605SOL     OW38219   2.718   9.264   5.715  0.4144  0.3785 -0.7241
11605SOL    HW138220   2.698   9.223   5.631  1.1524  0.4955 -0.9665
11605SOL    HW238221   2.723   9.357   5.695  0.1227  0.4518 -0.4557
11606SOL     OW38222   7.676   6.652  10.855 -0.0944 -0.3305 -0.1779
11606SOL    HW138223   7.685   6.629  10.947 -1.9390 -0.9760 -0.1552
11606SOL    HW238224   7.738   6.595  10.810  1.7476  0.8708  0.7565
11607SOL     OW38225   6.593   5.593   9.693  0.9082 -0.1448 -0.2733
11607SOL    HW138226   6.583   5.645   9.774  1.9204 -0.0514 -0.2065
11607SOL    HW238227   6.620   5.657   9.627 -0.0982 -0.1894 -0.7439
11608SOL     OW38228   7.712  10.030   8.245  0.5834  0.5817  0.7404
11608SOL    HW138229   7.751   9.955   8.201 -0.1179  0.2135  0.7408
11608SOL    HW238230   7.701  10.002   8.336 -0.6384  0.2996  0.5206
11609SOL     OW38231   0.310   0.156   2.547 -0.1218 -0.0978 -0.0785
11609SOL    HW138232   0.362   0.207   2.486  0.9625 -0.4985  0.4941
11609SOL    HW238233   0.361   0.156   2.628 -1.3550  0.1033  0.7121
11610SOL     OW38234  10.425   6.533   0.776 -0.5204 -0.6569  0.5868
11610SOL    HW138235  10.472   6.471   0.720 -0.0649  0.6427 -0.4892
11610SOL    HW238236  10.333   6.520   0.754 -0.5099 -1.6752  1.1198
11611SOL     OW38237   4.307   7.888   3.059 -0.2875  0.3306  0.3246
11611SOL    HW138238   4.298   7.862   2.967 -1.7021  1.9322 -0.0386
11611SOL    HW238239   4.226   7.859   3.100  0.6465 -1.0091  1.2452
11612SOL     OW38240   7.247   5.645   1.139  0.4230  0.6579 -0.6060
11612SOL    HW138241   7.173   5.675   1.192  1.4083  1.1978  0.5054
11612SOL    HW238242   7.257   5.712   1.071 -0.2299  0.4774 -0.8823
11613SOL     OW38243   6.795   6.503   4.332  0.1885  0.1274  0.1412
11613SOL    HW138244   6.794   6.424   4.278 -0.5847  0.2206  0.0124
11613SOL    HW238245   6.877   6.546   4.311 -0.4487  0.5511 -1.5184
11614SOL     OW38246   7.738   6.166   8.092 -0.1578  0.6260  0.4506
11614SOL    HW138247   7.804   6.129   8.150 -0.0372 -1.5348 -1.0013
11614SOL    HW238248   7.784   6.179   8.009 -1.0698  0.8764 -0.0212
11615SOL     OW38249   5.156   8.923   6.124 -0.1743  0.1843 -0.4819
11615SOL    HW138250   5.210   8.876   6.187 -0.0102  2.4761  1.1625
11615SOL    HW238251   5.171   8.878   6.041  0.2293 -2.4005  0.9499
11616SOL     OW38252   2.578   4.962   4.179  0.3452 -0.3175 -0.1746
11616SOL    HW138253   2.561   4.946   4.272 -0.7500 -0.3069 -0.3610
11616SOL    HW238254   2.661   4.918   4.162 -0.4012 -1.9899  0.3645
11617SOL     OW38255   7.778   6.526   0.122 -0.3082  0.7680  0.1526
11617SOL    HW138256   7.870   6.552   0.120 -0.0233 -0.2665 -1.0610
11617SOL    HW238257   7.778   6.435   0.093 -1.4947  0.0322  2.3387
11618SOL     OW38258   9.709   1.188   0.617 -0.3398 -0.0922 -0.2823
11618SOL    HW138259   9.672   1.233   0.540  1.0549  1.0654 -0.3217
11618SOL    HW238260   9.764   1.255   0.658 -1.1136 -0.6965  1.7647
11619SOL     OW38261   5.591   7.471  10.572 -0.5329 -0.2238 -0.8143
11619SOL    HW138262   5.666   7.476  10.512  0.9529 -0.6316  0.9362
11619SOL    HW238263   5.607   7.390  10.621 -2.1012 -0.2606 -0.3699
11620SOL     OW38264   9.353   1.504   4.321 -0.1944 -0.3099 -0.1613
11620SOL    HW138265   9.364   1.576   4.383 -0.2597 -2.3788  2.3307
11620SOL    HW238266   9.442   1.471   4.306  0.0487  1.4167 -2.7372
11621SOL     OW38267   2.162   4.453   1.963  0.0219 -0.2078 -0.6336
11621SOL    HW138268   2.092   4.460   2.028  1.5059 -1.2250  1.1227
11621SOL    HW238269   2.122   4.406   1.890 -0.6026 -2.5293  1.1445
11622SOL     OW38270  10.729   4.084   4.483  0.2687  0.1092  0.2254
11622SOL    HW138271  10.667   4.093   4.410  1.0495  2.2863 -0.2288
11622SOL    HW238272  10.751   3.991   4.485 -3.1035 -0.7623  0.4986
11623SOL     OW38273   0.300   9.269   5.145 -0.2114 -0.1523  0.1393
11623SOL    HW138274   0.220   9.230   5.178  1.7998 -3.0789  1.8003
11623SOL    HW238275   0.299   9.250   5.051 -1.1765 -0.6554  0.2498
11624SOL     OW38276   3.671   6.719   5.606 -0.3930  0.0972  0.1362
11624SOL    HW138277   3.607   6.649   5.612 -0.7202  0.5710  2.7680
11624SOL    HW238278   3.751   6.681   5.644  0.4915 -0.0394 -1.8319
11625SOL     OW38279   4.391   6.505   9.187 -0.0530 -0.4746 -0.1358
11625SOL    HW138280   4.307   6.463   9.205 -1.2553  1.5025 -1.0341
11625SOL    HW238281   4.380   6.595   9.217  1.6436 -0.1182 -0.5398
11626SOL     OW38282   3.538   3.275   5.483  0.0183 -0.2358  0.8665
11626SOL    HW138283   3.631   3.297   5.483  0.1450 -0.6428 -1.2369
11626SOL    HW238284   3.535   3.182   5.462 -0.8450 -0.3811  1.5966
11627SOL     OW38285   4.135   5.772   7.979  0.0385 -0.1056  0.3175
11627SOL    HW138286   4.192   5.826   7.924 -1.0812  1.5498  0.7429
11627SOL    HW238287   4.179   5.686   7.982  0.4665 -0.0235 -2.5379
11628SOL     OW38288   2.376   8.797   1.655 -0.1413  0.1135  0.1396
11628SOL    HW138289   2.372   8.707   1.621 -0.7114  0.6343 -1.1529
11628SOL    HW238290   2.436   8.790   1.730 -0.6961 -1.4740  0.4685
11629SOL     OW38291   0.806   5.262   5.538 -0.2531  0.1911  0.3644
11629SOL    HW138292   0.767   5.349   5.537  0.9401  0.7650  1.7650
11629SOL    HW238293   0.881   5.270   5.597  1.6202 -1.0422 -1.7871
11630SOL     OW38294   8.636   2.826   9.005 -0.0490 -0.0041 -0.1945
11630SOL    HW138295   8.698   2.781   9.062  0.0852 -0.3358 -0.6009
11630SOL    HW238296   8.550   2.801   9.039  0.0091 -1.4468 -1.1029
11631SOL     OW38297   1.983   2.557   9.388 -0.1055 -0.1570  0.5055
11631SOL    HW138298   2.030   2.484   9.428  0.2853 -0.4063 -0.4091
11631SOL    HW238299   2.039   2.586   9.315  0.4439  1.9770  1.7131
11632SOL     OW38300   1.894   9.219  10.067 -0.6535 -0.2210 -0.0569
11632SOL    HW138301   1.815   9.217  10.012 -1.1031  0.8830  0.5259
11632SOL    HW238302   1.946   9.291  10.031 -0.4773 -0.1616  0.3158
11633SOL     OW38303   5.612  10.030   3.797  0.5322  0.3143  0.1065
11633SOL    HW138304   5.663   9.954   3.824 -1.4401 -0.7891  0.8996
11633SOL    HW238305   5.633  10.097   3.862 -0.2999 -0.6801  1.4417
11634SOL     OW38306   5.781   8.943   9.878 -0.3383 -0.0701 -0.0933
11634SOL    HW138307   5.778   8.900   9.793  2.4720 -0.0055 -0.2549
11634SOL    HW238308   5.749   8.877   9.939  1.1161 -1.3873 -0.7351
11635SOL     OW38309   8.148   6.335   6.406 -0.2820 -0.0764  0.2160
11635SOL    HW138310   8.185   6.410   6.360  1.2205 -1.3071 -0.6281
11635SOL    HW238311   8.060   6.325   6.370  0.5015 -0.3843 -1.6525
11636SOL     OW38312   0.003   9.154   9.277  0.1923 -0.1945 -0.5886
11636SOL    HW138313  -0.080   9.143   9.324 -0.7094  0.5384 -1.9975
11636SOL    HW238314   0.069   9.158   9.346 -0.9019 -1.1207  0.5322
11637SOL     OW38315   1.196   8.581   2.029  0.1688  0.0180  0.2685
11637SOL    HW138316   1.136   8.653   2.010  0.7046  0.4130  0.0458
11637SOL    HW238317   1.204   8.581   2.124  0.0011  0.1134  0.2841
11638SOL     OW38318   3.959   1.830   4.814  0.3224 -0.2235 -0.0151
11638SOL    HW138319   3.997   1.794   4.894 -0.3540  0.2705  0.5286
11638SOL    HW238320   4.029   1.883   4.776  0.8802 -1.0246 -0.1251
11639SOL     OW38321   0.842   3.885   2.504 -0.1368  0.0302  0.6755
11639SOL    HW138322   0.763   3.856   2.551 -0.1836 -0.7427  0.1298
11639SOL    HW238323   0.908   3.897   2.573 -0.9495  1.4594  1.2284
11640SOL     OW38324   5.276   1.886   9.638  0.9229  0.8343 -0.3389
11640SOL    HW138325   5.259   1.888   9.732  0.7197  1.9527 -0.3958
11640SOL    HW238326   5.360   1.840   9.630  0.0540 -0.9041  0.2478
11641SOL     OW38327   7.350   7.176   8.006 -0.3139 -0.2509  0.2288
11641SOL    HW138328   7.446   7.177   8.000 -0.2544 -0.0047  1.1354
11641SOL    HW238329   7.329   7.249   8.065 -1.1237  0.4017 -0.8605
11642SOL     OW38330   9.134   3.355   8.429  0.2852  0.3427  0.3564
11642SOL    HW138331   9.165   3.299   8.358 -1.1893 -0.5877  0.4090
11642SOL    HW238332   9.160   3.308   8.509  0.8326  0.7504  0.4128
11643SOL     OW38333  10.617  10.410   4.941 -0.7435  0.0268 -0.4473
11643SOL    HW138334  10.581  10.323   4.921 -2.0204  0.3105  0.5518
11643SOL    HW238335  10.587  10.428   5.030 -0.6584  1.5889 -0.7277
11644SOL     OW38336   0.380   4.066   2.042 -0.1986 -0.1585 -0.0250
11644SOL    HW138337   0.402   3.976   2.019  0.4405  0.3763 -1.5867
11644SOL    HW238338   0.294   4.060   2.084  0.5460 -1.6652  1.3500
11645SOL     OW38339   2.763   5.415   2.602  0.1717  0.5935 -0.1590
11645SOL    HW138340   2.782   5.390   2.511 -1.0702  0.7452 -0.4782
11645SOL    HW238341   2.847   5.443   2.637  1.0841 -1.4462 -0.6160
11646SOL     OW38342  10.206   3.852   6.821  0.5394 -0.0895  0.5636
11646SOL    HW138343  10.129   3.909   6.821  0.4618 -0.1570 -1.2456
11646SOL    HW238344  10.179   3.774   6.870 -1.8136 -1.6932 -3.0319
11647SOL     OW38345   7.843   1.719   5.840 -0.2913  0.3516  0.7035
11647SOL    HW138346   7.833   1.624   5.851  1.5901  0.1632  0.9000
11647SOL    HW238347   7.753   1.753   5.842 -1.2167 -1.7205 -2.2479
11648SOL     OW38348   8.256   3.183   4.580  0.0199  0.2055 -0.0562
11648SOL    HW138349   8.232   3.248   4.645 -1.8240 -1.7275  1.2810
11648SOL    HW238350   8.209   3.210   4.501  0.0918  1.0558  0.1869
11649SOL     OW38351   2.470   1.750   3.487  0.0405  0.0893 -0.4253
11649SOL    HW138352   2.395   1.707   3.528  0.4312  2.1117  2.5814
11649SOL    HW238353   2.433   1.825   3.441 -0.0130 -0.1765 -0.8184
11650SOL     OW38354   6.753   2.991   6.399 -0.3366 -0.3921  0.2704
11650SOL    HW138355   6.716   3.060   6.344 -1.8492 -0.1318  1.5755
11650SOL    HW238356   6.836   2.968   6.357 -0.8705  0.6771 -1.3974
11651SOL     OW38357   1.854   8.195   4.376 -0.6543  0.1051 -0.1551
11651SOL    HW138358   1.882   8.242   4.454  0.1254  0.9647 -0.9351
11651SOL    HW238359   1.824   8.110   4.408  1.3367 -0.2311  0.8933
11652SOL     OW38360   6.080   4.771   3.894  0.0973 -0.5139 -0.2892
11652SOL    HW138361   6.075   4.679   3.920 -0.1471 -0.5545 -0.4791
11652SOL    HW238362   6.169   4.798   3.917  0.2402 -0.8599 -0.4460
11653SOL     OW38363   5.173   5.028   9.590 -0.1991  0.1487  0.0057
11653SOL    HW138364   5.220   4.945   9.596 -1.3473 -0.4703  0.6623
11653SOL    HW238365   5.195   5.074   9.671  1.3336  0.9819 -0.8653
11654SOL     OW38366   3.394   6.038   0.065  0.0158 -0.2788  0.8890
11654SOL    HW138367   3.324   6.089   0.022  0.5409 -0.8953 -0.7116
11654SOL    HW238368   3.436   6.101   0.124  0.5852  1.1540 -0.9815
11655SOL     OW38369   5.439   5.005   9.487  0.5995  0.3507  0.5682
11655SOL    HW138370   5.437   4.965   9.574 -0.4742  0.0904  0.4350
11655SOL    HW238371   5.384   4.949   9.434  0.8898  0.7640 -0.1765
11656SOL     OW38372   8.058   7.917   9.293  0.5589 -0.6562 -0.6102
11656SOL    HW138373   8.140   7.901   9.340  0.0367 -0.3072  0.4251
11656SOL    HW238374   8.009   7.835   9.302  0.0578 -0.2617  0.2725
11657SOL     OW38375   0.077   8.071  10.513 -0.1796  0.4771  0.2565
11657SOL    HW138376  -0.019   8.074  10.524 -0.4675 -1.5469 -1.5142
11657SOL    HW238377   0.090   8.045  10.422  2.0647 -1.0107  0.9855
11658SOL     OW38378   0.793   4.308   8.312  0.1684 -0.1608 -0.0739
11658SOL    HW138379   0.876   4.264   8.330 -0.8570 -1.2039  2.3544
11658SOL    HW238380   0.745   4.249   8.255 -0.2590 -1.1575  1.2920
11659SOL     OW38381  10.076   6.094   1.683  0.3486 -0.2811 -0.4432
11659SOL    HW138382  10.020   6.091   1.606 -0.1968 -1.1697 -0.0120
11659SOL    HW238383  10.164   6.076   1.650 -0.0445 -1.7417 -0.7075
11660SOL     OW38384   4.028   1.013   4.461  0.1953  0.3559 -0.0741
11660SOL    HW138385   3.992   1.095   4.429 -1.1631 -0.0471  0.3777
11660SOL    HW238386   4.012   0.951   4.389 -0.5555  0.0442  0.3531
11661SOL     OW38387   3.707   8.239   3.284  0.3439  0.7109 -0.2638
11661SOL    HW138388   3.636   8.270   3.341 -0.5895 -0.7018 -0.6000
11661SOL    HW238389   3.693   8.144   3.281 -0.5982  0.9076 -4.0989
11662SOL     OW38390   0.780   9.531   7.397  0.0406  0.5453  0.1478
11662SOL    HW138391   0.771   9.585   7.318 -1.7568 -0.7662 -0.5752
11662SOL    HW238392   0.769   9.593   7.469 -1.3002  1.2897 -0.6664
11663SOL     OW38393  10.166   4.488   8.185  0.8767 -1.0067  0.0122
11663SOL    HW138394  10.229   4.455   8.120  0.1750  1.5642 -2.0500
11663SOL    HW238395  10.083   4.447   8.161  0.6328 -0.1154 -0.6886
11664SOL     OW38396  10.452   9.687   3.073  0.0689 -0.6044  0.7840
11664SOL    HW138397  10.359   9.664   3.073 -0.1234  0.1629  1.2672
11664SOL    HW238398  10.485   9.655   2.989 -0.2725 -2.3249  1.2802
11665SOL     OW38399  10.313   4.542   5.938 -0.0826 -0.2145 -0.3195
11665SOL    HW138400  10.402   4.529   5.905  0.7851  0.4585  1.6932
11665SOL    HW238401  10.269   4.458   5.923  0.7125 -0.4000 -1.7643
11666SOL     OW38402   1.438   2.476   2.367 -0.2452  0.1087  0.4362
11666SOL    HW138403   1.458   2.455   2.458 -1.6209 -1.0658  0.4864
11666SOL    HW238404   1.352   2.438   2.352 -0.5137  1.2504 -1.0415
11667SOL     OW38405   7.888   0.358   6.073  0.5108 -0.7367 -0.0141
11667SOL    HW138406   7.865   0.290   6.010 -1.6308  0.3635 -0.4891
11667SOL    HW238407   7.979   0.340   6.096  0.9176 -1.9863 -2.3764
11668SOL     OW38408   2.967   3.213   1.473 -0.2076  0.7249  0.1392
11668SOL    HW138409   3.035   3.204   1.406 -0.4788  1.0931 -0.1801
11668SOL    HW238410   2.889   3.240   1.426 -0.2010  1.7474  0.7059
11669SOL     OW38411   6.914   7.106   5.669  0.4440  0.5257  0.3057
11669SOL    HW138412   6.875   7.047   5.605 -1.3578 -0.3514  2.1315
11669SOL    HW238413   6.881   7.192   5.646  0.1535  0.2758 -0.2146
11670SOL     OW38414   8.340  10.053   5.149 -0.3914 -0.0203 -0.0301
11670SOL    HW138415   8.265  10.074   5.092  0.0945 -0.5042 -0.8496
11670SOL    HW238416   8.323   9.964   5.179 -1.6947  0.9634  2.2596
11671SOL     OW38417   1.969   7.464   7.456 -0.1122 -0.1803  0.1259
11671SOL    HW138418   1.972   7.472   7.552 -1.5231 -0.7935  0.2297
11671SOL    HW238419   1.985   7.371   7.440  0.9412  0.0702 -0.2807
11672SOL     OW38420   7.945   4.287   4.147  0.4801  0.1304  0.3827
11672SOL    HW138421   7.972   4.195   4.154 -0.7148 -0.2462  0.2170
11672SOL    HW238422   7.850   4.283   4.133  0.7040  1.3105 -1.7532
11673SOL     OW38423   1.661   7.118   5.888 -0.0749  0.2542 -0.1263
11673SOL    HW138424   1.717   7.189   5.917  1.1170 -0.4503 -0.6820
11673SOL    HW238425   1.610   7.094   5.965  0.5656  0.7310  0.4455
11674SOL     OW38426   0.628   1.925   7.716  0.2711 -0.3128 -0.0200
11674SOL    HW138427   0.607   2.019   7.710  0.4356 -0.2140  0.9053
11674SOL    HW238428   0.682   1.908   7.639  1.3286  0.6529  0.4814
11675SOL     OW38429   7.025   3.262   3.531 -0.0797 -0.0534 -0.7153
11675SOL    HW138430   6.949   3.209   3.556  0.3922 -0.7431 -0.7024
11675SOL    HW238431   7.035   3.326   3.601 -1.5158  0.9708 -1.4360
11676SOL     OW38432   0.978   4.770   1.742 -0.4649 -0.0629 -0.1703
11676SOL    HW138433   1.043   4.832   1.774 -0.9099 -0.1223  0.8665
11676SOL    HW238434   1.015   4.736   1.661  0.3306  0.6607 -0.1121
11677SOL     OW38435   3.317   1.927   4.412 -0.6320  0.4758 -0.2055
11677SOL    HW138436   3.352   1.856   4.467 -0.2847  0.7248 -0.1097
11677SOL    HW238437   3.254   1.883   4.355 -0.9222  0.1982  0.3248
11678SOL     OW38438   4.716   8.672   3.099 -0.1324  0.6059  0.0164
11678SOL    HW138439   4.662   8.750   3.114 -1.1835 -0.3742  1.4990
11678SOL    HW238440   4.772   8.668   3.177 -0.6478 -0.5569  0.3345
11679SOL     OW38441   1.003   6.902   2.358 -0.2526  0.1689 -0.2371
11679SOL    HW138442   1.072   6.866   2.304 -1.2858  0.1236 -1.5473
11679SOL    HW238443   0.965   6.826   2.403  1.0323  0.2832  1.0928
11680SOL     OW38444   1.623  10.844  10.662  0.0183  0.2441 -0.6066
11680SOL    HW138445   1.715  10.817  10.669  0.2037  0.8407 -0.7231
11680SOL    HW238446   1.586  10.786  10.596 -0.0409 -0.9379  0.4598
11681SOL     OW38447  10.297   9.461   4.727 -0.3176  0.0437  0.0644
11681SOL    HW138448  10.366   9.407   4.767  1.1550  2.1860  0.5476
11681SOL    HW238449  10.334   9.487   4.642 -0.1439  1.8824  0.6775
11682SOL     OW38450   3.186   6.743   8.048 -0.6490  0.2997 -0.5068
11682SOL    HW138451   3.211   6.748   8.140  0.8061 -1.0357 -0.8040
11682SOL    HW238452   3.161   6.833   8.025 -0.3346  0.7890  0.9947
11683SOL     OW38453   8.564   2.602  10.177 -0.3666  0.2403 -0.0194
11683SOL    HW138454   8.501   2.545  10.133  0.8850 -0.5875 -0.7776
11683SOL    HW238455   8.623   2.542  10.224  0.4498  0.9328 -0.1356
11684SOL     OW38456  10.076   4.896  10.898 -0.2140 -0.2682  0.1446
11684SOL    HW138457  10.030   4.971  10.861  0.3034 -0.1438 -0.2483
11684SOL    HW238458  10.017   4.822  10.883  0.7577 -0.5568 -2.5713
11685SOL     OW38459   3.692   1.374   3.004  0.3004  0.4806  0.5009
11685SOL    HW138460   3.777   1.331   2.994 -0.8534 -1.6183 -0.8053
11685SOL    HW238461   3.642   1.316   3.061 -1.7749 -0.7751 -2.4458
11686SOL     OW38462   7.206   9.363  10.837 -0.1608  0.3146 -0.2529
11686SOL    HW138463   7.118   9.328  10.847 -0.6163  1.1545 -1.2045
11686SOL    HW238464   7.201   9.451  10.876  0.7439 -0.3179  1.3473
11687SOL     OW38465   7.775   2.567   8.478  0.0560  0.1391  0.1694
11687SOL    HW138466   7.823   2.488   8.505  0.9677  0.5804 -0.1558
11687SOL    HW238467   7.821   2.639   8.522 -0.2280  0.5754 -0.2457
11688SOL     OW38468   2.419  10.584   5.232  0.3328 -0.3607 -0.7613
11688SOL    HW138469   2.353  10.573   5.300  0.8701 -1.1620 -0.3739
11688SOL    HW238470   2.502  10.562   5.274  0.5328 -2.0204 -1.9815
11689SOL     OW38471   7.550  10.549   4.612  0.5252  0.5713  0.0919
11689SOL    HW138472   7.559  10.454   4.618  1.6818  0.6406 -0.4577
11689SOL    HW238473   7.518  10.565   4.523  0.7138  0.7175  0.0492
11690SOL     OW38474   0.087   3.304   7.740  0.0195 -0.2714  0.2979
11690SOL    HW138475   0.076   3.340   7.828  3.3514 -0.2784  0.7673
11690SOL    HW238476   0.133   3.222   7.754 -1.6973 -1.5251 -1.2948
11691SOL     OW38477   5.371   0.384   6.366  0.3237  0.3207  0.2636
11691SOL    HW138478   5.427   0.310   6.344  0.0551 -0.1687  1.1971
11691SOL    HW238479   5.314   0.394   6.290  0.4336 -0.3757  0.0837
11692SOL     OW38480   1.142   6.091   2.156  0.4997 -0.1403  0.4909
11692SOL    HW138481   1.139   6.139   2.239  0.3651 -0.7685  0.8486
11692SOL    HW238482   1.188   6.010   2.177  0.4099 -0.3264 -0.0354
11693SOL     OW38483   3.786  10.365   0.272  0.1969 -0.3357 -0.4856
11693SOL    HW138484   3.808  10.339   0.183 -0.0207 -0.5730 -0.4706
11693SOL    HW238485   3.861  10.339   0.326 -0.1010 -1.0978 -0.4387
11694SOL     OW38486   6.047   7.657   1.154 -0.4350 -0.1491 -0.1621
11694SOL    HW138487   5.988   7.702   1.215 -0.9088 -1.7554  0.5811
11694SOL    HW238488   6.021   7.688   1.068 -0.8613  0.8722  0.3307
11695SOL     OW38489   9.410   6.610   9.191 -0.1011 -0.1829  0.1309
11695SOL    HW138490   9.387   6.522   9.161 -1.1772  1.0333 -2.7531
11695SOL    HW238491   9.326   6.653   9.208  0.3168  1.0498 -0.8332
11696SOL     OW38492   2.059   8.814   3.839 -0.0651 -0.0521 -0.3898
11696SOL    HW138493   2.098   8.872   3.904 -1.5866 -1.4907  1.8681
11696SOL    HW238494   2.122   8.742   3.830  0.0668  0.0624 -0.3775
11697SOL     OW38495   9.483   1.710   7.377  0.7184  0.3581 -0.8322
11697SOL    HW138496   9.555   1.691   7.316  0.2861  0.2941 -1.3229
11697SOL    HW238497   9.489   1.805   7.392  1.9329  0.0917  0.4313
11698SOL     OW38498  10.848   1.309  10.498  0.1495  0.6735 -0.2000
11698SOL    HW138499  10.811   1.393  10.472 -0.1730 -0.4142 -3.6250
11698SOL    HW238500  10.781   1.269  10.553 -0.2259  2.1298  0.4103
11699SOL     OW38501   0.325  10.328   5.438 -0.0327 -0.5446  0.6554
11699SOL    HW138502   0.291  10.417   5.442 -1.6106 -1.0949  0.0413
11699SOL    HW238503   0.318  10.303   5.346  1.6861 -0.8237  0.5895
11700SOL     OW38504  10.687   0.398   2.144 -0.3709  0.5419 -0.2941
11700SOL    HW138505  10.763   0.455   2.159  0.3955 -0.7097  0.6633
11700SOL    HW238506  10.679   0.393   2.049  0.0236  1.6282 -0.3886
11701SOL     OW38507   7.536   9.425   0.194 -0.2668 -0.2424 -0.0258
11701SOL    HW138508   7.596   9.411   0.267  1.5257 -0.4407 -1.4771
11701SOL    HW238509   7.567   9.506   0.153 -1.0918 -0.2603 -0.6881
11702SOL     OW38510   7.955  10.542   3.368 -0.5857  0.7895 -0.0786
11702SOL    HW138511   7.887  10.583   3.421 -2.1469 -1.4982 -0.2454
11702SOL    HW238512   7.925  10.453   3.354  2.9507 -0.6083  0.6653
11703SOL     OW38513   9.281   5.032   2.144 -0.7667 -0.1639 -0.3616
11703SOL    HW138514   9.347   4.976   2.184 -0.8290  0.6760  0.9443
11703SOL    HW238515   9.265   4.992   2.058  2.1027  0.1560 -1.0878
11704SOL     OW38516   2.163  10.582  10.234  0.2563 -0.2928 -0.1537
11704SOL    HW138517   2.091  10.610  10.292  0.4746  0.6034 -0.3115
11704SOL    HW238518   2.148  10.488  10.222 -1.2555  0.0058 -0.7035
11705SOL     OW38519   8.389   1.420   5.218  0.2903 -0.1698 -0.2759
11705SOL    HW138520   8.439   1.390   5.294  0.4826  0.1255 -0.2849
11705SOL    HW238521   8.298   1.409   5.244  0.3568 -1.9693 -0.7571
11706SOL     OW38522   3.927   3.258   4.121  0.1037  0.0830  0.1884
11706SOL    HW138523   4.013   3.279   4.159  0.4920 -0.7746 -0.2098
11706SOL    HW238524   3.875   3.225   4.195  1.5210 -3.5973 -0.3611
11707SOL     OW38525   3.065   1.664   1.693  0.6487  0.3328  0.2078
11707SOL    HW138526   3.080   1.570   1.704 -0.3301  0.1820  0.3305
11707SOL    HW238527   3.061   1.677   1.598  0.9545  0.2807  0.1870
11708SOL     OW38528   6.683   3.028   5.851  0.0987  0.6515 -0.6481
11708SOL    HW138529   6.730   2.970   5.791 -0.8220 -2.1270  1.2326
11708SOL    HW238530   6.604   3.052   5.803  1.5257  2.2247 -2.3077
11709SOL     OW38531   8.149   5.459  10.855  0.5354  0.0384  0.0750
11709SOL    HW138532   8.057   5.467  10.882  0.3152 -0.9914 -0.3183
11709SOL    HW238533   8.173   5.370  10.879  1.1367 -0.0148 -0.6883
11710SOL     OW38534   7.326   6.181   5.245  0.0269 -0.2343 -0.6417
11710SOL    HW138535   7.274   6.112   5.286  0.9029 -2.0562 -2.4904
11710SOL    HW238536   7.261   6.246   5.216 -0.6329  0.9063  3.1063
11711SOL     OW38537  10.725   7.613   2.142  0.0548  0.2584 -0.1865
11711SOL    HW138538  10.785   7.603   2.216 -0.3227 -1.6214 -0.1137
11711SOL    HW238539  10.734   7.531   2.093 -0.3480  1.1197 -1.7547
11712SOL     OW38540   0.745   5.313   3.889  0.2857 -0.3839 -0.2593
11712SOL    HW138541   0.802   5.277   3.956  1.1521 -2.9211 -2.2779
11712SOL    HW238542   0.664   5.263   3.896  0.6815 -1.2527 -1.5948
11713SOL     OW38543  10.464   8.798   2.778  0.4799 -0.0345 -0.7754
11713SOL    HW138544  10.502   8.867   2.724 -0.3038 -0.0772 -1.3971
11713SOL    HW238545  10.529   8.727   2.776  1.6150  0.9480  0.4682
11714SOL     OW38546   7.776   0.505   4.104  0.2643 -0.0415 -0.5661
11714SOL    HW138547   7.729   0.444   4.162  1.3375 -1.3538 -1.0270
11714SOL    HW238548   7.869   0.487   4.122  0.5876  1.2925 -0.9014
11715SOL     OW38549   2.289  10.846   1.418  0.3789  0.1890  0.3997
11715SOL    HW138550   2.285  10.875   1.509  1.2174  1.4713  0.0457
11715SOL    HW238551   2.356  10.902   1.378  0.0351 -0.3767 -0.9976
11716SOL     OW38552   4.480   6.714   3.323  0.1562 -0.6614  0.3456
11716SOL    HW138553   4.461   6.700   3.416  0.7671  0.3364  0.6286
11716SOL    HW238554   4.493   6.626   3.288  0.4665 -1.0209  1.3327
11717SOL     OW38555   6.122   4.424   2.041 -0.1866  0.0007 -0.2540
11717SOL    HW138556   6.099   4.458   1.954  0.9712 -0.6610 -0.8251
11717SOL    HW238557   6.039   4.390   2.076 -0.4659 -0.6321 -1.5037
11718SOL     OW38558  10.160   5.559   4.415  0.1776  0.5171 -0.7034
11718SOL    HW138559  10.163   5.650   4.443  1.0131  0.7775 -1.6164
11718SOL    HW238560  10.100   5.517   4.477 -1.3324  1.9799 -1.1310
11719SOL     OW38561   3.763   6.225  10.578  0.0237  0.1080 -0.3230
11719SOL    HW138562   3.725   6.312  10.568  1.3319  0.6816 -0.4607
11719SOL    HW238563   3.740   6.198  10.667 -0.4034  0.5801 -0.2905
11720SOL     OW38564   4.920   0.629  10.669  0.2320 -0.1000 -0.3284
11720SOL    HW138565   4.885   0.681  10.742  1.1676  0.6650 -0.4187
11720SOL    HW238566   4.912   0.686  10.593  0.3082 -0.4852 -0.6282
11721SOL     OW38567   9.682   8.732   9.070 -0.0637 -0.3175  0.3850
11721SOL    HW138568   9.750   8.665   9.073  0.3814  0.1164  0.0926
11721SOL    HW238569   9.691   8.778   9.153  0.3897  0.1153  0.1005
11722SOL     OW38570   8.288   1.706   3.874 -0.0731 -0.0275  0.2500
11722SOL    HW138571   8.274   1.777   3.937 -3.2723  0.6140 -1.0690
11722SOL    HW238572   8.230   1.636   3.904  0.2432 -0.6364 -0.5719
11723SOL     OW38573   5.963   5.227   4.533  0.5834  0.3412  0.0709
11723SOL    HW138574   6.002   5.139   4.538 -0.6116 -0.2619 -1.1092
11723SOL    HW238575   6.022   5.276   4.477  1.5795  0.4893  1.2121
11724SOL     OW38576   2.768   6.584   1.859  0.3744  0.0823 -0.1468
11724SOL    HW138577   2.720   6.580   1.942  0.2087  1.0956 -0.1908
11724SOL    HW238578   2.754   6.673   1.828  1.9293  0.2616 -0.3700
11725SOL     OW38579   6.261   3.051   4.105 -0.0198 -0.0136  0.4011
11725SOL    HW138580   6.250   3.077   4.013 -3.1821 -1.8238  0.2013
11725SOL    HW238581   6.214   3.117   4.155  2.1600  1.2774  0.8167
11726SOL     OW38582  10.556   2.422   4.910  0.5045 -0.4437 -0.6694
11726SOL    HW138583  10.489   2.355   4.924  1.2706 -1.1945 -0.5698
11726SOL    HW238584  10.592   2.438   4.998  1.2872 -0.9246 -0.8975
11727SOL     OW38585   7.955   9.083   6.406  0.0919  0.9235  0.2213
11727SOL    HW138586   7.925   9.125   6.486 -0.9352  0.3037  0.1661
11727SOL    HW238587   8.048   9.103   6.402  0.5687 -0.5934  2.5498
11728SOL     OW38588   9.657   2.733  10.844 -0.2077 -0.2231 -0.0702
11728SOL    HW138589   9.680   2.801  10.908  0.1489 -0.1999 -0.2217
11728SOL    HW238590   9.570   2.703  10.871  0.4930 -1.1276  1.2024
11729SOL     OW38591   1.906   0.453   1.496  0.1563  0.2664  0.0152
11729SOL    HW138592   1.814   0.451   1.470  0.1755  0.2615 -0.0533
11729SOL    HW238593   1.947   0.385   1.441 -0.1083 -0.8908  1.2126
11730SOL     OW38594   8.123  10.109   1.977  0.3494  0.1804  0.0395
11730SOL    HW138595   8.171  10.032   2.008  0.6597  0.4172  0.1551
11730SOL    HW238596   8.188  10.159   1.928  0.2488  0.5566  0.2893
11731SOL     OW38597   1.537   4.172   0.622 -0.1429  0.1456 -0.5206
11731SOL    HW138598   1.567   4.259   0.648  0.5361 -0.0257 -0.7159
11731SOL    HW238599   1.442   4.180   0.615 -0.0727  0.8997 -0.6422
11732SOL     OW38600  10.245   9.303   4.467 -1.0041 -0.8880 -0.0658
11732SOL    HW138601  10.261   9.212   4.493 -0.1941 -1.1051 -1.2974
11732SOL    HW238602  10.332   9.340   4.452 -1.3106  0.2463  0.9289
11733SOL     OW38603   7.084   0.045   7.331  0.2348 -0.5489 -0.7620
11733SOL    HW138604   7.048   0.017   7.415  3.0780  0.4440  0.8860
11733SOL    HW238605   7.130  -0.033   7.298 -0.5153 -0.8127 -1.1825
11734SOL     OW38606   2.721   5.317   5.321  0.2830 -0.1204 -0.2276
11734SOL    HW138607   2.751   5.228   5.305 -2.7544 -0.9931 -1.4066
11734SOL    HW238608   2.731   5.362   5.237 -0.4986 -0.0888 -0.3130
11735SOL     OW38609   7.507   2.197   0.457  0.0004 -0.4285 -0.4710
11735SOL    HW138610   7.541   2.164   0.540  0.0480 -1.6347 -0.9569
11735SOL    HW238611   7.542   2.286   0.450 -0.6092 -0.0592  1.1411
11736SOL     OW38612  10.218   0.092   7.106 -0.4936  1.1359 -0.4684
11736SOL    HW138613  10.261   0.133   7.181  0.1123  0.6088 -0.5221
11736SOL    HW238614  10.126   0.088   7.130 -0.1992  0.2753  0.5758
11737SOL     OW38615   8.705   3.754   6.755 -0.1617  0.0522  0.0948
11737SOL    HW138616   8.624   3.799   6.734 -0.5586 -0.4422  0.5327
11737SOL    HW238617   8.685   3.661   6.742 -0.2632 -0.2370  2.0370
11738SOL     OW38618   9.851   1.659   9.275  0.5854 -0.4358 -0.2091
11738SOL    HW138619   9.815   1.667   9.187  1.3639 -0.1417 -0.5012
11738SOL    HW238620   9.934   1.613   9.264  1.3451  0.8149  0.1953
11739SOL     OW38621   3.993   3.230   1.232 -0.2313 -0.8174  0.2529
11739SOL    HW138622   3.906   3.258   1.205  0.3443  1.5053  0.6810
11739SOL    HW238623   4.053   3.274   1.172  0.6981 -1.8851  0.3639
11740SOL     OW38624  10.566   9.161   2.187  0.2597 -0.1668 -0.3854
11740SOL    HW138625  10.536   9.075   2.157  0.0967 -1.3012  2.8591
11740SOL    HW238626  10.509   9.181   2.262  1.4997  1.9309  0.0229
11741SOL     OW38627   4.458   1.173   2.200  0.4524 -0.4356  0.7285
11741SOL    HW138628   4.385   1.165   2.262 -0.5601 -1.6262 -0.5882
11741SOL    HW238629   4.535   1.146   2.250 -0.2806 -0.9417  1.5991
11742SOL     OW38630   2.054   8.713   8.035  0.3266 -0.2694  0.1887
11742SOL    HW138631   2.094   8.743   8.117  0.8360 -0.2912 -0.0477
11742SOL    HW238632   2.025   8.624   8.053 -0.2643  0.0021  0.5828
11743SOL     OW38633   3.361   6.591   3.839  1.0325 -0.5107 -0.1531
11743SOL    HW138634   3.306   6.662   3.873 -0.7943 -1.6307 -0.6813
11743SOL    HW238635   3.393   6.546   3.918  1.6005  0.4465  0.1681
11744SOL     OW38636   5.336   4.496   9.050 -0.2810  0.0851  0.7458
11744SOL    HW138637   5.421   4.474   9.011 -0.0040 -1.0446  1.9372
11744SOL    HW238638   5.346   4.587   9.079  0.4072  0.0690  0.5708
11745SOL     OW38639   7.884   4.822   0.623 -0.7011  0.5477 -0.2833
11745SOL    HW138640   7.908   4.732   0.647 -1.0459  0.5630  0.1330
11745SOL    HW238641   7.965   4.872   0.630 -0.6244  0.3777  0.0314
11746SOL     OW38642   6.183   8.795   8.662 -0.4931 -0.2301  0.3066
11746SOL    HW138643   6.133   8.835   8.733  0.2854 -0.8748  1.2253
11746SOL    HW238644   6.142   8.829   8.582 -1.1748  0.7429  1.0575
11747SOL     OW38645   3.425   7.958   8.257  0.8702  0.1908  0.4086
11747SOL    HW138646   3.391   7.917   8.337  0.9411  0.7671  0.7363
11747SOL    HW238647   3.427   7.887   8.193  0.5237 -0.2043  0.8332
11748SOL     OW38648  10.162   0.502   6.369  0.0343 -0.1935 -0.0389
11748SOL    HW138649  10.161   0.447   6.448  0.1238 -2.4125 -1.5199
11748SOL    HW238650  10.074   0.536   6.362  0.2801  0.8242  1.5492
11749SOL     OW38651   4.518   9.288   3.237  0.0123 -0.0612  0.1422
11749SOL    HW138652   4.527   9.318   3.328  2.4809 -1.0879  0.2657
11749SOL    HW238653   4.424   9.269   3.227 -0.5623  1.6317  1.9492
11750SOL     OW38654   2.057   7.602   9.086 -0.2608  0.0849 -0.2346
11750SOL    HW138655   1.966   7.572   9.092 -0.8701  1.5998 -1.5435
11750SOL    HW238656   2.052   7.696   9.104  1.3503 -0.1976  1.8431
11751SOL     OW38657   6.995   5.954   4.558 -0.1038 -0.2084  0.1819
11751SOL    HW138658   7.042   6.010   4.495  0.8580 -2.1363 -0.8553
11751SOL    HW238659   7.063   5.922   4.616 -0.4055 -1.5735 -0.2122
11752SOL     OW38660   0.535   4.552   1.362 -0.5134 -0.2486  0.0660
11752SOL    HW138661   0.508   4.464   1.388 -0.7329 -0.4780 -0.9196
11752SOL    HW238662   0.544   4.599   1.445  0.8638 -1.5476  0.7064
11753SOL     OW38663   4.485   0.281   5.754  0.5216  0.0257  0.4361
11753SOL    HW138664   4.534   0.219   5.698 -0.2994  0.8615 -1.2379
11753SOL    HW238665   4.539   0.289   5.832  1.2288 -1.9232  0.1841
11754SOL     OW38666  10.834  10.756  10.709  0.3480  0.1124  0.1321
11754SOL    HW138667  10.770  10.827  10.701  0.7536  0.4987  0.3515
11754SOL    HW238668  10.902  10.777  10.645  0.5330 -0.0143  0.2873
11755SOL     OW38669   5.353   5.497   9.986 -0.5467  0.6249 -0.1588
11755SOL    HW138670   5.437   5.477  10.026 -0.4622 -0.2269 -0.7480
11755SOL    HW238671   5.362   5.587   9.955 -0.0243  0.6975  0.1939
11756SOL     OW38672   1.838   2.572   2.987  0.2048  0.0662  0.2596
11756SOL    HW138673   1.749   2.536   2.987  0.2318 -0.0416 -1.0843
11756SOL    HW238674   1.894   2.495   2.999  0.2419 -0.3511 -2.1828
11757SOL     OW38675   0.237   0.971   7.433  0.2375 -0.2094 -0.0877
11757SOL    HW138676   0.195   1.051   7.464 -0.3261 -1.0100  1.2583
11757SOL    HW238677   0.321   1.000   7.397 -0.2908  1.0710 -0.2914
11758SOL     OW38678   3.822   0.390   3.081 -0.0404  0.1117  0.1892
11758SOL    HW138679   3.905   0.365   3.043  0.3892  1.8202 -0.0090
11758SOL    HW238680   3.813   0.333   3.158  1.7628  0.5765  0.7630
11759SOL     OW38681   6.444   7.714   3.480 -0.2815  0.1117  0.6447
11759SOL    HW138682   6.353   7.703   3.453  0.1782 -1.3634 -0.3962
11759SOL    HW238683   6.494   7.701   3.400  1.0319 -2.5383  1.8305
11760SOL     OW38684   7.004   0.119   2.261 -0.0918 -0.7864 -0.0273
11760SOL    HW138685   7.076   0.182   2.266  0.8706 -1.9924  1.7711
11760SOL    HW238686   7.000   0.095   2.169 -0.6282  2.0660 -0.7914
11761SOL     OW38687   6.322   2.147   9.244 -0.2895 -0.4093  0.4215
11761SOL    HW138688   6.397   2.181   9.195 -0.9057  0.1057 -0.1539
11761SOL    HW238689   6.247   2.161   9.187 -0.6416 -2.1831  0.4238
11762SOL     OW38690   5.845   9.555  10.035  0.2724 -0.1002 -0.4980
11762SOL    HW138691   5.932   9.520  10.014  1.3731  3.1003 -1.6173
11762SOL    HW238692   5.815   9.501  10.108  3.2640 -1.2053  0.0181
11763SOL     OW38693   9.533   0.023   8.569 -0.5237  0.2801  0.2663
11763SOL    HW138694   9.609   0.066   8.607 -1.5210  1.4706  0.9422
11763SOL    HW238695   9.547   0.028   8.474 -0.7165  2.3070  0.3233
11764SOL     OW38696   6.619   6.155   7.789  0.3901  0.2313  0.5656
11764SOL    HW138697   6.693   6.173   7.731 -0.4111 -1.5608 -1.0561
11764SOL    HW238698   6.552   6.218   7.761 -0.2139 -1.0337 -0.9210
11765SOL     OW38699   1.903   7.678   2.133 -0.4145 -0.1493 -0.1378
11765SOL    HW138700   1.986   7.663   2.177 -0.0559 -0.0497 -0.7716
11765SOL    HW238701   1.889   7.599   2.080 -0.7821 -0.2180  0.0601
11766SOL     OW38702   1.017   6.736   9.457  0.2211 -0.1970 -0.1615
11766SOL    HW138703   0.953   6.686   9.507  1.3890 -0.2650  1.2702
11766SOL    HW238704   0.987   6.729   9.366 -1.0383 -1.3573  0.3388
11767SOL     OW38705   7.107   6.647   5.832 -0.7174 -0.2909 -0.2986
11767SOL    HW138706   7.182   6.600   5.795 -0.0928 -0.2343  0.8884
11767SOL    HW238707   7.040   6.580   5.842 -0.2782 -0.6611  0.1528
11768SOL     OW38708   3.149   8.177   0.891  0.0207 -0.0444  0.1860
11768SOL    HW138709   3.140   8.158   0.985  0.0700 -0.2417  0.1517
11768SOL    HW238710   3.151   8.091   0.849  0.7272  0.0274  0.0704
11769SOL     OW38711   2.560   6.645   7.727  0.4656  0.0860  0.2462
11769SOL    HW138712   2.543   6.707   7.798  0.4321  0.1226  0.2070
11769SOL    HW238713   2.485   6.585   7.729 -0.0537  0.6907 -0.4020
11770SOL     OW38714   4.441   3.183   0.096  0.6472  0.0972  0.6101
11770SOL    HW138715   4.386   3.186   0.018 -1.1464  1.1631  1.8618
11770SOL    HW238716   4.483   3.269   0.099  1.3895 -0.2541  0.3552
11771SOL     OW38717   9.742   8.421   2.384  0.0478 -0.7339 -0.1518
11771SOL    HW138718   9.668   8.366   2.359 -0.3012  0.3459 -1.5557
11771SOL    HW238719   9.813   8.393   2.327  0.3297 -0.7989  0.2249
11772SOL     OW38720   6.058   1.332   2.820  0.0462  0.3018 -0.2792
11772SOL    HW138721   6.081   1.282   2.741  0.7967 -0.6169  0.5205
11772SOL    HW238722   6.082   1.275   2.893 -1.9008  0.5967  0.6151
11773SOL     OW38723   6.463   3.112   8.707  0.7007  0.3568 -0.8494
11773SOL    HW138724   6.504   3.132   8.791  2.4344 -0.0750 -1.5542
11773SOL    HW238725   6.381   3.161   8.707  1.4523  1.6422  0.4214
11774SOL     OW38726   5.221   4.525   5.693 -0.6327  0.0567 -0.4235
11774SOL    HW138727   5.208   4.431   5.703 -0.4203 -0.0577 -1.1819
11774SOL    HW238728   5.296   4.545   5.750 -0.3529 -0.3226 -0.6583
11775SOL     OW38729   8.036   6.389   8.410  0.3690 -0.2574  0.1732
11775SOL    HW138730   7.970   6.320   8.398  0.2683  0.2305 -2.3395
11775SOL    HW238731   7.989   6.470   8.392  0.7430  0.3975  2.1210
11776SOL     OW38732   5.557   6.979   5.050  0.3246  0.2244 -0.0977
11776SOL    HW138733   5.510   6.987   4.967 -0.7971 -1.9942  0.2873
11776SOL    HW238734   5.514   7.041   5.108 -0.9803 -0.5149 -0.2630
11777SOL     OW38735   1.511  10.025   9.816  0.2372 -0.5730 -0.2948
11777SOL    HW138736   1.543   9.935   9.822 -0.6985 -1.0089 -1.5144
11777SOL    HW238737   1.475  10.031   9.727 -1.6391  0.3746  0.5162
11778SOL     OW38738   4.848   9.979   4.496 -0.0416  0.0924 -0.4996
11778SOL    HW138739   4.907  10.004   4.567  0.4528  0.3748 -1.0037
11778SOL    HW238740   4.857   9.884   4.490 -0.8883 -0.0654  0.5120
11779SOL     OW38741   6.252   0.993   9.271  0.2474 -0.0064  0.1031
11779SOL    HW138742   6.328   1.042   9.303  0.1977 -0.5061  1.0058
11779SOL    HW238743   6.275   0.901   9.283 -0.8554 -0.1515  1.2382
11780SOL     OW38744   7.380   9.282   9.492 -0.2524  0.1149 -0.2520
11780SOL    HW138745   7.461   9.306   9.446 -0.9695 -2.0158 -2.7134
11780SOL    HW238746   7.366   9.355   9.553  2.6347  1.3140 -0.9035
11781SOL     OW38747   3.176   6.550   7.127 -0.4378 -0.8966 -0.0706
11781SOL    HW138748   3.235   6.474   7.124 -0.1663 -0.6416 -1.5072
11781SOL    HW238749   3.159   6.571   7.035 -1.4994  0.0281  0.3244
11782SOL     OW38750   3.344   1.886   4.733  0.4330  0.9514  0.5930
11782SOL    HW138751   3.280   1.846   4.792  0.9390  0.7397  1.0020
11782SOL    HW238752   3.349   1.977   4.762  0.0842  1.0520  0.3520
11783SOL     OW38753   7.012   2.800   3.235 -0.6028 -0.3882  0.2792
11783SOL    HW138754   7.013   2.891   3.264 -0.0991 -0.4189  0.3757
11783SOL    HW238755   6.998   2.805   3.140 -0.2675 -0.1912  0.2377
11784SOL     OW38756   8.804   0.147   4.090 -0.2103  0.0564 -0.2317
11784SOL    HW138757   8.816   0.158   4.184  0.2471 -0.8563 -0.1760
11784SOL    HW238758   8.749   0.069   4.081  0.7066 -0.5445 -0.7476
11785SOL     OW38759   0.779   4.660   9.443  0.1211  0.1068  0.1167
11785SOL    HW138760   0.743   4.577   9.411 -0.0502  0.4083 -0.4857
11785SOL    HW238761   0.751   4.725   9.378 -2.0849  1.1163  1.9715
11786SOL     OW38762   1.518   5.171   1.205  0.9079  0.0168  0.3549
11786SOL    HW138763   1.434   5.191   1.164  1.5532 -0.8980 -1.4814
11786SOL    HW238764   1.531   5.078   1.188  1.2128 -0.3693  2.6521
11787SOL     OW38765   3.581   1.693  10.671 -0.5251 -0.3248  0.0777
11787SOL    HW138766   3.604   1.786  10.666  2.3267 -0.9127  1.1268
11787SOL    HW238767   3.544   1.672  10.585  1.6106  1.0980 -1.2439
11788SOL     OW38768   6.013   8.158   4.414 -0.8500  0.0698  0.2310
11788SOL    HW138769   6.084   8.222   4.422 -0.6194 -0.0782 -0.5434
11788SOL    HW238770   5.940   8.208   4.378 -0.3516 -0.3025 -1.3597
11789SOL     OW38771   0.590   5.297   5.220  0.3125  0.6041 -0.2700
11789SOL    HW138772   0.584   5.252   5.304 -0.0180 -0.3002 -0.7815
11789SOL    HW238773   0.601   5.389   5.244  2.0886  0.1464  0.7933
11790SOL     OW38774   0.657   1.311   9.852  1.1769 -0.6540  0.6520
11790SOL    HW138775   0.650   1.242   9.918 -1.1745 -0.8416  0.2565
11790SOL    HW238776   0.691   1.386   9.901  0.4449 -1.0923  1.8737
11791SOL     OW38777  10.013   4.044   6.361  0.7744  0.3939  0.4230
11791SOL    HW138778   9.957   4.092   6.421 -0.1916  0.0882 -0.2164
11791SOL    HW238779  10.101   4.051   6.398  0.3336  1.0021  1.3540
11792SOL     OW38780   2.199   6.085   8.082 -0.1048 -0.4631 -0.1952
11792SOL    HW138781   2.184   6.111   8.174 -1.0951 -1.7976  0.0226
11792SOL    HW238782   2.279   6.132   8.058  0.7938 -0.9436  1.7051
11793SOL     OW38783   2.616   8.146   5.985  0.3100 -0.4511 -0.0351
11793SOL    HW138784   2.699   8.100   5.977 -1.0535 -2.5465 -3.2342
11793SOL    HW238785   2.637   8.237   5.962  1.7374 -0.9460 -0.7691
11794SOL     OW38786   0.619   4.533   9.018  0.1174 -0.2085  0.2668
11794SOL    HW138787   0.591   4.456   8.969  1.7679 -0.6811  0.0286
11794SOL    HW238788   0.673   4.582   8.956  0.9001 -0.0039  1.0972
11795SOL     OW38789   6.492   6.070   6.181  0.1241 -0.6125 -0.3304
11795SOL    HW138790   6.549   6.120   6.240  0.7664 -0.3055 -1.2120
11795SOL    HW238791   6.500   6.114   6.097 -0.4131 -1.3532 -0.7678
11796SOL     OW38792   7.874   2.719   6.367  0.1319 -0.3321  0.3361
11796SOL    HW138793   7.926   2.798   6.353  0.2524 -0.3449  0.7085
11796SOL    HW238794   7.879   2.672   6.284  0.5356 -0.2287  0.3016
11797SOL     OW38795   8.500   9.512   0.545 -0.0201 -0.5639  0.2689
11797SOL    HW138796   8.427   9.540   0.601 -0.3283 -0.2118 -0.3157
11797SOL    HW238797   8.464   9.441   0.493  0.1656 -0.6435  0.2480
11798SOL     OW38798  10.656   2.253   0.023 -0.6657 -0.0051 -0.5541
11798SOL    HW138799  10.644   2.159   0.038  0.2685 -0.1250 -0.5212
11798SOL    HW238800  10.567   2.289   0.024 -0.9281 -0.6364  1.1233
11799SOL     OW38801   3.707   2.520   4.329 -0.1279 -0.2828  0.2356
11799SOL    HW138802   3.715   2.425   4.319 -2.0035 -0.5609  1.1885
11799SOL    HW238803   3.783   2.546   4.381  0.1778 -1.3156  0.3058
11800SOL     OW38804   0.791   4.762  10.284  0.2233 -0.2271 -0.3384
11800SOL    HW138805   0.764   4.854  10.294  1.7999  0.1668  0.5695
11800SOL    HW238806   0.841   4.761  10.202  0.3438 -0.2359 -0.2649
11801SOL     OW38807   0.189   6.675   1.070  0.3666  0.2955  0.6764
11801SOL    HW138808   0.101   6.694   1.038  0.9808  3.2563  0.6037
11801SOL    HW238809   0.179   6.665   1.164  0.2168  2.7227  0.9554
11802SOL     OW38810  10.926   7.983  10.844 -0.0399 -0.2091  0.2338
11802SOL    HW138811  10.880   8.041  10.905 -0.6360 -1.2840  0.8352
11802SOL    HW238812  11.017   7.984  10.874  0.1515  1.1580 -0.3576
11803SOL     OW38813   4.681   1.067   2.278  0.4284 -0.2258 -0.2313
11803SOL    HW138814   4.756   1.104   2.325 -0.4245  0.3901  0.6691
11803SOL    HW238815   4.720   1.002   2.219  1.7677  0.8319 -0.5336
11804SOL     OW38816   8.787   6.496   3.749  0.2973 -0.3282 -0.6845
11804SOL    HW138817   8.803   6.425   3.811 -0.1870  0.5067  0.4017
11804SOL    HW238818   8.717   6.548   3.789  1.9401  1.8450 -0.5486
11805SOL     OW38819   9.485   1.493   5.558 -0.2075 -0.0960 -0.2277
11805SOL    HW138820   9.407   1.483   5.503  0.2502 -0.3122 -0.8394
11805SOL    HW238821   9.539   1.417   5.537  0.2671  0.1686  0.0412
11806SOL     OW38822   9.690   3.856   2.034 -0.5613 -0.2501  0.1074
11806SOL    HW138823   9.647   3.931   2.075 -0.8223 -0.7305  0.7274
11806SOL    HW238824   9.646   3.847   1.950 -2.3448 -1.3121  1.1310
11807SOL     OW38825   7.758   2.489   0.947 -0.4589  0.5858 -0.0875
11807SOL    HW138826   7.777   2.509   1.039 -1.0622  1.5004 -0.1539
11807SOL    HW238827   7.718   2.569   0.913  0.6306  0.5955 -1.4038
11808SOL     OW38828  10.804   1.638  10.155  0.2821  0.3787  0.0375
11808SOL    HW138829  10.797   1.731  10.179  0.3982  0.2008  0.7766
11808SOL    HW238830  10.720   1.618  10.112  0.5629  1.0229 -0.8287
11809SOL     OW38831   5.418   8.868   2.481  0.5625 -0.2598  0.2769
11809SOL    HW138832   5.370   8.846   2.561  1.0343  0.4504  0.7567
11809SOL    HW238833   5.423   8.964   2.481  0.6112 -0.2575 -0.5764
11810SOL     OW38834   1.729  10.461   9.282 -0.2564  0.5077  0.0355
11810SOL    HW138835   1.767  10.416   9.207  0.9644  0.7364  0.5019
11810SOL    HW238836   1.644  10.493   9.251  0.7405  1.6205 -1.6113
11811SOL     OW38837   2.784   9.150   1.405  0.0852 -0.5277  0.4595
11811SOL    HW138838   2.712   9.196   1.361  0.0516 -0.5761  0.4642
11811SOL    HW238839   2.821   9.094   1.337  0.2571 -0.3410  0.3990
11812SOL     OW38840   3.925   8.478   2.216 -0.5461  0.6466 -0.3098
11812SOL    HW138841   3.901   8.502   2.126 -1.3666  1.1792  0.0382
11812SOL    HW238842   3.880   8.542   2.270  2.5391  2.3354  0.3641
11813SOL     OW38843  10.830   1.094   9.024 -0.7660 -0.2287  0.3546
11813SOL    HW138844  10.879   1.167   8.988 -0.2454  0.3642  2.2133
11813SOL    HW238845  10.888   1.018   9.013 -0.5067 -0.0076  0.1973
11814SOL     OW38846   7.044   8.078   8.909 -0.0205 -0.0362 -0.8496
11814SOL    HW138847   6.956   8.045   8.892  0.3660 -0.6291 -1.8158
11814SOL    HW238848   7.031   8.161   8.954 -1.0390 -1.6067  1.8795
11815SOL     OW38849   2.335  10.275   1.651 -0.0210  0.0414  0.1102
11815SOL    HW138850   2.257  10.322   1.678 -0.1386 -1.1073  1.8155
11815SOL    HW238851   2.303  10.188   1.625  0.5469 -0.0563 -0.2760
11816SOL     OW38852   7.229   1.210   0.031  0.8651  0.2921 -0.5745
11816SOL    HW138853   7.191   1.125   0.007 -0.2513  0.2194  1.2709
11816SOL    HW238854   7.152   1.266   0.046  1.5530  1.0148  0.2757
11817SOL     OW38855  10.411   5.623  10.311 -0.0703  0.0352  0.0857
11817SOL    HW138856  10.443   5.611  10.400  1.9381  1.7734 -0.3584
11817SOL    HW238857  10.473   5.574  10.257 -0.0984  0.6402 -0.5012
11818SOL     OW38858   3.526   0.732   5.849 -0.1904 -0.1442 -0.4460
11818SOL    HW138859   3.497   0.700   5.763  1.3482  3.4726 -2.4335
11818SOL    HW238860   3.615   0.762   5.834 -0.7124  2.7035  1.8107
11819SOL     OW38861   9.824   4.902  10.144  0.3017  0.5110  0.2977
11819SOL    HW138862   9.803   4.958  10.219  1.6632  0.3437  0.8136
11819SOL    HW238863   9.918   4.916  10.129  0.3291 -0.4898 -0.5235
11820SOL     OW38864   2.467   2.902   4.782 -0.3059  0.4212  0.8240
11820SOL    HW138865   2.380   2.871   4.808 -0.1087  0.9129  2.1539
11820SOL    HW238866   2.527   2.853   4.838  0.2371  0.4929  0.3086
11821SOL     OW38867   7.912   0.750   9.755  0.7837 -0.0330  0.4141
11821SOL    HW138868   7.890   0.672   9.806  1.3079 -0.1966  0.3917
11821SOL    HW238869   7.859   0.820   9.794  1.5149 -0.0656  1.4731
11822SOL     OW38870   8.453   7.326   3.944  0.2453  0.2163  0.0650
11822SOL    HW138871   8.386   7.258   3.937  0.9207 -0.2835 -1.9291
11822SOL    HW238872   8.434   7.371   4.026 -0.6004 -1.9626  1.0843
11823SOL     OW38873   9.326   2.161   3.369  0.3705  0.4012  0.4234
11823SOL    HW138874   9.394   2.108   3.411 -0.6841 -0.7920  0.6723
11823SOL    HW238875   9.368   2.245   3.350  2.1306 -0.5773 -0.1144
11824SOL     OW38876   3.589   0.036   9.688 -1.0645  0.3410 -0.1457
11824SOL    HW138877   3.621  -0.016   9.763 -0.0499 -0.0653 -0.8523
11824SOL    HW238878   3.497   0.012   9.681 -0.8124 -0.7348  0.0728
11825SOL     OW38879   1.955   6.769   2.773 -0.1978 -0.3483  0.4152
11825SOL    HW138880   1.919   6.760   2.685  0.2601 -1.2897  0.3161
11825SOL    HW238881   1.885   6.738   2.831 -0.3899 -0.0048  0.3712
11826SOL     OW38882   2.099   2.118   6.151 -0.2995  0.3610 -0.0518
11826SOL    HW138883   2.092   2.210   6.123 -1.3053  0.2206 -0.2760
11826SOL    HW238884   2.008   2.089   6.160  0.0209 -0.6079  0.0529
11827SOL     OW38885   0.001  10.279   7.473 -0.0744  0.1843  0.3499
11827SOL    HW138886   0.043  10.350   7.522  0.7361  1.4625 -2.0712
11827SOL    HW238887  -0.086  10.312   7.453  1.2672  1.8756 -3.3078
11828SOL     OW38888   6.413   9.408   3.818 -0.1165 -0.4697 -0.1411
11828SOL    HW138889   6.388   9.390   3.909 -1.4250  1.0222 -0.1793
11828SOL    HW238890   6.330   9.409   3.770  0.5049 -0.5248 -1.2177
11829SOL     OW38891  10.290   4.605   7.680  0.0619  0.1147 -0.5686
11829SOL    HW138892  10.378   4.620   7.715 -0.3406  0.1926  0.4003
11829SOL    HW238893  10.303   4.540   7.611  0.6164 -1.2465  0.7930
11830SOL     OW38894   8.279   7.509   4.990  0.7288  0.2816  0.3851
11830SOL    HW138895   8.197   7.489   5.036 -0.2636  0.0683 -1.4525
11830SOL    HW238896   8.278   7.453   4.913  2.1552  0.9843 -0.1622
11831SOL     OW38897   2.538   6.453   0.283  0.3940 -0.0062 -0.1105
11831SOL    HW138898   2.538   6.444   0.188 -0.1634  0.8725 -0.2002
11831SOL    HW238899   2.605   6.519   0.301 -1.1864  1.6590 -0.1036
11832SOL     OW38900   9.857   0.021   3.508  0.0685  0.6263  0.1038
11832SOL    HW138901   9.832  -0.051   3.566 -0.9654 -0.5653 -1.7769
11832SOL    HW238902   9.775   0.060   3.481  0.5298  0.9418 -0.8503
11833SOL     OW38903   0.976   5.434   6.436 -0.5320  0.6604 -0.1182
11833SOL    HW138904   0.905   5.496   6.455 -0.0178  1.5919 -1.1629
11833SOL    HW238905   1.048   5.464   6.491  0.3631  2.2388 -2.0856
11834SOL     OW38906   0.405   4.032   2.879 -0.5410 -0.3756  0.3189
11834SOL    HW138907   0.425   3.954   2.826 -2.6724 -2.1047  1.9468
11834SOL    HW238908   0.312   4.047   2.865 -0.7753  0.1256  2.2523
11835SOL     OW38909   6.218   7.225   0.121 -0.7510  0.1801 -0.5650
11835SOL    HW138910   6.273   7.172   0.063 -0.0555 -0.9838  1.1285
11835SOL    HW238911   6.200   7.305   0.071  1.1457 -0.1199 -1.7694
11836SOL     OW38912  10.357   2.109   0.516  0.3460  0.1016  0.4971
11836SOL    HW138913  10.288   2.048   0.490  0.9660  0.4467 -2.0111
11836SOL    HW238914  10.363   2.171   0.444  1.7125  1.4561  1.7396
11837SOL     OW38915   9.777   8.694   0.280  0.4715 -0.1804 -0.2261
11837SOL    HW138916   9.741   8.770   0.325  0.2726 -0.2342 -0.2956
11837SOL    HW238917   9.708   8.628   0.284  1.1615 -0.8555  1.0765
11838SOL     OW38918   9.291   3.681   5.045  0.4916  0.1331 -0.2174
11838SOL    HW138919   9.266   3.681   5.137  2.2446  0.1213  0.2813
11838SOL    HW238920   9.375   3.633   5.043  0.9224  0.9121 -1.6810
11839SOL     OW38921   3.866   4.743   4.680 -0.2454 -0.2289 -0.5656
11839SOL    HW138922   3.929   4.813   4.662 -1.8319  1.0528 -1.2441
11839SOL    HW238923   3.821   4.771   4.760 -1.1077 -0.2979 -1.0195
11840SOL     OW38924   6.322   8.017   2.667 -0.1684 -0.0750 -0.0058
11840SOL    HW138925   6.261   8.062   2.608 -0.2751 -2.4255 -1.7391
11840SOL    HW238926   6.399   8.074   2.670 -1.4422  1.6785  0.2030
11841SOL     OW38927   8.432   2.437   9.265 -0.5165 -0.4392  0.6735
11841SOL    HW138928   8.358   2.378   9.280 -0.6489 -0.3405  0.4277
11841SOL    HW238929   8.445   2.434   9.170  0.4179 -1.1987  0.8218
11842SOL     OW38930   0.676   1.047   2.280 -0.1280  0.3910 -0.0269
11842SOL    HW138931   0.766   1.022   2.257 -0.6983 -0.9307 -0.9271
11842SOL    HW238932   0.637   1.071   2.196 -0.8617  0.1364  0.2441
11843SOL     OW38933   2.777   7.269   8.752 -0.5506 -0.0583 -0.2887
11843SOL    HW138934   2.860   7.238   8.789 -0.1900  0.6313 -0.5134
11843SOL    HW238935   2.803   7.335   8.688 -1.3554  1.1599  0.6364
11844SOL     OW38936   6.613   4.272   7.497 -0.5105 -0.0361  0.3903
11844SOL    HW138937   6.628   4.178   7.508 -0.7815 -0.1729 -0.3482
11844SOL    HW238938   6.656   4.293   7.414 -1.2665  0.3036  0.0860
11845SOL     OW38939   9.173   2.208   5.727  0.1875 -0.3544 -0.2533
11845SOL    HW138940   9.197   2.276   5.664  1.7650  0.1384  0.8359
11845SOL    HW238941   9.078   2.203   5.723  0.1858  0.6732 -1.6298
11846SOL     OW38942  10.190   5.217  10.055  0.4178  0.4137  0.0309
11846SOL    HW138943  10.271   5.166  10.057 -0.6932 -1.3785  0.9773
11846SOL    HW238944  10.184   5.256  10.142 -0.1835 -0.2315  0.2892
11847SOL     OW38945   6.098   8.613   4.261  0.3979 -0.1643 -0.0954
11847SOL    HW138946   6.023   8.665   4.289 -1.0123 -2.8223  1.2473
11847SOL    HW238947   6.076   8.584   4.173 -0.2313 -1.0347  0.3405
11848SOL     OW38948   5.596   8.353  10.431 -0.5677 -0.1647 -0.2829
11848SOL    HW138949   5.560   8.422  10.375  3.0129  0.9636 -1.3042
11848SOL    HW238950   5.647   8.298  10.372  2.2775  0.3434  1.6051
11849SOL     OW38951   5.841   9.866   4.329  0.0044 -0.3981 -0.2871
11849SOL    HW138952   5.762   9.919   4.321 -0.7289 -1.4328 -0.0460
11849SOL    HW238953   5.861   9.867   4.422 -0.1927 -0.8006 -0.2401
11850SOL     OW38954   1.164   3.446   6.564 -0.1150 -0.2487 -0.4957
11850SOL    HW138955   1.144   3.490   6.646  2.3337 -2.8907  1.5716
11850SOL    HW238956   1.235   3.498   6.525 -0.3361  0.2014 -0.3002
11851SOL     OW38957   4.317   9.349  10.716 -0.0668  0.0778  0.3487
11851SOL    HW138958   4.249   9.344  10.783  0.5543  0.5562  1.0235
11851SOL    HW238959   4.288   9.289  10.647 -0.8664 -0.1724  0.9026
11852SOL     OW38960   9.392   5.215   3.252 -0.3991 -0.0905  0.0696
11852SOL    HW138961   9.434   5.256   3.176  0.0884  2.1986  1.5435
11852SOL    HW238962   9.453   5.146   3.278 -0.9552 -1.4485 -2.0716
11853SOL     OW38963  10.440   4.725   3.410  0.4398 -0.0329  0.6926
11853SOL    HW138964  10.374   4.676   3.361  1.5814 -1.1615  0.2695
11853SOL    HW238965  10.401   4.739   3.496 -0.2960 -0.8131  0.4877
11854SOL     OW38966   0.929  10.779   5.930 -0.0452  0.6277  0.0648
11854SOL    HW138967   0.992  10.755   5.999 -0.4904  1.3492  0.7255
11854SOL    HW238968   0.984  10.802   5.855  0.4700  0.9022  0.5206
11855SOL     OW38969   4.295   3.825   0.603 -0.3459  0.8020  0.0732
11855SOL    HW138970   4.251   3.879   0.669 -1.7471 -1.6800  1.2659
11855SOL    HW238971   4.382   3.864   0.594 -0.7391  2.2258  2.1170
11856SOL     OW38972   4.619   1.323   6.273 -0.6505 -0.2094 -0.3177
11856SOL    HW138973   4.664   1.394   6.228 -1.7566  1.0088  0.4803
11856SOL    HW238974   4.649   1.243   6.228  1.0012  0.6975 -0.8795
11857SOL     OW38975   1.637   0.514   8.146  0.2271  0.6152 -0.5352
11857SOL    HW138976   1.610   0.444   8.086 -1.0370  0.3999  0.2606
11857SOL    HW238977   1.561   0.571   8.152  0.8344  1.3966 -0.2222
11858SOL     OW38978   3.275   4.290   2.086  0.9579 -0.2179  0.2697
11858SOL    HW138979   3.218   4.269   2.012  0.8645  2.8729 -0.6016
11858SOL    HW238980   3.223   4.349   2.140  1.8742 -0.6179  1.6267
11859SOL     OW38981   7.650   8.443   9.232 -0.1450 -0.0024  0.4900
11859SOL    HW138982   7.695   8.527   9.243  1.2993 -0.4411 -1.6221
11859SOL    HW238983   7.685   8.409   9.150 -0.1998 -2.9882  1.6728
11860SOL     OW38984   5.185   6.756   2.554  0.3482 -0.1172 -0.4390
11860SOL    HW138985   5.261   6.789   2.507  1.5634 -0.4042  1.2503
11860SOL    HW238986   5.222   6.720   2.636 -1.6498  0.2159  0.6296
11861SOL     OW38987   3.163   1.674   3.504 -0.2347  0.4439  0.4549
11861SOL    HW138988   3.223   1.743   3.477  1.5126 -1.0391  0.4698
11861SOL    HW238989   3.195   1.646   3.590  0.3045 -1.7321 -0.4147
11862SOL     OW38990   1.964   8.105   1.291  0.4686  0.0991  0.3225
11862SOL    HW138991   1.941   8.189   1.330  0.8955 -0.2263  1.3147
11862SOL    HW238992   1.937   8.040   1.356  2.5531 -0.3764  0.7767
11863SOL     OW38993   0.529   4.054   2.337 -0.1232  0.0161 -0.8451
11863SOL    HW138994   0.488   4.098   2.262  0.6832  0.5503 -0.9714
11863SOL    HW238995   0.459   4.049   2.402 -0.4496  0.7403 -1.1380
11864SOL     OW38996   8.551   6.785   8.876  0.5302  0.3414 -0.1490
11864SOL    HW138997   8.590   6.715   8.824  0.9264  1.0069 -0.7534
11864SOL    HW238998   8.559   6.755   8.967 -0.8618 -1.1764 -0.5115
11865SOL     OW38999   7.626   6.440   9.167 -0.1767 -0.2617 -0.0837
11865SOL    HW139000   7.696   6.378   9.148 -1.3164 -1.2118 -1.3153
11865SOL    HW239001   7.569   6.435   9.090  0.0175  2.7412 -0.4516
11866SOL     OW39002  10.806   4.790   8.383  0.1934  0.2020  0.0967
11866SOL    HW139003  10.870   4.718   8.387  0.3177  0.3917  1.6302
11866SOL    HW239004  10.768   4.793   8.470 -2.1579 -0.1052 -0.8854
11867SOL     OW39005   2.386   2.257   4.295  0.4503 -0.2512 -0.1432
11867SOL    HW139006   2.310   2.204   4.270  0.4906 -0.5837  0.4363
11867SOL    HW239007   2.432   2.273   4.213 -0.1359 -0.2178 -0.4709
11868SOL     OW39008   6.143   2.566   2.084 -0.1321 -0.3552 -0.7373
11868SOL    HW139009   6.203   2.638   2.062  0.1846 -0.9614 -1.9303
11868SOL    HW239010   6.106   2.539   2.000 -1.7720 -0.2806 -0.0605
11869SOL     OW39011   8.543   9.294   4.206 -0.2625 -0.7863  0.0512
11869SOL    HW139012   8.597   9.371   4.188  1.0246 -1.5820  0.3902
11869SOL    HW239013   8.471   9.327   4.259  0.3792  0.1606  0.3551
11870SOL     OW39014   8.325   2.162   3.205 -0.3032 -0.0926 -0.3770
11870SOL    HW139015   8.375   2.224   3.258 -2.0548 -0.5654  1.9001
11870SOL    HW239016   8.236   2.196   3.205 -0.4688 -0.4326 -2.5841
11871SOL     OW39017   1.050   0.934   0.547 -0.2521 -0.2553 -0.2506
11871SOL    HW139018   0.996   0.991   0.601 -0.1148  1.3811 -1.7795
11871SOL    HW239019   1.000   0.853   0.539 -1.4006  0.3929  0.2678
11872SOL     OW39020   6.221   6.898   8.141 -0.1242  0.4197  0.1459
11872SOL    HW139021   6.151   6.918   8.079  1.9030  0.3561 -2.2705
11872SOL    HW239022   6.181   6.838   8.204 -1.3958 -2.4380 -3.1635
11873SOL     OW39023   7.711   8.451   4.469  0.0270  0.0165 -0.3488
11873SOL    HW139024   7.767   8.397   4.415  0.4474  0.7453 -0.6554
11873SOL    HW239025   7.757   8.459   4.553 -0.5109 -0.9174  0.0410
11874SOL     OW39026   4.428   4.446  10.854 -0.6721  0.0646 -0.3476
11874SOL    HW139027   4.373   4.402  10.790 -0.5969 -0.6997  0.1055
11874SOL    HW239028   4.441   4.382  10.923 -0.2700  0.6789  0.1600
11875SOL     OW39029   2.132   1.341   6.911  0.1704 -0.2711  0.1998
11875SOL    HW139030   2.145   1.257   6.867  0.6682 -0.3862  0.5556
11875SOL    HW239031   2.221   1.374   6.924 -0.0396  0.5066 -0.3115
11876SOL     OW39032  10.409   4.099   9.664  0.2948 -0.7826  0.6748
11876SOL    HW139033  10.339   4.042   9.696  0.9810 -2.0914 -0.0939
11876SOL    HW239034  10.432   4.063   9.578  1.6365 -0.1414  0.7482
11877SOL     OW39035  10.161   3.639   9.709  0.3435  0.6718 -0.3131
11877SOL    HW139036  10.160   3.631   9.804  1.7477  0.5490 -0.3010
11877SOL    HW239037  10.080   3.598   9.680  1.2159 -1.7846  0.6529
11878SOL     OW39038   7.979  10.253   7.900 -0.4805 -0.5546  0.2131
11878SOL    HW139039   8.004  10.163   7.879  1.8815  0.3535 -0.9979
11878SOL    HW239040   7.885  10.248   7.919 -0.0733 -3.5015  1.6628
11879SOL     OW39041  10.357  10.511   4.489  0.1438  0.2552 -0.3018
11879SOL    HW139042  10.413  10.454   4.437 -2.3450  0.1219 -2.9337
11879SOL    HW239043  10.287  10.537   4.429 -1.5521  1.9535  2.3370
11880SOL     OW39044   4.093   7.446   9.051  0.4540  0.2197  0.0866
11880SOL    HW139045   4.071   7.392   9.128 -0.8879  1.3580  0.5202
11880SOL    HW239046   4.021   7.431   8.990  0.6318  0.6844 -0.2346
11881SOL     OW39047   8.287  10.288   1.861 -0.4032 -0.6231 -0.3125
11881SOL    HW139048   8.298  10.364   1.803 -2.0002  0.4571  0.7406
11881SOL    HW239049   8.376  10.257   1.877  0.4043  1.7738  0.1749
11882SOL     OW39050   8.753   4.663   9.596  0.9257  0.4336 -0.9045
11882SOL    HW139051   8.817   4.733   9.606  0.4466  0.9207 -1.2148
11882SOL    HW239052   8.669   4.708   9.591  0.7013 -0.1030 -2.0143
11883SOL     OW39053   4.859   1.969   9.006  0.4698  0.0515  0.1616
11883SOL    HW139054   4.945   1.929   9.019  0.3775 -0.5947 -1.1230
11883SOL    HW239055   4.797   1.898   9.022  0.2897 -0.2613 -1.7405
11884SOL     OW39056   2.811  10.669   4.936 -0.1855  0.0724 -0.0336
11884SOL    HW139057   2.897  10.683   4.895 -0.2557  0.0062 -0.2037
11884SOL    HW239058   2.798  10.746   4.992 -1.1425  1.3212 -1.9239
11885SOL     OW39059   0.716   1.321   3.685 -0.8233  0.4049 -0.3448
11885SOL    HW139060   0.623   1.339   3.672 -0.3455  1.9493 -1.8076
11885SOL    HW239061   0.722   1.225   3.682 -2.2389  0.3204 -1.1526
11886SOL     OW39062   7.203   0.839  10.688  0.1187  0.4848  0.2699
11886SOL    HW139063   7.297   0.858  10.685  0.4361 -1.1103 -0.1538
11886SOL    HW239064   7.178   0.856  10.779  0.9027  0.5136  0.4839
11887SOL     OW39065   7.319   0.751   8.703  0.2730  0.0322 -0.0457
11887SOL    HW139066   7.285   0.665   8.680  1.8030 -0.4378 -0.6111
11887SOL    HW239067   7.380   0.773   8.632  2.2927  0.1793  1.7006
11888SOL     OW39068   3.400   4.372   7.498  0.3040  0.0214 -0.3638
11888SOL    HW139069   3.466   4.440   7.510 -0.4029  0.8178 -0.9348
11888SOL    HW239070   3.450   4.294   7.476  1.1443  0.2771  0.5801
11889SOL     OW39071   2.926   5.457   5.154  0.1841  0.4153 -0.0584
11889SOL    HW139072   2.906   5.510   5.076  0.0417 -3.8472 -3.0747
11889SOL    HW239073   2.992   5.394   5.124 -0.7628 -2.1474  2.9478
11890SOL     OW39074  10.424   5.964  10.637  0.1131 -0.2460 -0.1157
11890SOL    HW139075  10.385   5.884  10.672 -0.3287 -0.3319 -0.8012
11890SOL    HW239076  10.353   6.027  10.637  0.2803 -0.0592 -0.2500
11891SOL     OW39077   0.255   9.024   5.424 -0.3073  0.1751 -0.4243
11891SOL    HW139078   0.312   8.962   5.379  0.9680 -0.7605  2.3823
11891SOL    HW239079   0.307   9.104   5.430  0.5419 -0.5030  1.6319
11892SOL     OW39080   2.111   8.460   6.328  0.9903 -0.4620  0.5477
11892SOL    HW139081   2.156   8.437   6.247  0.6765  0.3416  0.1436
11892SOL    HW239082   2.041   8.519   6.301  0.0032 -1.3120  1.2342
11893SOL     OW39083   2.535   2.159   1.424  0.2679 -0.0477 -0.3785
11893SOL    HW139084   2.490   2.079   1.394 -0.5016  0.5439 -0.8155
11893SOL    HW239085   2.614   2.164   1.370 -0.0283 -0.1484 -0.8268
11894SOL     OW39086  10.791   1.266   3.847 -0.0610  0.2592  0.1679
11894SOL    HW139087  10.714   1.320   3.833 -0.2786 -0.2591 -0.6515
11894SOL    HW239088  10.865   1.325   3.835 -0.2876  0.3067 -1.0552
11895SOL     OW39089   3.317   6.520   4.306 -0.2606 -0.3466  0.2833
11895SOL    HW139090   3.313   6.615   4.294 -0.9055 -0.4665 -0.4815
11895SOL    HW239091   3.303   6.507   4.400 -0.6513  0.2841  0.3117
11896SOL     OW39092   5.004   1.080   8.514 -0.1030 -0.0820  0.0047
11896SOL    HW139093   5.035   0.996   8.549 -1.3136  0.1647  1.7414
11896SOL    HW239094   4.952   1.117   8.585 -1.8712  0.8800 -1.7627
11897SOL     OW39095   0.773   0.136   5.995 -0.2013  0.2269  0.0448
11897SOL    HW139096   0.710   0.091   6.051 -0.8082  0.1590 -0.6946
11897SOL    HW239097   0.733   0.222   5.979 -0.3268  0.0069 -0.8180
11898SOL     OW39098   3.579   4.807   0.037  0.1578 -0.1360  0.3104
11898SOL    HW139099   3.558   4.736  -0.023 -2.7206 -0.7190  1.8940
11898SOL    HW239100   3.612   4.877  -0.019 -0.1912 -1.5037 -1.6479
11899SOL     OW39101   2.858   9.140   3.816  0.1550 -0.7764  0.2062
11899SOL    HW139102   2.842   9.208   3.881  0.0533  0.2560 -0.8871
11899SOL    HW239103   2.924   9.177   3.757 -2.0718 -0.4051 -2.1517
11900SOL     OW39104   4.118   0.424   3.807  0.3565  0.0029  0.0513
11900SOL    HW139105   4.069   0.347   3.838 -0.2679  0.7913  1.0322
11900SOL    HW239106   4.201   0.420   3.854 -0.0192  0.4041  0.7478
11901SOL     OW39107   0.443   2.586   7.660 -0.0469 -0.0987  0.0075
11901SOL    HW139108   0.518   2.619   7.709  0.5737 -1.6809  0.1561
11901SOL    HW239109   0.479   2.518   7.603 -1.1679 -0.0034 -0.8337
11902SOL     OW39110   7.831   9.542   6.364  0.2227  0.1291 -0.7231
11902SOL    HW139111   7.773   9.505   6.430  0.4260  2.0473  0.5812
11902SOL    HW239112   7.916   9.552   6.408 -0.2475  3.6701 -0.4411
11903SOL     OW39113   6.277   3.524   4.917  0.4999  0.3815  0.0404
11903SOL    HW139114   6.200   3.580   4.912  0.0511 -0.1557  0.7816
11903SOL    HW239115   6.343   3.567   4.863  0.3419  1.9122  1.0575
11904SOL     OW39116   9.057   5.516   6.684  0.5606 -0.0724  0.3641
11904SOL    HW139117   9.010   5.433   6.681  0.0294  0.2257  0.2492
11904SOL    HW239118   9.062   5.543   6.592  0.6532  0.0646  0.4096
11905SOL     OW39119   0.497   0.950  10.359  0.7873 -0.4291  0.0400
11905SOL    HW139120   0.476   0.996  10.440  2.8403  1.0411 -0.2101
11905SOL    HW239121   0.457   1.004  10.290  1.8007  0.1062 -0.1387
11906SOL     OW39122   1.970   8.567   2.475 -0.4403  0.6040  0.0321
11906SOL    HW139123   1.927   8.581   2.559  0.0252 -0.1155  0.3864
11906SOL    HW239124   1.897   8.557   2.413 -0.7876 -0.7155  0.6483
11907SOL     OW39125   4.164  10.949   2.765 -0.1556  0.0489  0.0198
11907SOL    HW139126   4.172  10.871   2.819  1.6010  0.1656 -0.0411
11907SOL    HW239127   4.245  10.952   2.714  0.1525  2.3086  0.5751
11908SOL     OW39128   9.682   5.852   1.580  0.2075 -0.2325  0.2891
11908SOL    HW139129   9.683   5.763   1.617 -0.5354 -0.1551  0.4998
11908SOL    HW239130   9.656   5.908   1.654  2.2041  0.3591  0.5853
11909SOL     OW39131  10.476   3.259   5.052 -0.0813 -0.1371 -0.5956
11909SOL    HW139132  10.494   3.284   5.142 -0.1723 -0.2105 -0.5571
11909SOL    HW239133  10.432   3.335   5.014 -1.6716 -0.7735 -0.0640
11910SOL     OW39134   2.449   1.135   2.741 -0.0128 -0.1142  0.3666
11910SOL    HW139135   2.470   1.126   2.649  1.4941 -0.2464  0.7079
11910SOL    HW239136   2.534   1.129   2.786 -0.7270 -0.0995  1.7534
11911SOL     OW39137   4.478   9.370   2.371  0.8633 -0.5182  0.2073
11911SOL    HW139138   4.532   9.335   2.300 -0.6654 -0.2719 -1.1096
11911SOL    HW239139   4.406   9.308   2.378 -1.2802  1.6921 -1.3934
11912SOL     OW39140   7.120   6.158   4.418  0.3106 -0.2198 -0.2141
11912SOL    HW139141   7.115   6.121   4.330 -0.2254 -0.9051  0.0890
11912SOL    HW239142   7.191   6.221   4.414  3.2353 -3.3776 -0.0145
11913SOL     OW39143   5.977  10.039   3.599 -0.3130 -0.1481  0.8399
11913SOL    HW139144   5.904  10.078   3.551  1.2091 -0.0056 -1.4101
11913SOL    HW239145   6.012  10.110   3.652  0.2838  0.6729 -0.6315
11914SOL     OW39146   0.936   3.003   8.288  0.5442 -0.0025  0.2913
11914SOL    HW139147   0.917   2.953   8.368  1.0153  0.3896  0.6488
11914SOL    HW239148   1.027   2.982   8.268  1.1796  1.8002  1.2334
11915SOL     OW39149  10.547   0.957   1.706 -0.2378 -0.1806 -0.2435
11915SOL    HW139150  10.460   0.943   1.744  0.6710 -1.5723  1.4349
11915SOL    HW239151  10.550   0.901   1.629 -1.1587  0.6035 -0.8515
11916SOL     OW39152   9.439   2.053   6.455 -0.0063 -0.0418 -0.0876
11916SOL    HW139153   9.387   2.036   6.376  1.5238 -1.7223 -0.7757
11916SOL    HW239154   9.399   1.998   6.522 -0.0734 -0.1455 -0.2109
11917SOL     OW39155   9.888   2.994   9.521  0.3212 -0.8099  0.0995
11917SOL    HW139156   9.846   2.909   9.509 -1.3251  0.1522 -1.0436
11917SOL    HW239157   9.927   3.013   9.436  1.9842 -1.0684  0.7687
11918SOL     OW39158   2.184   9.144   7.616 -0.5465  0.1657  0.4427
11918SOL    HW139159   2.193   9.095   7.697  1.8810  0.9802  0.6944
11918SOL    HW239160   2.165   9.234   7.643  0.5907  0.5074  0.1245
11919SOL     OW39161   2.325   0.812   6.980  0.6422 -0.0528  0.2828
11919SOL    HW139162   2.248   0.806   6.923  1.2734 -0.8865 -0.4839
11919SOL    HW239163   2.371   0.729   6.968  1.5550  0.3551  0.9054
11920SOL     OW39164   1.299  10.069   6.426  0.1794 -0.0199  0.1047
11920SOL    HW139165   1.368  10.029   6.374 -1.2692 -1.9005 -0.4477
11920SOL    HW239166   1.331  10.065   6.516  0.6754 -1.1645 -0.1086
11921SOL     OW39167  10.409   0.721   4.378  1.0758 -0.0345  0.1250
11921SOL    HW139168  10.321   0.758   4.370  0.6663 -0.3349  2.8638
11921SOL    HW239169  10.416   0.660   4.304 -1.2498 -0.4426  0.1979
11922SOL     OW39170   8.055   8.675   9.716 -0.1898 -0.1631  0.3930
11922SOL    HW139171   8.004   8.699   9.794  1.6243  0.6333  1.3450
11922SOL    HW239172   8.034   8.583   9.702 -1.6959  0.0803  0.9168
11923SOL     OW39173   4.799  10.221   9.761  0.1623 -0.1537  0.0363
11923SOL    HW139174   4.776  10.130   9.746 -1.6074  0.8500 -4.0945
11923SOL    HW239175   4.858  10.244   9.688  1.6008  1.6813  1.7019
11924SOL     OW39176   5.954   5.226   7.761  0.9539  0.5841  0.1286
11924SOL    HW139177   5.904   5.160   7.713  1.1022  1.6464 -1.5219
11924SOL    HW239178   6.019   5.258   7.699  0.8839  2.2861  0.8853
11925SOL     OW39179   7.026  10.685   6.426 -0.2747 -0.3295 -0.0050
11925SOL    HW139180   6.961  10.755   6.429  1.8793  1.8287 -1.5850
11925SOL    HW239181   7.044  10.673   6.333  3.0489  0.5492  0.4774
11926SOL     OW39182   8.968   9.127   7.864 -0.4859 -0.1592 -0.6365
11926SOL    HW139183   8.997   9.044   7.826 -0.1492 -0.7165  0.7960
11926SOL    HW239184   9.043   9.157   7.916 -0.4376  1.2851 -1.5349
11927SOL     OW39185   9.844   2.665   7.617  0.1625 -0.3932 -0.3639
11927SOL    HW139186   9.871   2.574   7.609 -1.1930 -0.8569  0.1241
11927SOL    HW239187   9.855   2.701   7.529 -0.5388 -1.3912 -0.8708
11928SOL     OW39188   4.062   6.816   5.451  0.1785  0.6691  0.0497
11928SOL    HW139189   4.006   6.738   5.451  1.4176 -0.2409  0.1856
11928SOL    HW239190   4.084   6.830   5.359  0.5639  0.3997  0.0982
11929SOL     OW39191   7.490  10.515  10.036  0.1774 -1.4022  0.1935
11929SOL    HW139192   7.533  10.545   9.957 -0.4327 -0.9932  0.0094
11929SOL    HW239193   7.517  10.577  10.104  1.2955 -2.1861  0.4820
11930SOL     OW39194   8.219   7.005   1.091  0.0246 -0.6077  0.6643
11930SOL    HW139195   8.186   6.960   1.168  1.4421 -0.9324  1.1094
11930SOL    HW239196   8.288   6.947   1.058  0.0360 -0.0365 -0.3111
11931SOL     OW39197   5.116   5.813   0.900  0.0643 -0.3960 -0.3125
11931SOL    HW139198   5.037   5.860   0.874  1.2837  1.6887 -0.3181
11931SOL    HW239199   5.150   5.778   0.818  0.3503  0.6102 -0.6300
11932SOL     OW39200   4.185   8.393   0.644 -0.4066  0.7770  0.1613
11932SOL    HW139201   4.174   8.427   0.733  0.7115 -0.1184  0.6470
11932SOL    HW239202   4.263   8.338   0.648 -0.5244  0.4775 -1.3034
11933SOL     OW39203   8.294   7.093   0.387  1.1641 -0.0670 -0.5212
11933SOL    HW139204   8.283   7.038   0.310 -1.9504 -0.2943 -0.0113
11933SOL    HW239205   8.332   7.036   0.454  0.5605 -0.8637 -0.8482
11934SOL     OW39206   6.745  10.654   0.644 -0.3328  0.2434 -0.0013
11934SOL    HW139207   6.838  10.657   0.624 -0.5970  3.2787 -1.0453
11934SOL    HW239208   6.707  10.598   0.576  0.6341 -0.5907  0.1370
11935SOL     OW39209   0.460   4.902   5.896  0.1644 -0.6216 -0.4492
11935SOL    HW139210   0.424   4.915   5.983 -1.0868 -0.5606 -0.9631
11935SOL    HW239211   0.398   4.844   5.852  0.6498 -0.4500 -1.3890
11936SOL     OW39212   2.195   8.161   6.959  0.7516  0.1280  0.2928
11936SOL    HW139213   2.157   8.248   6.941 -0.9896 -0.7574 -0.4082
11936SOL    HW239214   2.224   8.130   6.873 -0.2089 -0.7133  0.2678
11937SOL     OW39215   4.718   9.658   3.466 -0.3076  0.0634 -0.3779
11937SOL    HW139216   4.675   9.602   3.402 -0.5736 -0.0676 -0.0855
11937SOL    HW239217   4.661   9.734   3.473  0.7137  0.9876 -1.7504
11938SOL     OW39218   3.034   3.374   4.280  0.3000  0.3571 -0.6908
11938SOL    HW139219   3.066   3.422   4.357  0.1092  1.6046 -1.3757
11938SOL    HW239220   2.999   3.292   4.316 -0.5972  1.3087  0.6705
11939SOL     OW39221   2.285   6.103   2.345  0.5287 -0.3710  0.0191
11939SOL    HW139222   2.323   6.173   2.399 -0.0453  0.4677 -0.6666
11939SOL    HW239223   2.219   6.062   2.402 -0.7902  1.1687 -0.3921
11940SOL     OW39224   0.849   3.463   3.094 -0.0126 -0.0822 -0.4253
11940SOL    HW139225   0.889   3.447   3.180 -0.8042  0.9277  0.1361
11940SOL    HW239226   0.919   3.444   3.032  0.6504 -0.5612  0.4502
11941SOL     OW39227   2.238   2.356   2.877 -0.0705 -0.2973 -0.0294
11941SOL    HW139228   2.147   2.369   2.901  0.9635 -0.5184  4.3698
11941SOL    HW239229   2.282   2.437   2.903  1.5802 -1.5867  1.3068
11942SOL     OW39230   2.780   8.047   1.625 -0.1966  0.3592  0.3682
11942SOL    HW139231   2.799   7.960   1.590 -0.8540  0.3449  0.0479
11942SOL    HW239232   2.697   8.037   1.671  0.0114  0.6869  0.8243
11943SOL     OW39233   6.098   1.446   6.677 -0.3234  0.1579 -0.3288
11943SOL    HW139234   6.020   1.412   6.632 -0.2674 -2.3076  1.3065
11943SOL    HW239235   6.170   1.421   6.619 -0.6021  0.8828 -0.9942
11944SOL     OW39236   8.693   7.524   4.462  0.1087  0.2624 -0.1693
11944SOL    HW139237   8.657   7.546   4.549  1.2865 -0.6517  0.5612
11944SOL    HW239238   8.644   7.580   4.402 -2.7711 -1.1590  0.7531
11945SOL     OW39239   2.266   8.744   8.481  0.0843 -0.2917  0.3625
11945SOL    HW139240   2.326   8.731   8.407 -0.6035 -0.2676 -0.2045
11945SOL    HW239241   2.307   8.697   8.553  1.5432  0.9806  0.3861
11946SOL     OW39242   5.448   2.029   3.231 -0.0428  0.1764 -0.0564
11946SOL    HW139243   5.530   2.066   3.198 -0.0259 -2.3296 -3.0790
11946SOL    HW239244   5.410   1.984   3.155 -4.3352  1.4170  1.2120
11947SOL     OW39245   3.764   1.741   5.430  0.2243  0.3723  0.4921
11947SOL    HW139246   3.711   1.820   5.419  1.7672  1.3691 -0.0783
11947SOL    HW239247   3.773   1.706   5.341 -1.4321 -1.1169  0.8944
11948SOL     OW39248   8.514   1.970   3.765 -0.0228  0.0476  0.5101
11948SOL    HW139249   8.498   2.061   3.787 -0.5938 -0.0222  0.3738
11948SOL    HW239250   8.597   1.949   3.809  0.7229  0.9722 -0.4319
11949SOL     OW39251   4.808   0.776   3.468  0.2714 -0.7673 -0.2687
11949SOL    HW139252   4.803   0.859   3.419  0.9833 -0.1164  0.7419
11949SOL    HW239253   4.896   0.743   3.449  1.4192  0.6493  2.3929
11950SOL     OW39254  10.685   9.778   5.627  0.0581 -0.1314 -0.0405
11950SOL    HW139255  10.604   9.730   5.644  1.0874 -1.4432  1.3497
11950SOL    HW239256  10.746   9.711   5.596  1.0772  0.5481  0.4644
11951SOL     OW39257  10.893   1.961   4.987  0.1559  0.1992  0.0006
11951SOL    HW139258  10.968   1.991   4.935  0.9081 -0.0163  0.9442
11951SOL    HW239259  10.845   2.041   5.008  1.3559  0.6060  1.2807
11952SOL     OW39260   4.218   7.451   1.969 -0.0430 -0.1972  0.0585
11952SOL    HW139261   4.138   7.486   2.007  0.0186 -0.1154  0.1133
11952SOL    HW239262   4.227   7.364   2.010  1.0281  0.6521  1.6630
11953SOL     OW39263   8.065   8.799   8.078  0.7385 -0.3765 -0.1838
11953SOL    HW139264   8.121   8.793   8.156 -0.2669 -1.1408  0.4929
11953SOL    HW239265   8.020   8.714   8.075 -0.8060  0.4425 -0.3879
11954SOL     OW39266   2.740   0.433  10.869  0.0514  0.1541  0.3430
11954SOL    HW139267   2.677   0.402  10.935 -0.0396  0.4736  0.4055
11954SOL    HW239268   2.805   0.483  10.918 -1.8756  3.3255 -0.1938
11955SOL     OW39269   5.057   7.124   2.138  0.0177  0.2227  0.1912
11955SOL    HW139270   5.110   7.141   2.060  0.2926  0.5392  0.4430
11955SOL    HW239271   5.029   7.033   2.129 -1.0771  0.6690 -0.9397
11956SOL     OW39272  10.838   1.364   5.635  0.3100  0.3082  0.2974
11956SOL    HW139273  10.800   1.338   5.719  2.1512 -1.2991  0.6597
11956SOL    HW239274  10.913   1.419   5.658  1.7518 -1.3949 -0.1992
11957SOL     OW39275   1.919   2.901   2.466 -0.1441  0.6917  0.2019
11957SOL    HW139276   2.010   2.908   2.495 -0.6806  1.0549  1.8535
11957SOL    HW239277   1.883   2.829   2.518 -0.4038 -0.4774 -1.5471
11958SOL     OW39278   9.614   9.133  10.479  0.1428 -0.1155  0.2231
11958SOL    HW139279   9.676   9.206  10.486  0.1922 -0.1680  0.3368
11958SOL    HW239280   9.581   9.122  10.568  0.1347 -0.2317  0.2051
11959SOL     OW39281   2.199   0.348   0.596  0.4417  0.1051 -0.1680
11959SOL    HW139282   2.292   0.361   0.614  0.8246 -0.0401 -1.9325
11959SOL    HW239283   2.179   0.409   0.525 -1.0130  0.7265  0.7519
11960SOL     OW39284   0.515   7.699   6.379  0.2566 -0.1191  0.2068
11960SOL    HW139285   0.531   7.769   6.315  2.2477  0.2272  1.0367
11960SOL    HW239286   0.422   7.706   6.399 -0.5491 -0.5876 -3.0327
11961SOL     OW39287   2.156  10.942   1.093 -0.0966 -0.1757 -0.4628
11961SOL    HW139288   2.173  11.019   1.038 -0.1076  0.5279  0.5120
11961SOL    HW239289   2.061  10.931   1.092 -0.1263  0.0839 -0.2355
11962SOL     OW39290   7.676   4.897   7.202  0.0145  0.2725 -0.5690
11962SOL    HW139291   7.697   4.921   7.112  0.5515  0.6724 -0.3350
11962SOL    HW239292   7.702   4.972   7.254 -1.5845  0.6072 -0.2198
11963SOL     OW39293   1.672   2.833  10.237  0.2257 -0.5441 -0.2414
11963SOL    HW139294   1.708   2.805  10.153 -1.4230 -1.0017 -0.8073
11963SOL    HW239295   1.643   2.923  10.222  0.7610 -0.3160  0.0923
11964SOL     OW39296   1.157   4.134   4.902 -0.5976  0.2583 -0.0808
11964SOL    HW139297   1.184   4.065   4.962  1.2482  0.4526 -0.6595
11964SOL    HW239298   1.129   4.088   4.823  0.1536  0.1333 -0.2818
11965SOL     OW39299   7.018   0.104   6.948 -0.3570  0.8237  0.3768
11965SOL    HW139300   7.024   0.166   7.021  0.8697  1.0032  0.1387
11965SOL    HW239301   7.108   0.076   6.934 -0.3082  2.1332 -2.2203
11966SOL     OW39302  10.125   2.506   0.731  0.1074  0.5163  0.3079
11966SOL    HW139303  10.073   2.438   0.688  0.3337 -0.0505  0.9179
11966SOL    HW239304  10.062   2.576   0.751 -0.6242 -0.5430  1.8520
11967SOL     OW39305   4.094   1.860   6.915  0.4555  0.2171 -0.0823
11967SOL    HW139306   4.170   1.807   6.892 -0.1020 -0.1675 -1.0699
11967SOL    HW239307   4.069   1.829   7.002  0.3412 -0.9135 -0.5114
11968SOL     OW39308   7.161  10.801   9.674 -0.0390 -0.1235 -0.3943
11968SOL    HW139309   7.078  10.782   9.718  0.2370 -1.1870 -0.3345
11968SOL    HW239310   7.168  10.897   9.677 -2.4815  0.1934 -2.6132
11969SOL     OW39311  10.083   2.360   9.953  0.1439  0.0898 -0.3535
11969SOL    HW139312  10.034   2.330   9.877  0.3703 -2.2091  0.3896
11969SOL    HW239313  10.020   2.408  10.006 -1.1398 -2.2027  0.2298
11970SOL     OW39314   1.177   9.149   2.498 -0.5458  0.1576 -0.0579
11970SOL    HW139315   1.181   9.209   2.423  1.8736  0.7807  0.5342
11970SOL    HW239316   1.156   9.064   2.460  0.3131  0.5372 -1.4214
11971SOL     OW39317   4.418   0.794   0.329 -0.9373 -0.3220 -0.0789
11971SOL    HW139318   4.453   0.751   0.407 -0.2884 -1.2371 -0.8613
11971SOL    HW239319   4.438   0.734   0.258  0.9195  1.7427 -1.3631
11972SOL     OW39320   1.414   0.829   0.049  0.8665 -0.7906  0.2928
11972SOL    HW139321   1.365   0.762   0.001  0.1599 -0.8361  1.0501
11972SOL    HW239322   1.352   0.901   0.059  1.1115 -0.6491  0.8347
11973SOL     OW39323   4.084   4.453   5.687  0.0754  0.1530 -0.3204
11973SOL    HW139324   4.035   4.393   5.743  0.7835 -0.5399 -0.4335
11973SOL    HW239325   4.046   4.539   5.705 -0.7759 -0.2885  0.0341
11974SOL     OW39326   2.121   8.647   4.109 -0.0991 -0.3037  0.1109
11974SOL    HW139327   2.130   8.564   4.063  3.0402  0.1616 -0.2438
11974SOL    HW239328   2.153   8.629   4.198  2.2085  0.9005 -0.4542
11975SOL     OW39329   6.856   3.675   1.487 -0.1636 -0.3352  0.0212
11975SOL    HW139330   6.765   3.697   1.508  0.4311 -0.5779  3.0279
11975SOL    HW239331   6.907   3.717   1.556  1.9538 -1.0234 -1.0894
11976SOL     OW39332   5.834   1.384   1.230 -0.3841 -0.2788 -0.2056
11976SOL    HW139333   5.928   1.371   1.219 -0.4131 -0.4819 -0.2139
11976SOL    HW239334   5.800   1.393   1.141 -0.3369  0.0522 -0.1908
11977SOL     OW39335   8.968  10.689   3.074  0.0944  0.2074 -0.4156
11977SOL    HW139336   9.025  10.632   3.126 -2.4754  0.7326  3.0959
11977SOL    HW239337   8.953  10.766   3.130 -3.3225  0.4812 -1.6277
11978SOL     OW39338  10.532  10.466   6.077  0.2431 -0.4175 -0.0261
11978SOL    HW139339  10.520  10.377   6.045  0.9554 -0.4430 -0.2276
11978SOL    HW239340  10.625  10.471   6.099 -0.2071 -0.3865  1.9547
11979SOL     OW39341  10.445   1.659   6.627  0.5120 -0.1072 -0.3878
11979SOL    HW139342  10.459   1.752   6.615 -0.8714 -0.0361 -1.5309
11979SOL    HW239343  10.493   1.618   6.554  2.0860 -0.3778  0.7652
11980SOL     OW39344   9.137   1.639  10.089  0.4406 -0.2676  0.3145
11980SOL    HW139345   9.224   1.677  10.094  0.1706  0.4739 -0.3860
11980SOL    HW239346   9.078   1.714  10.095 -0.1187 -0.6499 -0.2569
11981SOL     OW39347   4.275   5.112   4.309 -0.1267 -0.0181 -0.1059
11981SOL    HW139348   4.232   5.041   4.261  0.9376 -0.1222 -0.9312
11981SOL    HW239349   4.364   5.114   4.274 -0.1424  1.7271 -0.0978
11982SOL     OW39350   1.348   9.234   9.100  0.0405 -0.0714  0.4856
11982SOL    HW139351   1.320   9.208   9.012 -0.0930 -0.9770  0.7933
11982SOL    HW239352   1.396   9.159   9.133 -0.1634  0.1587  1.3026
11983SOL     OW39353  10.552   0.130   6.653  0.2109 -0.3822 -0.1364
11983SOL    HW139354  10.585   0.101   6.568  0.8218  2.3458 -0.8508
11983SOL    HW239355  10.460   0.105   6.652  0.8754 -2.9948 -0.3920
11984SOL     OW39356  10.716   0.417   9.203 -0.3645  0.1181  0.3360
11984SOL    HW139357  10.634   0.466   9.203  0.5474  1.6998 -1.0599
11984SOL    HW239358  10.729   0.392   9.111  0.9535  0.3074  0.4644
11985SOL     OW39359   2.009   7.213   5.081 -0.1563  0.3012  0.1236
11985SOL    HW139360   1.975   7.125   5.096 -0.0635  0.2207 -0.1332
11985SOL    HW239361   2.104   7.202   5.076 -0.1738  0.3515 -0.3346
11986SOL     OW39362   5.289   1.450   8.186 -0.0178 -0.9198  0.5223
11986SOL    HW139363   5.263   1.420   8.273 -0.6160 -1.1104  0.2749
11986SOL    HW239364   5.228   1.521   8.165  0.0958 -0.9032  0.2383
11987SOL     OW39365   3.272   9.089   9.883  0.4548 -0.3706 -0.7540
11987SOL    HW139366   3.328   9.157   9.920 -1.2956  0.7305 -0.0605
11987SOL    HW239367   3.319   9.007   9.901  0.8815  0.3578  1.6563
11988SOL     OW39368   7.620   6.183   7.792 -0.1638 -0.4418 -0.1855
11988SOL    HW139369   7.672   6.159   7.714 -0.1382  0.2599 -0.3840
11988SOL    HW239370   7.654   6.268   7.818 -0.9421 -0.1630 -0.0738
11989SOL     OW39371   3.551   2.644   4.121  0.3884 -0.1963 -0.2651
11989SOL    HW139372   3.611   2.667   4.050  1.6928 -1.2523  0.4538
11989SOL    HW239373   3.608   2.605   4.188 -0.7181  1.3446  1.6220
11990SOL     OW39374  10.810   9.752   9.796  0.1967  0.0398  0.2081
11990SOL    HW139375  10.893   9.718   9.761  0.8850  1.3710  0.4985
11990SOL    HW239376  10.751   9.753   9.721  0.9726  0.7042 -0.4007
11991SOL     OW39377   4.457   3.913   4.184 -0.5018  0.4253 -0.1186
11991SOL    HW139378   4.472   3.931   4.092 -0.3752  1.8601  0.1725
11991SOL    HW239379   4.367   3.880   4.188 -0.7537  1.0440 -0.6668
11992SOL     OW39380   4.885   6.006   4.363 -0.1438 -0.3158  0.2275
11992SOL    HW139381   4.856   5.977   4.449  0.4098 -1.1605  0.1390
11992SOL    HW239382   4.890   5.926   4.311  0.1357  0.1047 -0.4045
11993SOL     OW39383   3.892   0.265   3.609  0.4558 -0.4808  0.0414
11993SOL    HW139384   3.923   0.287   3.697  0.1717  2.4331 -0.5363
11993SOL    HW239385   3.797   0.256   3.618  0.2731  1.1505 -0.2163
11994SOL     OW39386   9.988   6.286   8.320 -0.5067 -0.0025 -0.3893
11994SOL    HW139387  10.001   6.336   8.400 -1.4605 -2.0161  1.0628
11994SOL    HW239388   9.893   6.278   8.311 -0.5187  2.1309 -2.9885
11995SOL     OW39389   9.692   6.662   0.937 -0.0443 -0.2458  0.0351
11995SOL    HW139390   9.640   6.604   0.993  0.6059 -1.7951 -0.9535
11995SOL    HW239391   9.627   6.717   0.893 -0.8896 -2.1259 -1.1385
11996SOL     OW39392   0.853   8.758   0.570  0.0624 -0.3980 -0.0428
11996SOL    HW139393   0.914   8.831   0.577 -0.1636 -0.3183  1.2682
11996SOL    HW239394   0.772   8.797   0.538  0.5564 -0.4352 -1.3786
11997SOL     OW39395   3.882   5.834   3.007  0.4014  0.3680  0.3096
11997SOL    HW139396   3.936   5.833   2.928  0.5706 -1.1326  0.4417
11997SOL    HW239397   3.925   5.897   3.065 -0.7967  2.9709 -1.5326
11998SOL     OW39398   4.441  10.341   0.580  0.2132  0.2416  0.2770
11998SOL    HW139399   4.463  10.381   0.664  3.9315 -1.3008  0.1310
11998SOL    HW239400   4.454  10.411   0.516 -2.1619  1.2801  0.8481
11999SOL     OW39401   4.941   7.570   6.323  0.0782 -0.1852  0.2158
11999SOL    HW139402   4.922   7.478   6.339  1.0932 -0.1518  1.7507
11999SOL    HW239403   4.939   7.578   6.228  1.1210 -2.0621  0.0006
12000SOL     OW39404   8.401   9.253  10.794  0.1636  0.4235 -0.0481
12000SOL    HW139405   8.490   9.277  10.770  0.2853 -0.6104 -0.6201
12000SOL    HW239406   8.372   9.195  10.724  0.2562 -2.0145  1.8976
12001SOL     OW39407   1.788   8.548   0.380 -0.1223  0.1434 -0.3697
12001SOL    HW139408   1.729   8.607   0.426 -0.4311  0.7058 -1.4689
12001SOL    HW239409   1.870   8.552   0.428 -0.9550 -0.6084  1.1562
12002SOL     OW39410   4.515   4.740  10.372  0.6648 -0.3040  0.7577
12002SOL    HW139411   4.475   4.807  10.428 -0.6833  0.8189 -1.4782
12002SOL    HW239412   4.456   4.665  10.380  0.6811 -0.2812  1.1156
12003SOL     OW39413   1.649   9.647   7.376  0.1649  0.5187 -0.1450
12003SOL    HW139414   1.682   9.614   7.292  1.1746 -0.1771  0.5310
12003SOL    HW239415   1.601   9.727   7.352 -1.0753 -0.6402 -1.6036
12004SOL     OW39416   3.050  10.427   1.720  0.1633  0.2934  0.0485
12004SOL    HW139417   3.033  10.356   1.658  1.5456  0.1232 -0.1626
12004SOL    HW239418   2.995  10.500   1.690 -0.4245 -0.3290 -0.3868
12005SOL     OW39419  10.514   8.296   1.973 -0.7393  0.1803 -0.2496
12005SOL    HW139420  10.544   8.346   2.049 -1.4031 -0.0806  0.1977
12005SOL    HW239421  10.418   8.298   1.980 -0.8471  1.2004 -1.7615
12006SOL     OW39422   3.918   8.755   1.263 -0.0722  0.2046  0.2294
12006SOL    HW139423   3.951   8.713   1.343  0.8334  0.6647  0.1153
12006SOL    HW239424   3.942   8.847   1.273  0.6087  0.1569 -0.8496
12007SOL     OW39425   3.635   4.410   5.759 -0.1150 -0.1529  0.5993
12007SOL    HW139426   3.671   4.465   5.690 -1.7842 -0.1816 -0.3058
12007SOL    HW239427   3.659   4.321   5.734  0.0244 -0.0890  0.5069
12008SOL     OW39428   9.171   8.321   1.462 -0.9867 -0.3489  0.0620
12008SOL    HW139429   9.225   8.243   1.474 -1.0874 -0.3417  0.6013
12008SOL    HW239430   9.146   8.346   1.551  3.0594  3.1220  0.3961
12009SOL     OW39431   5.794   2.409   5.448  0.1219 -0.3369 -0.3838
12009SOL    HW139432   5.769   2.476   5.385 -1.8011 -1.2203 -0.5710
12009SOL    HW239433   5.726   2.411   5.515 -0.0159 -2.1772 -0.4453
12010SOL     OW39434   3.351   6.027   1.637 -0.2659  0.3317  0.2842
12010SOL    HW139435   3.382   6.054   1.550  0.3444  3.0928  1.2835
12010SOL    HW239436   3.272   6.079   1.651 -0.2416  0.0535  1.4470
12011SOL     OW39437   6.565   6.038   3.962  0.1096 -0.4034  0.0517
12011SOL    HW139438   6.500   6.020   4.029  0.9377  0.2796  1.0528
12011SOL    HW239439   6.633   5.971   3.976  0.2322 -0.3280 -0.1734
12012SOL     OW39440   3.648   1.485   0.128 -0.4027 -0.5951  0.2690
12012SOL    HW139441   3.616   1.484   0.038 -0.1387 -2.1788  0.1780
12012SOL    HW239442   3.736   1.447   0.123  0.0787  0.3731  1.0350
12013SOL     OW39443   0.166   4.043   8.617 -0.1117 -0.3683  0.3142
12013SOL    HW139444   0.186   4.013   8.529 -0.1220 -1.1721  0.5780
12013SOL    HW239445   0.138   4.134   8.606  0.8115 -0.1675 -0.3924
12014SOL     OW39446   2.787   4.212   4.158 -0.5205  0.8652  0.3671
12014SOL    HW139447   2.862   4.154   4.170 -2.0396 -0.9065  1.7143
12014SOL    HW239448   2.781   4.224   4.063 -0.5544 -1.7574 -0.0200
12015SOL     OW39449   4.832   7.338  10.224 -0.0852 -0.0618  0.2378
12015SOL    HW139450   4.901   7.383  10.176 -0.1812  1.1484  1.1916
12015SOL    HW239451   4.755   7.394  10.213 -0.4959 -0.5724  0.5083
12016SOL     OW39452   2.811   7.419   9.080 -0.1136 -0.2715 -0.1039
12016SOL    HW139453   2.890   7.432   9.133 -0.8882  0.4340  0.8886
12016SOL    HW239454   2.838   7.357   9.011  0.8362 -1.3776  1.2374
12017SOL     OW39455   7.862   6.880   7.378  0.1100  0.0468  0.3314
12017SOL    HW139456   7.855   6.804   7.320 -1.3683 -2.1458  3.2652
12017SOL    HW239457   7.842   6.955   7.321  1.9419 -1.6440 -2.7134
12018SOL     OW39458  10.511   7.748   5.572 -0.0882  0.1773  0.3075
12018SOL    HW139459  10.539   7.683   5.636 -0.6520 -0.2025  0.1741
12018SOL    HW239460  10.587   7.759   5.514 -0.1243 -0.6550  0.0968
12019SOL     OW39461   5.888   4.164   4.679 -0.1266  0.0414 -0.4632
12019SOL    HW139462   5.884   4.112   4.758 -0.4193  1.1165  0.2423
12019SOL    HW239463   5.977   4.151   4.646  0.6656  1.2097  1.1736
12020SOL     OW39464   8.609   2.045   8.928  0.0910  0.0887 -0.1387
12020SOL    HW139465   8.594   2.134   8.894  1.0307 -0.3348 -1.7063
12020SOL    HW239466   8.523   2.015   8.955 -0.3996  1.1256 -0.5067
12021SOL     OW39467   8.555  10.242   1.899 -0.2298  0.3576  0.0011
12021SOL    HW139468   8.621  10.308   1.878  0.6853 -0.5609 -0.0625
12021SOL    HW239469   8.605  10.173   1.944 -1.2798  0.0018  0.6317
12022SOL     OW39470   3.123   7.640   8.703 -0.5383  0.3896  0.2602
12022SOL    HW139471   3.100   7.645   8.610 -0.7061 -1.1407  0.2063
12022SOL    HW239472   3.062   7.700   8.746  2.5453  4.7660 -1.0821
12023SOL     OW39473   5.272   1.474   8.492  0.1748 -0.4513 -0.0112
12023SOL    HW139474   5.201   1.470   8.555 -0.5863  0.5292 -0.8002
12023SOL    HW239475   5.345   1.514   8.540 -0.0566 -0.6962  0.5492
12024SOL     OW39476   2.937   1.515   0.974 -0.3787  0.1295 -0.2353
12024SOL    HW139477   3.024   1.511   1.013 -0.1766 -0.0918 -0.7065
12024SOL    HW239478   2.921   1.426   0.943 -0.2103  0.4959 -1.3798
12025SOL     OW39479   4.075   0.486   9.776  0.3727  0.2728 -0.0616
12025SOL    HW139480   4.057   0.538   9.855  1.4830  0.8027 -0.1561
12025SOL    HW239481   4.097   0.399   9.809 -0.9536 -0.0054  0.1228
12026SOL     OW39482   9.986   4.773   3.458 -0.7211 -0.2201  0.1563
12026SOL    HW139483   9.907   4.749   3.409 -0.8776 -1.1912  0.8842
12026SOL    HW239484  10.021   4.690   3.489  1.1568  0.1130 -1.0126
12027SOL     OW39485   1.337  10.615   1.208 -0.3765  0.0198 -0.1484
12027SOL    HW139486   1.422  10.578   1.235 -0.4007 -0.2386 -0.4246
12027SOL    HW239487   1.336  10.702   1.247  0.2685  0.2520 -0.6320
12028SOL     OW39488   7.303   1.105   2.653  0.3134  0.0233  0.2515
12028SOL    HW139489   7.358   1.177   2.623 -0.8941  1.1683  0.7217
12028SOL    HW239490   7.349   1.070   2.729  1.5637 -0.5581 -0.7632
12029SOL     OW39491   1.222  10.503  10.755 -0.0120  0.2757 -0.7011
12029SOL    HW139492   1.313  10.516  10.779 -0.8941  2.1070  1.9417
12029SOL    HW239493   1.211  10.408  10.752  1.2718 -0.0134  2.0548
12030SOL     OW39494   9.790   7.241   4.435 -0.2740 -0.1544 -0.5752
12030SOL    HW139495   9.716   7.215   4.489 -0.0412 -1.2851 -0.8021
12030SOL    HW239496   9.783   7.337   4.430  1.2800  0.2779  3.7024
12031SOL     OW39497   1.620   1.733   6.925  0.0730  0.1801 -0.0543
12031SOL    HW139498   1.609   1.686   7.008 -0.3016  0.2296 -0.0740
12031SOL    HW239499   1.536   1.721   6.880  0.0755  0.6352 -0.1793
12032SOL     OW39500   3.611   4.383   9.167 -0.2773  0.3104 -0.1000
12032SOL    HW139501   3.675   4.346   9.227 -0.3796  1.5401  0.8028
12032SOL    HW239502   3.533   4.328   9.177 -0.2097  0.3606  0.7288
12033SOL     OW39503   4.465   7.013   6.495  0.2948  0.6489  0.4400
12033SOL    HW139504   4.397   6.948   6.515  2.3522 -1.9004 -0.5302
12033SOL    HW239505   4.516   7.020   6.576  1.5946 -0.9146 -0.2063
12034SOL     OW39506   8.752  10.507   5.867 -0.1103 -0.7502  0.5542
12034SOL    HW139507   8.826  10.474   5.919 -0.1459 -1.9136 -0.1045
12034SOL    HW239508   8.766  10.601   5.861  1.2876 -0.9523  0.4969
12035SOL     OW39509   1.732   6.736   3.476 -0.2941 -0.4660  0.0075
12035SOL    HW139510   1.662   6.743   3.541 -2.1901  0.5819 -2.0764
12035SOL    HW239511   1.768   6.825   3.469 -0.2351 -0.5297 -0.5340
12036SOL     OW39512   2.163   8.283   2.603  0.4718 -0.3385 -0.0815
12036SOL    HW139513   2.113   8.340   2.661  1.4509 -0.8944  1.3344
12036SOL    HW239514   2.223   8.342   2.558  0.7827 -0.1149  0.6223
12037SOL     OW39515   6.895   2.713   0.553  0.2794  0.4016  0.5653
12037SOL    HW139516   6.864   2.801   0.534 -0.7741 -0.4651 -1.8953
12037SOL    HW239517   6.958   2.692   0.484 -0.6683 -1.3409  0.1788
12038SOL     OW39518  10.064   2.077   1.488 -0.4303 -0.1858  0.5885
12038SOL    HW139519  10.156   2.071   1.463 -0.8183  0.2357 -0.9923
12038SOL    HW239520  10.060   2.037   1.575  0.7725 -2.6517 -0.4589
12039SOL     OW39521   8.301   8.231   3.085  0.2863 -0.2905  0.3106
12039SOL    HW139522   8.240   8.277   3.143 -1.5993 -0.2488 -1.6317
12039SOL    HW239523   8.280   8.138   3.097 -0.0235 -0.2873 -0.2268
12040SOL     OW39524   1.006   2.660   4.597 -0.1873  0.2422  0.6125
12040SOL    HW139525   0.986   2.613   4.678 -0.3810  0.2430  0.5643
12040SOL    HW239526   1.098   2.639   4.579 -0.6693 -1.2728 -0.1720
12041SOL     OW39527   5.131   0.472   5.024 -0.0340 -0.1333  0.4508
12041SOL    HW139528   5.119   0.532   5.098 -1.3212 -0.4980  0.5540
12041SOL    HW239529   5.109   0.525   4.947 -0.5966 -0.2965  0.4951
12042SOL     OW39530   6.017   2.044   2.435  0.6306  0.2159  0.0586
12042SOL    HW139531   6.044   2.060   2.525  4.3468  1.7622 -1.2198
12042SOL    HW239532   6.046   2.121   2.387 -1.4760 -0.4864 -2.4446
12043SOL     OW39533   1.299   7.539   8.451  0.2049 -0.1423  0.0715
12043SOL    HW139534   1.375   7.491   8.418  0.6367  0.5301  0.0815
12043SOL    HW239535   1.231   7.472   8.461  0.3622 -0.5295 -1.2692
12044SOL     OW39536   4.958   7.101   9.177 -0.5191  0.3425  0.1143
12044SOL    HW139537   4.947   7.192   9.205 -0.4241  1.3555 -3.0039
12044SOL    HW239538   4.869   7.067   9.173 -0.6047  0.4998  0.5976
12045SOL     OW39539   4.665   4.612   9.669 -0.4518 -0.6220 -0.2250
12045SOL    HW139540   4.582   4.565   9.675  0.5271 -2.1598  2.0696
12045SOL    HW239541   4.649   4.694   9.716 -0.8250 -0.6975 -0.2196
12046SOL     OW39542   1.343   8.879   4.053  0.0166  0.4004 -0.4750
12046SOL    HW139543   1.340   8.896   3.959 -2.0610 -0.4248 -0.5844
12046SOL    HW239544   1.263   8.919   4.087 -0.1824 -0.9162  0.6516
12047SOL     OW39545   9.002  10.679   7.677 -0.4257  0.1116  0.4133
12047SOL    HW139546   8.944  10.639   7.613 -1.2766 -1.3356  2.0294
12047SOL    HW239547   9.078  10.707   7.627 -2.6770  2.4426 -1.8256
12048SOL     OW39548   4.948  10.806  10.894  0.1895  0.4280  0.0225
12048SOL    HW139549   4.945  10.880  10.955  4.0911  2.0225 -1.5034
12048SOL    HW239550   5.016  10.749  10.929 -1.7865 -1.7631  0.3878
12049SOL     OW39551   4.289   7.012   7.428 -0.2194  0.7974  0.2236
12049SOL    HW139552   4.292   6.943   7.494 -3.2407  0.8404  0.4665
12049SOL    HW239553   4.296   7.094   7.478 -0.5519  0.7757  0.3043
12050SOL     OW39554   6.689   0.263   1.201 -0.3649  0.3615 -0.2501
12050SOL    HW139555   6.597   0.238   1.191 -1.4518  4.1706 -0.4265
12050SOL    HW239556   6.703   0.268   1.295 -0.8636  1.5288 -0.2324
12051SOL     OW39557  10.056   3.084   0.104  0.2081  0.0543  0.0254
12051SOL    HW139558   9.976   3.050   0.063  1.2612 -0.2857 -1.7967
12051SOL    HW239559  10.029   3.108   0.193 -1.3149 -2.5476  0.3355
12052SOL     OW39560  10.553   2.726   6.095  0.1872  0.3645  0.3875
12052SOL    HW139561  10.570   2.672   6.018 -2.9592  0.6494 -0.5969
12052SOL    HW239562  10.568   2.816   6.066 -0.0565  0.4038  0.3808
12053SOL     OW39563   5.805   9.509   9.712 -0.6455  0.0377 -0.3242
12053SOL    HW139564   5.871   9.507   9.643 -0.3537 -1.2148 -0.0264
12053SOL    HW239565   5.834   9.579   9.771  0.2313 -0.2525 -0.3940
12054SOL     OW39566   5.669   5.549   6.955 -0.6600  1.2798 -0.4291
12054SOL    HW139567   5.595   5.593   6.913 -0.9030 -0.6177 -2.0574
12054SOL    HW239568   5.657   5.456   6.934  1.1654  0.7224  0.8700
12055SOL     OW39569   2.961   1.486   9.801 -0.1657  0.1852  0.1570
12055SOL    HW139570   3.011   1.523   9.728 -0.0509 -0.0583  0.1114
12055SOL    HW239571   2.919   1.561   9.842 -1.2846  0.1843 -0.9613
12056SOL     OW39572   2.077   1.304   6.538 -0.2096 -1.2649  0.0958
12056SOL    HW139573   2.159   1.337   6.573 -0.5860  0.1092 -0.2784
12056SOL    HW239574   2.098   1.276   6.449 -0.7124  1.7296 -1.0219
12057SOL     OW39575   1.021   9.912   4.688  0.8663  0.3617  0.5970
12057SOL    HW139576   0.935   9.950   4.706  1.6811  2.2454  0.5978
12057SOL    HW239577   1.048   9.873   4.771 -1.0380 -2.4338 -0.0346
12058SOL     OW39578  10.250   6.457   4.628  0.2423 -0.2997  0.5367
12058SOL    HW139579  10.235   6.466   4.722  1.7621 -0.2091  0.7906
12058SOL    HW239580  10.203   6.378   4.603 -0.5636 -0.0549  1.2822
12059SOL     OW39581  10.779   9.099   8.909  0.0125  0.0571  0.1587
12059SOL    HW139582  10.790   9.194   8.898  0.6204 -0.0180  0.0940
12059SOL    HW239583  10.856   9.072   8.959 -0.4436 -0.3158  0.6687
12060SOL     OW39584  10.493   5.960   8.801 -0.1599  0.0879 -1.1686
12060SOL    HW139585  10.455   6.046   8.812 -2.1427 -0.8104 -0.8298
12060SOL    HW239586  10.563   5.972   8.737  0.8139  2.2758  0.2594
12061SOL     OW39587   1.008   3.096   9.943 -0.9677  0.3751  0.2491
12061SOL    HW139588   0.984   3.150  10.019  0.9303  1.1214  0.3460
12061SOL    HW239589   1.036   3.013   9.981 -1.2534  0.2920  0.2788
12062SOL     OW39590   6.747   5.441   4.663 -0.6632  0.6303  0.5924
12062SOL    HW139591   6.793   5.375   4.612 -2.4470 -0.0694 -0.1602
12062SOL    HW239592   6.816   5.491   4.707  0.7225 -1.3972  0.7516
12063SOL     OW39593   7.149   3.873   3.274  0.1581 -0.4952  0.0970
12063SOL    HW139594   7.069   3.925   3.288  0.9075  1.5146 -2.6903
12063SOL    HW239595   7.132   3.825   3.193  1.3997 -0.8093  0.0174
12064SOL     OW39596   4.186  10.256   1.470 -0.2525 -0.6024  0.4602
12064SOL    HW139597   4.095  10.236   1.494  0.1167 -3.1286 -0.0716
12064SOL    HW239598   4.234  10.175   1.487  1.4484 -0.0571 -1.4882
12065SOL     OW39599   0.790   6.230   3.226  0.0534 -0.4046 -0.0189
12065SOL    HW139600   0.880   6.216   3.197 -0.2526 -0.4692 -0.9431
12065SOL    HW239601   0.767   6.150   3.273  0.1427 -0.7959 -0.6390
12066SOL     OW39602   2.998   4.225   5.399  0.2123  0.0743 -0.3553
12066SOL    HW139603   3.061   4.297   5.409 -2.1212  2.0520  0.4353
12066SOL    HW239604   2.913   4.268   5.390 -1.4392 -2.6248  1.7299
12067SOL     OW39605   8.567   4.980   0.270 -0.5924 -0.4408 -0.1725
12067SOL    HW139606   8.548   4.929   0.348  0.8382  0.3969  0.7492
12067SOL    HW239607   8.642   4.936   0.230  1.9501  1.9684  1.7011
12068SOL     OW39608   9.590   9.700   7.071 -0.0196 -0.3599  0.3411
12068SOL    HW139609   9.674   9.690   7.026 -0.4196 -0.2535 -0.4290
12068SOL    HW239610   9.612   9.691   7.164  1.0795  1.2113  0.2414
12069SOL     OW39611  10.938   6.481   6.410  0.3097 -0.5722 -0.0519
12069SOL    HW139612  10.911   6.570   6.388 -0.3589 -1.3498 -2.4992
12069SOL    HW239613  11.020   6.469   6.361 -0.8361 -2.1022 -1.6268
12070SOL     OW39614   9.491   3.804   6.251  0.4809 -0.1183 -0.0208
12070SOL    HW139615   9.478   3.763   6.165 -0.1383  0.0283  0.0039
12070SOL    HW239616   9.584   3.789   6.270  0.9200  0.9052 -1.2653
12071SOL     OW39617   9.974   3.527  10.311  0.1589 -0.0315 -0.3554
12071SOL    HW139618   9.908   3.485  10.366  0.7918 -1.6768 -0.8315
12071SOL    HW239619  10.057   3.510  10.356  0.2460  2.4554  0.5064
12072SOL     OW39620   0.866   6.948   1.479  0.4725  0.1961 -0.1267
12072SOL    HW139621   0.834   7.036   1.498  0.9471  0.9988 -2.8208
12072SOL    HW239622   0.817   6.891   1.537 -0.4123  2.1723  1.0917
12073SOL     OW39623   7.072   9.829   0.164  0.3172  0.1801  0.5374
12073SOL    HW139624   7.149   9.786   0.202  0.7860  2.1797  1.9454
12073SOL    HW239625   7.009   9.831   0.236 -0.5691 -0.2804 -0.2277
12074SOL     OW39626   3.694   4.597   3.218  0.0443  0.0715 -0.2741
12074SOL    HW139627   3.715   4.624   3.129  1.1950 -0.8063 -0.2863
12074SOL    HW239628   3.746   4.654   3.274 -0.2543  0.2502 -0.1745
12075SOL     OW39629   0.321   5.438   0.133 -0.2707 -0.2414 -0.2840
12075SOL    HW139630   0.263   5.451   0.209  0.1399 -1.5228  0.2671
12075SOL    HW239631   0.264   5.449   0.057 -1.1829 -1.1467  0.2481
12076SOL     OW39632  10.332   2.223   3.670  0.1842  0.3796 -0.1105
12076SOL    HW139633  10.381   2.143   3.653  0.0409  0.4053 -0.6449
12076SOL    HW239634  10.264   2.197   3.732 -0.0471  0.0263 -0.5160
12077SOL     OW39635   2.536   2.903   1.425  0.5386 -0.3827 -0.3663
12077SOL    HW139636   2.499   2.913   1.338 -2.7534  1.0412  1.1011
12077SOL    HW239637   2.509   2.815   1.453 -0.6414  0.1183  0.1453
12078SOL     OW39638   1.714   9.422   4.857  0.3173 -0.2531  0.7737
12078SOL    HW139639   1.662   9.437   4.936 -1.4144  1.5336 -0.6496
12078SOL    HW239640   1.751   9.508   4.836  1.2090 -0.8252 -0.0539
12079SOL     OW39641   8.191   9.589   1.428 -0.2033  0.0601 -0.1653
12079SOL    HW139642   8.276   9.589   1.384  0.1937 -0.4168  0.5835
12079SOL    HW239643   8.142   9.518   1.387  0.7519 -1.4460  1.2408
12080SOL     OW39644   7.103   0.976   0.627  0.0014 -0.6261  0.1597
12080SOL    HW139645   7.158   1.046   0.591  1.2263 -1.1196  1.0113
12080SOL    HW239646   7.013   1.006   0.614  0.4990  0.6959 -0.2959
12081SOL     OW39647   0.737   2.759   9.603  0.2371  0.7445  0.4523
12081SOL    HW139648   0.665   2.764   9.541  0.8620  3.8201 -0.0985
12081SOL    HW239649   0.695   2.743   9.688 -0.8661 -0.1924 -0.2617
12082SOL     OW39650   1.985  10.519   3.705  0.1483 -0.0316 -0.5680
12082SOL    HW139651   1.897  10.545   3.677  0.5811  1.1331 -0.8918
12082SOL    HW239652   2.042  10.589   3.673  1.2579 -1.0117 -0.7665
12083SOL     OW39653  10.556   5.456   0.455  0.4596  0.2471 -0.3962
12083SOL    HW139654  10.470   5.415   0.470  0.7814 -0.1778  0.2971
12083SOL    HW239655  10.605   5.389   0.407  1.1326 -0.3710  1.1138
12084SOL     OW39656   6.191   8.898   2.053 -0.2960 -0.3068  0.1562
12084SOL    HW139657   6.275   8.943   2.044 -0.0621 -0.6975  0.3577
12084SOL    HW239658   6.126   8.969   2.056 -0.0320 -0.0270 -0.5888
12085SOL     OW39659   0.169   9.929   5.183  0.0359  0.0177 -0.1531
12085SOL    HW139660   0.152   9.998   5.247 -1.4204 -0.4088 -0.0602
12085SOL    HW239661   0.161   9.973   5.098  1.2815  0.4304 -0.0653
12086SOL     OW39662   8.983   8.729   9.389  0.6195  0.4475 -0.1174
12086SOL    HW139663   8.978   8.677   9.469  1.2004  0.0257 -0.3471
12086SOL    HW239664   9.031   8.673   9.328 -0.9947  0.2193 -1.1983
12087SOL     OW39665   9.778   5.155   3.395 -0.1971 -0.0157  0.1397
12087SOL    HW139666   9.847   5.128   3.335 -1.1900 -0.3749 -0.8715
12087SOL    HW239667   9.810   5.130   3.481  0.4256 -1.2713 -0.4339
12088SOL     OW39668   1.308   8.824   8.386  0.3194 -0.8925  0.1277
12088SOL    HW139669   1.341   8.869   8.308  1.3638 -2.1197 -0.1557
12088SOL    HW239670   1.346   8.871   8.460 -0.9138  0.4665 -0.0775
12089SOL     OW39671   1.525   6.847   2.051 -0.0002 -0.1319 -1.0368
12089SOL    HW139672   1.496   6.782   2.115  2.7260 -0.3191  0.0751
12089SOL    HW239673   1.506   6.931   2.092  2.7778 -0.2364  0.6236
12090SOL     OW39674   6.706   1.157   0.192  0.1312 -0.4087 -0.4923
12090SOL    HW139675   6.731   1.215   0.263  0.9329 -0.8875 -0.3743
12090SOL    HW239676   6.789   1.118   0.162 -0.3728 -1.3795 -0.6540
12091SOL     OW39677   4.099   2.588   1.499 -0.7136 -0.4288  0.0158
12091SOL    HW139678   4.053   2.672   1.500  0.7081  0.3798 -0.7830
12091SOL    HW239679   4.066   2.542   1.576  0.1467  1.7642  1.7360
12092SOL     OW39680   8.806   9.905   7.430  0.6096  0.5344 -0.6253
12092SOL    HW139681   8.833   9.866   7.514  1.5005  0.4436 -0.9473
12092SOL    HW239682   8.789   9.829   7.374 -0.6489  0.5872 -0.3282
12093SOL     OW39683   4.397   6.784   1.687 -0.3412 -0.0201  0.4341
12093SOL    HW139684   4.422   6.793   1.779 -1.4056 -0.4887  0.7807
12093SOL    HW239685   4.301   6.788   1.687 -0.3509  0.0929 -0.6685
12094SOL     OW39686   7.833  10.173   8.968  0.2505 -0.1050  0.3704
12094SOL    HW139687   7.741  10.154   8.989 -0.5773  2.1806 -1.0076
12094SOL    HW239688   7.851  10.122   8.889 -0.3897  0.8026 -0.3707
12095SOL     OW39689   4.176   6.843   9.443  0.3366 -0.3342 -0.5209
12095SOL    HW139690   4.172   6.851   9.538 -0.6475 -0.4590 -0.5448
12095SOL    HW239691   4.086   6.858   9.414  0.9580  1.6105 -1.5814
12096SOL     OW39692   3.116   2.325   4.158 -0.6074 -0.0410  0.0599
12096SOL    HW139693   3.117   2.248   4.215  0.4763 -0.6042 -0.7160
12096SOL    HW239694   3.032   2.368   4.178 -0.1178 -0.0701  2.2903
12097SOL     OW39695   2.912  10.291   6.281 -0.2191  0.1176 -0.0169
12097SOL    HW139696   2.886  10.218   6.336  2.5848 -0.2643  0.8924
12097SOL    HW239697   2.995  10.264   6.242  0.0100  2.1274 -1.0440
12098SOL     OW39698   5.537   5.542   3.859  0.2044 -0.0328  0.7919
12098SOL    HW139699   5.538   5.626   3.906 -0.2178  0.0401  0.6764
12098SOL    HW239700   5.444   5.520   3.851  0.2701 -0.0877  0.0788
12099SOL     OW39701   9.297   7.702   7.145  0.1782 -0.3484 -0.1108
12099SOL    HW139702   9.238   7.709   7.070  1.5420 -2.6080 -1.4471
12099SOL    HW239703   9.358   7.774   7.133  1.7921 -2.0370 -2.5027
12100SOL     OW39704   1.953   8.880   2.699  0.4350  0.2464  0.1497
12100SOL    HW139705   2.047   8.874   2.683  0.0045 -0.2136 -2.5030
12100SOL    HW239706   1.946   8.898   2.793  3.2403  2.4872  0.0229
12101SOL     OW39707   3.751  10.743   5.116 -0.6397 -0.6488 -0.0251
12101SOL    HW139708   3.759  10.825   5.164 -2.1159 -0.8541  0.6279
12101SOL    HW239709   3.831  10.695   5.137  0.2171  0.6103 -0.3971
12102SOL     OW39710   1.799   3.800   3.657 -0.3709 -0.0887  0.0353
12102SOL    HW139711   1.729   3.737   3.639 -0.0477  0.1343 -2.1603
12102SOL    HW239712   1.756   3.886   3.653 -0.2169 -0.0167 -0.0700
12103SOL     OW39713   0.187   4.331   1.806  0.0962 -0.0545  0.4013
12103SOL    HW139714   0.273   4.324   1.847  0.1478  1.6087  0.6164
12103SOL    HW239715   0.198   4.292   1.720  0.2104 -2.7937  1.6121
12104SOL     OW39716  10.136   6.292   7.659  0.3238  0.1931 -0.1018
12104SOL    HW139717  10.066   6.262   7.717 -0.3163 -0.8243 -1.3791
12104SOL    HW239718  10.198   6.219   7.656  0.7496  0.5479 -0.0807
12105SOL     OW39719   4.654   1.592   2.540 -0.4045  0.7520  0.5488
12105SOL    HW139720   4.606   1.511   2.525  0.8920  0.3512 -1.6760
12105SOL    HW239721   4.642   1.643   2.460  2.9552  0.5349 -0.1866
12106SOL     OW39722   7.824   2.859   9.714  0.7023  0.4837 -0.2266
12106SOL    HW139723   7.745   2.805   9.718  0.4375  0.7748 -1.2261
12106SOL    HW239724   7.877   2.819   9.645  1.7641 -0.1324  0.9219
12107SOL     OW39725   4.710   2.643   1.034 -0.1670 -0.5070 -0.2726
12107SOL    HW139726   4.683   2.721   1.083 -0.8757 -1.9487  1.7022
12107SOL    HW239727   4.653   2.574   1.067  2.1669 -2.4249 -0.1526
12108SOL     OW39728   4.313   2.348   6.275 -0.0548  0.2750  0.0415
12108SOL    HW139729   4.376   2.396   6.222 -1.8219  2.1264 -0.4451
12108SOL    HW239730   4.327   2.380   6.364  1.8801 -1.7302  0.5126
12109SOL     OW39731   7.044   2.944  10.387 -0.5013  0.1070 -0.3270
12109SOL    HW139732   6.978   3.013  10.395  0.5649  0.8828  2.4892
12109SOL    HW239733   7.124   2.989  10.363 -0.4529 -0.5509 -1.4543
12110SOL     OW39734   6.917   3.734   5.856 -0.2531 -0.1538  0.4140
12110SOL    HW139735   6.852   3.791   5.815 -0.0662 -0.5620 -0.4674
12110SOL    HW239736   6.877   3.706   5.938 -0.8309  0.2905  0.2845
12111SOL     OW39737   4.010   6.056   6.181 -0.6475  0.0349 -0.3830
12111SOL    HW139738   4.084   5.995   6.177 -2.7810 -2.6802 -0.6534
12111SOL    HW239739   3.981   6.053   6.273 -0.8646  0.5158 -0.4321
12112SOL     OW39740   3.047   1.269   5.580  0.1691  0.0730 -0.3011
12112SOL    HW139741   2.962   1.254   5.540  0.9891 -0.0892 -2.0359
12112SOL    HW239742   3.086   1.340   5.529 -0.0431  2.0647  2.2363
12113SOL     OW39743   5.221   6.785   1.186  0.0636 -0.1267  0.8050
12113SOL    HW139744   5.311   6.768   1.159 -1.0188 -2.6397 -1.4074
12113SOL    HW239745   5.218   6.754   1.277  1.7060  1.0747  1.2992
12114SOL     OW39746   4.461   7.844   8.260 -0.0258  0.1020 -0.1281
12114SOL    HW139747   4.498   7.791   8.331  1.1899  1.5221  0.3127
12114SOL    HW239748   4.497   7.804   8.181  0.5596  0.0118  0.1793
12115SOL     OW39749   9.945   1.239   1.380  0.4610  0.4679  0.0776
12115SOL    HW139750   9.926   1.167   1.320 -0.9965  0.3665  0.6429
12115SOL    HW239751   9.864   1.252   1.429  1.6671  0.4427  2.1468
12116SOL     OW39752   4.890   1.961   4.471 -0.3682  0.0995 -0.3529
12116SOL    HW139753   4.952   1.893   4.442  1.8073  1.7828  0.2669
12116SOL    HW239754   4.837   1.979   4.393  0.5774 -0.6515 -1.1904
12117SOL     OW39755   3.591   6.574   3.999 -0.4298  0.1626 -0.3981
12117SOL    HW139756   3.666   6.521   3.974 -1.5174 -0.8983 -1.4553
12117SOL    HW239757   3.623   6.664   3.995  1.0246 -0.3353  0.0248
12118SOL     OW39758   3.289   3.633   7.054  0.6121 -0.0688 -0.1026
12118SOL    HW139759   3.196   3.619   7.074  0.1341  2.0150 -0.7251
12118SOL    HW239760   3.336   3.588   7.124 -0.8809 -0.5771  0.5949
12119SOL     OW39761   4.588   1.490   1.812 -0.0463  0.2714  0.3978
12119SOL    HW139762   4.587   1.456   1.901 -0.2223 -0.2508  0.2007
12119SOL    HW239763   4.532   1.568   1.815 -0.9710 -0.3863  0.4917
12120SOL     OW39764   0.676   3.080   7.384 -0.3384  0.7680  0.2040
12120SOL    HW139765   0.763   3.048   7.361  0.0478  0.6434  1.7724
12120SOL    HW239766   0.619   3.003   7.376 -0.1447  0.6397  0.0578
12121SOL     OW39767   8.503   8.650   2.447 -0.3733 -0.2903 -0.3415
12121SOL    HW139768   8.517   8.585   2.516  0.0249 -1.5328 -1.5453
12121SOL    HW239769   8.450   8.718   2.488  2.6110  0.6565  2.1221
12122SOL     OW39770   5.542   5.725   8.446  0.0023  0.0342  0.5908
12122SOL    HW139771   5.629   5.734   8.407 -0.0171  0.0074  0.5419
12122SOL    HW239772   5.507   5.645   8.407 -0.9982  1.3156 -1.2418
12123SOL     OW39773   6.049   4.977   9.324  0.0713 -0.1449  0.0367
12123SOL    HW139774   5.982   4.919   9.359 -2.1665  2.0422 -0.4821
12123SOL    HW239775   6.069   4.941   9.237 -0.9274 -0.4196 -0.0830
12124SOL     OW39776   7.030   1.917   5.662 -0.1200  0.3242  0.0572
12124SOL    HW139777   6.966   1.982   5.690  1.0397  2.1891 -1.4651
12124SOL    HW239778   7.105   1.930   5.719  0.4517  0.9292 -0.8257
12125SOL     OW39779   7.548  10.796   5.991  0.1113 -0.1900  0.0873
12125SOL    HW139780   7.535  10.715   5.942  1.5799 -0.5227  0.2291
12125SOL    HW239781   7.522  10.775   6.081  3.5316 -1.4877  0.8516
12126SOL     OW39782   7.967   7.599   6.707 -0.6189 -0.1686  0.1934
12126SOL    HW139783   7.977   7.511   6.745  2.0431 -1.1051 -2.5175
12126SOL    HW239784   7.977   7.658   6.782 -0.3480 -2.1005  1.7357
12127SOL     OW39785   9.606  10.888   8.223 -0.0181 -0.1890  0.2548
12127SOL    HW139786   9.609  10.793   8.221 -0.8797 -0.2181  0.4351
12127SOL    HW239787   9.646  10.915   8.139 -1.7883 -0.7543 -0.7893
12128SOL     OW39788   1.684  10.416   9.764 -0.5814 -0.0340 -0.1109
12128SOL    HW139789   1.639  10.386   9.685  0.8503 -1.6167 -0.3591
12128SOL    HW239790   1.765  10.455   9.732 -0.9534  1.2047  0.4444
12129SOL     OW39791   5.392   8.705   6.019  0.4138  1.1299 -0.0055
12129SOL    HW139792   5.326   8.691   5.951  1.2664  0.4388 -0.6883
12129SOL    HW239793   5.346   8.757   6.086  0.1013  3.3148 -1.8747
12130SOL     OW39794   3.084   0.388   2.946  0.1970  0.1453 -0.0012
12130SOL    HW139795   3.040   0.440   2.878 -2.2676 -0.3755  1.1449
12130SOL    HW239796   3.134   0.323   2.898 -2.6998 -1.1761 -1.3557
12131SOL     OW39797   5.611   3.334   0.076 -0.4098 -0.3648 -0.0117
12131SOL    HW139798   5.601   3.260   0.017 -2.2950  0.7522 -1.1140
12131SOL    HW239799   5.647   3.404   0.022 -4.3832  1.4228 -0.5026
12132SOL     OW39800   3.021   5.926   4.279 -0.4016  0.7275 -0.3831
12132SOL    HW139801   3.079   6.002   4.281 -1.5035  1.6142 -1.2046
12132SOL    HW239802   2.934   5.962   4.294 -0.9640 -0.3559 -0.9819
12133SOL     OW39803   8.834   6.542   6.782  0.3191 -0.2864 -0.5179
12133SOL    HW139804   8.760   6.485   6.762 -0.3146  0.1217  0.5941
12133SOL    HW239805   8.846   6.596   6.704 -0.8059 -0.0919 -0.5636
12134SOL     OW39806   8.151   5.737   0.024  0.1109 -0.8480  0.3488
12134SOL    HW139807   8.076   5.768   0.075 -1.0841  0.2241 -1.9674
12134SOL    HW239808   8.113   5.677  -0.040  1.4381 -1.3670  0.0311
12135SOL     OW39809   1.869   3.698   1.430 -0.4587 -0.2758 -0.3455
12135SOL    HW139810   1.951   3.673   1.387  1.4136  0.9361  2.3947
12135SOL    HW239811   1.837   3.771   1.377  2.3278  1.8478  0.7158
12136SOL     OW39812   7.115   8.080   0.295  0.0198 -0.1088  0.3734
12136SOL    HW139813   7.152   8.106   0.210 -1.6672 -0.5339 -0.5112
12136SOL    HW239814   7.079   7.992   0.279  0.0666 -0.3647  1.6491
12137SOL     OW39815   3.495   2.193   9.552 -0.4469 -0.1177 -0.0352
12137SOL    HW139816   3.584   2.189   9.515  0.0537  2.7735  0.7046
12137SOL    HW239817   3.454   2.111   9.524  2.0620 -0.9909 -1.3875
12138SOL     OW39818  10.320   9.045   2.141  0.3253  0.1580  0.3216
12138SOL    HW139819  10.233   9.061   2.178  0.5207  1.7484  0.1255
12138SOL    HW239820  10.323   9.099   2.062  1.0898 -0.7515 -0.2807
12139SOL     OW39821   2.627   3.008   1.649 -0.3300  0.5886  0.1240
12139SOL    HW139822   2.590   2.960   1.576  0.2674  0.1540  0.1082
12139SOL    HW239823   2.557   3.068   1.676 -1.1627 -0.4630  0.3122
12140SOL     OW39824   6.984   5.877   8.147  0.9796  0.6637  0.1558
12140SOL    HW139825   6.984   5.797   8.093  1.2185 -0.5094  1.8720
12140SOL    HW239826   6.910   5.928   8.114 -1.1874 -1.7337  1.1603
12141SOL     OW39827   1.030   9.505   6.309  0.4652  0.7747 -0.2250
12141SOL    HW139828   1.041   9.410   6.304  2.0692  0.6903  3.4851
12141SOL    HW239829   1.045   9.535   6.219 -0.9047 -2.4921 -1.6617
12142SOL     OW39830   9.674   1.379   3.146  0.0606  0.0633  0.5662
12142SOL    HW139831   9.649   1.464   3.183 -0.4751  0.2106 -0.1184
12142SOL    HW239832   9.687   1.397   3.053 -2.0647 -1.0107  0.0292
12143SOL     OW39833   0.864   8.116  10.496  0.2761 -0.1065  0.5481
12143SOL    HW139834   0.804   8.187  10.474 -0.1028 -1.1569 -1.9376
12143SOL    HW239835   0.889   8.078  10.412  1.8364 -1.8269  1.7318
12144SOL     OW39836  10.809   8.029   6.502  0.4634 -0.0193  0.0358
12144SOL    HW139837  10.807   7.999   6.411 -1.0046 -0.4030  0.1873
12144SOL    HW239838  10.780   7.954   6.553  0.0846  0.5862  0.7208
12145SOL     OW39839   6.233   2.341   9.819 -0.3710  0.0249  0.1394
12145SOL    HW139840   6.212   2.394   9.742 -1.1878 -1.2129 -0.5044
12145SOL    HW239841   6.290   2.397   9.872 -1.6075  1.7124 -0.2883
12146SOL     OW39842  10.943   8.540   1.312 -0.2494  0.1862  0.1039
12146SOL    HW139843  10.946   8.559   1.218 -0.8098 -0.9974 -0.1585
12146SOL    HW239844  11.013   8.594   1.350  0.3383  0.2491 -1.0615
12147SOL     OW39845   4.058   4.516   4.688 -0.6410  0.8746 -0.3536
12147SOL    HW139846   3.990   4.583   4.689 -0.2884  1.2367  0.6449
12147SOL    HW239847   4.065   4.490   4.596 -1.9762  0.9748 -0.4968
12148SOL     OW39848   2.244   3.467   3.824  0.3966  0.1825 -0.6472
12148SOL    HW139849   2.189   3.510   3.889 -0.1635  0.1760 -1.1068
12148SOL    HW239850   2.332   3.501   3.840  0.5618 -1.0667  1.1553
12149SOL     OW39851   1.791   4.963   1.897  0.3284  0.6578 -0.2091
12149SOL    HW139852   1.742   4.889   1.932 -0.8644  1.0225 -1.0494
12149SOL    HW239853   1.797   5.024   1.971  1.0255 -0.1318  0.3885
12150SOL     OW39854   3.569   5.566   5.824  0.0829 -0.1070 -0.4053
12150SOL    HW139855   3.607   5.631   5.883 -0.7981  1.9225 -2.0002
12150SOL    HW239856   3.573   5.607   5.738 -0.8809 -2.0114 -1.3826
12151SOL     OW39857   5.670   2.431   4.406  0.7114  0.3015 -0.1293
12151SOL    HW139858   5.641   2.387   4.485  0.3611 -0.5614 -0.7389
12151SOL    HW239859   5.751   2.475   4.432 -0.7929  2.2560  1.4130
12152SOL     OW39860   9.290   2.435   4.210  0.1193 -0.3173  0.0481
12152SOL    HW139861   9.321   2.351   4.177 -1.8861 -0.6855 -0.9859
12152SOL    HW239862   9.196   2.435   4.191  0.1739  2.3742 -0.4113
12153SOL     OW39863   9.123   8.804   2.515  0.2714  0.0403 -0.2061
12153SOL    HW139864   9.142   8.724   2.564  1.1698  0.0578 -0.5215
12153SOL    HW239865   9.059   8.777   2.449 -1.9871  0.2979  1.8030
12154SOL     OW39866   3.586   6.515   2.005 -0.2378  0.6958 -0.5582
12154SOL    HW139867   3.566   6.512   1.912  0.1948  0.0273 -0.6364
12154SOL    HW239868   3.519   6.460   2.046  1.2402 -1.3138 -0.7888
12155SOL     OW39869   7.771   6.485   1.913 -0.5552 -0.1618 -0.1709
12155SOL    HW139870   7.769   6.398   1.875  0.5917 -0.2309 -0.0952
12155SOL    HW239871   7.862   6.512   1.907 -0.8232  0.8621  0.1875
12156SOL     OW39872   5.272   5.634  10.753  0.6288 -0.1007  0.1561
12156SOL    HW139873   5.350   5.678  10.786 -0.1292  0.2997  1.4448
12156SOL    HW239874   5.199   5.688  10.783 -0.1309 -0.1354 -1.5638
12157SOL     OW39875   9.139   0.741   6.072  0.3478 -0.5271 -0.7197
12157SOL    HW139876   9.130   0.815   6.132  0.1662 -2.2173  1.4178
12157SOL    HW239877   9.196   0.679   6.119  3.8294 -0.0827 -4.0948
12158SOL     OW39878   6.704   3.307   8.714  0.1045 -0.0946  0.6188
12158SOL    HW139879   6.673   3.377   8.656 -3.1109 -1.5481  0.4395
12158SOL    HW239880   6.783   3.273   8.672 -0.1509  1.2702 -0.9919
12159SOL     OW39881   1.087   1.250   6.504  0.6627 -0.2626 -0.3020
12159SOL    HW139882   1.122   1.213   6.585 -0.1037 -0.0265  0.1465
12159SOL    HW239883   1.138   1.208   6.435  0.2799 -1.6315  0.2226
12160SOL     OW39884   4.356   0.326   3.372 -0.0561 -0.3058 -0.3977
12160SOL    HW139885   4.323   0.278   3.295  1.0643 -3.1537  0.8327
12160SOL    HW239886   4.277   0.347   3.422 -0.7664  1.2956 -2.1244
12161SOL     OW39887  10.115   4.844   3.166 -0.0639  0.7509 -0.2218
12161SOL    HW139888  10.202   4.805   3.160 -0.3229 -0.2273  2.0482
12161SOL    HW239889  10.058   4.773   3.195 -1.3076  1.8041 -0.0255
12162SOL     OW39890   4.877   0.266   8.984 -0.3380 -0.7337 -0.0312
12162SOL    HW139891   4.817   0.197   8.954 -0.6665 -0.2012 -0.6075
12162SOL    HW239892   4.824   0.320   9.042 -0.3677 -0.3725 -0.3935
12163SOL     OW39893   3.893   5.627   9.477 -0.4109  0.4211 -0.3494
12163SOL    HW139894   3.899   5.619   9.382 -1.2239  1.7329 -0.5309
12163SOL    HW239895   3.805   5.595   9.498 -0.4011  0.5654 -0.0870
12164SOL     OW39896   8.805   5.370   4.812 -0.3316  0.5018 -0.1608
12164SOL    HW139897   8.737   5.405   4.868  0.6090 -0.7236  1.7948
12164SOL    HW239898   8.868   5.330   4.872  1.1700 -0.0242 -2.0259
12165SOL     OW39899   2.549   4.275   7.739  0.0770 -0.4690  0.7470
12165SOL    HW139900   2.583   4.241   7.657  0.7996 -0.8693  1.2049
12165SOL    HW239901   2.455   4.260   7.735 -0.2143  1.5744 -0.9827
12166SOL     OW39902   7.627   3.282   2.046  0.1766 -0.3999 -0.0788
12166SOL    HW139903   7.538   3.287   2.011  0.1482  0.2244  0.0671
12166SOL    HW239904   7.636   3.192   2.078 -0.6027 -0.2958  0.4436
12167SOL     OW39905   2.141   2.914   9.346  0.3649  0.5735  0.3059
12167SOL    HW139906   2.131   2.828   9.306  1.3752  0.6687 -0.1800
12167SOL    HW239907   2.235   2.932   9.341  0.0973  1.9357 -0.0923
12168SOL     OW39908   2.471   4.679   6.044  0.4102 -0.1709  0.1426
12168SOL    HW139909   2.378   4.698   6.028  0.4832  0.1114  0.0396
12168SOL    HW239910   2.510   4.677   5.957  0.4460 -0.5806  0.1703
12169SOL     OW39911   7.682   8.427   1.296  0.3540  0.1039 -0.2033
12169SOL    HW139912   7.752   8.363   1.307  0.2359 -0.0074 -0.0965
12169SOL    HW239913   7.605   8.375   1.273 -0.1140  0.0482  1.3778
12170SOL     OW39914   8.745   5.329   1.140 -0.6746 -0.1122 -0.5357
12170SOL    HW139915   8.762   5.261   1.205 -1.2574  0.2488 -0.0054
12170SOL    HW239916   8.747   5.283   1.056  2.3577 -0.1803 -0.4699
12171SOL     OW39917   4.713   6.878   3.986  0.3010 -0.3578  0.7158
12171SOL    HW139918   4.737   6.961   3.945  0.1748 -1.7129 -2.1944
12171SOL    HW239919   4.703   6.899   4.079  3.0024  2.2970  0.4830
12172SOL     OW39920   0.625   3.233   1.453  0.3197  0.3682  0.0342
12172SOL    HW139921   0.566   3.277   1.514 -0.1960 -0.1816 -0.0561
12172SOL    HW239922   0.696   3.295   1.438 -1.3667  1.9385 -1.6209
12173SOL     OW39923   2.782   7.742   0.667  0.2130  0.2834 -0.4253
12173SOL    HW139924   2.713   7.765   0.605  0.1309 -0.6170 -0.6776
12173SOL    HW239925   2.818   7.826   0.695  0.3565  0.6996 -1.8177
12174SOL     OW39926   0.397   9.451  10.681 -0.1989 -0.1242  0.1020
12174SOL    HW139927   0.303   9.437  10.686  0.0458 -1.9860 -0.2797
12174SOL    HW239928   0.434   9.392  10.747  0.7481  0.0053 -0.2969
12175SOL     OW39929  10.483   3.695   7.897 -0.4375  0.2483 -0.4485
12175SOL    HW139930  10.450   3.671   7.983 -0.4680  0.8509 -0.2915
12175SOL    HW239931  10.578   3.693   7.906 -0.4286 -0.3649 -0.5942
12176SOL     OW39932   4.992   7.504   9.115  0.1161 -0.0608  0.5271
12176SOL    HW139933   4.951   7.579   9.072  0.3402  0.3374  1.0061
12176SOL    HW239934   4.920   7.459   9.159  0.0197  0.0017  0.4355
12177SOL     OW39935   4.568   3.529   7.234  0.1294 -0.8137 -0.1731
12177SOL    HW139936   4.637   3.477   7.192  1.3049  0.0237  0.7071
12177SOL    HW239937   4.600   3.619   7.231 -2.5043  0.1164 -2.9493
12178SOL     OW39938   8.473   6.865   9.810  0.1645  0.5251  0.1751
12178SOL    HW139939   8.482   6.904   9.723 -3.0835 -0.1126 -0.4804
12178SOL    HW239940   8.395   6.905   9.848  1.9389  1.3390  3.1313
12179SOL     OW39941   8.069   8.084   8.201 -0.2792  0.2626 -0.3849
12179SOL    HW139942   8.109   8.128   8.126 -0.0760  0.9414  0.1100
12179SOL    HW239943   8.125   8.008   8.217  0.7721  1.1524  0.2415
12180SOL     OW39944   7.400   5.197   1.372  0.4958  0.5899  0.1502
12180SOL    HW139945   7.385   5.116   1.420  1.5541 -0.1962 -0.8321
12180SOL    HW239946   7.451   5.252   1.432  1.1152 -0.0809  0.2403
12181SOL     OW39947   4.412  10.269   1.305 -0.0160  0.3426 -0.3479
12181SOL    HW139948   4.319  10.274   1.327  0.1111 -1.7242  0.8441
12181SOL    HW239949   4.422  10.323   1.226 -2.3344  0.1352 -0.8078
12182SOL     OW39950   9.604   9.628   4.729  0.6527  0.4100 -0.4771
12182SOL    HW139951   9.611   9.548   4.780 -1.1458  0.9774  0.7307
12182SOL    HW239952   9.686   9.633   4.679  2.3185 -0.3514  2.0745
12183SOL     OW39953   8.245   7.099   5.940  1.0270 -0.1637 -0.4318
12183SOL    HW139954   8.153   7.076   5.928  0.4126  2.0898 -0.3762
12183SOL    HW239955   8.290   7.062   5.864  0.3421 -2.6022  0.3252
12184SOL     OW39956   1.434   4.546  10.277 -0.1169 -0.1589  0.5060
12184SOL    HW139957   1.416   4.452  10.269 -2.7052  0.4656 -2.1920
12184SOL    HW239958   1.527   4.555  10.257  0.0448 -2.0873  0.3062
12185SOL     OW39959   0.387   9.202   9.416  0.3026  0.0227 -0.7551
12185SOL    HW139960   0.313   9.200   9.478  0.3810 -1.7608 -0.6912
12185SOL    HW239961   0.435   9.281   9.440 -0.5047  0.1616  0.5012
12186SOL     OW39962   7.102   4.679   8.491 -0.1131 -0.3394  0.2619
12186SOL    HW139963   7.077   4.758   8.443 -0.1460 -0.2650  0.4021
12186SOL    HW239964   7.020   4.649   8.532  0.0713  0.0282  0.9054
12187SOL     OW39965   9.559   8.788   8.724 -0.0935  0.0407  0.3585
12187SOL    HW139966   9.520   8.846   8.790 -0.0674 -1.9009  2.1621
12187SOL    HW239967   9.653   8.794   8.740 -0.0497  0.0276  0.0976
12188SOL     OW39968   7.506   0.326   8.782 -0.3778  0.2027  0.5452
12188SOL    HW139969   7.440   0.313   8.714  0.2363  1.0119 -0.2158
12188SOL    HW239970   7.469   0.283   8.859 -0.6731 -1.5537 -0.5323
12189SOL     OW39971   9.175   4.883   0.854 -0.3522  0.4701 -0.4643
12189SOL    HW139972   9.202   4.962   0.901 -0.7766  0.4940 -0.2642
12189SOL    HW239973   9.257   4.849   0.817  0.0119  0.3763  0.4008
12190SOL     OW39974   5.843   9.250   3.499  0.3906 -0.0433  0.6209
12190SOL    HW139975   5.897   9.245   3.578  0.5683  1.4575  0.6093
12190SOL    HW239976   5.888   9.314   3.443 -1.6765  1.6565  0.8313
12191SOL     OW39977   4.545   4.226   7.058 -0.1950  0.4603 -0.2838
12191SOL    HW139978   4.485   4.197   6.989 -0.7083  1.1251 -0.1140
12191SOL    HW239979   4.631   4.197   7.028 -0.7091 -1.3196 -0.0838
12192SOL     OW39980   9.531   3.482   5.069 -0.1961  0.1411  0.3682
12192SOL    HW139981   9.600   3.542   5.099 -0.8996  0.7389  0.8316
12192SOL    HW239982   9.532   3.411   5.133  0.7217 -0.4136 -0.2484
12193SOL     OW39983   8.834   5.483   3.337 -0.0937  0.3948  0.1329
12193SOL    HW139984   8.745   5.511   3.315 -0.8050 -0.7066  1.5326
12193SOL    HW239985   8.864   5.437   3.259 -1.3833 -0.6658  0.2396
12194SOL     OW39986   4.040   7.872   3.161 -0.1870  0.3509  0.4395
12194SOL    HW139987   4.071   7.919   3.238 -1.8292 -0.5705  1.6879
12194SOL    HW239988   3.988   7.799   3.196  0.6094 -1.2021 -1.4913
12195SOL     OW39989   8.213   8.224   7.970  0.4004  0.3763 -0.3335
12195SOL    HW139990   8.203   8.152   7.907  0.9746  1.2548 -1.4526
12195SOL    HW239991   8.265   8.289   7.923  0.5750  1.1755  0.9596
12196SOL     OW39992   7.558   0.581   0.348  0.1353 -0.4359 -0.0545
12196SOL    HW139993   7.465   0.594   0.367  0.0269  0.0366 -0.8741
12196SOL    HW239994   7.559   0.518   0.275  0.4200  0.3035 -0.6926
12197SOL     OW39995   1.977   8.814   1.888 -0.2034  0.6387 -0.5671
12197SOL    HW139996   1.951   8.753   1.820  0.0342  0.9550 -0.9413
12197SOL    HW239997   1.917   8.796   1.961 -0.0737 -0.0950 -0.6444
12198SOL     OW39998   0.035   5.101   5.332 -0.1839 -0.3666  0.2459
12198SOL    HW139999   0.094   5.166   5.370 -1.9443  0.4570  1.6424
12198SOL    HW240000   0.003   5.051   5.407  1.4827 -3.1897 -0.8440
12199SOL     OW40001   6.024   2.941  10.571 -0.0396  0.3931 -0.4257
12199SOL    HW140002   6.032   2.856  10.612 -2.4904  0.3400  0.0375
12199SOL    HW240003   6.110   2.958  10.533  0.9017 -1.6067  0.7498
12200SOL     OW40004  10.705   6.177   2.467  0.1068  0.0159  0.0387
12200SOL    HW140005  10.684   6.224   2.548  0.6296  0.2134  0.0605
12200SOL    HW240006  10.675   6.235   2.397 -0.4769 -0.2191  0.0926
12201SOL     OW40007   2.708   2.243   3.365  0.0888 -0.6832  0.0554
12201SOL    HW140008   2.676   2.227   3.276  0.0854 -0.9340  0.1009
12201SOL    HW240009   2.629   2.246   3.419  0.1224 -1.0584  0.1302
12202SOL     OW40010   9.383   7.199   6.558 -0.6122 -0.1125  0.0843
12202SOL    HW140011   9.317   7.187   6.489 -1.2114 -0.1294  0.6581
12202SOL    HW240012   9.438   7.270   6.526 -2.1447  1.2963  0.5370
12203SOL     OW40013   9.322   9.148   1.034 -0.3110 -0.3826 -0.2329
12203SOL    HW140014   9.291   9.184   1.117  1.3581 -0.0939  0.2878
12203SOL    HW240015   9.289   9.058   1.033  1.0959 -0.9475  1.5456
12204SOL     OW40016   7.381   4.322   2.631 -0.5312  0.0194 -0.2678
12204SOL    HW140017   7.451   4.318   2.566 -0.1609  0.1117  0.1312
12204SOL    HW240018   7.311   4.371   2.586  0.4289  1.7101  0.0548
12205SOL     OW40019   8.637   2.923   7.420  0.5181  0.3737  0.1510
12205SOL    HW140020   8.544   2.940   7.432  0.6642  1.2291  0.1444
12205SOL    HW240021   8.673   2.922   7.509  0.5033  0.0408  0.1539
12206SOL     OW40022   2.642   1.671   5.778  0.0483  0.3793 -0.3617
12206SOL    HW140023   2.597   1.701   5.857  0.3104  1.0664 -0.4637
12206SOL    HW240024   2.722   1.628   5.810 -1.6700 -2.7262 -0.0694
12207SOL     OW40025  10.753   9.503  10.845  0.3151  0.0545  0.0972
12207SOL    HW140026  10.785   9.532  10.930  0.3157 -0.7931  0.3951
12207SOL    HW240027  10.742   9.583  10.795  3.8990  0.3579 -0.3663
12208SOL     OW40028   4.392   3.920   1.721  0.0581 -0.2751 -0.2476
12208SOL    HW140029   4.393   3.829   1.751  1.6017  0.5061  2.1863
12208SOL    HW240030   4.484   3.940   1.704  0.2581  1.9897  3.0144
12209SOL     OW40031   5.540   8.637   1.421  0.2363  0.3727 -0.0280
12209SOL    HW140032   5.453   8.598   1.430  0.1671  0.9368  1.8407
12209SOL    HW240033   5.535   8.686   1.339 -0.7849 -0.6650 -0.6065
12210SOL     OW40034   5.244   4.257   7.584 -0.5369  0.0566  0.0074
12210SOL    HW140035   5.311   4.189   7.585 -0.6566 -0.0681 -0.5934
12210SOL    HW240036   5.250   4.297   7.671 -0.1921 -0.4490  0.2207
12211SOL     OW40037   3.663   4.351   8.347  0.2597  0.2734  0.3881
12211SOL    HW140038   3.723   4.294   8.396  0.1769 -1.1063 -1.0768
12211SOL    HW240039   3.599   4.291   8.309 -0.3340  1.4449 -0.4858
12212SOL     OW40040   8.268   4.634   7.306 -0.5553 -1.3326 -0.3079
12212SOL    HW140041   8.180   4.638   7.343  0.3279  0.8385  1.6188
12212SOL    HW240042   8.282   4.541   7.288 -4.3051 -1.4073 -3.3423
12213SOL     OW40043   7.849   2.470   1.761 -0.0457 -0.3542 -0.0732
12213SOL    HW140044   7.852   2.521   1.680 -0.1269 -0.3640 -0.0829
12213SOL    HW240045   7.777   2.508   1.811 -0.7027 -1.0370 -0.4766
12214SOL     OW40046   0.114   3.472   0.266  0.1529  0.0595  0.2771
12214SOL    HW140047   0.103   3.560   0.230 -1.4266 -0.4350 -0.4773
12214SOL    HW240048   0.191   3.437   0.221 -0.3611  0.3494 -0.8431
12215SOL     OW40049   8.750   5.450   6.227  0.7831  0.2532  0.6315
12215SOL    HW140050   8.838   5.428   6.198  0.4333 -0.1049 -0.1663
12215SOL    HW240051   8.759   5.467   6.321  2.1879  2.8566  0.0824
12216SOL     OW40052   7.697   0.075   9.590 -0.2024  0.3279  0.1009
12216SOL    HW140053   7.673   0.020   9.665 -0.7017  1.6587  0.9375
12216SOL    HW240054   7.627   0.140   9.585  1.6507  2.4647  0.7272
12217SOL     OW40055   8.875   4.510   9.844 -0.2484  0.4013 -0.1791
12217SOL    HW140056   8.792   4.540   9.808  1.6693  4.1378 -1.7409
12217SOL    HW240057   8.921   4.472   9.770  0.2332  0.1653  0.2381
12218SOL     OW40058   6.040   3.250   3.092 -0.4264  0.7979 -0.8911
12218SOL    HW140059   6.110   3.266   3.030 -0.9546  3.3074 -0.8873
12218SOL    HW240060   6.081   3.199   3.162  1.8554  3.7386 -0.0124
12219SOL     OW40061   5.022   3.577   4.876 -0.7560 -0.4852  0.3333
12219SOL    HW140062   5.015   3.658   4.927  0.9711  0.0554 -0.2767
12219SOL    HW240063   4.947   3.581   4.816  0.4323  1.6818 -1.0963
12220SOL     OW40064   5.277   2.932  10.691  0.1043 -0.6165 -0.5705
12220SOL    HW140065   5.313   2.918  10.603  0.2449  0.0501 -0.6145
12220SOL    HW240066   5.302   2.853  10.739 -0.2601 -1.1365 -1.2241
12221SOL     OW40067   0.418   1.729   7.758 -0.0734  0.1571  0.5954
12221SOL    HW140068   0.370   1.770   7.830  0.1476  1.1197  0.2114
12221SOL    HW240069   0.479   1.797   7.729 -2.9166  1.2528 -3.1462
12222SOL     OW40070   0.177   8.744   9.066  0.2864 -0.0208 -0.0231
12222SOL    HW140071   0.169   8.649   9.067 -0.6018  0.0494  0.8919
12222SOL    HW240072   0.208   8.765   8.978 -0.6158 -1.0691 -0.6009
12223SOL     OW40073   1.472   8.680   6.633  0.6110  0.2666 -0.0573
12223SOL    HW140074   1.531   8.605   6.640 -1.4627 -1.4977 -0.7374
12223SOL    HW240075   1.516   8.739   6.571  1.8235 -0.8514 -0.2939
12224SOL     OW40076   7.406   3.796   0.596 -0.0223 -0.2772  0.6135
12224SOL    HW140077   7.467   3.793   0.669 -0.3227  1.1145  0.9323
12224SOL    HW240078   7.434   3.872   0.545 -1.3359  0.2276  0.6287
12225SOL     OW40079   1.925   6.350   7.111  0.1877 -0.2039  0.0522
12225SOL    HW140080   1.898   6.276   7.166  1.6709  0.6861  2.0536
12225SOL    HW240081   1.983   6.311   7.045  0.9110 -0.8370  1.0520
12226SOL     OW40082   8.536   8.212   5.778 -0.2997 -0.5094  0.2377
12226SOL    HW140083   8.447   8.208   5.811  0.5090  0.8114  2.7238
12226SOL    HW240084   8.570   8.296   5.811  1.6616 -0.7099 -1.1528
12227SOL     OW40085   5.836  10.923   7.059 -0.1344 -0.2004 -0.0518
12227SOL    HW140086   5.881  10.883   6.985 -0.3517 -0.2238 -0.1705
12227SOL    HW240087   5.752  10.951   7.024  0.1633  0.6890 -0.0527
12228SOL     OW40088  10.115   8.584   0.841  0.4810 -0.2859  0.3610
12228SOL    HW140089  10.157   8.594   0.755  0.6562  1.4019  0.6276
12228SOL    HW240090  10.032   8.630   0.832  0.6912  0.2625  1.2382
12229SOL     OW40091   4.340   0.017  10.781  0.2644  0.3434 -0.6963
12229SOL    HW140092   4.420  -0.030  10.805 -0.6247 -0.7639  0.1743
12229SOL    HW240093   4.342   0.097  10.834  0.7417  0.2611 -0.5915
12230SOL     OW40094   1.010   3.541  10.478 -0.2224 -0.0199 -1.0533
12230SOL    HW140095   0.978   3.602  10.412  1.6678  0.4062 -1.5824
12230SOL    HW240096   0.941   3.474  10.484 -2.8656  2.7335  0.3626
12231SOL     OW40097   8.319   9.841   8.891  0.3026 -0.1527 -0.4708
12231SOL    HW140098   8.232   9.880   8.898  0.8493  0.7484  1.6984
12231SOL    HW240099   8.309   9.754   8.930  0.2147 -0.3468 -0.9162
12232SOL     OW40100   2.129   8.311   6.087 -0.7637  1.1195 -0.0334
12232SOL    HW140101   2.056   8.319   6.025 -0.0739  0.1865 -0.9859
12232SOL    HW240102   2.199   8.270   6.036 -0.3505 -0.1248  1.4907
12233SOL     OW40103   5.305   6.687   7.794 -0.1826  0.1439 -0.3929
12233SOL    HW140104   5.212   6.707   7.783  0.1302  0.3789 -2.7578
12233SOL    HW240105   5.349   6.741   7.729  1.5629 -0.4590  0.2771
12234SOL     OW40106   5.583   0.867   1.782  0.3417 -0.1582 -0.2308
12234SOL    HW140107   5.557   0.859   1.873  0.7546 -2.1851 -0.2809
12234SOL    HW240108   5.670   0.908   1.786  0.6191 -0.7953  0.3116
12235SOL     OW40109   0.120   9.687   4.990 -0.1379 -0.9841  0.2330
12235SOL    HW140110   0.136   9.711   4.898  0.4067 -0.8070  0.3699
12235SOL    HW240111   0.076   9.602   4.985 -0.2526 -0.9011 -0.1982
12236SOL     OW40112   0.547   2.197   6.335 -0.3114  0.4410  0.4824
12236SOL    HW140113   0.629   2.194   6.384 -0.9058 -0.8513  1.4456
12236SOL    HW240114   0.564   2.145   6.257  0.7843  2.8930 -0.9501
12237SOL     OW40115   7.497   1.498   4.838  0.1169  0.2839 -0.3500
12237SOL    HW140116   7.511   1.447   4.918  1.4333  2.4828  0.8841
12237SOL    HW240117   7.404   1.486   4.818 -0.1078 -0.7554  1.1861
12238SOL     OW40118   0.426   3.381   0.569  0.5133  0.1904  0.1772
12238SOL    HW140119   0.357   3.439   0.536  1.1314  0.9726  0.2609
12238SOL    HW240120   0.468   3.430   0.640  0.8966 -0.4449  0.4001
12239SOL     OW40121   6.819   4.145  10.336  0.2250 -0.0111  0.2859
12239SOL    HW140122   6.766   4.150  10.257  0.8439  2.4782 -0.0333
12239SOL    HW240123   6.893   4.203  10.319  0.1586  0.8959  2.8346
12240SOL     OW40124   7.235   7.381   5.780  0.0479  0.2809  0.1041
12240SOL    HW140125   7.232   7.437   5.858  0.7560  0.3254  0.0957
12240SOL    HW240126   7.312   7.410   5.732  0.3805 -0.6619  0.0686
12241SOL     OW40127   7.882   7.633   0.881  0.3191 -0.1597 -0.9217
12241SOL    HW140128   7.920   7.560   0.834  1.2428 -0.1433 -0.2049
12241SOL    HW240129   7.944   7.705   0.868  0.4872 -0.1052  0.1575
12242SOL     OW40130   6.603   4.303   1.801 -0.6005  0.2032  0.4142
12242SOL    HW140131   6.563   4.264   1.723 -0.0676  1.8225 -0.7011
12242SOL    HW240132   6.540   4.286   1.871 -1.2907 -0.8933 -0.4591
12243SOL     OW40133   0.040   0.163   3.243 -0.1642  0.0552  0.2847
12243SOL    HW140134   0.101   0.215   3.294  1.2877 -2.2029  0.9167
12243SOL    HW240135   0.042   0.201   3.156  1.1508  0.8003  0.6395
12244SOL     OW40136   2.495   2.849   4.094  0.5702 -0.1085  0.5215
12244SOL    HW140137   2.434   2.909   4.137 -1.3174 -1.0706 -0.7331
12244SOL    HW240138   2.547   2.906   4.036 -1.6550  0.2827 -1.1582
12245SOL     OW40139   9.946   1.478   6.016 -0.3255  0.3736  0.2841
12245SOL    HW140140   9.935   1.548   6.080 -0.6794 -0.1823  0.8408
12245SOL    HW240141   9.899   1.507   5.939 -0.0724  0.9581  0.3490
12246SOL     OW40142   0.253   9.651   3.679  0.1880  0.0657  0.1368
12246SOL    HW140143   0.182   9.676   3.737  1.2605 -1.4391  2.1699
12246SOL    HW240144   0.328   9.636   3.737  1.3134 -1.4220 -1.6126
12247SOL     OW40145   0.772   2.494   1.604  0.2789 -0.6094 -0.0787
12247SOL    HW140146   0.680   2.493   1.576  0.2030 -0.6277  0.1699
12247SOL    HW240147   0.800   2.584   1.590 -0.9986  0.4947  3.7788
12248SOL     OW40148   9.406   7.534   0.881  0.7758 -0.8624 -0.1320
12248SOL    HW140149   9.493   7.542   0.921  0.4847 -0.2847  0.3940
12248SOL    HW240150   9.345   7.550   0.953  0.2461  0.3184 -0.8351
12249SOL     OW40151  10.620   7.514   5.104 -0.4523 -0.3126  0.3777
12249SOL    HW140152  10.536   7.491   5.063 -0.2677 -0.9217  0.3383
12249SOL    HW240153  10.607   7.603   5.137 -1.0632 -0.3453  0.2304
12250SOL     OW40154   2.100   3.311   3.207 -0.3371 -0.2668 -0.0250
12250SOL    HW140155   2.101   3.396   3.162  0.3321 -0.8240 -1.0790
12250SOL    HW240156   2.190   3.298   3.235 -0.3010 -0.9279 -0.4399
12251SOL     OW40157   9.173  10.794   6.975 -0.0641  0.0704  0.1238
12251SOL    HW140158   9.248  10.811   6.919 -0.9292  2.4973 -0.3485
12251SOL    HW240159   9.098  10.829   6.927 -0.7459  2.7737  3.0347
12252SOL     OW40160   5.197   4.877   1.061  0.1995 -0.0230 -0.6622
12252SOL    HW140161   5.237   4.795   1.032  0.5495  0.3836 -1.3291
12252SOL    HW240162   5.266   4.942   1.055  0.4376 -0.0283  1.6324
12253SOL     OW40163   5.858   9.345   8.630 -0.0751 -0.6352  0.2766
12253SOL    HW140164   5.829   9.436   8.636 -1.0048 -0.8728 -0.4610
12253SOL    HW240165   5.784   9.294   8.661  0.7055 -1.1214  1.3915
12254SOL     OW40166   9.117   5.994   6.197 -0.2251  0.3330 -0.1323
12254SOL    HW140167   9.112   6.088   6.210 -1.0982  0.5386 -1.7234
12254SOL    HW240168   9.042   5.959   6.245 -0.0287  0.4767  0.2766
12255SOL     OW40169   8.707   2.585   2.989  0.7415  0.2662  0.2014
12255SOL    HW140170   8.787   2.533   2.994  0.6815  0.1712  0.1908
12255SOL    HW240171   8.691   2.598   2.896 -0.8498 -2.2141  0.0718
12256SOL     OW40172  10.423   8.027   6.810 -0.2502  0.3766  0.7552
12256SOL    HW140173  10.422   7.936   6.840 -0.2178 -0.0422 -0.4913
12256SOL    HW240174  10.385   8.024   6.723  1.3835  1.2936 -0.0215
12257SOL     OW40175   0.481   8.742  10.287 -0.1184  0.0194  0.2816
12257SOL    HW140176   0.493   8.809  10.354 -2.5886  1.0493 -0.2692
12257SOL    HW240177   0.402   8.695  10.312 -1.0132  0.3340 -1.8277
12258SOL     OW40178   4.342   4.096   3.378 -0.0158  0.4392 -0.2597
12258SOL    HW140179   4.331   4.011   3.420 -0.8158  0.2246 -0.8830
12258SOL    HW240180   4.333   4.078   3.284 -0.4056  1.2416 -0.3798
12259SOL     OW40181  10.819   1.666   9.026  0.5391 -0.0378 -0.1774
12259SOL    HW140182  10.883   1.717   8.977  0.2549  0.2691 -0.2357
12259SOL    HW240183  10.865   1.639   9.105  0.1783  1.7949  0.6914
12260SOL     OW40184   3.730   7.210   3.618 -0.2378 -0.4423 -0.5640
12260SOL    HW140185   3.793   7.153   3.663  0.1784 -0.0783 -0.6772
12260SOL    HW240186   3.783   7.258   3.554 -0.0840  2.0123  1.3302
12261SOL     OW40187   5.792   5.564   8.918  0.6802  0.0686  0.0799
12261SOL    HW140188   5.844   5.531   8.991 -0.5811 -0.5584  0.7263
12261SOL    HW240189   5.762   5.650   8.946  1.4884  0.4898 -0.3508
12262SOL     OW40190   6.543   5.230   5.494  0.6198 -0.2530  0.0101
12262SOL    HW140191   6.530   5.178   5.415  0.1041 -1.7586  1.0754
12262SOL    HW240192   6.614   5.185   5.541  0.1317 -0.0504  0.9614
12263SOL     OW40193   8.749   9.381   1.084  0.0679  0.1278 -0.1509
12263SOL    HW140194   8.787   9.304   1.042 -1.1089 -0.2826 -0.4698
12263SOL    HW240195   8.688   9.345   1.149  0.5916  0.7740  0.7152
12264SOL     OW40196   9.975   2.897   9.898 -0.7771 -0.2009  0.2424
12264SOL    HW140197  10.065   2.926   9.887 -0.8281 -0.3725 -0.6256
12264SOL    HW240198   9.923   2.977   9.898 -0.5463 -0.0421  1.5788
12265SOL     OW40199   4.707   4.447  10.790 -0.7611 -0.1056  0.3148
12265SOL    HW140200   4.758   4.525  10.809  0.0049 -0.5424  0.0829
12265SOL    HW240201   4.616   4.471  10.811 -0.3633  0.4322  1.4250
12266SOL     OW40202   0.324   1.861   2.176  0.3417 -0.1318 -0.4137
12266SOL    HW140203   0.316   1.905   2.260 -1.7896 -0.7796 -0.2577
12266SOL    HW240204   0.309   1.929   2.111 -1.8763 -0.3782 -0.1897
12267SOL     OW40205   0.445   4.434   8.269 -0.6686  0.7798  0.6287
12267SOL    HW140206   0.359   4.393   8.277 -0.7793  0.2302 -2.4338
12267SOL    HW240207   0.426   4.525   8.247 -0.4464  1.3024  2.5893
12268SOL     OW40208   6.004   5.489   3.466  0.1395  0.1822  0.8093
12268SOL    HW140209   5.922   5.447   3.442  0.4765 -0.7397  1.2362
12268SOL    HW240210   5.993   5.512   3.559  0.0372  0.8607  0.6348
12269SOL     OW40211   6.626   6.336   2.734 -0.1983 -0.5587 -0.3949
12269SOL    HW140212   6.549   6.310   2.683 -1.7790  0.5318  1.3122
12269SOL    HW240213   6.638   6.264   2.796  0.3669 -0.8811 -0.8808
12270SOL     OW40214   0.313   4.075   9.856  0.3629  0.2196  0.0412
12270SOL    HW140215   0.345   4.124   9.932 -0.1218  0.2860  0.2061
12270SOL    HW240216   0.352   4.118   9.781  0.1500  0.7008  0.2028
12271SOL     OW40217   2.358   1.419  10.245 -0.3549  0.4775 -0.1316
12271SOL    HW140218   2.275   1.382  10.216 -0.4272 -0.7426  1.5569
12271SOL    HW240219   2.425   1.365  10.203 -0.4024  1.3017 -1.2892
12272SOL     OW40220   0.175   1.322   6.216  0.3032  0.2295 -0.7250
12272SOL    HW140221   0.270   1.321   6.206  0.2789 -0.9700 -0.9207
12272SOL    HW240222   0.147   1.235   6.185 -0.7060  0.0471  0.6533
12273SOL     OW40223   0.558   9.198   2.931  0.5690  0.1156 -0.2260
12273SOL    HW140224   0.596   9.151   2.857  0.8498  0.3242 -0.2140
12273SOL    HW240225   0.623   9.189   3.001  0.2796 -0.1273  0.0104
12274SOL     OW40226   0.878   2.441   8.060  0.0745  0.3104  0.0210
12274SOL    HW140227   0.963   2.442   8.104 -0.0986 -0.0199  0.3625
12274SOL    HW240228   0.826   2.377   8.109 -0.0570 -0.1939 -0.7693
12275SOL     OW40229   2.825   0.204   5.955 -0.0086 -0.2564  0.1378
12275SOL    HW140230   2.869   0.193   6.039 -2.0049 -1.3596  1.0936
12275SOL    HW240231   2.844   0.124   5.907 -1.9213 -1.3259  1.0602
12276SOL     OW40232   7.252   5.832   4.138  0.0202 -0.1844  0.2568
12276SOL    HW140233   7.274   5.748   4.180 -0.6012 -0.5844 -0.2156
12276SOL    HW240234   7.294   5.898   4.194  0.4029 -0.8007  0.7065
12277SOL     OW40235   1.721   6.074   8.699 -0.1901 -0.3404 -0.6868
12277SOL    HW140236   1.629   6.075   8.671  0.3974  1.2356 -2.6455
12277SOL    HW240237   1.730   6.151   8.756 -0.0866 -0.5225 -0.4565
12278SOL     OW40238   6.969   6.138   5.517  0.0816  0.5964 -0.4135
12278SOL    HW140239   7.048   6.191   5.530  0.1773  1.0148 -2.5961
12278SOL    HW240240   6.978   6.102   5.429 -0.9085 -1.5200  0.3279
12279SOL     OW40241   0.174   9.796  10.767 -0.0969  0.0564 -0.3641
12279SOL    HW140242   0.138   9.885  10.767  1.6672  0.8367  2.6755
12279SOL    HW240243   0.239   9.795  10.697  1.2568  1.7767  0.8442
12280SOL     OW40244   0.128   4.968   8.985 -0.2952  0.3474 -0.1835
12280SOL    HW140245   0.077   5.041   8.950  0.8376  1.9235  1.4088
12280SOL    HW240246   0.218   5.001   8.988  0.2146 -1.0955  0.6423
12281SOL     OW40247   5.719   0.239   4.006 -0.1450  0.2565 -0.4245
12281SOL    HW140248   5.644   0.296   3.991  0.2366  1.1327  0.9681
12281SOL    HW240249   5.784   0.294   4.049 -0.0011 -1.3541  1.5307
12282SOL     OW40250   1.449   9.003   2.544  0.1159 -1.1012 -0.3126
12282SOL    HW140251   1.354   9.012   2.534  0.2902 -1.5716 -2.6864
12282SOL    HW240252   1.462   8.912   2.566  0.0238 -1.0877 -0.1989
12283SOL     OW40253   5.981   2.107   7.513 -0.6441  0.2927  0.2955
12283SOL    HW140254   5.914   2.079   7.450  0.0766  0.8328 -0.7167
12283SOL    HW240255   6.056   2.130   7.460 -0.5235  2.1845  1.2423
12284SOL     OW40256   9.993   2.882   0.958  0.0868  0.2295  0.5412
12284SOL    HW140257  10.019   2.789   0.956 -0.6360  0.0576 -0.9977
12284SOL    HW240258  10.001   2.906   1.051  1.4215 -1.0412  0.7869
12285SOL     OW40259   7.862   8.303   4.095  0.3141  0.0933 -0.3847
12285SOL    HW140260   7.925   8.335   4.160  0.8981  0.2993 -1.0474
12285SOL    HW240261   7.886   8.211   4.081 -1.5236 -0.7375  1.7072
12286SOL     OW40262   2.229   4.089   2.306 -0.1119  0.2636 -0.0890
12286SOL    HW140263   2.139   4.105   2.280 -0.7000 -1.2376  0.9640
12286SOL    HW240264   2.232   3.997   2.330  2.0626 -0.0756 -1.4788
12287SOL     OW40265   0.978   9.668   2.969 -0.4640 -0.2114 -0.4863
12287SOL    HW140266   0.995   9.618   2.890 -1.2370 -1.9384  0.4118
12287SOL    HW240267   0.906   9.621   3.012  0.1002  0.5576  1.3546
12288SOL     OW40268   4.829   3.780  10.746  0.3440  0.6456 -0.7478
12288SOL    HW140269   4.838   3.713  10.814  0.3781  1.8149  0.4083
12288SOL    HW240270   4.888   3.850  10.772 -0.7299  1.7444 -1.1993
12289SOL     OW40271   7.210   3.703   6.125  0.4280 -0.0326  0.3599
12289SOL    HW140272   7.269   3.704   6.050 -0.9597  1.2125 -0.7685
12289SOL    HW240273   7.174   3.614   6.126  2.0704 -0.7127  0.8886
12290SOL     OW40274   7.921   5.146   8.890 -0.2871  0.5327  0.0521
12290SOL    HW140275   8.007   5.187   8.893 -0.2348  0.3634  1.7317
12290SOL    HW240276   7.914   5.100   8.974 -0.3553 -2.8389 -1.6926
12291SOL     OW40277   7.261   3.243   4.775 -0.0037 -0.3282  0.2713
12291SOL    HW140278   7.233   3.331   4.800  0.7405  0.0540 -0.2378
12291SOL    HW240279   7.209   3.185   4.831 -0.5614  0.4288  0.5452
12292SOL     OW40280   5.737   3.722   7.880 -0.3565  0.0215  0.2917
12292SOL    HW140281   5.815   3.742   7.931  0.2077 -0.2691 -0.4549
12292SOL    HW240282   5.678   3.679   7.943  0.7306 -1.2612  0.4650
12293SOL     OW40283   1.022  10.429   7.213  0.7086 -0.5154 -0.2807
12293SOL    HW140284   0.964  10.440   7.289  0.7332  0.2298 -0.3666
12293SOL    HW240285   0.995  10.498   7.152  1.1465 -0.6771 -0.6609
12294SOL     OW40286  10.805   1.555   5.354  0.2313 -0.3070  0.6474
12294SOL    HW140287  10.873   1.560   5.287 -1.6767 -1.1231 -1.3879
12294SOL    HW240288  10.746   1.627   5.336 -1.0642 -1.3650  0.5769
12295SOL     OW40289   0.145   0.769   9.175  0.2343  0.0671  0.2306
12295SOL    HW140290   0.121   0.809   9.091  0.7531 -1.1170 -0.4974
12295SOL    HW240291   0.219   0.712   9.154 -0.5592 -1.3515  1.2068
12296SOL     OW40292   5.675   7.436   8.130  0.5155  0.1633 -0.4625
12296SOL    HW140293   5.743   7.368   8.132 -0.6812 -1.0639 -0.4897
12296SOL    HW240294   5.647   7.445   8.221 -1.3306 -1.4746 -0.8343
12297SOL     OW40295   6.463   5.073   4.606  0.1947 -0.3117 -0.4130
12297SOL    HW140296   6.520   5.037   4.538  0.0995  0.6483 -1.0022
12297SOL    HW240297   6.374   5.058   4.574  0.1347 -0.5198 -0.1552
12298SOL     OW40298   2.377   3.251   5.250  0.0798 -0.0025 -0.5030
12298SOL    HW140299   2.451   3.195   5.276 -0.9464 -1.2499 -0.2172
12298SOL    HW240300   2.362   3.230   5.158  0.8138  1.1034 -0.8828
12299SOL     OW40301   4.641   3.295   7.080  0.7480 -0.1526 -0.1105
12299SOL    HW140302   4.552   3.288   7.114 -0.0473 -1.0279 -2.2826
12299SOL    HW240303   4.684   3.215   7.109  0.5878 -0.1078  0.2541
12300SOL     OW40304   6.457   3.767   9.717 -0.0933  0.1116 -0.3189
12300SOL    HW140305   6.402   3.762   9.795 -1.2336  1.6386 -1.0097
12300SOL    HW240306   6.511   3.687   9.720 -2.6228 -1.6215  0.1450
12301SOL     OW40307   6.477   5.756   2.593  0.0715  0.1139 -0.2420
12301SOL    HW140308   6.547   5.737   2.656 -0.2335  0.6146  0.2457
12301SOL    HW240309   6.417   5.681   2.601 -0.8902  1.0226  1.3482
12302SOL     OW40310   2.401   4.816   6.464 -0.7293  1.0201  0.4347
12302SOL    HW140311   2.494   4.806   6.486 -0.8100  0.1797  0.4136
12302SOL    HW240312   2.356   4.750   6.517 -1.0010 -0.5739 -1.6992
12303SOL     OW40313   7.757  10.237   7.688  0.0764  0.0463 -0.0235
12303SOL    HW140314   7.811  10.263   7.613 -1.7836  2.0053 -0.7323
12303SOL    HW240315   7.740  10.318   7.735  1.8399 -1.2785  3.0029
12304SOL     OW40316   3.449   8.464   2.664 -0.6285  0.7806 -0.0037
12304SOL    HW140317   3.507   8.535   2.635 -0.5795  0.7452  0.0091
12304SOL    HW240318   3.424   8.488   2.753 -0.8966  0.9640 -0.1258
12305SOL     OW40319   1.247   4.158   5.291 -0.2513 -0.5930  0.2074
12305SOL    HW140320   1.229   4.248   5.319 -0.1493 -0.2189 -0.9435
12305SOL    HW240321   1.164   4.112   5.305 -0.7874  0.0661 -0.7469
12306SOL     OW40322   5.121   7.343   1.373 -0.3019 -0.0493  0.5770
12306SOL    HW140323   5.107   7.420   1.319  0.2231  0.7415  1.5553
12306SOL    HW240324   5.042   7.337   1.427 -0.3483 -0.2133  0.4921
12307SOL     OW40325   8.655  10.055   9.645 -0.1803 -0.2733  0.7490
12307SOL    HW140326   8.664  10.150   9.645  0.3019 -0.2923 -1.4481
12307SOL    HW240327   8.677  10.029   9.735 -1.6365  1.7792  1.7379
12308SOL     OW40328   9.212   9.988   3.791 -0.3217  0.0952 -0.1433
12308SOL    HW140329   9.156   9.928   3.840 -1.0487  1.1886  0.3988
12308SOL    HW240330   9.224  10.062   3.850  1.2170  0.1311 -0.4940
12309SOL     OW40331   8.129   2.114  10.453 -0.1550 -0.4935  0.5537
12309SOL    HW140332   8.213   2.068  10.453 -0.5388 -1.2292 -0.4336
12309SOL    HW240333   8.145   2.193  10.401  0.1927 -0.1137  1.2364
12310SOL     OW40334   8.943  10.254   4.612  0.2532  0.2235  0.3455
12310SOL    HW140335   8.964  10.209   4.694 -0.6696 -1.6454 -0.4224
12310SOL    HW240336   9.013  10.226   4.551  0.9550  1.6284  0.4803
12311SOL     OW40337   5.934   5.733   5.639 -0.1605  0.3255 -0.1650
12311SOL    HW140338   5.852   5.732   5.589 -0.9185  0.4802  1.0303
12311SOL    HW240339   5.982   5.808   5.605 -0.4826  0.1809 -0.9420
12312SOL     OW40340   3.941   2.661   3.900  0.5143  0.1772 -0.1075
12312SOL    HW140341   3.939   2.656   3.805 -0.2401 -1.3183 -0.0184
12312SOL    HW240342   3.972   2.750   3.919  1.0899  0.3285 -1.7372
12313SOL     OW40343   1.604   4.681   8.053 -0.3826  0.2774 -0.4555
12313SOL    HW140344   1.686   4.661   8.008 -0.4711  0.4030 -0.6707
12313SOL    HW240345   1.542   4.702   7.983 -1.4404 -2.8063 -0.4946
12314SOL     OW40346   6.984   5.526   1.430  0.3935 -0.3643 -0.3600
12314SOL    HW140347   7.035   5.460   1.382  0.3667  0.7807 -1.9805
12314SOL    HW240348   7.019   5.610   1.400  0.1873  0.3932  1.4367
12315SOL     OW40349   8.339   1.751   1.053 -0.2121 -0.2068 -0.3076
12315SOL    HW140350   8.284   1.810   1.104 -1.1828 -1.0868 -0.3121
12315SOL    HW240351   8.426   1.789   1.057 -0.1613 -0.5262  2.4507
12316SOL     OW40352   2.376   1.086   6.872 -0.5901 -0.1681 -0.1997
12316SOL    HW140353   2.382   1.038   6.954  0.8195 -1.4823 -1.0597
12316SOL    HW240354   2.315   1.035   6.819 -2.2676  1.2011  0.3471
12317SOL     OW40355   6.847   0.908   8.374 -0.3968  0.0270  0.0011
12317SOL    HW140356   6.893   0.839   8.422  1.1555  0.5640 -0.6593
12317SOL    HW240357   6.905   0.984   8.382 -2.7468  1.6808  1.9522
12318SOL     OW40358   0.942   3.404   4.024  0.2252 -0.2753 -0.4160
12318SOL    HW140359   0.866   3.435   4.074  0.6379 -0.7994  0.5377
12318SOL    HW240360   0.948   3.465   3.951 -0.9597 -0.0646 -0.3568
12319SOL     OW40361   9.825   8.991   5.397 -0.5061 -0.2263 -0.6185
12319SOL    HW140362   9.737   9.003   5.434 -0.1653 -1.3365  0.5918
12319SOL    HW240363   9.809   8.971   5.305 -1.4269  1.5605 -0.8625
12320SOL     OW40364   8.294   5.738   7.712 -0.1993 -0.2582  0.0964
12320SOL    HW140365   8.366   5.676   7.716 -0.9527 -1.1084  0.6269
12320SOL    HW240366   8.335   5.821   7.685  0.9032 -0.8184  0.0305
12321SOL     OW40367   7.255   6.777   7.001 -0.5393  0.7148 -0.3009
12321SOL    HW140368   7.263   6.844   6.933 -0.3381  0.6477 -0.3441
12321SOL    HW240369   7.342   6.736   7.004 -0.1826  1.5554  0.8643
12322SOL     OW40370   0.569   2.925   1.835 -0.7725 -0.0248  0.2296
12322SOL    HW140371   0.619   2.845   1.851  0.7869  1.1516  1.3310
12322SOL    HW240372   0.532   2.913   1.747  1.7687 -0.7458 -0.7806
12323SOL     OW40373   4.527   6.222   5.553 -0.2728 -0.0081 -0.0676
12323SOL    HW140374   4.492   6.297   5.600 -0.7192 -1.0128  1.2192
12323SOL    HW240375   4.587   6.260   5.489 -0.6630  1.4547  0.4154
12324SOL     OW40376   4.701   9.763   5.224 -0.2544 -0.1750 -0.2586
12324SOL    HW140377   4.692   9.791   5.316 -0.4522 -0.1438 -0.2874
12324SOL    HW240378   4.623   9.797   5.182  0.9255  1.8199 -0.9305
12325SOL     OW40379   5.857   6.820  10.450 -0.2326  0.8647  0.1867
12325SOL    HW140380   5.864   6.754  10.519 -1.3597  0.3759 -0.1496
12325SOL    HW240381   5.910   6.893  10.482  0.1768  0.2000  1.0489
12326SOL     OW40382   4.692   6.871   3.678 -0.7714  0.4017  0.3631
12326SOL    HW140383   4.668   6.884   3.769 -2.0905  1.6377 -0.1345
12326SOL    HW240384   4.722   6.781   3.673  0.4391  0.6964  2.2522
12327SOL     OW40385   1.267  10.749   6.848 -0.0680  0.4412  0.4503
12327SOL    HW140386   1.256  10.685   6.918  0.6179  0.7985  0.8868
12327SOL    HW240387   1.361  10.766   6.846  0.2510 -1.3513 -2.1375
12328SOL     OW40388   1.441   2.739   1.146 -0.1348  0.0189  0.0752
12328SOL    HW140389   1.358   2.704   1.178  0.1725 -0.5514  0.2531
12328SOL    HW240390   1.441   2.831   1.175 -0.1170 -0.3300  1.2061
12329SOL     OW40391   0.038   7.516   7.831 -0.3121  0.0217  0.7877
12329SOL    HW140392   0.131   7.496   7.836  0.1022  1.3775 -0.9387
12329SOL    HW240393  -0.005   7.431   7.822  0.9988 -0.4350 -1.4227
12330SOL     OW40394  10.444   8.670   9.727  0.3968  0.0181 -0.3980
12330SOL    HW140395  10.516   8.617   9.691  0.5096 -0.9223  1.1769
12330SOL    HW240396  10.365   8.631   9.689  0.4752 -1.3641  0.8090
12331SOL     OW40397   8.586   9.804   0.908 -0.2104 -0.5454  0.1832
12331SOL    HW140398   8.607   9.838   0.821  0.4982  0.2270  0.6452
12331SOL    HW240399   8.666   9.759   0.936  0.1402  0.5848  1.0775
12332SOL     OW40400   7.045  10.096   5.026  0.7466  0.1736  0.1756
12332SOL    HW140401   7.038  10.190   5.007  0.2194  0.2206  0.5838
12332SOL    HW240402   6.969  10.078   5.082  0.1234 -0.7563 -0.9459
12333SOL     OW40403   4.249   9.015   4.584  0.7640 -0.2437  0.2540
12333SOL    HW140404   4.344   9.021   4.596  0.6621  1.3980  0.3684
12333SOL    HW240405   4.214   9.089   4.634 -0.6005 -0.9961  0.4345
12334SOL     OW40406   4.256   3.814   2.271  0.5371  0.0775  0.4677
12334SOL    HW140407   4.231   3.827   2.363  1.0778  1.2597  0.4566
12334SOL    HW240408   4.313   3.888   2.251  1.2759 -0.7435 -0.5172
12335SOL     OW40409   0.791   5.255   6.485  0.3729 -0.0984 -0.3743
12335SOL    HW140410   0.770   5.214   6.569 -0.2889  0.7577 -0.1118
12335SOL    HW240411   0.867   5.311   6.504 -1.4654  2.2856  0.3593
12336SOL     OW40412   9.173   8.264   3.733  0.4545 -0.5430 -0.4876
12336SOL    HW140413   9.197   8.310   3.653  0.6254  0.0427 -0.1095
12336SOL    HW240414   9.122   8.189   3.704 -0.7317  0.4596 -1.0699
12337SOL     OW40415   8.719   4.732   8.028 -0.1001 -0.2979 -0.1543
12337SOL    HW140416   8.630   4.745   8.061 -0.4832 -1.0338 -0.9079
12337SOL    HW240417   8.709   4.679   7.950  1.1072 -1.5188  0.4941
12338SOL     OW40418   3.747   4.149   5.740 -0.2188  0.2361  0.1635
12338SOL    HW140419   3.730   4.079   5.676 -1.2058  0.0716  0.6099
12338SOL    HW240420   3.730   4.108   5.825  2.5781 -0.0080  0.6594
12339SOL     OW40421   6.966   5.520   6.117  0.5465  0.1672 -0.3556
12339SOL    HW140422   6.959   5.455   6.047  0.8760 -0.7293  0.4324
12339SOL    HW240423   7.043   5.493   6.168 -0.0984  0.4186  0.7608
12340SOL     OW40424   7.668   5.362   9.322  0.2107 -0.0472 -0.1586
12340SOL    HW140425   7.717   5.283   9.344  0.1418  0.0372  0.2928
12340SOL    HW240426   7.653   5.406   9.406  0.4378  0.5575 -0.4286
12341SOL     OW40427   8.588   6.443  10.772  0.8227 -0.3876  0.4016
12341SOL    HW140428   8.589   6.531  10.735  0.2127  0.4083  2.2254
12341SOL    HW240429   8.669   6.437  10.822  0.6907 -0.7234  0.5776
12342SOL     OW40430   1.534   1.534   7.535 -0.1495  0.7814 -0.5514
12342SOL    HW140431   1.484   1.458   7.567 -0.7321  0.6688 -1.7260
12342SOL    HW240432   1.487   1.610   7.570 -0.0885  0.6336 -0.1395
12343SOL     OW40433   7.306   6.977  10.103 -0.6404 -0.2529  0.6042
12343SOL    HW140434   7.345   6.960  10.018  1.4532 -1.8255  1.8157
12343SOL    HW240435   7.373   6.950  10.166 -2.5341 -0.1185  2.7614
12344SOL     OW40436   0.014   3.525   6.297  0.2223  0.1596  0.4279
12344SOL    HW140437   0.014   3.430   6.295  0.7762  0.1615 -0.0457
12344SOL    HW240438  -0.070   3.549   6.335 -0.3302 -0.5035 -0.3650
12345SOL     OW40439   8.533   2.002   6.591 -0.5450  0.4022 -0.1714
12345SOL    HW140440   8.553   2.006   6.498  0.3612  0.2141  0.0130
12345SOL    HW240441   8.459   2.062   6.602 -0.4390  0.6843 -0.9555
12346SOL     OW40442   9.478   6.198   9.522 -0.0685 -0.0706  0.2621
12346SOL    HW140443   9.474   6.272   9.583 -0.0901  1.6627 -1.7627
12346SOL    HW240444   9.527   6.233   9.446 -1.1565 -1.7496 -1.2418
12347SOL     OW40445   4.892   5.889   7.937  0.3310  0.3446 -0.2882
12347SOL    HW140446   4.815   5.908   7.882 -1.2053 -1.9158  0.9603
12347SOL    HW240447   4.954   5.849   7.876 -0.8833 -1.0457 -0.6600
12348SOL     OW40448   4.193   4.708  10.590  0.1191 -0.1007  0.9125
12348SOL    HW140449   4.115   4.654  10.594  0.0836 -0.0943  0.2236
12348SOL    HW240450   4.264   4.648  10.569 -0.0971  0.2904 -0.9941
12349SOL     OW40451   2.196   6.622   5.745 -0.2101 -0.0111 -0.3796
12349SOL    HW140452   2.270   6.681   5.759 -1.1702  1.0742  0.1583
12349SOL    HW240453   2.167   6.639   5.656 -0.3351  0.1689 -0.3058
12350SOL     OW40454   1.362   8.024  10.674  0.5763  0.1913 -0.0865
12350SOL    HW140455   1.453   8.040  10.699  0.7294 -2.2564  1.0419
12350SOL    HW240456   1.314   8.024  10.756 -0.3511  0.8904 -0.6263
12351SOL     OW40457   6.190   9.349   5.842  0.3099 -0.1294 -0.1824
12351SOL    HW140458   6.122   9.390   5.788  1.1245 -0.8401 -1.7621
12351SOL    HW240459   6.141   9.298   5.907 -0.6723 -0.1825 -0.9491
12352SOL     OW40460   8.131   2.254   5.579 -0.9634 -0.0005  0.3402
12352SOL    HW140461   8.223   2.232   5.596 -0.8261  0.8644  0.7455
12352SOL    HW240462   8.093   2.173   5.544 -0.8858 -1.4005  3.3413
12353SOL     OW40463   1.392   3.429   1.837  0.2077  0.1389 -1.1234
12353SOL    HW140464   1.411   3.454   1.928 -0.5011  0.7373 -1.1329
12353SOL    HW240465   1.469   3.457   1.787  0.6507 -0.2951 -0.6957
12354SOL     OW40466   5.312   4.932   5.258  0.0105  0.3513 -0.7005
12354SOL    HW140467   5.394   4.904   5.300 -1.2012 -2.7016 -0.3113
12354SOL    HW240468   5.272   4.992   5.322  0.1052 -1.1534  0.8117
12355SOL     OW40469   0.787   1.911   5.770 -0.1324 -0.1989  0.5003
12355SOL    HW140470   0.827   1.898   5.856 -0.4971 -1.5892  0.4791
12355SOL    HW240471   0.693   1.917   5.787 -0.1698 -0.0492  0.2423
12356SOL     OW40472   5.634   6.502   1.119  0.8582 -0.8301  0.3163
12356SOL    HW140473   5.642   6.566   1.191 -0.1314  0.1072 -0.3886
12356SOL    HW240474   5.712   6.446   1.128  0.4335 -1.1150  2.4931
12357SOL     OW40475   3.552   4.141   3.266  0.1831 -0.6775 -0.8455
12357SOL    HW140476   3.624   4.197   3.235  1.8051 -2.9235 -1.3142
12357SOL    HW240477   3.505   4.116   3.186 -0.2559 -0.3639 -0.6861
12358SOL     OW40478   8.303   5.435   3.944 -0.2812  0.4573 -0.2121
12358SOL    HW140479   8.325   5.426   4.037 -0.9967 -1.8569 -0.2439
12358SOL    HW240480   8.388   5.433   3.899 -0.0387 -0.4089  0.2629
12359SOL     OW40481   1.343   0.940   2.883  0.2844  0.2431  0.1072
12359SOL    HW140482   1.344   1.036   2.880  0.9439  0.2363 -0.0062
12359SOL    HW240483   1.250   0.917   2.886  0.1409  0.9066  0.9178
12360SOL     OW40484   8.986   4.762   7.999  0.0974  0.4287 -0.6402
12360SOL    HW140485   8.894   4.776   8.020  0.5384 -0.4048  1.9605
12360SOL    HW240486   8.984   4.713   7.916 -1.8304 -0.5235 -0.0588
12361SOL     OW40487   4.724  10.117   9.288 -0.0017  0.4059  0.0950
12361SOL    HW140488   4.740  10.180   9.217 -0.1337 -0.4420 -0.6922
12361SOL    HW240489   4.629  10.113   9.296 -0.0369 -0.7190 -0.7884
12362SOL     OW40490   6.489   8.389   3.327 -0.3808  0.5373 -0.6801
12362SOL    HW140491   6.396   8.412   3.323 -0.7431 -0.8545 -0.3895
12362SOL    HW240492   6.490   8.295   3.342  1.0857  0.4998 -0.9352
12363SOL     OW40493   0.408   0.925   6.560  0.0933  0.6561  0.6812
12363SOL    HW140494   0.331   0.951   6.510 -0.3101  1.5212  1.7295
12363SOL    HW240495   0.380   0.845   6.606  0.0753  0.5310  0.4526
12364SOL     OW40496   2.081   4.771   6.779  0.5533  0.0244  0.0300
12364SOL    HW140497   1.999   4.748   6.734  1.0508  0.1864 -0.9723
12364SOL    HW240498   2.147   4.714   6.739  1.1807  0.8500 -0.1302
12365SOL     OW40499   0.399   3.461   5.881 -0.3882  0.0134  0.3668
12365SOL    HW140500   0.484   3.499   5.904 -0.2420 -0.4772  0.6292
12365SOL    HW240501   0.413   3.366   5.883 -1.7063 -0.1833  3.3890
12366SOL     OW40502   8.387   7.379   9.726 -0.0037  0.4091  0.0204
12366SOL    HW140503   8.326   7.305   9.721  1.9653 -1.2352 -0.5609
12366SOL    HW240504   8.472   7.338   9.742  0.9470  2.6575  0.7934
12367SOL     OW40505   3.124   9.680   3.968 -0.3382 -0.4331  0.1254
12367SOL    HW140506   3.045   9.661   3.917 -0.0418 -0.6414 -0.2654
12367SOL    HW240507   3.175   9.739   3.913  0.1557 -0.9520  0.0186
12368SOL     OW40508   7.224   7.422   6.475  0.4101 -0.3057 -0.8890
12368SOL    HW140509   7.141   7.451   6.513  1.8066 -0.3714  2.4399
12368SOL    HW240510   7.256   7.356   6.537  3.6502  0.8128 -1.2719
12369SOL     OW40511   9.045   0.271  10.839  0.0036 -0.8509 -0.3999
12369SOL    HW140512   9.058   0.191  10.789  0.7552 -0.9666 -0.0203
12369SOL    HW240513   9.080   0.252  10.926  2.1157  0.5466 -0.8855
12370SOL     OW40514   8.922   0.410   7.980 -0.2224 -0.2501 -0.4476
12370SOL    HW140515   8.890   0.373   8.062  0.3987 -0.5153 -0.3209
12370SOL    HW240516   8.843   0.435   7.932 -0.5636  1.5004  0.9569
12371SOL     OW40517   4.298   9.718   3.493  0.2651 -0.2372  0.2602
12371SOL    HW140518   4.362   9.784   3.520  0.9477 -0.8229  0.0951
12371SOL    HW240519   4.306   9.716   3.397  0.2358 -0.5464  0.2646
12372SOL     OW40520   6.169   6.408   4.271 -0.6842  0.7904 -0.1475
12372SOL    HW140521   6.244   6.417   4.330 -0.4941  1.3906 -0.4812
12372SOL    HW240522   6.167   6.490   4.221 -1.8491  0.9826  0.1931
12373SOL     OW40523   8.826   0.299  10.468  0.5011  0.8443  0.0783
12373SOL    HW140524   8.856   0.311  10.378 -0.6111 -0.0526 -0.4259
12373SOL    HW240525   8.787   0.211  10.469  0.5982  0.8084  1.4600
12374SOL     OW40526   9.856   9.031   2.671 -0.4147  0.0872  0.5443
12374SOL    HW140527   9.877   8.945   2.707 -0.0074  0.5242  1.3603
12374SOL    HW240528   9.942   9.072   2.657 -0.6664  1.4763  2.8874
12375SOL     OW40529   8.984   6.328   1.385  0.8567  0.0527 -0.4720
12375SOL    HW140530   9.075   6.298   1.394  0.8508  0.2410  0.2191
12375SOL    HW240531   8.948   6.325   1.474  0.9478  2.3722 -0.3141
12376SOL     OW40532   3.218   0.692   8.400 -0.6842 -0.0762  0.2009
12376SOL    HW140533   3.234   0.774   8.355  0.5238 -0.4132  0.0209
12376SOL    HW240534   3.296   0.677   8.454 -1.1614 -0.7845  0.7173
12377SOL     OW40535   6.900   6.418   2.887 -0.2611 -0.2104 -0.5489
12377SOL    HW140536   6.905   6.499   2.837  2.7651 -0.2647 -0.4431
12377SOL    HW240537   6.866   6.354   2.824 -1.2444  0.8043 -1.0710
12378SOL     OW40538   1.536   9.515   8.229  0.3067  0.6563  0.8750
12378SOL    HW140539   1.562   9.529   8.320  0.3580  2.2742  0.6300
12378SOL    HW240540   1.525   9.603   8.194  1.0010  0.0441 -0.9013
12379SOL     OW40541   6.882  10.019   8.168 -0.2095 -0.5581 -0.3243
12379SOL    HW140542   6.872  10.110   8.140  0.1949 -1.2072 -2.6991
12379SOL    HW240543   6.971  10.013   8.200 -0.4832  0.0633  0.5616
12380SOL     OW40544   7.840   9.979   2.446  0.0756  0.2821  0.3927
12380SOL    HW140545   7.908   9.984   2.379  0.5787 -1.0224  0.7906
12380SOL    HW240546   7.840  10.066   2.486  1.9562  0.1223  0.8142
12381SOL     OW40547   2.443   0.843   9.840  0.0197  0.5248  0.0705
12381SOL    HW140548   2.538   0.844   9.851  0.0293  0.8244 -0.0410
12381SOL    HW240549   2.420   0.934   9.822 -0.2146  0.3358 -0.5739
12382SOL     OW40550   1.072   3.163   7.613 -0.5712  0.0978 -0.0766
12382SOL    HW140551   0.985   3.129   7.635  0.3523 -2.0926  0.3792
12382SOL    HW240552   1.109   3.192   7.696 -0.0081 -1.0885  0.0964
12383SOL     OW40553   6.546   3.232   1.400 -0.5992  0.3832  0.5547
12383SOL    HW140554   6.471   3.173   1.396 -0.4122 -0.0691  2.8969
12383SOL    HW240555   6.589   3.223   1.315 -2.1284 -0.7514 -0.1186
12384SOL     OW40556  10.095   3.711   2.183  0.0871 -0.1108 -0.1107
12384SOL    HW140557  10.147   3.779   2.140  2.8922 -1.1590  1.4573
12384SOL    HW240558  10.138   3.629   2.159 -0.6541 -0.9959  1.4539
12385SOL     OW40559   8.430   6.189   5.735  0.2764  0.4880 -0.0385
12385SOL    HW140560   8.395   6.162   5.820  0.3300  3.9902  1.1753
12385SOL    HW240561   8.358   6.237   5.694  1.0801  1.0223 -0.8403
12386SOL     OW40562  10.284   2.180   1.737  0.2897  0.1264 -0.2192
12386SOL    HW140563  10.311   2.121   1.667 -0.6054 -1.8668  1.0925
12386SOL    HW240564  10.356   2.178   1.799  0.7082  1.2420 -0.6461
12387SOL     OW40565   6.397   9.280   7.928 -0.7048 -0.0328  1.1072
12387SOL    HW140566   6.462   9.334   7.972 -1.9743  1.0182  1.7302
12387SOL    HW240567   6.331   9.343   7.896 -0.6501 -0.9192 -0.8396
12388SOL     OW40568   2.539   4.101   9.282 -0.0989  0.4144 -0.6761
12388SOL    HW140569   2.563   4.160   9.354  0.4777 -0.5743 -0.0422
12388SOL    HW240570   2.607   4.115   9.216  1.2911 -1.1232  0.3968
12389SOL     OW40571   4.837   9.870   6.211  0.1194 -0.2809  0.6244
12389SOL    HW140572   4.777   9.925   6.160 -1.2433 -1.5893  0.7693
12389SOL    HW240573   4.924   9.889   6.175 -0.2323  2.3665  1.0547
12390SOL     OW40574   9.277   4.511   1.256 -0.2487 -0.0230  0.3951
12390SOL    HW140575   9.290   4.445   1.324  2.4293 -1.3561 -1.3235
12390SOL    HW240576   9.252   4.461   1.179 -0.6621  1.2196 -0.2801
12391SOL     OW40577   6.143   6.815   3.112  0.2251 -0.0845  0.7938
12391SOL    HW140578   6.172   6.883   3.172 -2.2473  0.5718  1.2844
12391SOL    HW240579   6.075   6.856   3.059  0.3833 -1.4837 -0.5501
12392SOL     OW40580   1.710   6.075   3.724 -1.1627  0.3032  0.4998
12392SOL    HW140581   1.727   6.021   3.647 -1.1436  1.2966 -0.1966
12392SOL    HW240582   1.621   6.053   3.750 -1.2482  0.1367  0.0573
12393SOL     OW40583   5.732   1.209  10.831 -0.5753  0.2233  0.4413
12393SOL    HW140584   5.792   1.274  10.795 -1.2248 -0.1016 -1.2730
12393SOL    HW240585   5.769   1.125  10.803  0.3041 -0.1782  2.7032
12394SOL     OW40586   2.561   7.684   3.612 -0.0841 -0.2336  0.0182
12394SOL    HW140587   2.629   7.667   3.546  0.0321  0.4832 -0.0496
12394SOL    HW240588   2.552   7.779   3.613  1.3531 -0.0864  2.4690
12395SOL     OW40589   6.330   8.938   9.557  0.3267  0.7095  0.4412
12395SOL    HW140590   6.268   8.974   9.620  1.1767 -0.0113  1.6946
12395SOL    HW240591   6.335   9.005   9.488 -0.0616  1.8113  1.4694
12396SOL     OW40592   6.978   2.977  10.682 -0.1288  0.4933 -0.2413
12396SOL    HW140593   7.055   3.034  10.675 -0.3172  0.6918 -0.7534
12396SOL    HW240594   6.938   2.982  10.595 -1.2542  1.1481  0.3039
12397SOL     OW40595   5.536   2.019   6.754  0.0434 -0.0217  0.0683
12397SOL    HW140596   5.591   2.097   6.758 -1.0049  0.6700  1.4349
12397SOL    HW240597   5.597   1.946   6.767  0.6396  0.7438  1.7005
12398SOL     OW40598   1.115   9.751   0.854  0.1588 -0.2771 -0.0253
12398SOL    HW140599   1.108   9.707   0.769  0.6545  1.7499 -1.1548
12398SOL    HW240600   1.050   9.707   0.909  1.3957 -3.1347 -0.7526
12399SOL     OW40601   4.089   4.640   3.896  0.4997 -0.0675 -0.1212
12399SOL    HW140602   4.125   4.571   3.840 -0.3509  0.8604 -1.8537
12399SOL    HW240603   3.997   4.647   3.870  0.4478  1.3675  0.3692
12400SOL     OW40604   1.489   4.971   6.303 -0.2998  0.1333  0.1096
12400SOL    HW140605   1.543   4.979   6.381  0.2705  0.9417 -0.3606
12400SOL    HW240606   1.449   4.884   6.310  2.5836 -1.3026 -0.5127
12401SOL     OW40607  10.554   1.626   9.995 -0.5406  0.2577  0.3519
12401SOL    HW140608  10.540   1.714   9.960  0.6554 -0.4471 -1.9824
12401SOL    HW240609  10.468   1.584   9.989 -0.8400  0.8766  0.3035
12402SOL     OW40610   2.141   6.679   8.715 -0.7111  0.8374 -0.1416
12402SOL    HW140611   2.162   6.765   8.681  1.4919  0.1831 -0.4976
12402SOL    HW240612   2.069   6.694   8.777 -0.1135  2.9564  0.0715
12403SOL     OW40613   7.328   7.324   2.854 -0.8995  0.2271 -0.3518
12403SOL    HW140614   7.247   7.350   2.897 -0.6614  1.1825 -0.4717
12403SOL    HW240615   7.381   7.404   2.852  1.1291 -1.0014  2.1406
12404SOL     OW40616   5.399   5.355   3.376 -0.5023 -0.2196 -0.3303
12404SOL    HW140617   5.355   5.437   3.353  0.5441 -0.1425 -2.1422
12404SOL    HW240618   5.466   5.381   3.440 -0.2950  0.2974 -0.7625
12405SOL     OW40619   9.221   9.781   6.202 -0.2998 -0.3957 -0.3639
12405SOL    HW140620   9.154   9.836   6.243 -0.7342 -1.3799  0.2811
12405SOL    HW240621   9.176   9.740   6.128  0.5275  1.4895 -1.9116
12406SOL     OW40622   0.284   6.376   6.304  0.0882  0.0219 -0.1033
12406SOL    HW140623   0.228   6.345   6.233 -0.6143  2.3170 -0.5903
12406SOL    HW240624   0.369   6.334   6.287 -1.0217 -2.3005 -0.2038
12407SOL     OW40625   6.936   0.153   2.567  0.0180 -0.1424  0.9421
12407SOL    HW140626   6.949   0.175   2.475 -1.1456  3.7094  1.6112
12407SOL    HW240627   7.021   0.118   2.595  1.1391  0.9203 -0.9905
12408SOL     OW40628   7.957   3.299   2.845  0.0876 -0.3565  0.2707
12408SOL    HW140629   7.986   3.386   2.819 -0.6368 -0.8667 -2.3550
12408SOL    HW240630   8.035   3.244   2.840 -0.0646 -0.4691 -0.9828
12409SOL     OW40631   4.735   8.173   0.511 -0.8965 -0.0443 -0.1482
12409SOL    HW140632   4.773   8.088   0.534  0.6536  0.6663 -0.0435
12409SOL    HW240633   4.679   8.153   0.436 -1.0045 -1.2555  0.2270
12410SOL     OW40634   6.670   9.572   4.792 -0.3836 -0.5563 -0.2875
12410SOL    HW140635   6.576   9.562   4.804 -0.2539 -1.2585  0.2483
12410SOL    HW240636   6.697   9.631   4.863 -0.6403  0.8661 -1.3620
12411SOL     OW40637   0.345   5.365  10.004 -0.3222 -0.1209  0.2834
12411SOL    HW140638   0.412   5.325  10.059  0.2429  0.2320 -0.1450
12411SOL    HW240639   0.290   5.414  10.065 -1.3054 -1.9080  0.8881
12412SOL     OW40640   4.866   2.288   3.841  0.2572  0.0068 -0.0765
12412SOL    HW140641   4.956   2.258   3.832  0.5460  0.2622  1.7225
12412SOL    HW240642   4.871   2.358   3.907 -1.4895 -1.1167  1.2893
12413SOL     OW40643  10.181   7.432  10.091  0.0245 -0.2463  0.0861
12413SOL    HW140644  10.106   7.492  10.097  0.8319  0.7001  1.0022
12413SOL    HW240645  10.196   7.403  10.181  0.2826 -1.0360 -0.2048
12414SOL     OW40646  10.192   0.958  10.239  0.1502 -0.1957  0.3202
12414SOL    HW140647  10.264   0.963  10.177 -0.0001  0.1633  0.1678
12414SOL    HW240648  10.133   0.891  10.204  0.3193 -0.3565  0.3463
12415SOL     OW40649   7.031   9.545   6.003 -0.1061 -0.5088 -0.4623
12415SOL    HW140650   7.120   9.558   5.971  0.3176 -0.8227  0.5655
12415SOL    HW240651   6.975   9.560   5.927  0.8134 -0.1082 -1.0582
12416SOL     OW40652   3.169   4.814   9.472  0.0871 -0.4677 -0.2173
12416SOL    HW140653   3.177   4.877   9.543 -1.4096  1.7056 -1.9227
12416SOL    HW240654   3.250   4.824   9.422 -1.5849  2.6352 -2.4379
12417SOL     OW40655   6.467   9.876   3.322  0.1575 -0.5817  0.4683
12417SOL    HW140656   6.512   9.857   3.239 -1.6657 -1.4759 -0.3413
12417SOL    HW240657   6.374   9.873   3.300 -0.3652 -1.4829  2.7077
12418SOL     OW40658   7.460   5.475   4.410  0.1011 -0.2448 -0.4073
12418SOL    HW140659   7.555   5.460   4.404  0.4578  0.8198  1.7820
12418SOL    HW240660   7.434   5.498   4.321  2.0907  0.3962 -0.8628
12419SOL     OW40661   4.401   3.548   9.809 -0.1297  0.4499 -0.4144
12419SOL    HW140662   4.420   3.564   9.717 -0.6905  0.4523 -0.5270
12419SOL    HW240663   4.460   3.477   9.834 -0.6578 -0.2012 -1.0200
12420SOL     OW40664   4.193   0.406   4.367 -0.0182 -0.0810  0.6378
12420SOL    HW140665   4.236   0.431   4.449 -0.0473  2.5848 -0.0833
12420SOL    HW240666   4.263   0.368   4.314  0.2427 -0.7902  1.4899
12421SOL     OW40667   3.605   5.074   0.796  0.3623  0.5979  0.4276
12421SOL    HW140668   3.603   4.978   0.803  0.8900  0.6760  1.8190
12421SOL    HW240669   3.527   5.096   0.745  1.2977 -0.6990 -1.5909
12422SOL     OW40670   7.134   3.917   8.913  0.5530  0.0104 -0.1808
12422SOL    HW140671   7.212   3.972   8.909 -0.4460  1.8805  3.2285
12422SOL    HW240672   7.063   3.973   8.882 -0.0530 -0.2879  0.6440
12423SOL     OW40673   9.089   0.610  10.970  1.0645  0.2821  0.1621
12423SOL    HW140674   9.169   0.575  10.931  1.4977  1.8688 -0.3889
12423SOL    HW240675   9.115   0.639  11.057  0.6162 -1.0557  0.7734
12424SOL     OW40676   4.057   6.200   5.700 -0.1924 -1.0352  0.0961
12424SOL    HW140677   4.138   6.209   5.750 -0.2765 -1.4257  0.3117
12424SOL    HW240678   3.993   6.252   5.749  0.3208  0.6919 -1.0148
12425SOL     OW40679   4.801   3.786   5.587  0.1500  0.3236  0.1208
12425SOL    HW140680   4.883   3.833   5.600 -0.0042  1.3606 -2.3730
12425SOL    HW240681   4.823   3.716   5.525 -0.2096 -1.3522  1.8071
12426SOL     OW40682   2.995   3.475   5.204 -0.5468 -0.0026 -0.1423
12426SOL    HW140683   3.006   3.561   5.244  0.5964  0.7827 -2.0980
12426SOL    HW240684   2.950   3.492   5.122  1.9018 -0.9686 -1.7209
12427SOL     OW40685   2.152   6.924   8.048  0.1425 -0.0522  0.0615
12427SOL    HW140686   2.140   6.860   7.978  1.6883  0.9019 -1.0987
12427SOL    HW240687   2.156   6.871   8.128  0.9293 -1.3606 -0.8226
12428SOL     OW40688   1.477   8.720   8.679 -0.3596  0.4154 -0.2920
12428SOL    HW140689   1.565   8.710   8.716 -1.0151 -1.2740  0.8761
12428SOL    HW240690   1.421   8.737   8.754 -0.8517  2.8932 -1.1829
12429SOL     OW40691   8.652   0.501   7.973 -0.7225  0.3788  0.4047
12429SOL    HW140692   8.569   0.508   7.925 -1.0118  2.2204  1.1024
12429SOL    HW240693   8.625   0.484   8.064 -0.2583 -0.9885  0.2923
12430SOL     OW40694   9.405   4.717  10.556  0.4444  0.7606 -0.9455
12430SOL    HW140695   9.407   4.628  10.591  0.8545  1.0044 -0.3371
12430SOL    HW240696   9.339   4.762  10.608 -0.8322  0.4152 -2.2407
12431SOL     OW40697   3.575   1.588   2.889  0.6421  0.4111  0.2315
12431SOL    HW140698   3.588   1.533   2.966  0.5753 -0.6820 -0.5262
12431SOL    HW240699   3.655   1.578   2.838 -0.1549 -0.5363 -0.8553
12432SOL     OW40700   5.406   4.718   7.048  0.1154 -0.1096  0.1778
12432SOL    HW140701   5.312   4.710   7.061  0.1954 -2.6684 -0.6132
12432SOL    HW240702   5.439   4.753   7.131 -1.4380  0.1300  0.7025
12433SOL     OW40703   0.412   2.559  10.595  0.0776  0.3203  0.1387
12433SOL    HW140704   0.372   2.476  10.570  1.3235 -0.5395  0.9079
12433SOL    HW240705   0.356   2.592  10.665 -0.0608 -0.1848  0.2676
12434SOL     OW40706   0.687   3.465   4.177  0.3867  0.7967 -0.1372
12434SOL    HW140707   0.660   3.392   4.121 -1.1031  0.7827  0.5649
12434SOL    HW240708   0.688   3.429   4.265 -0.0534  1.5374  0.1807
12435SOL     OW40709   7.071   7.216  10.790  0.0484  0.2609 -0.0280
12435SOL    HW140710   6.986   7.214  10.745 -0.6973  1.4548  1.2628
12435SOL    HW240711   7.127   7.158  10.739 -0.9891  0.9686 -2.0372
12436SOL     OW40712   5.356   4.059   8.087 -0.1960 -0.6151 -0.0950
12436SOL    HW140713   5.404   3.991   8.039 -0.0200 -1.1884  0.8821
12436SOL    HW240714   5.308   4.011   8.155  0.0050  0.2493  0.6632
12437SOL     OW40715   0.560   4.140  10.891  0.6031  0.3130  0.1305
12437SOL    HW140716   0.472   4.156  10.855  0.8069  0.0598 -0.4923
12437SOL    HW240717   0.597   4.072  10.834  1.5798  1.1218 -0.2151
12438SOL     OW40718  10.600   3.377  10.717  0.4220  0.1723  0.1344
12438SOL    HW140719  10.648   3.389  10.635 -0.8394  0.5337 -0.5580
12438SOL    HW240720  10.661   3.406  10.785  2.2383 -2.0255 -0.4845
12439SOL     OW40721   7.207   2.689   2.643 -0.2964  0.0363  0.1260
12439SOL    HW140722   7.216   2.780   2.614  0.2045  1.4351  4.3290
12439SOL    HW240723   7.112   2.675   2.647 -0.3705 -0.3035 -2.4170
12440SOL     OW40724   5.634   7.820   4.852 -0.6001  1.3143 -0.3774
12440SOL    HW140725   5.725   7.840   4.876 -0.1029  1.0270 -1.9511
12440SOL    HW240726   5.601   7.768   4.926  1.0139  0.0727 -0.5009
12441SOL     OW40727   2.656   1.552   4.501  0.7611  0.8099 -0.0320
12441SOL    HW140728   2.623   1.641   4.491 -0.7096  0.3135  0.1885
12441SOL    HW240729   2.747   1.562   4.530  0.2156  2.2418  1.2435
12442SOL     OW40730   5.761   7.209   4.972  0.2052 -0.2764 -0.4129
12442SOL    HW140731   5.717   7.190   4.889 -3.3995  2.0315  0.8237
12442SOL    HW240732   5.746   7.131   5.026 -0.0453 -0.5731 -0.9128
12443SOL     OW40733   3.517   8.260   5.755 -0.0463 -0.1604 -0.1369
12443SOL    HW140734   3.539   8.217   5.673  2.1552 -1.2088  0.9621
12443SOL    HW240735   3.508   8.189   5.818  0.7037  0.7598  1.0433
12444SOL     OW40736   6.898   9.837   3.469 -0.4143  0.2075 -0.0622
12444SOL    HW140737   6.980   9.858   3.424 -0.6354  1.0080 -0.1027
12444SOL    HW240738   6.873   9.751   3.434  1.3340 -0.8686  1.3007
12445SOL     OW40739   4.634   1.959   9.924  0.1749  0.2645 -0.8131
12445SOL    HW140740   4.687   2.038   9.908 -0.2046  0.8120  0.5590
12445SOL    HW240741   4.572   1.986   9.992 -1.9039 -0.3635 -2.4297
12446SOL     OW40742   0.152   3.883   1.218 -0.6910  0.2591  0.4981
12446SOL    HW140743   0.216   3.880   1.147 -1.1532  1.4585  0.0206
12446SOL    HW240744   0.135   3.791   1.239  0.7208 -0.0746  0.2144
12447SOL     OW40745   7.924  10.056   3.451  0.6019  0.0037 -0.1969
12447SOL    HW140746   7.945   9.975   3.405 -1.2193 -0.9890  0.6741
12447SOL    HW240747   7.828  10.061   3.448  0.4941  0.4392  2.5735
12448SOL     OW40748   4.228   6.312   2.708 -0.1438  0.2324  0.1957
12448SOL    HW140749   4.188   6.377   2.766 -0.5586  0.7304 -0.6433
12448SOL    HW240750   4.258   6.362   2.632  1.7698 -0.2034  0.6571
12449SOL     OW40751   1.212   4.865   4.967  0.4790 -0.0338  0.2317
12449SOL    HW140752   1.195   4.775   4.940  0.7034 -0.0089  0.0017
12449SOL    HW240753   1.134   4.891   5.017  0.5163 -0.4296  0.4904
12450SOL     OW40754   0.934   9.639   1.024  0.1847  0.0324  0.6045
12450SOL    HW140755   0.938   9.672   1.114  1.5152 -2.0263  1.3334
12450SOL    HW240756   0.840   9.636   1.004 -0.0598  1.7947  1.4175
12451SOL     OW40757   6.831   7.539   3.177 -0.1756 -0.4558  0.1888
12451SOL    HW140758   6.738   7.559   3.190 -0.0559  0.6337 -0.5448
12451SOL    HW240759   6.858   7.597   3.106  1.4163  0.2429  1.3447
12452SOL     OW40760   4.261   7.316   9.794  0.4032 -0.1187 -0.3221
12452SOL    HW140761   4.261   7.231   9.837  0.2325 -0.1873 -0.4571
12452SOL    HW240762   4.343   7.319   9.745 -0.5257 -1.0463 -1.9808
12453SOL     OW40763   8.604   6.987   5.774 -0.4620 -0.0900 -0.4089
12453SOL    HW140764   8.600   7.008   5.681 -0.6965  2.3687  0.1181
12453SOL    HW240765   8.697   6.977   5.793 -0.2466  1.7537 -0.4336
12454SOL     OW40766  10.529   1.212   0.719  0.5685 -0.3398 -0.5864
12454SOL    HW140767  10.517   1.133   0.667  0.5817 -0.4918 -0.3586
12454SOL    HW240768  10.518   1.183   0.809 -3.5922  0.6363 -0.6650
12455SOL     OW40769   9.081   1.030   6.548  0.2819  0.4094  0.6644
12455SOL    HW140770   9.085   1.034   6.644 -1.0620 -0.9096  0.8026
12455SOL    HW240771   9.032   1.109   6.524  1.0961  1.0302  1.0156
12456SOL     OW40772   6.434   1.079   4.814  0.2102  0.0187 -1.0477
12456SOL    HW140773   6.499   1.149   4.824  0.4162 -0.1318 -1.3144
12456SOL    HW240774   6.358   1.122   4.774 -0.9988  0.8371  1.9811
12457SOL     OW40775   0.232   3.559   0.808 -0.3784  0.0955  0.4379
12457SOL    HW140776   0.229   3.529   0.717 -0.4769 -0.0830  0.5008
12457SOL    HW240777   0.222   3.654   0.802  1.0065  0.2316  0.1695
12458SOL     OW40778   3.179   5.240   2.804 -0.2421 -0.1072  0.1464
12458SOL    HW140779   3.269   5.236   2.833 -0.1479  0.0840 -0.1080
12458SOL    HW240780   3.142   5.315   2.850 -0.2164 -0.0717  0.1104
12459SOL     OW40781   5.085   2.180   3.173  0.5066  0.7327 -0.3021
12459SOL    HW140782   5.066   2.102   3.120 -0.5101 -0.1122  1.2602
12459SOL    HW240783   5.109   2.247   3.109  0.4924 -0.5967 -1.7434
12460SOL     OW40784  10.512   3.266   1.506 -0.6041  0.0744  0.4536
12460SOL    HW140785  10.543   3.285   1.595 -2.3175 -1.6964  1.4753
12460SOL    HW240786  10.436   3.323   1.495 -0.9335 -0.3585  0.4759
12461SOL     OW40787   9.667   8.713   5.284  0.7551  0.4833 -0.3655
12461SOL    HW140788   9.677   8.632   5.236  0.2754  1.2617 -1.8029
12461SOL    HW240789   9.731   8.773   5.244  0.2950  1.1629 -0.0938
12462SOL     OW40790   8.901   9.143   3.852 -0.3838  0.5637  0.4131
12462SOL    HW140791   8.830   9.143   3.917 -0.4634  0.2110  0.3277
12462SOL    HW240792   8.903   9.233   3.820 -0.3233  0.7467  0.9239
12463SOL     OW40793  10.475   5.702   9.816  0.4423 -0.2511  0.4285
12463SOL    HW140794  10.436   5.754   9.886 -1.7009 -1.2850  0.0269
12463SOL    HW240795  10.551   5.659   9.856 -0.1820 -0.0423  1.8318
12464SOL     OW40796   0.765   8.916   2.210 -0.3250 -0.7598 -0.2021
12464SOL    HW140797   0.728   8.998   2.178  1.5776 -0.0143 -0.5420
12464SOL    HW240798   0.727   8.849   2.153  0.6080  0.2268 -2.0375
12465SOL     OW40799  10.978   0.212   7.830  0.6880 -0.2391  0.4022
12465SOL    HW140800  10.959   0.118   7.841  0.7144 -0.1587  1.1624
12465SOL    HW240801  10.918   0.255   7.891  1.2478  0.1964  0.6404
12466SOL     OW40802   1.179   1.566   5.027 -0.4919 -0.1064 -0.0587
12466SOL    HW140803   1.085   1.561   5.011 -0.6797  2.5453  0.0806
12466SOL    HW240804   1.187   1.617   5.107  1.0573 -1.0332  0.4014
12467SOL     OW40805   5.282   6.862   5.288  0.3419  0.5337 -0.2501
12467SOL    HW140806   5.375   6.885   5.282  0.1798  1.0120 -1.0636
12467SOL    HW240807   5.267   6.803   5.214  0.4667 -1.2160  1.0931
12468SOL     OW40808   6.642   8.853   8.139  0.1120 -0.0451  0.2395
12468SOL    HW140809   6.621   8.815   8.224 -2.1168  0.4608 -0.0634
12468SOL    HW240810   6.631   8.947   8.151  1.6538  0.2013 -0.1199
12469SOL     OW40811   8.947   8.515   8.410  0.6615  0.2004 -0.8630
12469SOL    HW140812   9.015   8.447   8.408  0.3286 -0.1485 -0.0102
12469SOL    HW240813   8.991   8.592   8.446  0.6941  0.0805 -0.6512
12470SOL     OW40814  10.157   8.161   4.253  0.3656  0.1956 -0.3703
12470SOL    HW140815  10.154   8.148   4.158  1.6689  0.5026 -0.4629
12470SOL    HW240816  10.123   8.249   4.267 -1.3252 -0.4187 -0.3942
12471SOL     OW40817   0.842   2.773   5.186  0.8147 -0.3816  0.5033
12471SOL    HW140818   0.868   2.847   5.240  1.1850  1.3877 -1.9799
12471SOL    HW240819   0.760   2.742   5.224 -0.9118  3.2173 -0.1469
12472SOL     OW40820   1.597   5.942  10.365  0.1431 -0.3131  0.4703
12472SOL    HW140821   1.643   6.019  10.330 -0.0968 -0.2578  0.2737
12472SOL    HW240822   1.505   5.969  10.369  0.0726 -0.5578  0.4925
12473SOL     OW40823   6.653   5.512   8.068  0.1018  0.2312  0.1229
12473SOL    HW140824   6.636   5.533   8.159  1.4004  1.9160  0.0018
12473SOL    HW240825   6.573   5.536   8.022 -0.5512 -0.6129  0.8054
12474SOL     OW40826   0.019   5.278   7.270  0.5124 -0.1111  0.0324
12474SOL    HW140827  -0.057   5.221   7.283  0.4882  0.1796  1.2963
12474SOL    HW240828   0.022   5.331   7.350 -1.4859  4.0619 -2.5189
12475SOL     OW40829   9.650   4.541   6.676 -0.5040 -0.5526  0.0670
12475SOL    HW140830   9.630   4.464   6.622 -0.8074 -0.1441 -0.4172
12475SOL    HW240831   9.655   4.613   6.613  0.9101 -0.3653  0.3844
12476SOL     OW40832   2.509   3.181   3.480  0.4764  0.4451 -0.3408
12476SOL    HW140833   2.543   3.102   3.520 -0.3136  0.4167  0.2992
12476SOL    HW240834   2.450   3.218   3.546 -0.0936  0.9202 -1.1028
12477SOL     OW40835   2.544   3.539   4.696  0.4541  0.5286 -0.4869
12477SOL    HW140836   2.618   3.503   4.745 -0.0438 -1.9783 -1.4716
12477SOL    HW240837   2.578   3.549   4.607  0.2433  1.4200 -0.4658
12478SOL     OW40838  10.637   6.557   2.597  0.2984 -0.0461 -0.3660
12478SOL    HW140839  10.713   6.614   2.605  0.0970  0.4697 -1.9858
12478SOL    HW240840  10.656   6.485   2.657  0.9834  1.2359  0.9938
12479SOL     OW40841   3.150   8.021   2.770 -0.7692  0.0143 -0.2493
12479SOL    HW140842   3.102   8.098   2.738  1.1073  0.6627 -1.5748
12479SOL    HW240843   3.163   7.967   2.691  1.0797  0.0684  0.0051
12480SOL     OW40844   2.776   6.346   8.337 -0.5641 -0.9182  0.1911
12480SOL    HW140845   2.827   6.292   8.276  0.5975 -0.7629  0.9987
12480SOL    HW240846   2.691   6.358   8.294  0.0882 -1.1642 -1.1972
12481SOL     OW40847   1.795   3.329  10.867  0.8966 -0.2577 -1.1578
12481SOL    HW140848   1.847   3.291  10.938 -1.6555  0.1952  1.0036
12481SOL    HW240849   1.770   3.416  10.898 -0.4211 -0.1189 -2.5375
12482SOL     OW40850   3.539  10.408   7.255 -0.4160  0.0891  0.3157
12482SOL    HW140851   3.501  10.489   7.290  0.4479  0.6204  0.0663
12482SOL    HW240852   3.586  10.369   7.329 -0.7686 -0.1416  0.4168
12483SOL     OW40853   0.514   1.499   1.930  0.0339  0.2001  0.2674
12483SOL    HW140854   0.589   1.446   1.903  0.5240 -0.3374  2.6095
12483SOL    HW240855   0.440   1.437   1.933 -0.1811  0.4104 -0.5067
12484SOL     OW40856   7.432   2.795   5.863  0.5185 -0.3958 -0.0380
12484SOL    HW140857   7.428   2.825   5.953  0.1122 -0.2633 -0.1025
12484SOL    HW240858   7.526   2.790   5.844  0.6003 -0.1574  0.3003
12485SOL     OW40859   5.636   5.277   1.911 -0.2375 -0.7605 -0.6715
12485SOL    HW140860   5.713   5.248   1.962  0.0308  0.7894 -0.1567
12485SOL    HW240861   5.672   5.338   1.847 -1.0978  0.3781 -0.0906
12486SOL     OW40862   1.918   1.276   9.401  0.7733 -0.3170  0.1500
12486SOL    HW140863   1.843   1.216   9.405 -0.6925  1.3854 -1.0285
12486SOL    HW240864   1.967   1.247   9.324  1.4264 -1.4978  0.9827
12487SOL     OW40865   9.305   4.525   6.714 -0.0776 -0.4800  0.4795
12487SOL    HW140866   9.350   4.474   6.781  0.5236 -0.1836  0.3124
12487SOL    HW240867   9.283   4.462   6.646 -1.6181 -0.9668  1.4233
12488SOL     OW40868   8.981  10.054   5.326 -0.4267  0.3446  0.2987
12488SOL    HW140869   9.041  10.089   5.260  0.5881  1.0595  1.5852
12488SOL    HW240870   8.902  10.031   5.276  0.5998  0.1546 -1.2749
12489SOL     OW40871   6.424   4.372   1.064 -0.6241  0.2509  0.0134
12489SOL    HW140872   6.426   4.328   0.979  1.0245 -1.9531  1.1260
12489SOL    HW240873   6.422   4.465   1.043 -0.5417 -0.2610 -2.4332
12490SOL     OW40874   0.309   7.510   7.796 -1.0857  0.1904  0.1100
12490SOL    HW140875   0.307   7.448   7.722 -0.6717  1.7668 -1.2482
12490SOL    HW240876   0.392   7.491   7.840 -0.2568  0.7495 -1.1745
12491SOL     OW40877   1.138   6.029   7.578 -0.3004  0.2020  0.2060
12491SOL    HW140878   1.127   6.005   7.486 -1.4135  0.3774  0.2906
12491SOL    HW240879   1.125   5.948   7.626  1.4153 -0.1243  0.1462
12492SOL     OW40880   2.836  10.848   1.479  0.0075  0.7960  0.3587
12492SOL    HW140881   2.815  10.924   1.533 -3.1790  1.4260 -1.5689
12492SOL    HW240882   2.867  10.885   1.396 -1.0671  0.0451 -0.4070
12493SOL     OW40883   5.742   2.859   9.132 -0.6011 -0.1501 -0.4174
12493SOL    HW140884   5.748   2.825   9.042  0.1197 -1.7357  0.1974
12493SOL    HW240885   5.824   2.906   9.145 -0.7483  0.1644 -0.6189
12494SOL     OW40886  10.477  10.424   8.012 -0.2327 -0.1794 -0.2365
12494SOL    HW140887  10.419  10.363   7.967 -0.4503  1.1826 -1.8516
12494SOL    HW240888  10.530  10.463   7.943 -0.0896  1.4543  0.7603
12495SOL     OW40889   0.385   7.760  10.107  0.4237  0.0753  0.5207
12495SOL    HW140890   0.472   7.741  10.143  0.4104  0.7409  0.9010
12495SOL    HW240891   0.368   7.851  10.131 -0.4617 -0.1105  0.6087
12496SOL     OW40892   2.027   7.812   3.998  0.2162  0.0108  0.0254
12496SOL    HW140893   2.050   7.753   3.926 -1.0518 -0.0723 -0.3250
12496SOL    HW240894   1.938   7.785   4.023 -0.4650  1.9176 -0.2921
12497SOL     OW40895   9.045   8.514   4.148  0.2671  0.3052  0.7993
12497SOL    HW140896   9.114   8.539   4.086  1.0572 -0.3075  1.4203
12497SOL    HW240897   8.969   8.564   4.120  0.1482 -1.1791 -1.6966
12498SOL     OW40898   9.522   9.465   5.073  0.0090 -0.0364  0.0219
12498SOL    HW140899   9.610   9.487   5.101  0.1567 -1.7807  1.0350
12498SOL    HW240900   9.468   9.475   5.152 -0.6962  1.0302 -0.5915
12499SOL     OW40901   5.062  10.298   3.188  0.2528 -0.3439  0.2607
12499SOL    HW140902   5.050  10.349   3.268 -0.3078 -0.9947  0.5890
12499SOL    HW240903   5.137  10.241   3.207  0.0983 -0.5217  0.3317
12500SOL     OW40904   8.593  10.464   4.019  0.1773 -0.5166 -0.2101
12500SOL    HW140905   8.668  10.413   3.988 -0.2820 -0.8952 -0.6945
12500SOL    HW240906   8.624  10.505   4.099  0.2927 -2.1759  0.6029
12501SOL     OW40907   1.515   7.065   1.569 -0.3362  0.0024  0.1870
12501SOL    HW140908   1.562   7.143   1.597  0.1568 -0.8033  1.7072
12501SOL    HW240909   1.583   6.998   1.560 -1.1221 -1.1045  2.1237
12502SOL     OW40910   1.214   4.546   9.943 -0.4047 -0.5037  0.1891
12502SOL    HW140911   1.261   4.466   9.966  3.3996  1.2202 -1.1697
12502SOL    HW240912   1.217   4.599  10.024  1.3666  0.1864 -0.2984
12503SOL     OW40913   3.724   6.415   5.041  0.3059 -0.1182 -0.4747
12503SOL    HW140914   3.740   6.448   5.129  0.5275 -0.7796 -0.2643
12503SOL    HW240915   3.803   6.436   4.992 -0.0868  0.8553 -0.6998
12504SOL     OW40916   8.536   2.026   6.331 -0.4658  0.6466  0.6018
12504SOL    HW140917   8.466   2.036   6.266 -0.9880  0.4349  1.1264
12504SOL    HW240918   8.560   2.116   6.354 -1.4970  0.7306  1.4077
12505SOL     OW40919   1.430   1.779   8.613 -0.0651 -0.3095 -0.2497
12505SOL    HW140920   1.492   1.729   8.561  0.6704  0.3809 -0.0392
12505SOL    HW240921   1.425   1.733   8.697 -1.0006 -1.2325 -0.7932
12506SOL     OW40922   6.215   2.643   4.409 -0.5034  0.2189 -0.1463
12506SOL    HW140923   6.272   2.690   4.470  0.9655  0.3865 -1.6043
12506SOL    HW240924   6.188   2.709   4.345 -1.8177 -0.0128  0.1527
12507SOL     OW40925   3.241   7.977   5.586  0.1651 -0.3487  0.0829
12507SOL    HW140926   3.315   8.031   5.558 -0.5664  0.2754 -0.6713
12507SOL    HW240927   3.178   7.984   5.515 -0.8044 -0.5241  0.9143
12508SOL     OW40928   4.062   8.799   4.593 -0.2238 -0.2744 -0.0827
12508SOL    HW140929   4.102   8.747   4.523  1.2848 -0.3777  0.8326
12508SOL    HW240930   4.129   8.863   4.616 -1.3303  0.8062  0.1559
12509SOL     OW40931   1.591   1.302   6.258  0.2149  0.0415 -0.0928
12509SOL    HW140932   1.591   1.207   6.245 -0.0990  0.2190 -1.5345
12509SOL    HW240933   1.623   1.315   6.347  1.0695 -1.3823 -0.1876
12510SOL     OW40934   2.777   7.779   1.442 -0.1363  0.6103 -0.3781
12510SOL    HW140935   2.780   7.763   1.347 -1.3273 -0.8907 -0.1891
12510SOL    HW240936   2.716   7.713   1.475  3.3813 -1.5701  2.0275
12511SOL     OW40937   8.147   8.439   0.439 -0.2455 -0.3091  0.0079
12511SOL    HW140938   8.201   8.427   0.517 -0.1856  1.2035  0.2113
12511SOL    HW240939   8.206   8.416   0.366  0.2482  0.0043  0.3059
12512SOL     OW40940   4.267   2.519   3.793  0.0413 -0.9429  0.1600
12512SOL    HW140941   4.224   2.480   3.870 -0.2458  1.3727  1.2150
12512SOL    HW240942   4.343   2.463   3.778 -0.2050 -1.7698  1.7922
12513SOL     OW40943   1.257   5.276  10.245  0.1587 -0.0445  0.5027
12513SOL    HW140944   1.278   5.364  10.213 -1.2525 -1.1268 -3.7051
12513SOL    HW240945   1.163   5.277  10.259  0.3226 -0.5306  1.6903
12514SOL     OW40946   1.538   7.094   3.235 -0.2651 -0.2183  0.0426
12514SOL    HW140947   1.628   7.063   3.223  0.2953  0.7996  1.4980
12514SOL    HW240948   1.539   7.184   3.204 -0.2346  0.5148  2.1044
12515SOL     OW40949   3.781   9.428   3.666  0.0534  0.3599 -0.2860
12515SOL    HW140950   3.753   9.397   3.752  2.6471  1.3226  0.9285
12515SOL    HW240951   3.721   9.500   3.645 -0.0604  0.6670  1.0776
12516SOL     OW40952   3.715   4.446  10.892 -0.6335  0.5391 -0.0402
12516SOL    HW140953   3.760   4.531  10.896 -1.1440  0.7753  0.7545
12516SOL    HW240954   3.639   4.463  10.836  0.4829  0.0222 -1.7833
12517SOL     OW40955   7.361   1.808   8.612  0.5007 -0.3583 -0.1779
12517SOL    HW140956   7.434   1.829   8.554  0.9921 -0.0293  0.5504
12517SOL    HW240957   7.283   1.821   8.559  0.9861 -1.1901 -1.1158
12518SOL     OW40958   9.476   1.071   7.965 -0.4639  0.1251  0.0062
12518SOL    HW140959   9.480   1.135   7.894  2.3501 -0.5318 -0.4911
12518SOL    HW240960   9.517   1.115   8.040  0.5831 -0.7302 -0.0536
12519SOL     OW40961   8.461   6.463   7.916  0.1726 -0.2820 -0.8890
12519SOL    HW140962   8.427   6.409   7.844 -1.3054 -1.5378  0.7132
12519SOL    HW240963   8.464   6.404   7.991 -0.3247  1.5479  0.6063
12520SOL     OW40964   3.479   2.604  10.757  0.1666  0.2230  0.2414
12520SOL    HW140965   3.503   2.514  10.734 -1.0377 -0.0347 -0.0508
12520SOL    HW240966   3.560   2.643  10.790  0.5295 -1.1690  1.0112
12521SOL     OW40967   5.890   1.765   3.600  0.1368  0.1076 -0.3058
12521SOL    HW140968   5.878   1.859   3.613  0.2827  0.1035 -0.1203
12521SOL    HW240969   5.879   1.752   3.506  2.0237  0.6089 -0.6245
12522SOL     OW40970  10.175   7.835   9.853  0.0201  0.1322 -0.1357
12522SOL    HW140971  10.247   7.781   9.885  0.5479 -0.2086 -1.8388
12522SOL    HW240972  10.217   7.903   9.800 -0.7783  1.1362  0.4885
12523SOL     OW40973   3.772   2.044   4.739 -0.8849 -0.1406  0.4535
12523SOL    HW140974   3.789   1.951   4.726  0.6829  0.1346  0.4651
12523SOL    HW240975   3.779   2.058   4.833 -0.3932  0.1254  0.3787
12524SOL     OW40976   5.497   0.780   2.620  0.8694 -0.0632 -0.3814
12524SOL    HW140977   5.588   0.807   2.606  0.9265  0.0712  0.2634
12524SOL    HW240978   5.499   0.731   2.702  0.3224  0.0974 -0.2727
12525SOL     OW40979   0.367   8.308   8.596 -0.1776 -0.0675  0.0605
12525SOL    HW140980   0.356   8.370   8.524  1.2327 -0.9208 -0.9322
12525SOL    HW240981   0.295   8.327   8.656 -2.2190 -0.2281 -2.2255
12526SOL     OW40982   7.352   4.633   1.163  0.6697  0.1690 -0.3644
12526SOL    HW140983   7.257   4.620   1.165  0.7189 -0.0811  3.1693
12526SOL    HW240984   7.364   4.726   1.180  1.0662  0.2887 -1.2723
12527SOL     OW40985   0.476   8.985   2.467  0.1883  0.0102 -0.3413
12527SOL    HW140986   0.435   8.919   2.410 -1.1419 -0.3168  0.9514
12527SOL    HW240987   0.476   8.945   2.554  0.5150  1.2260  0.2314
12528SOL     OW40988   9.718   0.605   8.261  0.0383 -0.2727  0.3848
12528SOL    HW140989   9.760   0.689   8.276 -0.0273 -0.1054 -0.3262
12528SOL    HW240990   9.627   0.627   8.238  0.4661 -0.4054 -1.5785
12529SOL     OW40991   4.438   1.645   0.937 -0.3088 -0.1233 -0.2516
12529SOL    HW140992   4.506   1.656   0.871 -0.6218 -1.7179 -0.8607
12529SOL    HW240993   4.365   1.698   0.906 -0.9208 -1.8657 -1.8786
12530SOL     OW40994   9.375   4.017   1.009 -0.3899  0.7641  0.4582
12530SOL    HW140995   9.343   3.964   1.082  1.6911 -2.3923 -0.8526
12530SOL    HW240996   9.341   3.973   0.931  1.3900  1.3500 -0.6604
12531SOL     OW40997   2.615   4.829   1.494 -0.4575  0.0851  0.3076
12531SOL    HW140998   2.667   4.799   1.419 -2.0331  0.4850 -0.9454
12531SOL    HW240999   2.531   4.855   1.457 -0.8793  1.3145  2.0724
12532SOL     OW41000   7.317   8.797   5.241  0.2984 -0.3665  0.2337
12532SOL    HW141001   7.258   8.870   5.257 -3.2233 -2.9110 -0.3727
12532SOL    HW241002   7.341   8.804   5.149  0.3250  0.2361  0.2884
12533SOL     OW41003   2.149   4.398   8.813  0.4804  0.0099  0.2623
12533SOL    HW141004   2.087   4.445   8.870 -2.0066 -1.2838 -1.2871
12533SOL    HW241005   2.138   4.306   8.837  0.9663 -0.3428 -0.8534
12534SOL     OW41006  10.916   6.752   1.648 -0.4704  0.0086 -0.1056
12534SOL    HW141007  10.945   6.667   1.682  0.0356  0.5405  0.7953
12534SOL    HW241008  10.993   6.808   1.656 -1.2647  0.9857  0.7858
12535SOL     OW41009   9.807  10.883   9.990 -0.0018  0.1408  0.3514
12535SOL    HW141010   9.762  10.812  10.034 -2.1287  1.4640  0.3535
12535SOL    HW241011   9.745  10.916   9.925  1.3329  1.3221 -0.3844
12536SOL     OW41012   7.508   1.019   7.252 -0.1200  0.3885  0.5112
12536SOL    HW141013   7.599   1.045   7.244  0.6075 -1.1913  3.0678
12536SOL    HW241014   7.504   0.969   7.334 -2.9245 -1.0241 -0.4114
12537SOL     OW41015   9.463   5.132  10.658  0.1944  0.0257  0.3210
12537SOL    HW141016   9.554   5.145  10.682 -0.6633  3.4340  2.0124
12537SOL    HW241017   9.425   5.083  10.731 -0.2147  2.1007  1.5350
12538SOL     OW41018   9.496   1.351   0.928  0.4386  0.6950  0.4908
12538SOL    HW141019   9.521   1.348   1.020 -0.5496  0.1403  0.7544
12538SOL    HW241020   9.539   1.275   0.889 -0.9289 -0.3566  0.9770
12539SOL     OW41021   8.336   4.701   3.366  0.0200 -0.1897 -0.4364
12539SOL    HW141022   8.269   4.725   3.430 -0.0316 -0.6272 -0.3302
12539SOL    HW241023   8.302   4.623   3.324  0.8448 -0.8929  0.1879
12540SOL     OW41024   3.662   6.828   1.420 -0.6982  0.2279 -0.3442
12540SOL    HW141025   3.752   6.859   1.422  0.1708 -1.9818 -2.2778
12540SOL    HW241026   3.630   6.839   1.509  1.8474  0.0017  0.6156
12541SOL     OW41027   5.366   2.007   4.214 -0.1857  0.3450  0.5664
12541SOL    HW141028   5.337   2.073   4.277 -0.1483  1.3489 -0.4566
12541SOL    HW241029   5.368   1.926   4.264 -0.1064  1.1371  1.8804
12542SOL     OW41030   8.798   4.457   8.340 -0.0621 -0.0015  0.7720
12542SOL    HW141031   8.860   4.439   8.411 -1.9713  0.9820  2.7567
12542SOL    HW241032   8.814   4.548   8.317  0.4441 -0.2714  0.0661
12543SOL     OW41033  10.873  10.017   1.422 -0.3264  0.8630  0.0055
12543SOL    HW141034  10.946  10.000   1.481  1.0251  1.2992 -1.5141
12543SOL    HW241035  10.799   9.973   1.463  1.3523 -1.8504  0.2227
12544SOL     OW41036   7.153   9.992   6.448 -0.3022  0.4865  0.0807
12544SOL    HW141037   7.188   9.993   6.537 -0.9666 -0.5978  0.3615
12544SOL    HW241038   7.218  10.040   6.396  1.8842 -1.9136  0.5015
12545SOL     OW41039   9.173   3.005   8.004 -0.0141 -0.3253  0.0340
12545SOL    HW141040   9.163   3.048   7.919 -1.3054  0.7452  0.7006
12545SOL    HW241041   9.261   2.968   8.002  0.5820  1.0796 -1.1440
12546SOL     OW41042   5.212   9.157   5.303  0.1185 -0.9815  0.3121
12546SOL    HW141043   5.207   9.238   5.252  1.3657 -0.8512  0.3913
12546SOL    HW241044   5.122   9.142   5.332 -0.4579 -0.6486 -1.2779
12547SOL     OW41045   0.239   8.030   2.039  0.6537  0.3306  0.2090
12547SOL    HW141046   0.188   7.954   2.069 -0.9400  1.2512 -0.1400
12547SOL    HW241047   0.328   7.996   2.030 -0.3147 -1.8941 -1.4058
12548SOL     OW41048   9.461   0.527   9.957  1.0587  0.1356 -0.5002
12548SOL    HW141049   9.489   0.466   9.888  0.5036 -0.0495 -0.5650
12548SOL    HW241050   9.394   0.581   9.915  1.4831  0.7301 -0.4167
12549SOL     OW41051  10.367   8.104   4.447 -0.0619 -0.1663  0.0919
12549SOL    HW141052  10.405   8.016   4.443  1.7478  0.5437  1.4815
12549SOL    HW241053  10.272   8.088   4.445  0.1772 -2.2901  2.3369
12550SOL     OW41054   0.515   0.743   4.841 -0.7125 -0.4449 -0.4221
12550SOL    HW141055   0.474   0.824   4.811 -1.0713 -0.6754 -0.5552
12550SOL    HW241056   0.461   0.673   4.803 -1.0512 -0.7375  0.5678
12551SOL     OW41057   0.882   4.756   2.080  1.2186 -0.2517 -0.5531
12551SOL    HW141058   0.937   4.835   2.085  0.8991 -0.0508 -0.2083
12551SOL    HW241059   0.932   4.690   2.128  1.4083 -0.2138 -0.6965
12552SOL     OW41060   6.072   4.969   4.235  0.4683  0.1197  0.3493
12552SOL    HW141061   5.985   4.998   4.205  1.0910  1.4644 -0.2164
12552SOL    HW241062   6.133   5.025   4.187  1.6426 -0.5772  1.0157
12553SOL     OW41063   8.874   3.323   2.879 -0.0365  0.0857 -0.2869
12553SOL    HW141064   8.904   3.403   2.924  0.0850 -0.0421 -0.1434
12553SOL    HW241065   8.818   3.279   2.943  0.2363 -0.1589 -0.2164
12554SOL     OW41066   7.581   2.752   3.891  0.5646 -0.3714 -0.2801
12554SOL    HW141067   7.514   2.705   3.841 -1.0494 -0.4948  1.9333
12554SOL    HW241068   7.572   2.843   3.861 -0.5349 -0.4037 -0.0998
12555SOL     OW41069   4.633   4.086   1.149  0.2148  0.3415  0.3407
12555SOL    HW141070   4.619   4.121   1.237 -0.9059 -2.0808  1.1511
12555SOL    HW241071   4.545   4.069   1.115  0.6728  0.4158 -0.9205
12556SOL     OW41072   1.921   8.403   7.379 -0.5611 -0.0473  0.2071
12556SOL    HW141073   1.981   8.466   7.339  1.3266  0.1271  3.1253
12556SOL    HW241074   1.916   8.332   7.316  0.0825  1.4266 -1.5679
12557SOL     OW41075   2.965  10.745  10.472 -0.3965 -0.3046  0.0881
12557SOL    HW141076   3.033  10.747  10.404  0.0366  0.1413  0.5309
12557SOL    HW241077   2.887  10.779  10.428 -0.8566 -2.6883 -0.9852
12558SOL     OW41078   0.405   1.366   9.712 -0.4386 -0.1227  0.1762
12558SOL    HW141079   0.499   1.358   9.730 -0.7168  0.3881  1.9258
12558SOL    HW241080   0.393   1.459   9.691 -0.4127 -0.3667 -0.9481
12559SOL     OW41081   9.995   4.364   1.386  0.0747 -0.4406 -0.6114
12559SOL    HW141082  10.079   4.387   1.346  0.6052 -0.8647  0.2720
12559SOL    HW241083   9.995   4.409   1.470 -1.2064  0.7457 -1.2207
12560SOL     OW41084   9.222   4.022  10.373 -0.0371 -0.2633  0.1576
12560SOL    HW141085   9.131   4.043  10.357  0.3310  0.6387 -0.8041
12560SOL    HW241086   9.221   3.966  10.451 -1.2686  1.0669  1.1199
12561SOL     OW41087   0.792   5.655   6.262 -0.2738  0.1636  0.1063
12561SOL    HW141088   0.803   5.686   6.352  2.1151  1.4915 -0.5938
12561SOL    HW241089   0.781   5.734   6.210 -1.3994 -0.5806 -0.8192
12562SOL     OW41090   8.820   6.273   4.923  0.3836  0.0578 -0.2263
12562SOL    HW141091   8.883   6.335   4.885 -0.3650  1.4989  0.8556
12562SOL    HW241092   8.756   6.259   4.853  1.1379 -0.3280 -0.8476
12563SOL     OW41093   0.168   7.404   3.663  0.1369  0.2624 -0.1003
12563SOL    HW141094   0.203   7.419   3.751  0.5956  1.5139 -0.4761
12563SOL    HW241095   0.240   7.361   3.616 -1.0196 -2.7726  0.8515
12564SOL     OW41096   1.126  10.483  10.083 -0.5342  1.0377 -0.2486
12564SOL    HW141097   1.152  10.565  10.040 -2.6730  1.9338  0.0585
12564SOL    HW241098   1.131  10.417  10.013 -1.1927  1.9242 -1.1567
12565SOL     OW41099   7.764   0.216   5.127 -0.5138  0.4243  0.9768
12565SOL    HW141100   7.851   0.257   5.124  0.0199 -0.7826 -3.0029
12565SOL    HW241101   7.776   0.139   5.182  1.1187 -0.0102  0.0509
12566SOL     OW41102   1.460  10.706   7.206  0.5225 -0.2219 -1.0195
12566SOL    HW141103   1.554  10.690   7.195  0.6842 -0.0552  0.0012
12566SOL    HW241104   1.421  10.619   7.209  0.6742 -0.2968 -1.1915
12567SOL     OW41105   7.724   1.084   1.314 -0.4072  0.0760 -0.2890
12567SOL    HW141106   7.659   1.115   1.250 -0.9032  0.6588  0.4939
12567SOL    HW241107   7.805   1.129   1.289 -0.5115  0.0196 -0.7310
12568SOL     OW41108   4.121   9.567   3.629  0.2177 -0.1410  0.1275
12568SOL    HW141109   4.148   9.481   3.598  0.6435 -0.3999  1.1871
12568SOL    HW241110   4.186   9.627   3.594 -1.0366 -0.0091 -2.0528
12569SOL     OW41111   0.862   7.805   1.554 -0.1692  0.2737 -0.4125
12569SOL    HW141112   0.870   7.714   1.582  0.6139  1.0568  1.9955
12569SOL    HW241113   0.953   7.834   1.541 -0.4624  0.3418 -2.4770
12570SOL     OW41114  10.389   6.755   6.456 -0.1188 -0.1873 -0.1555
12570SOL    HW141115  10.451   6.761   6.383  0.2426  1.2114  0.2611
12570SOL    HW241116  10.311   6.801   6.426  0.4208  1.3414  0.7286
12571SOL     OW41117   7.888   0.215   1.123  0.1528 -0.2207  0.0395
12571SOL    HW141118   7.917   0.222   1.032 -1.8433 -0.7569 -0.6700
12571SOL    HW241119   7.851   0.301   1.143  1.5760  0.2431  0.7118
12572SOL     OW41120  10.294   5.410   2.045 -0.1256 -0.0455 -0.2614
12572SOL    HW141121  10.296   5.429   1.951 -1.3952  0.4588 -0.1978
12572SOL    HW241122  10.235   5.477   2.081  0.0081 -0.5126  0.8291
12573SOL     OW41123   9.565   3.319  10.573 -0.4035  0.6492  0.2160
12573SOL    HW141124   9.532   3.238  10.535  0.3296  0.0909  0.7486
12573SOL    HW241125   9.491   3.354  10.622 -1.1465  1.0255 -1.1580
12574SOL     OW41126   2.116  10.374  10.490 -0.8729  0.1014  0.3749
12574SOL    HW141127   2.207  10.345  10.499 -1.0439 -0.2348  1.0477
12574SOL    HW241128   2.078  10.313  10.427 -0.5954  0.3243 -0.0072
12575SOL     OW41129   1.818   4.520   3.278  0.1024  0.4359  0.1681
12575SOL    HW141130   1.893   4.530   3.220  1.5194  2.3147  2.2327
12575SOL    HW241131   1.836   4.440   3.327  0.3301  0.4217  0.0620
12576SOL     OW41132   2.407  10.400  10.788 -0.5960 -0.2393  0.4649
12576SOL    HW141133   2.501  10.397  10.807 -0.3480  3.0672 -0.0128
12576SOL    HW241134   2.400  10.367  10.698  0.1407 -0.2805  0.4179
12577SOL     OW41135   4.401   4.605   3.427 -0.5103 -0.0475 -0.9421
12577SOL    HW141136   4.421   4.650   3.509 -1.5665  2.0553 -1.8111
12577SOL    HW241137   4.391   4.513   3.452 -0.6826  0.5494  1.2637
12578SOL     OW41138  10.155   3.931   7.925  0.1932  0.0724 -0.4176
12578SOL    HW141139  10.123   4.020   7.914  0.9912  0.6447  1.5728
12578SOL    HW241140  10.232   3.940   7.981  0.0742 -1.8977  0.1182
12579SOL     OW41141   5.883   4.567   4.543  0.4255  0.7280 -0.1360
12579SOL    HW141142   5.869   4.526   4.457  0.9148 -0.2492  0.2542
12579SOL    HW241143   5.953   4.516   4.583 -0.9383  0.1386  1.5393
12580SOL     OW41144   1.665   9.666   2.924 -0.1820  0.3621  0.4160
12580SOL    HW141145   1.701   9.656   3.012 -0.0045 -0.0647  0.2940
12580SOL    HW241146   1.737   9.644   2.865 -0.7925 -1.0193  0.1782
12581SOL     OW41147   8.276   7.964   3.121  0.3161  0.4069 -0.2163
12581SOL    HW141148   8.356   7.913   3.128 -0.0494 -0.0487  0.8867
12581SOL    HW241149   8.217   7.910   3.068  0.4389  0.3417 -0.2848
12582SOL     OW41150   3.927   5.715   0.144  0.0380 -0.0630 -0.3659
12582SOL    HW141151   3.930   5.702   0.049  0.0869 -1.7817 -0.1483
12582SOL    HW241152   3.858   5.656   0.173  0.3123  0.1502  0.7105
12583SOL     OW41153   5.064   3.193   9.268  0.3884 -0.0530  0.3451
12583SOL    HW141154   5.046   3.281   9.302  1.6603  0.1403  0.5328
12583SOL    HW241155   5.050   3.135   9.343 -0.6634 -0.0476  0.1665
12584SOL     OW41156  10.224   1.043   8.408 -0.1077 -0.4230  0.6043
12584SOL    HW141157  10.163   1.088   8.350 -1.1422 -0.3498  1.7209
12584SOL    HW241158  10.294   1.012   8.351 -1.0203 -0.1987 -0.6471
12585SOL     OW41159   0.621   4.753   2.177  0.0529 -0.2812  0.2152
12585SOL    HW141160   0.568   4.684   2.137 -0.2011  0.7620 -1.2753
12585SOL    HW241161   0.706   4.745   2.136  0.3182 -0.3236  0.7621
12586SOL     OW41162  10.336   2.283   4.988  0.3725 -0.3849  0.0371
12586SOL    HW141163  10.371   2.203   5.028  0.0491 -0.3164  0.4586
12586SOL    HW241164  10.247   2.290   5.022 -0.1219 -0.6602 -1.1796
12587SOL     OW41165   4.840   7.246   1.952 -0.8572 -0.0793  0.3998
12587SOL    HW141166   4.804   7.326   1.914 -1.9488 -0.1969  1.1922
12587SOL    HW241167   4.764   7.192   1.971 -0.1380 -1.2261  0.0788
12588SOL     OW41168   0.939  10.697   0.012  0.2235 -0.0207  0.0743
12588SOL    HW141169   0.922  10.727  -0.078 -0.0855 -1.0595 -0.2192
12588SOL    HW241170   0.973  10.608   0.001 -0.9552 -0.6076  1.0597
12589SOL     OW41171   9.740   4.625   4.900 -0.2944  0.0297 -0.8580
12589SOL    HW141172   9.653   4.625   4.940 -0.6166 -0.1063 -1.5396
12589SOL    HW241173   9.724   4.597   4.810  0.8661 -3.2086 -0.1225
12590SOL     OW41174   2.082   3.084   6.704  0.2456 -0.2230 -0.6013
12590SOL    HW141175   2.156   3.145   6.709  0.1736 -0.0111 -1.8467
12590SOL    HW241176   2.061   3.081   6.611 -0.3334 -1.4654 -0.4345
12591SOL     OW41177   3.355   5.623   9.623 -0.0012 -0.0466 -0.1582
12591SOL    HW141178   3.399   5.656   9.701 -0.3624 -1.4335  0.6540
12591SOL    HW241179   3.282   5.571   9.657 -0.1640 -0.6564 -1.4156
12592SOL     OW41180   0.289   9.632   2.939  0.0097 -0.2666 -0.6586
12592SOL    HW141181   0.327   9.564   2.884 -0.3631 -0.6257 -0.4742
12592SOL    HW241182   0.348   9.637   3.014 -0.8352 -1.5388  0.1265
12593SOL     OW41183   1.327   9.721   2.154  0.3559 -0.0046 -0.3289
12593SOL    HW141184   1.298   9.813   2.158  1.9713  0.5729 -1.4587
12593SOL    HW241185   1.249   9.671   2.178 -0.1723  1.7168  1.8065
12594SOL     OW41186   6.789   5.254   9.777 -0.0492 -0.1560  0.3352
12594SOL    HW141187   6.714   5.272   9.720  1.8995 -0.1561 -2.2964
12594SOL    HW241188   6.802   5.336   9.825 -1.5702 -0.0749  0.6513
12595SOL     OW41189  10.721   9.814   8.447  0.4582  0.1459  0.2777
12595SOL    HW141190  10.741   9.783   8.535 -0.3241  2.2421  1.2216
12595SOL    HW241191  10.633   9.850   8.453  0.0790 -0.3854 -1.5678
12596SOL     OW41192   7.723   8.940  10.102  0.0897 -0.2804  0.4440
12596SOL    HW141193   7.729   8.993  10.022  1.7613 -1.0466  0.0589
12596SOL    HW241194   7.635   8.958  10.135  1.2045  4.1729  1.3181
12597SOL     OW41195   6.140   3.591   7.357 -0.5313  0.4096 -0.2322
12597SOL    HW141196   6.210   3.621   7.415 -0.7827 -1.0551  0.8522
12597SOL    HW241197   6.074   3.661   7.362 -0.6687  0.1915  1.4785
12598SOL     OW41198   5.914   7.185   6.595  0.2084  0.6293 -0.0607
12598SOL    HW141199   5.829   7.154   6.562  1.3486 -0.2354 -2.3463
12598SOL    HW241200   5.943   7.248   6.529  1.9894 -0.1686 -0.0670
12599SOL     OW41201   6.045   9.465   2.691  0.3045  0.3648  0.5108
12599SOL    HW141202   5.968   9.521   2.704  0.8591  1.6561 -1.5448
12599SOL    HW241203   6.030   9.390   2.748 -1.8756  1.2065  1.0931
12600SOL     OW41204   2.085   4.120   9.229  0.4661  0.2687  0.4691
12600SOL    HW141205   1.993   4.144   9.241  0.4684  0.7458 -0.3873
12600SOL    HW241206   2.086   4.025   9.235 -0.3120  0.1652 -0.9221
12601SOL     OW41207   1.744   8.006   4.565 -0.0056  0.6931  0.1388
12601SOL    HW141208   1.665   8.060   4.576  0.2767  0.7443  2.0378
12601SOL    HW241209   1.720   7.921   4.600  0.3020  0.2602 -0.6979
12602SOL     OW41210   3.581   5.902   4.640 -0.2317 -0.2851  0.0403
12602SOL    HW141211   3.516   5.907   4.570  1.2177 -0.7390 -1.3524
12602SOL    HW241212   3.627   5.986   4.636  1.2338 -1.1257 -0.9194
12603SOL     OW41213   7.677   4.258   0.209 -0.7602 -0.0484  0.5296
12603SOL    HW141214   7.623   4.250   0.288 -0.8449 -2.5926  0.2562
12603SOL    HW241215   7.663   4.176   0.162  0.6342  0.7187 -1.2881
12604SOL     OW41216   6.210   0.849   7.612  0.1316  1.0306 -0.1549
12604SOL    HW141217   6.279   0.783   7.602 -0.7194  0.1450 -0.2011
12604SOL    HW241218   6.185   0.871   7.522  0.0601  1.0508 -0.1295
12605SOL     OW41219   9.268   9.881   4.844  0.0382 -0.2024 -0.1331
12605SOL    HW141220   9.249   9.789   4.827 -0.6309 -0.2420  0.7579
12605SOL    HW241221   9.335   9.879   4.912  0.4324 -0.0368 -0.5185
12606SOL     OW41222   2.517   4.308   8.679  0.0081  0.5858  0.0258
12606SOL    HW141223   2.486   4.328   8.767  0.6484 -1.3880  0.7234
12606SOL    HW241224   2.526   4.393   8.636 -1.0137  1.5072  1.6225
12607SOL     OW41225   0.307   2.319   2.082  0.3671  0.1671 -0.3456
12607SOL    HW141226   0.244   2.250   2.063 -1.1946  1.7740 -1.1371
12607SOL    HW241227   0.374   2.277   2.136 -2.1581 -1.1957  1.8083
12608SOL     OW41228   0.757   1.197   9.464  0.0050 -0.7971  0.3567
12608SOL    HW141229   0.823   1.262   9.489 -1.1974  0.3788  0.5316
12608SOL    HW241230   0.742   1.146   9.544 -0.5846  0.0762  0.8053
12609SOL     OW41231   8.212   8.996   5.138  0.1305  0.2449  0.5669
12609SOL    HW141232   8.301   9.031   5.138  0.0865  0.3980  1.9238
12609SOL    HW241233   8.206   8.947   5.220 -0.5772 -0.9609 -0.1979
12610SOL     OW41234   1.353   4.329  10.022  0.5457 -0.1744 -0.3608
12610SOL    HW141235   1.308   4.308  10.104  0.8428  0.8774  0.0825
12610SOL    HW241236   1.394   4.247   9.995 -0.1771 -0.7145  0.1486
12611SOL     OW41237   1.783   1.082   2.798  0.1879 -0.0698 -0.3617
12611SOL    HW141238   1.687   1.082   2.797  0.1980 -0.3714 -2.3582
12611SOL    HW241239   1.808   1.166   2.760  0.7223  0.2356  0.6513
12612SOL     OW41240   9.464   0.433   7.625  0.1545 -0.0517  0.5105
12612SOL    HW141241   9.434   0.485   7.700 -0.6774 -1.9810  1.5680
12612SOL    HW241242   9.389   0.378   7.603  0.8840 -0.5171 -0.8428
12613SOL     OW41243   5.716   6.648   4.864 -0.1229 -0.8644  0.5066
12613SOL    HW141244   5.654   6.637   4.792  1.9297 -0.2364 -1.4167
12613SOL    HW241245   5.678   6.598   4.936 -2.2280 -1.5180 -1.0000
12614SOL     OW41246   0.684   1.947   1.693 -0.0673 -0.2124  0.2433
12614SOL    HW141247   0.683   2.042   1.683  0.7657 -0.0457  1.5928
12614SOL    HW241248   0.668   1.913   1.605  0.3394  1.1807 -0.3762
12615SOL     OW41249   0.465   3.579   1.835  0.2929 -0.7114  0.0860
12615SOL    HW141250   0.482   3.631   1.913  3.1460  0.7301 -1.4074
12615SOL    HW241251   0.382   3.614   1.801  0.1312  0.1193  1.2903
12616SOL     OW41252   5.396   2.151   2.143  0.1452  0.1798 -0.0709
12616SOL    HW141253   5.477   2.112   2.108  0.3016  0.5455 -0.1249
12616SOL    HW241254   5.329   2.085   2.128  0.4256 -0.1093 -0.0707
12617SOL     OW41255   7.864   5.602   1.775  0.4816  0.1430  0.1123
12617SOL    HW141256   7.831   5.691   1.787 -0.6765 -0.2705  0.0120
12617SOL    HW241257   7.792   5.554   1.734  0.3501 -1.3597  2.0205
12618SOL     OW41258   7.290   2.313   0.232  0.0482  0.0085  0.3271
12618SOL    HW141259   7.324   2.224   0.229 -1.1505 -0.4647  0.5396
12618SOL    HW241260   7.201   2.304   0.266  0.3382  1.4057  1.5611
12619SOL     OW41261   5.931   1.170   4.816 -0.1635 -0.5805  0.2734
12619SOL    HW141262   5.871   1.103   4.849 -0.7323 -0.3489 -0.2816
12619SOL    HW241263   5.891   1.200   4.735 -0.2987  0.9510  0.8936
12620SOL     OW41264   1.491   4.765   0.895 -0.3193  0.0101 -0.2080
12620SOL    HW141265   1.570   4.711   0.903  1.0033  1.9047  0.1544
12620SOL    HW241266   1.498   4.805   0.808 -0.4418  0.8199  0.1448
12621SOL     OW41267   5.588   6.067   5.336 -0.1715 -0.2730  0.1641
12621SOL    HW141268   5.617   6.084   5.426  0.6412  1.3623 -0.3845
12621SOL    HW241269   5.495   6.087   5.337  0.0743  0.9221  0.3785
12622SOL     OW41270   8.503   0.569   4.514 -0.2905  0.3370 -0.0998
12622SOL    HW141271   8.550   0.529   4.441  0.0817  1.1668 -0.3191
12622SOL    HW241272   8.570   0.618   4.561 -0.5527 -0.0918  0.7290
12623SOL     OW41273   8.575   3.388   8.423 -0.3713 -0.0443 -0.3438
12623SOL    HW141274   8.524   3.466   8.400  1.0306  0.8619 -0.4400
12623SOL    HW241275   8.665   3.419   8.425  0.0555 -1.3309  1.0947
12624SOL     OW41276   6.322   2.116  10.599  0.1913 -0.2815  0.1310
12624SOL    HW141277   6.395   2.111  10.538 -0.3990  0.9719 -0.7054
12624SOL    HW241278   6.321   2.208  10.627 -0.3069 -0.5682  1.0749
12625SOL     OW41279   4.939   2.670   8.744  0.0999 -0.2252  0.2602
12625SOL    HW141280   4.988   2.698   8.821  0.1631 -1.8146  0.8012
12625SOL    HW241281   4.848   2.668   8.772  0.1670 -1.2001  0.4092
12626SOL     OW41282   5.108   5.401   9.260  0.6856  0.5553  0.2486
12626SOL    HW141283   5.044   5.341   9.298  1.8365  0.0315  1.3995
12626SOL    HW241284   5.185   5.346   9.245  1.9270  1.8545  1.7781
12627SOL     OW41285   6.532  10.485   0.513  0.2619 -0.2245 -0.0245
12627SOL    HW141286   6.471  10.411   0.511 -0.1123  0.1012 -2.7386
12627SOL    HW241287   6.618  10.445   0.528  0.0722 -1.2635 -1.5411
12628SOL     OW41288   0.200   7.059  10.768  0.6362 -1.1860  0.4452
12628SOL    HW141289   0.278   7.097  10.811 -1.8481  2.3553  2.0648
12628SOL    HW241290   0.199   7.099  10.681 -0.0009 -0.3150  0.8479
12629SOL     OW41291   2.884   9.724   4.324 -0.0068  0.0606 -0.1411
12629SOL    HW141292   2.973   9.732   4.288  0.4559 -1.5181  0.6208
12629SOL    HW241293   2.895   9.733   4.418 -0.6108 -0.5916 -0.0077
12630SOL     OW41294   6.348   4.253   7.005 -0.4636  0.1495  0.2321
12630SOL    HW141295   6.273   4.311   6.995  0.9679  2.0418  0.1276
12630SOL    HW241296   6.412   4.285   6.941  0.3295 -1.5991  0.1206
12631SOL     OW41297   8.188   7.055   5.262 -0.2660 -0.1119 -0.4301
12631SOL    HW141298   8.207   7.048   5.356  0.8350  0.3953 -0.6040
12631SOL    HW241299   8.272   7.037   5.220 -0.4234  1.1017 -1.2778
12632SOL     OW41300   0.713  10.764   9.538 -0.4540  0.3144  0.8877
12632SOL    HW141301   0.653  10.700   9.578  1.3716 -2.1201 -0.1225
12632SOL    HW241302   0.793  10.758   9.590  1.3629 -1.6746 -1.9991
12633SOL     OW41303   8.729   7.550   0.131  0.0125 -0.3054 -0.3922
12633SOL    HW141304   8.657   7.490   0.150  0.1420 -0.4988 -0.4988
12633SOL    HW241305   8.702   7.634   0.166 -0.8755 -0.0359 -1.6956
12634SOL     OW41306   5.573   5.941   4.985  0.2579  0.0880  0.0660
12634SOL    HW141307   5.496   5.923   5.039  0.8221  1.3167  1.3215
12634SOL    HW241308   5.588   5.860   4.937  0.1604 -1.3270  2.3296
12635SOL     OW41309   3.509   7.761   9.550 -0.2189  0.0642  0.7182
12635SOL    HW141310   3.504   7.673   9.513 -0.0648  0.0579  0.7111
12635SOL    HW241311   3.471   7.752   9.638 -0.5553  0.0734  0.5742
12636SOL     OW41312   6.740   6.621   9.465  0.4726 -0.5179  0.0932
12636SOL    HW141313   6.757   6.711   9.437  0.8755 -0.9885 -1.2007
12636SOL    HW241314   6.807   6.569   9.420  0.3189 -1.4573  0.9244
12637SOL     OW41315   8.736   8.764   0.503 -0.3227  0.7043  0.2280
12637SOL    HW141316   8.789   8.777   0.581 -0.0310  0.7490  0.0272
12637SOL    HW241317   8.699   8.677   0.512  0.9642  0.0812 -0.3148
12638SOL     OW41318   0.992   5.249  10.361  0.3435  0.3678  0.2242
12638SOL    HW141319   0.912   5.262  10.311  0.8447 -0.4583 -0.8083
12638SOL    HW241320   0.966   5.197  10.436 -0.1830  0.5519  0.1676
12639SOL     OW41321   3.831   1.851   7.643  0.4932 -0.2106 -0.1804
12639SOL    HW141322   3.914   1.806   7.661  0.3381 -0.9647 -1.2999
12639SOL    HW241323   3.830   1.863   7.548 -0.3901  0.3844 -0.1067
12640SOL     OW41324   9.955   5.342   2.107  0.0914  0.1057  0.0582
12640SOL    HW141325   9.969   5.349   2.202  0.4513 -0.8101  0.0710
12640SOL    HW241326   9.921   5.428   2.083  0.4818  0.5248  0.9377
12641SOL     OW41327   7.845   5.197   6.268 -0.2614 -0.2983 -0.4620
12641SOL    HW141328   7.786   5.166   6.337 -0.0250  0.5984  0.1491
12641SOL    HW241329   7.790   5.204   6.190 -0.4384 -1.6979 -0.4604
12642SOL     OW41330  10.515   6.831   6.127 -0.3349 -0.1889 -0.5217
12642SOL    HW141331  10.553   6.753   6.168 -1.1981  0.1308  0.9303
12642SOL    HW241332  10.580   6.858   6.063  0.7910 -1.0636  0.2213
12643SOL     OW41333   9.207   1.547   1.066  0.2487 -0.3872  0.6185
12643SOL    HW141334   9.138   1.568   1.130 -0.0921 -1.1531  0.5110
12643SOL    HW241335   9.288   1.569   1.111 -0.1011  1.5571  0.3550
12644SOL     OW41336  10.084   5.041   9.123  0.1535 -0.8191 -0.2369
12644SOL    HW141337  10.094   5.136   9.128 -0.9701 -0.5747 -2.0823
12644SOL    HW241338  10.166   5.010   9.086  0.1631 -0.4517 -0.5351
12645SOL     OW41339   1.984   7.557   9.414 -0.0228 -0.0113 -0.0158
12645SOL    HW141340   2.042   7.491   9.377 -0.5554  0.5771 -2.0202
12645SOL    HW241341   1.906   7.554   9.358  0.2542  2.8126 -0.6440
12646SOL     OW41342   7.907   1.100  10.674  0.0988  0.1338 -0.1682
12646SOL    HW141343   7.836   1.037  10.684 -1.4618  2.1697  2.3343
12646SOL    HW241344   7.974   1.072  10.736  0.3795 -0.3346 -0.6829
12647SOL     OW41345  10.909   9.283   0.630 -0.3396  0.2297  0.0646
12647SOL    HW141346  10.911   9.235   0.713  0.6833 -0.6772 -0.4671
12647SOL    HW241347  10.983   9.247   0.580 -1.5950  0.0070 -1.6668
12648SOL     OW41348   6.605   9.726   8.824  0.5894  0.3228 -0.7832
12648SOL    HW141349   6.664   9.746   8.751  1.5555 -0.0795 -0.1119
12648SOL    HW241350   6.523   9.770   8.800  1.6381  2.2485 -0.9637
12649SOL     OW41351   6.965   8.115   7.695  0.0689  0.3635 -0.1365
12649SOL    HW141352   6.924   8.199   7.674  1.0039  0.7121 -0.5612
12649SOL    HW241353   6.917   8.051   7.642 -0.4964  0.6487  0.0252
12650SOL     OW41354   2.617   4.783   3.820 -0.4852  0.3052 -0.2307
12650SOL    HW141355   2.649   4.818   3.736 -0.8685  0.5375 -0.2832
12650SOL    HW241356   2.566   4.705   3.796 -0.1537  0.0713 -0.1687
12651SOL     OW41357  10.627   9.300   5.962 -0.5796 -0.8961 -0.5235
12651SOL    HW141358  10.620   9.217   6.010 -1.3567 -0.6429 -0.1818
12651SOL    HW241359  10.703   9.289   5.906 -0.6947 -1.8590 -0.5008
12652SOL     OW41360   4.323  10.772  10.297 -0.2128  0.1012  0.3477
12652SOL    HW141361   4.336  10.716  10.374  2.0335  0.5746  0.3377
12652SOL    HW241362   4.362  10.855  10.321  1.6006 -0.1190 -1.7320
12653SOL     OW41363  10.754  10.456   4.453 -0.2798  0.6676  0.2255
12653SOL    HW141364  10.688  10.501   4.400  1.6031  1.1471 -1.8230
12653SOL    HW241365  10.825  10.521   4.462  0.4623 -0.2727  1.2524
12654SOL     OW41366   7.031   4.435  10.075  0.5234  0.0791  0.4189
12654SOL    HW141367   7.037   4.392  10.161 -1.2940 -1.0054  0.0360
12654SOL    HW241368   7.106   4.494  10.072  0.4820  0.3019  2.8662
12655SOL     OW41369   4.585   4.301   5.206 -0.6756  0.2679 -0.2412
12655SOL    HW141370   4.631   4.383   5.190 -0.4167  0.1086 -0.3177
12655SOL    HW241371   4.606   4.278   5.297 -3.6400  2.1257  1.0014
12656SOL     OW41372   1.559   2.520   1.329 -0.0688 -0.0136  0.2056
12656SOL    HW141373   1.645   2.537   1.366  0.2182  0.4246 -0.6419
12656SOL    HW241374   1.542   2.595   1.272 -1.1259  0.0320  0.5673
12657SOL     OW41375   1.218   5.327   5.404 -0.1899  0.2196  0.2776
12657SOL    HW141376   1.304   5.363   5.384  0.1559 -0.8752 -0.2111
12657SOL    HW241377   1.234   5.257   5.467 -0.4490 -1.5445 -1.5582
12658SOL     OW41378   9.134  10.353   9.184  0.7861 -0.6349  0.2902
12658SOL    HW141379   9.132  10.346   9.088 -0.2550  0.4883  0.2195
12658SOL    HW241380   9.169  10.440   9.201 -2.9406  0.8596  0.8253
12659SOL     OW41381   2.638   5.940   1.426 -0.0756 -0.2974 -0.3639
12659SOL    HW141382   2.611   6.023   1.466  1.6293  0.1469 -0.0867
12659SOL    HW241383   2.564   5.881   1.441 -0.0810  0.2869  2.1391
12660SOL     OW41384   0.310   3.447   9.368  0.0053  0.2646  0.4812
12660SOL    HW141385   0.348   3.371   9.411  0.7000 -0.0844 -0.7140
12660SOL    HW241386   0.362   3.521   9.400 -0.5130  0.2065  1.4524
12661SOL     OW41387   3.753   5.222   4.708 -0.0509 -0.2467  0.4843
12661SOL    HW141388   3.675   5.171   4.688  0.0498  0.2446 -1.2113
12661SOL    HW241389   3.739   5.252   4.799 -1.8717 -0.0804  0.1786
12662SOL     OW41390   0.574   6.947   9.265 -0.3509 -0.3969  0.1039
12662SOL    HW141391   0.654   6.897   9.247  0.9375  1.2834  1.0041
12662SOL    HW241392   0.570   7.011   9.194 -0.4537  0.0396  0.4999
12663SOL     OW41393   7.983   5.259   5.564  0.1984  1.1214  0.2448
12663SOL    HW141394   7.947   5.286   5.649  0.5516  1.0925  0.4044
12663SOL    HW241395   8.036   5.334   5.536  0.1772  1.0841  0.1079
12664SOL     OW41396   1.734   1.025   6.536 -0.4575  0.3171 -0.5009
12664SOL    HW141397   1.804   0.988   6.482 -0.3543 -0.6115  0.2592
12664SOL    HW241398   1.736   1.119   6.517  2.6194  0.7022  1.3304
12665SOL     OW41399   2.717   6.789   4.094 -0.8943  0.1682 -0.6272
12665SOL    HW141400   2.698   6.860   4.033  1.2116  1.6494  0.3982
12665SOL    HW241401   2.801   6.754   4.065  0.4129  1.2567  1.7170
12666SOL     OW41402   3.973   3.210   9.753  0.5195 -0.2212 -0.1253
12666SOL    HW141403   3.954   3.118   9.733 -0.3788 -0.1320  0.2769
12666SOL    HW241404   3.956   3.217   9.847 -0.4474  0.6076 -0.3552
12667SOL     OW41405  10.806   6.444   9.437 -0.5219  0.4369 -0.1742
12667SOL    HW141406  10.888   6.427   9.391 -1.2821  0.4652 -1.5580
12667SOL    HW241407  10.768   6.358   9.451 -1.2657  0.5665 -1.4074
12668SOL     OW41408   3.681   7.973   2.718 -0.1241 -0.0062  0.7516
12668SOL    HW141409   3.713   8.025   2.645 -1.1281 -2.2547 -1.3386
12668SOL    HW241410   3.760   7.944   2.764  0.6567 -1.0099 -1.1895
12669SOL     OW41411   0.427   5.121   0.605  0.1240  0.0089 -0.3172
12669SOL    HW141412   0.407   5.198   0.659 -0.4636 -0.3070 -0.0787
12669SOL    HW241413   0.343   5.076   0.596  0.1747  0.1919 -1.6989
12670SOL     OW41414   6.518   5.774   1.920  0.1090 -0.2093 -0.4899
12670SOL    HW141415   6.423   5.788   1.923 -0.0266 -1.0677 -0.6878
12670SOL    HW241416   6.555   5.859   1.944 -0.7102  0.0266 -0.0275
12671SOL     OW41417   0.554   2.352   5.776  0.3966  0.3540  0.3079
12671SOL    HW141418   0.575   2.299   5.852  1.3147  0.4543  0.1237
12671SOL    HW241419   0.463   2.380   5.790  0.0568 -0.8928  0.6180
12672SOL     OW41420  10.978  10.752   9.795  0.1959 -0.2846  0.4083
12672SOL    HW141421  10.912  10.739   9.862 -2.3500  0.0659 -1.9674
12672SOL    HW241422  10.962  10.840   9.761  1.9911 -0.1180 -0.1065
12673SOL     OW41423   0.756   6.326   7.379  0.4919 -0.4590  0.0994
12673SOL    HW141424   0.670   6.310   7.418 -0.7709 -1.7726 -3.0638
12673SOL    HW241425   0.761   6.421   7.369 -0.5125 -0.3674  0.4509
12674SOL     OW41426   3.699   6.968   5.728 -0.1969  0.1425  0.6289
12674SOL    HW141427   3.662   6.890   5.686 -0.8898  0.5056  0.5598
12674SOL    HW241428   3.739   6.934   5.808  0.7485 -0.4850 -0.1025
12675SOL     OW41429   4.719   9.199   5.075 -0.2490 -0.0460 -0.9351
12675SOL    HW141430   4.782   9.271   5.086  1.2156 -1.4234 -0.0824
12675SOL    HW241431   4.763   9.138   5.016 -1.0589 -0.7208 -0.8446
12676SOL     OW41432   6.976   7.603  10.542  0.1286  0.2807 -0.0106
12676SOL    HW141433   6.962   7.521  10.495  0.6654  1.3933 -2.1844
12676SOL    HW241434   7.045   7.583  10.606 -0.0550 -1.0531 -0.2105
12677SOL     OW41435   9.076   0.678   1.009  0.3215  0.1923 -0.4250
12677SOL    HW141436   9.059   0.688   1.103  0.7373 -1.0820 -0.2054
12677SOL    HW241437   9.064   0.584   0.992 -0.2265  0.4898 -1.7449
12678SOL     OW41438   2.889   6.322   4.049 -0.9436 -0.1108 -0.1994
12678SOL    HW141439   2.973   6.367   4.043  0.2469 -2.3763 -1.0684
12678SOL    HW241440   2.891   6.278   4.133 -1.2864 -0.1512 -0.2109
12679SOL     OW41441   0.789   9.014   0.028  0.1415  0.3222 -1.0108
12679SOL    HW141442   0.796   9.012  -0.068  1.3376 -0.1003 -0.9249
12679SOL    HW241443   0.875   8.985   0.059 -0.6828 -0.9283  0.1910
12680SOL     OW41444   1.650   3.164   4.634  0.2737  0.1869  0.2149
12680SOL    HW141445   1.668   3.236   4.574  0.7255 -0.6370 -0.6483
12680SOL    HW241446   1.735   3.144   4.674  0.5221 -1.0572 -0.8945
12681SOL     OW41447   2.160   1.528   4.138 -0.5801  0.6566  0.3334
12681SOL    HW141448   2.247   1.524   4.098 -0.0679  0.8389  1.4134
12681SOL    HW241449   2.170   1.588   4.212 -1.3794 -0.0582  1.0388
12682SOL     OW41450   9.674   6.738   5.092 -0.3981  0.6154 -0.0220
12682SOL    HW141451   9.701   6.675   5.160  0.8093 -0.7435 -1.7208
12682SOL    HW241452   9.734   6.812   5.104 -0.0684  0.3062  0.2697
12683SOL     OW41453   9.196   5.137   2.645  0.0535  0.3435 -0.4994
12683SOL    HW141454   9.259   5.149   2.716  2.1330  1.4252 -2.4369
12683SOL    HW241455   9.212   5.048   2.614  0.4847  0.5518 -0.8685
12684SOL     OW41456   8.163   2.986   1.657 -0.0350  0.1765 -0.4091
12684SOL    HW141457   8.165   3.056   1.722  0.1121  0.0699 -0.2984
12684SOL    HW241458   8.224   3.014   1.589 -1.9255  1.4061 -1.6622
12685SOL     OW41459   0.683   1.355   2.369 -0.5892  0.2112 -0.3510
12685SOL    HW141460   0.598   1.313   2.354 -1.3082  0.9028  1.6398
12685SOL    HW241461   0.696   1.350   2.463  1.3080  0.6685 -0.5736
12686SOL     OW41462   9.593   0.535   5.500  0.0567  0.3928  0.1136
12686SOL    HW141463   9.593   0.449   5.544  0.7503  0.4770  0.2834
12686SOL    HW241464   9.555   0.595   5.565 -3.0873 -0.2642 -0.9991
12687SOL     OW41465   0.102   6.708   3.595 -0.5822 -0.1410 -0.1628
12687SOL    HW141466   0.095   6.785   3.539 -1.3355  0.3393  0.5831
12687SOL    HW241467   0.192   6.678   3.582 -0.0849  1.2308  0.0189
12688SOL     OW41468  10.414   7.543   7.465 -0.4826  0.6178  0.1744
12688SOL    HW141469  10.439   7.461   7.422 -0.5927 -0.7367  2.6493
12688SOL    HW241470  10.450   7.611   7.408  1.8670 -1.1790 -0.5812
12689SOL     OW41471   7.137   9.151   3.954 -0.1634  0.2824 -0.2914
12689SOL    HW141472   7.112   9.063   3.982  1.2478 -0.4884 -1.3634
12689SOL    HW241473   7.094   9.164   3.870 -0.3196  0.5877 -0.1649
12690SOL     OW41474   9.882   5.426   1.148 -0.5095  0.4222 -0.7013
12690SOL    HW141475   9.934   5.353   1.183  0.4033  0.7395 -1.3615
12690SOL    HW241476   9.881   5.490   1.218 -0.5180  0.1598 -0.4593
12691SOL     OW41477   2.027   5.492   9.408  0.1545 -0.2395  0.4556
12691SOL    HW141478   2.018   5.578   9.449  1.7348  0.1538  0.0098
12691SOL    HW241479   1.998   5.431   9.476 -0.1913  0.5880  1.0742
12692SOL     OW41480   7.169   5.908   8.669 -0.2128  0.1812  0.0999
12692SOL    HW141481   7.233   5.851   8.711 -0.7303  0.4911  1.3382
12692SOL    HW241482   7.152   5.977   8.734  0.0476  1.4713 -1.1746
12693SOL     OW41483   3.072   4.593  10.766 -0.1737 -0.1650 -0.0136
12693SOL    HW141484   3.075   4.513  10.819  1.9562 -0.7369 -0.9654
12693SOL    HW241485   3.038   4.660  10.826 -1.6764 -1.7005  0.8874
12694SOL     OW41486   7.689   2.890   7.412 -0.3557  0.5175  0.1421
12694SOL    HW141487   7.727   2.841   7.484  0.8939  1.1703 -0.0523
12694SOL    HW241488   7.681   2.827   7.340  1.1859  0.5724 -0.0887
12695SOL     OW41489   9.555   2.260   4.427 -0.1049 -0.1241  0.1886
12695SOL    HW141490   9.599   2.180   4.456 -0.1389  0.7966  2.8874
12695SOL    HW241491   9.626   2.321   4.409 -0.1677  0.0533  0.5579
12696SOL     OW41492   1.981  10.559   0.987 -0.4893 -0.3876 -0.4173
12696SOL    HW141493   1.999  10.652   0.978 -0.2908 -0.5512 -1.7817
12696SOL    HW241494   2.067  10.518   0.992 -0.5668 -0.2827  2.7656
12697SOL     OW41495   4.425   5.249   8.795 -0.1530  0.0110  0.2245
12697SOL    HW141496   4.466   5.294   8.868 -1.7893  2.1624 -0.1197
12697SOL    HW241497   4.456   5.296   8.717 -2.7816  1.3914 -0.0657
12698SOL     OW41498   3.138   1.550   2.980  0.1681  0.1102  0.3183
12698SOL    HW141499   3.161   1.574   3.069  0.3339 -0.2331  0.3715
12698SOL    HW241500   3.183   1.614   2.925  1.0025 -0.3537  0.4338
12699SOL     OW41501   6.098   6.936   0.533 -0.4302  0.2261 -0.1840
12699SOL    HW141502   6.079   7.030   0.530  1.5046  0.6023 -1.5296
12699SOL    HW241503   6.014   6.894   0.513 -0.8192  1.7330 -1.8925
12700SOL     OW41504   2.988   7.662  10.319  0.2140 -0.4757 -0.3538
12700SOL    HW141505   2.921   7.640  10.253  0.3283 -0.0414 -0.6174
12700SOL    HW241506   3.032   7.579  10.336  0.0491 -0.6328 -0.6766
12701SOL     OW41507   6.659  10.364   7.211  0.0749 -0.4064  0.0207
12701SOL    HW141508   6.723  10.435   7.209 -1.5288  1.0450 -0.9145
12701SOL    HW241509   6.610  10.379   7.292 -1.7926  0.9607 -1.3332
12702SOL     OW41510   4.191   2.685   7.995 -0.1100 -0.2229  0.3849
12702SOL    HW141511   4.250   2.627   8.043 -0.2901 -0.9930 -0.3141
12702SOL    HW241512   4.245   2.723   7.926  0.6680  2.4343  2.3766
12703SOL     OW41513   7.012   5.953  10.090 -0.2805  0.0810  0.7035
12703SOL    HW141514   7.091   5.956  10.035 -0.9810  1.6456 -0.2393
12703SOL    HW241515   7.046   5.953  10.180  0.8217 -0.5514  0.2992
12704SOL     OW41516   4.200   3.195   7.517  0.0007  0.1927  0.3825
12704SOL    HW141517   4.239   3.198   7.605 -0.0429 -0.4138  0.4243
12704SOL    HW241518   4.230   3.112   7.480  1.2195  1.1170 -0.7428
12705SOL     OW41519   7.734   7.515   6.103  0.3445 -0.4146 -0.4340
12705SOL    HW141520   7.800   7.540   6.167 -1.8141 -1.4963  2.2994
12705SOL    HW241521   7.661   7.575   6.118  0.1191 -0.1145 -2.5092
12706SOL     OW41522   5.368   9.236   1.874 -0.1250  0.0278  0.1977
12706SOL    HW141523   5.408   9.248   1.788 -1.1174 -0.4417 -0.3463
12706SOL    HW241524   5.383   9.144   1.895  1.2840  0.4564  1.1440
12707SOL     OW41525   6.670   1.138   8.543  0.0408  0.0465 -0.0862
12707SOL    HW141526   6.736   1.077   8.508 -0.9554 -1.2557  0.2568
12707SOL    HW241527   6.634   1.093   8.619 -2.0808  0.2093 -0.9658
12708SOL     OW41528   7.127   8.301   6.430  0.0555  0.4291 -0.4281
12708SOL    HW141529   7.185   8.278   6.358  0.7982  2.5313 -0.5086
12708SOL    HW241530   7.080   8.379   6.400 -0.9522  0.2607  0.6464
12709SOL     OW41531   6.504   5.919   7.337 -0.3445 -0.2029  0.1831
12709SOL    HW141532   6.522   5.885   7.424  2.2053  2.1316  0.6444
12709SOL    HW241533   6.440   5.989   7.351 -1.6288 -1.2952 -0.1235
12710SOL     OW41534   4.681   3.763   5.859  0.0705 -0.2674 -0.2095
12710SOL    HW141535   4.685   3.780   5.765 -0.2213 -0.4297 -0.2520
12710SOL    HW241536   4.745   3.824   5.897  1.3288 -1.2774 -0.6532
12711SOL     OW41537   9.955   7.672   6.279 -0.4015 -0.2887  0.0312
12711SOL    HW141538   9.887   7.608   6.298 -1.1618 -0.7199 -3.6549
12711SOL    HW241539  10.014   7.627   6.219  0.8626  1.4101 -0.0571
12712SOL     OW41540   9.978   4.036   3.540 -0.3499  0.2498 -0.0681
12712SOL    HW141541  10.029   4.022   3.460  0.6569  1.3251  0.3565
12712SOL    HW241542   9.989   3.956   3.590  0.6332  0.3205 -0.1577
12713SOL     OW41543   2.077   1.504   3.740  0.0729 -0.6360  0.1465
12713SOL    HW141544   2.078   1.415   3.774  0.5517 -0.2069  1.2697
12713SOL    HW241545   2.146   1.550   3.789 -0.4786  0.4654 -0.0861
12714SOL     OW41546   2.204   0.198   3.717  0.0277  0.0759  0.0470
12714SOL    HW141547   2.150   0.122   3.739  0.0581  0.3370  1.0677
12714SOL    HW241548   2.238   0.179   3.630 -2.2699  0.2335 -0.8969
12715SOL     OW41549   4.233   7.746   4.362 -0.3582 -0.2825  0.1993
12715SOL    HW141550   4.142   7.747   4.392 -0.5033  0.5030 -0.2769
12715SOL    HW241551   4.228   7.732   4.268 -0.0391  1.1315 -0.0381
12716SOL     OW41552   9.014   4.896   3.773 -0.6116  0.2335  0.7812
12716SOL    HW141553   8.981   4.918   3.686 -0.2823 -2.5301 -0.0947
12716SOL    HW241554   8.947   4.928   3.834 -1.9015  0.2350 -0.6229
12717SOL     OW41555  10.573   1.098   0.972  0.3738  0.1548 -0.1200
12717SOL    HW141556  10.629   1.047   0.914  1.3320  1.2020 -0.1413
12717SOL    HW241557  10.627   1.113   1.050 -0.3061  0.1652  0.3493
12718SOL     OW41558   8.965   2.877   4.506  0.0664 -0.1327  0.4162
12718SOL    HW141559   9.039   2.828   4.471  0.1049  0.0073  0.3062
12718SOL    HW241560   8.963   2.855   4.599  0.7536  0.5115  0.5855
12719SOL     OW41561   2.115   1.487   5.401 -0.3906  0.4725 -0.2727
12719SOL    HW141562   2.107   1.565   5.456 -0.4781 -0.8613  1.6812
12719SOL    HW241563   2.032   1.440   5.414  0.3022 -0.7319 -0.1604
12720SOL     OW41564   5.238   8.318   5.588 -0.6293  0.3212 -0.1164
12720SOL    HW141565   5.272   8.229   5.602 -1.2154  0.0262 -0.5491
12720SOL    HW241566   5.221   8.323   5.494  0.2006  1.1910 -0.2321
12721SOL     OW41567   6.997   0.788   5.799 -0.2564  0.1582  0.3126
12721SOL    HW141568   6.977   0.835   5.880 -0.9570  1.2178 -0.4554
12721SOL    HW241569   7.071   0.836   5.762 -0.6468  0.3471 -0.2223
12722SOL     OW41570   9.895   1.289   7.940 -0.5195  0.7843  0.3180
12722SOL    HW141571   9.949   1.268   7.864  0.9844  0.8171  1.3554
12722SOL    HW241572   9.816   1.329   7.903 -0.5186 -0.6801 -1.2990
12723SOL     OW41573   6.816  10.521  10.301  0.4292  0.1561 -0.3945
12723SOL    HW141574   6.856  10.476  10.376  2.9249  1.6701 -0.7731
12723SOL    HW241575   6.722  10.512  10.315  0.8657 -0.2273  2.5345
12724SOL     OW41576   7.368   5.617   9.740  0.6581  0.0557  0.1346
12724SOL    HW141577   7.331   5.564   9.669  1.1006 -0.2220  0.1078
12724SOL    HW241578   7.442   5.566   9.772 -0.5761 -0.6482  1.9563
12725SOL     OW41579   5.377   8.035   8.397 -0.0281 -0.0369 -0.5945
12725SOL    HW141580   5.386   8.125   8.368  1.8078 -0.3388 -1.0054
12725SOL    HW241581   5.286   8.028   8.425 -1.1485  1.0094 -3.7451
12726SOL     OW41582   9.720   5.955   5.134  0.9976 -0.5249  0.1751
12726SOL    HW141583   9.682   6.041   5.114  0.7888 -0.6455  0.0496
12726SOL    HW241584   9.707   5.944   5.228  2.6314  0.3614  0.5221
12727SOL     OW41585   9.811   7.966  10.665  0.0413 -0.2645 -0.5173
12727SOL    HW141586   9.757   7.891  10.640  0.1520 -2.0009  3.9463
12727SOL    HW241587   9.753   8.041  10.656 -1.0991 -1.2766 -1.9297
12728SOL     OW41588  10.788   6.974   9.037  0.1245  0.1097  0.1968
12728SOL    HW141589  10.816   6.913   8.968  0.5423  0.3398  0.1604
12728SOL    HW241590  10.740   6.919   9.099 -0.9925  0.0430 -0.6950
12729SOL     OW41591   6.657   4.085   6.687  0.7281  0.0397 -0.6950
12729SOL    HW141592   6.574   4.096   6.733  0.4684  0.8261 -1.3447
12729SOL    HW241593   6.677   3.991   6.695  0.5073  0.1108  0.6963
12730SOL     OW41594   7.033   9.671   1.424  0.4151  0.6077 -0.3395
12730SOL    HW141595   6.993   9.735   1.366  0.2086  2.1062  1.4260
12730SOL    HW241596   7.010   9.586   1.385 -2.1719  1.4949 -0.8492
12731SOL     OW41597   0.824  10.408  10.611  0.2452 -0.2976  0.0782
12731SOL    HW141598   0.914  10.387  10.588  0.5305  0.1292  0.7837
12731SOL    HW241599   0.782  10.322  10.625  1.2750 -0.4560  2.4469
12732SOL     OW41600   8.148   2.971   4.695  0.1957  0.6123 -0.0613
12732SOL    HW141601   8.203   3.038   4.655 -0.1919  0.4502 -0.8701
12732SOL    HW241602   8.061   2.985   4.658 -0.1992  0.5468  0.8294
12733SOL     OW41603   8.365   8.665   0.163 -0.3092  0.3613 -0.1595
12733SOL    HW141604   8.356   8.759   0.181 -1.0969  0.4428 -0.9174
12733SOL    HW241605   8.327   8.654   0.075 -2.8760 -1.1181  1.0753
12734SOL     OW41606   4.186   6.848   1.385  0.2395  0.1225  0.5657
12734SOL    HW141607   4.201   6.764   1.340 -1.8289 -0.9947  1.9163
12734SOL    HW241608   4.271   6.869   1.425  1.3182 -0.2965 -1.4492
12735SOL     OW41609   6.009   1.233   4.406 -0.5445 -0.0389  0.3002
12735SOL    HW141610   6.004   1.219   4.312 -0.8324 -0.7169  0.4103
12735SOL    HW241611   6.097   1.266   4.421 -1.0071  1.5594 -0.3886
12736SOL     OW41612   2.057   7.833   9.524  0.3756  0.5039 -0.7216
12736SOL    HW141613   2.013   7.756   9.489 -0.6096 -0.0315  1.6131
12736SOL    HW241614   1.990   7.901   9.523 -0.8587 -0.4911  3.4811
12737SOL     OW41615   9.327   4.668   7.256  0.5864  0.0528  0.2264
12737SOL    HW141616   9.236   4.661   7.230  0.3445 -0.0190  1.0618
12737SOL    HW241617   9.375   4.614   7.193  0.2831  1.5801 -1.3468
12738SOL     OW41618   0.548   2.120   6.001 -0.3719 -0.0913  0.7060
12738SOL    HW141619   0.584   2.208   6.006  1.2861 -0.7417  0.4696
12738SOL    HW241620   0.454   2.133   5.992 -0.2331  1.6347  1.5887
12739SOL     OW41621   6.511   0.954   1.532  0.8947 -0.3682  0.8749
12739SOL    HW141622   6.486   1.032   1.581 -2.5998  0.8810 -2.5963
12739SOL    HW241623   6.598   0.932   1.563  0.3166  2.4992  4.8620
12740SOL     OW41624   2.994   6.547   0.552  0.2834  0.3581 -0.1114
12740SOL    HW141625   3.045   6.485   0.499  0.5285  0.6296 -0.1927
12740SOL    HW241626   3.059   6.596   0.601  0.0818  0.4743  0.0390
12741SOL     OW41627   4.979   7.872   9.093 -0.2589  0.6122 -0.4847
12741SOL    HW141628   5.042   7.927   9.140 -1.4271 -0.2107  2.1171
12741SOL    HW241629   4.896   7.917   9.103 -0.3311  1.1613 -3.0496
12742SOL     OW41630   3.670  10.516   4.315  0.6770 -0.1083 -0.2552
12742SOL    HW141631   3.586  10.530   4.357  0.2311 -1.4922 -0.6715
12742SOL    HW241632   3.728  10.582   4.354 -0.6163  0.9234 -0.0536
12743SOL     OW41633   5.954   8.243   5.516 -0.3239 -0.3956 -0.2390
12743SOL    HW141634   6.005   8.162   5.508 -1.1142 -0.9867  0.5801
12743SOL    HW241635   5.998   8.305   5.459  0.1543 -1.4845 -1.0778
12744SOL     OW41636   1.526   0.259   2.755  0.0254  0.0815 -0.1205
12744SOL    HW141637   1.554   0.241   2.844  1.3187  2.4054  0.0000
12744SOL    HW241638   1.451   0.202   2.741  0.0799 -0.6318  2.2863
12745SOL     OW41639   8.714   3.876   6.231 -0.2581  0.3079  0.7255
12745SOL    HW141640   8.677   3.921   6.155  2.4333 -0.7187 -1.2493
12745SOL    HW241641   8.673   3.790   6.231 -2.3524  1.2593  2.1307
12746SOL     OW41642  10.755   1.112   6.082  1.0662  0.0955 -0.0959
12746SOL    HW141643  10.807   1.094   6.160 -0.3108  2.3611  1.4072
12746SOL    HW241644  10.681   1.052   6.088  0.2112  1.2216  1.1601
12747SOL     OW41645   6.969   7.133   3.100 -0.0790  0.3185  0.2810
12747SOL    HW141646   7.030   7.061   3.115  0.0299  0.3771  0.1173
12747SOL    HW241647   6.894   7.113   3.157 -0.1035  0.0115  0.1426
12748SOL     OW41648   7.726   9.544   8.591 -0.5015 -0.1621 -0.0446
12748SOL    HW141649   7.758   9.455   8.608 -1.3942 -0.4038  0.3803
12748SOL    HW241650   7.632   9.539   8.604 -0.6069  0.7663 -0.3940
12749SOL     OW41651   2.859   3.383   9.170  0.1552 -0.2736 -0.2967
12749SOL    HW141652   2.874   3.442   9.095 -0.7728 -0.0911 -0.3446
12749SOL    HW241653   2.835   3.442   9.242  1.3429 -0.4251  0.2354
12750SOL     OW41654   7.369   9.475   5.364  0.3846  0.0991 -0.2568
12750SOL    HW141655   7.400   9.554   5.319  0.1735  0.0494 -0.4889
12750SOL    HW241656   7.428   9.466   5.439 -1.2505  2.0074  1.3097
12751SOL     OW41657   5.188   9.411   2.014 -0.0538  0.6988  0.3555
12751SOL    HW141658   5.237   9.336   1.979  1.4822  1.3681  1.0063
12751SOL    HW241659   5.123   9.372   2.073 -0.3837 -0.2144 -0.5967
12752SOL     OW41660   2.581   7.748   0.899  0.5396 -0.2332  0.0975
12752SOL    HW141661   2.601   7.696   0.977  1.3013  0.9619  0.7084
12752SOL    HW241662   2.666   7.783   0.871 -0.1051  1.5651  0.3409
12753SOL     OW41663   3.059  10.314   9.865 -0.2293 -0.1306 -0.0020
12753SOL    HW141664   2.981  10.338   9.916 -0.6376 -1.0878 -0.1752
12753SOL    HW241665   3.129  10.308   9.930 -0.3395  0.5136  0.1842
12754SOL     OW41666   8.309   0.104   4.965 -0.2215  0.5427  0.3052
12754SOL    HW141667   8.316   0.031   5.027 -0.3594  0.1317 -0.1557
12754SOL    HW241668   8.266   0.174   5.014 -3.0251 -0.7832 -0.1619
12755SOL     OW41669   9.679   2.503   5.312 -0.1560  0.7116  0.4745
12755SOL    HW141670   9.771   2.475   5.306 -0.6268 -0.9513  0.9951
12755SOL    HW241671   9.649   2.504   5.221  0.3783  1.3163  0.2958
12756SOL     OW41672   4.813  10.038   8.102 -0.2608  0.3349 -0.4083
12756SOL    HW141673   4.891  10.072   8.058 -0.3815  0.8098 -0.2535
12756SOL    HW241674   4.781   9.969   8.044 -0.3144  0.8376 -0.9751
12757SOL     OW41675   1.766   2.029   0.423  0.2058  0.0607  0.5509
12757SOL    HW141676   1.847   2.010   0.470  1.7841  0.9762 -1.7251
12757SOL    HW241677   1.705   1.961   0.452  2.9465 -2.9803 -0.5346
12758SOL     OW41678   1.172   7.170   4.625 -0.2331 -0.2517  0.2387
12758SOL    HW141679   1.141   7.100   4.683 -1.6590  0.7262  0.6818
12758SOL    HW241680   1.259   7.141   4.597  0.1518 -1.0990  2.2468
12759SOL     OW41681  10.084   4.984  10.081  0.0975  0.0371  0.1327
12759SOL    HW141682  10.079   5.078  10.066 -0.2084  0.0960  0.5782
12759SOL    HW241683  10.161   4.955  10.032 -0.7593  0.2450 -1.3883
12760SOL     OW41684   0.290   2.053   8.980 -0.0364  0.8012 -0.3312
12760SOL    HW141685   0.335   1.968   8.983 -0.0613  0.7216 -1.8979
12760SOL    HW241686   0.276   2.069   8.887  0.2111  2.6633 -0.0657
12761SOL     OW41687   0.555   1.054   6.315 -0.5552 -0.0760 -0.1535
12761SOL    HW141688   0.497   1.013   6.250 -1.5882 -0.8251  1.2182
12761SOL    HW241689   0.527   1.016   6.398  1.4089  0.1466  0.6134
12762SOL     OW41690   0.553   2.076   2.242  0.0887 -0.1804  0.1859
12762SOL    HW141691   0.478   2.055   2.298 -0.7713  1.4254 -0.3066
12762SOL    HW241692   0.625   2.091   2.303  0.4693 -3.3109  0.5932
12763SOL     OW41693   5.273   2.950   6.445  0.2574  0.2450 -0.2751
12763SOL    HW141694   5.201   3.003   6.411  0.0847 -0.2059 -0.6143
12763SOL    HW241695   5.343   2.962   6.381 -0.2242 -0.9703 -1.0353
12764SOL     OW41696   3.955   2.822   1.496  0.2506 -0.1306  0.3705
12764SOL    HW141697   3.981   2.913   1.509  1.3053 -0.4572  0.6442
12764SOL    HW241698   3.887   2.806   1.562 -0.3111  0.6011 -0.0256
12765SOL     OW41699   7.833   4.391   3.215 -0.3815 -0.7063 -0.1378
12765SOL    HW141700   7.758   4.337   3.190  0.1946 -0.8598 -1.6332
12765SOL    HW241701   7.812   4.479   3.183 -0.0842 -0.6763 -0.2601
12766SOL     OW41702   6.707   0.956   2.436 -0.5116 -0.6582  0.2031
12766SOL    HW141703   6.751   0.872   2.444 -1.1522 -0.9741  0.4522
12766SOL    HW241704   6.742   1.009   2.508 -0.3022 -0.8036  0.2056
12767SOL     OW41705   5.644   7.002   9.505 -0.0451  0.1333 -0.4060
12767SOL    HW141706   5.637   7.087   9.548 -1.2556 -0.3456  0.3781
12767SOL    HW241707   5.735   6.997   9.476 -0.1684  2.0236 -1.1650
12768SOL     OW41708   5.120  10.507   3.374 -0.2151  0.3064  0.5386
12768SOL    HW141709   5.166  10.472   3.451 -0.5761  0.5031  0.8427
12768SOL    HW241710   5.190  10.525   3.312  0.0401 -0.2982  0.6421
12769SOL     OW41711   4.519   1.879   2.608 -0.2883 -0.0139 -1.2286
12769SOL    HW141712   4.489   1.849   2.522 -1.8080  0.5279 -0.9150
12769SOL    HW241713   4.445   1.860   2.667  0.8619 -0.6875  0.0184
12770SOL     OW41714   3.083   5.777   9.593  0.0280  0.0075  0.4715
12770SOL    HW141715   3.165   5.827   9.590  0.1206 -0.2136 -1.1894
12770SOL    HW241716   3.095   5.708   9.528 -2.2928  1.2759 -1.3788
12771SOL     OW41717   1.867   5.496   6.487 -0.5301  0.0256 -0.3282
12771SOL    HW141718   1.829   5.434   6.425 -2.8724  1.5956 -0.5006
12771SOL    HW241719   1.839   5.465   6.573  0.2017 -0.4317 -0.2492
12772SOL     OW41720   3.326   7.598  10.282 -0.3156  0.5702 -0.2101
12772SOL    HW141721   3.238   7.612  10.248 -0.6930 -2.7532 -0.7281
12772SOL    HW241722   3.331   7.653  10.360 -3.9806 -1.4900  1.5857
12773SOL     OW41723   1.851   9.402   2.174 -0.1706  0.4277 -0.0144
12773SOL    HW141724   1.865   9.460   2.248 -0.9168 -0.8209  1.1250
12773SOL    HW241725   1.892   9.320   2.200 -0.5884 -0.0750 -0.9096
12774SOL     OW41726   4.913   3.604   3.603 -0.1055 -0.5220  0.3039
12774SOL    HW141727   4.869   3.535   3.652 -1.4317  0.4486  0.4997
12774SOL    HW241728   4.939   3.563   3.520 -2.4285 -0.8143 -0.3125
12775SOL     OW41729   6.527   1.405   7.460  0.1726 -0.2641 -0.4319
12775SOL    HW141730   6.609   1.361   7.484  0.9287  0.6370 -1.3070
12775SOL    HW241731   6.505   1.457   7.537  2.3381  2.2502 -1.4209
12776SOL     OW41732   3.644   1.149   9.463 -0.3175  0.5156 -0.2436
12776SOL    HW141733   3.740   1.143   9.455 -0.3206 -0.0695  0.1841
12776SOL    HW241734   3.629   1.233   9.506 -0.0509  1.1872 -1.4501
12777SOL     OW41735   5.608   4.664   1.138 -0.3331  0.2872  0.0138
12777SOL    HW141736   5.524   4.687   1.176 -0.1894  0.1729  0.3983
12777SOL    HW241737   5.618   4.570   1.153  0.1383  0.4133  0.5121
12778SOL     OW41738   0.627   8.486   9.423  0.4416  0.1436  0.2502
12778SOL    HW141739   0.636   8.581   9.416  1.3846  0.1463  1.4330
12778SOL    HW241740   0.546   8.474   9.473 -0.5932  0.2807 -1.3445
12779SOL     OW41741   2.217   7.409   6.154  0.2427 -0.3458 -0.5086
12779SOL    HW141742   2.224   7.428   6.247  0.2239 -2.1887 -0.1012
12779SOL    HW241743   2.143   7.462   6.124  1.3123  1.5460  0.1356
12780SOL     OW41744   0.239   5.550  10.543  0.6936 -0.0686  0.4284
12780SOL    HW141745   0.173   5.580  10.480  1.0082 -0.6370 -0.1814
12780SOL    HW241746   0.243   5.619  10.608  0.6713  0.7321 -0.4072
12781SOL     OW41747   9.832   0.855   8.305  0.5402  0.1649  0.1654
12781SOL    HW141748   9.851   0.948   8.318  2.2837  0.0821 -1.5575
12781SOL    HW241749   9.911   0.820   8.265 -0.3162 -1.9603  0.2683
12782SOL     OW41750   1.053   8.055   0.720  0.0616  0.3769 -0.4667
12782SOL    HW141751   1.062   7.963   0.745  1.1755  0.6708  0.2690
12782SOL    HW241752   0.999   8.053   0.641  1.2322 -1.0223 -1.2630
12783SOL     OW41753   7.478   6.374  10.031  0.1215 -0.3430 -0.2225
12783SOL    HW141754   7.535   6.315   9.981  2.7720  0.9292  1.1985
12783SOL    HW241755   7.489   6.459   9.989 -0.3989 -0.0103  0.3077
12784SOL     OW41756   0.140   7.977   8.693  0.4600 -0.4218  0.0132
12784SOL    HW141757   0.128   8.071   8.704 -0.7716 -0.5938  0.1967
12784SOL    HW241758   0.099   7.957   8.608  1.3227 -0.6845 -0.3485
12785SOL     OW41759   8.817   6.761   6.311 -0.4301 -0.1090 -0.1154
12785SOL    HW141760   8.860   6.683   6.346  0.9078  0.3824 -0.6098
12785SOL    HW241761   8.736   6.729   6.273  0.6283 -1.4441 -1.3007
12786SOL     OW41762   6.048   5.286   6.744 -0.0532  0.0138  0.0182
12786SOL    HW141763   6.103   5.231   6.688 -0.9941 -1.0503  0.1488
12786SOL    HW241764   5.981   5.320   6.685 -0.1952  0.0464  0.2006
12787SOL     OW41765   7.914   4.491   9.014  0.2804 -0.3896  0.1599
12787SOL    HW141766   7.927   4.444   9.096 -1.7916  0.4686  1.0043
12787SOL    HW241767   7.820   4.483   8.996  0.5009  0.4851 -1.4893
12788SOL     OW41768   0.295   8.053   9.843 -0.1047 -0.2538 -0.3116
12788SOL    HW141769   0.274   8.052   9.936  2.1289 -0.5693  0.2331
12788SOL    HW241770   0.303   7.960   9.819  0.5285 -0.1607 -0.4944
12789SOL     OW41771   9.801   4.934   4.072  0.1017  0.1113 -0.3541
12789SOL    HW141772   9.805   4.990   3.994 -0.8290  0.7037  0.0064
12789SOL    HW241773   9.784   4.995   4.144  1.7471 -0.3333  0.4350
12790SOL     OW41774   9.642   3.345   6.199  0.0782  0.3125 -0.5058
12790SOL    HW141775   9.579   3.351   6.128  0.4923 -1.0658 -0.9943
12790SOL    HW241776   9.590   3.357   6.279 -0.4118  1.6576 -1.0051
12791SOL     OW41777   9.178   3.250   9.470 -0.9406 -0.4837  0.2453
12791SOL    HW141778   9.240   3.264   9.541  0.3160 -0.5319 -0.8277
12791SOL    HW241779   9.188   3.326   9.414 -1.0501 -1.0300 -0.5165
12792SOL     OW41780   9.156   1.076   0.358 -0.3277 -0.1975 -0.3399
12792SOL    HW141781   9.071   1.107   0.390 -0.1654  0.4651 -0.5352
12792SOL    HW241782   9.220   1.123   0.412 -0.0610  0.6104 -1.3498
12793SOL     OW41783   0.010   3.644  10.173 -0.0870 -0.1531 -0.0965
12793SOL    HW141784   0.030   3.553  10.149 -0.4806  0.0387 -1.1775
12793SOL    HW241785   0.054   3.657  10.257  1.1715 -0.9076 -0.6306
12794SOL     OW41786   8.646   7.778   0.257  0.1820 -0.0353  0.1371
12794SOL    HW141787   8.677   7.868   0.252 -1.1543  0.4472  0.2617
12794SOL    HW241788   8.558   7.785   0.293 -0.9751 -1.1638 -2.3564
12795SOL     OW41789   7.173   7.866   4.627 -0.4761 -0.1921  0.4391
12795SOL    HW141790   7.141   7.854   4.717  2.1087  1.2017  1.5795
12795SOL    HW241791   7.213   7.781   4.605 -0.5419 -0.3307  0.8434
12796SOL     OW41792   4.175   8.211   1.162 -0.9271  0.4570 -0.1677
12796SOL    HW141793   4.212   8.192   1.076 -1.1705 -1.3141  0.1017
12796SOL    HW241794   4.082   8.191   1.154 -0.8047 -0.5340  0.7287
12797SOL     OW41795   9.852   7.387   5.938 -0.0662  0.1165 -0.2761
12797SOL    HW141796   9.804   7.321   5.887 -0.5611 -0.8140  1.3767
12797SOL    HW241797   9.913   7.426   5.875 -0.4166 -1.2778 -1.5031
12798SOL     OW41798   3.960   0.498   5.484 -0.4570  0.4772  0.7713
12798SOL    HW141799   3.993   0.410   5.466 -1.7969 -0.0598  0.8664
12798SOL    HW241800   4.032   0.556   5.460  0.1812 -0.6058  0.0224
12799SOL     OW41801  10.040   4.190   7.911  0.0793  0.3214  0.0699
12799SOL    HW141802  10.021   4.265   7.968 -0.5445  0.8218 -0.7865
12799SOL    HW241803  10.061   4.229   7.826 -0.5859 -0.4766 -0.4754
12800SOL     OW41804   2.595   9.538   2.996  0.0677 -0.4851 -0.1414
12800SOL    HW141805   2.617   9.534   3.089 -0.9363  0.7533  0.1593
12800SOL    HW241806   2.677   9.564   2.953 -0.0598  1.3175  0.6575
12801SOL     OW41807   7.369  10.416  10.690 -0.0328 -0.3333 -0.0128
12801SOL    HW141808   7.408  10.419  10.603  1.5707 -1.8733  0.6193
12801SOL    HW241809   7.306  10.344  10.686 -2.0830  1.4485 -0.7090
12802SOL     OW41810   7.781   5.358   2.752  0.1056 -0.7986  0.6361
12802SOL    HW141811   7.765   5.356   2.846  2.6427  3.7276  1.2985
12802SOL    HW241812   7.870   5.322   2.742  0.9369  1.2869  0.3243
12803SOL     OW41813   6.991   6.231   2.662 -0.1306  0.4976 -0.3256
12803SOL    HW141814   6.994   6.225   2.567 -1.9053 -0.3223 -0.3509
12803SOL    HW241815   7.039   6.311   2.683  1.1403  0.1406 -1.8346
12804SOL     OW41816  10.372   7.974   0.039  0.1953 -0.4112 -0.5029
12804SOL    HW141817  10.429   8.050   0.055  0.3301 -0.4338 -0.8760
12804SOL    HW241818  10.388   7.917   0.114 -2.8989  1.7224  1.9466
12805SOL     OW41819   8.623   2.320   8.877 -0.0363 -0.5880 -0.3533
12805SOL    HW141820   8.565   2.382   8.920  0.2263  0.6194 -1.6956
12805SOL    HW241821   8.710   2.340   8.910  0.0415 -0.2523 -0.7477
12806SOL     OW41822   9.985   1.494   1.311  0.5678 -0.1984 -0.0303
12806SOL    HW141823   9.974   1.399   1.318 -1.8445 -0.2183 -2.9036
12806SOL    HW241824  10.060   1.505   1.253  2.4164 -0.2600  2.2620
12807SOL     OW41825   0.598   4.329   5.056  0.3648  0.1106 -0.2950
12807SOL    HW141826   0.627   4.417   5.077 -0.6738  0.0921  1.2920
12807SOL    HW241827   0.660   4.298   4.989  0.8025  1.9754 -0.7714
12808SOL     OW41828   8.743   2.300   7.964  0.4989 -0.2969  0.0547
12808SOL    HW141829   8.707   2.349   8.038  0.0647 -0.7115  0.1244
12808SOL    HW241830   8.748   2.364   7.893 -0.9149 -0.3542 -0.1209
12809SOL     OW41831   4.067   6.668   0.900  0.0680 -0.1071  0.3324
12809SOL    HW141832   4.033   6.695   0.985  1.3219 -0.8221  1.0805
12809SOL    HW241833   4.029   6.583   0.884 -0.2827  0.0919  0.1102
12810SOL     OW41834   9.831   2.951   7.146  0.0103 -0.1990 -0.7220
12810SOL    HW141835   9.790   2.899   7.077  0.8843 -0.0084 -1.3960
12810SOL    HW241836   9.898   3.002   7.100 -2.0240  2.8820 -0.4120
12811SOL     OW41837   9.017   2.576   5.031 -0.5197 -0.2966  0.1289
12811SOL    HW141838   8.932   2.620   5.039 -0.5279  0.1979 -2.4848
12811SOL    HW241839   9.073   2.622   5.094 -1.2114  1.8624 -0.7667
12812SOL     OW41840   8.972   6.127   9.580  0.5590 -0.5215  0.5276
12812SOL    HW141841   8.997   6.115   9.488  0.6789 -1.2471  0.6522
12812SOL    HW241842   8.881   6.157   9.576  0.1089 -1.8960  0.2122
12813SOL     OW41843   3.367   9.072   1.879 -0.5958 -0.1801 -0.0942
12813SOL    HW141844   3.324   9.122   1.810 -2.2201  0.5292  1.3808
12813SOL    HW241845   3.331   8.984   1.871 -1.8071  0.2336  0.6823
12814SOL     OW41846   6.894  10.440   1.155 -0.2106 -0.0083 -0.0501
12814SOL    HW141847   6.863  10.530   1.160  2.2262  1.0095 -2.2088
12814SOL    HW241848   6.819  10.390   1.124 -1.2384  1.4895  0.0149
12815SOL     OW41849   5.486   3.688   2.872 -0.3876  0.1048  0.2442
12815SOL    HW141850   5.394   3.709   2.855 -0.6191 -2.0115 -1.3613
12815SOL    HW241851   5.483   3.618   2.938  0.1328  0.8539  1.0769
12816SOL     OW41852   6.045   4.709   3.225 -0.1610 -0.1337  0.5003
12816SOL    HW141853   6.054   4.624   3.268 -0.3619 -1.0671 -1.2572
12816SOL    HW241854   6.111   4.707   3.156 -0.5311  0.9374  0.1145
12817SOL     OW41855  10.688   7.082   7.189  0.3694 -0.1381  0.0385
12817SOL    HW141856  10.660   7.126   7.108 -3.7369  1.8665  2.3942
12817SOL    HW241857  10.750   7.143   7.229 -0.0118  0.3192 -0.0647
12818SOL     OW41858   3.608   8.563  10.213  0.5289 -0.4938 -0.2536
12818SOL    HW141859   3.622   8.658  10.216  0.4222 -0.3672 -2.7024
12818SOL    HW241860   3.518   8.552  10.245  0.9173  0.1151  1.0824
12819SOL     OW41861   3.783   2.251   5.234  0.2441 -0.0088  0.4806
12819SOL    HW141862   3.740   2.329   5.268  1.4992  1.7704 -1.9240
12819SOL    HW241863   3.795   2.195   5.311 -1.1845  1.9035  2.1294
12820SOL     OW41864   1.259   2.005   6.079  0.4382  0.2299  0.5227
12820SOL    HW141865   1.298   1.918   6.071  0.2907  0.2356 -0.2608
12820SOL    HW241866   1.210   2.002   6.161  0.2251 -0.5094  0.3676
12821SOL     OW41867   7.580   0.673   0.927 -0.0968 -0.3183 -0.0508
12821SOL    HW141868   7.601   0.752   0.977  0.0906  0.4894 -1.3757
12821SOL    HW241869   7.498   0.694   0.883 -0.9971 -1.5456  0.9922
12822SOL     OW41870   8.515   7.839   3.136 -0.0520  0.2885 -0.1376
12822SOL    HW141871   8.554   7.857   3.222  0.3344 -0.1818 -0.2140
12822SOL    HW241872   8.589   7.840   3.075 -0.4773  1.8225 -0.6508
12823SOL     OW41873   9.536   5.342   2.663 -0.0697  0.2939 -0.2091
12823SOL    HW141874   9.628   5.371   2.662  0.4111 -1.2074  0.2001
12823SOL    HW241875   9.539   5.252   2.632 -1.6708  0.9194 -2.3405
12824SOL     OW41876   6.487   8.110   5.215 -0.1979 -0.2504 -0.2918
12824SOL    HW141877   6.517   8.025   5.247  1.4708  0.1728 -0.6984
12824SOL    HW241878   6.502   8.170   5.289 -1.3348 -0.2790 -0.0199
12825SOL     OW41879   5.524   2.046   8.889  0.2100  0.0676  0.1278
12825SOL    HW141880   5.491   2.023   8.976 -1.2746  0.4373 -0.3192
12825SOL    HW241881   5.467   1.999   8.828  0.3661  0.8974 -0.6749
12826SOL     OW41882   1.402   4.771   8.374 -0.3093  0.4773  0.4875
12826SOL    HW141883   1.373   4.738   8.459 -0.2780  0.4753  0.4981
12826SOL    HW241884   1.364   4.710   8.310  1.3306 -0.6871  0.6097
12827SOL     OW41885   5.836   8.107   1.618 -0.2684 -0.1653 -0.1835
12827SOL    HW141886   5.860   8.154   1.538 -1.5795  2.3500  0.8148
12827SOL    HW241887   5.796   8.026   1.587  0.5274  0.1253 -2.0429
12828SOL     OW41888   2.290   6.906   3.966  0.0561  0.0039  0.2303
12828SOL    HW141889   2.205   6.867   3.946 -0.4205  0.3498  1.5152
12828SOL    HW241890   2.287   6.922   4.061  1.0646  1.1695  0.0756
12829SOL     OW41891   8.749   7.414   6.773  0.7886  0.2517  0.4435
12829SOL    HW141892   8.732   7.355   6.699  0.7668  0.4034  0.3257
12829SOL    HW241893   8.680   7.480   6.767 -1.0764 -1.4383  2.4205
12830SOL     OW41894   0.772   8.008  10.941 -0.0047  0.1443  0.8263
12830SOL    HW141895   0.777   7.914  10.960  1.6780  0.0815  0.1424
12830SOL    HW241896   0.819   8.018  10.858 -1.3871  1.3908  0.1650
12831SOL     OW41897   7.525   4.806   8.072  0.0541 -0.6616 -0.9170
12831SOL    HW141898   7.496   4.864   8.002  0.1632 -0.7059 -0.9997
12831SOL    HW241899   7.608   4.844   8.103 -0.5165 -0.0610 -0.1089
12832SOL     OW41900   2.188   0.205   1.279  0.1077 -0.0703  0.0565
12832SOL    HW141901   2.147   0.129   1.318  1.2326 -0.5002  0.4293
12832SOL    HW241902   2.117   0.269   1.269 -0.8760 -1.2293 -0.4445
12833SOL     OW41903   0.194  10.746   2.066  0.4725  0.1195  0.2169
12833SOL    HW141904   0.104  10.778   2.062  0.4638  0.0256 -0.4447
12833SOL    HW241905   0.230  10.765   1.979  0.6338 -1.1673 -0.0065
12834SOL     OW41906   1.828   2.557   5.195 -0.1947  0.4468 -0.0127
12834SOL    HW141907   1.799   2.523   5.280 -1.4792  0.4222 -0.4477
12834SOL    HW241908   1.843   2.650   5.211 -0.9863  0.5591  0.1112
12835SOL     OW41909   5.060   5.831   3.454  0.5949  0.4546  0.1396
12835SOL    HW141910   5.124   5.873   3.396 -2.3519  2.6612 -1.6450
12835SOL    HW241911   5.027   5.902   3.508 -0.3550 -0.6666  1.0613
12836SOL     OW41912   5.168   7.947  10.104 -0.1435 -0.2496  0.0602
12836SOL    HW141913   5.226   8.023  10.109  0.1689 -0.3991 -1.1573
12836SOL    HW241914   5.131   7.939  10.192  1.7744 -0.2380  0.8886
12837SOL     OW41915  10.550   8.418   5.759  0.0306 -0.1412 -0.2216
12837SOL    HW141916  10.593   8.334   5.745  1.1593  0.2794  0.5797
12837SOL    HW241917  10.492   8.404   5.834  0.0682 -0.2579 -0.2137
12838SOL     OW41918   3.281   1.010   5.500  0.0052  0.3944  0.3099
12838SOL    HW141919   3.207   0.950   5.494  0.5727 -0.4465  1.4458
12838SOL    HW241920   3.331   0.996   5.419  1.3807 -2.3850  1.5658
12839SOL     OW41921   3.377   5.135   0.693 -0.6601 -0.0946  0.4779
12839SOL    HW141922   3.375   5.082   0.613 -0.7754 -1.5410  1.4153
12839SOL    HW241923   3.316   5.207   0.675 -1.7631 -1.1776 -0.2127
12840SOL     OW41924   9.455   5.734   5.572  0.2246 -0.4877 -0.3051
12840SOL    HW141925   9.360   5.733   5.575  0.2414 -2.8133  0.0712
12840SOL    HW241926   9.477   5.710   5.482  0.4741 -0.4354 -0.2594
12841SOL     OW41927   7.471   4.139   3.991 -0.1452 -0.2938 -0.0350
12841SOL    HW141928   7.434   4.054   3.966  1.0705 -1.1596  1.0072
12841SOL    HW241929   7.533   4.159   3.922  1.0101 -1.2298  0.7046
12842SOL     OW41930   3.741  10.495   4.894  0.1166  0.4638 -0.3360
12842SOL    HW141931   3.768  10.503   4.803  0.9576 -0.1109 -0.1439
12842SOL    HW241932   3.823  10.501   4.944 -0.0319 -1.8313  0.2171
12843SOL     OW41933   5.857   0.044   6.623  0.4172 -0.2619 -0.0801
12843SOL    HW141934   5.911  -0.026   6.589 -0.6198 -1.1413  0.0567
12843SOL    HW241935   5.849   0.106   6.550  2.0635  0.1746  0.0846
12844SOL     OW41936   8.618   1.934   8.514 -0.8517  0.2270 -0.1629
12844SOL    HW141937   8.615   1.954   8.421 -1.9989 -0.9733 -0.3990
12844SOL    HW241938   8.652   1.844   8.519 -0.6255  0.3425  0.5835
12845SOL     OW41939   9.098  10.808   7.454  0.2114 -0.0279  0.0240
12845SOL    HW141940   9.129  10.899   7.449  0.7665 -0.1670  0.9351
12845SOL    HW241941   9.018  10.808   7.401  0.7273  0.7679 -0.7828
12846SOL     OW41942   4.855   2.903   0.892 -0.0661 -0.5418 -0.1095
12846SOL    HW141943   4.779   2.942   0.849  0.2846 -0.5106 -0.7028
12846SOL    HW241944   4.824   2.818   0.923 -0.6880 -0.0225  0.7365
12847SOL     OW41945   9.016   5.320   4.036 -0.0109 -0.0626 -0.0497
12847SOL    HW141946   9.077   5.254   4.003  1.3494  0.3208  1.6369
12847SOL    HW241947   9.066   5.367   4.103 -1.0518  2.4787 -0.9893
12848SOL     OW41948   1.216   2.510   7.488 -1.2320 -0.2768 -0.0235
12848SOL    HW141949   1.293   2.560   7.458  0.0170 -2.2972 -0.2576
12848SOL    HW241950   1.203   2.538   7.578  1.0729 -1.4275  0.6999
12849SOL     OW41951   4.579   2.422   1.179  0.2022 -0.2705  0.0437
12849SOL    HW141952   4.562   2.484   1.249  1.5832 -0.6893  0.7536
12849SOL    HW241953   4.573   2.336   1.221 -0.9598 -0.6138 -0.7765
12850SOL     OW41954   7.287   4.830   3.160 -0.1575  0.3476  0.2787
12850SOL    HW141955   7.276   4.881   3.240  2.0652  1.0860  0.1303
12850SOL    HW241956   7.378   4.802   3.161  0.2661  1.3992 -2.5985
12851SOL     OW41957   2.682   3.132   0.190  0.2838 -0.2658 -0.6668
12851SOL    HW141958   2.680   3.139   0.286  1.1482  1.4089 -0.7515
12851SOL    HW241959   2.637   3.050   0.171  0.4628 -0.8240  1.2032
12852SOL     OW41960   4.857  10.906   9.854  0.0409  0.4216  0.1931
12852SOL    HW141961   4.797  10.876   9.922 -0.2391 -1.1683 -0.7267
12852SOL    HW241962   4.850  11.002   9.856 -0.6526  0.3562  1.7544
12853SOL     OW41963   2.745   6.428   0.959  0.3829  0.1963 -0.4824
12853SOL    HW141964   2.768   6.465   0.874 -0.7543  0.6159 -0.6179
12853SOL    HW241965   2.664   6.379   0.943 -1.3683  2.5447  0.8977
12854SOL     OW41966   4.475   3.155   0.456 -0.2681 -0.1624 -0.0085
12854SOL    HW141967   4.396   3.122   0.499  0.4247 -1.9965 -0.1084
12854SOL    HW241968   4.539   3.162   0.527  0.3059 -1.3654 -0.3922
12855SOL     OW41969   3.074   3.310   4.005 -0.4091 -0.7425  0.3137
12855SOL    HW141970   3.123   3.228   3.999 -0.8582 -1.0083  0.2702
12855SOL    HW241971   3.051   3.318   4.097 -0.5976 -0.8061  0.2738
12856SOL     OW41972   0.456   5.277   2.428 -0.0950 -0.1133 -0.1616
12856SOL    HW141973   0.419   5.314   2.509  0.8239 -0.1343  0.2742
12856SOL    HW241974   0.395   5.208   2.403  0.9340 -1.8433  1.9228
12857SOL     OW41975   1.454   2.024   8.156  0.2013 -0.1740 -0.2959
12857SOL    HW141976   1.541   2.041   8.119  1.0919 -2.2222  0.7692
12857SOL    HW241977   1.470   1.963   8.228 -2.3145 -1.8851 -1.1280
12858SOL     OW41978   1.908   1.856   0.984  0.1991 -0.4138 -0.0420
12858SOL    HW141979   1.986   1.849   0.930  0.1997 -1.4518  0.0830
12858SOL    HW241980   1.933   1.917   1.054  0.6759 -0.2288 -0.3705
12859SOL     OW41981   9.475   1.392   7.638 -0.1891 -0.5923  0.5037
12859SOL    HW141982   9.562   1.430   7.629 -0.2816 -0.4494  0.1699
12859SOL    HW241983   9.490   1.299   7.657  0.0368 -0.2398  2.0471
12860SOL     OW41984   8.590   9.239   1.256  0.4357 -0.3029  0.3703
12860SOL    HW141985   8.613   9.213   1.345  0.8282 -1.1221  0.0311
12860SOL    HW241986   8.506   9.284   1.265  0.0371 -1.1787  1.0378
12861SOL     OW41987  10.919   0.926   9.926 -0.0386 -0.0908 -0.0835
12861SOL    HW141988  10.925   0.963   9.838  0.2250  0.1914  0.0516
12861SOL    HW241989  10.918   1.002   9.984  1.6174 -0.2985  0.2633
12862SOL     OW41990   2.932   5.665   7.288  0.4289 -0.3911 -0.1840
12862SOL    HW141991   3.015   5.679   7.243 -0.3712 -0.1231 -1.6174
12862SOL    HW241992   2.892   5.752   7.292 -0.4694 -0.7556 -0.9083
12863SOL     OW41993   7.017   1.648   1.502 -0.7134 -0.3940  0.3614
12863SOL    HW141994   7.074   1.586   1.457  0.8557  0.8289  0.6328
12863SOL    HW241995   6.963   1.593   1.559 -1.2541 -1.7530 -1.4127
12864SOL     OW41996   3.907   6.291   6.586 -0.0326  0.0145 -0.1004
12864SOL    HW141997   3.959   6.210   6.587 -2.4359 -1.5539  0.2030
12864SOL    HW241998   3.959   6.351   6.532  1.2142 -2.1227 -1.3818
12865SOL     OW41999   5.593   8.654   3.449 -0.3080 -0.0474 -0.0422
12865SOL    HW142000   5.652   8.690   3.516 -0.1060  0.6440 -0.5895
12865SOL    HW242001   5.643   8.583   3.408  0.9557  1.8750 -1.9228
12866SOL     OW42002   3.229   3.920   7.271  0.5653  0.1208  0.5394
12866SOL    HW142003   3.217   4.015   7.280 -0.2591 -0.0864  1.7168
12866SOL    HW242004   3.313   3.903   7.314 -0.0100  0.1141  1.6799
12867SOL     OW42005   4.608   4.293   8.114 -0.4724 -0.2269  0.2819
12867SOL    HW142006   4.630   4.221   8.055 -0.8820  0.4972 -0.7883
12867SOL    HW242007   4.512   4.291   8.119 -0.5193  0.5306 -0.1498
12868SOL     OW42008   7.990   5.364   5.820  0.1941  0.4981 -0.1662
12868SOL    HW142009   7.951   5.451   5.820  1.1445  0.9352 -0.4812
12868SOL    HW242010   8.081   5.378   5.845  0.1285 -0.5141  0.6677
12869SOL     OW42011   3.550   8.728   2.653  0.1491 -0.3987 -0.0146
12869SOL    HW142012   3.577   8.722   2.744 -1.7555 -1.5158  0.5062
12869SOL    HW242013   3.593   8.807   2.621  1.3647 -0.3525  1.6552
12870SOL     OW42014   9.251   9.292   5.732  0.0051 -0.7616  0.6897
12870SOL    HW142015   9.218   9.295   5.822 -2.4650  1.1471 -0.2169
12870SOL    HW242016   9.321   9.357   5.730 -0.7373  0.0571  0.9502
12871SOL     OW42017   9.987   4.409   5.249 -0.5315 -0.1483 -0.0289
12871SOL    HW142018  10.082   4.402   5.242 -0.4827  0.0351  0.4160
12871SOL    HW242019   9.961   4.457   5.171 -0.5840 -2.7770 -1.6915
12872SOL     OW42020   1.242   2.716   0.159 -0.4143 -0.1222 -0.2121
12872SOL    HW142021   1.333   2.711   0.129 -0.4901  1.7073 -0.8081
12872SOL    HW242022   1.219   2.626   0.182  0.9028 -0.9174 -1.9593
12873SOL     OW42023   7.761   0.800   8.035  0.4019  1.2553  0.3664
12873SOL    HW142024   7.816   0.878   8.046 -0.3014  1.6154  1.4028
12873SOL    HW242025   7.769   0.778   7.942  0.7316  2.4722  0.1019
12874SOL     OW42026   3.268   1.828   4.040  0.5169 -0.2814  0.0162
12874SOL    HW142027   3.237   1.794   4.124  1.1104 -0.1019  0.3145
12874SOL    HW242028   3.344   1.881   4.063 -0.5944  1.5230 -0.4111
12875SOL     OW42029   3.589   6.488   0.460  0.1836  0.3112 -0.1412
12875SOL    HW142030   3.650   6.487   0.534  0.4677  0.6536 -0.3713
12875SOL    HW242031   3.623   6.421   0.401  0.1391  0.2613 -0.1097
12876SOL     OW42032   8.676   8.977   2.888 -0.1735 -0.6114 -0.1237
12876SOL    HW142033   8.698   9.023   2.808  0.4066  0.8164  0.8352
12876SOL    HW242034   8.747   8.913   2.899  0.8677  0.6201  0.3531
12877SOL     OW42035   3.971   9.633  10.675  0.8838 -0.5372 -0.1465
12877SOL    HW142036   4.055   9.621  10.719  0.6920  1.2704  0.7461
12877SOL    HW242037   3.952   9.726  10.684 -1.6558 -1.0728  0.5021
12878SOL     OW42038   6.463   1.678   1.541 -0.3137  0.2345 -0.0456
12878SOL    HW142039   6.517   1.713   1.611 -0.7808 -0.4666  0.6816
12878SOL    HW242040   6.524   1.659   1.469  0.2306  0.5276  0.3426
12879SOL     OW42041   8.389   9.947   2.074 -0.1432 -0.1975  0.4786
12879SOL    HW142042   8.383   9.880   2.142 -1.0336 -1.0017 -0.3661
12879SOL    HW242043   8.399   9.898   1.993  1.9175  0.7885  0.1189
12880SOL     OW42044   0.284   2.106   6.401 -0.1424  0.1078 -0.3216
12880SOL    HW142045   0.366   2.148   6.375 -0.6768  0.4203 -1.5292
12880SOL    HW242046   0.277   2.030   6.343 -0.1449 -0.5642  0.5507
12881SOL     OW42047   7.317   5.240   0.560 -0.1332  0.2590  0.0065
12881SOL    HW142048   7.375   5.289   0.501 -1.0150 -0.2896 -1.3295
12881SOL    HW242049   7.304   5.156   0.517 -0.5211 -0.2820  1.1575
12882SOL     OW42050  10.566   9.066   8.046 -0.0824 -0.4072 -0.1162
12882SOL    HW142051  10.553   9.157   8.021  1.5226 -0.5614 -1.6162
12882SOL    HW242052  10.511   9.016   7.985  1.3887 -0.6055 -1.2956
12883SOL     OW42053   0.403   5.772   9.528  0.1088 -0.0246  0.1422
12883SOL    HW142054   0.397   5.867   9.513 -0.1336 -0.0661 -0.0073
12883SOL    HW242055   0.484   5.747   9.484  0.4270  0.1966  0.5896
12884SOL     OW42056   3.913   3.630  10.276  0.4886  0.3597 -0.0778
12884SOL    HW142057   3.982   3.642  10.341 -1.1443 -0.2133  1.7970
12884SOL    HW242058   3.958   3.638  10.192  2.7901  0.2258  1.1012
12885SOL     OW42059   0.442   8.770   8.434 -0.0601 -0.6044  0.9374
12885SOL    HW142060   0.358   8.739   8.399  1.0707 -2.2192 -0.4040
12885SOL    HW242061   0.451   8.859   8.400  0.1394 -1.4809 -1.3847
12886SOL     OW42062   2.133   4.162   2.696 -0.0820 -0.2049 -0.3453
12886SOL    HW142063   2.042   4.135   2.683  0.0791 -0.2821 -1.3457
12886SOL    HW242064   2.176   4.141   2.613  0.5742  0.9385 -0.2976
12887SOL     OW42065   1.961   2.577   7.927  0.3056  0.1572 -0.1686
12887SOL    HW142066   1.973   2.588   8.021 -2.0529 -1.5322  0.3867
12887SOL    HW242067   1.964   2.482   7.914 -0.9243  0.2851 -1.5416
12888SOL     OW42068   0.005   4.473   4.206  0.1692 -0.3187  0.9457
12888SOL    HW142069   0.068   4.503   4.272  1.2597 -0.3848 -0.0482
12888SOL    HW242070  -0.067   4.536   4.210  0.4887 -0.0082  1.8044
12889SOL     OW42071   7.911   2.351   4.611 -0.2483 -0.4094  0.1565
12889SOL    HW142072   7.907   2.326   4.703 -2.0326 -1.3605 -0.1662
12889SOL    HW242073   7.920   2.446   4.613  1.5785 -0.5788  1.3194
12890SOL     OW42074   6.939  10.114  10.198 -0.1959  0.2911  0.4166
12890SOL    HW142075   6.960  10.044  10.137 -0.3411  1.6011 -1.1528
12890SOL    HW242076   6.863  10.081  10.246 -0.6799 -0.3422 -0.7633
12891SOL     OW42077   5.031   4.666   5.527 -0.0201  0.0248  0.6122
12891SOL    HW142078   5.096   4.626   5.585 -0.1862 -2.2768 -0.7215
12891SOL    HW242079   5.036   4.760   5.546  1.4543 -0.4531  2.7644
12892SOL     OW42080   2.669   7.987   9.482  0.5017 -0.0344  0.1947
12892SOL    HW142081   2.633   7.991   9.571 -0.2127 -0.8435 -0.0511
12892SOL    HW242082   2.752   8.035   9.487  0.6078 -0.3390  1.3649
12893SOL     OW42083   4.213   2.952   8.925  0.1777  0.4756  0.4485
12893SOL    HW142084   4.309   2.952   8.921  0.3067 -0.2231  2.7279
12893SOL    HW242085   4.193   2.889   8.994 -1.9761 -0.2839 -0.8319
12894SOL     OW42086   0.389   5.481   8.371  0.2830 -0.3863 -0.2964
12894SOL    HW142087   0.448   5.406   8.364  0.7339  0.0726 -1.4790
12894SOL    HW242088   0.396   5.525   8.287 -2.8049 -1.0836 -0.9624
12895SOL     OW42089   6.549   5.676   3.236  0.0070 -0.5895  0.1685
12895SOL    HW142090   6.520   5.675   3.328  1.0019 -0.3098  0.5001
12895SOL    HW242091   6.499   5.607   3.194 -0.6840 -0.5191  0.8555
12896SOL     OW42092   7.418   6.861   9.875 -0.2420  0.3617  0.2642
12896SOL    HW142093   7.415   6.902   9.789  0.6727 -0.8908 -0.3929
12896SOL    HW242094   7.510   6.869   9.901 -0.8213  2.1588  1.8552
12897SOL     OW42095   4.638   8.809   3.879 -0.0480 -0.1869 -0.3139
12897SOL    HW142096   4.726   8.804   3.842  0.6110  3.1372  0.6463
12897SOL    HW242097   4.596   8.880   3.830 -0.1126  2.3250  3.2007
12898SOL     OW42098   2.110   3.042   6.994 -0.3259  0.0689  0.4674
12898SOL    HW142099   2.087   3.086   6.912  1.0113  0.0455  0.0658
12898SOL    HW242100   2.153   2.961   6.966 -0.5476 -0.3048  1.1997
12899SOL     OW42101   9.200   0.999   8.250  0.2118 -0.2394 -0.3401
12899SOL    HW142102   9.166   1.033   8.167  0.3940  1.9188  0.4156
12899SOL    HW242103   9.292   1.025   8.250  0.1754 -0.0949  0.5834
12900SOL     OW42104   5.560   1.799   8.284 -0.0218 -0.3928  0.2243
12900SOL    HW142105   5.488   1.809   8.346  0.2667 -0.3032  0.5494
12900SOL    HW242106   5.547   1.713   8.245  1.1896 -1.5078  2.2136
12901SOL     OW42107   3.929   0.460  10.886 -0.7814  0.1416  0.5214
12901SOL    HW142108   3.838   0.488  10.874 -1.0285 -0.2214  1.5105
12901SOL    HW242109   3.969   0.532  10.935 -0.1766  0.9204 -1.0909
12902SOL     OW42110   3.812   6.074   5.401  0.2582  0.4297 -0.3275
12902SOL    HW142111   3.841   6.019   5.473  0.4431  0.1416 -0.6201
12902SOL    HW242112   3.892   6.110   5.365  0.0788  1.5858  0.4096
12903SOL     OW42113   4.303   1.103   6.062 -0.4872 -0.0297 -0.5180
12903SOL    HW142114   4.267   1.015   6.062 -1.4705  0.3657  0.6000
12903SOL    HW242115   4.387   1.095   6.107 -0.6161 -0.3782 -0.3428
12904SOL     OW42116   1.802   6.361   3.292  0.1788 -0.7408 -0.5086
12904SOL    HW142117   1.793   6.381   3.385  1.5507 -0.3343 -0.4600
12904SOL    HW242118   1.841   6.440   3.254  1.2365 -1.5526 -1.1208
12905SOL     OW42119   3.393   8.025   1.834 -0.1560 -0.3604  0.0734
12905SOL    HW142120   3.332   8.082   1.881 -1.7710 -1.6368 -0.4552
12905SOL    HW242121   3.370   8.035   1.742  1.1312 -0.0748 -0.2385
12906SOL     OW42122   4.599   3.465   1.915  0.1901 -0.1353  0.1168
12906SOL    HW142123   4.695   3.475   1.919  0.1527  0.6791 -0.9324
12906SOL    HW242124   4.575   3.442   2.005  1.3272  0.0556  0.4895
12907SOL     OW42125   4.494   0.953   4.549 -0.2230 -0.1428  0.4290
12907SOL    HW142126   4.440   0.893   4.601 -1.0221  0.7649  0.6700
12907SOL    HW242127   4.484   0.922   4.459  0.0626 -0.8915  0.6523
12908SOL     OW42128   2.880  10.907   0.327  0.4737  0.0074 -0.3494
12908SOL    HW142129   2.879  10.829   0.271  0.0469  0.2307 -0.6549
12908SOL    HW242130   2.894  10.873   0.416  1.0620 -0.3527 -0.5800
12909SOL     OW42131   0.304   3.016   0.172  0.6688  0.2102  0.2210
12909SOL    HW142132   0.258   3.069   0.236  0.3185  0.7098 -0.4431
12909SOL    HW242133   0.397   3.031   0.190  0.5720  0.3122  0.6341
12910SOL     OW42134   5.554  10.574   9.649  0.3943 -0.6934 -0.0704
12910SOL    HW142135   5.476  10.554   9.596  1.4858 -2.1365 -1.1877
12910SOL    HW242136   5.520  10.582   9.739 -1.0816 -1.0362 -0.5756
12911SOL     OW42137   7.174   9.428   3.307  0.0583  0.4190  0.1984
12911SOL    HW142138   7.227   9.508   3.303  1.5031 -0.5061  0.5561
12911SOL    HW242139   7.127   9.434   3.390 -0.6348  1.3796 -0.2497
12912SOL     OW42140   4.102   0.684   3.679 -0.0193  0.0655 -0.1017
12912SOL    HW142141   4.101   0.590   3.699 -1.2214 -0.0553 -0.6249
12912SOL    HW242142   4.021   0.697   3.628  0.9799  1.0685 -1.4546
12913SOL     OW42143   2.380   3.875   0.567 -0.2973  0.2789 -0.2214
12913SOL    HW142144   2.427   3.903   0.646  0.9050  0.0031 -0.8248
12913SOL    HW242145   2.297   3.841   0.599 -0.1813  0.9955  0.8501
12914SOL     OW42146   0.586   7.881   4.981  0.2941 -0.4372 -0.3254
12914SOL    HW142147   0.539   7.929   4.912  0.7022 -1.4320 -1.3208
12914SOL    HW242148   0.676   7.874   4.948  0.5349 -0.7624  0.3951
12915SOL     OW42149  10.394   6.494   6.900  0.1447 -0.1846  0.2141
12915SOL    HW142150  10.473   6.531   6.941  0.4449 -0.6529  0.0605
12915SOL    HW242151  10.352   6.569   6.857  1.0891 -0.1366 -0.6434
12916SOL     OW42152   0.703   3.786   0.354  0.1116  0.8331 -0.3028
12916SOL    HW142153   0.777   3.772   0.413 -1.1112 -1.6968  0.7367
12916SOL    HW242154   0.634   3.822   0.409 -1.0341 -1.5340 -0.1239
12917SOL     OW42155   3.505   7.204   0.863  0.2798 -0.7736  0.4795
12917SOL    HW142156   3.412   7.196   0.884 -0.0583  1.4369 -0.0490
12917SOL    HW242157   3.535   7.114   0.851 -1.8235 -1.4957  0.5211
12918SOL     OW42158   7.639   2.817   5.490  0.3899 -0.4736 -0.4626
12918SOL    HW142159   7.719   2.808   5.440  1.1495  1.3710  0.3816
12918SOL    HW242160   7.637   2.908   5.518 -1.6101 -0.6686  0.1855
12919SOL     OW42161   9.483  10.865  10.270  0.1684  0.5122 -0.3317
12919SOL    HW142162   9.510  10.899  10.185 -0.8123 -0.6831 -1.1315
12919SOL    HW242163   9.390  10.849  10.261  0.2892 -0.7644  0.5843
12920SOL     OW42164   1.814   4.641   0.604 -0.1931  0.2571 -0.6723
12920SOL    HW142165   1.783   4.560   0.643 -1.0055  0.1909 -1.4524
12920SOL    HW242166   1.879   4.614   0.538 -0.7593  0.2154 -1.2146
12921SOL     OW42167   8.684   4.999   3.166 -0.2153  0.7604 -0.2784
12921SOL    HW142168   8.603   4.960   3.200  0.2062  0.5027  0.4374
12921SOL    HW242169   8.683   5.089   3.200 -0.3049  0.8307 -0.4611
12922SOL     OW42170   8.301   2.191   1.204  0.5042  0.2177 -0.0722
12922SOL    HW142171   8.340   2.116   1.159 -0.5576  0.0807 -0.7838
12922SOL    HW242172   8.372   2.226   1.257  0.9786 -1.3697  0.3773
12923SOL     OW42173   9.563   3.764   0.136 -1.0669 -0.2492  0.0927
12923SOL    HW142174   9.547   3.750   0.229  1.8286 -0.1832  0.6375
12923SOL    HW242175   9.578   3.858   0.128  0.7518 -0.5394 -0.0830
12924SOL     OW42176   9.499  10.239   1.696  0.1422 -0.2342 -0.0743
12924SOL    HW142177   9.421  10.252   1.641  0.3936 -1.6355 -0.7798
12924SOL    HW242178   9.467  10.191   1.772  0.1284  0.1501  0.1681
12925SOL     OW42179   1.573   8.272   9.555 -0.1402 -0.6237  0.1720
12925SOL    HW142180   1.584   8.343   9.492 -1.2480  0.5832  1.3202
12925SOL    HW242181   1.494   8.294   9.603 -0.5914 -2.7324  0.4521
12926SOL     OW42182   8.110   8.553  10.051  0.2074 -0.1968  0.0422
12926SOL    HW142183   8.045   8.609  10.009  0.7495  0.7452  0.4337
12926SOL    HW242184   8.072   8.465  10.049 -0.0318 -0.0683 -1.8705
12927SOL     OW42185   7.832   7.242   8.374  0.2856 -0.5521  0.0799
12927SOL    HW142186   7.876   7.166   8.337  0.1158 -1.3678  1.5403
12927SOL    HW242187   7.880   7.260   8.455 -1.8561 -1.2566  1.5270
12928SOL     OW42188   7.587  10.661  10.289 -0.1972  0.2083 -0.3569
12928SOL    HW142189   7.566  10.749  10.257  1.6322  0.8832  0.2506
12928SOL    HW242190   7.646  10.675  10.362 -1.8594 -1.4540  1.3659
12929SOL     OW42191   8.994   3.752   6.256  0.2047  0.7500 -0.2338
12929SOL    HW142192   9.008   3.813   6.329 -0.5949  0.7420 -0.0705
12929SOL    HW242193   8.919   3.700   6.282 -0.2624  0.9337 -1.1925
12930SOL     OW42194   1.723   2.195   0.228  0.6914  0.0886  0.1545
12930SOL    HW142195   1.721   2.129   0.297  0.8599  0.4725  0.5253
12930SOL    HW242196   1.794   2.254   0.254  1.2418 -0.1738 -0.7157
12931SOL     OW42197   2.221   1.456   1.402  0.3319  0.4979  0.4819
12931SOL    HW142198   2.213   1.482   1.494 -1.6917 -0.2273  0.5360
12931SOL    HW242199   2.282   1.383   1.403  1.7206  1.6394  1.0121
12932SOL     OW42200   9.580   9.578   4.175  0.1196  0.5109  0.9865
12932SOL    HW142201   9.666   9.549   4.206  0.0168 -0.3062  0.5166
12932SOL    HW242202   9.523   9.571   4.252 -0.0388 -1.1157  0.7412
12933SOL     OW42203   3.411   6.589   3.544 -0.6726  0.2960  0.0721
12933SOL    HW142204   3.386   6.579   3.636  2.0536  0.4351  0.8716
12933SOL    HW242205   3.439   6.680   3.536 -1.3245  0.4074 -1.0175
12934SOL     OW42206   9.922   0.443  10.751 -0.3868 -0.0798  0.9038
12934SOL    HW142207   9.834   0.455  10.715  0.6920 -1.8975 -2.5874
12934SOL    HW242208   9.954   0.532  10.767 -1.1159  0.8387 -2.3317
12935SOL     OW42209   1.348  10.213   0.624  0.2966  0.1639 -0.5479
12935SOL    HW142210   1.411  10.228   0.553  0.1603  2.0044 -0.2881
12935SOL    HW242211   1.267  10.187   0.578  0.4593  0.4690 -1.0097
12936SOL     OW42212   7.079   6.744   9.165  0.6498 -0.3905  0.4049
12936SOL    HW142213   7.122   6.796   9.233 -0.9255 -1.6098  2.4030
12936SOL    HW242214   7.074   6.656   9.202 -1.1825 -0.8517 -0.8710
12937SOL     OW42215  10.461   7.662   1.695  0.4751 -0.1570  0.2401
12937SOL    HW142216  10.425   7.613   1.769  0.9715  1.4284  1.5739
12937SOL    HW242217  10.405   7.739   1.688  1.9650  0.9788  0.6244
12938SOL     OW42218   6.133   4.476   6.954  0.1963 -0.1717  0.3530
12938SOL    HW142219   6.061   4.513   7.004 -0.5590 -0.1478 -0.7370
12938SOL    HW242220   6.092   4.414   6.894  1.2596 -1.4190  0.8926
12939SOL     OW42221   7.240   0.447   4.917  0.1685 -0.4234 -0.7448
12939SOL    HW142222   7.287   0.363   4.922 -1.2591 -1.1590  0.9099
12939SOL    HW242223   7.149   0.424   4.933 -0.1428  1.5498  0.4688
12940SOL     OW42224   9.331  10.648   2.592 -0.3199  0.4091  0.3421
12940SOL    HW142225   9.328  10.659   2.687 -0.8415  1.4273  0.2177
12940SOL    HW242226   9.375  10.564   2.578 -0.2959  0.2322  1.4835
12941SOL     OW42227   1.838   4.135   4.989  0.0251 -0.1696  0.6959
12941SOL    HW142228   1.816   4.170   5.076 -1.5443  1.9268 -0.4897
12941SOL    HW242229   1.788   4.054   4.983 -1.0118  0.4137  1.2175
12942SOL     OW42230   0.461   3.097   0.469  0.0548  0.5051  0.5565
12942SOL    HW142231   0.507   3.088   0.385 -0.9969  1.0552 -0.0949
12942SOL    HW242232   0.444   3.191   0.476  0.7726  0.5443  1.7316
12943SOL     OW42233  10.628   8.734   7.715  0.1397 -0.1678  0.6742
12943SOL    HW142234  10.615   8.657   7.659 -0.8774  0.0815  0.5588
12943SOL    HW242235  10.713   8.719   7.756  1.9575  0.7052 -2.5950
12944SOL     OW42236   3.070   4.425   2.717 -0.6998  0.3611  1.1597
12944SOL    HW142237   3.102   4.350   2.766  1.1522  2.0912  2.6762
12944SOL    HW242238   3.135   4.438   2.648 -2.0859 -0.6393 -0.3819
12945SOL     OW42239   6.762   9.313   3.328  0.1168  0.0702 -0.5871
12945SOL    HW142240   6.851   9.346   3.320  0.3906 -0.1002  1.4168
12945SOL    HW242241   6.722   9.329   3.243  2.1841 -0.2150 -1.6226
12946SOL     OW42242   0.745   8.009  10.261 -0.3346 -0.1962  0.1288
12946SOL    HW142243   0.786   8.089  10.230  0.8678 -0.4785  0.9498
12946SOL    HW242244   0.651   8.028  10.260 -0.1227  0.8487 -0.6821
12947SOL     OW42245   0.636   3.022   9.731 -0.2289 -0.0430  0.8432
12947SOL    HW142246   0.608   2.930   9.730 -0.0805 -0.0875 -1.9294
12947SOL    HW242247   0.683   3.034   9.649 -2.7137  3.2613 -0.1957
12948SOL     OW42248   1.196   3.509   7.705 -0.4427 -0.5648  0.2656
12948SOL    HW142249   1.281   3.538   7.736 -0.3691  0.2569 -0.6817
12948SOL    HW242250   1.212   3.480   7.615 -1.1663 -0.3728  0.0714
12949SOL     OW42251   9.072   9.975   6.339 -0.0532  0.0067 -1.2252
12949SOL    HW142252   9.153  10.010   6.377  0.5953 -0.4014 -2.2019
12949SOL    HW242253   9.023   9.941   6.413  1.3795 -1.1689 -0.7910
12950SOL     OW42254   6.888   5.423  10.050  0.1675 -0.1552 -0.1875
12950SOL    HW142255   6.832   5.418  10.127  2.8476 -0.1322  1.7996
12950SOL    HW242256   6.884   5.515  10.024 -1.9511 -0.4591 -1.0394
12951SOL     OW42257   0.044   2.293   3.713  0.7054  0.6385 -0.0373
12951SOL    HW142258   0.051   2.198   3.720  3.5783  0.8865  1.0885
12951SOL    HW242259  -0.019   2.317   3.781 -1.0691 -0.5587 -1.2277
12952SOL     OW42260   5.229   9.869   4.895  0.2603 -0.1303 -0.3715
12952SOL    HW142261   5.197   9.925   4.965  2.4219 -0.8850  1.2737
12952SOL    HW242262   5.313   9.908   4.869  0.6916 -1.2933 -0.7756
12953SOL     OW42263   1.159  10.682   9.248  0.5890 -0.0686  0.2196
12953SOL    HW142264   1.125  10.600   9.214  0.8056 -0.0034 -0.1545
12953SOL    HW242265   1.208  10.720   9.176 -2.7785  2.3006 -0.9309
12954SOL     OW42266   9.339  10.142   5.466  0.3183  0.4323  0.3002
12954SOL    HW142267   9.281  10.106   5.533  0.6966 -0.9497 -0.0865
12954SOL    HW242268   9.389  10.066   5.435 -0.2887  0.9226 -1.9893
12955SOL     OW42269   9.255   3.428   1.303 -0.4174  0.1035 -0.0389
12955SOL    HW142270   9.216   3.341   1.310 -0.1719  0.0848  1.2115
12955SOL    HW242271   9.188   3.487   1.338  0.3092  0.1699  1.2473
12956SOL     OW42272   7.471   9.453   7.837 -0.2999  0.3047 -0.5269
12956SOL    HW142273   7.432   9.511   7.902  0.5116  1.5394 -1.1148
12956SOL    HW242274   7.425   9.473   7.756 -1.4525 -1.3747 -0.3187
12957SOL     OW42275   3.784   2.394   6.940 -0.2355  0.3383  0.2400
12957SOL    HW142276   3.705   2.342   6.955  0.5914 -1.0849 -0.1762
12957SOL    HW242277   3.818   2.361   6.857  0.9890  0.6876  0.5944
12958SOL     OW42278   3.170   4.988   1.862  0.3289 -0.2629 -0.8729
12958SOL    HW142279   3.109   4.918   1.887  0.8085 -0.8141 -1.2130
12958SOL    HW242280   3.200   4.963   1.775  2.2462 -0.8577 -0.0759
12959SOL     OW42281   1.881   6.624   7.903 -0.0734  0.0810 -0.1030
12959SOL    HW142282   1.805   6.584   7.861 -0.1859 -1.1452  1.2531
12959SOL    HW242283   1.845   6.687   7.965  0.1059  2.6728 -2.5088
12960SOL     OW42284   9.603   5.988   0.249 -0.0510  0.2421 -0.0144
12960SOL    HW142285   9.519   5.951   0.276 -0.1447  0.3083 -0.2219
12960SOL    HW242286   9.589   6.083   0.249  0.1131  0.2666  0.2541
12961SOL     OW42287   1.724   6.459   3.543 -0.5343 -0.2999 -0.2834
12961SOL    HW142288   1.638   6.430   3.511 -0.8427 -0.4880  0.6996
12961SOL    HW242289   1.719   6.554   3.540  0.7022 -0.2879 -4.1158
12962SOL     OW42290   2.978  10.034   1.773 -0.0419  0.0311 -0.7022
12962SOL    HW142291   3.054  10.004   1.823  0.0702  0.7663 -0.4173
12962SOL    HW242292   3.014  10.063   1.690 -0.2778 -1.5640 -1.3792
12963SOL     OW42293   7.159   4.044  10.486 -0.1149 -1.0777  0.4899
12963SOL    HW142294   7.221   3.982  10.524  0.4508 -0.3677  0.7404
12963SOL    HW242295   7.130   4.097  10.560  0.4091 -0.1872  0.0680
12964SOL     OW42296   3.174   4.419   5.458  0.2222 -0.6463  0.6666
12964SOL    HW142297   3.214   4.468   5.386 -2.0897  0.1644 -0.1015
12964SOL    HW242298   3.233   4.435   5.532  2.6884 -1.5692 -1.0157
12965SOL     OW42299   4.709   3.968   4.806 -0.4358 -0.2525  0.0665
12965SOL    HW142300   4.780   4.020   4.841 -0.8037  1.1508 -1.2180
12965SOL    HW242301   4.638   3.978   4.869  0.3633 -1.3497  1.1540
12966SOL     OW42302   8.512   3.730   9.461  0.0202  0.3552  0.0565
12966SOL    HW142303   8.585   3.682   9.499  0.5280  0.1002 -1.1987
12966SOL    HW242304   8.499   3.689   9.375 -0.4466  1.5578 -0.4550
12967SOL     OW42305   2.593   6.150   4.198 -0.2631 -0.0985  0.4631
12967SOL    HW142306   2.521   6.089   4.210  0.8740 -2.1007 -2.4285
12967SOL    HW242307   2.556   6.221   4.146 -0.8981  0.3733  1.5495
12968SOL     OW42308   4.084   1.924   1.122 -0.2678  0.4321  0.1755
12968SOL    HW142309   4.026   1.850   1.140  0.9089 -1.0321 -1.8415
12968SOL    HW242310   4.159   1.910   1.180  0.2098 -0.2968 -0.6010
12969SOL     OW42311   5.285   0.407  10.124 -0.6174 -0.0133  0.7707
12969SOL    HW142312   5.324   0.340  10.069  0.7513 -1.5502  3.5178
12969SOL    HW242313   5.232   0.359  10.187  2.0977  1.2542  4.1679
12970SOL     OW42314   0.850   0.115   0.077  0.2442 -0.3741 -0.3719
12970SOL    HW142315   0.764   0.124   0.117  0.3652  0.1705 -0.2298
12970SOL    HW242316   0.835   0.061  -0.001  0.2123 -2.5393  1.0698
12971SOL     OW42317   0.952   9.029  10.676  1.2015 -0.0855 -0.4669
12971SOL    HW142318   1.015   9.002  10.608  1.5958 -0.8755  0.2055
12971SOL    HW242319   0.980   8.982  10.754 -0.1335 -0.2974 -0.1148
12972SOL     OW42320   6.667   1.465   3.348  0.0304 -0.0192  0.1678
12972SOL    HW142321   6.726   1.541   3.341 -0.3902  0.2412 -0.7209
12972SOL    HW242322   6.722   1.390   3.326  1.2252 -0.3683  4.0074
12973SOL     OW42323   5.431   3.773   0.957  0.5029  0.1815  0.0620
12973SOL    HW142324   5.337   3.788   0.967  0.8230  1.1499  1.9032
12973SOL    HW242325   5.446   3.771   0.862 -1.2958  0.4657 -0.2391
12974SOL     OW42326   8.385   7.689   5.250  0.4423  0.2969  0.0880
12974SOL    HW142327   8.444   7.759   5.277  0.3089  0.1682  0.7017
12974SOL    HW242328   8.412   7.669   5.160  0.4270  1.1849 -0.1163
12975SOL     OW42329   5.651   0.304   7.981  0.5294  0.1579  0.3815
12975SOL    HW142330   5.637   0.283   8.073  0.5058  1.6567  0.7393
12975SOL    HW242331   5.564   0.323   7.946  0.8129  2.3335  0.7756
12976SOL     OW42332   0.015   5.241   8.901  0.8543  0.0181  0.6638
12976SOL    HW142333  -0.010   5.174   8.836  0.7564  0.8026 -0.1165
12976SOL    HW242334   0.027   5.320   8.849  1.9736  0.3685  1.4538
12977SOL     OW42335   5.360   4.762  10.972 -0.0944  0.6148 -0.0318
12977SOL    HW142336   5.416   4.727  10.901  2.0595  1.0594  1.4032
12977SOL    HW242337   5.342   4.852  10.946  0.7838  0.8127  0.0379
12978SOL     OW42338   0.352   3.503   2.949  0.2882  0.4801 -0.2420
12978SOL    HW142339   0.416   3.572   2.970 -0.5430  0.3371  2.9923
12978SOL    HW242340   0.357   3.442   3.022 -1.3614 -1.1966 -1.4682
12979SOL     OW42341   7.267   7.008  10.767  0.1076  0.3969  0.0327
12979SOL    HW142342   7.295   7.053  10.846  0.9022  0.6133 -0.3672
12979SOL    HW242343   7.348   6.977  10.727 -0.3659 -0.7002 -0.1081
12980SOL     OW42344   7.384   7.707   7.219  0.0750  0.0668  0.5939
12980SOL    HW142345   7.430   7.788   7.241 -0.3924  0.6058 -0.3843
12980SOL    HW242346   7.305   7.736   7.173  0.5947 -0.9910 -0.9879
12981SOL     OW42347  10.477   9.365   0.303  0.0678 -0.0008  0.3241
12981SOL    HW142348  10.565   9.328   0.312  0.5235  0.4189 -2.1224
12981SOL    HW242349  10.418   9.290   0.318  0.8922 -0.7774 -0.2964
12982SOL     OW42350   3.366   4.224   6.117  0.5985 -0.3147 -0.8009
12982SOL    HW142351   3.291   4.276   6.148  0.7051 -0.9151  0.5189
12982SOL    HW242352   3.404   4.189   6.197  1.1943 -1.5227 -1.6100
12983SOL     OW42353   9.630   2.643   7.383  0.0290  0.0610 -0.0626
12983SOL    HW142354   9.704   2.633   7.323 -1.8323 -1.5379 -2.1360
12983SOL    HW242355   9.604   2.735   7.374 -1.7014 -0.6774 -3.5564
12984SOL     OW42356   2.993   7.849   1.778 -0.3440  0.1993  0.4377
12984SOL    HW142357   3.052   7.787   1.735 -0.9198  0.3930 -0.6339
12984SOL    HW242358   3.002   7.829   1.871 -0.6969 -1.6492  0.0955
12985SOL     OW42359   9.864   0.872   6.296 -0.2116  0.0707 -0.6939
12985SOL    HW142360   9.943   0.905   6.254  0.4375 -1.6371 -0.8892
12985SOL    HW242361   9.794   0.927   6.264  0.8796  1.5061 -0.6559
12986SOL     OW42362  10.902   4.086   6.098 -0.1571 -0.1700  0.4488
12986SOL    HW142363  10.870   4.120   6.181 -0.1874 -0.3844  0.5266
12986SOL    HW242364  10.906   4.162   6.040  0.4945  0.0906  0.8403
12987SOL     OW42365   1.583   2.910   2.168  0.1237  0.3790  0.2270
12987SOL    HW142366   1.578   2.942   2.258 -0.8936  0.2897  0.2014
12987SOL    HW242367   1.495   2.880   2.148  0.2733  0.6782 -0.9076
12988SOL     OW42368   4.762   9.539  10.109 -0.1730  0.1768  0.0494
12988SOL    HW142369   4.710   9.473  10.155  1.4544 -0.5365  0.8910
12988SOL    HW242370   4.698   9.586  10.055 -1.3366 -2.2340 -0.7556
12989SOL     OW42371   1.505   0.683   2.493  0.3406 -0.0152 -0.1712
12989SOL    HW142372   1.462   0.635   2.564  1.3028 -0.6275  0.0059
12989SOL    HW242373   1.589   0.638   2.481  0.4403  0.4544 -1.2908
12990SOL     OW42374   6.108   6.842   9.006 -0.0311 -0.6489 -0.2596
12990SOL    HW142375   6.040   6.838   9.074  1.1319 -0.1272  0.9552
12990SOL    HW242376   6.150   6.757   9.010 -1.3616 -1.3909 -1.8109
12991SOL     OW42377   9.390   7.979   9.152 -0.1099  0.4894 -0.2787
12991SOL    HW142378   9.406   8.068   9.121 -0.5302  1.1611  1.3934
12991SOL    HW242379   9.476   7.937   9.148 -0.2867  0.2694 -3.1117
12992SOL     OW42380   8.334   1.931   3.033  0.2912  0.1534 -0.0909
12992SOL    HW142381   8.327   2.020   3.066 -1.3412 -0.5720  1.5859
12992SOL    HW242382   8.302   1.936   2.943  0.3461  1.2781 -0.0496
12993SOL     OW42383   5.803   8.167   1.036  0.9227 -0.9072  0.4864
12993SOL    HW142384   5.708   8.173   1.022  1.1744  0.3053 -0.7010
12993SOL    HW242385   5.839   8.148   0.950  1.9435  0.6236  0.5656
12994SOL     OW42386   1.169   6.414   8.879 -0.4615  0.5513 -0.4273
12994SOL    HW142387   1.211   6.361   8.947  0.5074  0.3191 -1.1819
12994SOL    HW242388   1.101   6.464   8.925 -0.8854 -0.7889  0.4153
12995SOL     OW42389   4.149   8.456   4.649 -0.4477  0.6814  0.6331
12995SOL    HW142390   4.075   8.413   4.607  0.2508 -0.8395  0.9187
12995SOL    HW242391   4.164   8.535   4.597  0.2385 -1.0406 -1.8270
12996SOL     OW42392   8.739   1.896  10.144 -0.8919  0.5938 -0.5193
12996SOL    HW142393   8.678   1.851  10.086 -0.6387 -0.9399  0.3670
12996SOL    HW242394   8.731   1.988  10.121 -3.0020  0.3374 -0.9050
12997SOL     OW42395  10.700   6.624   9.919  0.3992 -0.5537 -0.3684
12997SOL    HW142396  10.775   6.618   9.978  0.4969  0.4186 -0.3891
12997SOL    HW242397  10.624   6.633   9.977  0.5302  0.7378 -0.3929
12998SOL     OW42398  10.281   3.204   8.147  0.9439  0.2216 -0.0077
12998SOL    HW142399  10.301   3.118   8.181  2.1498  0.1979 -0.7483
12998SOL    HW242400  10.351   3.260   8.179 -0.2292  1.1017  1.0890
12999SOL     OW42401   1.072   6.170   1.485 -0.2614  0.0255  0.4661
12999SOL    HW142402   1.143   6.229   1.511 -1.3668  1.3882  0.4743
12999SOL    HW242403   1.067   6.180   1.390 -0.1946 -0.3494  0.4249
13000SOL     OW42404   8.232   6.653   8.741  0.2890 -0.1414  0.5172
13000SOL    HW142405   8.194   6.727   8.787  0.0686 -0.3602  0.6844
13000SOL    HW242406   8.275   6.692   8.665 -0.8701  0.0391 -0.0624
13001SOL     OW42407   7.666   9.417   9.708 -0.1534  0.4859 -0.2221
13001SOL    HW142408   7.639   9.331   9.676 -1.1329  1.2157 -1.4013
13001SOL    HW242409   7.648   9.476   9.635  0.5660  1.6832  0.5621
13002SOL     OW42410   0.202   1.405   2.947 -0.9124 -0.0612 -0.0086
13002SOL    HW142411   0.245   1.481   2.906  0.2510 -0.3695  0.6017
13002SOL    HW242412   0.195   1.340   2.877  2.0653 -0.9951  0.4823
13003SOL     OW42413  10.756   7.218   4.821  0.2343  0.0788 -0.2863
13003SOL    HW142414  10.798   7.282   4.878  1.4841 -1.1476  0.1999
13003SOL    HW242415  10.706   7.162   4.880  0.0952 -0.0978 -0.5712
13004SOL     OW42416   6.901   7.067   7.638  0.5097  0.0314 -0.2889
13004SOL    HW142417   6.811   7.068   7.672  0.8557 -0.3534  0.6467
13004SOL    HW242418   6.945   7.137   7.687  0.4442  0.9276 -1.5058
13005SOL     OW42419   5.508   2.715   1.861  0.2060 -0.3369 -0.2667
13005SOL    HW142420   5.575   2.739   1.925  1.0314  1.8342 -1.9313
13005SOL    HW242421   5.456   2.648   1.907  2.2712 -0.6373  1.7582
13006SOL     OW42422   4.879   0.811  10.438  0.0623  0.4149 -0.1039
13006SOL    HW142423   4.900   0.892  10.393 -0.1161 -0.2573 -1.4065
13006SOL    HW242424   4.825   0.762  10.376 -0.2932 -0.4653  0.8859
13007SOL     OW42425   1.382   8.290   5.993  0.2681  0.1644 -0.3817
13007SOL    HW142426   1.312   8.291   6.057 -1.1901 -1.4686 -1.9081
13007SOL    HW242427   1.369   8.370   5.941  0.4195  0.5975  0.2448
13008SOL     OW42428   0.705   2.164   8.514  0.4768  0.3374  0.3579
13008SOL    HW142429   0.749   2.092   8.559  1.5613  0.0559 -1.1286
13008SOL    HW242430   0.776   2.223   8.488 -0.0556  0.1382 -1.6069
13009SOL     OW42431   3.139   9.620   5.340  0.4420 -0.2876 -0.3009
13009SOL    HW142432   3.173   9.653   5.257 -0.6359  1.7173  0.0187
13009SOL    HW242433   3.066   9.678   5.361  1.4279 -0.0176  2.6485
13010SOL     OW42434   0.572  10.904   0.419 -0.1421  0.0293  0.3965
13010SOL    HW142435   0.487  10.897   0.461 -0.0270  2.3726  1.1388
13010SOL    HW242436   0.629  10.940   0.487  1.2721 -0.8566 -0.3017
13011SOL     OW42437   0.177  10.810  10.614  0.1734 -0.6322 -0.4390
13011SOL    HW142438   0.197  10.897  10.579 -0.6366 -1.4412 -3.0294
13011SOL    HW242439   0.251  10.756  10.587 -0.9448 -1.4928 -1.9053
13012SOL     OW42440   0.566   9.492   8.297 -0.6321 -0.4643  0.0019
13012SOL    HW142441   0.503   9.436   8.342  0.7240 -0.3628  2.1054
13012SOL    HW242442   0.648   9.476   8.343  0.6566  0.1871 -2.0238
13013SOL     OW42443   6.257   7.668   0.886 -0.0254 -0.2177  0.2973
13013SOL    HW142444   6.276   7.619   0.966 -0.1994  0.9278  1.0443
13013SOL    HW242445   6.319   7.742   0.888 -0.0710 -0.1493 -0.5933
13014SOL     OW42446   7.232   7.473   2.163 -0.1205 -1.1873 -0.0940
13014SOL    HW142447   7.146   7.444   2.193 -0.1647  0.5954  1.6217
13014SOL    HW242448   7.216   7.560   2.125  0.6597 -1.5658 -1.3212
13015SOL     OW42449   2.991   3.145   0.435 -0.2641  0.1558 -0.2958
13015SOL    HW142450   3.033   3.225   0.466  0.4946 -0.0205 -0.8621
13015SOL    HW242451   2.904   3.148   0.473 -0.3131  1.3544 -0.4748
13016SOL     OW42452   8.244   1.721   8.454  0.0125 -0.1909 -0.2106
13016SOL    HW142453   8.339   1.711   8.450  0.1820  1.4350 -0.8609
13016SOL    HW242454   8.219   1.753   8.367 -0.9163  0.8396  0.4081
13017SOL     OW42455   7.146   0.553   0.925 -0.2307 -0.5269  0.3041
13017SOL    HW142456   7.055   0.559   0.895 -0.8970  1.9320  2.6656
13017SOL    HW242457   7.149   0.472   0.975 -0.9405 -0.9875 -0.3815
13018SOL     OW42458   6.949   6.463   3.386 -0.2804 -0.8063  0.1321
13018SOL    HW142459   6.917   6.412   3.312 -2.5541  1.5795 -0.5992
13018SOL    HW242460   6.914   6.419   3.464 -1.6251 -0.7696 -0.4482
13019SOL     OW42461   5.459   0.484  10.768 -0.7455  0.2424  0.1545
13019SOL    HW142462   5.446   0.571  10.805  1.3007  0.6575 -0.0449
13019SOL    HW242463   5.386   0.432  10.803 -1.0681  1.6154  1.5825
13020SOL     OW42464   5.800   9.952   4.974 -0.3147 -0.2535 -0.3547
13020SOL    HW142465   5.711   9.986   4.968 -0.0743  0.0906 -2.1543
13020SOL    HW242466   5.790   9.860   5.001 -1.0899  0.3866  1.6250
13021SOL     OW42467   6.158   0.865   7.029  0.6705  0.6027  0.4938
13021SOL    HW142468   6.246   0.894   7.055  0.7230  0.6382  0.2794
13021SOL    HW242469   6.101   0.939   7.049  0.6455  0.4799  0.8879
13022SOL     OW42470   4.300   1.788  10.020 -0.3380 -0.0319 -0.2182
13022SOL    HW142471   4.218   1.793  10.069  1.2672  0.3388  2.5541
13022SOL    HW242472   4.350   1.864  10.049  2.3526 -2.0938  0.7683
13023SOL     OW42473   7.992   4.439   2.970 -0.1916 -0.0290  0.2029
13023SOL    HW142474   7.967   4.531   2.975 -1.8386 -0.5090  1.6381
13023SOL    HW242475   8.070   4.431   3.025 -0.5316  0.3693  0.7473
13024SOL     OW42476   0.761   7.495  10.794 -0.3016  0.2379  0.6587
13024SOL    HW142477   0.760   7.423  10.857 -1.0411 -0.1603  0.1949
13024SOL    HW242478   0.742   7.454  10.710 -0.1414  0.8919  0.2971
13025SOL     OW42479   1.143   1.236   0.243 -0.0300  0.3645 -0.3521
13025SOL    HW142480   1.115   1.217   0.153 -0.9397  0.9565 -0.2023
13025SOL    HW242481   1.194   1.160   0.269 -0.6693 -0.2884 -0.9943
13026SOL     OW42482   9.516  10.154   0.169 -0.1326 -0.0112 -0.2154
13026SOL    HW142483   9.515  10.072   0.219 -1.5016 -0.5113 -1.0468
13026SOL    HW242484   9.580  10.139   0.100  0.8270  0.2235  0.6107
13027SOL     OW42485   4.539   9.967   0.648 -0.0546 -0.2433 -0.3283
13027SOL    HW142486   4.523   9.875   0.630  1.3918 -0.6546  0.4296
13027SOL    HW242487   4.544  10.008   0.562 -0.9364 -0.8246 -0.6595
13028SOL     OW42488   7.852   4.827   3.908  0.0108 -0.1603 -0.0670
13028SOL    HW142489   7.873   4.868   3.824  0.0796 -0.2470 -0.0916
13028SOL    HW242490   7.809   4.897   3.958 -0.0464 -0.1142 -0.1805
13029SOL     OW42491   8.727   7.970   2.699 -0.0267  0.3195  0.2498
13029SOL    HW142492   8.733   7.957   2.605  1.1092 -1.2630  0.5335
13029SOL    HW242493   8.634   7.957   2.719  0.0080 -1.0095 -0.4206
13030SOL     OW42494   9.647  10.974   8.901  0.3723 -0.5125 -0.0512
13030SOL    HW142495   9.628  11.000   8.811  0.1802 -1.6186 -0.3321
13030SOL    HW242496   9.682  11.053   8.941  2.2263 -0.4873 -1.6157
13031SOL     OW42497   3.940   9.322   5.671 -0.4010 -0.0937 -0.3366
13031SOL    HW142498   4.003   9.266   5.715 -1.4856 -2.0124 -1.1944
13031SOL    HW242499   3.854   9.289   5.699 -1.0690  1.7179 -0.1332
13032SOL     OW42500   4.432   9.151   0.193  0.0190  0.0363  0.3353
13032SOL    HW142501   4.338   9.159   0.176 -0.0136 -1.2068 -0.1539
13032SOL    HW242502   4.470   9.132   0.108  0.4681 -1.3210  0.8149
13033SOL     OW42503   2.982   4.181   4.874  0.1985  0.3352 -0.3833
13033SOL    HW142504   3.023   4.262   4.903  1.2107  0.2984 -1.6460
13033SOL    HW242505   3.016   4.114   4.935 -0.9003  0.8877  0.8632
13034SOL     OW42506   9.774   0.555   9.979  0.2013 -0.6029 -0.2853
13034SOL    HW142507   9.833   0.517  10.044  0.3710 -1.2446 -0.8048
13034SOL    HW242508   9.694   0.576  10.027 -0.0381 -1.9743 -0.0620
13035SOL     OW42509   6.496   9.493  10.803  0.0436 -0.0697  0.2318
13035SOL    HW142510   6.427   9.484  10.869  1.1295  0.8681  1.5184
13035SOL    HW242511   6.538   9.407  10.800  0.8906  0.2745  1.7949
13036SOL     OW42512   1.386   4.086   4.127  0.1642  0.6605  0.4453
13036SOL    HW142513   1.360   4.145   4.197  0.4778  1.2082  0.0966
13036SOL    HW242514   1.325   4.012   4.134 -1.2457  1.7425 -0.1124
13037SOL     OW42515   9.911   3.497   5.858 -0.1391 -0.4305  0.2297
13037SOL    HW142516   9.980   3.515   5.794 -0.5536  0.6138  0.0606
13037SOL    HW242517   9.868   3.582   5.871 -0.0620 -0.6322  1.8894
13038SOL     OW42518   2.902   2.408   1.177  0.3949 -0.6482  0.2693
13038SOL    HW142519   2.906   2.487   1.230  0.2290 -0.5164  0.0856
13038SOL    HW242520   2.977   2.414   1.119 -0.4718  0.1214 -0.7898
13039SOL     OW42521   9.343   9.182  10.639  0.1640 -0.0144  0.1394
13039SOL    HW142522   9.429   9.145  10.660 -0.2473 -0.3548  1.2393
13039SOL    HW242523   9.287   9.105  10.625 -0.8884  0.1294  3.2052
13040SOL     OW42524   0.032   2.700   0.295 -0.4342  0.3389  0.1332
13040SOL    HW142525   0.116   2.709   0.340 -1.1458  2.3254  1.1122
13040SOL    HW242526  -0.006   2.620   0.332  1.5548 -1.2821 -1.2539
13041SOL     OW42527   7.469   9.585   1.390  0.5882  0.3997 -0.3041
13041SOL    HW142528   7.538   9.525   1.418 -0.4024 -1.0556 -0.9415
13041SOL    HW242529   7.505   9.628   1.312  0.4223 -1.0350 -1.1826
13042SOL     OW42530   1.710   2.309   3.491  0.0967  0.3422  0.5658
13042SOL    HW142531   1.626   2.281   3.453 -0.4134 -0.3995  2.2152
13042SOL    HW242532   1.776   2.269   3.436 -0.6330 -0.1519  0.0411
13043SOL     OW42533   4.640   8.670   7.356  0.7231  0.2397 -0.3727
13043SOL    HW142534   4.571   8.729   7.327  0.0815  0.0027  0.6636
13043SOL    HW242535   4.707   8.676   7.287 -0.2072  0.6574 -1.2536
13044SOL     OW42536   9.724   5.941   7.970  0.0311 -0.1446 -0.2584
13044SOL    HW142537   9.819   5.945   7.964  0.1397  0.1163  1.4299
13044SOL    HW242538   9.699   5.865   7.916  1.0998  0.3488 -1.4634
13045SOL     OW42539  10.898   3.484   8.090  0.1997  0.1745  0.0832
13045SOL    HW142540  10.910   3.574   8.120  1.0636  0.1542 -0.1957
13045SOL    HW242541  10.866   3.493   8.000 -0.4024  0.2066  0.2955
13046SOL     OW42542   8.726   1.282   4.021 -0.7578  0.0885  0.2607
13046SOL    HW142543   8.752   1.198   3.981 -1.0830 -1.4722  3.1969
13046SOL    HW242544   8.778   1.347   3.974  0.6907 -1.8997 -1.0318
13047SOL     OW42545  10.183   6.036   6.211 -0.6979 -0.1843  0.3433
13047SOL    HW142546  10.243   6.016   6.282  0.3964 -0.4854 -0.6620
13047SOL    HW242547  10.186   5.960   6.154 -0.8782  0.4357 -0.5039
13048SOL     OW42548   3.802   4.851   9.931 -0.1918  0.1209  0.4418
13048SOL    HW142549   3.883   4.877   9.974  0.1034 -1.4095  0.8274
13048SOL    HW242550   3.744   4.926   9.943  0.6614  0.6229  1.5036
13049SOL     OW42551   0.765   5.469   7.190  0.0752 -0.2548 -0.2897
13049SOL    HW142552   0.750   5.546   7.245  1.3950  0.3756 -0.7800
13049SOL    HW242553   0.717   5.489   7.109  1.0407  0.4137 -0.7116
13050SOL     OW42554   0.840   3.425   1.417  0.3376 -0.6217 -0.2730
13050SOL    HW142555   0.894   3.475   1.355 -2.5542  3.8458  0.5027
13050SOL    HW242556   0.886   3.432   1.500 -0.4051  1.5895 -0.0030
13051SOL     OW42557   1.313   0.626   9.844  0.2183  0.0432  0.1494
13051SOL    HW142558   1.251   0.675   9.897  1.2489  1.5487  0.0072
13051SOL    HW242559   1.387   0.610   9.902 -0.0425 -1.2286  0.1460
13052SOL     OW42560   2.080   5.269   0.774 -0.1868 -0.3590 -0.0184
13052SOL    HW142561   2.136   5.239   0.846 -0.3582 -1.8019 -0.4578
13052SOL    HW242562   2.136   5.268   0.697 -0.8393 -2.0610 -0.5098
13053SOL     OW42563   6.748   1.384   4.696  0.3308  0.3702  0.3238
13053SOL    HW142564   6.709   1.336   4.769  0.6730  1.6108  1.3149
13053SOL    HW242565   6.814   1.324   4.661 -0.8658 -0.8253  0.0770
13054SOL     OW42566   6.829   8.541   2.198  0.2577 -0.0197 -0.2286
13054SOL    HW142567   6.753   8.569   2.148 -0.5859 -0.8556  0.5742
13054SOL    HW242568   6.819   8.584   2.283  0.9214  0.2378 -0.2798
13055SOL     OW42569   5.976   7.446   4.162  0.2520 -0.0553  0.0331
13055SOL    HW142570   6.030   7.416   4.088  2.1269  1.7014  0.6253
13055SOL    HW242571   5.999   7.538   4.172 -1.0684  0.1013  1.8872
13056SOL     OW42572   0.926   1.946   1.246 -0.0879 -0.1608 -0.0044
13056SOL    HW142573   0.876   1.970   1.324 -1.1438 -0.8944 -0.4391
13056SOL    HW242574   0.917   1.851   1.240  2.0540 -0.4101  0.3612
13057SOL     OW42575   8.005   4.647   9.912  0.7379 -0.1120 -0.4110
13057SOL    HW142576   7.917   4.609   9.918  0.4355  0.6748  0.3192
13057SOL    HW242577   8.004   4.698   9.831  0.3417  0.3341 -0.1264
13058SOL     OW42578   7.468   7.661   8.071  0.5100 -0.1448  0.2906
13058SOL    HW142579   7.474   7.752   8.099 -1.0852  0.3828 -0.9686
13058SOL    HW242580   7.375   7.647   8.054  0.9306 -1.5402 -1.0181
13059SOL     OW42581   2.139   9.794   0.639  1.2511  0.4528 -0.1050
13059SOL    HW142582   2.215   9.852   0.627  1.0831  1.0130  1.4282
13059SOL    HW242583   2.146   9.764   0.729  1.0204 -1.5077 -0.7101
13060SOL     OW42584   7.794   0.017   3.664 -0.6418  0.0991  0.0601
13060SOL    HW142585   7.837   0.074   3.727 -0.5286  0.3540 -0.2473
13060SOL    HW242586   7.862  -0.004   3.600 -0.7073 -0.3050  0.1215
13061SOL     OW42587   5.461   2.324   7.219 -0.0783 -0.0881 -0.2093
13061SOL    HW142588   5.438   2.326   7.126 -1.3904 -2.4075  0.0150
13061SOL    HW242589   5.384   2.361   7.262  0.4350  0.7653 -0.0122
13062SOL     OW42590   5.023   1.318   9.435 -0.6225  0.8444 -0.0466
13062SOL    HW142591   5.043   1.325   9.342  0.3532 -0.1722  0.0751
13062SOL    HW242592   4.933   1.349   9.443 -0.7519  0.8241 -1.3447
13063SOL     OW42593   0.714   2.971   4.866 -0.5321  0.0569  0.1089
13063SOL    HW142594   0.799   2.945   4.902  0.3863  2.3513 -0.3080
13063SOL    HW242595   0.668   2.888   4.851  0.9208 -1.1529  2.0119
13064SOL     OW42596   5.673   3.784  10.872 -0.0791 -0.0710  0.3383
13064SOL    HW142597   5.645   3.825  10.954  0.4465  0.8630  0.0529
13064SOL    HW242598   5.768   3.781  10.877 -0.0956 -0.9917  0.2229
13065SOL     OW42599   7.600   3.371   3.494  0.1686 -0.2366 -0.0524
13065SOL    HW142600   7.613   3.348   3.402 -0.8547  1.3573 -0.6255
13065SOL    HW242601   7.511   3.344   3.513  1.2303 -2.9495  1.2542
13066SOL     OW42602   2.092   9.635   5.821  0.0516  0.2780  0.4312
13066SOL    HW142603   2.168   9.675   5.865 -0.0098  1.8451 -0.8230
13066SOL    HW242604   2.031   9.616   5.892  1.0795  0.2245  1.3219
13067SOL     OW42605   3.306   2.827   0.852  0.1969  0.3051 -0.4633
13067SOL    HW142606   3.386   2.879   0.841 -0.6356  1.9076  0.8516
13067SOL    HW242607   3.235   2.888   0.831 -0.8515  0.0252  2.1026
13068SOL     OW42608   7.833   2.412   2.818  0.0773  0.4070  0.0536
13068SOL    HW142609   7.808   2.336   2.765 -0.0738  0.4904  0.0050
13068SOL    HW242610   7.756   2.430   2.872  0.1219  0.5101  0.0842
13069SOL     OW42611   0.839   5.168   5.970  0.9287  0.0595 -0.2547
13069SOL    HW142612   0.882   5.179   6.054 -0.0115  2.0530 -0.0238
13069SOL    HW242613   0.778   5.095   5.984  0.2213  0.8861  1.0132
13070SOL     OW42614   1.132   2.279   1.028  0.4178 -0.2434  0.1684
13070SOL    HW142615   1.087   2.329   0.960 -1.2382 -0.5651  0.9887
13070SOL    HW242616   1.209   2.332   1.050  0.1346  0.6177 -0.8625
13071SOL     OW42617   3.637   8.156  10.961  0.5701 -0.1229 -0.4525
13071SOL    HW142618   3.614   8.069  10.927 -1.5302 -0.2759  1.2635
13071SOL    HW242619   3.569   8.214  10.927  0.2685  0.2959  0.8529
13072SOL     OW42620   3.389   8.013   0.589 -0.1191 -0.1475 -0.0023
13072SOL    HW142621   3.392   7.965   0.672  0.4012 -0.2703 -0.0972
13072SOL    HW242622   3.474   8.056   0.583  0.0227 -0.5300 -0.7132
13073SOL     OW42623   2.030   9.031   2.063 -0.1252  0.0930  0.5540
13073SOL    HW142624   2.005   9.117   2.029  0.2267 -0.4867 -1.2164
13073SOL    HW242625   2.020   8.972   1.988 -0.0984 -1.3607  1.6825
13074SOL     OW42626   4.884   0.927   3.014 -0.1406 -0.3032 -0.2726
13074SOL    HW142627   4.902   1.004   2.961  0.1421 -0.4683 -0.4158
13074SOL    HW242628   4.959   0.870   3.000  0.2023 -0.1101  0.7412
13075SOL     OW42629   8.277   8.841   5.722 -0.3124 -0.1005  0.2016
13075SOL    HW142630   8.253   8.794   5.642  0.0910 -1.5210  0.9106
13075SOL    HW242631   8.362   8.881   5.703 -0.1619 -0.5375 -0.0401
13076SOL     OW42632   2.982   0.338  10.640 -0.1616 -0.0048 -0.0267
13076SOL    HW142633   2.925   0.401  10.596 -0.5368 -0.6681 -0.4916
13076SOL    HW242634   2.984   0.367  10.732 -0.8824  0.2776 -0.0978
13077SOL     OW42635   6.803   2.909   0.350 -0.3963  0.5164 -0.0284
13077SOL    HW142636   6.816   2.829   0.299  0.8683  1.0166 -0.5187
13077SOL    HW242637   6.718   2.943   0.321  0.2952  0.7795 -1.8150
13078SOL     OW42638   5.025   5.025   8.993 -0.1204 -0.0700  0.3445
13078SOL    HW142639   4.985   5.002   9.078 -1.0416  1.8120  0.4632
13078SOL    HW242640   4.969   4.982   8.929  0.6612 -1.6207  0.7046
13079SOL     OW42641   2.313  10.557   0.392 -0.2447  0.4717  0.5763
13079SOL    HW142642   2.408  10.568   0.380  0.4389 -2.7836  2.4345
13079SOL    HW242643   2.274  10.612   0.324  2.9599  2.2809  0.0855
13080SOL     OW42644   5.629   9.866   9.231 -0.9643  0.7372  0.2482
13080SOL    HW142645   5.535   9.873   9.248 -0.8105  1.9640  0.5904
13080SOL    HW242646   5.645   9.926   9.159 -0.6884 -0.5791 -0.8119
13081SOL     OW42647   0.900   1.913   4.006  0.0277  0.1975  0.0682
13081SOL    HW142648   0.940   1.854   4.070 -0.6179 -0.3188  0.0031
13081SOL    HW242649   0.968   1.977   3.987  0.8440 -0.7068 -0.0875
13082SOL     OW42650   9.274   3.352   4.435 -0.0626  0.3475 -0.0341
13082SOL    HW142651   9.353   3.374   4.386  0.5806 -0.3239  0.6853
13082SOL    HW242652   9.204   3.400   4.391  0.6466  0.4597 -1.0529
13083SOL     OW42653   3.849   7.837   0.756 -0.3623  0.8760  0.6280
13083SOL    HW142654   3.870   7.800   0.842 -0.4048  0.3599  0.4196
13083SOL    HW242655   3.755   7.856   0.761 -0.7495 -0.7601  0.1206
13084SOL     OW42656  10.035   2.631   9.378 -0.1188 -0.2926 -0.2094
13084SOL    HW142657  10.062   2.631   9.470  1.0572  1.3559 -0.5327
13084SOL    HW242658  10.109   2.668   9.331 -1.8316  1.7254 -1.4499
13085SOL     OW42659   2.969   1.895   3.470 -0.3150 -0.0040 -0.2772
13085SOL    HW142660   2.972   1.941   3.554  0.2200  0.3599 -0.4883
13085SOL    HW242661   3.018   1.814   3.485  1.3012  0.8605 -0.7009
13086SOL     OW42662  10.451   0.387   3.227 -0.0361  0.1401 -0.1250
13086SOL    HW142663  10.365   0.378   3.186 -0.2498  1.7145 -0.0511
13086SOL    HW242664  10.474   0.298   3.253 -2.9850  0.0437  2.5663
13087SOL     OW42665   8.164   7.526  10.371 -0.2028  0.0371  0.0498
13087SOL    HW142666   8.127   7.610  10.400 -1.9417 -1.5253  2.5562
13087SOL    HW242667   8.252   7.525  10.408  0.7046  1.7184 -1.9437
13088SOL     OW42668   4.070   4.219   4.410 -0.3950 -0.0911  0.1612
13088SOL    HW142669   4.139   4.249   4.469 -0.0716  0.3397 -0.4290
13088SOL    HW242670   3.989   4.239   4.457 -0.1591  0.9274  0.1580
13089SOL     OW42671   5.757   2.934   3.889  0.3925 -0.0900 -0.6765
13089SOL    HW142672   5.844   2.909   3.919  0.4432 -0.7683 -1.3675
13089SOL    HW242673   5.745   3.023   3.922  1.1545 -0.1656 -0.1773
13090SOL     OW42674   9.138   8.412   1.709 -0.3963 -0.3370 -0.5096
13090SOL    HW142675   9.078   8.486   1.711 -0.1170 -0.0891 -1.1964
13090SOL    HW242676   9.189   8.420   1.789 -0.3750  0.2080 -0.5756
13091SOL     OW42677   5.769   2.566   8.185  0.2877 -0.0826  0.1851
13091SOL    HW142678   5.836   2.528   8.242  0.2430  1.1805  1.1010
13091SOL    HW242679   5.708   2.493   8.168 -0.2288 -0.2613  2.5566
13092SOL     OW42680   1.221   1.163   3.396  0.0753  0.1511  0.2228
13092SOL    HW142681   1.316   1.152   3.393  0.1500  0.7576  0.3118
13092SOL    HW242682   1.187   1.099   3.333  0.6295  0.9188 -0.8819
13093SOL     OW42683   6.201   7.234   0.556  0.4197 -0.3700  0.0323
13093SOL    HW142684   6.210   7.271   0.643  0.8104  0.5664 -0.4077
13093SOL    HW242685   6.267   7.278   0.503 -0.7824  0.1311 -1.0855
13094SOL     OW42686   7.504   1.380   1.410 -0.3264 -0.0921 -0.0841
13094SOL    HW142687   7.594   1.404   1.387  0.6366  1.2019  4.4875
13094SOL    HW242688   7.455   1.462   1.406 -0.6040 -0.2325  0.3863
13095SOL     OW42689  10.283  10.560   9.510 -0.4113  0.6796 -0.2252
13095SOL    HW142690  10.318  10.494   9.451  0.4122  3.3546 -2.8329
13095SOL    HW242691  10.314  10.533   9.597  0.7736 -1.7516 -1.3633
13096SOL     OW42692   8.316   0.508   6.309 -0.2769 -0.1398 -0.7158
13096SOL    HW142693   8.319   0.442   6.378  1.2546  1.3308  0.7091
13096SOL    HW242694   8.230   0.550   6.318  0.2349  0.6029  0.8878
13097SOL     OW42695  10.800   3.278   3.974 -0.3067  0.5843  0.2943
13097SOL    HW142696  10.778   3.223   3.899 -1.0490 -1.0894  1.7140
13097SOL    HW242697  10.895   3.281   3.975 -0.2905  0.5104 -0.6159
13098SOL     OW42698   3.192   2.129  10.339  0.1859  0.1540  0.0467
13098SOL    HW142699   3.127   2.067  10.307  0.4299 -0.3226  0.4748
13098SOL    HW242700   3.143   2.189  10.395  0.2940 -0.8483  1.2346
13099SOL     OW42701   0.303   4.636   6.869  0.1765  0.7749 -0.2322
13099SOL    HW142702   0.370   4.638   6.937  0.8058  3.0003 -0.8864
13099SOL    HW242703   0.352   4.630   6.787 -0.5647 -1.4809 -0.5468
13100SOL     OW42704   7.483  10.155   2.142  0.5509  0.7732 -0.2285
13100SOL    HW142705   7.560  10.101   2.160  1.0907  1.5675 -0.0850
13100SOL    HW242706   7.457  10.133   2.053  0.3240 -0.2402  0.0807
13101SOL     OW42707  10.573   3.803   3.314  0.0633 -0.4506 -0.8671
13101SOL    HW142708  10.517   3.726   3.328  0.9092 -0.6049  2.0876
13101SOL    HW242709  10.513   3.877   3.320 -0.1186 -0.6974  0.7481
13102SOL     OW42710   2.432   0.711   9.593 -0.0148 -1.0870 -0.6178
13102SOL    HW142711   2.447   0.621   9.621  1.6343 -1.3421 -2.2755
13102SOL    HW242712   2.428   0.761   9.675 -2.3709 -2.8372  0.3895
13103SOL     OW42713   8.513   1.956   5.238  0.0539 -0.5970  0.2279
13103SOL    HW142714   8.499   1.866   5.211 -1.1559 -0.4880  0.4393
13103SOL    HW242715   8.426   1.986   5.266  1.0504 -0.4546  3.4272
13104SOL     OW42716   7.808   6.772   4.147 -0.0966 -0.0612  0.1073
13104SOL    HW142717   7.880   6.801   4.090  0.5736 -1.7256  0.0663
13104SOL    HW242718   7.792   6.681   4.121  0.3095 -0.9083  2.6712
13105SOL     OW42719   8.143   0.636   2.855  0.3132 -0.3052 -0.7293
13105SOL    HW142720   8.106   0.548   2.861 -1.4204  0.5525  1.9267
13105SOL    HW242721   8.229   0.629   2.898 -0.3631 -0.4551  0.6340
13106SOL     OW42722   2.070   5.898   9.200  0.0414 -0.0279 -0.2182
13106SOL    HW142723   2.151   5.877   9.154  0.2137  0.1816 -0.0118
13106SOL    HW242724   2.097   5.955   9.272 -0.1358 -0.9307  0.5731
13107SOL     OW42725   1.123   7.611   4.291 -0.1365  0.3016 -0.4823
13107SOL    HW142726   1.182   7.565   4.351  0.2087  0.4679 -0.6919
13107SOL    HW242727   1.052   7.549   4.275 -0.2088  0.2385  0.0662
13108SOL     OW42728  10.922   2.935   1.238  0.2024  0.5647 -0.4045
13108SOL    HW142729  10.950   3.002   1.175  1.2879  0.0094 -0.5186
13108SOL    HW242730  10.834   2.911   1.209  0.5795  0.5086 -1.5488
13109SOL     OW42731   1.186   2.857   6.448  0.4633  0.0430  0.0462
13109SOL    HW142732   1.117   2.903   6.400  0.3126 -1.9284 -1.6610
13109SOL    HW242733   1.264   2.911   6.435 -0.2984  1.2624  0.3741
13110SOL     OW42734   0.526  10.203   0.136 -0.1028  0.5877  0.0172
13110SOL    HW142735   0.598  10.257   0.167  0.4289 -0.9038  1.4657
13110SOL    HW242736   0.490  10.251   0.061  1.5778  1.9619  0.0606
13111SOL     OW42737   5.601   1.836   4.652  0.2409 -0.0366  0.5075
13111SOL    HW142738   5.515   1.798   4.637 -0.7875  2.6503 -0.6637
13111SOL    HW242739   5.612   1.836   4.747 -1.3055  0.1425  0.6887
13112SOL     OW42740   6.911   1.002   1.822 -0.3793 -0.0961  0.6785
13112SOL    HW142741   6.947   1.000   1.733  0.7641  1.4566  1.0910
13112SOL    HW242742   6.962   1.069   1.867 -1.0562 -0.7589  2.4707
13113SOL     OW42743   5.462   1.756   3.885 -0.0369  0.3282 -0.0417
13113SOL    HW142744   5.515   1.782   3.810  0.5945 -1.0774 -0.0972
13113SOL    HW242745   5.451   1.661   3.876 -4.0231  0.8056 -0.9471
13114SOL     OW42746   8.634   9.543   3.598  0.4255 -0.4165 -0.3165
13114SOL    HW142747   8.624   9.472   3.534  0.7325 -0.7175 -0.0253
13114SOL    HW242748   8.652   9.620   3.544  0.3533 -0.6055 -0.6167
13115SOL     OW42749   2.346   5.029   5.994 -0.1253  0.2710  0.1704
13115SOL    HW142750   2.342   5.122   5.972  1.4214  0.7628  1.8009
13115SOL    HW242751   2.429   5.000   5.957  0.6603  0.1995  1.9250
13116SOL     OW42752   1.274   2.508   6.036  0.2940 -0.3951 -0.0581
13116SOL    HW142753   1.366   2.519   6.013 -0.1816  2.4434 -0.7788
13116SOL    HW242754   1.271   2.517   6.131  0.3152  3.2237 -0.3647
13117SOL     OW42755   7.062   8.579   0.502 -0.9293  0.4682  0.4714
13117SOL    HW142756   7.136   8.605   0.448 -0.4822  0.2376  0.9671
13117SOL    HW242757   6.988   8.576   0.441 -0.7414  1.6690  0.1665
13118SOL     OW42758   1.701  10.766   0.138 -0.7631  0.1711 -0.7217
13118SOL    HW142759   1.772  10.707   0.163 -2.2363 -1.5889 -0.5674
13118SOL    HW242760   1.738  10.819   0.067  2.1524  2.4346  2.2746
13119SOL     OW42761   8.202   5.117  10.818 -0.3999  0.0329 -0.3614
13119SOL    HW142762   8.119   5.151  10.783 -0.6015 -0.2656 -0.1764
13119SOL    HW242763   8.206   5.027  10.785 -0.2591 -0.0263 -0.1799
13120SOL     OW42764   4.115  10.204   3.055  0.0512  0.3758  0.7256
13120SOL    HW142765   4.083  10.293   3.068 -2.1955 -0.2118 -0.5596
13120SOL    HW242766   4.133  10.198   2.961 -4.8306 -2.0347 -0.2119
13121SOL     OW42767   4.342   8.464   5.899  0.1870 -0.4581 -0.2103
13121SOL    HW142768   4.256   8.501   5.879  0.7269  0.2781 -1.2056
13121SOL    HW242769   4.326   8.408   5.975 -0.6610  1.7902  1.3552
13122SOL     OW42770   5.181   3.193   0.026 -0.1546  0.3055  0.0582
13122SOL    HW142771   5.087   3.208   0.030 -0.0731  1.1402 -0.8070
13122SOL    HW242772   5.200   3.138   0.102 -1.1987  0.8452  0.7281
13123SOL     OW42773   6.377   8.121   2.275  0.6766 -0.7387  0.3202
13123SOL    HW142774   6.291   8.087   2.250  0.2824  0.4795  0.0047
13123SOL    HW242775   6.365   8.157   2.363  0.1932  1.8602 -0.7883
13124SOL     OW42776   6.644   3.426   8.437 -0.1469  0.5499 -0.1425
13124SOL    HW142777   6.613   3.366   8.369  2.5649 -2.2048  0.9234
13124SOL    HW242778   6.567   3.443   8.491 -1.0875 -1.5520 -0.7829
13125SOL     OW42779   5.584   3.486   8.877  0.3306  0.4290  0.0740
13125SOL    HW142780   5.565   3.392   8.871 -0.2138  0.6007 -0.8985
13125SOL    HW242781   5.556   3.510   8.966  0.1290 -0.2473  0.1965
13126SOL     OW42782   2.225   4.671   8.759  0.3574  0.2333  0.8858
13126SOL    HW142783   2.163   4.723   8.708  1.3266  0.3776 -0.1808
13126SOL    HW242784   2.187   4.584   8.762  0.8667 -0.0989 -1.1748
13127SOL     OW42785   2.230   0.716   8.868 -0.4691 -0.0601 -0.1269
13127SOL    HW142786   2.136   0.729   8.856 -0.7309 -1.1044  0.7249
13127SOL    HW242787   2.238   0.624   8.895  0.7987  0.0116 -0.2318
13128SOL     OW42788  10.564   4.176   6.063  0.1585 -0.0828  0.0968
13128SOL    HW142789  10.625   4.143   6.129  1.5933 -0.5983 -1.4281
13128SOL    HW242790  10.583   4.123   5.986 -0.7117  1.2369 -1.0370
13129SOL     OW42791   9.852   2.037   1.266  0.1915 -0.0913  0.0196
13129SOL    HW142792   9.902   2.073   1.339 -3.3516  1.3254  1.9038
13129SOL    HW242793   9.873   1.944   1.266  0.3892 -0.0927  2.8099
13130SOL     OW42794   4.319   2.986   2.829 -0.0989 -0.3039 -0.4289
13130SOL    HW142795   4.320   2.927   2.905  1.0032 -0.2451 -0.3910
13130SOL    HW242796   4.352   3.069   2.863 -0.5546  0.0092 -0.7510
13131SOL     OW42797   3.162   8.951   7.637  0.2620 -0.5382  0.5880
13131SOL    HW142798   3.146   9.042   7.613 -0.1847 -0.2507  1.9004
13131SOL    HW242799   3.238   8.925   7.585 -0.4120  0.1716 -0.7680
13132SOL     OW42800   6.228   4.235   3.802 -0.2202 -0.0326 -0.1970
13132SOL    HW142801   6.203   4.159   3.854 -1.5417  0.2605 -0.3990
13132SOL    HW242802   6.273   4.199   3.726  1.1989 -0.4953  0.8320
13133SOL     OW42803   7.935   2.493   8.862 -0.2027  0.0115 -0.2819
13133SOL    HW142804   7.946   2.588   8.855 -0.3679 -0.0675 -1.6735
13133SOL    HW242805   8.019   2.462   8.896 -0.4070  0.7226  0.9259
13134SOL     OW42806   0.931   6.398   9.955 -0.0670 -0.2994 -0.4752
13134SOL    HW142807   0.969   6.476   9.916 -1.6018  1.4984  1.4747
13134SOL    HW242808   1.004   6.355   9.998  0.7448  0.2330 -1.3076
13135SOL     OW42809   8.254   6.728   3.931 -0.3284 -0.0037 -0.2206
13135SOL    HW142810   8.332   6.769   3.969  1.4074 -2.7609 -0.6810
13135SOL    HW242811   8.285   6.684   3.852 -2.4209 -0.8124 -0.6398
13136SOL     OW42812   9.650   7.900   7.876  0.2207  0.0572 -0.3129
13136SOL    HW142813   9.683   7.987   7.854  2.4481 -1.0143 -1.3869
13136SOL    HW242814   9.590   7.879   7.805  1.7034 -0.3515 -1.4548
13137SOL     OW42815   3.329  10.581   5.277  0.3135 -0.1072 -0.4599
13137SOL    HW142816   3.386  10.535   5.216 -0.5807 -0.0363 -1.3561
13137SOL    HW242817   3.245  10.536   5.271  0.3958 -0.5429  1.2355
13138SOL     OW42818  10.208   1.422   0.408  0.1198 -0.1376  0.2296
13138SOL    HW142819  10.269   1.377   0.349  1.4403  0.5785  1.0268
13138SOL    HW242820  10.125   1.423   0.360  0.7827 -0.9465 -0.9622
13139SOL     OW42821   2.266   4.202   9.651 -0.0291 -0.1342 -0.4763
13139SOL    HW142822   2.350   4.177   9.690 -0.6235 -1.3377  0.0594
13139SOL    HW242823   2.206   4.132   9.676 -1.2942  0.9013 -0.5376
13140SOL     OW42824   7.523   1.871   2.300  0.1425 -0.3788  0.1427
13140SOL    HW142825   7.441   1.905   2.265  1.3294  0.6854 -1.7343
13140SOL    HW242826   7.548   1.934   2.367  0.5423  0.5671 -0.8704
13141SOL     OW42827   3.335   8.767  10.423  0.1622 -0.7539  0.1309
13141SOL    HW142828   3.254   8.728  10.454  0.9605 -1.2945  1.5725
13141SOL    HW242829   3.380   8.796  10.502  1.3274 -0.3541 -0.6648
13142SOL     OW42830   8.179  10.311   6.253 -0.1783  0.0120 -0.2884
13142SOL    HW142831   8.198  10.289   6.162  3.7370  2.1675 -0.0938
13142SOL    HW242832   8.221  10.243   6.304  2.7350  1.9475  0.0019
13143SOL     OW42833   5.803   8.484   1.286 -0.5476  0.1427  0.2530
13143SOL    HW142834   5.759   8.399   1.289 -1.2292  0.5047  0.7600
13143SOL    HW242835   5.732   8.548   1.293 -0.1426  0.7827 -1.2652
13144SOL     OW42836   5.329   7.352   3.542  0.1012 -0.0110 -0.2406
13144SOL    HW142837   5.238   7.382   3.544 -0.1707 -0.8537  0.3423
13144SOL    HW242838   5.331   7.285   3.474  0.5799  0.9204 -1.1509
13145SOL     OW42839  10.688   1.912   5.993  0.1897 -0.2164 -0.1788
13145SOL    HW142840  10.627   1.979   5.962  0.6237  0.6427  0.8050
13145SOL    HW242841  10.682   1.843   5.927  1.6193  1.8643 -2.6120
13146SOL     OW42842   9.954   0.693   6.024  0.1210 -0.1381 -0.2397
13146SOL    HW142843  10.007   0.771   6.039 -0.9164  0.6001 -0.4009
13146SOL    HW242844   9.968   0.638   6.101 -0.6254  1.0384  0.7338
13147SOL     OW42845   3.634   5.599   0.236 -0.4121 -0.2017 -0.0205
13147SOL    HW142846   3.565   5.661   0.211  1.2135  1.1911 -1.1406
13147SOL    HW242847   3.612   5.518   0.188  0.5157  1.2453 -3.0343
13148SOL     OW42848   6.108   2.225   6.416 -0.2350 -0.4237  0.2061
13148SOL    HW142849   6.073   2.152   6.364  0.9306 -0.6060 -0.3441
13148SOL    HW242850   6.082   2.303   6.367 -1.8033 -0.4390  0.9891
13149SOL     OW42851   8.093   1.048  10.464  0.1036  0.3762  0.1400
13149SOL    HW142852   8.166   1.005  10.509 -2.5109 -1.6982  2.5439
13149SOL    HW242853   8.027   1.062  10.532 -1.1773  3.6727 -1.6316
13150SOL     OW42854   6.759   1.108   3.245  0.2551 -0.2593 -0.1477
13150SOL    HW142855   6.714   1.071   3.169 -0.3520 -0.7583  0.4609
13150SOL    HW242856   6.796   1.190   3.212  2.6000 -1.9202 -1.8233
13151SOL     OW42857   2.064   6.350   8.563 -0.0626 -0.2290 -0.7651
13151SOL    HW142858   2.040   6.437   8.593 -2.6586 -0.8473 -0.8861
13151SOL    HW242859   1.984   6.298   8.572  0.8417 -2.0699 -2.6418
13152SOL     OW42860   8.676   7.132   7.508  0.0246  0.6616 -0.0773
13152SOL    HW142861   8.678   7.124   7.604  1.4962  0.0118 -0.1569
13152SOL    HW242862   8.618   7.206   7.492  0.1119  1.0582  1.3324
13153SOL     OW42863   3.942   4.606   8.547 -0.4611  0.3043  0.3258
13153SOL    HW142864   3.879   4.591   8.476 -1.7016 -2.6837  1.9735
13153SOL    HW242865   3.889   4.645   8.617  0.0800  0.3029  0.7363
13154SOL     OW42866   6.757   1.484   8.066  0.7881 -0.2546 -0.4707
13154SOL    HW142867   6.733   1.463   7.976 -0.4238  1.1078 -0.4737
13154SOL    HW242868   6.699   1.555   8.091  0.6263 -1.0864  1.6338
13155SOL     OW42869   1.250   3.963   1.597  0.2822 -0.5661  0.1707
13155SOL    HW142870   1.172   3.993   1.644 -0.1189 -1.5836  0.1775
13155SOL    HW242871   1.323   3.988   1.654  0.1798  2.6472 -0.9938
13156SOL     OW42872   6.895   1.818   1.298 -0.0393  0.1554  0.3790
13156SOL    HW142873   6.849   1.881   1.354  0.6382  0.7583  0.2664
13156SOL    HW242874   6.940   1.760   1.359 -3.5600 -2.4706  0.5804
13157SOL     OW42875   4.482   3.294   6.780  0.3137  0.0554  0.0682
13157SOL    HW142876   4.559   3.350   6.789 -0.7514  1.6714 -0.5618
13157SOL    HW242877   4.512   3.207   6.808  1.9016  1.0037  1.4587
13158SOL     OW42878   9.434   0.310   3.302  0.1746  0.1809 -0.1051
13158SOL    HW142879   9.344   0.329   3.276 -0.1086  0.3066  0.9465
13158SOL    HW242880   9.485   0.324   3.223 -0.9225 -1.3779 -1.0924
13159SOL     OW42881   7.356  10.076   9.285  1.0386  0.1486 -0.2239
13159SOL    HW142882   7.311  10.087   9.369  1.6856 -0.7655  0.2647
13159SOL    HW242883   7.322   9.993   9.251  1.2911  0.1733 -0.5330
13160SOL     OW42884  10.319   1.482   3.431 -0.5434 -0.4777  0.1970
13160SOL    HW142885  10.242   1.508   3.381  0.0933  0.1433 -0.4799
13160SOL    HW242886  10.288   1.474   3.521 -0.8662  2.3094  0.3978
13161SOL     OW42887   8.032   8.974   4.323 -0.4798  0.4686  0.0117
13161SOL    HW142888   7.945   8.952   4.291 -0.9138  1.3414  0.5951
13161SOL    HW242889   8.039   9.069   4.313  0.5773  0.3467 -0.4657
13162SOL     OW42890   6.897   7.355   9.373 -0.3651  0.1639  0.1168
13162SOL    HW142891   6.932   7.267   9.385  0.6214  0.0095 -3.4604
13162SOL    HW242892   6.914   7.399   9.457  1.6370 -2.1656  0.9978
13163SOL     OW42893   6.641   1.217   5.815  0.4772  0.1600 -0.0216
13163SOL    HW142894   6.622   1.296   5.764  1.8122  1.9692  2.2190
13163SOL    HW242895   6.557   1.191   5.852  0.2355  1.2467  0.2065
13164SOL     OW42896   1.100  10.510   7.465 -0.2110  0.2831 -0.3546
13164SOL    HW142897   1.181  10.537   7.507 -0.5497  0.4488  0.1882
13164SOL    HW242898   1.128  10.446   7.399  0.2886 -0.2178  0.3314
13165SOL     OW42899  10.894   3.514   4.725 -0.3910  0.2864  0.8467
13165SOL    HW142900  10.867   3.516   4.817 -1.2086 -1.5888  0.6676
13165SOL    HW242901  10.978   3.560   4.725 -0.7334  0.9648  2.4096
13166SOL     OW42902   7.658   2.548  10.276 -0.3439 -0.3097  0.1317
13166SOL    HW142903   7.673   2.563  10.183  0.3670  0.0605  0.3091
13166SOL    HW242904   7.575   2.592  10.294 -1.3673 -1.8444 -0.6998
13167SOL     OW42905   1.549   3.670   3.600 -0.4970  0.0934  0.3819
13167SOL    HW142906   1.462   3.661   3.561 -1.2916  1.2738  1.8336
13167SOL    HW242907   1.538   3.733   3.671  1.6705  0.6884  0.2388
13168SOL     OW42908   5.576   5.328  10.743 -0.4558 -0.4579  0.2669
13168SOL    HW142909   5.539   5.403  10.789  1.7477  1.1915 -0.5684
13168SOL    HW242910   5.500   5.274  10.720 -2.1204  1.7529  0.4358
13169SOL     OW42911   1.333   0.051   9.543  0.4260 -0.1347 -0.3247
13169SOL    HW142912   1.413   0.083   9.502  0.6932 -1.1037 -0.5702
13169SOL    HW242913   1.349   0.061   9.637  1.1836 -1.1483 -0.3413
13170SOL     OW42914   8.420   3.687   7.316 -0.2072  0.0602 -0.0843
13170SOL    HW142915   8.484   3.701   7.386  1.1247 -0.7463 -1.0940
13170SOL    HW242916   8.337   3.718   7.352  0.5720  0.2450  1.6084
13171SOL     OW42917   8.424   3.945   3.204 -0.1284  0.0331 -0.2938
13171SOL    HW142918   8.499   3.983   3.158 -0.5849  2.8617  1.1965
13171SOL    HW242919   8.350   3.961   3.145  0.1232 -1.1051 -0.9312
13172SOL     OW42920   6.631  10.927   0.632 -0.0854 -0.4629 -0.8035
13172SOL    HW142921   6.580  10.893   0.705  0.8092 -0.3965 -0.1414
13172SOL    HW242922   6.712  10.875   0.632  0.9613  1.1051 -0.2513
13173SOL     OW42923   7.409   0.639   5.047 -0.2574  0.2998  0.8918
13173SOL    HW142924   7.407   0.557   4.997  0.5523  0.9092 -0.1683
13173SOL    HW242925   7.322   0.646   5.086 -1.1715  0.1865 -1.0558
13174SOL     OW42926   9.749   0.453   4.532 -0.3674 -0.2392  0.4100
13174SOL    HW142927   9.811   0.381   4.546 -1.1246 -0.8725  0.5946
13174SOL    HW242928   9.702   0.460   4.615 -0.7868 -0.0002  0.1517
13175SOL     OW42929  10.513   5.774   5.114 -0.2502 -0.4151 -0.0551
13175SOL    HW142930  10.590   5.725   5.087 -0.4447 -0.5453 -0.3733
13175SOL    HW242931  10.534   5.865   5.096 -0.1183 -0.4391 -0.0204
13176SOL     OW42932   4.663   7.723   9.607 -0.0684  0.4971 -0.8183
13176SOL    HW142933   4.689   7.807   9.643  1.2369 -0.7396  1.2283
13176SOL    HW242934   4.689   7.728   9.515  0.6097  2.0848 -0.5631
13177SOL     OW42935   1.438   9.754   3.496  0.7087  0.7825 -0.2187
13177SOL    HW142936   1.424   9.674   3.447  0.3155  1.0301 -0.5163
13177SOL    HW242937   1.413   9.824   3.436 -3.5376  0.9635  1.5533
13178SOL     OW42938   1.570   4.056   3.005  0.0466  0.1579  0.0636
13178SOL    HW142939   1.645   4.003   3.031  0.3443  1.3582  1.7337
13178SOL    HW242940   1.498   4.024   3.059 -0.6831 -1.0658 -1.6152
13179SOL     OW42941   1.871   5.120   5.978 -0.4532  0.6378 -0.3640
13179SOL    HW142942   1.798   5.136   5.918 -0.7971 -0.6888 -0.3165
13179SOL    HW242943   1.949   5.133   5.924 -0.7570 -0.1741 -1.0112
13180SOL     OW42944   2.104   7.249   0.176 -0.1598 -0.1391  0.6496
13180SOL    HW142945   2.168   7.248   0.105  0.2943  1.3680  1.0129
13180SOL    HW242946   2.056   7.330   0.163 -1.6278 -0.9890  0.7223
13181SOL     OW42947   7.271   3.618   1.234 -0.5069  0.3741 -0.0251
13181SOL    HW142948   7.289   3.646   1.144  0.5830  1.0196  0.3841
13181SOL    HW242949   7.248   3.526   1.227 -2.1170  0.8314 -1.1696
13182SOL     OW42950   9.112   3.587   7.670  0.0419  0.0860 -0.2665
13182SOL    HW142951   9.125   3.608   7.577 -0.3203 -0.6232 -0.4865
13182SOL    HW242952   9.021   3.557   7.675  0.5102 -1.3624  0.0229
13183SOL     OW42953   7.480   6.843   8.985  0.3991 -0.0396  0.1818
13183SOL    HW142954   7.482   6.778   8.915 -0.0397  0.1816 -0.0368
13183SOL    HW242955   7.510   6.924   8.944 -0.2691  0.1874  0.1485
13184SOL     OW42956   6.272   6.244   1.361  0.3557 -0.4705  0.2248
13184SOL    HW142957   6.279   6.326   1.409  2.5066 -0.5258  0.0532
13184SOL    HW242958   6.321   6.181   1.413 -0.2058 -1.3516 -0.2927
13185SOL     OW42959   2.697   3.738   0.239  0.1739 -0.5495  0.3496
13185SOL    HW142960   2.612   3.781   0.228  0.5513 -0.0671 -0.7686
13185SOL    HW242961   2.734   3.735   0.150  0.3363 -2.8235  0.4665
13186SOL     OW42962   9.387   4.828   6.745 -0.5004  0.0388  0.2277
13186SOL    HW142963   9.362   4.738   6.722 -2.2060  0.6707 -0.4385
13186SOL    HW242964   9.412   4.868   6.662 -0.9187  0.5383  0.3434
13187SOL     OW42965  10.032   4.298   3.544 -0.4009 -0.0099 -0.0033
13187SOL    HW142966  10.038   4.207   3.514 -1.5799 -0.0763 -0.0567
13187SOL    HW242967   9.982   4.293   3.625 -0.2717  0.5690  0.1102
13188SOL     OW42968   2.821  10.212   4.144  0.0945 -0.3580  0.5166
13188SOL    HW142969   2.809  10.122   4.115  0.2439 -0.6533  1.3542
13188SOL    HW242970   2.755  10.224   4.212  1.6319 -0.6121  2.0968
13189SOL     OW42971   5.001   2.789   5.920 -0.3560 -0.0866  0.4451
13189SOL    HW142972   4.907   2.806   5.926 -0.4048 -1.1773  3.2455
13189SOL    HW242973   5.020   2.795   5.826 -3.0206  1.0870 -0.0700
13190SOL     OW42974   9.758   8.004   8.906  0.6504  0.2909 -0.4218
13190SOL    HW142975   9.836   7.949   8.914  0.6396  0.2394 -0.6694
13190SOL    HW242976   9.706   7.982   8.983  0.6290 -0.0745 -0.5389
13191SOL     OW42977   0.876   8.612   4.885  0.4231  0.2657 -0.8169
13191SOL    HW142978   0.811   8.680   4.902  0.9240  0.8369 -1.1578
13191SOL    HW242979   0.825   8.534   4.862 -0.2891 -0.2908  2.3025
13192SOL     OW42980   9.195   3.177   8.243 -0.5151  0.4843  0.4123
13192SOL    HW142981   9.147   3.110   8.195  0.0267 -0.2162  0.8361
13192SOL    HW242982   9.272   3.132   8.276 -0.4404  1.1730  1.1914
13193SOL     OW42983   9.415   7.151   4.999 -0.2648  0.0487 -0.2577
13193SOL    HW142984   9.439   7.064   4.967  0.0312 -0.3684  1.0685
13193SOL    HW242985   9.350   7.134   5.067 -0.0320  0.8533  0.1712
13194SOL     OW42986   5.513   2.919   5.923  0.0844 -0.0721  0.1602
13194SOL    HW142987   5.460   2.997   5.941 -0.4768 -0.1602 -1.0572
13194SOL    HW242988   5.489   2.857   5.991 -0.8173  0.1702  0.0731
13195SOL     OW42989   2.932   8.494   8.916  0.2168  0.5818  0.4035
13195SOL    HW142990   2.975   8.409   8.927 -0.4349  0.1935 -0.0019
13195SOL    HW242991   2.985   8.555   8.966 -0.1496 -0.3366  1.9396
13196SOL     OW42992   2.321   1.115   4.998 -0.3840 -0.2597  0.3377
13196SOL    HW142993   2.403   1.087   5.039  1.9489  4.1664 -1.0099
13196SOL    HW242994   2.279   1.172   5.062 -0.3369  0.8399 -0.6043
13197SOL     OW42995   9.601   6.929   0.033  0.0497  0.2012  0.0867
13197SOL    HW142996   9.673   6.992   0.034  0.3910 -0.2080  1.1121
13197SOL    HW242997   9.635   6.853  -0.013 -0.0620  0.3872 -0.3139
13198SOL     OW42998   6.112   0.612   6.920  0.0161  0.0128  0.4560
13198SOL    HW142999   6.145   0.700   6.940 -1.3988  1.4185 -3.0220
13198SOL    HW243000   6.016   0.621   6.922 -0.1419 -1.2513 -0.7024
13199SOL     OW43001   9.544   7.065   6.316  0.1269 -0.1048 -0.4256
13199SOL    HW143002   9.581   7.140   6.270 -0.8363  0.6199 -0.0375
13199SOL    HW243003   9.581   7.069   6.404  1.2546 -0.9689 -0.8435
13200SOL     OW43004   3.185   1.002   1.773 -0.2631 -0.4709  0.2172
13200SOL    HW143005   3.272   1.041   1.774 -0.3892 -0.1939  0.3548
13200SOL    HW243006   3.163   0.989   1.865 -0.3002 -0.6922  0.1778
13201SOL     OW43007   6.366   2.956   2.785  0.2201  0.0797  0.2246
13201SOL    HW143008   6.323   3.014   2.723 -0.7189 -0.5689  0.2570
13201SOL    HW243009   6.307   2.881   2.793  0.5033 -0.0200  1.6069
13202SOL     OW43010   0.513   4.756   0.821  0.3017  0.2239 -0.1377
13202SOL    HW143011   0.442   4.814   0.850  0.3040 -0.4707  1.3293
13202SOL    HW243012   0.551   4.723   0.903 -0.3643 -2.6352 -0.9279
13203SOL     OW43013   3.593   2.536   0.803  0.6775 -0.2173  0.2646
13203SOL    HW143014   3.636   2.604   0.856  0.0380  0.6692 -0.3322
13203SOL    HW243015   3.506   2.529   0.841  0.1657  0.5260 -0.7442
13204SOL     OW43016   9.315   8.076   4.561 -0.4928  0.5350 -0.2161
13204SOL    HW143017   9.221   8.072   4.578 -0.3989  1.0063  0.4160
13204SOL    HW243018   9.322   8.116   4.474 -0.9207 -0.8322 -0.9081
13205SOL     OW43019   7.094   0.090   8.846 -0.2523  0.7105 -0.6262
13205SOL    HW143020   7.083   0.031   8.921 -0.4580  2.7934  1.0521
13205SOL    HW243021   7.007   0.098   8.809 -0.6451  1.5966  0.4519
13206SOL     OW43022  10.399   7.229   4.747 -0.0632  0.4239 -0.6400
13206SOL    HW143023  10.314   7.185   4.745  0.5680 -0.8590  0.5701
13206SOL    HW243024  10.460   7.166   4.709  0.5123  0.9866 -0.6516
13207SOL     OW43025   4.065   2.723   8.386  0.7044  0.4613  0.3351
13207SOL    HW143026   4.091   2.631   8.376 -0.7030 -0.0168  0.8953
13207SOL    HW243027   4.068   2.738   8.480  0.7620  0.9395  0.2552
13208SOL     OW43028   1.677   6.134   4.791 -0.0609  0.3753  0.2759
13208SOL    HW143029   1.717   6.129   4.877  1.0769  1.8701 -0.1574
13208SOL    HW243030   1.730   6.076   4.736 -0.0192  0.4006  0.2908
13209SOL     OW43031   1.274   0.003   7.943  0.1345 -0.4148 -0.9212
13209SOL    HW143032   1.366   0.002   7.919  0.1913 -0.0692 -0.7131
13209SOL    HW243033   1.231  -0.050   7.876  0.4248 -0.2417 -1.2434
13210SOL     OW43034   7.502   4.842  10.122  0.3872 -0.1652  0.3879
13210SOL    HW143035   7.509   4.801  10.208  1.5747  0.5643  0.6661
13210SOL    HW243036   7.533   4.932  10.136 -0.4626  0.2929 -0.5704
13211SOL     OW43037   2.223   1.932  10.241  0.0372  0.1297  0.0973
13211SOL    HW143038   2.275   2.010  10.262  1.3214 -0.7071  0.0798
13211SOL    HW243039   2.134   1.966  10.229  1.1007  2.0920 -3.0026
13212SOL     OW43040   0.649   1.198   6.955 -0.1770 -0.3481  0.2632
13212SOL    HW143041   0.584   1.165   6.892  0.9373 -0.4271 -0.8629
13212SOL    HW243042   0.604   1.270   7.000 -0.1172  1.5703 -2.5680
13213SOL     OW43043   7.948   6.832   6.906 -0.5138  0.0750  0.2397
13213SOL    HW143044   8.035   6.865   6.929 -0.2116 -0.5035 -0.0433
13213SOL    HW243045   7.947   6.835   6.810 -0.4568 -0.7768  0.2049
13214SOL     OW43046   7.994   2.096   0.984 -0.2157 -0.1510  0.1940
13214SOL    HW143047   8.055   2.153   1.030  1.0245 -0.3200 -1.2291
13214SOL    HW243048   8.049   2.040   0.930 -1.6797  0.5200 -2.0361
13215SOL     OW43049   1.960   2.409  10.205  0.9996  0.7840  0.1817
13215SOL    HW143050   2.028   2.369  10.151 -1.3901 -0.0236 -2.3279
13215SOL    HW243051   1.916   2.335  10.246  0.5977  1.2111  0.5160
13216SOL     OW43052   1.814   6.952   0.526  0.3978  0.1196 -0.1164
13216SOL    HW143053   1.871   7.026   0.505 -0.2833  0.8988  0.7046
13216SOL    HW243054   1.742   6.958   0.463  0.0637  0.4860  0.2955
13217SOL     OW43055   2.435   1.901   4.351  0.4648 -0.0584  0.0317
13217SOL    HW143056   2.397   1.827   4.398 -0.6751  1.4529  1.5087
13217SOL    HW243057   2.365   1.966   4.346  1.3364  0.8039 -1.5829
13218SOL     OW43058  10.385   8.181   0.749 -0.0647  0.2363 -0.2516
13218SOL    HW143059  10.453   8.141   0.803 -1.0500 -1.2034 -0.0556
13218SOL    HW243060  10.325   8.221   0.812 -0.4479 -0.2013 -0.3392
13219SOL     OW43061   2.811   1.024   3.798 -0.9706  0.7558 -0.2727
13219SOL    HW143062   2.756   1.078   3.854 -0.3338 -0.5378  1.6312
13219SOL    HW243063   2.770   0.937   3.799  0.8380 -0.1179  0.8394
13220SOL     OW43064   2.822  10.773   3.903  0.5367  0.4189 -0.1723
13220SOL    HW143065   2.844  10.833   3.832  1.2720  1.5769  1.0018
13220SOL    HW243066   2.832  10.826   3.983 -0.8279 -0.6839  0.7579
13221SOL     OW43067   0.334   4.464  10.924 -0.4432  0.4765 -0.0284
13221SOL    HW143068   0.379   4.545  10.943 -0.8893  0.4527  1.1468
13221SOL    HW243069   0.383   4.426  10.851  1.4136  0.4603  1.2036
13222SOL     OW43070   7.442  10.042   0.887  0.2234 -0.0810  0.3060
13222SOL    HW143071   7.479  10.127   0.912  0.3953  0.5661 -1.9933
13222SOL    HW243072   7.350  10.060   0.871  0.4637 -0.0821 -1.1724
13223SOL     OW43073   4.157   7.949   6.856 -0.2803  0.5946  0.2199
13223SOL    HW143074   4.251   7.968   6.850 -0.5032  1.1333 -1.7108
13223SOL    HW243075   4.125   8.008   6.924  1.0374 -0.6878  2.0301
13224SOL     OW43076   8.037   3.342  10.015 -0.2387 -0.0468 -0.1992
13224SOL    HW143077   8.046   3.435  10.034  2.4177 -0.4967  0.9362
13224SOL    HW243078   8.038   3.337   9.919 -0.3407  1.0655 -0.2697
13225SOL     OW43079   2.141  10.275  10.931  0.0497 -0.2659 -0.1036
13225SOL    HW143080   2.108  10.226  11.006 -2.3411  0.2866 -0.7653
13225SOL    HW243081   2.207  10.334  10.968  1.1819 -2.2328  1.0542
13226SOL     OW43082   4.614  10.590  10.229  0.4370 -0.5892 -0.0736
13226SOL    HW143083   4.547  10.560  10.167 -0.3531 -0.1590  0.5528
13226SOL    HW243084   4.630  10.515  10.285 -0.6076 -0.2624  0.6926
13227SOL     OW43085   1.032   8.546   8.624  0.6014 -0.6198 -0.1783
13227SOL    HW143086   1.051   8.468   8.676 -0.3243 -1.6032 -1.2981
13227SOL    HW243087   1.114   8.566   8.580  1.1613 -0.2769  1.0057
13228SOL     OW43088   6.473   6.094   5.663  0.3928 -0.2510 -0.5696
13228SOL    HW143089   6.529   6.043   5.722 -0.3732 -0.5766 -0.1263
13228SOL    HW243090   6.389   6.049   5.665 -0.5113  1.4683  0.3988
13229SOL     OW43091   6.919   3.465   6.888  0.0822  0.5314 -0.2339
13229SOL    HW143092   6.864   3.520   6.945 -1.0552 -1.7330  0.9370
13229SOL    HW243093   6.965   3.407   6.949  0.7987 -0.2181 -1.4772
13230SOL     OW43094   3.410   0.726   7.763  0.0438 -0.3162  0.4546
13230SOL    HW143095   3.432   0.809   7.805 -0.7208  0.5610 -0.8345
13230SOL    HW243096   3.382   0.669   7.834 -0.1803  0.7847  1.2635
13231SOL     OW43097   4.023   2.367   0.313 -0.6367  0.0839  0.5948
13231SOL    HW143098   4.005   2.318   0.394  2.1383 -0.4615  0.9413
13231SOL    HW243099   4.086   2.313   0.266 -0.5156  1.4786 -0.8759
13232SOL     OW43100   2.750   4.857   2.951 -0.5617  0.2754  0.1623
13232SOL    HW143101   2.768   4.873   2.858  1.0687  1.5544  0.6615
13232SOL    HW243102   2.655   4.844   2.955 -0.4263 -1.8004 -1.9455
13233SOL     OW43103   4.706   0.769   5.893 -0.9733  0.4516  0.3490
13233SOL    HW143104   4.709   0.824   5.815 -0.6959 -1.0852 -0.7424
13233SOL    HW243105   4.748   0.822   5.961 -1.9665  2.1341 -0.3024
13234SOL     OW43106   4.341   6.760   9.242  0.1806  0.3802  0.7979
13234SOL    HW143107   4.256   6.766   9.285  0.1509 -0.0773  0.8080
13234SOL    HW243108   4.357   6.848   9.208 -0.6908  0.2432  0.0241
13235SOL     OW43109   6.290   7.064   4.048  0.1418  0.4979  0.0259
13235SOL    HW143110   6.212   7.111   4.016 -1.6240  0.2849  3.7478
13235SOL    HW243111   6.336   7.129   4.102  0.9768 -0.2714  0.2435
13236SOL     OW43112   8.574   0.303   7.082 -0.3633  0.5389 -0.3906
13236SOL    HW143113   8.645   0.362   7.058  0.9285 -0.9747 -0.3003
13236SOL    HW243114   8.575   0.303   7.178  0.5843 -0.7606 -0.3965
13237SOL     OW43115   6.189   8.334   1.910 -0.2114 -0.2735  0.0490
13237SOL    HW143116   6.282   8.325   1.930 -0.3019 -0.7616  0.2666
13237SOL    HW243117   6.179   8.292   1.824  0.3044  2.4498 -1.3878
13238SOL     OW43118   0.138   4.815  10.937 -0.0427 -0.3566  0.5564
13238SOL    HW143119   0.200   4.769  10.995  0.6029  0.1921  0.3070
13238SOL    HW243120   0.153   4.908  10.954 -0.8745 -0.2231  0.5630
13239SOL     OW43121   5.514  10.570   8.882 -0.6011  0.1926  0.1391
13239SOL    HW143122   5.575  10.541   8.951  1.0827  0.1532 -1.3242
13239SOL    HW243123   5.444  10.505   8.883 -0.4620  0.0371  1.6162
13240SOL     OW43124   7.731  10.449   8.425  0.1266 -0.1048  0.3513
13240SOL    HW143125   7.699  10.462   8.515  0.4723 -0.1677  0.4833
13240SOL    HW243126   7.807  10.391   8.435  0.3244  0.1026  0.0438
13241SOL     OW43127   8.920   1.013   5.842  0.2309 -0.1812  0.6215
13241SOL    HW143128   8.875   1.089   5.878  1.8949  0.9813  0.3279
13241SOL    HW243129   9.002   1.009   5.891  1.5083  0.0328 -1.4365
13242SOL     OW43130   8.873   9.139   3.518 -0.1166 -0.4617  0.1905
13242SOL    HW143131   8.827   9.093   3.588  0.3058 -1.9328 -0.4903
13242SOL    HW243132   8.837   9.102   3.437  0.9548 -0.3014 -0.3607
13243SOL     OW43133   4.775   8.316   1.601  0.0824  0.1585 -0.1400
13243SOL    HW143134   4.801   8.399   1.642  0.9186 -0.4144  0.4984
13243SOL    HW243135   4.690   8.335   1.562  1.0028  1.8047 -1.4277
13244SOL     OW43136   3.522   4.196   6.673  0.4161 -0.5761  0.2012
13244SOL    HW143137   3.542   4.143   6.750  0.5123  0.2482  0.7501
13244SOL    HW243138   3.438   4.236   6.693  0.6512 -0.0153  0.0592
13245SOL     OW43139   5.758   6.520   5.550 -0.2681 -0.6993 -0.1329
13245SOL    HW143140   5.837   6.504   5.601  0.2108  0.0109 -0.6393
13245SOL    HW243141   5.791   6.549   5.465 -1.0884  0.9248  0.0936
13246SOL     OW43142   1.397   0.969   5.698 -0.4212  0.0518  0.1093
13246SOL    HW143143   1.479   1.008   5.728  0.3901 -0.4511 -1.3611
13246SOL    HW243144   1.423   0.917   5.621 -1.9383 -1.0082  0.2957
13247SOL     OW43145   7.491   6.281   1.784 -0.3561  0.0859 -0.3361
13247SOL    HW143146   7.466   6.325   1.703 -0.2730 -2.2269 -1.6642
13247SOL    HW243147   7.411   6.238   1.813 -0.1346  0.0917  0.2852
13248SOL     OW43148   9.837   1.289   6.513 -0.2915  0.2149  0.3446
13248SOL    HW143149   9.746   1.275   6.538 -0.1418 -0.7343  0.3947
13248SOL    HW243150   9.834   1.314   6.420 -0.4456 -2.7472 -0.5278
13249SOL     OW43151   4.932   8.308   5.824  0.0149 -0.2482 -0.5366
13249SOL    HW143152   4.954   8.380   5.765  2.2237  0.0709  0.6091
13249SOL    HW243153   4.976   8.331   5.906  2.2317 -3.7462 -0.6564
13250SOL     OW43154   7.532   8.497  10.420  0.4359  0.2898  0.0803
13250SOL    HW143155   7.602   8.494  10.485  1.4005  3.4603 -0.7363
13250SOL    HW243156   7.451   8.502  10.471  0.9048 -1.2690  1.0086
13251SOL     OW43157   3.560   4.339   1.222 -0.3982 -0.2700  0.2301
13251SOL    HW143158   3.587   4.387   1.143  0.2511 -2.0322 -0.6387
13251SOL    HW243159   3.547   4.249   1.192  1.5001 -1.3441  2.4737
13252SOL     OW43160  10.504   5.841   6.950  1.0050 -0.1572 -0.1874
13252SOL    HW143161  10.450   5.774   6.991  1.4103  0.2321  0.9907
13252SOL    HW243162  10.540   5.798   6.872 -1.3457 -0.2876 -1.2709
13253SOL     OW43163   4.992   2.397   7.025  0.7284 -0.2664 -0.2918
13253SOL    HW143164   4.923   2.360   7.080 -0.3661 -0.2909 -1.6464
13253SOL    HW243165   5.011   2.329   6.961 -1.2639  1.4031 -2.7802
13254SOL     OW43166   9.433   1.963   5.705  0.2450 -0.0258  0.0966
13254SOL    HW143167   9.423   1.930   5.616 -1.9247 -0.9764  0.6565
13254SOL    HW243168   9.348   2.000   5.727  0.0424 -1.7575  2.5182
13255SOL     OW43169   8.168   6.588   2.963  0.3567  0.5064 -0.3412
13255SOL    HW143170   8.169   6.524   2.892  0.1518 -1.2612  1.2089
13255SOL    HW243171   8.086   6.636   2.951 -1.1638 -1.8243  0.4529
13256SOL     OW43172   4.611   0.460   3.720 -0.3052 -0.1722 -0.0123
13256SOL    HW143173   4.701   0.490   3.712 -0.5240  0.2965 -0.7313
13256SOL    HW243174   4.611   0.405   3.799  0.4131  0.5288  0.4809
13257SOL     OW43175   1.475   1.639   9.321  0.1889 -0.1909  0.1396
13257SOL    HW143176   1.517   1.722   9.300  0.0879 -0.4875 -1.2827
13257SOL    HW243177   1.457   1.645   9.415 -0.7398  1.8152 -0.1232
13258SOL     OW43178   2.157   8.386   3.983 -0.0894  0.2483  0.2475
13258SOL    HW143179   2.075   8.342   4.005 -0.4586  0.3132 -0.9146
13258SOL    HW243180   2.196   8.332   3.914  0.9044  0.1609  0.8682
13259SOL     OW43181   7.666   5.517   1.625 -0.2604 -0.1580 -0.3845
13259SOL    HW143182   7.698   5.539   1.538 -0.6550 -0.1766 -0.5338
13259SOL    HW243183   7.623   5.432   1.614  0.5171 -0.6145  0.0192
13260SOL     OW43184   3.619   1.148   4.038 -0.4626  0.0319 -0.2486
13260SOL    HW143185   3.671   1.192   4.105 -0.5657  0.6980 -0.6043
13260SOL    HW243186   3.542   1.116   4.085 -0.3954  0.2417  0.0064
13261SOL     OW43187   1.326   2.885   4.966 -0.6063 -0.1758 -0.3842
13261SOL    HW143188   1.272   2.884   4.887 -3.1370  0.6430  1.2556
13261SOL    HW243189   1.285   2.820   5.023  0.9380 -0.4603  0.4134
13262SOL     OW43190   9.499   8.190   1.891  0.0737  0.4226  0.2503
13262SOL    HW143191   9.486   8.114   1.947 -1.5514  0.2906 -0.3045
13262SOL    HW243192   9.427   8.249   1.912  0.8929  1.4896  0.1331
13263SOL     OW43193   4.742   2.710   4.527  0.1042 -0.3021 -0.0664
13263SOL    HW143194   4.774   2.719   4.616  0.6876  0.7178 -0.3611
13263SOL    HW243195   4.672   2.645   4.532 -1.2638  1.2631  1.4916
13264SOL     OW43196   9.719   4.204   0.735  0.1642  0.2635  0.5312
13264SOL    HW143197   9.710   4.298   0.721 -0.5301 -0.0580 -1.2983
13264SOL    HW243198   9.758   4.171   0.654 -0.9961 -1.2411  0.5675
13265SOL     OW43199   4.451   2.057  10.121  0.0592 -0.2046 -0.4662
13265SOL    HW143200   4.442   2.065  10.216  0.9643  0.3462 -0.4271
13265SOL    HW243201   4.419   2.141  10.086 -0.0482 -0.3161 -0.6425
13266SOL     OW43202   9.084   1.716   1.473  0.1183  0.0403  0.1729
13266SOL    HW143203   8.994   1.750   1.470  0.7345  1.6776 -0.4401
13266SOL    HW243204   9.118   1.746   1.557  0.0092 -0.8325  0.5350
13267SOL     OW43205   2.339   8.189   5.886 -0.0180 -0.1648 -0.0149
13267SOL    HW143206   2.319   8.149   5.801  0.9223 -2.7744  0.9486
13267SOL    HW243207   2.430   8.166   5.903  0.1074  1.1871  1.2714
13268SOL     OW43208   3.312  10.358   5.029  0.4348  0.3003  0.1842
13268SOL    HW143209   3.281  10.314   5.108 -0.5725  1.0645  0.2155
13268SOL    HW243210   3.392  10.311   5.006 -1.6256 -2.8774 -0.8771
13269SOL     OW43211   4.853   3.400   3.766  0.1280 -0.5450  0.9395
13269SOL    HW143212   4.911   3.357   3.829 -0.9443 -0.1924  2.1892
13269SOL    HW243213   4.766   3.367   3.787 -0.4550  0.7999  0.6890
13270SOL     OW43214   2.896   9.629   0.060 -0.2516  0.1149 -0.6516
13270SOL    HW143215   2.883   9.718   0.030 -2.3754  0.2201  0.5086
13270SOL    HW243216   2.984   9.628   0.097 -1.4908  2.7140  2.6046
13271SOL     OW43217   1.411   5.454   0.685 -0.2440  0.3385  0.0342
13271SOL    HW143218   1.409   5.399   0.607 -1.3388  0.6479 -0.1615
13271SOL    HW243219   1.412   5.392   0.758 -1.7578  0.0438 -0.1779
13272SOL     OW43220   0.799   4.701   0.268 -0.2320  0.5780  0.2548
13272SOL    HW143221   0.867   4.703   0.335 -0.1008 -1.4012  0.2084
13272SOL    HW243222   0.835   4.752   0.195  1.8729 -1.6800 -0.3632
13273SOL     OW43223  10.432   2.956  10.235  0.9449 -0.4615  0.2406
13273SOL    HW143224  10.407   2.864  10.223  1.0938 -0.4657 -0.0367
13273SOL    HW243225  10.371   3.006  10.181  1.0278 -0.4145  0.1911
13274SOL     OW43226   8.900   3.656  10.941  0.1039 -0.0999  0.1254
13274SOL    HW143227   8.881   3.617  11.027  2.8345  0.1772  0.8968
13274SOL    HW243228   8.958   3.593  10.898  0.2517  0.6254 -0.7601
13275SOL     OW43229   5.978   9.596   4.311  0.1498  0.2435 -1.1475
13275SOL    HW143230   5.938   9.623   4.229 -1.4105  2.4136  0.2603
13275SOL    HW243231   5.974   9.674   4.366  1.0344 -1.1972  1.0301
13276SOL     OW43232   5.473   6.623   9.101  0.7444  0.4430 -0.2731
13276SOL    HW143233   5.475   6.705   9.150  0.6354 -0.1350  0.7224
13276SOL    HW243234   5.510   6.645   9.016 -0.7903  1.9010 -0.5950
13277SOL     OW43235   5.275   2.692   7.094  0.1165  0.0049  0.1348
13277SOL    HW143236   5.274   2.666   7.002  0.1280  0.2146  0.0730
13277SOL    HW243237   5.364   2.724   7.109  0.4730 -1.1793  0.5522
13278SOL     OW43238  10.318  10.938   7.734  0.9619  0.2789  0.1613
13278SOL    HW143239  10.296  10.870   7.671  0.1645  1.7876 -1.2296
13278SOL    HW243240  10.363  11.005   7.681  3.2020  0.1065  1.7877
13279SOL     OW43241   2.892  10.581   1.533 -0.1852 -0.4657  0.1898
13279SOL    HW143242   2.875  10.671   1.505 -0.2096 -0.8577 -1.0919
13279SOL    HW243243   2.822  10.530   1.491 -0.9354 -0.9141  1.9402
13280SOL     OW43244   6.925   6.164   6.791  0.6589 -0.5614  0.3798
13280SOL    HW143245   6.944   6.070   6.789  0.9410 -0.4914 -1.2521
13280SOL    HW243246   6.882   6.178   6.875 -3.4876 -2.9876 -1.1489
13281SOL     OW43247  10.842   4.557   5.005  0.3744 -0.5655  0.5579
13281SOL    HW143248  10.771   4.585   5.063  1.0504  0.7427  0.7666
13281SOL    HW243249  10.899   4.634   4.998  0.5697 -0.8699 -1.4323
13282SOL     OW43250   3.596   9.304   4.652  0.0512  0.4569 -0.6411
13282SOL    HW143251   3.600   9.279   4.744  0.0937  1.5522 -0.3343
13282SOL    HW243252   3.521   9.257   4.617  0.0049  0.0788 -0.0330
13283SOL     OW43253   5.429   7.884  10.810  0.4771 -0.3216  0.1044
13283SOL    HW143254   5.458   7.829  10.736  1.6475  0.3700  0.0406
13283SOL    HW243255   5.412   7.970  10.770  0.1440 -0.2156  0.4752
13284SOL     OW43256   4.254   6.190   4.816 -1.0848  0.0830 -0.1709
13284SOL    HW143257   4.325   6.198   4.879 -0.6176 -0.0615 -0.6733
13284SOL    HW243258   4.234   6.096   4.814  0.8910 -0.3348 -2.3891
13285SOL     OW43259   4.475   3.795   6.600 -0.0847  0.2072 -0.4069
13285SOL    HW143260   4.485   3.759   6.688 -1.1407 -1.7864 -1.0870
13285SOL    HW243261   4.385   3.830   6.599  0.4791  1.6831 -0.1774
13286SOL     OW43262   5.294   8.243   3.940 -0.3647  0.1218 -0.4198
13286SOL    HW143263   5.200   8.240   3.922 -0.2891 -0.0289 -0.8095
13286SOL    HW243264   5.319   8.151   3.944 -0.1650  0.1660 -0.6869
13287SOL     OW43265   6.625   7.467   9.546 -0.0060 -0.2063 -0.0822
13287SOL    HW143266   6.663   7.445   9.632 -0.6249 -0.3450  0.1555
13287SOL    HW243267   6.579   7.388   9.519  1.6656 -0.7718 -1.3641
13288SOL     OW43268   2.525   2.500   0.765  0.1923  0.4538  0.0027
13288SOL    HW143269   2.511   2.424   0.821 -0.9295  0.1283 -0.6846
13288SOL    HW243270   2.606   2.480   0.718  0.1487 -0.1275  0.1631
13289SOL     OW43271   2.449   2.399   6.756  0.3346  0.0644  0.5528
13289SOL    HW143272   2.361   2.399   6.719  0.3613 -0.7533  0.4815
13289SOL    HW243273   2.444   2.458   6.831 -0.4317 -0.4575  0.9109
13290SOL     OW43274   4.831   9.657   0.973 -0.3519 -0.1651  0.3359
13290SOL    HW143275   4.742   9.649   0.939 -1.6391  1.6676  3.0734
13290SOL    HW243276   4.880   9.587   0.929 -2.8343 -0.4523 -2.1006
13291SOL     OW43277   7.802   4.629   1.250  0.4236  0.0474  0.4715
13291SOL    HW143278   7.722   4.600   1.207 -0.0666  1.2215  0.5751
13291SOL    HW243279   7.847   4.683   1.185  0.1969  0.9572  1.0559
13292SOL     OW43280  10.900   9.485   9.453  0.4747  0.6489  0.2333
13292SOL    HW143281  10.819   9.440   9.433  0.3298  0.8982  0.2497
13292SOL    HW243282  10.913   9.544   9.378  1.1729 -0.1264 -0.2601
13293SOL     OW43283   6.142   7.844   7.597  0.2208 -0.4890 -0.6291
13293SOL    HW143284   6.094   7.858   7.679 -0.2616  0.1335 -1.0089
13293SOL    HW243285   6.092   7.893   7.532  2.8145  2.4216 -0.5711
13294SOL     OW43286   6.033   4.953   6.220 -0.0795  0.2764  0.2485
13294SOL    HW143287   5.957   4.949   6.162 -0.6412  1.0211  0.9275
13294SOL    HW243288   5.998   4.929   6.306  0.2844  1.4184  0.7228
13295SOL     OW43289   6.319   9.558   8.008 -0.6020 -0.5503 -0.0570
13295SOL    HW143290   6.318   9.636   7.951 -1.1287 -0.6987 -0.2573
13295SOL    HW243291   6.395   9.571   8.065 -0.3573 -0.1587 -0.4655
13296SOL     OW43292   1.131   8.248  10.759  0.3786 -0.5331 -0.0190
13296SOL    HW143293   1.094   8.200  10.686  1.4073 -0.6666 -0.4627
13296SOL    HW243294   1.143   8.182  10.828 -0.0056 -0.5324  0.0473
13297SOL     OW43295  10.805  10.719   1.903 -0.0202 -0.2295  0.2357
13297SOL    HW143296  10.765  10.803   1.925 -0.0116  0.0211 -0.6826
13297SOL    HW243297  10.891  10.742   1.868  0.9285 -0.7554  2.1150
13298SOL     OW43298   5.861   2.583   5.692 -0.1512 -0.0392 -0.3422
13298SOL    HW143299   5.790   2.556   5.633 -0.4946 -0.7028  0.3633
13298SOL    HW243300   5.821   2.650   5.747 -0.4279 -0.8602  0.4756
13299SOL     OW43301   3.308  10.541  10.015  0.7879  0.3212  0.5404
13299SOL    HW143302   3.291  10.602  10.087 -2.3720 -1.0749  1.0808
13299SOL    HW243303   3.244  10.565   9.948  2.5221  0.4518 -1.1082
13300SOL     OW43304   8.561   6.086   8.757 -0.3526 -0.0031  0.8119
13300SOL    HW143305   8.640   6.133   8.731 -0.0468 -0.7227  0.4224
13300SOL    HW243306   8.570   6.000   8.715 -1.4037 -0.0378  0.6464
13301SOL     OW43307  10.603   9.339   5.466 -0.8100  0.5830  0.0848
13301SOL    HW143308  10.571   9.249   5.477  0.1091  0.5176  2.3908
13301SOL    HW243309  10.523   9.391   5.455 -1.4837 -0.1960  1.1346
13302SOL     OW43310   1.473   2.654   7.682 -0.1426  0.7577 -0.1899
13302SOL    HW143311   1.396   2.640   7.738 -0.6335  0.3169 -0.9728
13302SOL    HW243312   1.528   2.714   7.732  0.1147 -0.8038  1.4313
13303SOL     OW43313   1.230   9.738   5.770  0.5902 -0.3586 -0.1739
13303SOL    HW143314   1.210   9.808   5.832 -0.7639  0.8702 -1.9536
13303SOL    HW243315   1.196   9.659   5.813 -0.9296  0.5599  0.3751
13304SOL     OW43316   5.589   0.254  10.115  0.1723  0.2947 -0.1634
13304SOL    HW143317   5.566   0.283  10.026 -0.3661  0.8206  0.1397
13304SOL    HW243318   5.680   0.227  10.109  0.2771  0.7723 -0.7713
13305SOL     OW43319   4.271   6.387   3.161 -0.3024 -0.4784 -0.0469
13305SOL    HW143320   4.213   6.326   3.115 -0.4836 -0.2761 -0.0872
13305SOL    HW243321   4.222   6.469   3.165 -0.1177 -0.3752  0.1341
13306SOL     OW43322   4.123   6.021   9.029 -0.2442  0.2240  0.2536
13306SOL    HW143323   4.093   5.933   9.051  0.7174 -0.4021 -0.8975
13306SOL    HW243324   4.174   6.048   9.106  0.5862 -0.7695  0.0699
13307SOL     OW43325   1.928   9.144   9.650  0.6558  1.0268  0.2910
13307SOL    HW143326   1.988   9.173   9.719  1.6731  0.9348 -0.5464
13307SOL    HW243327   1.961   9.059   9.623 -0.5354  0.4525  0.6107
13308SOL     OW43328   6.549   4.287   9.595 -0.1144  0.0674  0.2345
13308SOL    HW143329   6.579   4.348   9.662 -0.4216  3.1537 -2.3214
13308SOL    HW243330   6.456   4.273   9.615 -0.1668  0.8448  0.5370
13309SOL     OW43331   0.385   7.069   8.353  0.2017 -0.4960 -0.5350
13309SOL    HW143332   0.353   7.140   8.409  1.2776  0.2052 -0.8061
13309SOL    HW243333   0.353   7.090   8.266  2.1582  0.6937 -0.9797
13310SOL     OW43334  10.496   4.684   8.034 -0.5330 -0.1701 -0.3947
13310SOL    HW143335  10.553   4.648   7.965 -1.9369  0.4676 -1.9047
13310SOL    HW243336  10.430   4.735   7.987 -0.6165  1.5577  1.5196
13311SOL     OW43337   8.071   0.191   6.588  0.1037  0.8781 -0.1797
13311SOL    HW143338   8.017   0.136   6.645  0.7524  2.2168  1.7614
13311SOL    HW243339   8.010   0.257   6.554 -0.0669  0.7381 -0.1465
13312SOL     OW43340   3.313   6.090   0.394 -0.1053  0.1656 -0.5408
13312SOL    HW143341   3.378   6.146   0.352 -0.8484  0.5728 -1.1442
13312SOL    HW243342   3.358   6.055   0.471  0.6245  0.9393 -0.6132
13313SOL     OW43343   8.231   0.942   7.058  0.2649 -0.1043  0.5344
13313SOL    HW143344   8.253   0.865   7.006 -2.1435 -0.3946 -0.1433
13313SOL    HW243345   8.199   0.907   7.141  0.9286  0.2331  0.9327
13314SOL     OW43346   2.434   4.453   3.830 -0.1572 -0.4488  0.8497
13314SOL    HW143347   2.475   4.394   3.768 -0.5016 -0.7241  0.8782
13314SOL    HW243348   2.475   4.432   3.914 -1.6593 -2.0243  1.2261
13315SOL     OW43349   6.419   4.231   3.989  0.7454 -0.2260 -0.1067
13315SOL    HW143350   6.486   4.195   3.930  1.6654  0.5681  0.4224
13315SOL    HW243351   6.354   4.270   3.930  3.5843  4.0233 -0.6816
13316SOL     OW43352   1.357   8.288   7.907  0.0076  0.2050 -0.1670
13316SOL    HW143353   1.356   8.380   7.932  0.8450 -0.0287  0.7372
13316SOL    HW243354   1.436   8.253   7.948 -0.3363 -0.9261 -0.4660
13317SOL     OW43355   3.114   7.136   7.718 -0.1193  0.1622 -0.3976
13317SOL    HW143356   3.147   7.115   7.630  0.6815  0.0633 -0.0785
13317SOL    HW243357   3.166   7.211   7.745  2.5388 -2.3373  1.6602
13318SOL     OW43358   2.605   2.015  10.238  0.0870  0.2391 -0.2331
13318SOL    HW143359   2.689   2.059  10.229 -0.9540  2.5722  1.0311
13318SOL    HW243360   2.555   2.070  10.299 -0.9014 -3.2260  2.2670
13319SOL     OW43361   5.604   7.670   5.655 -0.2865  0.5630 -0.2566
13319SOL    HW143362   5.539   7.695   5.720 -2.4595  0.2022 -2.2139
13319SOL    HW243363   5.575   7.584   5.624  0.6754  0.7343 -1.6920
13320SOL     OW43364   8.418  10.138   3.976  0.0417 -0.1569 -0.4053
13320SOL    HW143365   8.494  10.159   3.922  0.6138 -0.4383  0.2883
13320SOL    HW243366   8.417  10.205   4.044  1.8251 -2.2555  1.7586
13321SOL     OW43367   6.859   8.342   5.939  0.0321  0.0235 -0.1597
13321SOL    HW143368   6.868   8.419   5.882 -0.7800 -0.7381 -1.3473
13321SOL    HW243369   6.841   8.379   6.026  3.2489  1.2468  0.0396
13322SOL     OW43370   5.642  10.174   0.676  0.4865  0.1784  0.3963
13322SOL    HW143371   5.640  10.090   0.722 -0.1959  0.5516  1.0602
13322SOL    HW243372   5.552  10.188   0.647  0.3170  1.3024  1.4348
13323SOL     OW43373   9.139   7.486   8.592  0.2227  0.0337  0.4407
13323SOL    HW143374   9.085   7.432   8.534 -1.1079  0.9141  0.8466
13323SOL    HW243375   9.203   7.527   8.533 -1.4387  1.3253 -0.5152
13324SOL     OW43376   1.991   5.871   5.501 -0.0514 -0.6343  0.4802
13324SOL    HW143377   2.080   5.895   5.528  0.1598  0.2185 -0.9105
13324SOL    HW243378   1.938   5.947   5.522 -0.1338 -0.4917 -0.2281
13325SOL     OW43379   2.220   4.245   1.389 -0.5702 -0.4474  0.4440
13325SOL    HW143380   2.275   4.309   1.435 -0.4574 -0.0157 -0.2959
13325SOL    HW243381   2.131   4.279   1.396 -0.4955 -0.1478 -0.0517
13326SOL     OW43382   6.755   9.780   6.286 -0.4757 -0.2735  0.3606
13326SOL    HW143383   6.729   9.835   6.360 -0.9750  1.1764 -0.8632
13326SOL    HW243384   6.672   9.750   6.249 -0.1967 -3.7117  2.3184
13327SOL     OW43385   0.566   6.138   6.845 -0.1054 -0.3760 -0.0724
13327SOL    HW143386   0.538   6.105   6.759  1.1424 -0.8058 -0.3158
13327SOL    HW243387   0.487   6.179   6.881 -0.8082 -0.7518 -1.1523
13328SOL     OW43388   0.693   2.356   2.438  0.0268 -0.2190  0.4707
13328SOL    HW143389   0.661   2.389   2.354 -0.6260 -1.0913  0.3700
13328SOL    HW243390   0.740   2.276   2.416 -0.7132 -0.8093  1.0032
13329SOL     OW43391  10.802   7.065   6.121 -0.7977 -0.1053  0.6283
13329SOL    HW143392  10.712   7.067   6.090 -0.6334 -1.5383 -0.0015
13329SOL    HW243393  10.800   7.012   6.200 -0.6717  0.7532  1.2154
13330SOL     OW43394   3.483   0.792   5.518  0.2050  0.0254 -0.5385
13330SOL    HW143395   3.399   0.792   5.564 -0.9820  0.2463 -2.6539
13330SOL    HW243396   3.472   0.729   5.447  3.0504 -2.6131  1.2373
13331SOL     OW43397   4.760   2.011   2.209 -0.3179  0.3183 -0.2353
13331SOL    HW143398   4.809   2.093   2.210  0.3365 -0.0508 -1.1215
13331SOL    HW243399   4.742   1.993   2.301 -1.0281  1.7834 -0.0675
13332SOL     OW43400   2.338   6.251   8.588  0.3271 -0.2435  0.1228
13332SOL    HW143401   2.404   6.319   8.598 -0.4759  0.2320  2.3094
13332SOL    HW243402   2.255   6.298   8.580 -0.0729 -0.9235  0.1618
13333SOL     OW43403   0.812   3.151   6.659  1.0453 -0.3262 -0.0607
13333SOL    HW143404   0.878   3.186   6.599  0.8427  0.3973  0.1381
13333SOL    HW243405   0.769   3.081   6.610 -1.2838  2.3122 -1.9625
13334SOL     OW43406   3.145   2.316   9.714  0.6017 -0.3145  0.2886
13334SOL    HW143407   3.133   2.221   9.728  0.8197 -0.3571  0.1807
13334SOL    HW243408   3.222   2.338   9.767 -1.1211  0.3423  2.6147
13335SOL     OW43409   1.622   6.028   6.964 -0.1894 -0.7103  0.2010
13335SOL    HW143410   1.534   6.007   6.933 -0.1982  1.0494 -1.0612
13335SOL    HW243411   1.669   5.944   6.962 -1.8339 -1.6617  0.9135
13336SOL     OW43412   9.723   0.911   1.539  0.0185 -0.1227 -0.0338
13336SOL    HW143413   9.736   0.819   1.562 -0.8095 -0.0775  0.6117
13336SOL    HW243414   9.780   0.924   1.463 -0.2032 -1.2878 -0.4180
13337SOL     OW43415   2.963   9.370  10.908  0.4206 -0.2895 -0.9737
13337SOL    HW143416   2.930   9.436  10.969  0.5133 -0.4947 -0.7016
13337SOL    HW243417   3.038   9.332  10.952  0.1357 -0.8447 -0.9685
13338SOL     OW43418   3.172   8.349   2.931 -0.3712 -0.5010 -0.0802
13338SOL    HW143419   3.208   8.274   2.884 -0.9092 -2.2533  2.2248
13338SOL    HW243420   3.084   8.321   2.957 -0.8916  1.2484  0.0824
13339SOL     OW43421   5.372   9.454   3.132  0.4072 -0.1429 -0.0506
13339SOL    HW143422   5.399   9.457   3.224 -0.5722 -1.6837  0.3047
13339SOL    HW243423   5.439   9.400   3.089 -1.1480 -2.5916  0.5142
13340SOL     OW43424   0.209   6.992   3.093  0.1251 -0.1605  0.2249
13340SOL    HW143425   0.114   7.000   3.093 -0.0743 -2.3199 -0.2635
13340SOL    HW243426   0.226   6.904   3.058  2.2912  0.1657  0.3911
13341SOL     OW43427   9.157   0.182   0.100  0.1468  0.4253  0.0176
13341SOL    HW143428   9.156   0.087   0.100 -1.4424  0.4206 -0.6685
13341SOL    HW243429   9.248   0.206   0.119  0.4849 -1.2122  0.4918
13342SOL     OW43430   3.398   5.343   2.937 -0.3801 -0.0162  0.3050
13342SOL    HW143431   3.474   5.375   2.987 -0.2060 -1.2220  0.8250
13342SOL    HW243432   3.334   5.414   2.944  0.2910  0.5576  0.7785
13343SOL     OW43433   7.030   3.776   1.682 -0.6010  0.6388  0.0954
13343SOL    HW143434   7.046   3.697   1.734  1.6859  0.4635 -0.8141
13343SOL    HW243435   7.040   3.848   1.743  0.7765  0.3743  0.1868
13344SOL     OW43436   8.040   3.034   8.217  0.4156  0.2092 -0.3837
13344SOL    HW143437   7.957   3.019   8.262  0.2401  3.1333  0.3640
13344SOL    HW243438   8.107   3.013   8.282  0.2560 -0.5505 -0.4568
13345SOL     OW43439   3.017   6.471   5.278  0.3118  0.0672 -0.2109
13345SOL    HW143440   2.999   6.406   5.209 -0.1795  0.4699 -0.4623
13345SOL    HW243441   3.108   6.497   5.262 -0.3169  1.4300 -1.7927
13346SOL     OW43442   7.419   5.919  10.817 -0.5306  0.6930  0.4457
13346SOL    HW143443   7.427   5.878  10.903 -2.7220  1.0836  0.8635
13346SOL    HW243444   7.443   6.011  10.832  0.8306  0.3806  0.2543
13347SOL     OW43445   2.900   1.128   1.988  0.7543 -0.3866 -0.1091
13347SOL    HW143446   2.834   1.182   1.945  0.7782 -1.5738 -1.6753
13347SOL    HW243447   2.964   1.190   2.023  0.9094  0.5786 -2.0811
13348SOL     OW43448  10.663   5.269   0.272  0.1570 -0.4315  0.0800
13348SOL    HW143449  10.688   5.185   0.309  0.3303 -0.8587 -0.9966
13348SOL    HW243450  10.568   5.264   0.263  0.2003 -0.6438 -0.2873
13349SOL     OW43451   1.112   5.264   0.473  0.4307 -0.4719 -0.4699
13349SOL    HW143452   1.104   5.358   0.489 -0.3219 -0.7449  0.8257
13349SOL    HW243453   1.077   5.252   0.384 -1.0623  0.2304  0.0164
13350SOL     OW43454   8.771   5.764   9.690 -0.0546 -0.3238 -0.2760
13350SOL    HW143455   8.845   5.788   9.745 -0.9950  0.2184  0.7787
13350SOL    HW243456   8.700   5.822   9.717 -1.3309 -1.8797 -0.1640
13351SOL     OW43457   5.654   8.415   4.227 -0.7715 -0.1070 -0.3371
13351SOL    HW143458   5.588   8.391   4.162 -1.6281 -1.1704  0.8825
13351SOL    HW243459   5.612   8.481   4.281 -0.2879  0.3203 -0.4797
13352SOL     OW43460   0.611   5.582   0.691  0.0987 -0.1763 -0.2179
13352SOL    HW143461   0.614   5.499   0.737  1.2863  0.4555  0.8773
13352SOL    HW243462   0.645   5.646   0.754 -0.9165  1.1571 -0.9962
13353SOL     OW43463   4.897   8.632   6.753 -0.0921  1.2412  0.3104
13353SOL    HW143464   4.863   8.656   6.839  3.8291 -0.8082  2.5523
13353SOL    HW243465   4.974   8.687   6.741 -0.9912  2.0044 -2.2681
13354SOL     OW43466   4.228   1.531   8.562 -0.1011  0.4628 -0.1125
13354SOL    HW143467   4.230   1.570   8.475  0.1212 -0.8043 -0.6781
13354SOL    HW243468   4.186   1.598   8.617 -0.7286  1.0512 -1.2855
13355SOL     OW43469   7.479   0.798   6.621 -0.0070  0.1023 -0.6948
13355SOL    HW143470   7.523   0.881   6.600 -1.1315  0.8232 -0.2921
13355SOL    HW243471   7.519   0.734   6.563  1.0299  0.8971 -0.8678
13356SOL     OW43472   0.294   2.430   5.762  0.6272 -0.4288 -0.2888
13356SOL    HW143473   0.235   2.431   5.686 -0.3454  0.3552  0.4575
13356SOL    HW243474   0.246   2.478   5.830  1.8558 -0.3616  0.5455
13357SOL     OW43475  10.202   6.529   8.125  0.1656 -0.3783  0.4953
13357SOL    HW143476  10.262   6.603   8.136 -1.6413  1.2837 -0.6991
13357SOL    HW243477  10.121   6.556   8.168 -1.3562 -0.6053 -2.1043
13358SOL     OW43478   9.197   6.586   9.556  0.2576 -0.0871 -0.1390
13358SOL    HW143479   9.229   6.512   9.505  1.1516  0.4946 -0.4409
13358SOL    HW243480   9.203   6.557   9.647  1.0047 -0.2388 -0.2300
13359SOL     OW43481   4.468   5.270   6.733 -0.3845  0.2449 -0.2007
13359SOL    HW143482   4.526   5.308   6.667  1.4633 -1.4497  0.3854
13359SOL    HW243483   4.420   5.201   6.686  2.3223 -2.2686  0.5798
13360SOL     OW43484   6.511   5.658   8.522 -0.0837  0.4308  0.0184
13360SOL    HW143485   6.447   5.724   8.498 -2.2825 -1.3796  0.7698
13360SOL    HW243486   6.533   5.615   8.440 -0.2616  0.6856 -0.1614
13361SOL     OW43487  10.891   5.641   8.558  0.0943 -0.1049  0.2242
13361SOL    HW143488  10.806   5.672   8.591 -0.5253  0.4072 -1.7914
13361SOL    HW243489  10.955   5.683   8.616 -1.0487 -1.9215  2.9266
13362SOL     OW43490   5.259   2.417   2.165 -0.1445  0.3124  0.0964
13362SOL    HW143491   5.293   2.328   2.162  1.1307  0.7506  1.1709
13362SOL    HW243492   5.257   2.445   2.073  0.4269 -0.4459 -0.1508
13363SOL     OW43493  10.446   2.453   5.868 -0.3065 -0.0146  0.0975
13363SOL    HW143494  10.461   2.429   5.959 -0.7787 -0.0826  0.1544
13363SOL    HW243495  10.530   2.490   5.839  0.2377 -1.1635  0.1884
13364SOL     OW43496   5.838   8.241   4.124  0.0089 -0.2027  0.2289
13364SOL    HW143497   5.780   8.277   4.191 -0.4447 -1.4061  0.5010
13364SOL    HW243498   5.779   8.192   4.066  0.2335  1.7503 -1.7123
13365SOL     OW43499   5.323   1.077   5.954 -0.1718 -0.8599  0.9682
13365SOL    HW143500   5.323   1.013   5.883  1.2820 -0.5977  0.7240
13365SOL    HW243501   5.402   1.129   5.941 -1.4505  1.1801  0.9962
13366SOL     OW43502   7.064  10.270  10.609 -0.1987 -0.0145  0.0391
13366SOL    HW143503   7.118  10.266  10.529  1.1654  1.4135  0.8711
13366SOL    HW243504   6.994  10.206  10.593  1.6354 -1.8014 -1.1384
13367SOL     OW43505   4.984   0.908   5.958 -0.9056 -0.2763  0.1070
13367SOL    HW143506   5.038   0.947   6.026  0.2417  0.3360 -1.1218
13367SOL    HW243507   4.987   0.971   5.886 -0.2315 -1.9168 -1.3537
13368SOL     OW43508   4.797   5.565  10.776 -0.3025 -0.3896 -0.1347
13368SOL    HW143509   4.716   5.552  10.824 -0.7142  0.9657 -0.4653
13368SOL    HW243510   4.842   5.636  10.822 -0.4154  0.4917 -1.3613
13369SOL     OW43511  10.908   2.142   8.220  0.0448  0.1621  0.1795
13369SOL    HW143512  10.941   2.062   8.178 -3.6312 -1.7048  0.6057
13369SOL    HW243513  10.900   2.118   8.313  1.7668  2.0621  0.8595
13370SOL     OW43514   8.299   4.411   8.333 -0.4944  0.0993  0.2465
13370SOL    HW143515   8.250   4.458   8.266  1.0078 -0.7437 -1.5229
13370SOL    HW243516   8.261   4.439   8.416 -2.8708  0.6469 -0.9914
13371SOL     OW43517   7.990   7.801   1.919 -0.0665 -0.0965  0.3261
13371SOL    HW143518   7.895   7.804   1.928 -0.0772  0.0987  0.1518
13371SOL    HW243519   8.007   7.845   1.836  0.2196  0.3655  0.6299
13372SOL     OW43520   5.185   7.238   7.719  0.2553  0.4322  0.3474
13372SOL    HW143521   5.131   7.177   7.668 -0.4215  0.5777  0.8770
13372SOL    HW243522   5.181   7.320   7.670  2.2087 -0.2712 -1.0454
13373SOL     OW43523   5.334   5.461   1.014  0.3688  0.0063  0.6282
13373SOL    HW143524   5.282   5.407   1.075 -0.8000  0.8373  0.3908
13373SOL    HW243525   5.382   5.398   0.961 -1.4030 -0.8286 -0.0135
13374SOL     OW43526   2.197   2.686   7.797  0.0097 -0.3076 -0.0580
13374SOL    HW143527   2.267   2.715   7.855  0.3949 -1.6019  0.1377
13374SOL    HW243528   2.135   2.641   7.854 -1.1633  1.1038 -0.1768
13375SOL     OW43529   4.544   7.243   7.665  0.0623  0.5054  0.2242
13375SOL    HW143530   4.452   7.272   7.660 -0.0733  0.0271 -0.0255
13375SOL    HW243531   4.543   7.153   7.633  0.5010  0.2451  0.9337
13376SOL     OW43532   3.148   6.313   6.009  0.2856  0.1257  0.1837
13376SOL    HW143533   3.179   6.230   6.045 -0.3477  0.5816  1.8059
13376SOL    HW243534   3.224   6.347   5.961  0.1456 -1.9973 -1.6819
13377SOL     OW43535   3.824   9.375   2.552 -0.3541  0.1898  0.2834
13377SOL    HW143536   3.917   9.394   2.537 -0.0217 -0.5969  1.2542
13377SOL    HW243537   3.824   9.289   2.595 -1.5854 -0.1768 -0.4179
13378SOL     OW43538   8.539   4.552   8.777 -0.6263  0.2352  0.7255
13378SOL    HW143539   8.569   4.635   8.742  2.9358 -0.4966  1.8839
13378SOL    HW243540   8.482   4.516   8.709  2.0528  1.1732 -2.0802
13379SOL     OW43541   0.646   0.455   1.442  0.2861 -0.1309  0.6286
13379SOL    HW143542   0.618   0.437   1.352 -1.0102 -0.9146  1.1768
13379SOL    HW243543   0.667   0.548   1.442 -1.7283  0.3449  0.0243
13380SOL     OW43544   7.981   4.673   0.386  0.2983  0.2682 -0.3974
13380SOL    HW143545   8.022   4.643   0.467 -1.7541 -1.5672  0.0186
13380SOL    HW243546   8.043   4.647   0.317  1.1473  0.0934  0.4268
13381SOL     OW43547   1.494   8.762   3.166  0.3080  0.5031 -0.7537
13381SOL    HW143548   1.488   8.737   3.259 -0.4021 -2.4896 -1.5366
13381SOL    HW243549   1.415   8.812   3.150 -1.0960 -1.5360 -0.4247
13382SOL     OW43550  10.040   1.945   9.474 -0.0330 -0.4869 -0.0662
13382SOL    HW143551   9.961   1.995   9.498 -0.7680 -1.2000 -0.9453
13382SOL    HW243552  10.030   1.862   9.521  0.1290 -0.6223 -0.2696
13383SOL     OW43553   9.152   9.792   7.171  0.4133  0.1683  0.3165
13383SOL    HW143554   9.223   9.729   7.181 -0.0501 -0.1145  2.1563
13383SOL    HW243555   9.195   9.877   7.171  0.9684 -0.1012 -1.2780
13384SOL     OW43556   9.144   7.606   1.854  0.2685  0.1180 -0.2592
13384SOL    HW143557   9.130   7.551   1.930  0.8307  1.6192  0.9674
13384SOL    HW243558   9.056   7.618   1.816  0.1950 -1.8619 -0.7480
13385SOL     OW43559   0.899   3.104   3.655 -0.2062  0.4901 -0.5128
13385SOL    HW143560   0.968   3.154   3.698  0.6312  0.4459 -1.7689
13385SOL    HW243561   0.820   3.123   3.706  0.6175  0.9591  0.6231
13386SOL     OW43562   7.220  10.678   9.917 -0.5073  0.0680  0.1842
13386SOL    HW143563   7.280  10.607   9.894  0.1186  1.0030 -1.1893
13386SOL    HW243564   7.186  10.708   9.832  2.7697  4.4551  0.2790
13387SOL     OW43565   2.904   6.339   2.840  0.1710  0.5782  0.4293
13387SOL    HW143566   2.942   6.272   2.898 -1.4273  0.5588  1.4936
13387SOL    HW243567   2.866   6.288   2.768 -0.2989  0.3954  0.8028
13388SOL     OW43568   3.213   6.168   7.917  0.4796  0.1307 -0.0847
13388SOL    HW143569   3.270   6.197   7.846  1.6703  2.0010  1.5933
13388SOL    HW243570   3.125   6.191   7.888  1.0204  1.4832 -0.6802
13389SOL     OW43571  10.515   2.558   8.038 -0.5384  0.2799  0.4285
13389SOL    HW143572  10.465   2.477   8.051  1.5279 -0.9846  0.6702
13389SOL    HW243573  10.466   2.606   7.971 -0.2048 -2.5454 -1.9429
13390SOL     OW43574   1.899   7.464   4.903 -0.0243 -0.0788 -0.4386
13390SOL    HW143575   1.901   7.369   4.914  0.1320 -0.0135  0.1487
13390SOL    HW243576   1.840   7.494   4.973  2.2839  0.5053  1.3407
13391SOL     OW43577  10.799   3.406   3.582  0.5343 -0.2361  0.3459
13391SOL    HW143578  10.703   3.401   3.590  0.5592 -0.0182  0.8384
13391SOL    HW243579  10.816   3.399   3.488  0.0024  0.2426  0.2134
13392SOL     OW43580   6.552   8.304   8.464  0.2543  0.5332  0.5757
13392SOL    HW143581   6.463   8.274   8.481  0.0715  1.2048  0.7952
13392SOL    HW243582   6.546   8.357   8.386  0.8148 -1.1264 -0.6322
13393SOL     OW43583   7.084   6.068   0.836 -0.2913 -0.4551 -0.0490
13393SOL    HW143584   7.043   6.057   0.750 -0.7961 -1.1802  0.2760
13393SOL    HW243585   7.052   6.152   0.868 -1.5628 -1.0192  0.2089
13394SOL     OW43586   5.984   7.680   0.894  0.0067  0.4009  0.1309
13394SOL    HW143587   5.954   7.756   0.843  0.2946  1.2451  1.2091
13394SOL    HW243588   6.077   7.674   0.875 -0.5149 -1.3495 -2.0844
13395SOL     OW43589   0.339   1.874   9.608  0.8228  0.1785  0.3112
13395SOL    HW143590   0.301   1.896   9.523 -0.7495  0.7896  1.1648
13395SOL    HW243591   0.346   1.958   9.654  0.2582 -0.3439  1.3635
13396SOL     OW43592   2.677   7.770   7.941 -0.6557  0.3506  0.1957
13396SOL    HW143593   2.633   7.715   8.005 -0.3732 -0.7266 -0.5207
13396SOL    HW243594   2.718   7.708   7.880  0.1033  1.3495 -0.3196
13397SOL     OW43595   6.271   8.525   0.008  0.1547  0.0033 -0.2488
13397SOL    HW143596   6.349   8.533  -0.046 -0.4820  3.8170 -0.7774
13397SOL    HW243597   6.288   8.582   0.083 -1.3866 -0.5425  0.5299
13398SOL     OW43598   3.776   9.332   0.505  0.2124 -0.1362 -0.0239
13398SOL    HW143599   3.820   9.288   0.577 -0.9407 -1.1691  0.0543
13398SOL    HW243600   3.843   9.388   0.466  1.2524 -0.7636  0.8677
13399SOL     OW43601   3.337   3.942   5.264  0.6816 -0.2184  0.2154
13399SOL    HW143602   3.423   3.909   5.237 -0.7337 -2.2488 -1.9270
13399SOL    HW243603   3.276   3.872   5.241 -1.6806  1.5927  0.8317
13400SOL     OW43604  10.679   8.129   3.256  0.4742 -0.6099  0.2558
13400SOL    HW143605  10.716   8.080   3.182  1.6176 -0.7848  0.9214
13400SOL    HW243606  10.736   8.106   3.330 -1.3488 -1.3542  1.4478
13401SOL     OW43607   9.411   4.313   6.962  0.1207  0.9085 -0.3012
13401SOL    HW143608   9.325   4.290   6.925  1.4472  2.2408 -4.5350
13401SOL    HW243609   9.454   4.228   6.977 -0.9766  0.2948 -0.5452
13402SOL     OW43610   8.087   5.966   1.904 -0.7839  0.1995 -0.2705
13402SOL    HW143611   8.084   5.962   1.809  2.4135 -2.1039 -0.3618
13402SOL    HW243612   8.059   5.878   1.932 -2.9364  1.2415  1.0191
13403SOL     OW43613   9.318   9.180   5.488  0.1341  0.7019  0.0482
13403SOL    HW143614   9.284   9.196   5.576  0.0148  0.2190  0.0935
13403SOL    HW243615   9.255   9.118   5.450 -1.0745  2.6276 -1.1823
13404SOL     OW43616   2.409   9.039   2.806 -0.2345 -0.3878  0.3106
13404SOL    HW143617   2.398   9.017   2.899 -0.1834  2.3727  0.9971
13404SOL    HW243618   2.493   9.083   2.802 -0.9685  0.9553 -0.7565
13405SOL     OW43619   8.694   6.982   8.387  0.0119 -0.1938 -0.3740
13405SOL    HW143620   8.683   7.075   8.408 -0.0649 -0.3138  0.1103
13405SOL    HW243621   8.787   6.965   8.400  0.4315  0.3376 -2.5425
13406SOL     OW43622   8.103   7.105   8.190  0.5421 -0.0358 -0.0678
13406SOL    HW143623   8.181   7.050   8.191  0.6015  0.0591  0.5696
13406SOL    HW243624   8.046   7.068   8.258 -0.3576 -0.6670 -1.1538
13407SOL     OW43625   0.040   6.065   0.955  0.2704  0.2061 -0.0261
13407SOL    HW143626   0.028   5.970   0.959  0.1043  0.2893  2.7150
13407SOL    HW243627   0.132   6.079   0.974  0.1063  0.6192  0.4911
13408SOL     OW43628   6.170   7.211   9.149  0.0250  0.1240  0.3075
13408SOL    HW143629   6.209   7.298   9.153 -0.2116  0.2342  0.2199
13408SOL    HW243630   6.198   7.176   9.064  0.0320  0.1593  0.2947
13409SOL     OW43631  10.589   2.900   8.847 -0.0970 -0.0954  0.2029
13409SOL    HW143632  10.615   2.833   8.784  0.2946 -0.9684  1.2705
13409SOL    HW243633  10.559   2.850   8.923  0.8889  0.9406  1.2950
13410SOL     OW43634   8.974   5.350  10.521 -0.6476 -0.1635 -0.3148
13410SOL    HW143635   9.040   5.343  10.590 -1.6182 -2.7300  0.3938
13410SOL    HW243636   8.954   5.259  10.498 -2.4397  0.6275 -1.9747
13411SOL     OW43637   6.067   0.353  10.648  0.4045  0.3284 -0.2251
13411SOL    HW143638   5.989   0.391  10.607  0.6391  0.5544 -0.4629
13411SOL    HW243639   6.121   0.428  10.672  0.8376  0.1496 -0.6313
13412SOL     OW43640   8.611   4.975   9.742  0.4136 -0.1759 -0.0408
13412SOL    HW143641   8.625   4.956   9.649 -0.3553 -0.7672 -0.0462
13412SOL    HW243642   8.526   5.019   9.745  0.1702 -0.6720  0.4388
13413SOL     OW43643   2.230   8.767   9.846  0.4880 -0.0090 -0.5247
13413SOL    HW143644   2.225   8.857   9.814 -1.4604  0.6284  1.4539
13413SOL    HW243645   2.295   8.769   9.915  0.9494 -0.2743 -0.9502
13414SOL     OW43646   9.794   9.305   9.801  0.4639 -0.5401 -0.3143
13414SOL    HW143647   9.781   9.224   9.751  0.6482  0.2927 -1.7259
13414SOL    HW243648   9.799   9.276   9.892 -0.6816 -1.9886 -0.6972
13415SOL     OW43649   9.307   0.238   7.570  0.1189  0.8008  0.3494
13415SOL    HW143650   9.296   0.157   7.619  2.4487  0.4171  0.2842
13415SOL    HW243651   9.388   0.226   7.521 -0.0340  2.7797 -0.4392
13416SOL     OW43652   6.071   6.995   5.586 -0.3817 -0.0096 -0.2596
13416SOL    HW143653   6.122   6.915   5.597  1.4204  1.1006 -0.4109
13416SOL    HW243654   5.987   6.966   5.550  0.3730 -1.7831 -0.5933
13417SOL     OW43655   8.682   9.247   8.380  0.1941 -0.4354  0.1565
13417SOL    HW143656   8.587   9.262   8.376  0.4488  0.5377 -2.9994
13417SOL    HW243657   8.690   9.151   8.379 -0.7281 -0.5178 -0.4730
13418SOL     OW43658  10.325   5.637   7.658 -0.2439  0.2649  0.4874
13418SOL    HW143659  10.399   5.671   7.607  0.1270 -2.2537 -0.7050
13418SOL    HW243660  10.294   5.562   7.609 -3.1307  0.7951  1.3971
13419SOL     OW43661   4.369   7.186   5.803  0.2836 -0.5348 -0.1358
13419SOL    HW143662   4.318   7.204   5.724 -0.3269 -0.7352  0.2149
13419SOL    HW243663   4.393   7.094   5.795  1.3137 -0.2277 -0.7127
13420SOL     OW43664   4.879   0.754   8.642  0.1985 -0.5833 -0.6077
13420SOL    HW143665   4.868   0.732   8.549 -0.4254 -0.0706 -0.6583
13420SOL    HW243666   4.974   0.759   8.654  0.2739 -0.2435 -1.3166
13421SOL     OW43667   6.346   7.652   1.642  0.0612 -0.5095 -0.0656
13421SOL    HW143668   6.374   7.639   1.552 -1.9602  0.1050 -0.8114
13421SOL    HW243669   6.385   7.579   1.690  1.0786 -0.8891 -1.4506
13422SOL     OW43670   0.784   3.337  10.481 -0.0839  0.2594 -0.1295
13422SOL    HW143671   0.774   3.373  10.393  1.3145 -0.3362 -0.5408
13422SOL    HW243672   0.707   3.281  10.493 -1.0262  1.4647 -0.4079
13423SOL     OW43673  10.877   5.878   8.034 -0.1037  0.0942  0.4315
13423SOL    HW143674  10.936   5.865   8.109 -1.1254 -2.7278  0.8115
13423SOL    HW243675  10.935   5.893   7.960  1.0059 -0.1765  1.2357
13424SOL     OW43676   9.084   6.054   8.329  0.3255 -0.2639 -0.0369
13424SOL    HW143677   9.018   6.051   8.398  0.7302 -0.2831  0.3516
13424SOL    HW243678   9.046   6.112   8.262 -0.7000 -1.4104 -0.4657
13425SOL     OW43679  10.490   0.040   7.374  0.2205 -0.1508  0.4670
13425SOL    HW143680  10.475   0.097   7.449  1.0564 -0.8445  1.1734
13425SOL    HW243681  10.499   0.099   7.300 -1.5266  0.5042  0.7457
13426SOL     OW43682   8.970  10.889  10.074  0.5358 -0.4292 -0.6906
13426SOL    HW143683   9.024  10.812  10.058  0.7055 -0.5837  0.5980
13426SOL    HW243684   8.916  10.866  10.149 -0.3174  0.2501 -1.0871
13427SOL     OW43685   3.508   5.288  10.158  0.0088 -0.2014 -0.5790
13427SOL    HW143686   3.415   5.279  10.180 -0.0277  0.5535 -0.4274
13427SOL    HW243687   3.529   5.379  10.179  0.8877 -0.4840 -0.2283
13428SOL     OW43688   7.611   3.637   6.156  0.0915  0.0068 -0.4882
13428SOL    HW143689   7.581   3.639   6.065  1.8750 -0.5739 -1.1136
13428SOL    HW243690   7.653   3.721   6.170  0.4008 -0.1598 -0.4089
13429SOL     OW43691  10.433   0.445   6.998 -0.0504 -0.2180  0.0035
13429SOL    HW143692  10.490   0.489   7.061 -0.3094 -0.6342  0.5332
13429SOL    HW243693  10.470   0.468   6.913 -1.0782  2.2327  0.2008
13430SOL     OW43694   8.983   8.186   1.808  0.4513 -0.0207  0.6990
13430SOL    HW143695   9.062   8.228   1.777  1.4475 -1.5105  1.1702
13430SOL    HW243696   8.970   8.221   1.896  0.6382  0.1518  0.6587
13431SOL     OW43697   3.869   9.943   4.785  0.1806  0.3942  0.3018
13431SOL    HW143698   3.795   9.889   4.756  0.4554  0.0092  0.3188
13431SOL    HW243699   3.915   9.887   4.848 -0.9751  1.5678  2.2394
13432SOL     OW43700  10.285   6.782   8.164  0.2289 -0.9677 -0.0963
13432SOL    HW143701  10.370   6.826   8.172 -0.7963  1.0256  0.2911
13432SOL    HW243702  10.245   6.793   8.251 -1.6359  0.7728 -1.1161
13433SOL     OW43703   8.866   1.310  10.656 -0.2786  0.1610  0.4794
13433SOL    HW143704   8.942   1.265  10.693  0.5013  0.7717 -0.3775
13433SOL    HW243705   8.831   1.361  10.729 -1.1794 -1.7985  1.4695
13434SOL     OW43706   9.679   7.734   4.657 -0.0125 -0.0533  0.0441
13434SOL    HW143707   9.614   7.686   4.710 -0.6521 -0.0751 -0.7567
13434SOL    HW243708   9.630   7.807   4.620  0.1847 -0.6013 -1.3326
13435SOL     OW43709   3.450  10.373   2.627 -0.3347  0.6710 -0.1082
13435SOL    HW143710   3.370  10.359   2.679 -0.4479 -0.6783 -0.6375
13435SOL    HW243711   3.521  10.357   2.689 -0.4449  2.5553  0.5520
13436SOL     OW43712   6.384   4.055   3.652 -0.6384 -0.1563  0.2386
13436SOL    HW143713   6.453   3.990   3.641 -0.5682  0.1892 -1.4967
13436SOL    HW243714   6.351   4.040   3.741 -0.1927 -2.1339  0.0940
13437SOL     OW43715   6.262   0.396   5.756  0.3383 -0.4691  0.1417
13437SOL    HW143716   6.264   0.304   5.731  0.8049 -0.7076  1.0154
13437SOL    HW243717   6.312   0.400   5.838 -2.0651  0.0942  1.6269
13438SOL     OW43718   9.611   5.538   7.691  0.6061  0.8685  0.1599
13438SOL    HW143719   9.619   5.448   7.723  0.4106  0.8522  0.1622
13438SOL    HW243720   9.516   5.554   7.687  0.6522  1.5202  1.4306
13439SOL     OW43721   9.750   1.404  10.174 -0.2141 -0.1051  0.0962
13439SOL    HW143722   9.678   1.420  10.113 -1.1245  2.1317  1.7329
13439SOL    HW243723   9.715   1.426  10.260  1.7038 -1.2521  1.2110
13440SOL     OW43724   6.949   8.797   3.191 -0.0593  0.2947  0.0259
13440SOL    HW143725   6.886   8.735   3.156  0.2479  0.7532 -1.3902
13440SOL    HW243726   7.034   8.766   3.159  0.1692  1.0441 -0.0991
13441SOL     OW43727   8.352   1.549   9.421 -0.2593  0.8084  0.4289
13441SOL    HW143728   8.393   1.503   9.347 -2.3488 -0.5578  0.0579
13441SOL    HW243729   8.389   1.507   9.498 -1.3222 -0.8262  0.0940
13442SOL     OW43730   3.910   0.804   1.283  0.0281 -0.1088 -0.5032
13442SOL    HW143731   3.841   0.744   1.253 -1.5333  1.1638  0.4190
13442SOL    HW243732   3.889   0.887   1.241  0.0952  0.6746  0.9741
13443SOL     OW43733   6.145   6.328   7.910 -0.0156 -0.0754  0.1415
13443SOL    HW143734   6.057   6.290   7.904 -0.2386  0.6688 -1.8985
13443SOL    HW243735   6.130   6.422   7.908  0.8751  0.0495 -1.3274
13444SOL     OW43736   7.789   3.470   4.040  0.2368 -0.3778  0.1754
13444SOL    HW143737   7.789   3.564   4.023  2.3138 -0.7170 -1.9363
13444SOL    HW243738   7.709   3.438   4.000  0.7329  0.1454 -1.2476
13445SOL     OW43739   2.414   8.641   8.253 -0.0637  0.2058 -0.2449
13445SOL    HW143740   2.459   8.582   8.314 -0.5379  0.7836  0.6701
13445SOL    HW243741   2.379   8.582   8.185  0.8593 -0.3920 -0.2153
13446SOL     OW43742   7.587   4.765   9.500  0.2790 -0.5210 -0.0375
13446SOL    HW143743   7.530   4.689   9.494 -0.7754  0.1354  1.2527
13446SOL    HW243744   7.554   4.814   9.575  0.9593  1.1909 -0.8149
13447SOL     OW43745   9.383   1.959   2.056  0.3220 -0.7107  0.1424
13447SOL    HW143746   9.300   1.914   2.038  0.1415 -0.9136  1.4260
13447SOL    HW243747   9.442   1.889   2.084  0.8349 -0.5125 -0.4210
13448SOL     OW43748   1.896   6.952   5.142  0.2332 -0.2314 -0.5717
13448SOL    HW143749   1.974   6.897   5.137  0.3335 -0.1595  0.1721
13448SOL    HW243750   1.825   6.895   5.112  0.4655 -0.5094 -0.5986
13449SOL     OW43751   0.743   9.971   0.726  0.0036 -0.9026  0.0543
13449SOL    HW143752   0.836   9.949   0.728 -0.1885 -1.7762 -0.3384
13449SOL    HW243753   0.699   9.890   0.700 -0.7244 -0.0824 -1.3578
13450SOL     OW43754   1.949   4.485   9.599 -0.2128  0.0308  0.2482
13450SOL    HW143755   1.865   4.478   9.554  0.2324 -1.1152 -0.4146
13450SOL    HW243756   1.978   4.394   9.611  1.6202  0.4401 -0.8398
13451SOL     OW43757   3.112   5.305   6.181 -0.2016  0.3545 -0.6122
13451SOL    HW143758   3.195   5.340   6.213 -0.2766  0.8906 -0.9814
13451SOL    HW243759   3.070   5.379   6.137 -0.9837  0.1481 -0.2220
13452SOL     OW43760   0.810   9.257  10.797 -0.2205 -0.4704 -0.1363
13452SOL    HW143761   0.719   9.229  10.797 -0.3083 -0.2253  0.8338
13452SOL    HW243762   0.854   9.197  10.737 -0.9778 -0.7205 -0.4473
13453SOL     OW43763   2.103   7.556   5.064  0.4087 -0.1073  0.4772
13453SOL    HW143764   2.038   7.531   4.999  0.0013 -1.0973  1.2451
13453SOL    HW243765   2.096   7.651   5.070  0.6456  0.0117 -1.1087
13454SOL     OW43766   9.551   1.832   0.214  0.2531 -0.1319 -0.4712
13454SOL    HW143767   9.489   1.882   0.268  0.5062 -1.1854  0.8261
13454SOL    HW243768   9.637   1.853   0.250  0.5108 -0.0494 -1.1307
13455SOL     OW43769   5.449   2.023   7.643  0.3362 -0.0419  0.0220
13455SOL    HW143770   5.528   1.971   7.624 -0.4262 -1.2767  0.2014
13455SOL    HW243771   5.381   1.985   7.588 -0.1584  0.9902 -0.0923
13456SOL     OW43772   9.686   1.002   8.699  0.6288  0.1104  0.4533
13456SOL    HW143773   9.650   0.950   8.771  0.9133 -0.0869  0.4536
13456SOL    HW243774   9.780   0.990   8.706  0.6332 -0.3066 -0.2503
13457SOL     OW43775   5.086   9.824   8.225 -0.4206  0.0829  0.0614
13457SOL    HW143776   5.121   9.751   8.275  0.8368 -0.0384 -0.9875
13457SOL    HW243777   5.046   9.784   8.148  1.5699  0.5743 -1.2684
13458SOL     OW43778   1.964   8.470   8.105 -0.6215  0.0051 -0.2019
13458SOL    HW143779   2.030   8.402   8.089  1.2018  1.5422  0.5866
13458SOL    HW243780   1.912   8.436   8.177  1.9892  0.5497  2.0408
13459SOL     OW43781   1.095   8.352   1.570  0.8077 -0.5033 -0.1984
13459SOL    HW143782   1.062   8.433   1.610 -0.1309 -1.6566  1.3756
13459SOL    HW243783   1.021   8.292   1.571  2.1273 -2.1662  0.7667
13460SOL     OW43784   7.635   8.190   9.342 -0.1742 -0.0715  0.1430
13460SOL    HW143785   7.622   8.260   9.278  1.9671  0.9476  0.7879
13460SOL    HW243786   7.685   8.124   9.295 -0.1824 -0.1366  0.2255
13461SOL     OW43787   4.419  10.667   2.511 -0.1152  0.5529 -0.4573
13461SOL    HW143788   4.390  10.592   2.562  0.0144 -0.1805 -1.4538
13461SOL    HW243789   4.351  10.680   2.446 -0.5925  1.8890  0.2807
13462SOL     OW43790   1.676  10.564   6.497 -0.1626 -0.2135 -0.6312
13462SOL    HW143791   1.742  10.504   6.461  1.2645  0.9625 -0.0373
13462SOL    HW243792   1.701  10.650   6.462  0.5323  0.7690  2.0979
13463SOL     OW43793   1.343   3.580   9.639 -0.4485  0.7039  0.0815
13463SOL    HW143794   1.436   3.591   9.658 -0.4049  0.9445 -0.2760
13463SOL    HW243795   1.340   3.508   9.577 -0.3970  1.5252 -0.8898
13464SOL     OW43796   6.868   1.665   4.337 -0.5168 -0.2719  0.5686
13464SOL    HW143797   6.930   1.731   4.368 -2.2623  1.0141  1.4681
13464SOL    HW243798   6.851   1.689   4.246  0.5743 -0.8583  0.2025
13465SOL     OW43799   8.400   5.939   1.427  0.2328  0.7207  0.6944
13465SOL    HW143800   8.456   5.909   1.499  1.3513  1.9439  0.3505
13465SOL    HW243801   8.458   5.942   1.351 -1.2067 -1.6720 -0.5647
13466SOL     OW43802   6.927  10.356   4.920 -0.3453 -0.1910  0.1931
13466SOL    HW143803   6.980  10.414   4.864 -0.3477  0.4186  0.8188
13466SOL    HW243804   6.870  10.415   4.969  0.2971 -0.6508  1.5159
13467SOL     OW43805   2.938   9.072   1.986  0.6257  0.1833  0.0821
13467SOL    HW143806   2.986   9.155   1.989  0.5824  0.2949 -1.7812
13467SOL    HW243807   2.846   9.097   1.999  0.7753  0.2600  1.0064
13468SOL     OW43808   9.828   3.752   5.719  0.2053 -0.1836 -0.2601
13468SOL    HW143809   9.781   3.680   5.676 -1.3705 -0.1454  1.3383
13468SOL    HW243810   9.776   3.771   5.797  0.2524  3.1181 -0.9603
13469SOL     OW43811   4.542   9.509   4.131 -0.6507  0.8856 -0.2955
13469SOL    HW143812   4.482   9.576   4.099 -2.3461 -0.7166 -0.6043
13469SOL    HW243813   4.563   9.457   4.053  1.9954  2.0343 -0.3944
13470SOL     OW43814   8.490   4.995   9.210 -0.1311  0.1589 -0.2443
13470SOL    HW143815   8.509   5.037   9.127 -1.4171 -1.5592 -1.4310
13470SOL    HW243816   8.431   4.923   9.189  0.5044 -1.0943  1.9683
13471SOL     OW43817   2.674   2.648   1.319  0.1581  0.0825 -0.1862
13471SOL    HW143818   2.606   2.658   1.386 -0.9560 -2.0835 -0.9282
13471SOL    HW243819   2.755   2.678   1.361 -0.4391 -1.6354  2.2700
13472SOL     OW43820  10.044   4.559   6.681 -0.5873 -0.4187 -0.2643
13472SOL    HW143821  10.020   4.620   6.611 -0.6576 -0.4563 -0.2734
13472SOL    HW243822  10.027   4.607   6.762 -0.4090 -0.3382 -0.2735
13473SOL     OW43823   9.131  10.045   1.600 -0.6540 -0.3990 -0.1281
13473SOL    HW143824   9.206  10.098   1.570 -0.4674 -1.3542 -1.3911
13473SOL    HW243825   9.101  10.000   1.521 -2.0956 -0.6035  0.5302
13474SOL     OW43826   7.367   7.233  10.275 -0.3094 -0.3318  0.4693
13474SOL    HW143827   7.390   7.151  10.231 -0.9911  0.6854 -1.8659
13474SOL    HW243828   7.370   7.299  10.206 -1.7919  1.2652  1.8809
13475SOL     OW43829   1.595   2.938   6.979 -0.2449 -0.6017 -0.4864
13475SOL    HW143830   1.540   2.990   6.921 -1.1001 -0.2383  0.6454
13475SOL    HW243831   1.603   2.853   6.936 -4.5067 -1.8183  0.9399
13476SOL     OW43832   3.421   4.195   6.392  0.1167 -0.5095 -0.3455
13476SOL    HW143833   3.461   4.242   6.465 -0.8917  0.6297 -0.5067
13476SOL    HW243834   3.345   4.151   6.430 -0.4025  0.0764 -0.7029
13477SOL     OW43835   5.685   7.557   0.869  0.3935 -0.1545 -0.2650
13477SOL    HW143836   5.776   7.586   0.876  0.5376 -0.6397 -0.0726
13477SOL    HW243837   5.635   7.637   0.853  1.0236 -0.0791 -1.8766
13478SOL     OW43838   8.827   6.337   3.483  0.1568 -0.1755  0.1146
13478SOL    HW143839   8.920   6.318   3.477  0.7815  2.5739  0.1464
13478SOL    HW243840   8.818   6.393   3.560 -1.3961  0.2273 -0.3263
13479SOL     OW43841   6.842   3.778   8.535 -0.2899 -0.2083  0.1661
13479SOL    HW143842   6.793   3.828   8.601 -0.2434 -0.2892  0.2623
13479SOL    HW243843   6.877   3.703   8.583 -0.9277 -0.7018 -0.1307
13480SOL     OW43844   5.744   6.527   2.712  0.0947  0.2908 -0.5539
13480SOL    HW143845   5.803   6.520   2.787 -1.5920 -0.4000  0.7259
13480SOL    HW243846   5.741   6.439   2.675 -1.8161 -0.1849  0.6930
13481SOL     OW43847   3.502   0.057   5.332  0.5209 -0.4188 -0.3276
13481SOL    HW143848   3.442   0.070   5.258 -0.1589  0.7593  0.4217
13481SOL    HW243849   3.502  -0.038   5.346 -2.1239 -0.3447  0.4376
13482SOL     OW43850   7.076   7.509   3.601  0.0713  0.2296 -0.2015
13482SOL    HW143851   7.066   7.476   3.511 -0.1499  0.1027 -0.1315
13482SOL    HW243852   7.142   7.451   3.640 -0.7767 -0.5443  0.1174
13483SOL     OW43853   7.031   5.236   1.129  0.1860  0.4769  0.0225
13483SOL    HW143854   7.116   5.199   1.106  0.3549  1.2865 -0.6798
13483SOL    HW243855   7.009   5.195   1.213 -0.4274 -2.4880 -1.5234
13484SOL     OW43856   3.667   0.251  10.864 -0.3239 -0.0140 -0.4748
13484SOL    HW143857   3.737   0.213  10.918  1.1158  0.5245 -1.9397
13484SOL    HW243858   3.610   0.294  10.928 -0.7816 -2.6694  0.9999
13485SOL     OW43859   2.957   3.010  10.816  0.0342  0.1574  0.2599
13485SOL    HW143860   2.944   3.090  10.867 -0.7617  0.8142 -0.9547
13485SOL    HW243861   3.045   3.020  10.779 -0.3707  0.8555 -0.5371
13486SOL     OW43862   7.436   2.559   1.674 -0.5674 -0.2730 -0.5032
13486SOL    HW143863   7.509   2.603   1.631 -0.5487  0.1111 -0.0843
13486SOL    HW243864   7.455   2.466   1.667  0.4381 -0.1421  0.4507
13487SOL     OW43865   4.388   3.347   5.477 -0.0951 -0.0752 -0.0490
13487SOL    HW143866   4.347   3.395   5.550  1.3145 -1.3016  1.5997
13487SOL    HW243867   4.453   3.408   5.442 -0.5513  0.3979 -0.0865
13488SOL     OW43868   0.347   6.231   8.653  0.4726 -0.3001 -0.4346
13488SOL    HW143869   0.364   6.138   8.640 -0.5583 -0.0842 -4.1422
13488SOL    HW243870   0.259   6.234   8.690  0.5587 -0.8160 -0.1895
13489SOL     OW43871   7.497   8.901   3.766  0.2479  0.2072 -0.2092
13489SOL    HW143872   7.495   8.994   3.746 -0.4560  0.6226  1.6982
13489SOL    HW243873   7.590   8.881   3.777  0.2501  1.2894  1.9955
13490SOL     OW43874   5.620   6.646   4.566  0.0146  0.3660 -0.2382
13490SOL    HW143875   5.544   6.699   4.541 -1.5965 -0.5042  2.6820
13490SOL    HW243876   5.688   6.710   4.589 -0.5330  1.1366 -0.7398
13491SOL     OW43877   1.571   4.363   1.186 -0.2733 -0.7247 -0.4899
13491SOL    HW143878   1.614   4.399   1.264 -0.1259  1.5774 -1.5665
13491SOL    HW243879   1.496   4.314   1.220 -0.7194  0.9829  1.0771
13492SOL     OW43880  10.756   0.807   8.416  0.2153 -0.5192  0.5481
13492SOL    HW143881  10.683   0.784   8.474 -1.2851 -0.7177 -1.3755
13492SOL    HW243882  10.807   0.871   8.466 -0.9215 -0.8618  2.1806
13493SOL     OW43883   7.412   8.651   1.237 -0.1210  0.0655  0.3606
13493SOL    HW143884   7.348   8.706   1.191 -0.0725  1.0307  1.4304
13493SOL    HW243885   7.359   8.596   1.295 -0.1614 -0.9535 -0.6278
13494SOL     OW43886   3.478   4.336   4.368  0.2551 -0.0439 -0.7239
13494SOL    HW143887   3.551   4.397   4.353  0.3149 -0.3338 -1.6292
13494SOL    HW243888   3.503   4.256   4.323  0.5135 -1.0217  1.0923
13495SOL     OW43889   2.232   0.185   0.117  0.0753 -0.4342  0.3929
13495SOL    HW143890   2.296   0.198   0.187  0.3361 -0.9522  0.2441
13495SOL    HW243891   2.147   0.202   0.160  0.1124 -2.2101  1.2112
13496SOL     OW43892   3.998   4.774   3.034 -0.3312  0.1301 -0.2224
13496SOL    HW143893   3.960   4.838   3.095 -0.3155  0.7229 -0.8270
13496SOL    HW243894   4.032   4.704   3.090 -0.6725  0.4780  0.4257
13497SOL     OW43895  10.218   8.883   2.635  0.0848 -0.3663 -0.0779
13497SOL    HW143896  10.311   8.870   2.650  0.3116  1.2680 -0.0006
13497SOL    HW243897  10.182   8.904   2.721 -0.3804 -1.1104 -0.0848
13498SOL     OW43898  10.663   9.067   8.485 -0.8259 -0.2055 -0.0747
13498SOL    HW143899  10.723   9.035   8.552 -0.5375  1.3115  0.4020
13498SOL    HW243900  10.576   9.055   8.523 -0.6825  0.2414  0.4101
13499SOL     OW43901  10.171  10.081   2.427 -0.0576  0.1339  0.1356
13499SOL    HW143902  10.089  10.040   2.452 -0.3590 -0.4224 -1.6941
13499SOL    HW243903  10.174  10.163   2.478 -1.7089  0.1406  0.2282
13500SOL     OW43904   3.001   3.513   0.319 -0.2416  0.0802  0.1915
13500SOL    HW143905   2.914   3.474   0.331  0.0771 -0.2505  1.5792
13500SOL    HW243906   3.054   3.472   0.387  0.6120  1.4338  0.3527
13501SOL     OW43907   4.435   0.567   1.291  0.4748 -0.2324 -0.3673
13501SOL    HW143908   4.404   0.482   1.322  2.7633 -1.2430 -0.7337
13501SOL    HW243909   4.391   0.580   1.207 -0.9983 -0.3814  0.3844
13502SOL     OW43910   1.533   0.430   0.825 -0.3591  0.1537 -0.1825
13502SOL    HW143911   1.605   0.391   0.775 -1.0392  1.1708 -1.9850
13502SOL    HW243912   1.546   0.524   0.816 -2.7138  0.3685 -1.7647
13503SOL     OW43913   1.268   6.399   5.052  0.0376  0.1410 -0.7449
13503SOL    HW143914   1.358   6.385   5.023 -0.7352 -0.5919 -2.9464
13503SOL    HW243915   1.263   6.357   5.138  1.0307 -2.4255 -1.8893
13504SOL     OW43916   7.789   2.143   7.496  0.2174 -0.2595  0.5807
13504SOL    HW143917   7.812   2.235   7.486  0.1630 -0.3332 -0.3087
13504SOL    HW243918   7.707   2.134   7.446  0.6319 -0.9499  0.0242
13505SOL     OW43919   4.565   4.442   8.862  0.3165  1.0324 -0.3695
13505SOL    HW143920   4.577   4.459   8.955  0.3157 -2.7481  0.3706
13505SOL    HW243921   4.472   4.427   8.852  0.0562  3.0557 -1.3300
13506SOL     OW43922   4.711   8.956   2.260  0.4369  0.1707  0.1462
13506SOL    HW143923   4.667   8.885   2.306  1.4110  0.7291  1.9958
13506SOL    HW243924   4.799   8.923   2.243 -0.2308 -0.4589 -2.3978
13507SOL     OW43925   7.823   0.005   0.434 -0.1205  0.1906 -0.4804
13507SOL    HW143926   7.780  -0.030   0.356  1.2797 -1.6310 -0.4705
13507SOL    HW243927   7.780  -0.040   0.507  0.2796 -0.0006 -0.3572
13508SOL     OW43928   3.606   7.561   8.077  0.7614 -0.3688  0.1343
13508SOL    HW143929   3.677   7.500   8.098  1.5806  0.4040 -0.3234
13508SOL    HW243930   3.617   7.579   7.983  1.1546  1.2499  0.4752
13509SOL     OW43931  10.396   9.797   1.410 -0.4854 -0.7689 -0.0562
13509SOL    HW143932  10.471   9.741   1.430 -1.1860 -0.9384  2.2962
13509SOL    HW243933  10.326   9.736   1.387 -0.4817 -0.7249 -0.1827
13510SOL     OW43934   3.886   6.033   3.706  0.1312 -0.3256  0.5657
13510SOL    HW143935   3.804   6.042   3.657  0.7820  0.3571 -0.4198
13510SOL    HW243936   3.862   5.984   3.784 -0.5360 -3.5258 -1.5320
13511SOL     OW43937   2.777   6.944   5.908 -0.2174  0.1632  0.1244
13511SOL    HW143938   2.722   6.900   5.972 -0.3034  1.2453  0.8088
13511SOL    HW243939   2.717   6.995   5.855  0.2109  2.4994  1.7913
13512SOL     OW43940   5.305   7.531   2.969  0.2456 -0.2347 -0.2715
13512SOL    HW143941   5.310   7.438   2.993  0.4557 -0.3737 -0.8468
13512SOL    HW243942   5.341   7.535   2.881  2.0448  0.6796  0.4626
13513SOL     OW43943   7.134  10.356   7.238 -0.0890  0.0484 -0.0720
13513SOL    HW143944   7.105  10.447   7.225  0.2653  0.2131  0.2938
13513SOL    HW243945   7.213  10.348   7.185 -0.6432 -0.3201 -0.8454
13514SOL     OW43946   1.686   2.051   1.425 -0.1149  0.5461 -0.5836
13514SOL    HW143947   1.654   2.070   1.513  0.5192 -0.5600 -0.1022
13514SOL    HW243948   1.675   1.956   1.415  0.9252  0.4844 -1.2385
13515SOL     OW43949   3.237   6.222   3.000  0.2353 -0.4413  0.4504
13515SOL    HW143950   3.162   6.163   2.993 -0.7948  1.1339 -3.3372
13515SOL    HW243951   3.216   6.280   3.073 -2.2928 -0.0202 -0.5562
13516SOL     OW43952   5.174  10.673   0.798 -0.2131  0.7994 -0.0312
13516SOL    HW143953   5.244  10.647   0.738 -1.5434 -1.2196 -0.7701
13516SOL    HW243954   5.219  10.694   0.880  1.1997 -1.4415 -0.1743
13517SOL     OW43955   4.099   7.024   2.447  0.1061  0.9568 -0.0359
13517SOL    HW143956   4.192   7.004   2.446  0.3565  2.0986 -2.9624
13517SOL    HW243957   4.094   7.119   2.450 -1.0438  0.8722  4.0517
13518SOL     OW43958   1.585   0.994   6.775 -0.1562  0.4209 -0.0060
13518SOL    HW143959   1.511   1.025   6.724  0.2639  0.5922 -0.5100
13518SOL    HW243960   1.660   1.004   6.717  0.0355 -1.2641 -0.0812
13519SOL     OW43961   0.873   9.768   4.114 -0.1740 -0.1073 -0.0641
13519SOL    HW143962   0.963   9.745   4.136  0.0434  0.0692 -0.7659
13519SOL    HW243963   0.871   9.768   4.018 -0.8306  0.2286 -0.0513
13520SOL     OW43964   2.242  10.372   0.914 -0.0415  0.4579 -0.2900
13520SOL    HW143965   2.244  10.394   0.821 -0.2306 -0.6405 -0.5624
13520SOL    HW243966   2.326  10.404   0.947  0.1847  0.5259 -0.9161
13521SOL     OW43967   4.801   6.414  10.512  0.4158  0.0919  0.0171
13521SOL    HW143968   4.724   6.458  10.547  0.9274  0.1910  1.0459
13521SOL    HW243969   4.871   6.479  10.519  0.7118 -0.1805 -0.4068
13522SOL     OW43970   4.723   5.058   4.942  0.1937 -0.0561  0.3269
13522SOL    HW143971   4.780   5.024   5.012  0.9436 -0.7576 -0.6115
13522SOL    HW243972   4.646   5.001   4.944 -0.8499  1.3643  2.1041
13523SOL     OW43973   6.487   8.129   8.190  0.0650  0.2817 -0.0797
13523SOL    HW143974   6.500   8.224   8.188  1.9008  0.0746  0.7070
13523SOL    HW243975   6.538   8.096   8.116 -1.6644  0.0093 -1.1703
13524SOL     OW43976   7.859   6.370   9.827  0.0193 -0.0383 -0.7935
13524SOL    HW143977   7.939   6.335   9.788  0.7383 -0.4458  1.0212
13524SOL    HW243978   7.853   6.459   9.793  0.7985 -0.2840 -1.5935
13525SOL     OW43979   8.120   7.021  10.404  0.8424 -0.3335 -0.0487
13525SOL    HW143980   8.052   6.971  10.449  0.8258  1.0836  1.5475
13525SOL    HW243981   8.081   7.107  10.388  1.9948  0.2598  0.2334
13526SOL     OW43982  10.211   2.410   7.559  0.4854 -0.4306  0.5843
13526SOL    HW143983  10.196   2.505   7.564  0.0108 -0.4231 -0.7757
13526SOL    HW243984  10.305   2.400   7.577  0.7641  0.4123 -0.3466
13527SOL     OW43985   6.613   6.973   4.219  0.3307 -0.2065 -0.0949
13527SOL    HW143986   6.698   6.997   4.256  0.3172  1.1307 -0.8938
13527SOL    HW243987   6.557   7.049   4.237 -0.3345 -0.5475 -0.7061
13528SOL     OW43988   8.374   3.996   7.495  0.1751 -0.0651  0.2356
13528SOL    HW143989   8.422   3.951   7.565  1.4362  0.3660 -0.3265
13528SOL    HW243990   8.346   4.078   7.534  0.0657 -0.2365  0.5181
13529SOL     OW43991   1.695   4.154  10.416  0.3088 -0.2533  0.3710
13529SOL    HW143992   1.719   4.181  10.328 -0.8879  0.7365  0.3238
13529SOL    HW243993   1.776   4.121  10.454  0.7775 -0.9222 -1.1766
13530SOL     OW43994   4.847   2.357   1.690  0.9093 -0.0848 -0.4706
13530SOL    HW143995   4.797   2.278   1.710 -1.1159  1.0187 -1.0129
13530SOL    HW243996   4.918   2.326   1.633 -0.2185 -1.4075 -1.1877
13531SOL     OW43997   5.515   2.713   1.588  0.2688 -0.1299  0.5983
13531SOL    HW143998   5.487   2.717   1.679  0.4529 -1.4906  0.7386
13531SOL    HW243999   5.606   2.681   1.592  1.1002  2.0890  0.0440
13532SOL     OW44000   0.336  10.964   7.530 -0.5129 -0.7061 -0.2577
13532SOL    HW144001   0.341  11.059   7.534 -2.8801 -0.5601 -0.3406
13532SOL    HW244002   0.349  10.936   7.621  1.4022 -0.4008 -0.4117
13533SOL     OW44003   0.651   9.757   1.566  0.7473  0.8355  0.0292
13533SOL    HW144004   0.713   9.706   1.514  1.5769  0.2953  1.5286
13533SOL    HW244005   0.598   9.804   1.501 -0.4518 -2.3730 -1.3894
13534SOL     OW44006   0.561   5.721  10.881 -0.1293 -0.0259 -0.2140
13534SOL    HW144007   0.485   5.767  10.847 -0.0650  0.3181  0.1074
13534SOL    HW244008   0.535   5.694  10.969  0.9613  2.1318  0.7872
13535SOL     OW44009   5.302   5.012  10.872 -0.0459  0.4534  0.0991
13535SOL    HW144010   5.283   5.081  10.936 -0.5753  0.2551  0.1651
13535SOL    HW244011   5.328   5.058  10.793 -1.2694  0.7592 -0.1322
13536SOL     OW44012   8.485   6.473   8.602  0.2128 -0.0816  0.2963
13536SOL    HW144013   8.439   6.506   8.525 -0.9926  0.7534  1.3446
13536SOL    HW244014   8.420   6.418   8.647  0.4856  0.4486  1.3648
13537SOL     OW44015   9.903   1.761   3.239 -0.2065 -0.6415  0.0396
13537SOL    HW144016   9.923   1.685   3.184  1.9229  0.1477 -0.3046
13537SOL    HW244017   9.960   1.830   3.207 -1.4259  0.8345  0.9985
13538SOL     OW44018   1.409   4.710   9.750 -0.5034  0.4039  0.2916
13538SOL    HW144019   1.482   4.694   9.690 -1.5140 -1.2344 -0.5493
13538SOL    HW244020   1.401   4.629   9.800 -1.4521  0.7314  0.6861
13539SOL     OW44021   7.262   1.866  10.831  0.0453  0.4016  0.0702
13539SOL    HW144022   7.320   1.900  10.763  0.4028 -0.9437 -0.3054
13539SOL    HW244023   7.321   1.837  10.900 -0.2599  0.5323  0.3866
13540SOL     OW44024   5.128   3.677   0.410  0.2740  0.0035  0.0675
13540SOL    HW144025   5.166   3.589   0.401  1.2479  0.4770 -0.4427
13540SOL    HW244026   5.131   3.694   0.504  0.8791 -0.1582  0.0813
13541SOL     OW44027   4.737   1.880   1.073 -0.5509 -1.1700 -0.1647
13541SOL    HW144028   4.727   1.863   0.979  0.7785  0.1151 -0.5509
13541SOL    HW244029   4.830   1.866   1.090 -0.6149 -0.4557  0.7709
13542SOL     OW44030   1.918   4.826   4.600 -0.7938  0.5391  0.6725
13542SOL    HW144031   1.916   4.894   4.667 -2.0420  0.1616  1.0290
13542SOL    HW244032   1.854   4.854   4.535 -0.1329  0.5222  0.0056
13543SOL     OW44033   1.732   3.267   3.894 -0.4401  0.5015  0.1500
13543SOL    HW144034   1.816   3.312   3.899  0.1401 -0.6603  1.1602
13543SOL    HW244035   1.739   3.196   3.958 -2.7116  1.2658  1.3194
13544SOL     OW44036   2.037   1.829   1.766  0.7787 -0.7657  0.3036
13544SOL    HW144037   2.027   1.851   1.859 -1.5238  1.3635 -0.3954
13544SOL    HW244038   2.003   1.740   1.759  2.0121 -1.3666  1.6924
13545SOL     OW44039   0.388   0.278   0.434 -0.1822  0.3551  0.0460
13545SOL    HW144040   0.422   0.339   0.500  1.7730 -0.8764  0.2094
13545SOL    HW244041   0.412   0.191   0.467 -3.1625 -0.5696 -0.0616
13546SOL     OW44042   2.597   8.145   5.027 -0.0829  0.0760  0.1646
13546SOL    HW144043   2.612   8.106   5.114  0.4560  2.0889  0.9986
13546SOL    HW244044   2.511   8.112   5.000  0.1301 -1.2656  1.0621
13547SOL     OW44045   5.572   3.917   9.696 -0.4474  0.5161 -0.0340
13547SOL    HW144046   5.523   3.989   9.736 -0.1649 -0.0317  1.3228
13547SOL    HW244047   5.619   3.876   9.769 -0.5049 -0.9627 -0.8100
13548SOL     OW44048   2.484   0.999   7.129 -0.3400  0.2222  0.1123
13548SOL    HW144049   2.552   0.934   7.148 -0.9316 -0.4213  0.0346
13548SOL    HW244050   2.516   1.079   7.170 -0.7054 -0.6712  2.2226
13549SOL     OW44051   9.381   5.645   0.329  0.3008  0.0606  0.4520
13549SOL    HW144052   9.393   5.723   0.275 -0.7770  0.1621  0.3385
13549SOL    HW244053   9.341   5.678   0.410  0.1650 -0.3350  0.5458
13550SOL     OW44054   6.565   3.345   4.072 -0.1678 -0.0222  0.6226
13550SOL    HW144055   6.534   3.429   4.104 -2.0369  0.0194 -1.2018
13550SOL    HW244056   6.534   3.282   4.137  0.9549  0.6408  1.8185
13551SOL     OW44057   7.955   9.552   3.608 -0.6830  0.2630 -0.0319
13551SOL    HW144058   8.022   9.573   3.544  0.0133  1.3598  1.0216
13551SOL    HW244059   7.966   9.618   3.677 -2.3329 -0.0171  0.5293
13552SOL     OW44060   4.930  10.286   9.533  0.0528  0.5204  0.1867
13552SOL    HW144061   4.888  10.221   9.476 -2.1361  1.4893  0.6262
13552SOL    HW244062   5.022  10.262   9.533 -0.8304 -3.1874  1.1245
13553SOL     OW44063   0.501   5.708   6.542  0.7222 -0.0583  0.1526
13553SOL    HW144064   0.522   5.615   6.537 -0.2080 -0.2445 -0.4977
13553SOL    HW244065   0.436   5.722   6.472 -2.0266  0.2925  2.7036
13554SOL     OW44066   7.533   3.323   2.646  0.0154  0.1065  0.1352
13554SOL    HW144067   7.583   3.349   2.569 -0.9210 -0.5554 -0.7049
13554SOL    HW244068   7.448   3.366   2.636 -0.8441 -1.6521 -0.2713
13555SOL     OW44069   5.596   0.805   8.220  0.0422  0.1415 -0.3259
13555SOL    HW144070   5.511   0.833   8.185  0.2006  1.0908  0.0391
13555SOL    HW244071   5.582   0.799   8.314 -0.2963 -2.1070 -0.4953
13556SOL     OW44072   6.731   6.947  10.013  0.2340 -0.1679 -0.3116
13556SOL    HW144073   6.783   6.971  10.089 -1.5405 -0.4411  1.0282
13556SOL    HW244074   6.710   6.855  10.025 -0.9024  0.0368 -0.5977
13557SOL     OW44075   5.136   9.489   4.731  0.0006 -0.1723  0.0042
13557SOL    HW144076   5.053   9.535   4.743  0.1291  0.1970 -0.5091
13557SOL    HW244077   5.136   9.463   4.639  0.2091 -0.6489  0.1411
13558SOL     OW44078   2.847   2.347   1.684  0.1909 -0.3819  0.2292
13558SOL    HW144079   2.850   2.436   1.721  0.0439 -0.5423  0.6259
13558SOL    HW244080   2.913   2.348   1.616 -0.0175  0.1280  0.0319
13559SOL     OW44081   9.975   6.668   5.591  0.4460  0.0014  0.4637
13559SOL    HW144082  10.067   6.667   5.565  0.3314  0.3333  0.0287
13559SOL    HW244083   9.960   6.581   5.629  0.8958 -0.1123  0.3875
13560SOL     OW44084   6.849  10.234   8.821 -0.4030 -0.1309 -0.0040
13560SOL    HW144085   6.867  10.261   8.911 -0.9931 -0.8494  0.3301
13560SOL    HW244086   6.936  10.230   8.780 -0.2217  1.3611  0.1862
13561SOL     OW44087   8.629   3.488   6.073 -1.0096 -0.2900 -0.2901
13561SOL    HW144088   8.581   3.500   5.990  0.2360  0.4492 -0.9119
13561SOL    HW244089   8.619   3.395   6.093 -1.7609 -0.3684 -1.0004
13562SOL     OW44090  10.325  10.186   4.403  0.1999 -0.3528  0.1737
13562SOL    HW144091  10.276  10.133   4.466  0.8622 -0.4030  0.6535
13562SOL    HW244092  10.261  10.207   4.334 -0.4022 -0.6995  0.6206
13563SOL     OW44093   3.501   0.022   3.733  0.2672 -0.1104  0.0471
13563SOL    HW144094   3.439  -0.049   3.720 -1.0606  1.0655 -0.1514
13563SOL    HW244095   3.485   0.082   3.660 -1.0110  2.0823  2.0744
13564SOL     OW44096   5.784   4.345   2.130 -0.3260 -0.2585 -0.4625
13564SOL    HW144097   5.792   4.318   2.038 -0.7576 -2.2676  0.0664
13564SOL    HW244098   5.808   4.267   2.180 -0.3925  0.7322  1.1444
13565SOL     OW44099   1.228   0.641   3.241  0.1568 -0.0053  0.2032
13565SOL    HW144100   1.137   0.670   3.233  0.5967  1.3518 -0.0404
13565SOL    HW244101   1.278   0.722   3.254  1.4092 -0.6830 -0.3005
13566SOL     OW44102   1.502   6.100   0.847  0.2277 -0.5486  0.0192
13566SOL    HW144103   1.491   6.191   0.820  0.9869 -0.6351 -0.6095
13566SOL    HW244104   1.421   6.057   0.820  1.0465 -0.6781 -2.3585
13567SOL     OW44105   3.062  10.472   2.435 -0.2213  0.0735 -0.3300
13567SOL    HW144106   3.109  10.534   2.380  0.0765  1.5778  1.5778
13567SOL    HW244107   3.127  10.406   2.460  0.1459  0.5267 -0.0981
13568SOL     OW44108  10.020   8.106   9.614  0.7676  0.6177 -0.6584
13568SOL    HW144109   9.976   8.175   9.664  0.9800  0.8226 -0.7564
13568SOL    HW244110  10.026   8.141   9.525  0.4761  0.2935 -0.8090
13569SOL     OW44111   8.355   3.622   7.674  0.2335 -0.2763  0.2347
13569SOL    HW144112   8.272   3.655   7.639  1.0363  0.0686 -1.4019
13569SOL    HW244113   8.418   3.692   7.657  1.2188 -1.2213 -0.1094
13570SOL     OW44114  10.904   5.587   4.216  0.3610  0.1872 -0.5701
13570SOL    HW144115  10.848   5.516   4.247 -0.7228  1.1582 -0.2884
13570SOL    HW244116  10.890   5.591   4.122 -0.2570  0.6054 -0.4626
13571SOL     OW44117   0.334   8.324   9.771 -0.2756  0.0932  0.0447
13571SOL    HW144118   0.407   8.349   9.828  1.5136 -0.3744 -1.9777
13571SOL    HW244119   0.319   8.231   9.791  0.0621  0.0409  0.0550
13572SOL     OW44120  10.440   3.833   5.956  0.3589  0.2776 -0.4427
13572SOL    HW144121  10.400   3.873   6.033  1.6617  0.5262  0.1258
13572SOL    HW244122  10.459   3.907   5.897  0.3560  0.2114 -0.5272
13573SOL     OW44123   2.005   9.471   9.814  0.5242  0.4450  0.0908
13573SOL    HW144124   2.032   9.466   9.905 -0.1223 -0.8538  0.2278
13573SOL    HW244125   2.059   9.405   9.769  0.4277  0.6619 -0.3464
13574SOL     OW44126   2.265  10.081   7.338 -0.0852 -0.0192  0.1725
13574SOL    HW144127   2.209  10.064   7.414 -2.3059  0.9335 -1.1843
13574SOL    HW244128   2.275  10.176   7.336  0.3705 -0.0740 -0.4199
13575SOL     OW44129  10.726   0.362   0.841  0.1289  0.9093 -0.2101
13575SOL    HW144130  10.745   0.326   0.928  1.9544  0.7602 -0.6475
13575SOL    HW244131  10.636   0.336   0.824  0.8608 -2.0624  0.1823
13576SOL     OW44132   0.958   1.033   3.611  0.0693 -0.4974 -0.3418
13576SOL    HW144133   0.931   1.070   3.527  2.0867 -0.9360 -1.2052
13576SOL    HW244134   0.876   1.022   3.660 -1.1409 -0.3562 -2.2872
13577SOL     OW44135   6.779   7.222   6.935  0.1848  0.2995 -0.2554
13577SOL    HW144136   6.727   7.158   6.983  0.0795 -1.2077 -2.2848
13577SOL    HW244137   6.857   7.235   6.988  1.1461 -3.0558 -0.7461
13578SOL     OW44138  10.761   1.962   7.294 -0.9285  1.0102  0.1224
13578SOL    HW144139  10.726   1.935   7.380 -0.9688  0.5131 -0.0488
13578SOL    HW244140  10.841   1.910   7.283 -2.0663 -0.5530 -1.0991
13579SOL     OW44141   6.152   2.532   9.611  0.2560 -0.2894  0.0451
13579SOL    HW144142   6.084   2.579   9.658 -0.2363 -0.6637 -0.2918
13579SOL    HW244143   6.225   2.594   9.606 -0.0794  0.1323  0.3411
13580SOL     OW44144  10.931   1.204   1.948 -0.5460 -0.4593 -0.1352
13580SOL    HW144145  10.970   1.151   1.878 -0.9833 -0.2438 -0.5464
13580SOL    HW244146  10.838   1.181   1.947 -0.3575 -1.3220  1.1589
13581SOL     OW44147   0.822   2.859   8.516  0.1021 -0.1068  0.2136
13581SOL    HW144148   0.777   2.798   8.457 -0.3612 -0.3132  0.7798
13581SOL    HW244149   0.752   2.898   8.568  0.4058  0.8422 -0.0811
13582SOL     OW44150   7.776   7.093   0.668  0.1659 -0.4048 -0.2404
13582SOL    HW144151   7.688   7.063   0.645 -0.2006  0.6320 -0.1908
13582SOL    HW244152   7.779   7.185   0.642  1.2834 -0.4620 -0.3630
13583SOL     OW44153   7.146  10.492  10.171 -0.1394 -0.5663  0.3024
13583SOL    HW144154   7.171  10.559  10.109 -0.1277 -0.0100  0.9056
13583SOL    HW244155   7.216  10.427  10.167  0.8060  0.3958  1.1178
13584SOL     OW44156   6.748   2.166   3.538 -0.2185 -0.6693  0.3666
13584SOL    HW144157   6.797   2.085   3.529 -0.4218 -0.8620  0.9490
13584SOL    HW244158   6.813   2.235   3.526  0.0584 -0.9205  0.4110
13585SOL     OW44159   0.045   7.744   2.749 -0.2125 -0.2094 -0.3294
13585SOL    HW144160   0.010   7.788   2.672 -0.5835 -0.5683 -0.3699
13585SOL    HW244161   0.126   7.704   2.719 -1.5955 -2.4485 -1.2053
13586SOL     OW44162   7.694   2.451   0.643 -0.8393  0.6073 -0.5244
13586SOL    HW144163   7.604   2.448   0.674 -0.8575  0.0423 -0.6330
13586SOL    HW244164   7.746   2.468   0.721 -0.9474 -0.1057 -0.2985
13587SOL     OW44165   5.325   6.357   8.424 -0.2019 -0.7317  0.5934
13587SOL    HW144166   5.412   6.350   8.463 -0.0529 -0.8054  0.2540
13587SOL    HW244167   5.338   6.332   8.333 -0.6471 -1.0832  0.6273
13588SOL     OW44168   0.425   9.551   9.204 -0.1253  0.5932 -0.7650
13588SOL    HW144169   0.418   9.459   9.178 -3.0293  1.1294 -2.1001
13588SOL    HW244170   0.436   9.598   9.121  0.7449  1.5079 -0.1365
13589SOL     OW44171   1.250   2.903   7.944  0.4181 -0.0498  0.4635
13589SOL    HW144172   1.175   2.851   7.915  0.9906 -0.3059 -0.5943
13589SOL    HW244173   1.326   2.856   7.908  0.8905  2.0091 -1.3123
13590SOL     OW44174   3.754   1.743   9.876  0.2226  0.3211  0.2738
13590SOL    HW144175   3.761   1.838   9.880 -1.4427  0.4903 -0.5000
13590SOL    HW244176   3.766   1.722   9.784  2.7809 -0.4377  0.7375
13591SOL     OW44177   3.538   6.148   0.262 -0.0834 -0.2526 -0.1472
13591SOL    HW144178   3.594   6.219   0.232  0.4578 -1.0362 -1.0245
13591SOL    HW244179   3.587   6.068   0.240 -0.3252 -0.8853  1.5187
13592SOL     OW44180   5.623   6.867   7.621 -0.1847 -0.3523  0.1376
13592SOL    HW144181   5.581   6.800   7.567 -0.9253  0.6022 -0.4894
13592SOL    HW244182   5.557   6.935   7.629  0.9829  0.8392 -0.2369
13593SOL     OW44183   1.460   6.245   1.176 -0.1624  0.1575  0.2735
13593SOL    HW144184   1.453   6.227   1.270  0.2936  0.3805  0.3490
13593SOL    HW244185   1.419   6.332   1.166 -1.0918 -0.2885  0.1180
13594SOL     OW44186   0.314   2.997   2.113  0.1497 -0.2382  0.5673
13594SOL    HW144187   0.231   3.020   2.155  1.1404  0.1365  2.3767
13594SOL    HW244188   0.336   3.074   2.060  0.8444  0.9405  2.5055
13595SOL     OW44189   3.675   2.924  10.639  0.1044  0.5363 -0.1761
13595SOL    HW144190   3.726   3.000  10.668  1.2193 -0.2055 -0.1323
13595SOL    HW244191   3.705   2.853  10.695  0.8692 -0.4846 -1.8404
13596SOL     OW44192   6.349   3.875   0.962  0.0791  0.5839 -0.1775
13596SOL    HW144193   6.258   3.897   0.982  0.1225  0.6362 -0.0391
13596SOL    HW244194   6.344   3.823   0.881 -0.0269  1.0261 -0.4558
13597SOL     OW44195   9.907   2.130   8.642  0.1264  0.5626  0.4842
13597SOL    HW144196   9.842   2.083   8.695 -0.7180 -1.3525 -2.1141
13597SOL    HW244197   9.856   2.170   8.571  1.5458  0.5938 -0.5410
13598SOL     OW44198   7.874   9.785   3.996  0.0641  0.5728  0.6068
13598SOL    HW144199   7.832   9.864   4.031  3.1419  1.8310  1.6300
13598SOL    HW244200   7.937   9.817   3.932 -0.8869 -1.3077 -1.3436
13599SOL     OW44201   1.649   0.406   2.287 -0.3520 -0.4416 -0.1845
13599SOL    HW144202   1.721   0.437   2.231 -1.2650  0.7286 -0.7427
13599SOL    HW244203   1.571   0.446   2.249 -1.1670 -0.8105  1.0797
13600SOL     OW44204   6.316   6.930   3.572 -0.7651 -0.4304 -0.1524
13600SOL    HW144205   6.356   6.905   3.655  0.5301  1.1817 -0.2537
13600SOL    HW244206   6.357   6.874   3.507  2.6957  2.3339 -0.4918
13601SOL     OW44207   7.456  10.498  10.444 -0.0064 -0.4294 -0.4842
13601SOL    HW144208   7.374  10.543  10.465 -0.0026 -1.1731  1.1653
13601SOL    HW244209   7.490  10.546  10.368 -0.6113  1.5802  0.4796
13602SOL     OW44210   8.489   9.758   4.945 -0.1702 -0.2851 -0.2855
13602SOL    HW144211   8.458   9.806   4.869 -1.3356 -0.5032  0.0359
13602SOL    HW244212   8.421   9.692   4.961  1.0556 -1.5748 -0.2913
13603SOL     OW44213   1.634   7.606   5.882 -0.1050 -0.1141  0.5439
13603SOL    HW144214   1.686   7.672   5.835 -1.6429  0.1394 -0.8128
13603SOL    HW244215   1.616   7.647   5.967 -0.3898  0.8883  0.0043
13604SOL     OW44216   5.257   8.990   7.722  0.2634  0.0707  0.1799
13604SOL    HW144217   5.269   9.033   7.807  0.9497  0.5524 -0.1582
13604SOL    HW244218   5.318   8.916   7.724 -0.7582 -0.7840  0.6730
13605SOL     OW44219   1.938   7.740  10.716 -0.6489  0.2413  0.5294
13605SOL    HW144220   1.912   7.649  10.731  0.6243 -0.3780 -0.8896
13605SOL    HW244221   1.860   7.791  10.736 -1.2253 -1.1188  1.8498
13606SOL     OW44222  10.576   8.335   8.819  0.3374 -0.5730 -0.6146
13606SOL    HW144223  10.652   8.390   8.837  0.0398 -0.0628 -0.8881
13606SOL    HW244224  10.531   8.326   8.903 -0.3580  0.7498 -0.8301
13607SOL     OW44225   8.952   6.723   8.079  0.2284  0.0345  0.0123
13607SOL    HW144226   8.861   6.703   8.054 -0.9151  2.5353  2.0029
13607SOL    HW244227   8.976   6.652   8.139 -0.5619 -0.4015 -0.1751
13608SOL     OW44228   6.891   7.998   6.194 -0.0580  0.7857 -0.9018
13608SOL    HW144229   6.841   8.033   6.120  0.1883  1.7824 -0.5888
13608SOL    HW244230   6.825   7.957   6.250 -0.2353 -0.0992 -1.7258
13609SOL     OW44231   3.800   4.261   8.871 -0.0823  0.0795  0.1755
13609SOL    HW144232   3.817   4.353   8.890  0.0841  0.2320 -0.7048
13609SOL    HW244233   3.712   4.260   8.834  0.3501  0.0227 -0.8580
13610SOL     OW44234   6.185   0.793   1.120  0.1994  0.0518  0.0158
13610SOL    HW144235   6.151   0.880   1.101  0.0878 -0.0963 -0.4622
13610SOL    HW244236   6.225   0.764   1.038  1.3014  0.1436  0.5235
13611SOL     OW44237   4.890   3.492   5.415 -0.0357 -0.0452 -0.4904
13611SOL    HW144238   4.962   3.476   5.354  0.7005  0.0308  0.3595
13611SOL    HW244239   4.846   3.570   5.381  0.2223 -0.1450 -1.0576
13612SOL     OW44240   1.053   5.994   8.234 -0.0510  0.1543  0.5614
13612SOL    HW144241   0.972   6.044   8.228  0.9872  1.6698 -1.0218
13612SOL    HW244242   1.032   5.909   8.195 -0.6742  0.7864 -0.4851
13613SOL     OW44243   4.704   1.105   9.525  0.3925 -0.1695  0.2726
13613SOL    HW144244   4.645   1.043   9.568 -0.2220  0.1677 -0.0663
13613SOL    HW244245   4.769   1.127   9.592  0.3858 -0.8763  0.5168
13614SOL     OW44246   6.141   5.727   3.582  0.2903  0.6566 -0.6437
13614SOL    HW144247   6.140   5.639   3.544 -1.4920 -0.4600  1.8901
13614SOL    HW244248   6.051   5.757   3.579  0.5083  1.4981  0.5202
13615SOL     OW44249   8.832   1.906   6.229 -0.5849 -0.2462 -0.2313
13615SOL    HW144250   8.749   1.944   6.259  0.0740  0.5210  0.6448
13615SOL    HW244251   8.806   1.834   6.172 -1.8560  0.3765 -0.4536
13616SOL     OW44252   0.346   0.645   4.652 -0.6138  0.0508 -0.3865
13616SOL    HW144253   0.327   0.717   4.592  0.4622 -0.4328 -1.3385
13616SOL    HW244254   0.263   0.597   4.658 -1.3994  1.5076  0.4640
13617SOL     OW44255   1.052   0.526   0.389  0.4583  0.4600  0.1817
13617SOL    HW144256   1.039   0.444   0.436  0.5934  0.3121 -0.0415
13617SOL    HW244257   0.973   0.576   0.406  0.6877  0.5776  0.9256
13618SOL     OW44258   9.401   9.313   4.604  0.4682 -0.2624 -0.7913
13618SOL    HW144259   9.440   9.232   4.570  3.0322  1.1503 -1.3642
13618SOL    HW244260   9.446   9.329   4.687  0.1674  0.7093 -0.8029
13619SOL     OW44261   4.313   9.163   2.080  0.2800 -0.1191  0.0080
13619SOL    HW144262   4.266   9.105   2.020  0.3600 -0.5426  0.3492
13619SOL    HW244263   4.405   9.139   2.069  0.4318  0.7876 -0.7478
13620SOL     OW44264   6.043   5.337   7.204 -0.4106 -0.4897  0.1367
13620SOL    HW144265   6.069   5.280   7.276 -0.2200 -0.1808  0.3075
13620SOL    HW244266   6.030   5.277   7.130 -1.8375 -0.9646  0.7475
13621SOL     OW44267   8.596   1.718   7.622  0.1565  0.0577 -0.2906
13621SOL    HW144268   8.550   1.707   7.539 -0.6801 -0.5203  0.2486
13621SOL    HW244269   8.570   1.642   7.674 -0.0523  0.9070  0.8449
13622SOL     OW44270  10.694   5.723   5.474 -0.7137 -0.0715  0.4912
13622SOL    HW144271  10.776   5.751   5.434 -1.0282  2.8700  1.7459
13622SOL    HW244272  10.720   5.663   5.544  0.2619 -0.1513  0.0608
13623SOL     OW44273   7.173   9.721   2.605 -0.2434 -0.4132  0.3562
13623SOL    HW144274   7.140   9.792   2.552 -1.3608  0.2235  1.8586
13623SOL    HW244275   7.266   9.714   2.583  0.2488  2.5543  1.3278
13624SOL     OW44276   1.791   4.635   8.361  0.3634  0.6325 -0.0965
13624SOL    HW144277   1.723   4.667   8.421 -1.4532  0.4761 -2.0317
13624SOL    HW244278   1.851   4.587   8.418 -2.2624 -1.0315  1.4070
13625SOL     OW44279   3.023   0.308   3.494 -0.0566 -0.6327  0.1727
13625SOL    HW144280   3.027   0.331   3.401  0.4368  1.4124  0.6717
13625SOL    HW244281   2.932   0.323   3.519  0.3079  1.0638  0.5455
13626SOL     OW44282   3.444   6.782   7.442  0.0589  0.0871  0.0516
13626SOL    HW144283   3.452   6.726   7.519  1.2396  0.9148  0.5491
13626SOL    HW244284   3.531   6.821   7.432 -0.3386  0.6804 -1.1700
13627SOL     OW44285   0.341   3.972   9.375 -0.7101 -1.1106 -0.2371
13627SOL    HW144286   0.337   3.964   9.280  0.5603 -1.8746 -0.2478
13627SOL    HW244287   0.250   3.964   9.404 -1.2999  0.7205 -1.4908
13628SOL     OW44288   0.720   6.946   6.934  0.3523  0.0670  0.4565
13628SOL    HW144289   0.653   7.004   6.899  0.6400 -0.1803 -0.5131
13628SOL    HW244290   0.746   6.891   6.860  2.4327  0.9092  0.5296
13629SOL     OW44291   2.700   6.475  10.679 -0.0484  0.2985 -0.3772
13629SOL    HW144292   2.627   6.414  10.692 -0.1712  0.0982 -1.8435
13629SOL    HW244293   2.680   6.550  10.734 -0.3627 -0.6021  0.7444
13630SOL     OW44294   5.577   7.587   1.378 -0.2150  0.5372 -0.9296
13630SOL    HW144295   5.656   7.633   1.406 -0.2064  0.5309 -0.9440
13630SOL    HW244296   5.547   7.541   1.457  0.5416 -0.5333 -1.2649
13631SOL     OW44297   3.640   8.578   9.901 -0.0624 -0.1898 -0.3575
13631SOL    HW144298   3.604   8.585   9.989  1.8782 -1.3849  0.5786
13631SOL    HW244299   3.699   8.652   9.893  0.1275 -0.3504 -0.4606
13632SOL     OW44300   9.298   2.816  10.594  0.0044 -0.4005  0.3121
13632SOL    HW144301   9.213   2.794  10.556  0.2163 -0.9267  0.1448
13632SOL    HW244302   9.294   2.783  10.683  0.0845 -0.5492  0.2607
13633SOL     OW44303   2.841   0.662   3.526  0.2256  0.0963  0.1645
13633SOL    HW144304   2.931   0.660   3.494  0.7134  1.6195  1.3488
13633SOL    HW244305   2.806   0.576   3.506  1.8446 -0.3864 -0.6391
13634SOL     OW44306   3.669   6.115   3.572  0.2452 -0.0485 -0.2558
13634SOL    HW144307   3.653   6.042   3.512 -0.8578  0.5528 -0.6867
13634SOL    HW244308   3.701   6.185   3.516 -0.0001  0.2466 -0.0233
13635SOL     OW44309   8.470   3.909   4.356  0.1265  0.2944 -0.0077
13635SOL    HW144310   8.476   3.844   4.426 -0.3377 -0.8894 -1.0398
13635SOL    HW244311   8.376   3.931   4.352  0.1095  0.1548 -0.4299
13636SOL     OW44312   1.033   5.661   3.355 -0.3641  0.0988 -0.0324
13636SOL    HW144313   1.039   5.582   3.409  0.4347 -0.1286 -0.4528
13636SOL    HW244314   0.945   5.657   3.317  0.1939 -1.3847 -1.2439
13637SOL     OW44315  10.634   9.136   4.641 -0.6703  0.2708 -0.1404
13637SOL    HW144316  10.707   9.168   4.694 -1.4576  1.8966 -0.0069
13637SOL    HW244317  10.675   9.101   4.562  0.2267  1.9250 -0.4395
13638SOL     OW44318   7.595   7.855   8.684  0.4809  0.2620  0.5204
13638SOL    HW144319   7.683   7.821   8.697  0.1082 -0.3227  1.5846
13638SOL    HW244320   7.538   7.781   8.708 -0.3126  1.0513  1.0781
13639SOL     OW44321   7.987   0.535  10.052  0.2765 -0.8007 -0.0245
13639SOL    HW144322   7.896   0.531  10.023  0.4012 -1.1751 -0.3688
13639SOL    HW244323   8.036   0.489   9.984  1.1169  1.9505 -1.3600
13640SOL     OW44324   5.180   2.771   3.260 -0.9142 -0.2001  0.4712
13640SOL    HW144325   5.242   2.843   3.245 -0.7936  0.0527  2.0749
13640SOL    HW244326   5.230   2.692   3.242 -0.4946  0.0525  0.5244
13641SOL     OW44327   1.734   7.795  10.891 -0.2160 -0.6163  0.5995
13641SOL    HW144328   1.663   7.734  10.913 -0.0746 -0.8078  0.5291
13641SOL    HW244329   1.788   7.798  10.970 -0.3896 -0.3528  0.7046
13642SOL     OW44330   8.543   8.982  10.806  0.2033 -0.1990  0.0260
13642SOL    HW144331   8.449   8.977  10.820  0.1015 -1.2993 -0.9340
13642SOL    HW244332   8.553   9.019  10.719  0.5912 -1.6413 -0.5702
13643SOL     OW44333  10.158   1.745   1.452  0.3336  0.0063 -0.6510
13643SOL    HW144334  10.166   1.651   1.468  1.5478 -0.0369 -1.4291
13643SOL    HW244335  10.242   1.770   1.413  0.1357  1.4663 -0.1907
13644SOL     OW44336   9.501  10.611   7.157  0.3436  0.0390 -0.0556
13644SOL    HW144337   9.504  10.638   7.066  0.0076  0.7474  0.1446
13644SOL    HW244338   9.576  10.654   7.197  1.1279 -1.1303 -0.2244
13645SOL     OW44339   5.824   5.744   0.881  0.1938 -0.5658  0.1825
13645SOL    HW144340   5.862   5.831   0.872 -0.0075 -0.5082 -0.1181
13645SOL    HW244341   5.736   5.752   0.845  0.2247 -0.9279  0.0196
13646SOL     OW44342   7.224   6.992   8.695 -0.3426 -0.3333  0.3774
13646SOL    HW144343   7.226   7.003   8.790  1.1467 -0.6215  0.3913
13646SOL    HW244344   7.232   7.082   8.661  0.0089 -0.3118  0.5183
13647SOL     OW44345   8.479   6.468   5.213 -0.1978  0.4758 -0.0706
13647SOL    HW144346   8.435   6.391   5.176  0.3628 -1.3128  2.8378
13647SOL    HW244347   8.568   6.463   5.179 -0.1246 -0.2605  0.2118
13648SOL     OW44348   4.036  10.624   2.433 -0.2936 -0.3402 -0.3768
13648SOL    HW144349   3.941  10.613   2.445 -0.7796  1.2204 -2.3978
13648SOL    HW244350   4.064  10.546   2.387 -0.2952 -1.5086  1.5415
13649SOL     OW44351   6.391   4.794   2.571  0.1273 -0.6260 -0.3670
13649SOL    HW144352   6.459   4.842   2.617 -1.3343  2.3351 -1.1635
13649SOL    HW244353   6.349   4.741   2.639  1.3323 -0.2329  0.7010
13650SOL     OW44354   3.743   0.406   5.190  0.4682  0.3082 -0.0084
13650SOL    HW144355   3.703   0.397   5.103 -0.8032 -0.5287  0.6446
13650SOL    HW244356   3.837   0.399   5.173  0.1087 -4.2047 -0.8960
13651SOL     OW44357   1.647  10.525   2.460 -0.3872 -0.3914  0.3097
13651SOL    HW144358   1.595  10.544   2.538 -1.4817  2.8992 -1.1050
13651SOL    HW244359   1.722  10.585   2.466  0.5935 -1.5497 -0.1827
13652SOL     OW44360   8.469  10.858   1.809 -0.3225 -0.1595 -0.5756
13652SOL    HW144361   8.533  10.916   1.851 -2.1939  2.0200 -0.6119
13652SOL    HW244362   8.427  10.813   1.882 -0.3815  0.1715 -0.4054
13653SOL     OW44363   2.227   1.534   3.496  0.1497 -0.2464  0.3275
13653SOL    HW144364   2.153   1.576   3.453  0.1062 -0.7650 -0.1052
13653SOL    HW244365   2.192   1.505   3.581  0.2987  0.9805  0.8224
13654SOL     OW44366   0.303   9.609   7.293  0.1596 -0.7267 -0.7937
13654SOL    HW144367   0.385   9.559   7.301  0.7049  0.0479 -1.4684
13654SOL    HW244368   0.321   9.674   7.226 -0.4551  0.5621  0.2561
13655SOL     OW44369   2.794   6.484  10.184  0.1902  0.2185 -0.3208
13655SOL    HW144370   2.842   6.419  10.235 -0.7722  0.4798  0.9453
13655SOL    HW244371   2.846   6.496  10.104  1.0733 -1.0927  0.0531
13656SOL     OW44372   9.737   6.388   7.326  0.5142  0.1558  0.7248
13656SOL    HW144373   9.685   6.468   7.323 -0.4772 -0.5229 -2.1690
13656SOL    HW244374   9.704   6.340   7.403 -1.2745  0.9774  0.4988
13657SOL     OW44375   2.177   4.550   3.904  0.1842  0.1041 -0.1622
13657SOL    HW144376   2.253   4.545   3.845  0.8260  0.7663  0.6009
13657SOL    HW244377   2.158   4.644   3.910 -0.4593 -0.0342 -0.0471
13658SOL     OW44378   9.395   1.168   3.130  0.1684  0.7792  0.6159
13658SOL    HW144379   9.365   1.181   3.220 -1.6024 -0.5840  0.2367
13658SOL    HW244380   9.335   1.104   3.093  0.8814  1.3140 -1.5582
13659SOL     OW44381  10.229   8.909   7.491 -0.7264  0.5636 -0.0965
13659SOL    HW144382  10.150   8.865   7.460 -0.7473 -0.2130  1.0200
13659SOL    HW244383  10.262   8.852   7.561  0.1090  1.5343  0.3068
13660SOL     OW44384   8.205   8.728   1.117 -0.0296 -0.1565  0.2300
13660SOL    HW144385   8.208   8.644   1.162 -0.3980 -1.2770 -1.7494
13660SOL    HW244386   8.157   8.710   1.036 -0.1274  1.9676 -0.2248
13661SOL     OW44387   3.005   2.314  10.941 -0.1709 -0.0378  0.2344
13661SOL    HW144388   3.055   2.391  10.914  0.7656 -0.4366  0.8263
13661SOL    HW244389   2.937   2.350  10.998 -0.7195  0.5272 -0.7475
13662SOL     OW44390   1.979   1.903   9.340  0.1497 -0.6123  0.1251
13662SOL    HW144391   1.913   1.963   9.376  2.6155  1.9527  0.5454
13662SOL    HW244392   2.045   1.896   9.408  1.4430 -1.3290 -1.1800
13663SOL     OW44393   7.958   1.836  10.582 -0.0221  0.0224  0.2302
13663SOL    HW144394   7.961   1.773  10.654 -1.3907  0.3086  0.5355
13663SOL    HW244395   7.975   1.921  10.622  1.6232 -0.1024 -0.1546
13664SOL     OW44396   0.659   9.668   7.602  0.5204 -0.0943  0.4370
13664SOL    HW144397   0.639   9.627   7.686  1.4643  2.6803  2.0815
13664SOL    HW244398   0.575   9.703   7.572  0.0292 -1.7727 -0.1853
13665SOL     OW44399   1.762   9.450  10.178 -0.1889  0.2533 -0.0430
13665SOL    HW144400   1.846   9.495  10.189 -0.1475  0.1991 -0.1396
13665SOL    HW244401   1.784   9.357  10.182 -0.3909  0.2423  1.0261
13666SOL     OW44402  10.738   4.497   6.950 -0.1953 -0.2464 -0.6929
13666SOL    HW144403  10.722   4.518   7.042 -1.2558  3.0016 -1.5241
13666SOL    HW244404  10.700   4.410   6.938 -0.8849 -0.3122  1.7190
13667SOL     OW44405   8.984   7.436  10.960  0.1435  0.3130 -0.4861
13667SOL    HW144406   8.903   7.460  11.006  0.0984 -1.5142  0.3960
13667SOL    HW244407   9.054   7.468  11.017  0.0942 -2.3824  1.1232
13668SOL     OW44408   3.794   3.759   5.991 -0.3169  0.2163  0.7845
13668SOL    HW144409   3.831   3.819   5.926 -1.1715  1.5102  1.4833
13668SOL    HW244410   3.760   3.686   5.939  1.3973 -0.0360 -0.0098
13669SOL     OW44411   8.144   5.042   5.569 -0.1397 -0.3833 -0.2453
13669SOL    HW144412   8.072   5.075   5.515 -1.8792 -3.1383  0.2831
13669SOL    HW244413   8.197   5.119   5.587 -2.8483  1.7183 -0.8360
13670SOL     OW44414   1.693   2.445   9.931 -0.0738 -0.1573 -0.0865
13670SOL    HW144415   1.640   2.365   9.930 -0.7837  0.3188 -0.7613
13670SOL    HW244416   1.734   2.447   9.845  0.1822  0.0539  0.0399
13671SOL     OW44417   5.630   0.652   2.833 -0.7183  0.1458 -0.5316
13671SOL    HW144418   5.705   0.655   2.774  0.4288  0.4013  0.8996
13671SOL    HW244419   5.597   0.562   2.826 -0.3512  0.0621 -1.2343
13672SOL     OW44420   7.266   6.916   8.078 -1.0223 -0.0538  0.7551
13672SOL    HW144421   7.276   7.002   8.117  1.5739 -0.7146  1.6440
13672SOL    HW244422   7.330   6.915   8.007 -3.5912  0.0412 -1.6453
13673SOL     OW44423   9.747   0.832   4.879  0.2015 -0.2364 -0.3651
13673SOL    HW144424   9.751   0.748   4.924  2.6300 -0.2420 -0.5553
13673SOL    HW244425   9.656   0.861   4.891 -0.1546 -1.9557  1.3470
13674SOL     OW44426   2.192  10.006   9.622  0.1040  0.5441  0.0316
13674SOL    HW144427   2.158  10.048   9.543 -4.1065  0.6654  1.7608
13674SOL    HW244428   2.197  10.077   9.686  1.8518  0.1188  0.3942
13675SOL     OW44429   3.232   5.861  10.227  0.2061  0.1406  0.5820
13675SOL    HW144430   3.248   5.832  10.137  0.8217  0.7637  0.4880
13675SOL    HW244431   3.314   5.844  10.273 -0.3099 -0.7803  1.1973
13676SOL     OW44432   6.622   9.986   9.548  0.4153  0.1834 -0.5157
13676SOL    HW144433   6.531   9.992   9.577  0.1294 -1.4651 -1.0340
13676SOL    HW244434   6.631  10.054   9.482 -0.2304  0.8472  0.0686
13677SOL     OW44435   3.298   3.433   2.337 -0.0154 -0.3414 -0.4756
13677SOL    HW144436   3.212   3.403   2.368 -0.8550  1.1378 -1.3083
13677SOL    HW244437   3.280   3.518   2.296  2.0868  0.6994  0.6814
13678SOL     OW44438   2.867   5.653   4.304  0.3409 -0.4591 -0.1991
13678SOL    HW144439   2.835   5.564   4.289  1.4951 -1.1233  1.1955
13678SOL    HW244440   2.874   5.660   4.399  1.1878  0.7947 -0.3501
13679SOL     OW44441   0.368   5.031   8.232 -0.3197 -0.6486 -0.6586
13679SOL    HW144442   0.359   5.013   8.325 -0.5276 -1.0503 -0.7575
13679SOL    HW244443   0.347   5.125   8.224  1.1584 -0.2577 -0.1031
13680SOL     OW44444   8.653   4.568   7.359 -0.1583 -0.1921  0.0885
13680SOL    HW144445   8.601   4.582   7.438  0.6965 -2.2187  1.0510
13680SOL    HW244446   8.589   4.549   7.291 -0.8851  1.2872  0.3402
13681SOL     OW44447   7.881   4.496   7.617 -0.6752  0.5497 -0.3509
13681SOL    HW144448   7.793   4.495   7.656 -0.3614  1.0501  0.3786
13681SOL    HW244449   7.910   4.405   7.623 -0.0297  0.8625  2.0114
13682SOL     OW44450   8.757   6.331   6.314 -0.0056  0.2121 -0.0280
13682SOL    HW144451   8.768   6.313   6.221 -1.6522  0.2881 -0.2593
13682SOL    HW244452   8.728   6.422   6.318  0.0276  0.2023  0.5483
13683SOL     OW44453   2.210   4.292   8.194 -0.1390 -0.3185 -0.7905
13683SOL    HW144454   2.203   4.367   8.135 -1.8081 -1.0511 -1.5465
13683SOL    HW244455   2.288   4.245   8.164 -0.1798  0.0787 -1.5300
13684SOL     OW44456   3.815   2.708   2.980 -0.8904  0.4820  0.0223
13684SOL    HW144457   3.750   2.651   2.940 -0.5619  0.7752 -0.9309
13684SOL    HW244458   3.841   2.769   2.911 -0.0140  0.7263  0.5476
13685SOL     OW44459   2.845   7.200   6.501 -0.1692  0.2925 -0.0432
13685SOL    HW144460   2.819   7.150   6.578  2.0138  0.9781  1.1780
13685SOL    HW244461   2.771   7.192   6.441 -1.4620 -1.1274  1.6927
13686SOL     OW44462   8.138   0.055  10.020 -0.4591  0.7766  0.6180
13686SOL    HW144463   8.188   0.129  10.055 -0.9171 -0.0468  3.1070
13686SOL    HW244464   8.063   0.096   9.977  0.5840  1.8648 -0.2266
13687SOL     OW44465   1.294   3.622   3.499  0.6146 -0.1528  0.1454
13687SOL    HW144466   1.199   3.630   3.496  0.7312  1.1287 -0.4413
13687SOL    HW244467   1.310   3.529   3.514 -0.8102  0.1531  4.1982
13688SOL     OW44468   7.512   4.893   7.469  0.2976 -0.7102 -0.5708
13688SOL    HW144469   7.458   4.814   7.478 -1.0011  0.1575 -0.5442
13688SOL    HW244470   7.543   4.891   7.379 -0.0141 -1.0668 -0.6718
13689SOL     OW44471   6.184   2.180   8.815  0.0871 -0.5198  0.2123
13689SOL    HW144472   6.245   2.246   8.849 -0.2114 -0.1975  0.1263
13689SOL    HW244473   6.132   2.227   8.750  0.2217 -0.9726 -0.2252
13690SOL     OW44474   7.600  10.922  10.236 -0.5803  0.3341  0.0493
13690SOL    HW144475   7.563  11.001  10.275 -1.3897 -0.6639  1.3451
13690SOL    HW244476   7.692  10.943  10.222 -0.1496  0.6084  2.9120
13691SOL     OW44477  10.767   0.407   4.534 -0.2840  0.5065 -0.2497
13691SOL    HW144478  10.765   0.477   4.599  0.8688  0.7572 -0.4753
13691SOL    HW244479  10.730   0.446   4.455 -0.2431  0.6699 -0.1874
13692SOL     OW44480   5.971   8.310   2.262 -0.2165 -0.5461 -0.0204
13692SOL    HW144481   5.897   8.306   2.322  0.0036  0.5324  0.3255
13692SOL    HW244482   5.994   8.218   2.248 -0.3784 -0.8222  1.3983
13693SOL     OW44483   6.176   7.369   5.224 -0.1983 -0.6557  0.5353
13693SOL    HW144484   6.082   7.375   5.209  0.1048  0.1533 -1.1208
13693SOL    HW244485   6.215   7.377   5.137  1.4926  0.9829  1.4143
13694SOL     OW44486   8.090   7.493   5.188  0.2490 -0.2971 -0.5649
13694SOL    HW144487   8.069   7.405   5.157  0.0664  0.2999 -2.1652
13694SOL    HW244488   8.087   7.486   5.284 -1.2049 -1.6728 -0.6947
13695SOL     OW44489   2.680   1.379   2.822 -0.2711  0.6578 -0.3425
13695SOL    HW144490   2.770   1.407   2.833  0.4611 -1.1420 -1.5043
13695SOL    HW244491   2.673   1.299   2.874 -1.3495  1.0620  0.1538
13696SOL     OW44492   5.671   9.628   0.129 -0.6933 -0.0014 -0.4659
13696SOL    HW144493   5.591   9.592   0.168 -1.6062  0.3636 -1.9649
13696SOL    HW244494   5.720   9.662   0.204 -3.0508  1.9800  0.2543
13697SOL     OW44495  10.854   9.589   1.667 -0.2890 -0.1280  0.3232
13697SOL    HW144496  10.941   9.630   1.670  0.0175 -0.7830  0.6046
13697SOL    HW244497  10.819   9.601   1.755  0.5007 -1.9331  0.9140
13698SOL     OW44498   3.821   2.099  10.507  0.1683 -0.1607 -0.2562
13698SOL    HW144499   3.779   2.181  10.483  0.1731  0.8770  3.0592
13698SOL    HW244500   3.773   2.032  10.458 -2.1730  1.4511 -0.2075
13699SOL     OW44501   1.930   1.531   1.047  0.7831 -0.1545 -0.4602
13699SOL    HW144502   1.930   1.627   1.048  0.5795 -0.1595  0.4660
13699SOL    HW244503   2.016   1.507   1.081  0.7956 -0.2982 -0.5961
13700SOL     OW44504   6.930   3.092   6.590 -0.1744 -0.2420  0.0150
13700SOL    HW144505   6.866   3.044   6.538  0.0505  0.5487 -1.0105
13700SOL    HW244506   6.890   3.099   6.677 -1.5202  0.2830 -0.6262
13701SOL     OW44507   1.099   1.650  10.734  0.0372 -0.2055  0.1650
13701SOL    HW144508   1.057   1.590  10.672  0.1132 -1.7061  1.5455
13701SOL    HW244509   1.026   1.689  10.781  0.1012 -1.8843  1.7056
13702SOL     OW44510   0.768   8.523   2.925  0.2035 -0.0313 -0.1413
13702SOL    HW144511   0.846   8.474   2.954  1.0069  0.2584 -1.7415
13702SOL    HW244512   0.803   8.603   2.887 -0.9561  0.5579  0.0200
13703SOL     OW44513   4.362   5.331   7.218  0.0756 -0.6036  0.1521
13703SOL    HW144514   4.427   5.308   7.151  0.5153 -1.5708  0.8962
13703SOL    HW244515   4.401   5.404   7.265 -0.0118 -0.2483 -0.3235
13704SOL     OW44516   8.064   3.784   2.969 -0.3205  0.5297  0.1605
13704SOL    HW144517   8.072   3.718   3.038  1.3364 -0.6967 -1.1625
13704SOL    HW244518   8.102   3.864   3.008 -0.3428  0.1302  1.0143
13705SOL     OW44519   2.138   5.937  10.205 -0.2910  0.1575  0.6831
13705SOL    HW144520   2.222   5.971  10.237  0.3778 -0.3527 -0.5015
13705SOL    HW244521   2.123   5.984  10.123 -0.9531 -0.0775  0.6699
13706SOL     OW44522   4.202   2.436   9.786 -0.6728 -0.5973  0.1815
13706SOL    HW144523   4.139   2.364   9.779 -0.2565 -1.2544  2.6219
13706SOL    HW244524   4.156   2.502   9.839 -1.7498  1.7971 -3.5584
13707SOL     OW44525   7.752   6.199   1.968  0.1168  0.2954  0.6173
13707SOL    HW144526   7.676   6.142   1.977  0.7544 -0.8618 -1.0203
13707SOL    HW244527   7.768   6.203   1.874  0.6992  2.3761  0.7842
13708SOL     OW44528   1.087   8.221   0.937 -0.1688  0.5591  0.1749
13708SOL    HW144529   0.994   8.244   0.943 -0.6968 -1.5954  1.0242
13708SOL    HW244530   1.088   8.139   0.887  1.2725  0.5937  0.1343
13709SOL     OW44531   7.554   6.839   5.810 -0.0873  0.6625 -0.2996
13709SOL    HW144532   7.594   6.797   5.734 -0.0201  0.7847 -0.3313
13709SOL    HW244533   7.546   6.769   5.875  0.1449  0.6320 -0.3051
13710SOL     OW44534   9.476   3.546   3.706 -1.0717  0.1507  0.1460
13710SOL    HW144535   9.409   3.490   3.667 -1.7513  0.1334  1.2980
13710SOL    HW244536   9.431   3.589   3.779  0.4266 -0.6367  1.5725
13711SOL     OW44537   9.378   7.687   9.432 -0.0876  0.3291 -0.2536
13711SOL    HW144538   9.438   7.726   9.495  0.6598 -1.6410  0.3183
13711SOL    HW244539   9.388   7.592   9.445 -0.8538 -0.1023 -2.4441
13712SOL     OW44540  10.085   5.336   2.697 -0.5041  0.0828 -0.4205
13712SOL    HW144541  10.179   5.347   2.683 -0.1591  0.9613  2.2744
13712SOL    HW244542  10.075   5.248   2.732 -0.4497  0.6919  1.1444
13713SOL     OW44543   7.019   9.531   9.637 -0.1865  0.0351  0.3006
13713SOL    HW144544   7.008   9.594   9.708  1.7896 -0.0056  0.6897
13713SOL    HW244545   6.977   9.451   9.668  0.9147 -0.0646  1.5577
13714SOL     OW44546   4.154  10.218   0.089 -0.5948 -0.3014  0.7222
13714SOL    HW144547   4.130  10.295   0.140 -2.8268 -0.7325  0.3806
13714SOL    HW244548   4.204  10.164   0.150  0.4911  1.1420  1.1312
13715SOL     OW44549   9.602   3.099   4.182  0.2751 -0.2928  0.4342
13715SOL    HW144550   9.521   3.108   4.233  0.3882 -0.1365  0.5822
13715SOL    HW244551   9.646   3.183   4.192 -1.0924  0.8254 -2.3395
13716SOL     OW44552   2.162   1.359   2.065 -0.5323 -0.1853  0.2293
13716SOL    HW144553   2.198   1.356   1.976  2.6176 -0.9346  1.4325
13716SOL    HW244554   2.179   1.272   2.101 -0.8058  0.4217  1.8893
13717SOL     OW44555   8.746   4.228   7.388  0.1214  0.2989  0.1763
13717SOL    HW144556   8.765   4.166   7.458 -2.2838 -0.3194  0.3255
13717SOL    HW244557   8.684   4.183   7.332 -0.7718  2.1431 -0.3564
13718SOL     OW44558   4.053   5.379   3.011 -0.5167  0.4650 -0.0903
13718SOL    HW144559   3.979   5.440   3.012 -0.5493  0.4598  2.1987
13718SOL    HW244560   4.126   5.431   3.045 -0.4050 -0.5718  1.3239
13719SOL     OW44561   4.613   8.403   6.119 -0.1102 -0.4801  0.3666
13719SOL    HW144562   4.602   8.481   6.173  2.4024  0.2071 -0.0556
13719SOL    HW244563   4.589   8.331   6.176 -2.5677  0.5814  0.7395
13720SOL     OW44564   1.637   1.624   8.482 -0.4826  0.2006 -0.3584
13720SOL    HW144565   1.732   1.629   8.473 -0.4666  0.9355  0.1678
13720SOL    HW244566   1.623   1.551   8.543 -0.4231 -2.0432 -2.9172
13721SOL     OW44567   9.467   2.164   9.847  0.4756 -0.0386  0.3918
13721SOL    HW144568   9.406   2.192   9.778  2.0316 -0.0651 -1.0110
13721SOL    HW244569   9.500   2.246   9.884  1.1549 -0.0192 -0.2541
13722SOL     OW44570   8.463   2.539   4.000 -0.5333 -0.0120 -0.0405
13722SOL    HW144571   8.461   2.543   3.904 -2.4478 -0.6429 -0.0451
13722SOL    HW244572   8.403   2.608   4.028 -1.5499 -1.1709  0.6647
13723SOL     OW44573   2.132   5.109   7.500 -0.5327  0.1145  0.5331
13723SOL    HW144574   2.131   5.204   7.494  1.8317  0.0552 -1.4208
13723SOL    HW244575   2.090   5.079   7.419 -1.3485 -0.5158  1.1780
13724SOL     OW44576   4.771   2.581   1.562  0.0172 -1.1514  0.4249
13724SOL    HW144577   4.675   2.587   1.564 -0.0432 -2.3281  0.8952
13724SOL    HW244578   4.792   2.499   1.606  1.2034 -1.3642 -0.4948
13725SOL     OW44579   5.740   3.333   1.723  0.4927  0.2938  0.3590
13725SOL    HW144580   5.668   3.299   1.670  1.7870 -0.3626 -1.0326
13725SOL    HW244581   5.771   3.409   1.675  0.8594  0.4472  0.8387
13726SOL     OW44582   8.906   8.877  10.509  0.3295 -0.4871 -0.2717
13726SOL    HW144583   8.879   8.933  10.581 -0.6741 -0.1661 -0.8885
13726SOL    HW244584   8.850   8.800  10.515  0.1707 -0.4157 -0.7652
13727SOL     OW44585   9.443   5.502   3.262 -0.0448  0.1460 -0.1608
13727SOL    HW144586   9.354   5.482   3.233  0.3076  0.3787 -1.4483
13727SOL    HW244587   9.468   5.428   3.317 -1.2451  0.3622  0.6870
13728SOL     OW44588   1.982   0.476   7.941  0.3198  0.1926 -0.1354
13728SOL    HW144589   2.060   0.491   7.994 -0.9584  2.3428  1.2154
13728SOL    HW244590   1.930   0.414   7.993 -0.1189  0.9043  0.2765
13729SOL     OW44591   0.646   6.092   2.627  0.0904 -0.0256  0.3096
13729SOL    HW144592   0.622   6.103   2.535 -0.5645  1.0468  0.6006
13729SOL    HW244593   0.663   6.181   2.658  1.5066 -0.5006  0.9033
13730SOL     OW44594   8.153   2.611   1.404  0.8138  0.1067 -0.1210
13730SOL    HW144595   8.063   2.578   1.395  0.6946  1.0768 -3.0729
13730SOL    HW244596   8.174   2.599   1.497 -2.9645  1.4499  0.9794
13731SOL     OW44597   1.901   1.654   8.460  0.0976  0.0636 -0.1400
13731SOL    HW144598   1.984   1.695   8.437  0.3995 -0.8143 -0.6632
13731SOL    HW244599   1.905   1.567   8.418 -1.1138  0.0500 -0.2458
13732SOL     OW44600   0.102   3.729   0.154  0.3040  0.0762 -0.2780
13732SOL    HW144601   0.126   3.821   0.138 -1.8652  0.4982 -1.1840
13732SOL    HW244602   0.116   3.686   0.069  1.7389 -0.5611  0.2549
13733SOL     OW44603   0.928  10.133   3.163 -0.8337 -0.2633  0.5545
13733SOL    HW144604   0.941  10.038   3.164 -1.3182 -0.3306  0.4093
13733SOL    HW244605   0.885  10.152   3.246  1.8180  0.1990  1.8874
13734SOL     OW44606   5.511   5.213   3.980  0.1606 -0.3476  0.6843
13734SOL    HW144607   5.534   5.212   4.073 -0.5937 -1.8517  0.8771
13734SOL    HW244608   5.417   5.228   3.978  0.4892  1.7915  0.0541
13735SOL     OW44609   8.587   5.009   0.722 -0.0986 -0.4338 -0.2470
13735SOL    HW144610   8.600   4.947   0.650 -2.4950 -1.3773  0.0776
13735SOL    HW244611   8.513   5.063   0.693 -1.3267 -1.0623  1.6385
13736SOL     OW44612   9.209   7.719  10.948  0.3701  0.1395  0.5588
13736SOL    HW144613   9.206   7.653  11.017  3.6157  0.6776  1.3059
13736SOL    HW244614   9.216   7.669  10.867  0.3819 -0.4569  0.9247
13737SOL     OW44615   4.640   4.882   6.247  0.8521  0.4070  0.9181
13737SOL    HW144616   4.723   4.844   6.219  1.2369  0.3371  2.1196
13737SOL    HW244617   4.638   4.969   6.207  1.4287  0.3353  0.7387
13738SOL     OW44618   0.922   1.210   9.710 -0.1344  0.3941  0.8502
13738SOL    HW144619   0.835   1.241   9.738 -0.1516 -0.3263  1.6152
13738SOL    HW244620   0.981   1.281   9.736 -0.4916  0.9113  0.2817
13739SOL     OW44621   7.766   2.723   7.634  0.3907 -0.1086  0.1624
13739SOL    HW144622   7.850   2.706   7.590  0.3576 -0.6107  0.2923
13739SOL    HW244623   7.705   2.663   7.591  0.2193 -0.1388  0.4510
13740SOL     OW44624   9.997   2.051  10.342 -0.4473 -0.2796 -0.2238
13740SOL    HW144625   9.912   2.094  10.335 -0.5269 -0.1239  1.4900
13740SOL    HW244626   9.977   1.965  10.378  0.1695 -0.0441  0.7001
13741SOL     OW44627  10.526   0.424   8.290 -0.1787 -0.1889  0.3326
13741SOL    HW144628  10.491   0.344   8.329  1.4996 -0.5034  1.2806
13741SOL    HW244629  10.488   0.427   8.202 -2.6183 -0.4234  1.3469
13742SOL     OW44630   2.308   6.478   0.976  0.2250  0.2958  0.2020
13742SOL    HW144631   2.254   6.532   0.919 -0.2829 -0.8013 -0.3861
13742SOL    HW244632   2.375   6.442   0.918  0.8245  0.6413  0.6740
13743SOL     OW44633   8.351   1.180   9.076 -0.0088 -0.2005  0.2909
13743SOL    HW144634   8.433   1.133   9.090 -0.2639 -1.8359 -3.2994
13743SOL    HW244635   8.284   1.111   9.079 -0.8084  0.5138 -0.9132
13744SOL     OW44636   8.089  10.445   5.746 -0.3782  0.5347  0.2935
13744SOL    HW144637   7.998  10.450   5.776 -0.3649 -0.9832  0.6549
13744SOL    HW244638   8.141  10.477   5.820 -0.5926  1.1012  0.2026
13745SOL     OW44639  10.975   5.034   3.758 -0.7467 -0.2183 -0.6240
13745SOL    HW144640  10.991   4.955   3.707 -1.5536 -2.5237  2.5360
13745SOL    HW244641  10.882   5.028   3.782 -0.6503  1.3570  0.1870
13746SOL     OW44642   4.558   4.090   5.901  0.3959  0.0758 -0.0418
13746SOL    HW144643   4.639   4.037   5.901 -0.3575 -1.1016  1.1573
13746SOL    HW244644   4.509   4.057   5.825  1.2724  1.1728 -1.0992
13747SOL     OW44645   6.628   0.760   2.679 -0.2939  0.0170 -0.1252
13747SOL    HW144646   6.613   0.802   2.595 -1.3234  1.5317  0.7963
13747SOL    HW244647   6.643   0.668   2.658  0.0647  0.4924 -2.0043
13748SOL     OW44648   9.398   9.440   2.007  0.2371 -0.8818  1.5160
13748SOL    HW144649   9.433   9.399   2.086 -1.1435 -0.1783  2.5253
13748SOL    HW244650   9.455   9.516   1.993  0.1409 -0.6851  2.1717
13749SOL     OW44651   8.011   2.534   6.503 -0.0465 -0.5974 -0.3255
13749SOL    HW144652   7.973   2.600   6.444  0.6775  0.9314  0.8842
13749SOL    HW244653   7.938   2.476   6.524 -0.9442  0.4157 -0.6046
13750SOL     OW44654   9.835   8.614   6.482  0.0916  0.5760 -0.1652
13750SOL    HW144655   9.746   8.648   6.489  0.3184  0.9734  1.0532
13750SOL    HW244656   9.825   8.519   6.484 -0.3028  0.6227  0.0993
13751SOL     OW44657   5.619   8.663   1.839  0.2218  0.0053  0.3516
13751SOL    HW144658   5.684   8.598   1.814 -0.0388 -0.3155  0.4972
13751SOL    HW244659   5.628   8.671   1.934 -1.8789 -2.1658  0.7808
13752SOL     OW44660   7.863   9.967   9.511  0.1561  0.4672  0.6925
13752SOL    HW144661   7.908  10.048   9.535  0.6863  0.0116  1.2463
13752SOL    HW244662   7.819   9.940   9.591 -0.1545  0.2940  0.4614
13753SOL     OW44663   0.626   0.748   1.461 -0.3837  0.3669  0.5876
13753SOL    HW144664   0.688   0.820   1.468  0.0963 -0.0640  0.8057
13753SOL    HW244665   0.637   0.699   1.542 -0.4394 -0.1618  0.2809
13754SOL     OW44666   8.940  10.674   2.311 -0.7357 -0.0091 -0.4189
13754SOL    HW144667   8.987  10.591   2.325 -1.6052 -0.9150 -2.6244
13754SOL    HW244668   8.854  10.658   2.348 -0.9634 -0.1789 -1.0075
13755SOL     OW44669   1.880   7.681  10.315 -0.0372 -0.2924  0.3602
13755SOL    HW144670   1.867   7.675  10.220  0.6945 -1.3072  0.3126
13755SOL    HW244671   1.831   7.607  10.350 -0.4522  0.1855  0.7930
13756SOL     OW44672   2.614   6.249   0.490 -0.2750 -0.1897  0.3482
13756SOL    HW144673   2.530   6.223   0.526 -0.3829 -0.1285  0.1406
13756SOL    HW244674   2.593   6.286   0.405 -0.3917  2.6027  1.5222
13757SOL     OW44675   5.615   6.170   9.799 -0.2545  0.4884  0.3026
13757SOL    HW144676   5.548   6.168   9.867  0.2767  0.8752  0.8376
13757SOL    HW244677   5.692   6.208   9.841  0.1707  0.4562 -0.4283
13758SOL     OW44678   6.887   8.726   7.561 -0.0574  0.0777 -0.1242
13758SOL    HW144679   6.887   8.659   7.629  1.2253 -0.5407 -0.7157
13758SOL    HW244680   6.806   8.775   7.575  1.2697  1.4257  3.2555
13759SOL     OW44681   6.170   1.500   9.936  0.2605  0.0339 -0.4719
13759SOL    HW144682   6.255   1.460   9.956 -0.4852 -1.4839 -0.2529
13759SOL    HW244683   6.184   1.548   9.855  1.4440  0.1528 -0.1988
13760SOL     OW44684   5.264   6.377   7.060 -0.5487 -0.5799  0.0979
13760SOL    HW144685   5.241   6.469   7.077  2.4184  0.2635 -0.2861
13760SOL    HW244686   5.328   6.380   6.990 -0.4970 -2.9832 -0.0066
13761SOL     OW44687   1.219   3.807   0.041  0.3987 -0.0003  0.0452
13761SOL    HW144688   1.141   3.861   0.028 -2.3662 -3.7255  0.3678
13761SOL    HW244689   1.245   3.824   0.132  0.2985  1.6231 -0.2146
13762SOL     OW44690   9.870   8.797   2.783  0.3462 -0.1848  0.4838
13762SOL    HW144691   9.855   8.774   2.875  1.1953 -1.2512  0.3634
13762SOL    HW244692   9.935   8.733   2.753  1.5539  1.3833 -0.3012
13763SOL     OW44693   2.144   8.988   5.915  0.0743  0.5383 -0.1560
13763SOL    HW144694   2.128   8.943   5.998  0.0699 -0.1780 -0.5413
13763SOL    HW244695   2.213   9.051   5.935  0.2272  0.2188  0.3434
13764SOL     OW44696   8.330   3.401   6.505 -0.5747 -0.4631  0.3479
13764SOL    HW144697   8.367   3.330   6.557  1.0831  0.4775  0.4886
13764SOL    HW244698   8.255   3.432   6.557 -0.5364 -1.2763  0.8874
13765SOL     OW44699   8.618   6.056   7.600  0.1600 -0.6520 -0.5054
13765SOL    HW144700   8.639   5.972   7.559  1.5979 -0.7191  0.3295
13765SOL    HW244701   8.637   6.121   7.532  0.5090 -0.9086 -0.6592
13766SOL     OW44702   1.691  10.411   2.051 -0.3456 -0.1443  0.2624
13766SOL    HW144703   1.719  10.378   2.136 -1.7830 -0.8047  0.4928
13766SOL    HW244704   1.689  10.506   2.060  0.4882 -0.1603  0.6462
13767SOL     OW44705   9.397   0.165   5.184 -0.1098  0.1756 -0.1094
13767SOL    HW144706   9.344   0.216   5.122  0.4504 -1.4532 -1.9522
13767SOL    HW244707   9.453   0.230   5.226  0.8101  1.0898 -2.6440
13768SOL     OW44708   2.623   3.555   5.777  0.2896 -0.0288 -0.1939
13768SOL    HW144709   2.564   3.481   5.763  1.0761 -0.1547 -3.0931
13768SOL    HW244710   2.682   3.526   5.846 -0.7703 -1.2806  0.2137
13769SOL     OW44711   4.455   9.320  10.349 -0.5841 -0.3582  0.1934
13769SOL    HW144712   4.380   9.331  10.407  0.5090  0.5970  1.4533
13769SOL    HW244713   4.470   9.408  10.313 -0.8391 -0.8018 -1.0346
13770SOL     OW44714   5.903   6.401   4.250  0.2487 -0.0161  0.2608
13770SOL    HW144715   5.886   6.388   4.156 -1.5532 -0.0062  0.5606
13770SOL    HW244716   5.998   6.405   4.257  0.3785  0.9516 -1.7021
13771SOL     OW44717   5.580   1.490   4.562 -0.2651 -0.5523  0.1812
13771SOL    HW144718   5.534   1.538   4.631 -0.8768  2.6260 -2.3132
13771SOL    HW244719   5.655   1.545   4.540 -0.2901 -1.3089 -1.9411
13772SOL     OW44720   8.655   8.769   8.136 -0.5700  0.8362 -0.4097
13772SOL    HW144721   8.660   8.716   8.056  3.5655 -2.6339  1.9878
13772SOL    HW244722   8.736   8.819   8.137 -0.0965  0.0519  2.1422
13773SOL     OW44723  10.215   5.254   8.649  0.3797 -0.5518 -0.4004
13773SOL    HW144724  10.121   5.262   8.635 -0.0124 -1.6535  1.4599
13773SOL    HW244725  10.230   5.160   8.659  1.6131 -0.3543 -0.2776
13774SOL     OW44726   4.161   7.699   5.431  0.0560  0.2066  0.1823
13774SOL    HW144727   4.253   7.709   5.457  0.0997 -0.1480  0.1663
13774SOL    HW244728   4.166   7.666   5.341 -0.0889  2.1599 -0.5807
13775SOL     OW44729  10.289   3.947   1.696  0.5461 -0.7048  0.1062
13775SOL    HW144730  10.229   3.893   1.747  0.8264  0.3306  1.5789
13775SOL    HW244731  10.345   3.989   1.762  0.9764  0.5877 -1.0633
13776SOL     OW44732   0.053   0.735   6.401  0.0210  0.1682  0.0583
13776SOL    HW144733   0.086   0.791   6.331  0.4686 -0.8100 -0.5195
13776SOL    HW244734  -0.021   0.784   6.438 -0.5701  0.4453 -1.4609
13777SOL     OW44735  10.831   4.501   9.229 -0.0800  0.4394 -0.5573
13777SOL    HW144736  10.904   4.554   9.197  0.0811  0.5497 -0.0050
13777SOL    HW244737  10.752   4.546   9.197  0.0815  0.4643 -0.9247
13778SOL     OW44738   5.080   9.384   5.995 -0.3997  0.2619  0.4683
13778SOL    HW144739   5.082   9.465   5.943 -1.6381 -0.1749 -0.3021
13778SOL    HW244740   5.172   9.365   6.014  0.1544  0.0055 -2.2786
13779SOL     OW44741   0.313   8.131   3.729  0.1995  0.2502 -0.3488
13779SOL    HW144742   0.267   8.202   3.773 -2.1019 -1.0689 -0.5519
13779SOL    HW244743   0.371   8.094   3.796 -0.5663  0.6046  0.5092
13780SOL     OW44744   1.804   0.027  10.152  0.3250  0.0138 -0.1234
13780SOL    HW144745   1.759  -0.006  10.230  0.4468  0.9109  0.3313
13780SOL    HW244746   1.873  -0.037  10.136 -0.1626 -0.5663  0.0717
13781SOL     OW44747   4.796   0.384   1.397 -0.1918  0.0738  0.0435
13781SOL    HW144748   4.817   0.475   1.416  1.8901 -0.4821  0.5901
13781SOL    HW244749   4.864   0.356   1.335  0.6572 -1.7749  1.7374
13782SOL     OW44750   1.099   6.000   8.490  0.6492  0.3331  0.0638
13782SOL    HW144751   1.181   6.050   8.493 -0.1502  1.7734 -0.8658
13782SOL    HW244752   1.073   6.004   8.398 -1.6359  1.8765  0.7338
13783SOL     OW44753   9.410   8.643   7.196  0.1138  0.0410  0.3547
13783SOL    HW144754   9.454   8.727   7.214  0.6843 -0.3110  0.6176
13783SOL    HW244755   9.481   8.583   7.176 -0.2493 -0.5434  0.8129
13784SOL     OW44756   1.613   3.563  10.904 -0.2164  0.4570 -0.5769
13784SOL    HW144757   1.585   3.642  10.857 -1.7902  0.4149  0.2490
13784SOL    HW244758   1.556   3.494  10.870  0.1079 -0.0059 -0.1811
13785SOL     OW44759  10.310   0.437   5.663  0.1459  0.3669 -0.4472
13785SOL    HW144760  10.383   0.439   5.602 -0.0858  0.9116 -0.7115
13785SOL    HW244761  10.326   0.510   5.723 -0.1285  0.4315 -0.4493
13786SOL     OW44762   9.734   0.221   6.407  0.2363 -0.1680 -0.1160
13786SOL    HW144763   9.807   0.197   6.465  0.5063 -0.1892 -0.4599
13786SOL    HW244764   9.662   0.164   6.435  0.3109 -0.0576  0.3109
13787SOL     OW44765   7.892   2.911   5.208 -0.1852 -0.1867 -0.7656
13787SOL    HW144766   7.892   2.828   5.256 -1.1859 -0.1857 -0.7407
13787SOL    HW244767   7.888   2.978   5.276  1.4941 -0.0883 -0.7589
13788SOL     OW44768   4.546   2.926   4.154  0.1096 -1.1036 -0.4908
13788SOL    HW144769   4.506   3.010   4.133 -0.9924 -1.1089  1.4826
13788SOL    HW244770   4.496   2.862   4.103  0.9970 -0.5930 -2.0529
13789SOL     OW44771   5.708   2.527   3.211 -0.2713 -0.0930 -0.0379
13789SOL    HW144772   5.692   2.457   3.147  0.8248 -0.8944  0.5525
13789SOL    HW244773   5.642   2.594   3.190  1.0369  0.3755 -3.0434
13790SOL     OW44774   7.912   1.026   5.016  0.1708 -0.0451 -0.0533
13790SOL    HW144775   7.951   0.939   5.016  0.4320  0.0609 -0.9970
13790SOL    HW244776   7.912   1.052   4.924  0.7115  1.2312  0.2996
13791SOL     OW44777   3.197   2.633   9.567  0.1424 -0.1007 -0.3055
13791SOL    HW144778   3.185   2.658   9.475 -1.0088  2.0674  0.3747
13791SOL    HW244779   3.219   2.540   9.565  0.0255 -0.0977 -2.7655
13792SOL     OW44780  10.341   6.273  10.790 -0.0914 -1.1207 -0.0677
13792SOL    HW144781  10.352   6.361  10.756 -1.7154 -0.4888  0.9733
13792SOL    HW244782  10.301   6.223  10.719  2.7181 -1.5863 -1.3771
13793SOL     OW44783   2.724   5.069   8.158 -0.1298 -0.3481  0.4415
13793SOL    HW144784   2.651   5.060   8.098  0.2047  1.2699 -0.2380
13793SOL    HW244785   2.743   4.980   8.188 -2.8234 -0.7066  1.1814
13794SOL     OW44786   6.317   2.205   0.542 -0.2506  0.2054 -0.3448
13794SOL    HW144787   6.394   2.199   0.598  0.5970 -0.2826 -1.5294
13794SOL    HW244788   6.269   2.282   0.574  2.0607  2.0631 -1.2252
13795SOL     OW44789   4.815   3.658   0.614 -0.2700  0.4239 -0.0997
13795SOL    HW144790   4.830   3.567   0.637  1.5238  0.7440  0.0608
13795SOL    HW244791   4.884   3.707   0.659 -0.6099  1.7524 -0.9657
13796SOL     OW44792   5.843  10.588   1.926 -0.1716 -0.4162 -0.1023
13796SOL    HW144793   5.899  10.518   1.895 -1.0360 -0.6648 -1.1089
13796SOL    HW244794   5.885  10.618   2.007  1.6788 -0.2536 -1.1020
13797SOL     OW44795   0.332   3.053   6.364  0.1459 -0.2537  0.3619
13797SOL    HW144796   0.397   2.987   6.339 -0.3440 -1.1801  1.5145
13797SOL    HW244797   0.252   3.004   6.378 -0.9115  0.9291 -1.3429
13798SOL     OW44798   6.315   4.243  10.432 -0.5329 -0.5379  0.0784
13798SOL    HW144799   6.402   4.238  10.472 -0.9930  2.2275  1.5729
13798SOL    HW244800   6.262   4.182  10.484  0.2051 -1.2225  0.0292
13799SOL     OW44801   1.859   2.957   2.220 -0.5918 -0.1380 -0.0640
13799SOL    HW144802   1.800   2.885   2.200 -0.9922  0.6989 -2.0283
13799SOL    HW244803   1.874   2.951   2.314 -3.1438 -0.8752  0.3204
13800SOL     OW44804   0.064   8.635   4.096  0.4503  0.0854 -0.2756
13800SOL    HW144805   0.014   8.554   4.086  2.2883 -0.8439 -2.2641
13800SOL    HW244806   0.140   8.610   4.149 -0.4565  1.1845  1.5745
13801SOL     OW44807   2.101   1.699   0.577 -0.2525 -0.2604  0.1387
13801SOL    HW144808   2.162   1.703   0.503  0.1881  1.2613  0.5727
13801SOL    HW244809   2.119   1.614   0.617  0.6650 -0.3957 -0.5232
13802SOL     OW44810   1.570   1.462   8.701  0.5262  0.4207  0.0034
13802SOL    HW144811   1.650   1.426   8.739 -1.1138 -3.3848  0.1598
13802SOL    HW244812   1.514   1.480   8.777  0.2940  0.6239 -0.2170
13803SOL     OW44813   6.991  10.354   4.600  0.0051  0.8347 -0.2938
13803SOL    HW144814   6.899  10.378   4.593 -0.3831 -0.5203 -0.0560
13803SOL    HW244815   6.991  10.273   4.652  1.1611 -0.2097 -1.8515
13804SOL     OW44816   2.394   1.085   1.701 -0.1552  0.0103  0.0759
13804SOL    HW144817   2.324   1.069   1.637  0.1261  1.8016 -0.7325
13804SOL    HW244818   2.397   1.180   1.709 -0.2871 -0.2031  2.9195
13805SOL     OW44819   1.322   1.187   4.895  0.1462 -0.1130  0.0933
13805SOL    HW144820   1.228   1.173   4.903  0.3161 -1.0324  0.6036
13805SOL    HW244821   1.357   1.165   4.982  0.7539  0.8776  0.1058
13806SOL     OW44822   6.080   5.026  10.788  0.0596 -0.0560 -0.2363
13806SOL    HW144823   6.015   5.045  10.856  1.9573  0.6469  1.4402
13806SOL    HW244824   6.121   5.110  10.770  0.1206 -0.3883 -1.6871
13807SOL     OW44825   3.191   2.041   0.514  0.1569  0.2458 -0.0173
13807SOL    HW144826   3.273   1.991   0.524  0.4373  1.1709  2.8218
13807SOL    HW244827   3.126   1.989   0.561 -0.0415  1.3609  0.9805
13808SOL     OW44828   0.149   9.888   3.333  0.7240 -0.4894  0.5913
13808SOL    HW144829   0.109   9.895   3.246 -1.1088 -2.6223  1.2268
13808SOL    HW244830   0.154   9.979   3.364 -1.5988  0.0254 -0.4454
13809SOL     OW44831   7.607   0.619   7.341 -0.0648  0.0042 -0.1034
13809SOL    HW144832   7.551   0.542   7.332  0.4652 -0.3968 -0.0580
13809SOL    HW244833   7.592   0.669   7.261 -0.9781  0.2400  0.2105
13810SOL     OW44834  10.934  10.222   4.711 -0.0764  0.1177 -0.0679
13810SOL    HW144835  10.913  10.153   4.773 -2.8832  0.2757 -0.7777
13810SOL    HW244836  10.978  10.289   4.764 -2.2945  0.2022  1.7538
13811SOL     OW44837   1.198   1.595   3.351 -0.2242  0.0264  0.0820
13811SOL    HW144838   1.124   1.611   3.293  1.3433 -1.3464 -2.4098
13811SOL    HW244839   1.171   1.521   3.405 -0.7820 -0.2816 -0.6169
13812SOL     OW44840   8.883   8.816   2.906  0.5826  0.1868 -0.2998
13812SOL    HW144841   8.953   8.848   2.964  0.3434 -2.0328  1.2795
13812SOL    HW244842   8.929   8.761   2.842  0.5931  0.8658 -0.8730
13813SOL     OW44843   7.005   1.383   4.015 -0.1264 -0.7718 -0.1638
13813SOL    HW144844   7.079   1.428   3.976 -1.5660  0.0837 -1.9749
13813SOL    HW244845   7.033   1.364   4.105  3.2363 -2.7248 -1.5286
13814SOL     OW44846   2.669  10.852  10.436  0.3555 -0.1487  0.2944
13814SOL    HW144847   2.600  10.822  10.494 -0.3945  0.9214 -0.0195
13814SOL    HW244848   2.710  10.925  10.483 -0.0635  0.5277 -0.3756
13815SOL     OW44849   6.004   4.577   8.097  0.4415  0.7148 -0.1345
13815SOL    HW144850   5.927   4.630   8.118  0.7449  0.9724  0.3191
13815SOL    HW244851   6.066   4.639   8.058  0.7045  0.6459  0.1745
13816SOL     OW44852   1.322   4.177   4.507  0.2003 -0.1691 -0.1597
13816SOL    HW144853   1.341   4.230   4.585  1.4871 -1.0677  0.1593
13816SOL    HW244854   1.351   4.231   4.434  0.7437 -0.0885  0.1117
13817SOL     OW44855   3.135   5.973   3.477 -0.1596 -0.0385 -0.3074
13817SOL    HW144856   3.083   5.995   3.400 -1.1251 -1.3682 -0.0585
13817SOL    HW244857   3.076   5.922   3.532  1.1492 -0.8442  0.3812
13818SOL     OW44858   7.049   1.744   7.419  0.2812  0.4569  0.1341
13818SOL    HW144859   7.099   1.662   7.417  0.9188  0.8668 -0.7462
13818SOL    HW244860   6.958   1.715   7.428  0.5525 -0.3334  0.4416
13819SOL     OW44861  10.205   8.751   5.392  0.2983 -0.4252  0.5737
13819SOL    HW144862  10.132   8.767   5.333  1.0196 -0.1416 -0.2562
13819SOL    HW244863  10.173   8.685   5.453 -0.8961  0.2640  0.6800
13820SOL     OW44864   2.351   5.184   3.848 -0.1658 -0.5258  0.3396
13820SOL    HW144865   2.398   5.264   3.873 -0.0035 -0.5653  0.1635
13820SOL    HW244866   2.395   5.114   3.897  1.5975 -0.9257 -1.7077
13821SOL     OW44867   1.329   5.971   6.938 -0.0378 -0.4251 -0.9957
13821SOL    HW144868   1.291   6.033   7.001  3.3046  0.0869  0.6358
13821SOL    HW244869   1.310   6.008   6.852 -2.6006  0.1153 -0.2175
13822SOL     OW44870   2.653  10.578   1.158  0.3286  0.2421 -0.0962
13822SOL    HW144871   2.609  10.630   1.225 -0.9673  0.7193 -1.2650
13822SOL    HW244872   2.725  10.633   1.127  0.2486  0.4813  0.1454
13823SOL     OW44873   9.675  10.496   0.770 -0.1139 -0.5988 -0.1632
13823SOL    HW144874   9.583  10.513   0.786 -0.0557 -0.2120 -0.2509
13823SOL    HW244875   9.718  10.511   0.854  0.0129  0.2082 -0.3741
13824SOL     OW44876   1.876   9.651   5.556 -1.1854  0.5618 -0.0271
13824SOL    HW144877   1.942   9.582   5.556 -2.3489 -0.5703 -0.8732
13824SOL    HW244878   1.849   9.659   5.647 -1.5076 -0.5531 -0.0168
13825SOL     OW44879   2.899   7.426  10.886 -0.3415  0.0263  0.1554
13825SOL    HW144880   2.959   7.422  10.961  2.0484  0.4985 -1.6649
13825SOL    HW244881   2.919   7.347  10.836  0.4598  1.3619 -1.6811
13826SOL     OW44882   2.354   1.349   5.537  0.0193  0.0658 -0.1099
13826SOL    HW144883   2.436   1.400   5.534  1.6156 -2.5420 -2.4119
13826SOL    HW244884   2.287   1.412   5.513  1.8455  1.3440 -2.0485
13827SOL     OW44885   9.728   4.835   8.958  0.2830  0.8680 -0.6208
13827SOL    HW144886   9.798   4.770   8.958 -0.0163  0.5283  0.4176
13827SOL    HW244887   9.748   4.891   9.034 -1.6581 -0.4319  0.8981
13828SOL     OW44888   3.111   8.764   3.228 -0.0403  0.4866 -0.0699
13828SOL    HW144889   3.153   8.818   3.295 -0.4798 -0.1983  0.7697
13828SOL    HW244890   3.071   8.692   3.277 -0.9908  0.3761 -1.0021
13829SOL     OW44891   9.411   9.860   8.073 -0.1333 -0.0733 -0.3011
13829SOL    HW144892   9.422   9.939   8.019 -1.6770  0.3476 -0.0201
13829SOL    HW244893   9.439   9.788   8.017  0.1710  0.5622 -0.9713
13830SOL     OW44894   8.204   3.786   1.742 -0.2310  0.4326  0.1152
13830SOL    HW144895   8.156   3.853   1.792  1.8257  0.8423  1.6125
13830SOL    HW244896   8.161   3.704   1.766  1.0996  0.5353  3.1728
13831SOL     OW44897   1.891   7.991   5.952  0.0086  0.0733 -0.1152
13831SOL    HW144898   1.811   7.992   6.005 -0.3865 -0.1294 -0.6960
13831SOL    HW244899   1.928   8.079   5.963 -0.7831  0.4705 -0.5608
13832SOL     OW44900   9.001   2.614   4.740 -0.5756  0.6167 -0.1010
13832SOL    HW144901   8.942   2.688   4.753  0.5166  1.1457  2.1221
13832SOL    HW244902   9.088   2.653   4.741 -0.0160 -0.6405  0.5548
13833SOL     OW44903   5.482   5.738   6.845 -0.2906  0.4119 -0.6182
13833SOL    HW144904   5.547   5.806   6.828  0.4091 -0.2623 -0.6955
13833SOL    HW244905   5.434   5.729   6.762  0.8149 -0.4397 -1.1874
13834SOL     OW44906   6.989   6.987   7.946 -0.3515 -0.3300  0.2904
13834SOL    HW144907   7.057   6.924   7.972  0.2261 -0.4678 -1.4915
13834SOL    HW244908   6.916   6.967   8.004  0.6549 -1.0782  1.3378
13835SOL     OW44909   7.069   6.232  10.968  0.7160 -0.1160 -0.2011
13835SOL    HW144910   7.014   6.286  11.024  2.2711  1.2161  0.1107
13835SOL    HW244911   7.058   6.269  10.881 -0.2855 -1.0217 -0.4695
13836SOL     OW44912   7.035   2.903   2.920 -0.4573  0.0713  0.0483
13836SOL    HW144913   6.969   2.965   2.950  0.3894  1.2651 -0.5349
13836SOL    HW244914   7.017   2.891   2.827 -0.4447 -0.3408  0.0978
13837SOL     OW44915   2.187  10.113   5.877  0.2827  0.4299 -0.0555
13837SOL    HW144916   2.202  10.091   5.969 -0.7340  1.5279  0.3824
13837SOL    HW244917   2.093  10.103   5.865  0.6567 -1.9369 -1.5964
13838SOL     OW44918   6.821   5.536   6.341 -0.3087  0.1692 -0.2774
13838SOL    HW144919   6.849   5.444   6.347 -0.1485  0.1432 -1.2743
13838SOL    HW244920   6.841   5.561   6.250 -1.3185  0.8746 -0.3158
13839SOL     OW44921   9.483   9.654   6.664 -0.6399  0.0523 -0.2637
13839SOL    HW144922   9.397   9.663   6.707 -1.6758 -1.8180 -1.8550
13839SOL    HW244923   9.463   9.660   6.571  1.0902  0.3097 -0.6182
13840SOL     OW44924   2.112   3.645   4.019  0.1973 -0.2684 -0.0520
13840SOL    HW144925   2.179   3.676   4.080 -0.3718  0.1798  0.3512
13840SOL    HW244926   2.085   3.724   3.972 -1.4058 -0.1017  1.1258
13841SOL     OW44927   6.166   3.531   5.634  0.3211  0.3091 -0.0533
13841SOL    HW144928   6.196   3.471   5.702 -0.1445  1.1343  0.9055
13841SOL    HW244929   6.084   3.492   5.603 -0.0139  0.4633  0.6123
13842SOL     OW44930   8.866   3.835   0.297 -0.1478 -0.6734 -0.3328
13842SOL    HW144931   8.848   3.906   0.235  2.5288  0.3021 -0.0366
13842SOL    HW244932   8.938   3.786   0.259  0.1901 -1.2611  1.0250
13843SOL     OW44933   8.118   6.333  10.770  0.6547  0.0827  0.0306
13843SOL    HW144934   8.180   6.367  10.834  0.9537 -0.5929  0.0920
13843SOL    HW244935   8.172   6.299  10.699  0.3258  0.7868 -0.5662
13844SOL     OW44936   5.721  10.137   2.612  0.3236 -0.3193  0.4855
13844SOL    HW144937   5.736  10.231   2.610 -1.3677 -0.0425  0.0814
13844SOL    HW244938   5.683  10.117   2.527  0.5463 -1.3406  0.6230
13845SOL     OW44939   0.674   0.389   9.092 -0.1488  0.3794 -0.2444
13845SOL    HW144940   0.728   0.331   9.037  1.3650  1.5788 -0.0503
13845SOL    HW244941   0.735   0.424   9.156 -1.4631  0.7267  0.8248
13846SOL     OW44942   0.172   7.317   5.419 -0.4425 -0.3260 -0.3212
13846SOL    HW144943   0.093   7.370   5.412 -0.8940 -0.9720 -0.1262
13846SOL    HW244944   0.200   7.327   5.510 -1.3567 -1.5972  0.1065
13847SOL     OW44945   5.538  10.856   9.128  0.3582  0.1691 -0.1637
13847SOL    HW144946   5.626  10.831   9.097 -0.8640 -2.2357 -1.8994
13847SOL    HW244947   5.538  10.834   9.221  2.1227  1.7147  0.2167
13848SOL     OW44948   4.831   3.698   0.927  0.6379 -0.2073 -0.0619
13848SOL    HW144949   4.848   3.792   0.935  1.2986 -0.2687 -0.6404
13848SOL    HW244950   4.740   3.687   0.955  0.2634  0.7476 -0.8830
13849SOL     OW44951   5.357   0.881   8.103 -0.3686  0.4119  0.3192
13849SOL    HW144952   5.360   0.975   8.120  1.3200  0.8014 -1.8759
13849SOL    HW244953   5.312   0.873   8.019 -0.1420 -0.7003  0.2944
13850SOL     OW44954   5.696   4.924   2.235 -0.2523 -0.1895  0.0942
13850SOL    HW144955   5.642   4.922   2.314 -1.2838 -0.2431 -0.6100
13850SOL    HW244956   5.639   4.959   2.167  0.9025  0.6963 -0.4317
13851SOL     OW44957   2.587   5.868   4.481  0.0230 -0.6601  0.2474
13851SOL    HW144958   2.537   5.876   4.401  0.5512 -1.0797 -0.1280
13851SOL    HW244959   2.540   5.922   4.545 -1.2011 -1.4919  0.0541
13852SOL     OW44960   1.518   0.451   7.221 -0.1151 -0.2059 -0.0921
13852SOL    HW144961   1.521   0.453   7.316  0.7592  1.6071 -0.1408
13852SOL    HW244962   1.599   0.493   7.193 -0.0833 -1.2479 -1.6373
13853SOL     OW44963   4.850   9.757   2.709  0.1644  0.0577  0.8155
13853SOL    HW144964   4.844   9.677   2.656  1.2927 -0.2335  1.1117
13853SOL    HW244965   4.898   9.818   2.655  0.0241  0.2582  0.9178
13854SOL     OW44966   4.773   7.769   8.376 -0.0928 -0.4518 -0.4634
13854SOL    HW144967   4.694   7.741   8.422 -0.3632  1.0962  0.0555
13854SOL    HW244968   4.782   7.709   8.303 -1.3386 -1.0855 -0.0994
13855SOL     OW44969   5.763   2.405   8.465  0.6107  0.0495 -0.4194
13855SOL    HW144970   5.807   2.347   8.527 -3.0656 -0.3335  1.9948
13855SOL    HW244971   5.728   2.476   8.518 -1.3625  0.5252 -2.2761
13856SOL     OW44972   9.557   2.752   3.892  0.2589 -0.2350  0.3706
13856SOL    HW144973   9.616   2.676   3.892 -0.5686 -0.9369  2.4490
13856SOL    HW244974   9.505   2.741   3.813  1.5627 -0.6817 -0.4541
13857SOL     OW44975   3.215   4.568   8.084 -0.2023 -1.0798 -0.2125
13857SOL    HW144976   3.297   4.607   8.113 -0.9384  1.0714 -0.8855
13857SOL    HW244977   3.241   4.497   8.026  1.2213  0.7369 -1.8822
13858SOL     OW44978   3.299  10.058   4.412 -0.1567  0.3711  0.2773
13858SOL    HW144979   3.280  10.058   4.506  0.5594  0.0683  0.4272
13858SOL    HW244980   3.214  10.073   4.370 -0.7341 -1.0056  0.9299
13859SOL     OW44981   0.136   6.946   1.659 -0.4817  0.2389 -0.2627
13859SOL    HW144982   0.201   6.930   1.728  0.0431 -2.5959 -1.3417
13859SOL    HW244983   0.067   6.995   1.703  0.3728 -0.5063  2.0208
13860SOL     OW44984   1.776   1.488   9.879 -0.6977  0.0693 -0.2585
13860SOL    HW144985   1.799   1.569   9.924 -1.0279  1.0847 -1.8574
13860SOL    HW244986   1.853   1.432   9.889 -0.5043  0.5319  0.9452
13861SOL     OW44987   9.509   4.517   7.119  0.3843 -0.5598 -0.4847
13861SOL    HW144988   9.575   4.567   7.071  0.7208  0.3421  0.8924
13861SOL    HW244989   9.497   4.437   7.066  1.9768 -0.3719 -1.1771
13862SOL     OW44990   3.247   2.928   2.494 -0.4575  0.1186 -0.9673
13862SOL    HW144991   3.212   3.007   2.536 -0.1805 -0.3654  0.2017
13862SOL    HW244992   3.308   2.961   2.428  0.1238  0.8833 -0.0738
13863SOL     OW44993   5.220   0.884   7.273 -0.7260  0.2746  0.0379
13863SOL    HW144994   5.178   0.931   7.202 -0.8610  0.6552  0.3696
13863SOL    HW244995   5.298   0.845   7.233  0.6015  2.6202  0.2631
13864SOL     OW44996  10.431   0.332   4.478 -0.0042 -0.0603 -0.2575
13864SOL    HW144997  10.475   0.405   4.521  0.2227 -0.6904  0.5928
13864SOL    HW244998  10.499   0.264   4.471  0.2996  0.4513 -2.6819
13865SOL     OW44999   5.671   4.830   9.345  0.5602 -0.2173  0.8664
13865SOL    HW145000   5.599   4.793   9.396  0.8134 -0.7140  0.8690
13865SOL    HW245001   5.746   4.774   9.366  1.0547  0.5718  1.2094
13866SOL     OW45002   5.791   6.390   0.361 -0.0010  0.4363 -0.0380
13866SOL    HW145003   5.764   6.323   0.425  0.0277  1.1821  0.7610
13866SOL    HW245004   5.878   6.417   0.392 -0.9666  2.4776  0.9600
13867SOL     OW45005   3.527   4.278   2.216  0.5132 -0.1342 -0.0729
13867SOL    HW145006   3.446   4.300   2.169  0.2214 -0.9982  0.0155
13867SOL    HW245007   3.535   4.345   2.284  0.0281  0.1246 -0.2709
13868SOL     OW45008   6.598   4.774   8.203  0.0954  0.3195  0.3150
13868SOL    HW145009   6.591   4.680   8.186  1.2018  0.2378  0.2438
13868SOL    HW245010   6.674   4.782   8.260  0.1946  1.1997  0.0641
13869SOL     OW45011   3.822   7.120   1.409 -0.0403 -0.1786 -0.2769
13869SOL    HW145012   3.730   7.145   1.408 -0.2610 -0.9905 -0.0548
13869SOL    HW245013   3.836   7.082   1.496  0.8541  1.2385  0.2189
13870SOL     OW45014   0.398   6.886   6.636  0.3334 -0.6477  0.4433
13870SOL    HW145015   0.408   6.868   6.542 -1.6873 -2.4053  0.5435
13870SOL    HW245016   0.472   6.839   6.677 -1.1047 -3.3486  0.0740
13871SOL     OW45017   3.839   6.499   3.969  0.2147  0.0473  0.1785
13871SOL    HW145018   3.884   6.522   3.888  1.5437 -3.0777 -0.0203
13871SOL    HW245019   3.886   6.423   4.002 -1.3085  0.2771  3.0688
13872SOL     OW45020   0.078   0.795   1.390 -0.1065 -0.7443 -0.1904
13872SOL    HW145021  -0.006   0.763   1.423  0.0028  0.7705  1.6370
13872SOL    HW245022   0.124   0.716   1.362 -1.9683 -1.6337 -0.8474
13873SOL     OW45023   4.906   4.408   8.843 -0.5151  0.7992  0.0676
13873SOL    HW145024   4.837   4.420   8.909  1.1917  1.6418  1.7775
13873SOL    HW245025   4.957   4.334   8.875 -2.2349 -1.6731 -2.6769
13874SOL     OW45026   0.811   5.088   8.274 -0.6369 -0.2495 -0.1018
13874SOL    HW145027   0.791   5.146   8.347 -1.0541 -1.5435  0.8310
13874SOL    HW245028   0.907   5.090   8.267 -0.5855 -0.2273  0.5868
13875SOL     OW45029   1.466   2.073  10.290  0.0573  0.0229  0.0431
13875SOL    HW145030   1.415   2.033  10.220  1.8888 -0.7642 -0.8877
13875SOL    HW245031   1.472   2.005  10.357  0.7254 -0.2596 -0.2931
13876SOL     OW45032   9.359   3.403   1.669  0.4414  0.5476 -0.1290
13876SOL    HW145033   9.270   3.370   1.656  0.4460  1.2677 -2.2600
13876SOL    HW245034   9.346   3.495   1.692  0.5764  0.1656  1.4986
13877SOL     OW45035   7.629   1.005   5.798 -0.3164  0.0731 -0.2873
13877SOL    HW145036   7.544   0.985   5.759 -1.8707  1.4232  2.2991
13877SOL    HW245037   7.618   1.091   5.838  1.5726 -0.6670  1.9710
13878SOL     OW45038   5.844   9.023  10.726  0.0198  0.5743  0.0454
13878SOL    HW145039   5.888   9.086  10.668  0.3969  1.8063  1.6183
13878SOL    HW245040   5.914   8.964  10.753 -0.3032 -0.4481 -1.3046
13879SOL     OW45041   9.949   6.181   7.413  0.0217 -0.7220 -0.4810
13879SOL    HW145042   9.867   6.222   7.385 -0.8515 -1.1400  1.4280
13879SOL    HW245043   9.964   6.214   7.501 -0.0311 -3.4981  0.6167
13880SOL     OW45044   0.226   4.749   5.907  0.2753  0.2848 -0.8716
13880SOL    HW145045   0.245   4.672   5.960 -0.4766  0.4712 -0.3155
13880SOL    HW245046   0.148   4.787   5.948  0.6402  1.3398 -1.1361
13881SOL     OW45047   2.828   1.066   3.505  0.4269  0.6556 -0.6271
13881SOL    HW145048   2.819   1.059   3.600  1.1319 -1.1310 -0.6782
13881SOL    HW245049   2.772   1.140   3.481 -0.0292  0.8960  1.1382
13882SOL     OW45050   6.812   6.575   6.699 -0.7842 -1.0752 -0.0622
13882SOL    HW145051   6.782   6.571   6.608 -0.8242  3.5203 -0.3730
13882SOL    HW245052   6.906   6.560   6.694 -0.7542 -0.6395 -0.9054
13883SOL     OW45053   6.194   1.616   0.410 -0.4104 -0.8775  1.0962
13883SOL    HW145054   6.247   1.661   0.344 -1.1090  0.9909  1.7605
13883SOL    HW245055   6.225   1.526   0.409  2.3277  0.0188  0.9960
13884SOL     OW45056   7.979   9.225   5.117 -0.0573 -0.3270 -0.2649
13884SOL    HW145057   8.064   9.215   5.073  0.1783 -0.4641  0.2186
13884SOL    HW245058   7.943   9.137   5.119 -0.4196 -0.1967 -0.8749
13885SOL     OW45059   2.155   1.056   5.371  0.1907 -0.0877  0.4186
13885SOL    HW145060   2.061   1.045   5.389  0.2724 -1.1589  0.2294
13885SOL    HW245061   2.169   1.011   5.288  1.3061 -1.9910  1.5990
13886SOL     OW45062   4.911   5.987   9.601 -0.2071 -0.2803 -0.4368
13886SOL    HW145063   4.959   5.950   9.527  1.0519 -1.7900  1.0774
13886SOL    HW245064   4.902   5.914   9.663  0.4276  1.3863  1.6997
13887SOL     OW45065   7.864   1.029   0.338  0.2519  0.3901 -0.0196
13887SOL    HW145066   7.841   0.997   0.251 -1.1105 -0.4454  0.6207
13887SOL    HW245067   7.890   0.950   0.386 -0.1610  0.6807  0.6838
13888SOL     OW45068   4.727   1.558   1.581 -0.4872 -0.0528  0.2618
13888SOL    HW145069   4.671   1.525   1.651 -1.4020 -3.1033 -1.8269
13888SOL    HW245070   4.797   1.493   1.573  0.9238  1.4639 -0.1139
13889SOL     OW45071   1.915   9.713   9.745 -0.4369 -0.1955  0.8111
13889SOL    HW145072   1.872   9.709   9.660 -1.7981  3.0454  1.2687
13889SOL    HW245073   1.932   9.622   9.768  0.1798 -1.1331 -3.0154
13890SOL     OW45074   6.757   7.819   5.310 -0.2871  0.5241 -0.1858
13890SOL    HW145075   6.748   7.747   5.247  0.1771  1.1480 -0.9653
13890SOL    HW245076   6.710   7.788   5.388 -1.7199  0.1557 -1.1674
13891SOL     OW45077  10.105   4.270   6.746 -0.0723  0.0277  0.3117
13891SOL    HW145078  10.067   4.356   6.730  0.0054 -0.0221 -0.1557
13891SOL    HW245079  10.033   4.208   6.736 -0.1162  0.0331  0.5885
13892SOL     OW45080   0.334  10.249   6.217  0.3432 -0.5889  0.1176
13892SOL    HW145081   0.337  10.341   6.245 -1.2193  0.1995 -2.2337
13892SOL    HW245082   0.412  10.239   6.162  0.7555 -0.8100  0.7334
13893SOL     OW45083   3.139  10.947   2.407 -0.2507  0.3792 -0.0698
13893SOL    HW145084   3.218  10.980   2.449  0.4143  0.2342 -1.1953
13893SOL    HW245085   3.112  11.018   2.348  0.3363 -0.4743 -1.3822
13894SOL     OW45086   4.768   7.545   4.984 -0.9932  0.0204 -0.1307
13894SOL    HW145087   4.819   7.478   5.030 -1.7347 -0.7139 -0.3874
13894SOL    HW245088   4.727   7.499   4.912 -0.1470  1.0934 -1.3288
13895SOL     OW45089   6.513  10.067   3.504 -0.4180  0.7377  0.1786
13895SOL    HW145090   6.505  10.002   3.434 -1.6985  2.4475 -1.2842
13895SOL    HW245091   6.605  10.060   3.532 -0.0907 -0.4812 -1.1282
13896SOL     OW45092  10.863   6.405   2.215  0.3484 -0.7749  0.5360
13896SOL    HW145093  10.839   6.339   2.149  1.0278 -1.6456  1.1548
13896SOL    HW245094  10.870   6.487   2.165  3.2527 -1.8719 -0.9477
13897SOL     OW45095   5.324   2.213  10.675  0.2266 -0.3241 -0.0017
13897SOL    HW145096   5.270   2.134  10.682  1.2670 -1.0272  0.0460
13897SOL    HW245097   5.283   2.263  10.604 -1.4805 -0.0796  1.1044
13898SOL     OW45098   0.870   9.540   7.828  0.2581 -0.7281  0.2596
13898SOL    HW145099   0.815   9.603   7.874  0.0648 -0.7674  0.0808
13898SOL    HW245100   0.816   9.461   7.821  0.5817 -0.9860  0.6819
13899SOL     OW45101   5.915   9.307   4.272 -0.1920 -0.3127  0.0351
13899SOL    HW145102   5.984   9.373   4.274 -0.7182  0.3113 -1.4055
13899SOL    HW245103   5.905   9.285   4.179 -1.3776 -0.9704  0.3015
13900SOL     OW45104   4.234   3.567   6.749  0.4327  0.1357  0.3927
13900SOL    HW145105   4.222   3.479   6.785 -0.1149  0.5847  1.3484
13900SOL    HW245106   4.292   3.610   6.812  2.7534 -0.3099 -1.3652
13901SOL     OW45107   6.026   7.041  10.538  0.1902  0.4832  0.0980
13901SOL    HW145108   6.078   7.042  10.457  0.0736 -0.9898  0.0010
13901SOL    HW245109   5.970   7.118  10.531  1.5350  1.4453 -0.3356
13902SOL     OW45110   7.723   9.691   7.108 -0.1346 -0.1785  0.3955
13902SOL    HW145111   7.715   9.626   7.038  1.0632  0.1225 -0.0464
13902SOL    HW245112   7.667   9.763   7.080  2.0003  0.8541 -1.3606
13903SOL     OW45113   4.736   7.249   0.369  0.2179  0.0977  0.8149
13903SOL    HW145114   4.784   7.332   0.364 -0.7968  0.7270  1.1064
13903SOL    HW245115   4.647   7.272   0.341  0.2237 -1.1562 -0.2618
13904SOL     OW45116   4.988   9.175   1.752 -0.3458  0.2517  0.1009
13904SOL    HW145117   5.063   9.130   1.712  0.8298  1.1582  1.2392
13904SOL    HW245118   5.022   9.261   1.775 -1.8345  0.7707  0.3794
13905SOL     OW45119   7.216   7.088   6.337 -0.2161 -0.4486  0.0552
13905SOL    HW145120   7.154   7.018   6.356 -0.4263 -0.2428  0.1364
13905SOL    HW245121   7.173   7.140   6.269  0.1410 -0.6623 -0.3346
13906SOL     OW45122   8.034   9.871   1.442  0.0018 -0.0383  0.6219
13906SOL    HW145123   8.044   9.857   1.348 -0.4998 -3.2165  0.9824
13906SOL    HW245124   7.952   9.828   1.464 -0.1204  1.0756  2.4722
13907SOL     OW45125   6.642   5.844   7.124  0.4300 -0.3061 -0.1987
13907SOL    HW145126   6.581   5.783   7.082 -0.9486  1.9233 -1.4935
13907SOL    HW245127   6.599   5.867   7.207  0.7239 -0.6751  0.0613
13908SOL     OW45128   2.192   9.774   1.487  0.2452  0.1114  0.0405
13908SOL    HW145129   2.225   9.807   1.404 -0.8331  1.3328  0.0739
13908SOL    HW245130   2.194   9.679   1.478  1.1584  0.2163 -0.9606
13909SOL     OW45131   9.164   2.383   5.457 -0.1698  0.4255  0.0811
13909SOL    HW145132   9.161   2.353   5.366  1.5084  0.3941  0.0191
13909SOL    HW245133   9.083   2.349   5.497  0.0438 -1.2357 -0.8799
13910SOL     OW45134   4.480   0.985   1.288 -0.0493 -0.1001  0.1783
13910SOL    HW145135   4.530   0.950   1.362 -1.0084 -0.7373  0.5323
13910SOL    HW245136   4.416   1.043   1.328  0.6288  1.0101 -0.3080
13911SOL     OW45137   0.583   8.656   4.241 -0.3493  0.1547 -0.1896
13911SOL    HW145138   0.657   8.695   4.288  0.8667 -1.8710 -0.3756
13911SOL    HW245139   0.544   8.597   4.305  0.2051 -1.2484 -1.1364
13912SOL     OW45140   7.439   7.137   3.870 -0.3768  0.4386  0.1927
13912SOL    HW145141   7.473   7.056   3.832 -0.0658 -0.6806  2.7006
13912SOL    HW245142   7.391   7.108   3.948 -0.6216  2.6285  0.8967
13913SOL     OW45143   7.783   0.197   2.267  0.0592 -0.1933  0.1758
13913SOL    HW145144   7.775   0.292   2.261 -1.6233 -0.2965  0.4964
13913SOL    HW245145   7.845   0.174   2.198 -1.5556  0.8853 -1.6847
13914SOL     OW45146   9.478   8.031   6.296  0.0018 -0.5021 -0.0664
13914SOL    HW145147   9.504   8.090   6.367  0.4149  0.0748 -0.6885
13914SOL    HW245148   9.560   7.991   6.267 -0.0265  0.0344 -0.8937
13915SOL     OW45149   1.286   4.374   5.887  0.1910 -0.0455  0.0974
13915SOL    HW145150   1.206   4.375   5.836  1.3087 -1.3432 -1.7665
13915SOL    HW245151   1.258   4.352   5.976 -1.5333 -0.1736 -0.4617
13916SOL     OW45152   6.323   4.170   8.738 -0.1038  0.1976  0.2467
13916SOL    HW145153   6.320   4.086   8.692  0.1940  0.8905 -1.0582
13916SOL    HW245154   6.370   4.152   8.819  2.1311 -0.3768 -1.1425
13917SOL     OW45155   1.520   6.270   0.131 -0.2566  0.1214  0.3680
13917SOL    HW145156   1.551   6.281   0.221  0.3134  0.0792  0.1734
13917SOL    HW245157   1.599   6.267   0.078 -0.6682  2.7447 -0.4397
13918SOL     OW45158   5.322   6.152   4.335 -0.2011  0.9290  0.5911
13918SOL    HW145159   5.303   6.118   4.247  1.0894 -1.6187  1.2576
13918SOL    HW245160   5.240   6.141   4.383 -1.0016  2.5926 -0.3219
13919SOL     OW45161   6.457   7.150   1.821  0.1810 -0.0536  0.0583
13919SOL    HW145162   6.425   7.222   1.876  1.8552 -0.2461  1.3179
13919SOL    HW245163   6.428   7.071   1.868  0.1206 -0.2152 -0.2523
13920SOL     OW45164   0.120   2.488   1.416  0.4182 -0.1436 -0.4805
13920SOL    HW145165   0.064   2.564   1.433 -1.4692 -1.7755  0.8816
13920SOL    HW245166   0.095   2.459   1.328  0.2475  0.1035 -0.5138
13921SOL     OW45167   3.360  10.714   6.485 -0.1809  0.0478  0.4450
13921SOL    HW145168   3.307  10.647   6.444 -0.4932  0.4088  0.2504
13921SOL    HW245169   3.445  10.708   6.441 -0.0608 -0.5246  0.7498
13922SOL     OW45170   1.073   2.510   9.389 -0.0963 -0.1752 -0.0855
13922SOL    HW145171   0.977   2.511   9.385 -0.1478 -2.0902 -0.0700
13922SOL    HW245172   1.101   2.528   9.299 -0.4736  0.0998 -0.1488
13923SOL     OW45173   7.372   0.334   5.771  0.2093 -0.6348 -0.6985
13923SOL    HW145174   7.400   0.281   5.846  1.1318 -2.2541 -2.1399
13923SOL    HW245175   7.453   0.377   5.742  0.2576 -1.4900 -1.8848
13924SOL     OW45176   3.424   4.902   4.474  0.9777 -0.6529  0.1546
13924SOL    HW145177   3.360   4.854   4.528  1.5506 -1.8856 -0.2679
13924SOL    HW245178   3.407   4.873   4.385 -1.0637  2.5954 -0.6185
13925SOL     OW45179   3.133   0.186   1.662 -0.2429 -0.2126 -0.4028
13925SOL    HW145180   3.178   0.240   1.596  0.2532 -0.1845 -0.0491
13925SOL    HW245181   3.049   0.229   1.675 -0.4196 -0.3299 -1.1664
13926SOL     OW45182   5.769   7.248   3.928 -0.2027 -0.9128 -0.9167
13926SOL    HW145183   5.711   7.182   3.889 -3.3035  0.1761  1.5695
13926SOL    HW245184   5.736   7.331   3.895 -1.0425 -0.1890  1.5890
13927SOL     OW45185   3.448   2.744   2.552  0.6722  0.2831  0.3662
13927SOL    HW145186   3.372   2.801   2.546  0.4771  0.0275  0.4412
13927SOL    HW245187   3.502   2.784   2.621 -0.1681 -0.4620  1.4684
13928SOL     OW45188   5.082   5.440   8.071 -0.0643  0.0199  0.0157
13928SOL    HW145189   4.988   5.455   8.083 -0.4768 -2.3793  0.0539
13928SOL    HW245190   5.092   5.345   8.074  2.0268  0.0881 -2.4562
13929SOL     OW45191   3.214   1.503   8.710  0.3835 -0.1247 -0.4982
13929SOL    HW145192   3.249   1.485   8.797  1.5859  1.5087 -0.6309
13929SOL    HW245193   3.165   1.585   8.720  0.2646 -0.0958 -1.2895
13930SOL     OW45194   4.327   9.458   2.639  0.0642 -0.1995 -0.2848
13930SOL    HW145195   4.416   9.466   2.673  0.0358 -0.3212 -0.1855
13930SOL    HW245196   4.340   9.435   2.546  0.1536  0.8455 -0.5440
13931SOL     OW45197   9.635   8.202  10.565 -0.3363 -0.0163 -0.0053
13931SOL    HW145198   9.601   8.119  10.532 -0.7234  0.0436  0.2318
13931SOL    HW245199   9.573   8.228  10.633 -0.4251  0.6508 -0.3319
13932SOL     OW45200   8.951   6.547   0.484 -0.6394  0.0616  0.0576
13932SOL    HW145201   9.020   6.513   0.427 -2.0114  0.3559 -1.8485
13932SOL    HW245202   8.978   6.636   0.504 -0.4720  0.1901 -0.7160
13933SOL     OW45203   2.655   1.119   5.676  0.1002 -0.0735  0.5553
13933SOL    HW145204   2.653   1.148   5.585  1.8754  0.8242  0.7781
13933SOL    HW245205   2.568   1.083   5.692  0.7640 -3.2301 -2.4669
13934SOL     OW45206   1.212   4.759   9.285 -0.2979 -0.5747 -0.6775
13934SOL    HW145207   1.177   4.724   9.367  0.0805 -0.3326 -0.4081
13934SOL    HW245208   1.270   4.690   9.252  0.9255  0.0196  0.1642
13935SOL     OW45209   2.333   4.309   1.064 -0.9931  0.1323  0.4299
13935SOL    HW145210   2.424   4.281   1.053 -1.1021 -0.3832  0.8228
13935SOL    HW245211   2.338   4.405   1.068 -0.6941  0.2115 -1.5675
13936SOL     OW45212   6.989   6.085   2.900 -0.4075 -0.1112  0.0815
13936SOL    HW145213   7.052   6.126   2.960 -1.7838  0.9085  0.8664
13936SOL    HW245214   7.008   6.125   2.815 -0.1286  0.3510  0.3535
13937SOL     OW45215   0.372   6.860   0.984 -0.2235 -0.5069 -0.4681
13937SOL    HW145216   0.384   6.936   1.042  0.6426 -0.9835 -0.0111
13937SOL    HW245217   0.308   6.806   1.030 -0.8504 -0.0506 -0.7992
13938SOL     OW45218   4.348  10.108  10.025  0.0948 -0.3770  0.2311
13938SOL    HW145219   4.278  10.051  10.055 -0.2926 -0.3563 -0.6139
13938SOL    HW245220   4.377  10.069   9.942 -0.0823  0.5836 -0.2886
13939SOL     OW45221   4.662   3.015  10.912  0.5050  0.1248 -0.4083
13939SOL    HW145222   4.712   3.095  10.893 -0.1770  1.2196  2.2266
13939SOL    HW245223   4.571   3.038  10.891  0.5514 -0.5824 -1.4237
13940SOL     OW45224   0.447   4.114   8.839  0.3831  0.0848  0.1173
13940SOL    HW145225   0.496   4.076   8.766 -1.7828  1.4039 -2.1151
13940SOL    HW245226   0.432   4.041   8.898  2.6562 -0.9039 -0.4651
13941SOL     OW45227   7.325   3.083   2.799 -0.3025  0.4659 -0.3902
13941SOL    HW145228   7.234   3.085   2.768 -0.5610  0.1080  0.3511
13941SOL    HW245229   7.334   3.161   2.854 -0.2690  0.2817 -0.1374
13942SOL     OW45230   4.612   8.739   1.008  0.3279 -0.0270 -0.8365
13942SOL    HW145231   4.684   8.795   1.037  0.4600  0.8038 -2.7019
13942SOL    HW245232   4.640   8.650   1.029  0.4231  0.5248  1.4953
13943SOL     OW45233   8.903   4.967   1.685 -0.2205  0.5980  0.0550
13943SOL    HW145234   8.964   4.910   1.638  0.3568  1.1287  0.1623
13943SOL    HW245235   8.817   4.946   1.648 -0.1579 -1.0674  0.7662
13944SOL     OW45236   7.585   9.278   0.898  0.1673 -0.1417  0.0401
13944SOL    HW145237   7.520   9.208   0.888  0.7838 -0.8602  0.9101
13944SOL    HW245238   7.665   9.242   0.860  0.4768  0.1080  0.4448
13945SOL     OW45239   3.799   2.436   8.357  0.3280 -0.1457 -0.3494
13945SOL    HW145240   3.805   2.445   8.262  1.2457  1.3919 -0.1620
13945SOL    HW245241   3.705   2.426   8.374  0.3484 -2.9298 -1.5996
13946SOL     OW45242   1.202   6.815   5.572  0.4335  0.1156 -0.7701
13946SOL    HW145243   1.224   6.905   5.596 -1.9402  1.2954 -2.7783
13946SOL    HW245244   1.232   6.806   5.482 -2.6420  0.1296 -1.8364
13947SOL     OW45245   3.771   5.275   1.556 -0.3132 -0.2678  0.3613
13947SOL    HW145246   3.843   5.315   1.603  0.8884  0.0395 -1.6741
13947SOL    HW245247   3.719   5.350   1.524 -0.7529 -0.4562  0.6248
13948SOL     OW45248   2.891   2.831   9.485  0.0696  0.3020  0.3580
13948SOL    HW145249   2.854   2.844   9.397  2.6923 -2.9448 -1.3096
13948SOL    HW245250   2.970   2.885   9.485  1.9126 -2.3072 -0.5737
13949SOL     OW45251   9.336   7.338   6.945  0.8424  0.3211  0.1617
13949SOL    HW145252   9.362   7.316   7.035  0.6028 -0.6193  0.0026
13949SOL    HW245253   9.242   7.353   6.951  0.5687 -1.2133 -0.2116
13950SOL     OW45254   7.617   7.933   3.711 -0.1736 -0.4791  0.3232
13950SOL    HW145255   7.595   7.888   3.793  0.0946 -0.3962  0.4411
13950SOL    HW245256   7.551   7.902   3.649 -0.7339 -0.0857  0.7201
13951SOL     OW45257   5.131   7.065   1.564 -0.0100 -0.1402 -0.3100
13951SOL    HW145258   5.118   7.054   1.470  1.3763 -0.1130 -0.5219
13951SOL    HW245259   5.226   7.057   1.575 -0.3894 -3.2133  1.4610
13952SOL     OW45260  10.205   4.731   7.281  0.5130  0.2318 -0.0938
13952SOL    HW145261  10.203   4.785   7.360  1.0201 -0.3095  0.2984
13952SOL    HW245262  10.119   4.741   7.241  0.5325  1.1556  0.0921
13953SOL     OW45263   7.416   8.717   9.261 -0.0291 -0.7612  0.1887
13953SOL    HW145264   7.453   8.637   9.222  0.2155  0.1023 -1.3808
13953SOL    HW245265   7.365   8.685   9.335 -0.1880 -2.4108 -0.5968
13954SOL     OW45266   3.764   5.108   6.664  0.0466 -0.3397 -0.0008
13954SOL    HW145267   3.757   5.066   6.578  0.8373  0.1616 -0.3100
13954SOL    HW245268   3.827   5.179   6.651  0.0705 -0.1840  0.9624
13955SOL     OW45269  10.527   2.134   1.178 -0.0276  0.1000 -0.6209
13955SOL    HW145270  10.545   2.056   1.125  0.5516  0.3254 -0.7588
13955SOL    HW245271  10.487   2.196   1.116  1.6752  0.7814 -1.0848
13956SOL     OW45272   4.720   2.266   6.379  0.1119 -0.6682  0.1667
13956SOL    HW145273   4.723   2.269   6.284 -0.9235 -0.1809  0.1342
13956SOL    HW245274   4.790   2.324   6.408 -0.6082  0.4635 -0.3188
13957SOL     OW45275   6.427   6.975   6.134  0.3004  0.4415 -0.1859
13957SOL    HW145276   6.518   7.002   6.146  0.8968 -1.7517  0.4084
13957SOL    HW245277   6.391   6.970   6.222 -1.0758  3.4186 -0.5179
13958SOL     OW45278   5.717   6.681   5.807  0.0836 -0.3246 -0.2417
13958SOL    HW145279   5.797   6.731   5.824  0.6006 -0.4491 -2.1303
13958SOL    HW245280   5.744   6.590   5.813 -0.6619 -0.4032  2.3150
13959SOL     OW45281   5.482   6.414   4.541  0.3312 -0.4250  0.2777
13959SOL    HW145282   5.540   6.344   4.512  1.5250  0.1989  1.1268
13959SOL    HW245283   5.533   6.494   4.530 -0.4136  0.1480  0.8977
13960SOL     OW45284   3.487   5.347   5.697 -0.3621  0.3096 -0.3836
13960SOL    HW145285   3.503   5.425   5.750 -0.9539  0.7503 -0.8426
13960SOL    HW245286   3.452   5.283   5.759  1.1171  0.0488  0.2026
13961SOL     OW45287   4.442   7.395   0.989  0.1929  0.6880  0.0718
13961SOL    HW145288   4.496   7.322   0.958  1.5643  1.5207  0.4571
13961SOL    HW245289   4.437   7.455   0.914 -0.2115  0.6131  0.0348
13962SOL     OW45290   8.877   4.519  10.674 -0.2889  0.1990  0.0360
13962SOL    HW145291   8.951   4.578  10.692 -0.2774  0.0286  0.5685
13962SOL    HW245292   8.803   4.560  10.718 -0.2183 -0.3360  0.6599
13963SOL     OW45293   4.460   7.619   6.342 -0.5159  0.1243 -0.5138
13963SOL    HW145294   4.447   7.663   6.258 -1.3053  1.4708  0.3007
13963SOL    HW245295   4.411   7.672   6.405 -0.2617 -1.0925  0.7367
13964SOL     OW45296   5.749   0.684  10.832 -0.0848  0.3003 -0.1983
13964SOL    HW145297   5.784   0.745  10.767 -0.8679  1.4290  0.4118
13964SOL    HW245298   5.668   0.726  10.863  1.2933  0.7633  2.9480
13965SOL     OW45299   4.910   7.376   3.098 -0.2870  0.0629  0.5991
13965SOL    HW145300   4.858   7.297   3.088  0.2395 -0.3691  1.2631
13965SOL    HW245301   4.853   7.437   3.145 -0.6499  0.0450  0.1870
13966SOL     OW45302   6.893   0.745   4.917  0.0769 -0.3771 -0.1064
13966SOL    HW145303   6.825   0.718   4.978 -1.9648  1.1034 -1.6593
13966SOL    HW245304   6.875   0.694   4.837  0.0446  0.9178 -0.9289
13967SOL     OW45305   4.591  10.731   0.922 -0.2545 -0.1530  0.4655
13967SOL    HW145306   4.685  10.747   0.929 -0.4113  1.1141 -0.2072
13967SOL    HW245307   4.550  10.807   0.962 -1.0050  0.3275 -1.1613
13968SOL     OW45308   0.815   5.395   8.196 -0.5495 -0.5186 -0.2568
13968SOL    HW145309   0.888   5.347   8.155  0.8383  0.9839  0.3990
13968SOL    HW245310   0.829   5.384   8.290  1.4601  3.4813  0.0066
13969SOL     OW45311   1.665   8.876   0.580 -0.0942  0.6955  0.2539
13969SOL    HW145312   1.615   8.939   0.529 -1.2270  1.0442  1.7674
13969SOL    HW245313   1.620   8.792   0.565  0.8206  0.4153 -0.9686
13970SOL     OW45314   5.713   7.631   9.034 -0.5303  0.0512  0.6087
13970SOL    HW145315   5.805   7.632   9.010 -0.2909  1.0706  1.5482
13970SOL    HW245316   5.686   7.540   9.019  0.4637 -0.1137 -0.2397
13971SOL     OW45317   9.697   6.279   2.023 -0.2182  0.4650 -0.1447
13971SOL    HW145318   9.784   6.294   1.987  1.4511 -2.8143  2.2491
13971SOL    HW245319   9.654   6.220   1.961 -0.0560  0.6368 -0.4171
13972SOL     OW45320   7.792   4.970   6.754  0.3759 -0.2998  0.0480
13972SOL    HW145321   7.884   4.996   6.748  0.7216 -1.1178  1.6537
13972SOL    HW245322   7.793   4.876   6.734  0.0005 -0.4720  0.8247
13973SOL     OW45323   1.554   2.931   5.090  0.4434  0.1431  0.1473
13973SOL    HW145324   1.612   2.879   5.034  1.1132  1.2149 -0.1666
13973SOL    HW245325   1.466   2.901   5.067  0.8436 -1.4628  0.5811
13974SOL     OW45326   4.774   7.109   3.066 -0.3769  0.9070 -0.2569
13974SOL    HW145327   4.742   7.036   3.120 -1.9458  2.4536  0.9631
13974SOL    HW245328   4.717   7.108   2.989 -0.9967  1.4200  0.1970
13975SOL     OW45329  10.008   6.598   9.590  0.6582 -0.0470 -0.6720
13975SOL    HW145330  10.094   6.638   9.579  0.2394  0.5434 -1.9192
13975SOL    HW245331   9.960   6.622   9.511 -0.4279 -0.9526 -0.3041
13976SOL     OW45332   4.728   7.512   0.962  0.4496 -0.3556  0.2555
13976SOL    HW145333   4.740   7.459   0.883  0.9487  0.3941 -0.1857
13976SOL    HW245334   4.802   7.489   1.018  1.0607  0.3662 -0.2312
13977SOL     OW45335   9.625   1.451   9.009  0.2292  0.0649 -0.1895
13977SOL    HW145336   9.627   1.360   8.979  0.4617  0.3180 -0.9667
13977SOL    HW245337   9.654   1.447   9.100 -2.5536 -0.9847  0.7105
13978SOL     OW45338   6.910   2.043   3.820  0.4028 -0.6159  0.0831
13978SOL    HW145339   6.989   2.053   3.873  0.6529 -0.7685 -0.2644
13978SOL    HW245340   6.941   2.039   3.730 -0.1970  2.1536 -0.2923
13979SOL     OW45341   1.999   5.195   2.459  0.0139  0.6138  0.1071
13979SOL    HW145342   2.079   5.142   2.465 -0.4653 -0.1659 -0.3709
13979SOL    HW245343   2.004   5.234   2.372  0.3413  1.3218  0.4394
13980SOL     OW45344   0.758   0.839  10.153 -0.5874 -0.4567  0.5059
13980SOL    HW145345   0.704   0.918  10.160  0.6141  0.5145 -1.0314
13980SOL    HW245346   0.808   0.838  10.235 -0.8259  0.2011  0.6678
13981SOL     OW45347   8.635   5.281  10.384 -0.2209  0.2506  0.0626
13981SOL    HW145348   8.722   5.314  10.407  0.3411  0.4309 -2.2342
13981SOL    HW245349   8.649   5.230  10.304 -2.5804  2.3062 -1.7172
13982SOL     OW45350   7.220   6.325   7.372  0.1986  0.0324  0.0773
13982SOL    HW145351   7.316   6.329   7.373  0.2174 -0.4060  0.1183
13982SOL    HW245352   7.196   6.353   7.284  0.4360 -1.3155 -0.4266
13983SOL     OW45353   8.706   1.016   6.477  0.7102 -0.0620 -0.4195
13983SOL    HW145354   8.750   1.008   6.393 -0.1046  3.0612 -1.2043
13983SOL    HW245355   8.692   1.110   6.488 -0.8770 -0.5660  2.3377
13984SOL     OW45356   1.525   3.730   3.272 -0.3141  0.1917  0.3641
13984SOL    HW145357   1.451   3.773   3.316 -0.3578  1.5191 -0.9694
13984SOL    HW245358   1.533   3.646   3.316 -1.8101  0.5620  1.3915
13985SOL     OW45359   7.112   3.256   0.057 -0.1501 -0.4603  0.1994
13985SOL    HW145360   7.055   3.331   0.073 -0.3831 -0.5434 -0.2223
13985SOL    HW245361   7.069   3.183   0.101 -0.1277 -0.4280  0.2742
13986SOL     OW45362   0.157   0.831   9.461 -0.5566  0.0296 -0.1398
13986SOL    HW145363   0.108   0.754   9.490  1.9146 -1.0554  1.2393
13986SOL    HW245364   0.165   0.819   9.366 -0.6105 -1.1718 -0.0034
13987SOL     OW45365   3.669   4.881   4.857 -0.1831 -0.4792 -0.3183
13987SOL    HW145366   3.587   4.886   4.906 -1.0941 -1.1269 -1.7216
13987SOL    HW245367   3.676   4.966   4.813 -0.9413 -0.9771 -1.4475
13988SOL     OW45368   5.355   5.787   9.905 -0.0480 -0.3989 -0.5373
13988SOL    HW145369   5.275   5.833   9.931  1.7217  1.4403  1.9117
13988SOL    HW245370   5.383   5.830   9.825  0.4034  1.3402  0.5458
13989SOL     OW45371   7.098   2.699   1.058  0.0476  0.5947 -0.2121
13989SOL    HW145372   7.010   2.689   1.094  0.6172 -0.5630  0.8957
13989SOL    HW245373   7.089   2.769   0.993 -2.2135 -1.1224 -1.8498
13990SOL     OW45374   0.035   4.041   6.924 -0.0952 -0.1091  0.5364
13990SOL    HW145375   0.035   3.959   6.974 -1.5851 -1.1922 -1.2041
13990SOL    HW245376   0.051   4.014   6.834  0.4624  1.6449  0.0950
13991SOL     OW45377   1.291   6.393  10.394  0.1465 -0.3211  0.2441
13991SOL    HW145378   1.260   6.388  10.485 -0.6129 -0.5931 -0.0239
13991SOL    HW245379   1.384   6.374  10.399  0.3958  1.0454  1.1418
13992SOL     OW45380   7.243   5.361  10.954  0.1037 -0.3647 -0.4113
13992SOL    HW145381   7.233   5.433  11.017 -0.1705  0.4923 -1.4076
13992SOL    HW245382   7.337   5.349  10.945  0.1389 -0.9391  0.6510
13993SOL     OW45383   6.542   2.394   8.566 -0.2268  0.5361 -0.1665
13993SOL    HW145384   6.535   2.446   8.646  0.8716 -0.3748  0.5327
13993SOL    HW245385   6.579   2.455   8.501  0.5847  0.7725  0.5079
13994SOL     OW45386   6.294   7.788   9.762 -0.2762 -0.0751 -0.6875
13994SOL    HW145387   6.373   7.841   9.751 -1.1179  1.0490 -1.4869
13994SOL    HW245388   6.294   7.728   9.687 -0.4224  0.2482 -0.9473
13995SOL     OW45389   7.596   8.765   5.340  0.3148 -0.1747  0.2305
13995SOL    HW145390   7.630   8.742   5.253  1.3250  0.3700  0.4758
13995SOL    HW245391   7.504   8.788   5.324  0.2415 -0.9848 -0.5514
13996SOL     OW45392   6.836   9.774  10.145  0.0091 -0.0950  0.0924
13996SOL    HW145393   6.804   9.796  10.232  0.8719  0.5440  0.2528
13996SOL    HW245394   6.921   9.817  10.139 -0.1371  0.0475 -1.1378
13997SOL     OW45395   1.506   0.515   3.198 -0.2530  0.2208 -0.5308
13997SOL    HW145396   1.422   0.560   3.207  0.4799  1.2463  1.4461
13997SOL    HW245397   1.570   0.585   3.187  0.6367 -0.4371  0.3456
13998SOL     OW45398   0.975   2.292   7.652  0.1315  0.0212  0.5431
13998SOL    HW145399   0.960   2.206   7.692 -1.0776 -0.5480 -1.0752
13998SOL    HW245400   1.041   2.276   7.585  1.1426  0.7049  1.3582
13999SOL     OW45401   5.398   6.341   9.519  0.6521 -0.8803 -0.1385
13999SOL    HW145402   5.311   6.301   9.509  0.7027 -1.0070 -0.0699
13999SOL    HW245403   5.420   6.372   9.431 -0.6943  1.6846  0.3886
14000SOL     OW45404   6.019   6.013   1.140  0.1515  0.2130  0.3252
14000SOL    HW145405   5.938   6.024   1.090 -1.3464  0.1790  2.6600
14000SOL    HW245406   6.048   6.102   1.159  1.6327  0.2522 -1.9642
14001SOL     OW45407   5.368  10.754   8.706 -0.4202  0.2175 -0.0076
14001SOL    HW145408   5.326  10.713   8.630  0.6009 -0.1710 -0.3737
14001SOL    HW245409   5.421  10.684   8.744 -2.0184 -0.0108  1.9194
14002SOL     OW45410  10.125   1.877   0.000  0.8422 -0.1730  0.3537
14002SOL    HW145411  10.217   1.899   0.013  0.8769 -0.0885 -0.0355
14002SOL    HW245412  10.098   1.932  -0.074  0.9099 -1.3810 -0.5712
14003SOL     OW45413   0.528   7.073   5.177 -0.3675 -0.3867  0.5542
14003SOL    HW145414   0.446   7.094   5.131  0.7149  0.5300 -1.0033
14003SOL    HW245415   0.549   6.984   5.149  0.5133  0.3239 -1.1059
14004SOL     OW45416   7.812   0.720   7.754 -0.0667 -0.2413  0.1961
14004SOL    HW145417   7.744   0.665   7.715  1.7299 -1.9853 -0.5587
14004SOL    HW245418   7.826   0.790   7.689 -1.8348  0.7649  0.8341
14005SOL     OW45419   8.859   2.245  10.365 -0.3490 -0.3133 -1.0296
14005SOL    HW145420   8.898   2.316  10.314 -0.0369 -0.5661 -1.1465
14005SOL    HW245421   8.877   2.166  10.314  3.0012 -1.0498  1.0645
14006SOL     OW45422   2.854   2.486   3.390 -0.3223  0.4600  0.0359
14006SOL    HW145423   2.842   2.532   3.307 -2.3822  0.7027  0.4235
14006SOL    HW245424   2.847   2.393   3.367  0.3116  0.4789 -0.2364
14007SOL     OW45425  10.170   9.898   2.796 -0.1172 -0.4190  0.6113
14007SOL    HW145426  10.082   9.902   2.759 -0.0763 -0.2761  0.5299
14007SOL    HW245427  10.176   9.811   2.835  0.0624 -0.8184 -0.2849
14008SOL     OW45428   4.550   3.746   7.597 -0.0250  0.0653  0.3249
14008SOL    HW145429   4.584   3.810   7.534  1.7145 -0.8386  0.3017
14008SOL    HW245430   4.624   3.687   7.612 -0.7926 -0.3899  2.3546
14009SOL     OW45431   6.262  10.722   2.450  0.2680 -0.2996  0.1687
14009SOL    HW145432   6.339  10.714   2.507  1.9906  2.0836 -1.7325
14009SOL    HW245433   6.296  10.758   2.368 -2.5314 -1.4406 -1.5685
14010SOL     OW45434   7.955   0.033   5.815 -0.4938  0.5213 -0.7397
14010SOL    HW145435   7.977   0.116   5.772  1.3075 -0.6658 -2.1634
14010SOL    HW245436   8.039  -0.001   5.846 -1.4623  0.1756  1.6492
14011SOL     OW45437   2.419   4.782   0.930 -0.1169 -0.4570  0.0867
14011SOL    HW145438   2.511   4.799   0.953 -0.4597 -0.7336  1.7216
14011SOL    HW245439   2.402   4.840   0.856  1.6102 -0.9786 -0.7625
14012SOL     OW45440   7.038   2.845   2.404  0.4556 -0.1717  0.0898
14012SOL    HW145441   6.984   2.922   2.419  0.9520  0.0654  0.6563
14012SOL    HW245442   7.123   2.881   2.376  0.7260 -0.5132  0.4792
14013SOL     OW45443   3.003   3.980   4.174 -0.4859  0.2151 -0.0396
14013SOL    HW145444   2.926   3.923   4.176  0.1010 -0.5828  0.1592
14013SOL    HW245445   3.071   3.929   4.219  0.7993 -0.0443 -2.2398
14014SOL     OW45446  10.347   5.927   2.761  0.6680  0.6385 -0.6130
14014SOL    HW145447  10.350   5.832   2.772 -1.2532  0.6054 -0.0849
14014SOL    HW245448  10.318   5.940   2.671  0.7795  0.7212 -0.6371
14015SOL     OW45449   1.576   1.854   9.693  0.4703 -0.5464 -0.1305
14015SOL    HW145450   1.653   1.882   9.644 -2.1493  2.1935 -2.8440
14015SOL    HW245451   1.537   1.785   9.640  0.4737 -1.2534  0.7576
14016SOL     OW45452   3.788   8.196   2.570 -0.4380  0.3707  0.1034
14016SOL    HW145453   3.858   8.201   2.505 -0.6901 -1.5223 -0.3291
14016SOL    HW245454   3.720   8.254   2.536  1.0148  2.5057  0.7000
14017SOL     OW45455   8.412   8.396   6.616 -0.5303 -0.1994  0.0785
14017SOL    HW145456   8.491   8.352   6.648 -0.0285  0.4854 -0.1994
14017SOL    HW245457   8.420   8.486   6.647 -0.4952  0.2397 -1.1476
14018SOL     OW45458   2.224   3.724  10.677 -0.7224 -0.2637 -0.1354
14018SOL    HW145459   2.263   3.788  10.737  1.3434 -0.1716 -1.5322
14018SOL    HW245460   2.131   3.723  10.700 -0.2263  0.8501  2.0714
14019SOL     OW45461   8.549   6.428   0.173 -0.1835 -0.4904 -0.1956
14019SOL    HW145462   8.554   6.521   0.191  0.3072 -0.4606 -0.4543
14019SOL    HW245463   8.537   6.387   0.258  1.2778 -0.3026  0.1262
14020SOL     OW45464   8.318   4.298   8.771  0.2317  0.1063 -0.2271
14020SOL    HW145465   8.335   4.204   8.778  1.2675  0.0206 -3.0953
14020SOL    HW245466   8.397   4.339   8.805  0.4652 -0.1114 -0.4966
14021SOL     OW45467   4.729   7.161   9.002  0.7134  0.0670  0.1942
14021SOL    HW145468   4.742   7.248   9.041  0.4600 -0.2758  1.0524
14021SOL    HW245469   4.767   7.168   8.914  1.3303  0.8377  0.5188
14022SOL     OW45470   2.520   9.554   0.303 -0.8972  0.8849  0.1223
14022SOL    HW145471   2.574   9.491   0.254 -0.6765  0.6631  0.6498
14022SOL    HW245472   2.443   9.566   0.248 -2.3076 -2.0653  1.3100
14023SOL     OW45473   6.666  10.796   6.395 -0.0860  0.4805 -0.5090
14023SOL    HW145474   6.677  10.852   6.471  1.7707 -0.7458  0.1704
14023SOL    HW245475   6.701  10.711   6.423 -0.3776 -0.2735 -2.3706
14024SOL     OW45476  10.191   5.807   1.195  0.5595 -0.5932 -0.5393
14024SOL    HW145477  10.130   5.801   1.122  0.4193  0.6807 -0.5374
14024SOL    HW245478  10.262   5.863   1.163 -0.2795  1.2893  0.8002
14025SOL     OW45479   8.958   9.087   8.238  0.1355 -0.3683 -0.5996
14025SOL    HW145480   8.959   9.000   8.198  0.4549 -0.1429 -1.0753
14025SOL    HW245481   9.047   9.120   8.228 -0.4633  0.8275 -2.1889
14026SOL     OW45482   8.908   0.279   6.024 -0.0425 -0.0099 -0.0854
14026SOL    HW145483   8.813   0.291   6.027 -0.0131  1.0965 -2.6186
14026SOL    HW245484   8.943   0.364   6.049  0.2350  0.6485 -2.5885
14027SOL     OW45485   2.844   6.218   6.037  0.2433  0.0594  0.5592
14027SOL    HW145486   2.885   6.135   6.012 -3.2539 -0.7772 -3.1466
14027SOL    HW245487   2.891   6.284   5.986 -0.2216 -0.3725 -0.4669
14028SOL     OW45488   6.965   9.888   8.749 -1.0095 -0.2682 -0.3515
14028SOL    HW145489   7.000   9.822   8.688 -0.4538  0.9324 -1.3588
14028SOL    HW245490   6.921   9.951   8.692  1.2340  1.9349  0.2862
14029SOL     OW45491   4.731   6.080   9.998  0.1911  0.4514 -0.2934
14029SOL    HW145492   4.662   6.037  10.049  1.8623 -1.4592  0.4456
14029SOL    HW245493   4.779   6.133  10.062 -0.0900  1.1385 -0.6475
14030SOL     OW45494   6.821   9.315   0.138 -0.2342  0.5204 -0.4532
14030SOL    HW145495   6.818   9.394   0.191 -1.8006  0.7020 -0.7895
14030SOL    HW245496   6.736   9.274   0.151  0.6979 -1.3296  0.0232
14031SOL     OW45497  10.473   7.253   3.474  0.2037  0.4249 -0.3686
14031SOL    HW145498  10.482   7.192   3.548  2.2303 -0.6266 -1.4329
14031SOL    HW245499  10.552   7.307   3.478 -0.3555  1.2812 -0.9417
14032SOL     OW45500   3.083   2.412   0.963  0.2694  0.2795 -0.6695
14032SOL    HW145501   3.153   2.401   0.898 -1.0865 -1.8729 -1.8141
14032SOL    HW245502   3.016   2.463   0.917  0.4160  0.9816 -0.0997
14033SOL     OW45503   0.413   7.652   5.804  0.3498  0.1788 -0.1608
14033SOL    HW145504   0.444   7.657   5.713 -0.3958 -2.4190 -0.6085
14033SOL    HW245505   0.458   7.576   5.841 -1.3319 -0.3966  0.8043
14034SOL     OW45506   1.712   4.513   5.638  0.0443  0.6548 -0.0419
14034SOL    HW145507   1.648   4.456   5.681  1.0855 -0.1689  0.4150
14034SOL    HW245508   1.727   4.583   5.702 -0.0957  0.6295  0.0201
14035SOL     OW45509   9.719   9.489  10.684 -0.4806 -0.2679  0.1176
14035SOL    HW145510   9.747   9.434  10.610 -1.2501  0.2434 -0.5599
14035SOL    HW245511   9.684   9.568  10.643 -1.5320 -0.2615  1.0084
14036SOL     OW45512  10.732   1.993   4.255 -0.2473  0.2819 -0.5067
14036SOL    HW145513  10.765   1.913   4.295  1.3023  0.9015 -0.5166
14036SOL    HW245514  10.802   2.022   4.196 -1.2887  0.9819 -1.4405
14037SOL     OW45515   1.538   0.046   7.533  0.3442 -0.3826  0.4802
14037SOL    HW145516   1.522  -0.044   7.505 -1.7548 -0.2792  1.2892
14037SOL    HW245517   1.452   0.080   7.558  1.1104  1.8353  0.2718
14038SOL     OW45518   1.438   4.507   3.405  0.6378 -0.2155 -0.0976
14038SOL    HW145519   1.517   4.464   3.437  0.5612 -0.0638  0.2959
14038SOL    HW245520   1.422   4.578   3.468 -0.2485 -0.7222  0.2518
14039SOL     OW45521  10.035   5.798   3.787 -0.0882  0.1388  0.4621
14039SOL    HW145522   9.943   5.822   3.788  0.4959  2.5182  1.2745
14039SOL    HW245523  10.080   5.878   3.759  1.8236 -0.6052  1.3431
14040SOL     OW45524   4.572   6.239   2.328 -0.3870  0.1384  0.5268
14040SOL    HW145525   4.639   6.303   2.303  2.2245 -1.6133  2.8228
14040SOL    HW245526   4.583   6.167   2.265 -0.8778  0.3282  0.2192
14041SOL     OW45527   2.437   4.474   5.617 -0.2240  0.3443  0.0263
14041SOL    HW145528   2.518   4.422   5.618  0.1475  0.9124  2.2153
14041SOL    HW245529   2.411   4.475   5.525  1.6273 -0.8262 -0.5535
14042SOL     OW45530   3.063   2.331   4.638 -0.5595 -0.1690 -0.5381
14042SOL    HW145531   2.995   2.269   4.614  0.1529 -0.2855 -2.3875
14042SOL    HW245532   3.029   2.416   4.611 -1.3807  0.2233  1.6574
14043SOL     OW45533   2.622   5.661   2.680 -0.1431 -0.5916 -0.3475
14043SOL    HW145534   2.641   5.736   2.623  3.5729  0.0082  1.5695
14043SOL    HW245535   2.667   5.588   2.639 -0.4532 -0.9357 -0.0774
14044SOL     OW45536   4.239   6.704   5.641  0.0545 -0.0201 -0.2851
14044SOL    HW145537   4.225   6.730   5.550 -2.5598 -0.4216 -0.0279
14044SOL    HW245538   4.153   6.674   5.671  1.2238 -1.3583  1.8483
14045SOL     OW45539   6.449   5.084   5.988 -1.0772 -0.3437 -0.3409
14045SOL    HW145540   6.532   5.124   6.013 -1.9102 -0.4427  2.7683
14045SOL    HW245541   6.382   5.141   6.027 -2.4577 -0.8879 -1.8585
14046SOL     OW45542   0.845   1.584   2.364  0.9260  0.1786 -0.1323
14046SOL    HW145543   0.777   1.518   2.371  0.8169  0.5606  3.4270
14046SOL    HW245544   0.798   1.665   2.344  0.8182 -0.3342 -2.0365
14047SOL     OW45545   6.963   7.868  10.091  1.0302  0.0571 -0.5728
14047SOL    HW145546   7.014   7.948  10.080  0.1024  0.6181 -0.7649
14047SOL    HW245547   6.931   7.847  10.003 -0.1813  0.4424 -0.2272
14048SOL     OW45548   5.273   9.768   3.812 -0.2878  0.5712  0.7095
14048SOL    HW145549   5.286   9.822   3.734 -1.2916  1.0022  0.8310
14048SOL    HW245550   5.198   9.807   3.856 -1.3886 -1.2296  0.5221
14049SOL     OW45551   9.367   7.205   1.317 -0.0888 -0.1137 -0.4178
14049SOL    HW145552   9.373   7.110   1.305 -2.3681 -0.3893  0.4155
14049SOL    HW245553   9.275   7.221   1.335  0.0796  2.4045 -1.5800
14050SOL     OW45554   0.722   3.831  10.504 -0.3881 -0.2042  0.2919
14050SOL    HW145555   0.696   3.827  10.412 -0.4772  0.1058  0.3045
14050SOL    HW245556   0.693   3.747  10.541 -0.6458 -0.1938  0.1151
14051SOL     OW45557   5.315   7.615   6.291  0.4162 -0.4149 -0.9102
14051SOL    HW145558   5.246   7.678   6.310  2.4298  1.4654  0.3454
14051SOL    HW245559   5.278   7.558   6.223 -2.0281  1.0905 -0.8704
14052SOL     OW45560   8.982   9.268   5.321 -0.5605 -0.1553  0.0868
14052SOL    HW145561   9.027   9.188   5.348 -0.5762 -0.3597 -0.4774
14052SOL    HW245562   8.992   9.328   5.395 -2.6087 -1.4947  1.4853
14053SOL     OW45563   4.677   2.714   8.814  0.2646 -0.3051  0.1348
14053SOL    HW145564   4.615   2.771   8.859  0.0045  0.5467 -1.2649
14053SOL    HW245565   4.626   2.673   8.744  1.4495  1.0823 -1.5973
14054SOL     OW45566   0.359   4.389   9.137 -0.2347 -0.3513  0.0036
14054SOL    HW145567   0.428   4.350   9.191 -1.6911 -0.1199  2.0902
14054SOL    HW245568   0.364   4.341   9.054  0.6090 -2.2396  1.1069
14055SOL     OW45569   9.171   9.337   1.866  0.1735 -0.0864 -0.2896
14055SOL    HW145570   9.226   9.393   1.920  1.7936 -2.1125  0.2089
14055SOL    HW245571   9.184   9.370   1.777  0.2065  1.0488  0.1233
14056SOL     OW45572   8.773  10.294   5.117  0.4962  0.2704 -0.3523
14056SOL    HW145573   8.730  10.257   5.194 -1.3531 -1.5428 -2.1796
14056SOL    HW245574   8.865  10.268   5.125  0.8133  2.0560  2.3492
14057SOL     OW45575   9.866   6.254   9.864  0.5602 -0.3160  0.0690
14057SOL    HW145576   9.830   6.182   9.813 -0.3518 -0.8718  1.4720
14057SOL    HW245577   9.915   6.212   9.934  0.9463  0.4398  0.2586
14058SOL     OW45578   8.196   7.352   8.050 -0.1723  0.5322 -0.0821
14058SOL    HW145579   8.154   7.273   8.084  0.9424  0.5576  1.3875
14058SOL    HW245580   8.174   7.352   7.956 -0.4094 -1.3734 -0.0475
14059SOL     OW45581   1.633   2.478   9.184  0.8083  0.3154 -0.4604
14059SOL    HW145582   1.560   2.497   9.244  0.7558 -1.2276  0.0008
14059SOL    HW245583   1.697   2.432   9.239  1.1316 -0.3574 -1.3907
14060SOL     OW45584   4.481   1.026   9.269  0.2298 -0.0812  0.6171
14060SOL    HW145585   4.576   1.033   9.281  0.3167 -1.5334  0.8703
14060SOL    HW245586   4.456   1.107   9.224  1.7690 -0.2186 -0.5261
14061SOL     OW45587   0.727   7.826   1.874 -0.1763  0.2249 -0.5675
14061SOL    HW145588   0.712   7.873   1.792  1.2609 -0.2335 -1.1056
14061SOL    HW245589   0.747   7.737   1.848  2.9343  0.6673  0.0919
14062SOL     OW45590   7.148   5.895   1.026 -0.3218  0.3908 -0.0573
14062SOL    HW145591   7.132   5.950   0.949 -1.6207  1.6965  1.1019
14062SOL    HW245592   7.063   5.854   1.043 -0.2674  0.7713  1.1554
14063SOL     OW45593   3.394   9.274   2.688  0.0632  0.1794 -0.1836
14063SOL    HW145594   3.417   9.215   2.760 -0.4193  0.3833  0.1392
14063SOL    HW245595   3.461   9.343   2.692 -0.6481  0.8209  0.8132
14064SOL     OW45596  10.076   4.078   8.864 -0.4423 -0.0168  0.1440
14064SOL    HW145597  10.100   4.078   8.956 -0.3547 -0.0698  0.1213
14064SOL    HW245598  10.068   4.170   8.840 -0.2311  0.0014  0.1447
14065SOL     OW45599   6.842   1.032   4.545 -0.1674 -0.3633 -0.2927
14065SOL    HW145600   6.934   1.045   4.568 -0.3758  0.1735  0.2630
14065SOL    HW245601   6.821   1.105   4.486 -1.9335  3.3783  4.5262
14066SOL     OW45602   3.500   5.561   2.367  0.0742  0.2874 -0.4333
14066SOL    HW145603   3.439   5.635   2.367 -0.3308 -0.0411 -0.7545
14066SOL    HW245604   3.455   5.493   2.317  0.6566 -0.0005 -0.5735
14067SOL     OW45605   5.822   0.343   9.065 -0.0879 -0.1734  0.1214
14067SOL    HW145606   5.778   0.276   9.013 -3.2566 -0.3111  2.7960
14067SOL    HW245607   5.912   0.313   9.073 -0.1323 -1.3747 -3.1228
14068SOL     OW45608   7.108   2.311   2.811  0.0153 -0.4136  0.3408
14068SOL    HW145609   7.037   2.273   2.759 -0.2575 -1.9690  1.8024
14068SOL    HW245610   7.148   2.376   2.754 -3.2755  1.2834 -0.1138
14069SOL     OW45611   6.292   6.621   4.460 -0.5019  0.1219 -0.0762
14069SOL    HW145612   6.317   6.629   4.368 -0.4817 -0.8682 -0.1540
14069SOL    HW245613   6.240   6.700   4.477  0.9938  1.2108 -0.4390
14070SOL     OW45614   2.651   3.918   6.773 -0.2514  0.0505  0.0152
14070SOL    HW145615   2.714   3.849   6.794 -0.4363  0.2025  1.0986
14070SOL    HW245616   2.684   3.958   6.692  1.2037  0.3502  0.7538
14071SOL     OW45617   1.690  10.185   1.907  0.2828 -0.3102  0.2396
14071SOL    HW145618   1.651  10.268   1.932 -0.8314 -0.5914 -0.5536
14071SOL    HW245619   1.739  10.157   1.984  0.6001  1.0313  0.5392
14072SOL     OW45620   7.519  10.471   3.717 -0.2845 -0.0580 -0.2147
14072SOL    HW145621   7.540  10.421   3.795 -2.6130  1.5344  1.4838
14072SOL    HW245622   7.551  10.559   3.736 -0.6364  0.2858 -1.1800
14073SOL     OW45623   9.374   3.721   2.907 -0.5669 -0.7269  0.1261
14073SOL    HW145624   9.458   3.707   2.950 -0.8467  0.8847  1.2486
14073SOL    HW245625   9.361   3.816   2.910 -1.4593 -0.7659 -1.8842
14074SOL     OW45626   7.666   2.122   4.421  1.0913 -0.0658  0.1829
14074SOL    HW145627   7.747   2.149   4.378  1.6792  0.7152  1.7183
14074SOL    HW245628   7.684   2.035   4.455  0.8655 -0.3951 -0.5420
14075SOL     OW45629   8.645   6.328   1.231 -0.1550  0.3211  0.2314
14075SOL    HW145630   8.610   6.369   1.152  0.3113  1.1012  0.4257
14075SOL    HW245631   8.675   6.242   1.203 -1.5972 -0.0917 -0.0843
14076SOL     OW45632   6.854   9.249   9.957  0.0446  0.0197 -0.1421
14076SOL    HW145633   6.908   9.231  10.034  0.5042  0.6009 -0.3278
14076SOL    HW245634   6.769   9.210   9.978  0.0923  0.3895  0.7659
14077SOL     OW45635   2.681   7.108   9.512 -0.3182 -0.6042  0.5949
14077SOL    HW145636   2.767   7.117   9.552 -0.2995  1.4832  0.1487
14077SOL    HW245637   2.688   7.157   9.430 -1.9715 -0.2901  0.6269
14078SOL     OW45638   6.046   7.778   1.512 -0.1399 -0.3078 -0.1068
14078SOL    HW145639   6.133   7.818   1.507 -0.0582  0.1274  3.6628
14078SOL    HW245640   5.994   7.824   1.446  2.2121  0.0022 -1.8128
14079SOL     OW45641   6.192   1.192   4.722 -0.9784 -0.4367  0.0004
14079SOL    HW145642   6.100   1.195   4.748 -0.7364  2.4975  0.8002
14079SOL    HW245643   6.191   1.206   4.627 -1.3895 -1.2938 -0.1238
14080SOL     OW45644  10.255   7.509   2.784  0.0409 -0.2425 -0.5595
14080SOL    HW145645  10.334   7.474   2.742  0.1717 -0.2736 -0.2848
14080SOL    HW245646  10.192   7.516   2.712  1.1643  2.4375 -1.3594
14081SOL     OW45647   8.276   0.075   2.609  0.2083  0.5881  0.4315
14081SOL    HW145648   8.358   0.081   2.659  0.3999  0.6861  0.1139
14081SOL    HW245649   8.278   0.152   2.552 -0.9550  1.5497  1.6755
14082SOL     OW45650   0.839  10.209   6.463  0.3044 -0.4531 -0.0210
14082SOL    HW145651   0.928  10.245   6.453 -0.0147  0.8030  1.4462
14082SOL    HW245652   0.819  10.172   6.378  1.9314 -0.0189 -0.6243
14083SOL     OW45653   6.513   3.630   4.033 -0.3500  0.3114 -0.2960
14083SOL    HW145654   6.568   3.641   3.956  1.6240  0.4846  1.0863
14083SOL    HW245655   6.530   3.708   4.086  1.7899 -1.8618  2.3630
14084SOL     OW45656   8.356   9.017   6.314  0.1721 -0.1773 -0.0976
14084SOL    HW145657   8.275   9.000   6.265 -0.0239 -0.8409  0.4589
14084SOL    HW245658   8.327   9.067   6.391  0.1501 -1.3492  0.6588
14085SOL     OW45659   3.836  10.259   6.727  0.1874 -0.1222  0.5787
14085SOL    HW145660   3.827  10.250   6.822  1.2741  0.9878  0.7988
14085SOL    HW245661   3.828  10.353   6.711 -1.5955 -0.4578 -0.6217
14086SOL     OW45662   8.408   4.126   5.000 -0.4218  0.2378 -0.2544
14086SOL    HW145663   8.473   4.173   4.947  2.6328 -1.6637  1.6881
14086SOL    HW245664   8.391   4.185   5.074 -1.7794  1.2039 -1.3071
14087SOL     OW45665   1.207  10.712   5.922 -0.3580  0.1028 -0.7440
14087SOL    HW145666   1.228  10.626   5.887 -0.2470 -0.0571 -0.2893
14087SOL    HW245667   1.203  10.699   6.017 -2.5750  0.1111 -0.8207
14088SOL     OW45668   0.717   9.386   6.040 -0.1014 -0.3020  0.3516
14088SOL    HW145669   0.689   9.450   6.106 -1.8318 -0.9973  0.3098
14088SOL    HW245670   0.643   9.380   5.980  1.4463  0.2960 -1.6689
14089SOL     OW45671   0.424   4.437   3.139 -0.0258 -0.4208 -0.1063
14089SOL    HW145672   0.416   4.343   3.158 -1.0055 -0.2122  0.5259
14089SOL    HW245673   0.497   4.442   3.077 -0.0499 -1.6154 -0.2540
14090SOL     OW45674   0.274  10.126   5.635  0.2833  0.4022 -0.0413
14090SOL    HW145675   0.197  10.073   5.656  2.3402 -3.4593 -1.7681
14090SOL    HW245676   0.239  10.199   5.584 -2.2100 -1.5968 -1.3351
14091SOL     OW45677   1.820   4.852   2.594 -0.7984  0.2589 -0.4895
14091SOL    HW145678   1.865   4.803   2.526  0.7815  0.2383  0.5523
14091SOL    HW245679   1.735   4.808   2.603  0.1473 -1.5831 -0.3620
14092SOL     OW45680   1.699   6.310   1.006 -0.4265 -0.5563  0.1887
14092SOL    HW145681   1.727   6.281   1.093  0.4177  0.2668  0.1997
14092SOL    HW245682   1.611   6.274   0.996 -0.9313  0.1699  1.7916
14093SOL     OW45683   5.658   3.247   2.746 -0.1011  0.4017  0.0922
14093SOL    HW145684   5.663   3.337   2.714 -1.0389  0.3466 -0.2182
14093SOL    HW245685   5.637   3.195   2.668  0.7415 -0.1350  0.2077
14094SOL     OW45686   1.719   0.004   5.146  0.5632 -0.1045 -0.1038
14094SOL    HW145687   1.775   0.064   5.097  0.5850  1.0519  1.3117
14094SOL    HW245688   1.779  -0.058   5.187  0.6541 -0.1327 -0.2821
14095SOL     OW45689   3.167   9.176   3.225 -0.3209 -0.4574 -0.0821
14095SOL    HW145690   3.073   9.162   3.232 -0.3513  0.4787  1.4828
14095SOL    HW245691   3.175   9.250   3.164 -0.6878  0.6413  1.1836
14096SOL     OW45692   6.945   6.394   6.215  0.6198  0.1379 -0.3189
14096SOL    HW145693   6.932   6.487   6.195  0.2493 -0.2140 -1.8063
14096SOL    HW245694   6.904   6.381   6.300 -0.6774  1.0106 -0.7995
14097SOL     OW45695  10.163   0.408   5.321 -0.1773 -0.2460 -0.3543
14097SOL    HW145696  10.206   0.334   5.363 -1.1222 -1.2765 -1.1725
14097SOL    HW245697  10.104   0.442   5.387  0.0820 -0.3713 -0.0577
14098SOL     OW45698   7.698   8.030   0.067  0.1128 -0.3141  0.0813
14098SOL    HW145699   7.645   8.016  -0.011 -0.5186  1.1202  0.2303
14098SOL    HW245700   7.750   8.108   0.047 -0.9875  0.8258  1.5601
14099SOL     OW45701   8.585   5.809   0.169 -0.3934 -0.4304 -0.1530
14099SOL    HW145702   8.612   5.724   0.205 -0.4552 -0.6722 -0.6719
14099SOL    HW245703   8.514   5.788   0.108 -0.9064  0.0748  0.2670
14100SOL     OW45704   4.800   6.315   1.020 -0.2168  0.4170  0.3524
14100SOL    HW145705   4.838   6.229   1.032 -0.3898  0.1385 -1.0303
14100SOL    HW245706   4.717   6.312   1.069 -0.3595 -0.2879  0.0628
14101SOL     OW45707   5.383   7.531   2.686  0.0340  0.1507  0.0095
14101SOL    HW145708   5.457   7.498   2.634 -0.1113 -0.8243  0.3974
14101SOL    HW245709   5.315   7.550   2.621 -0.6369 -2.3751 -0.0808
14102SOL     OW45710  10.247   2.103   4.274 -0.0819 -0.2652 -0.3100
14102SOL    HW145711  10.267   2.137   4.186 -0.4519  0.4573 -0.1236
14102SOL    HW245712  10.281   2.014   4.273  0.7444  0.0413 -0.8846
14103SOL     OW45713   9.783   7.004   5.479  0.1935 -0.0752  0.1079
14103SOL    HW145714   9.797   6.911   5.461  0.5376  0.0010 -0.0261
14103SOL    HW245715   9.734   7.037   5.404 -0.2321 -0.2203  0.3165
14104SOL     OW45716   8.552   9.012   7.578 -0.1991  0.1152  0.0559
14104SOL    HW145717   8.589   9.046   7.659  0.1992  0.3990 -0.2431
14104SOL    HW245718   8.491   9.081   7.549  0.7303  0.6652 -0.6360
14105SOL     OW45719   5.531   5.614   7.216 -0.0462  0.4082  0.2005
14105SOL    HW145720   5.609   5.559   7.208 -0.4472 -0.1937  0.3717
14105SOL    HW245721   5.565   5.701   7.236  0.6006  0.2370 -0.1243
14106SOL     OW45722   3.609   3.846   3.170 -0.3687  0.1282 -0.2982
14106SOL    HW145723   3.587   3.775   3.109  1.9353  0.2780 -1.3638
14106SOL    HW245724   3.570   3.924   3.131 -0.2471 -0.0398 -0.7668
14107SOL     OW45725   4.243   7.463   1.674  0.0852  0.0590 -0.3546
14107SOL    HW145726   4.270   7.441   1.763 -0.6621 -2.3735 -0.6744
14107SOL    HW245727   4.318   7.510   1.636  1.4150 -1.1513  0.7410
14108SOL     OW45728   8.233   3.597   8.596  0.5327 -0.2873 -0.5248
14108SOL    HW145729   8.214   3.506   8.572  2.2954 -0.2623 -2.1380
14108SOL    HW245730   8.184   3.649   8.532  0.2207 -0.1247 -0.1499
14109SOL     OW45731  10.593   0.120   8.996 -0.1436 -0.0466 -0.4596
14109SOL    HW145732  10.574   0.029   8.975  1.9246 -0.9177  1.2778
14109SOL    HW245733  10.531   0.142   9.065 -0.3317 -0.2942 -0.5493
14110SOL     OW45734   2.365   5.288   2.068 -0.1976  0.2371  0.2943
14110SOL    HW145735   2.455   5.256   2.061 -0.5382 -0.3361 -2.0679
14110SOL    HW245736   2.312   5.216   2.034 -1.5291  0.6844  1.3859
14111SOL     OW45737  10.076   2.277   6.574  0.5481  0.3026 -0.0326
14111SOL    HW145738   9.999   2.240   6.618  0.3215 -0.4530 -1.0511
14111SOL    HW245739  10.072   2.371   6.594 -0.0684  0.1132  0.7683
14112SOL     OW45740  10.383   6.796  10.564  0.2187  0.4812  0.1326
14112SOL    HW145741  10.301   6.846  10.568 -0.7092 -1.0062  0.1702
14112SOL    HW245742  10.442   6.851  10.514 -0.8747  1.4960 -0.0749
14113SOL     OW45743   7.200   3.087   1.064 -0.0219 -0.2048 -0.2128
14113SOL    HW145744   7.114   3.106   1.104 -1.0581 -0.0140 -2.4472
14113SOL    HW245745   7.259   3.149   1.106 -0.8636 -0.6248  1.6850
14114SOL     OW45746   7.270   0.249   1.324  0.0556  0.3349 -0.1516
14114SOL    HW145747   7.333   0.198   1.375 -0.6534  0.1977  0.5991
14114SOL    HW245748   7.258   0.329   1.375 -1.0635 -0.0342  0.1732
14115SOL     OW45749   9.371  10.585  10.740  0.5707 -0.4978 -0.6043
14115SOL    HW145750   9.359  10.541  10.824 -2.3138  0.1793 -0.6285
14115SOL    HW245751   9.416  10.666  10.762  2.0104 -1.4239 -0.0362
14116SOL     OW45752   5.480   4.100   4.708  0.3351  0.3186  0.0522
14116SOL    HW145753   5.397   4.054   4.702  0.9462 -0.9501  1.3031
14116SOL    HW245754   5.534   4.062   4.639 -0.3365  1.6417 -1.2375
14117SOL     OW45755   4.148   0.837   5.641  0.0809  0.0715 -0.3757
14117SOL    HW145756   4.202   0.758   5.638 -0.7252 -0.4450 -1.7716
14117SOL    HW245757   4.211   0.909   5.639  0.7962 -0.5253  0.2301
14118SOL     OW45758   8.076   5.100   2.424 -0.3271  0.2259  0.2923
14118SOL    HW145759   8.115   5.017   2.397  0.4842  0.3697  1.0084
14118SOL    HW245760   8.095   5.160   2.351 -1.7090 -0.4425 -0.6316
14119SOL     OW45761   1.530   8.312   0.399  0.2011  0.2966  0.0566
14119SOL    HW145762   1.434   8.316   0.394  0.0311 -0.7460  1.9162
14119SOL    HW245763   1.560   8.355   0.319 -1.8223  0.1980 -0.7927
14120SOL     OW45764   4.812   2.503   7.842  0.3165  0.3105 -0.5083
14120SOL    HW145765   4.805   2.594   7.812 -0.7312  1.0656  1.9497
14120SOL    HW245766   4.731   2.462   7.811  0.2087  0.5345 -0.5256
14121SOL     OW45767   3.497   7.861   0.172  0.2337  0.5737 -0.0286
14121SOL    HW145768   3.482   7.770   0.199  1.0874  0.2543 -0.6305
14121SOL    HW245769   3.411   7.891   0.143 -0.0676 -0.0219  0.2251
14122SOL     OW45770   6.225   1.258   1.803  0.2566 -0.0833 -0.1747
14122SOL    HW145771   6.175   1.248   1.722  0.6436  0.2173 -0.4565
14122SOL    HW245772   6.159   1.269   1.871 -0.0565  1.2130 -0.6647
14123SOL     OW45773   4.515   5.952   1.877 -0.4181  0.4501  0.8841
14123SOL    HW145774   4.519   5.988   1.789 -2.8421  0.0872  0.5860
14123SOL    HW245775   4.526   6.028   1.934  2.5848  0.4915  0.3138
14124SOL     OW45776   4.145   5.950   0.613  0.2115 -0.8615  0.4319
14124SOL    HW145777   4.152   5.922   0.521  0.6480  0.8448 -0.0595
14124SOL    HW245778   4.177   5.875   0.663 -2.0808 -2.6670 -0.6750
14125SOL     OW45779   8.086   9.733   2.005  0.1538 -0.2686  0.5437
14125SOL    HW145780   8.053   9.770   1.923 -0.0730 -2.2451 -0.2670
14125SOL    HW245781   8.172   9.697   1.982 -0.3032 -1.6446  0.9601
14126SOL     OW45782   4.518   0.824   2.812  0.5063 -0.2302 -0.1869
14126SOL    HW145783   4.603   0.796   2.845 -0.8354 -1.5978  2.2539
14126SOL    HW245784   4.486   0.748   2.763 -0.0344 -0.3362  0.3278
14127SOL     OW45785   2.057   4.327   1.726  0.3965 -0.3269 -0.1543
14127SOL    HW145786   2.121   4.257   1.730  1.3695  0.2513 -3.5956
14127SOL    HW245787   1.991   4.296   1.664  0.9465  1.8056 -1.8950
14128SOL     OW45788   8.876   2.848   4.786  0.4778 -0.2465 -0.1516
14128SOL    HW145789   8.809   2.812   4.845  0.8225 -0.7569 -0.0668
14128SOL    HW245790   8.835   2.926   4.748  0.3371  0.2299  0.9485
14129SOL     OW45791   6.824   5.947   0.893  0.2620 -0.1541  0.2781
14129SOL    HW145792   6.889   6.015   0.910 -1.2470  1.1932  0.7156
14129SOL    HW245793   6.789   5.924   0.979 -0.5983 -0.1139 -0.0587
14130SOL     OW45794   7.457   8.034   1.140  0.0530  0.0275 -0.2944
14130SOL    HW145795   7.457   7.945   1.103  0.3763  0.0711 -0.4034
14130SOL    HW245796   7.413   8.087   1.074 -2.1140 -0.4367  0.7391
14131SOL     OW45797   0.010   5.077   2.966  0.5048 -0.3093  0.4013
14131SOL    HW145798   0.074   5.007   2.982 -0.1571 -1.2738 -1.0342
14131SOL    HW245799  -0.015   5.107   3.053  2.1040 -0.6568  1.0038
14132SOL     OW45800  10.063   2.294   9.079  0.3657  0.0222 -0.3476
14132SOL    HW145801  10.069   2.297   8.983  1.4010  1.1560 -0.2552
14132SOL    HW245802  10.090   2.205   9.101  2.9913  0.6373 -0.9348
14133SOL     OW45803   9.229  10.077   7.451 -0.3355  0.0671 -0.2808
14133SOL    HW145804   9.137  10.088   7.427 -0.5333  1.4687  1.0861
14133SOL    HW245805   9.227  10.052   7.543  0.5667 -2.1424 -0.8271
14134SOL     OW45806  10.026   9.387   3.654  0.2867 -0.3677  0.0163
14134SOL    HW145807  10.084   9.410   3.727  0.1587 -2.2086  0.7197
14134SOL    HW245808  10.075   9.410   3.576  1.3089 -0.3870  0.6434
14135SOL     OW45809   3.871   8.902  10.668  0.1221 -0.3886 -0.1666
14135SOL    HW145810   3.803   8.882  10.604 -1.4559 -1.2330  1.7219
14135SOL    HW245811   3.824   8.913  10.751  2.1340  0.4127  0.9124
14136SOL     OW45812   7.547   7.811   2.661 -0.6752 -0.1904  0.0073
14136SOL    HW145813   7.474   7.805   2.723  0.0919  1.7384  1.1572
14136SOL    HW245814   7.622   7.836   2.716  0.2491  0.5285 -1.5645
14137SOL     OW45815  10.510   8.838   2.138  0.0363  0.1392 -0.7266
14137SOL    HW145816  10.525   8.823   2.231 -0.5260  1.5598 -0.3827
14137SOL    HW245817  10.431   8.893   2.135  0.0795  0.1593 -2.0337
14138SOL     OW45818   5.054   8.083  10.342 -0.8743  0.0027 -0.1258
14138SOL    HW145819   5.043   8.156  10.280 -0.6170  1.7774  1.8765
14138SOL    HW245820   4.973   8.081  10.392 -0.2384 -0.0328  0.9261
14139SOL     OW45821   9.511   6.055   1.968  0.4841 -0.0767  0.1784
14139SOL    HW145822   9.448   5.999   2.013  0.7625 -1.1197 -0.7163
14139SOL    HW245823   9.459   6.102   1.903  0.3773  0.1459  0.4260
14140SOL     OW45824   2.019   9.753   7.172  0.6244 -0.0738  0.2222
14140SOL    HW145825   1.952   9.819   7.158 -0.8399 -1.5378  0.1109
14140SOL    HW245826   2.099   9.791   7.137 -0.0496  1.8923  0.7810
14141SOL     OW45827   7.301   8.119   9.808 -0.0422 -0.9525  0.5424
14141SOL    HW145828   7.305   8.135   9.713 -1.8594 -0.6501  0.4843
14141SOL    HW245829   7.379   8.161   9.843 -0.9508  1.7535 -0.4707
14142SOL     OW45830   6.161   5.861   9.745  0.0377  0.2690 -0.0340
14142SOL    HW145831   6.207   5.944   9.735 -0.2770  0.3143 -1.2099
14142SOL    HW245832   6.208   5.816   9.815 -0.6108  1.9837  1.5361
14143SOL     OW45833   2.656   5.094   6.290  0.2589 -0.2168  0.2036
14143SOL    HW145834   2.737   5.063   6.332 -0.4768 -1.0789  1.0026
14143SOL    HW245835   2.606   5.135   6.361 -1.4558 -2.6023  0.4365
14144SOL     OW45836   3.846   4.879   0.258  0.2365  0.4385 -0.3906
14144SOL    HW145837   3.780   4.810   0.265 -0.1325  0.7885 -0.4631
14144SOL    HW245838   3.800   4.954   0.224  0.2325  1.3092  1.4561
14145SOL     OW45839  10.879   0.051   6.710  0.1147  0.1577  0.0967
14145SOL    HW145840  10.873  -0.027   6.656 -1.4190  0.4236 -0.1157
14145SOL    HW245841  10.878   0.018   6.800 -1.8236  0.0123  0.0314
14146SOL     OW45842   6.426   9.806   1.421 -0.5530 -0.1669 -0.7037
14146SOL    HW145843   6.335   9.778   1.430 -0.8223  0.8215 -0.3070
14146SOL    HW245844   6.421   9.897   1.392  0.3114 -0.2659 -1.1918
14147SOL     OW45845   0.721  10.765  10.142 -0.0722  0.0018 -0.2912
14147SOL    HW145846   0.630  10.778  10.168  0.0952  0.3428  0.1316
14147SOL    HW245847   0.722  10.679  10.100  0.1660 -1.8218  3.3047
14148SOL     OW45848   5.608   6.990   2.833  0.5057 -1.1197  0.4808
14148SOL    HW145849   5.645   7.074   2.860  1.4020 -0.3117 -2.9272
14148SOL    HW245850   5.516   6.995   2.859  1.0995 -0.0900  2.4764
14149SOL     OW45851   3.524   0.690   9.120 -0.2466 -0.2460 -0.5055
14149SOL    HW145852   3.561   0.772   9.086 -0.6148 -0.1079 -0.5769
14149SOL    HW245853   3.572   0.674   9.201 -1.5094  1.0614  0.5201
14150SOL     OW45854   7.188   1.177   5.882 -0.1461 -0.5284  0.1975
14150SOL    HW145855   7.206   1.116   5.953  2.4263 -0.5313 -0.4042
14150SOL    HW245856   7.093   1.186   5.881 -0.3904 -2.6509  1.8370
14151SOL     OW45857   4.431   3.226   2.092 -0.0348  0.2081 -0.4414
14151SOL    HW145858   4.489   3.151   2.103  0.8281 -0.0032 -5.1840
14151SOL    HW245859   4.472   3.295   2.144  1.3138 -1.5201  0.8556
14152SOL     OW45860   1.038   0.334   9.473  0.1029 -0.5275  0.1623
14152SOL    HW145861   1.083   0.382   9.543 -0.4938  0.3398 -0.0367
14152SOL    HW245862   1.015   0.250   9.512  1.7511 -0.9310  0.3228
14153SOL     OW45863   5.761   7.794  10.635 -0.3174 -0.4176  0.0622
14153SOL    HW145864   5.787   7.719  10.688 -2.7013 -0.3288  1.4683
14153SOL    HW245865   5.669   7.808  10.658 -0.6822  1.2339 -2.2286
14154SOL     OW45866   5.961   0.733   5.603 -0.4647 -0.2820  0.7710
14154SOL    HW145867   5.904   0.657   5.613 -0.8187 -0.1348 -0.1162
14154SOL    HW245868   6.049   0.699   5.620 -0.6367 -0.8666  0.5108
14155SOL     OW45869   6.127  10.492   3.012 -0.0254  0.3334  0.4609
14155SOL    HW145870   6.210  10.453   2.985 -1.1155 -2.0032  0.3840
14155SOL    HW245871   6.129  10.488   3.108 -0.2914 -0.2465  0.4427
14156SOL     OW45872   9.664   1.504   1.231  0.2858  0.4140  0.2209
14156SOL    HW145873   9.714   1.530   1.154 -1.1463  1.4170 -0.3716
14156SOL    HW245874   9.637   1.414   1.213 -1.7330  1.2952 -1.3632
14157SOL     OW45875   4.649   4.212   3.014  0.1405 -0.5142  0.6546
14157SOL    HW145876   4.681   4.264   3.088  0.0657  2.4994 -1.3270
14157SOL    HW245877   4.729   4.177   2.974  0.8228  3.2987 -1.6303
14158SOL     OW45878   6.723   1.942   7.654 -0.5441  0.4071  0.0959
14158SOL    HW145879   6.644   1.950   7.707 -0.1589 -0.3819  0.8099
14158SOL    HW245880   6.703   1.874   7.590  0.0086 -0.7981  1.1613
14159SOL     OW45881  10.201   8.101   2.639  0.7281  0.0860 -0.1537
14159SOL    HW145882  10.284   8.140   2.610  1.3256 -0.7266  0.4317
14159SOL    HW245883  10.219   8.070   2.728 -0.0524 -0.5649 -0.2181
14160SOL     OW45884   6.670   7.509   3.537  0.2199  0.5029  0.2422
14160SOL    HW145885   6.583   7.549   3.533  1.0962  2.2311 -2.8414
14160SOL    HW245886   6.654   7.416   3.525 -1.2079  0.7850 -0.1303
14161SOL     OW45887   5.023   5.090   7.844  0.3943 -0.5418  0.3900
14161SOL    HW145888   5.116   5.099   7.869  1.3283 -0.0863 -3.0670
14161SOL    HW245889   5.025   5.054   7.756 -2.7387  0.8201 -0.2856
14162SOL     OW45890   6.369   7.333   4.829  0.2914  0.4525 -0.1842
14162SOL    HW145891   6.322   7.259   4.790  1.4039  0.0278 -0.7311
14162SOL    HW245892   6.306   7.406   4.826 -1.7809 -1.0859  2.7581
14163SOL     OW45893   1.028   4.528   7.163  0.0153  0.1576  0.4293
14163SOL    HW145894   1.085   4.535   7.240 -0.7619  1.3103  0.9150
14163SOL    HW245895   1.041   4.438   7.132  1.3182  0.0840  1.1349
14164SOL     OW45896   5.856   0.931   8.334  0.2347  0.0530  0.1082
14164SOL    HW145897   5.875   0.839   8.317 -1.1650 -0.1918 -0.1889
14164SOL    HW245898   5.784   0.952   8.275 -0.8989  0.7481  1.7173
14165SOL     OW45899  10.752   7.689  10.376  0.5445  0.7548  0.4569
14165SOL    HW145900  10.703   7.707  10.456 -0.6525  1.0104 -0.3255
14165SOL    HW245901  10.692   7.638  10.322  1.1495  1.0392 -0.4954
14166SOL     OW45902   2.794  10.587   2.623 -0.4037  0.1589 -0.0181
14166SOL    HW145903   2.830  10.499   2.631 -0.6447  0.0291 -0.3707
14166SOL    HW245904   2.861  10.636   2.574 -1.6899 -0.6771 -2.6899
14167SOL     OW45905   3.589   3.790   8.454 -0.7226  0.0803 -0.1316
14167SOL    HW145906   3.599   3.717   8.515 -0.1497 -0.2192 -0.5878
14167SOL    HW245907   3.514   3.764   8.400  0.0554 -0.6008 -0.8990
14168SOL     OW45908   3.440   7.552  10.012 -0.0164 -0.4074 -0.0626
14168SOL    HW145909   3.391   7.598  10.080 -1.1660 -1.8882  0.1390
14168SOL    HW245910   3.381   7.482   9.984 -0.3457  1.2908 -3.9227
14169SOL     OW45911   7.046   9.819   7.957  0.6798 -0.2225  0.3537
14169SOL    HW145912   7.082   9.884   8.018 -0.4309 -0.0414  0.8279
14169SOL    HW245913   6.957   9.849   7.940  0.5071 -1.0616 -0.2555
14170SOL     OW45914   9.304   7.201   8.081  0.4003  0.2170  0.6146
14170SOL    HW145915   9.384   7.184   8.032 -0.1836  0.2360 -0.3540
14170SOL    HW245916   9.290   7.295   8.073 -0.5551 -0.0083 -0.5369
14171SOL     OW45917   4.190  10.019   5.767 -0.0265  0.3031  0.4779
14171SOL    HW145918   4.226  10.055   5.686 -2.9914 -0.4776 -1.2234
14171SOL    HW245919   4.152  10.094   5.812 -2.1586  0.0528 -0.8955
14172SOL     OW45920   7.424   0.178   4.516 -0.3102 -0.2529  0.5707
14172SOL    HW145921   7.334   0.206   4.533 -0.6479 -0.9841  0.0172
14172SOL    HW245922   7.445   0.119   4.588 -0.3488 -0.2516  0.5828
14173SOL     OW45923   8.288   8.967  10.877 -0.2395  0.3393 -0.1283
14173SOL    HW145924   8.217   9.026  10.901  0.8590  0.5388  2.9296
14173SOL    HW245925   8.260   8.881  10.908 -1.0578 -0.4503 -2.9566
14174SOL     OW45926  10.886   6.041   2.870 -0.3213  0.3483 -0.2897
14174SOL    HW145927  10.914   6.132   2.865  0.2201  0.0462 -4.3376
14174SOL    HW245928  10.793   6.044   2.849 -0.1257 -0.1031 -1.2264
14175SOL     OW45929   6.658   2.110   5.095 -0.3562  0.2421 -0.6310
14175SOL    HW145930   6.660   2.014   5.101 -0.7308  0.2792  0.1628
14175SOL    HW245931   6.586   2.128   5.035 -1.2181  0.0606  0.3293
14176SOL     OW45932   2.424   1.051   4.459  0.7224  0.1529  0.0664
14176SOL    HW145933   2.420   1.044   4.555  2.9556 -2.6013  0.0356
14176SOL    HW245934   2.511   1.088   4.442  2.0741 -3.2520 -0.9349
14177SOL     OW45935   1.129   1.886   3.532  0.7045 -0.2669 -0.0385
14177SOL    HW145936   1.096   1.810   3.579  0.0575  0.7193  1.1248
14177SOL    HW245937   1.223   1.869   3.520  0.4824 -1.4221 -0.1606
14178SOL     OW45938   1.974   3.258   8.863  0.6532 -0.4099  0.3617
14178SOL    HW145939   2.065   3.274   8.888  0.5222  1.8591 -0.4593
14178SOL    HW245940   1.923   3.318   8.917 -0.3170 -1.2351  0.3800
14179SOL     OW45941   8.229   0.249   2.377 -0.2198 -0.0537  0.3601
14179SOL    HW145942   8.258   0.255   2.286  1.9669  2.7488  1.1764
14179SOL    HW245943   8.169   0.174   2.378  3.3826 -3.2094 -2.3987
14180SOL     OW45944   0.961   7.627   7.189 -0.0226  0.2352 -0.3055
14180SOL    HW145945   0.958   7.672   7.105  1.2423 -0.5151 -0.7676
14180SOL    HW245946   0.920   7.688   7.251 -1.0969  0.7210 -1.4837
14181SOL     OW45947   3.552   3.177   4.739  0.1293  0.0062  0.5450
14181SOL    HW145948   3.542   3.110   4.806  1.9863 -0.6918  0.1318
14181SOL    HW245949   3.623   3.233   4.770  2.2802 -1.4038 -1.6963
14182SOL     OW45950   0.725   7.025   0.822  0.1603 -0.0486  0.7943
14182SOL    HW145951   0.670   6.960   0.779 -1.7143  1.5820  0.6886
14182SOL    HW245952   0.718   7.006   0.915  0.2360 -0.4604  0.7171
14183SOL     OW45953   0.320   7.168   8.049  0.3627 -0.0370  0.3312
14183SOL    HW145954   0.226   7.164   8.061  0.6535 -2.5817  2.0271
14183SOL    HW245955   0.335   7.254   8.009 -2.7973 -0.3221 -1.6450
14184SOL     OW45956   2.896   5.195   9.946 -0.0898 -0.1316  0.1796
14184SOL    HW145957   2.877   5.120   9.890 -1.8898 -1.2767  2.2338
14184SOL    HW245958   2.834   5.262   9.918 -1.8486 -1.1304  1.5539
14185SOL     OW45959   5.379   8.546   5.078 -0.4269  0.8237  0.4679
14185SOL    HW145960   5.313   8.477   5.072 -1.3404  1.8405 -1.7157
14185SOL    HW245961   5.342   8.618   5.027  2.5260  1.2797 -1.1125
14186SOL     OW45962   1.552   7.186   8.654  0.0721  0.2699 -0.4617
14186SOL    HW145963   1.465   7.155   8.678  0.8396 -0.3759  1.6363
14186SOL    HW245964   1.611   7.139   8.714  1.8255  0.9393 -1.6285
14187SOL     OW45965   4.492   2.517   1.625  0.2259  0.4331 -0.3903
14187SOL    HW145966   4.527   2.444   1.574  0.6690 -0.5368  1.2634
14187SOL    HW245967   4.453   2.476   1.701  1.6478  2.0128  1.2277
14188SOL     OW45968   6.608   3.157   5.225 -0.0559  0.4196  1.0984
14188SOL    HW145969   6.522   3.191   5.198  0.4429  1.8773  1.2853
14188SOL    HW245970   6.659   3.154   5.144 -0.2461 -0.3549  1.0041
14189SOL     OW45971   3.605  10.687  10.356  0.0697 -0.0724 -0.0893
14189SOL    HW145972   3.529  10.629  10.361  0.2684 -0.3946 -0.7933
14189SOL    HW245973   3.592  10.749  10.428 -0.9765  0.0195 -0.3471
14190SOL     OW45974   7.445   5.835   0.790 -0.0667  0.0953  0.3902
14190SOL    HW145975   7.384   5.908   0.781  0.8602  0.6395 -2.0534
14190SOL    HW245976   7.390   5.757   0.787 -0.8850  0.6504  0.9278
14191SOL     OW45977   6.129   6.556   6.054  0.3567  0.0688 -0.3207
14191SOL    HW145978   6.158   6.619   5.987  0.1348  2.9199  2.1542
14191SOL    HW245979   6.047   6.521   6.019 -0.8041  2.9976 -0.6997
14192SOL     OW45980  10.263   0.904   1.758  0.3633 -0.3465  0.5511
14192SOL    HW145981  10.236   0.961   1.829  1.1086  0.6463  0.0680
14192SOL    HW245982  10.195   0.914   1.691  0.5033  0.0178  0.4581
14193SOL     OW45983   2.623   5.293   3.004 -0.5544  0.1101 -0.4891
14193SOL    HW145984   2.593   5.203   3.021  1.3044 -0.6873 -1.2123
14193SOL    HW245985   2.570   5.322   2.930 -0.8330 -0.5831 -0.5704
14194SOL     OW45986   5.949   2.047   0.914 -0.0194 -0.2710 -0.1193
14194SOL    HW145987   6.034   2.008   0.936  2.0707  3.1245 -1.5922
14194SOL    HW245988   5.933   2.020   0.824 -1.1202 -1.8505  0.5282
14195SOL     OW45989  10.002   4.550   0.493 -0.4162  0.7030  0.1201
14195SOL    HW145990  10.041   4.502   0.565  0.4603  1.4268  0.1396
14195SOL    HW245991  10.073   4.561   0.430 -0.8990  0.9933 -0.3836
14196SOL     OW45992   4.536  10.139   0.435  0.5330 -0.2072 -0.1809
14196SOL    HW145993   4.502  10.206   0.495 -1.1639 -0.2872 -1.0120
14196SOL    HW245994   4.469  10.132   0.367  0.9776 -2.3326 -0.4269
14197SOL     OW45995   9.304   0.722   6.886  0.3695 -0.3107 -0.3401
14197SOL    HW145996   9.393   0.687   6.878 -0.2838 -1.9120 -0.7668
14197SOL    HW245997   9.292   0.775   6.807  0.1029 -2.0458 -1.4889
14198SOL     OW45998   1.317   9.555   9.718  0.2032  0.1180  0.2512
14198SOL    HW145999   1.239   9.519   9.760 -0.3205  1.2442  0.2684
14198SOL    HW246000   1.385   9.490   9.732 -0.5680 -0.5657  0.8245
14199SOL     OW46001   8.857   9.780   9.570 -0.2325  0.3973  0.1900
14199SOL    HW146002   8.813   9.864   9.583 -1.8256 -0.1731 -1.3287
14199SOL    HW246003   8.929   9.799   9.509 -0.0315  0.8118  0.5521
14200SOL     OW46004  10.633  10.151   9.035  0.4980  0.5650 -0.3111
14200SOL    HW146005  10.720  10.153   9.076 -0.3716  1.7909  1.5135
14200SOL    HW246006  10.583  10.090   9.089  0.0824  0.1630 -1.1366
14201SOL     OW46007   3.246   5.143   2.281 -0.2236 -0.3093  0.8428
14201SOL    HW146008   3.211   5.058   2.308 -1.6580  0.4486  1.3955
14201SOL    HW246009   3.181   5.206   2.310  0.5190  0.9364 -0.1582
14202SOL     OW46010   0.137   8.729   3.619  0.1388  0.0877  0.0781
14202SOL    HW146011   0.150   8.777   3.701 -1.7414 -0.1429  0.5163
14202SOL    HW246012   0.159   8.792   3.550  0.5940  0.6347  0.7210
14203SOL     OW46013   9.937   4.813   2.948  0.2262  0.1603 -0.4971
14203SOL    HW146014   9.969   4.874   3.015 -0.7425  1.9223 -1.6088
14203SOL    HW246015   9.993   4.828   2.872 -1.1774  1.0272 -1.3959
14204SOL     OW46016   7.765   2.108   9.178  0.0185 -0.3869 -0.1467
14204SOL    HW146017   7.674   2.080   9.171  0.4932 -1.9147 -0.5057
14204SOL    HW246018   7.781   2.158   9.099 -0.6659  0.3568  0.1807
14205SOL     OW46019   5.030   1.509   3.831 -0.1359  0.9993  0.4139
14205SOL    HW146020   4.988   1.460   3.760 -0.1131  1.5610  0.0119
14205SOL    HW246021   4.986   1.478   3.911 -0.2401  0.4511  0.1495
14206SOL     OW46022   2.916   4.350   7.755 -0.4777  0.4465 -0.3587
14206SOL    HW146023   2.998   4.365   7.709 -0.6980  2.4889 -0.1638
14206SOL    HW246024   2.933   4.274   7.811  1.6667  1.5591  0.5740
14207SOL     OW46025  10.972   5.709   7.379  0.5837 -0.7380 -0.0438
14207SOL    HW146026  10.997   5.684   7.289  1.3597  0.8141 -0.2819
14207SOL    HW246027  10.953   5.626   7.422 -0.5626 -1.4592 -1.8682
14208SOL     OW46028   2.664   0.598   3.133  0.2829  0.3657 -0.0260
14208SOL    HW146029   2.742   0.626   3.182 -0.4745 -0.2663  1.5767
14208SOL    HW246030   2.622   0.534   3.191 -1.6195  0.9624 -0.7287
14209SOL     OW46031   6.171   5.105   6.574 -0.1394 -0.4213 -0.5396
14209SOL    HW146032   6.135   5.017   6.582 -0.2520 -0.2633  0.9648
14209SOL    HW246033   6.263   5.096   6.601 -1.1822  0.6119  3.7193
14210SOL     OW46034   8.306   7.801   9.360  0.1929 -0.0358 -0.2816
14210SOL    HW146035   8.287   7.724   9.306 -0.7045  0.5007 -0.7503
14210SOL    HW246036   8.389   7.781   9.402  0.7241 -0.6406 -1.5738
14211SOL     OW46037   4.833   9.173   2.410  0.1735 -0.6115  0.0807
14211SOL    HW146038   4.852   9.178   2.503 -0.2703  1.0611  0.0961
14211SOL    HW246039   4.788   9.089   2.400 -0.6891 -0.3464  1.5473
14212SOL     OW46040   4.015   6.692   4.079  0.4738 -0.4504  0.1890
14212SOL    HW146041   4.038   6.720   3.991  0.6454  0.5626  0.5422
14212SOL    HW246042   3.966   6.611   4.067 -1.1343  0.6664 -0.9481
14213SOL     OW46043   0.925   5.533   5.273 -0.1879 -0.4062  0.2799
14213SOL    HW146044   0.831   5.539   5.288 -0.3866 -2.8558  0.1733
14213SOL    HW246045   0.964   5.549   5.359 -0.7617 -1.0321  0.6618
14214SOL     OW46046  10.031   5.763   8.820 -1.0814 -0.2661 -0.1485
14214SOL    HW146047  10.032   5.689   8.759  1.0346 -0.7009  0.3720
14214SOL    HW246048  10.029   5.723   8.907 -1.5027  0.3078  0.1094
14215SOL     OW46049   1.751   3.261   8.463 -0.0578 -0.4976  0.0061
14215SOL    HW146050   1.735   3.225   8.550  0.7096 -0.6656  0.0808
14215SOL    HW246051   1.717   3.194   8.403 -0.5268 -0.4110  0.1750
14216SOL     OW46052   6.366  10.104   8.893 -0.0836  0.2842 -0.2438
14216SOL    HW146053   6.340  10.039   8.958  0.2185  0.4707  0.0683
14216SOL    HW246054   6.386  10.182   8.945  2.6756 -0.3285 -0.3126
14217SOL     OW46055  10.915   9.141   9.825 -0.6683  0.1095 -0.5332
14217SOL    HW146056  10.954   9.217   9.783  0.6867 -0.9383 -1.1964
14217SOL    HW246057  10.970   9.123   9.901 -1.3313  0.1545 -0.0356
14218SOL     OW46058   1.040   8.720   4.015 -0.2215  0.2380 -0.5307
14218SOL    HW146059   1.074   8.810   4.021  0.2166  0.2789 -3.1062
14218SOL    HW246060   0.945   8.730   4.011 -0.1641  0.6132 -1.0062
14219SOL     OW46061   0.599   7.993   4.649  0.1280 -0.2911 -0.3675
14219SOL    HW146062   0.546   8.045   4.709  0.4811 -0.5469  0.1672
14219SOL    HW246063   0.685   7.988   4.691  0.0952 -1.3247 -0.4040
14220SOL     OW46064   2.910   9.874   0.692  0.2682 -0.2182 -0.7290
14220SOL    HW146065   2.838   9.819   0.722 -0.4777 -0.0115 -2.1301
14220SOL    HW246066   2.972   9.874   0.765 -1.9012  0.9694  1.1664
14221SOL     OW46067   8.674   8.322   6.785  0.3308  0.0467  0.5017
14221SOL    HW146068   8.757   8.314   6.738 -0.0537 -0.5497 -0.0855
14221SOL    HW246069   8.699   8.336   6.876  1.0840  1.0137  0.1470
14222SOL     OW46070   0.802   2.070   4.746 -0.1522  0.2003  0.2320
14222SOL    HW146071   0.833   1.989   4.787 -0.9371 -0.3908 -0.3176
14222SOL    HW246072   0.781   2.044   4.656  0.4798  1.2276 -0.2118
14223SOL     OW46073   4.838   3.413   4.617  0.4646 -0.2517  0.0718
14223SOL    HW146074   4.893   3.489   4.597 -1.0380  0.4458 -1.4926
14223SOL    HW246075   4.881   3.340   4.572  0.7533  0.0613 -0.1623
14224SOL     OW46076   3.710   0.356   9.612  0.3437 -0.0798  0.3726
14224SOL    HW146077   3.780   0.420   9.599 -2.0959  2.9476  1.4780
14224SOL    HW246078   3.734   0.310   9.692  2.0817 -0.4809 -0.3678
14225SOL     OW46079   5.228   6.067   7.681  0.1014  0.2301  0.4765
14225SOL    HW146080   5.154   6.128   7.693 -0.8337 -0.6863 -0.5165
14225SOL    HW246081   5.188   5.988   7.646  1.4079 -0.7267  1.1214
14226SOL     OW46082  10.489   2.889   5.333  0.2871  0.1205  0.7677
14226SOL    HW146083  10.546   2.954   5.374 -1.5990  2.2139  0.1972
14226SOL    HW246084  10.549   2.827   5.292  2.1602  0.6935  2.5376
14227SOL     OW46085   4.826   7.779   5.993 -0.1597 -0.1261  0.1466
14227SOL    HW146086   4.833   7.859   6.045  0.7859  0.7442 -1.2764
14227SOL    HW246087   4.913   7.739   5.998 -0.2839 -0.4377 -0.1301
14228SOL     OW46088   9.493   5.358   4.898  0.6283 -0.5957 -0.5108
14228SOL    HW146089   9.559   5.289   4.899  0.3567 -1.0346 -3.9854
14228SOL    HW246090   9.538   5.435   4.862  0.1289  0.1381  0.3869
14229SOL     OW46091   6.649   1.558   4.980 -0.2092 -0.2033  0.3895
14229SOL    HW146092   6.717   1.625   4.974  1.1109 -1.4206  1.5155
14229SOL    HW246093   6.575   1.595   4.932  1.2691  1.1095 -0.9254
14230SOL     OW46094   7.767   3.144   6.907 -0.9585 -0.6441 -0.0147
14230SOL    HW146095   7.770   3.079   6.978 -0.7515 -0.4894  0.1195
14230SOL    HW246096   7.803   3.223   6.946  3.2773 -1.6942 -1.5103
14231SOL     OW46097   3.377   0.275   2.295  0.1721  0.1663  0.2349
14231SOL    HW146098   3.300   0.230   2.260  1.8708 -1.7733 -1.1134
14231SOL    HW246099   3.372   0.259   2.389  0.1971 -2.0881 -0.0981
14232SOL     OW46100   1.495   5.304  10.514  0.7551  0.7210  0.5103
14232SOL    HW146101   1.467   5.367  10.448  1.1392  0.3876  0.0342
14232SOL    HW246102   1.503   5.356  10.594 -4.5374  0.2866  1.5391
14233SOL     OW46103   8.670  10.331   9.683 -0.3057  0.3236 -0.2155
14233SOL    HW146104   8.677  10.281   9.764 -0.3921 -0.0998 -0.4655
14233SOL    HW246105   8.759  10.362   9.666  0.0753 -1.0948 -0.9035
14234SOL     OW46106   8.422   5.657   4.819 -0.1002  0.3818 -0.8509
14234SOL    HW146107   8.469   5.717   4.877 -0.3433 -0.0846 -0.1606
14234SOL    HW246108   8.463   5.572   4.834 -0.3196  0.2138 -1.1894
14235SOL     OW46109   3.894  10.206   4.743 -0.0832 -0.2179  0.5826
14235SOL    HW146110   3.844  10.228   4.822 -2.1471 -1.8612 -0.2202
14235SOL    HW246111   3.899  10.110   4.743  0.3477 -0.2186 -1.0189
14236SOL     OW46112  10.503   2.067   5.855 -0.3772 -0.0603 -0.1570
14236SOL    HW146113  10.419   2.067   5.810 -0.0131  0.3911 -0.8402
14236SOL    HW246114  10.487   2.117   5.935 -0.2831  1.6786 -1.2017
14237SOL     OW46115   7.069   6.097   7.417  0.5088  0.0430 -0.1693
14237SOL    HW146116   7.141   6.160   7.407  0.4592  0.0845 -0.2643
14237SOL    HW246117   7.080   6.062   7.505 -0.2757  1.1922  0.3985
14238SOL     OW46118   7.762  10.812   5.822 -0.7256 -0.4957 -0.0160
14238SOL    HW146119   7.819  10.888   5.827 -0.2767 -0.9236  1.8892
14238SOL    HW246120   7.701  10.823   5.896 -0.3072 -2.2306  0.6131
14239SOL     OW46121   3.339   7.531   6.295  0.4042  0.1986  0.3978
14239SOL    HW146122   3.249   7.501   6.283 -0.4627  1.6344  2.8855
14239SOL    HW246123   3.389   7.451   6.313 -0.8282 -0.3514  1.4260
14240SOL     OW46124   6.814   4.409   3.918  0.2821  0.9014  0.2746
14240SOL    HW146125   6.779   4.492   3.950  0.5957  0.0969  2.8384
14240SOL    HW246126   6.737   4.354   3.904  0.2439  0.2075  2.8293
14241SOL     OW46127   5.877   3.215   9.106  0.6344  1.0657 -0.4106
14241SOL    HW146128   5.926   3.134   9.122 -2.5701 -0.8011  0.4972
14241SOL    HW246129   5.850   3.244   9.194 -0.8084  1.4059 -0.9500
14242SOL     OW46130   9.700   7.470   6.141  0.7347 -0.0849 -0.5944
14242SOL    HW146131   9.699   7.564   6.121  0.7257 -0.6072 -3.2558
14242SOL    HW246132   9.753   7.431   6.072 -0.0317 -2.1582 -0.0571
14243SOL     OW46133   5.037   8.245   0.838  0.7117  0.5332  0.8329
14243SOL    HW146134   5.011   8.174   0.897 -0.5983  0.2363 -0.0798
14243SOL    HW246135   5.104   8.206   0.781  0.3951  0.1823  0.7003
14244SOL     OW46136   1.036   6.889   0.835  0.3098 -0.8864 -0.0813
14244SOL    HW146137   1.037   6.863   0.743 -0.7144  0.4435 -0.4820
14244SOL    HW246138   0.956   6.940   0.845  1.2619  0.4166  1.1380
14245SOL     OW46139  10.633   5.571   5.963  0.7533 -0.1076 -0.2846
14245SOL    HW146140  10.700   5.583   5.895  0.6119  0.9222 -0.2509
14245SOL    HW246141  10.611   5.478   5.958  2.6009 -0.5834  0.0854
14246SOL     OW46142   5.835   2.781   3.446  0.5520  0.3088  0.1995
14246SOL    HW146143   5.877   2.758   3.529  2.0394  0.9210 -0.3831
14246SOL    HW246144   5.869   2.867   3.423  0.4327 -0.0040 -1.2364
14247SOL     OW46145   0.644   6.035   7.076  0.3986  0.6370  0.5492
14247SOL    HW146146   0.608   6.086   7.003 -1.3045  0.1600  1.0453
14247SOL    HW246147   0.715   5.984   7.037 -1.9832 -1.3789 -1.2936
14248SOL     OW46148   1.492   0.697   1.724 -0.0029 -0.6180  0.2804
14248SOL    HW146149   1.446   0.648   1.793  0.5317 -0.9612  0.3992
14248SOL    HW246150   1.481   0.644   1.646 -1.6430  0.3714 -0.1820
14249SOL     OW46151   3.032   0.602  10.485 -0.0431 -0.6205 -0.0055
14249SOL    HW146152   3.102   0.543  10.513  1.7985  0.9497 -1.2129
14249SOL    HW246153   3.023   0.664  10.558  1.8703  0.9357 -1.0499
14250SOL     OW46154   8.768   0.841  10.553 -0.1142  0.3759  0.3010
14250SOL    HW146155   8.753   0.871  10.643  3.0118 -0.7589  1.2727
14250SOL    HW246156   8.810   0.916  10.510  0.0192  0.2968  0.2952
14251SOL     OW46157   9.857   6.438   8.803  0.5885 -0.3851  0.1199
14251SOL    HW146158   9.924   6.377   8.833  0.4726 -1.3296 -1.4829
14251SOL    HW246159   9.797   6.384   8.752  0.6305  1.1226 -1.5620
14252SOL     OW46160   7.889   0.503   2.564  0.2584 -0.2185  0.3689
14252SOL    HW146161   7.874   0.430   2.503  0.4911 -0.8165  1.0084
14252SOL    HW246162   7.922   0.460   2.643  2.2517  0.7776  0.0855
14253SOL     OW46163   3.685   2.995   9.974  0.2244 -0.1633 -0.0343
14253SOL    HW146164   3.645   3.043   9.902  1.7881  2.9941  1.0730
14253SOL    HW246165   3.631   3.018  10.050  1.3799  0.4175  0.6253
14254SOL     OW46166   6.688   8.541   5.184  0.4806 -0.7474 -0.0829
14254SOL    HW146167   6.605   8.588   5.180  2.2291  2.4679 -0.1563
14254SOL    HW246168   6.705   8.515   5.093  0.5921  0.4939 -0.4220
14255SOL     OW46169  10.043   8.690   7.017 -0.2169  0.0648 -0.3753
14255SOL    HW146170  10.038   8.781   6.989  1.2025 -0.0946 -1.1846
14255SOL    HW246171  10.066   8.641   6.938 -1.5946 -1.0828 -0.0843
14256SOL     OW46172   7.619   7.030   5.974 -0.8253 -0.3117 -0.3928
14256SOL    HW146173   7.526   7.053   5.977 -0.3326  2.5916 -3.9402
14256SOL    HW246174   7.625   6.966   5.904  0.0306  0.7762 -1.3353
14257SOL     OW46175  10.869   0.908   4.126  0.2511  0.0781  0.1552
14257SOL    HW146176  10.879   0.828   4.177 -1.2211 -0.1263  0.1279
14257SOL    HW246177  10.815   0.882   4.051  2.4529  0.3428 -1.5793
14258SOL     OW46178   3.516   3.146   6.157  0.4849  0.2746  0.4722
14258SOL    HW146179   3.468   3.171   6.078 -0.5111  2.1965  1.6430
14258SOL    HW246180   3.456   3.090   6.205  1.3933 -1.5719 -0.4606
14259SOL     OW46181   9.078   7.281   0.229 -0.2023 -0.1302  0.1974
14259SOL    HW146182   9.018   7.238   0.289 -0.2814  0.5525  0.6184
14259SOL    HW246183   9.164   7.244   0.250 -0.6276 -1.9454 -1.1881
14260SOL     OW46184   3.088   6.953   4.184  0.1457 -0.4680  0.9150
14260SOL    HW146185   3.006   6.954   4.234 -0.5296 -0.8398 -0.1673
14260SOL    HW246186   3.156   6.968   4.250 -0.8712  1.0596  1.6505
14261SOL     OW46187   1.817   8.779   5.295 -0.6004 -0.7070 -0.5403
14261SOL    HW146188   1.876   8.834   5.348 -1.0822  0.5735 -1.3034
14261SOL    HW246189   1.754   8.744   5.358 -0.8016  0.3150 -0.1551
14262SOL     OW46190   2.677   8.842  10.177 -0.0483  0.9602  0.4736
14262SOL    HW146191   2.758   8.860  10.224  2.0931 -1.8509 -1.9065
14262SOL    HW246192   2.662   8.920  10.124  2.1245  0.8728 -0.3504
14263SOL     OW46193  10.291   2.231   2.386 -0.2107 -0.2607 -0.4294
14263SOL    HW146194  10.279   2.260   2.295  0.1091  0.6773 -0.1789
14263SOL    HW246195  10.241   2.150   2.392  0.4704 -0.8007 -1.6906
14264SOL     OW46196   7.687  10.885   0.226 -0.2008 -0.1414  0.3439
14264SOL    HW146197   7.606  10.909   0.272  0.6011  0.8324  1.2750
14264SOL    HW246198   7.657  10.849   0.142 -1.5447  1.7833 -0.0362
14265SOL     OW46199   1.792   5.370   5.159 -0.3803 -0.3473 -0.2301
14265SOL    HW146200   1.860   5.317   5.202  0.8329  1.6911  0.4117
14265SOL    HW246201   1.841   5.433   5.106 -1.7806  1.0001  0.0621
14266SOL     OW46202  10.096   6.933   7.288 -0.1225 -0.1069  0.3159
14266SOL    HW146203  10.169   6.880   7.320 -0.0365 -0.3474 -0.2725
14266SOL    HW246204  10.133   7.020   7.276 -0.3578  0.1830  1.6569
14267SOL     OW46205   3.298   0.771   2.605  0.0184  0.2620 -0.0911
14267SOL    HW146206   3.379   0.820   2.618  1.5367 -2.0241 -0.7065
14267SOL    HW246207   3.275   0.786   2.513  0.5841 -0.3333 -0.3306
14268SOL     OW46208   2.747   1.245   1.179  0.4962  0.0328 -0.5950
14268SOL    HW146209   2.683   1.316   1.179  0.5751  0.1151  0.7093
14268SOL    HW246210   2.786   1.248   1.267  1.6918 -0.5510 -1.0937
14269SOL     OW46211   8.997   6.213   8.119 -0.6550 -0.4212  0.2184
14269SOL    HW146212   8.990   6.168   8.035 -0.1412 -0.4467  0.1880
14269SOL    HW246213   8.916   6.261   8.128 -1.1395 -1.2133  0.1620
14270SOL     OW46214   3.938   5.445   0.567  0.1023  0.5828  0.0078
14270SOL    HW146215   4.022   5.428   0.608  0.0051 -1.0164 -0.4155
14270SOL    HW246216   3.874   5.407   0.627 -0.2258  0.6585 -0.2918
14271SOL     OW46217   4.265   3.921   8.674  0.2270  1.3422  0.6376
14271SOL    HW146218   4.317   3.982   8.622 -0.1437  0.9097 -0.2405
14271SOL    HW246219   4.219   3.867   8.610  1.7454 -0.8956  1.3809
14272SOL     OW46220   0.747   1.796   5.139  0.2288  0.0215 -0.7882
14272SOL    HW146221   0.783   1.797   5.228 -0.2231 -2.0902 -0.5685
14272SOL    HW246222   0.654   1.814   5.150  0.4657  1.4953 -1.0158
14273SOL     OW46223   0.271  10.595   2.465  0.1816  0.1542 -0.2876
14273SOL    HW146224   0.351  10.632   2.502  0.9095 -2.5276  0.9569
14273SOL    HW246225   0.259  10.513   2.513 -2.0580 -0.5845 -2.0551
14274SOL     OW46226   9.485   0.606   1.497  0.5451  0.1445  0.1776
14274SOL    HW146227   9.530   0.577   1.576  0.1249  0.0529  0.3814
14274SOL    HW246228   9.556   0.625   1.435  0.8495 -0.5985  0.2893
14275SOL     OW46229   1.666   7.531   3.798  0.2753 -0.3529  0.3585
14275SOL    HW146230   1.679   7.547   3.705 -0.6621 -1.0712  0.1036
14275SOL    HW246231   1.594   7.589   3.823  0.4507 -0.2424  0.6171
14276SOL     OW46232   3.047   1.555   7.124  0.2022  0.0462  0.3519
14276SOL    HW146233   3.106   1.529   7.054  0.4731  1.5810 -0.0056
14276SOL    HW246234   3.105   1.572   7.199  0.1140  0.5978  0.2910
14277SOL     OW46235   5.116   9.951  10.328  0.3023  0.0122 -1.0366
14277SOL    HW146236   5.152   9.879  10.380 -0.3529  1.0256  0.8746
14277SOL    HW246237   5.061   9.908  10.263 -1.5699 -1.1645  1.2530
14278SOL     OW46238   1.011   6.998   6.131 -0.1491  0.5491  0.2707
14278SOL    HW146239   1.061   7.044   6.064 -1.0951  0.8565 -0.2476
14278SOL    HW246240   0.933   7.053   6.144 -0.8470 -0.4393  0.3130
14279SOL     OW46241   9.950   6.563   2.217  0.3466  0.0295  0.9679
14279SOL    HW146242   9.957   6.628   2.287  0.6843  0.4764  0.5243
14279SOL    HW246243  10.031   6.512   2.222  0.9475  0.8815  0.1000
14280SOL     OW46244   3.235   1.027   0.711  0.0860  0.2354 -0.1897
14280SOL    HW146245   3.140   1.035   0.706  0.0028 -0.5394  0.0882
14280SOL    HW246246   3.268   1.083   0.640 -0.5470  1.0763  0.1643
14281SOL     OW46247   6.701   2.467   9.049  0.2234 -0.2951 -0.4259
14281SOL    HW146248   6.639   2.477   9.121 -2.6546  1.4522 -3.0353
14281SOL    HW246249   6.768   2.534   9.065 -0.4926  0.2079  0.4939
14282SOL     OW46250   8.066   2.178   4.061 -1.1023  0.5973  0.3392
14282SOL    HW146251   7.992   2.127   4.028 -0.8488  0.6411 -0.3178
14282SOL    HW246252   8.027   2.248   4.112 -1.4758  0.0401  0.8234
14283SOL     OW46253  10.687   5.616  10.015 -0.3174  0.4399  0.9107
14283SOL    HW146254  10.659   5.531  10.050 -0.1143  0.3602  0.8811
14283SOL    HW246255  10.719   5.663  10.092 -0.4006  0.4764  0.9228
14284SOL     OW46256  10.563   4.719   5.814 -0.6428  0.3345  0.1793
14284SOL    HW146257  10.635   4.672   5.772 -0.0557  0.1427  1.3720
14284SOL    HW246258  10.486   4.698   5.762  0.3042  1.2498 -1.6461
14285SOL     OW46259   1.384   5.001   5.368  0.4198 -0.3348 -0.1519
14285SOL    HW146260   1.354   4.933   5.307 -0.9654  0.8723 -0.8459
14285SOL    HW246261   1.382   5.082   5.316 -3.7137  1.2790  2.2216
14286SOL     OW46262   8.493   5.489   6.165 -0.0116 -0.6261 -0.0485
14286SOL    HW146263   8.588   5.496   6.176 -0.1702  2.1125 -0.0647
14286SOL    HW246264   8.472   5.402   6.199  2.3011 -0.6946  1.3661
14287SOL     OW46265   1.510   6.400   2.510  0.8110 -0.4872  0.1236
14287SOL    HW146266   1.495   6.306   2.521  2.4120 -0.6203  1.4240
14287SOL    HW246267   1.568   6.423   2.583  1.9462  1.1375 -1.2706
14288SOL     OW46268   3.190   2.462   2.430  0.0950 -0.4734  0.2383
14288SOL    HW146269   3.197   2.542   2.378 -1.5665  0.8906  2.0238
14288SOL    HW246270   3.099   2.435   2.420 -0.0609 -0.5833  1.8219
14289SOL     OW46271   3.206   2.596   8.765  0.4766  0.1949 -0.4394
14289SOL    HW146272   3.238   2.638   8.844 -0.0262  0.3555 -0.3167
14289SOL    HW246273   3.281   2.548   8.730  0.4108 -0.7462  0.7165
14290SOL     OW46274   7.916   5.382   9.598 -0.1191 -0.2337 -0.2520
14290SOL    HW146275   7.886   5.326   9.526 -0.9690  0.5289 -0.5052
14290SOL    HW246276   7.845   5.446   9.609  0.7598  0.6891  0.1360
14291SOL     OW46277   6.805   5.088   9.381 -0.0770  0.1618  0.0592
14291SOL    HW146278   6.857   5.080   9.302 -0.1942  0.5172 -0.0547
14291SOL    HW246279   6.868   5.085   9.453 -0.0590 -1.1432 -0.0031
14292SOL     OW46280   4.004   2.542   9.981 -0.0626 -0.1094  0.3734
14292SOL    HW146281   3.955   2.614   9.942 -0.8437 -0.4667  0.6863
14292SOL    HW246282   3.955   2.519  10.060  0.4150 -0.6995  0.5019
14293SOL     OW46283  10.003  10.787   4.126  0.2550  0.7256 -0.1682
14293SOL    HW146284   9.952  10.801   4.206  1.0729 -0.3852  0.5557
14293SOL    HW246285   9.938  10.793   4.056 -0.2382  3.1612  0.4435
14294SOL     OW46286   8.322   3.014   5.638  0.6661  0.2521 -0.6248
14294SOL    HW146287   8.400   2.984   5.592  0.0042 -2.1511 -0.2457
14294SOL    HW246288   8.251   2.959   5.603 -0.4723  0.9002  0.6092
14295SOL     OW46289   4.955   4.233   6.823  0.4743  0.1076 -0.6651
14295SOL    HW146290   5.027   4.193   6.872  0.7272  2.5213  1.0722
14295SOL    HW246291   4.996   4.303   6.773 -0.3014 -0.1902 -1.7430
14296SOL     OW46292   6.908   8.364   7.556  0.3762  0.2873 -0.5637
14296SOL    HW146293   6.836   8.386   7.498 -0.3648 -1.4769 -0.3197
14296SOL    HW246294   6.900   8.426   7.629 -0.6295  0.3634 -0.7374
14297SOL     OW46295   4.308   6.053   9.263  0.2539  0.0008 -0.0922
14297SOL    HW146296   4.292   6.023   9.352 -0.3216  1.9429  0.4786
14297SOL    HW246297   4.379   6.117   9.272 -0.4120  0.8624 -0.8993
14298SOL     OW46298   5.982   4.146  10.980 -0.2986  0.3962  0.2088
14298SOL    HW146299   5.931   4.101  11.048 -1.4705  0.0202 -0.8849
14298SOL    HW246300   6.028   4.076  10.934  2.7093  0.8747  2.3215
14299SOL     OW46301   6.705   6.270   8.803 -0.0490 -0.5333 -0.2924
14299SOL    HW146302   6.786   6.310   8.836  0.4038  0.3759 -2.4386
14299SOL    HW246303   6.729   6.178   8.790  0.2378 -0.5535  0.3125
14300SOL     OW46304   1.094   6.459  10.921  0.2530  0.0771  0.3732
14300SOL    HW146305   1.035   6.464  10.846 -0.0793 -1.0470  0.5593
14300SOL    HW246306   1.117   6.551  10.939 -1.7530  0.5578  0.5825
14301SOL     OW46307   6.091   0.832   3.999  0.0144 -0.7434  0.3245
14301SOL    HW146308   6.062   0.887   3.926 -0.5178  0.4877  1.4390
14301SOL    HW246309   6.018   0.772   4.014 -0.7718  0.4216  1.2288
14302SOL     OW46310   9.171   9.714  10.472 -0.0924  0.3094 -0.4173
14302SOL    HW146311   9.244   9.740  10.528 -1.0599 -0.8962  1.4436
14302SOL    HW246312   9.186   9.761  10.390  2.7634  0.1354 -0.0685
14303SOL     OW46313   3.775   3.252   6.033 -0.3838 -0.0229 -0.4780
14303SOL    HW146314   3.797   3.332   6.080  1.1965  0.3526 -1.7867
14303SOL    HW246315   3.706   3.211   6.085 -0.9905  2.0202  0.3782
14304SOL     OW46316   7.832   2.210   1.680 -0.5181  0.3705  0.2236
14304SOL    HW146317   7.843   2.301   1.708  0.4556  0.1619  0.5504
14304SOL    HW246318   7.772   2.172   1.744 -3.0440  1.4774 -1.4347
14305SOL     OW46319  10.242   5.940   8.409  0.4028  0.0252 -0.2025
14305SOL    HW146320  10.330   5.927   8.375 -0.2222 -1.6669 -1.2275
14305SOL    HW246321  10.245   5.904   8.498  0.5568 -0.6213 -0.4743
14306SOL     OW46322   5.969   4.702   4.819  0.0827 -0.1003  0.5400
14306SOL    HW146323   5.885   4.670   4.788  0.2198 -0.6402  0.7283
14306SOL    HW246324   5.974   4.673   4.910 -0.1499  1.1379  0.9543
14307SOL     OW46325   4.365   7.049   9.417  0.4058 -0.7799  0.2308
14307SOL    HW146326   4.297   6.982   9.404  0.6944 -1.0241 -0.0242
14307SOL    HW246327   4.416   7.047   9.336  1.4542 -1.4422  0.8924
14308SOL     OW46328   8.193   8.527   0.716  0.3395  0.4286 -0.8704
14308SOL    HW146329   8.267   8.585   0.699  0.7178  0.2676  0.1377
14308SOL    HW246330   8.231   8.456   0.770 -0.9427  1.4093  1.4110
14309SOL     OW46331   7.445   5.344   7.218  0.4693  0.1767 -0.1306
14309SOL    HW146332   7.540   5.358   7.225  0.3872  0.5607  0.2599
14309SOL    HW246333   7.432   5.255   7.252  0.9972 -0.9192 -2.6807
14310SOL     OW46334   5.549  10.548  10.799  0.0644 -0.0970  0.7958
14310SOL    HW146335   5.503  10.469  10.769 -0.5351  0.6441 -0.2488
14310SOL    HW246336   5.487  10.619  10.785  0.2842  0.4544  2.5443
14311SOL     OW46337   7.927   6.435   4.295 -0.0032  0.1656 -0.1449
14311SOL    HW146338   7.867   6.385   4.241 -1.6343  1.8951 -0.0099
14311SOL    HW246339   7.877   6.454   4.375  1.4488 -0.1321  0.8543
14312SOL     OW46340   4.991   4.098   5.211 -0.4581  0.1197 -0.0536
14312SOL    HW146341   4.920   4.071   5.269 -1.1936  0.0520 -0.9715
14312SOL    HW246342   5.024   4.017   5.173  0.9953  0.0275  1.3590
14313SOL     OW46343   6.501   0.266   4.036  0.0041 -0.0680  0.6009
14313SOL    HW146344   6.557   0.325   4.087  1.0526 -0.7220  0.2152
14313SOL    HW246345   6.471   0.201   4.099  0.2553 -0.1309  0.6555
14314SOL     OW46346   1.047   0.878   6.309  0.0377 -0.4919 -0.2549
14314SOL    HW146347   1.113   0.817   6.343 -0.0642 -0.6969 -0.4267
14314SOL    HW246348   0.982   0.822   6.267  0.5207 -0.2000 -1.4172
14315SOL     OW46349  10.127   7.642   5.610 -0.1031  0.3707  0.0720
14315SOL    HW146350  10.167   7.704   5.671  1.3272  0.2392 -0.7134
14315SOL    HW246351  10.093   7.696   5.539  2.6479  0.1699 -1.4577
14316SOL     OW46352   8.917   8.888   3.772  0.0962  0.2802  0.3631
14316SOL    HW146353   8.990   8.899   3.710  0.0662 -0.3441  0.2179
14316SOL    HW246354   8.897   8.977   3.800  0.4664  0.5202 -0.1207
14317SOL     OW46355   7.993   6.054   6.905  0.2186  0.2175 -0.4714
14317SOL    HW146356   8.040   6.071   6.987 -2.3875 -0.2527  1.1907
14317SOL    HW246357   7.998   6.136   6.857  0.8944  0.8210  0.6032
14318SOL     OW46358   9.749   0.991   9.116  0.5463 -0.6119  0.0113
14318SOL    HW146359   9.726   1.069   9.066  2.1038  0.4904  0.9487
14318SOL    HW246360   9.668   0.965   9.160  0.1832  0.9363  0.2911
14319SOL     OW46361   0.178   3.730   3.725 -0.2789 -0.3624  0.6797
14319SOL    HW146362   0.092   3.692   3.706 -0.7173  1.3860 -1.0057
14319SOL    HW246363   0.170   3.764   3.814 -0.8470 -1.4839  1.0758
14320SOL     OW46364   7.965   9.984   2.774 -0.5089 -0.3589  0.1368
14320SOL    HW146365   7.968   9.896   2.736 -2.8476 -0.7353  0.7630
14320SOL    HW246366   7.906  10.033   2.717  1.3873  1.0547 -0.6540
14321SOL     OW46367   0.519   6.612   8.711  0.0193  0.5064  0.3969
14321SOL    HW146368   0.539   6.533   8.762  0.3245  2.0650  2.7336
14321SOL    HW246369   0.557   6.594   8.625  1.0318 -1.4547  1.2112
14322SOL     OW46370   3.789   5.667   5.362  0.5864  0.1665 -0.4609
14322SOL    HW146371   3.806   5.591   5.418  1.4628  0.7983  0.1517
14322SOL    HW246372   3.867   5.722   5.372  0.5000  0.5654 -1.8592
14323SOL     OW46373   0.155   8.502   0.255  0.1680  0.5261 -0.2050
14323SOL    HW146374   0.209   8.579   0.270 -0.1318  1.0683 -1.8553
14323SOL    HW246375   0.207   8.447   0.196 -0.7356  0.7024 -1.1851
14324SOL     OW46376   1.013   0.279   1.226 -0.2417  0.4854  0.1565
14324SOL    HW146377   0.947   0.220   1.262 -0.2210  1.3187  1.5802
14324SOL    HW246378   1.085   0.276   1.288  0.6085  0.4575 -0.8086
14325SOL     OW46379   1.147   6.420   7.921  0.5538  0.4622  0.2767
14325SOL    HW146380   1.131   6.360   7.849 -1.7009  0.0744  1.0450
14325SOL    HW246381   1.166   6.505   7.880  0.7275 -0.0830 -0.7585
14326SOL     OW46382   6.862   2.532   3.194  0.2993  0.8074  0.1778
14326SOL    HW146383   6.822   2.515   3.279 -0.9258  1.3573 -0.2732
14326SOL    HW246384   6.909   2.614   3.206  0.0808  0.9139  0.3168
14327SOL     OW46385   6.876   6.779   3.150  0.2471  0.1633  0.0140
14327SOL    HW146386   6.896   6.760   3.241 -1.3780  1.6742  0.7074
14327SOL    HW246387   6.825   6.704   3.120 -1.0532  0.6574  0.9840
14328SOL     OW46388   4.602   5.023   9.629  0.2074 -0.1741 -0.2139
14328SOL    HW146389   4.648   5.104   9.608  1.2706 -0.6839  0.0677
14328SOL    HW246390   4.546   5.006   9.554  2.6824 -1.0757 -1.9277
14329SOL     OW46391   2.280  10.301   2.895 -0.5177 -0.1518  0.3041
14329SOL    HW146392   2.205  10.285   2.952 -2.0274 -0.3585 -1.7095
14329SOL    HW246393   2.308  10.213   2.868 -0.0454 -0.0413  0.4315
14330SOL     OW46394   0.911  10.208   0.656 -0.1099 -0.3560 -0.0663
14330SOL    HW146395   0.864  10.277   0.702 -0.5778 -0.3084 -0.5946
14330SOL    HW246396   0.953  10.157   0.725 -1.5354 -0.8225  0.4863
14331SOL     OW46397   9.549   5.983  10.750 -0.5445  0.0722  0.3209
14331SOL    HW146398   9.499   5.921  10.697 -0.0542 -0.0866  0.0365
14331SOL    HW246399   9.595   5.928  10.814 -0.3556  0.1716  0.2707
14332SOL     OW46400   3.619   3.553   0.897  0.1342 -0.5310 -0.3794
14332SOL    HW146401   3.565   3.484   0.936 -0.6509 -0.6795 -1.6962
14332SOL    HW246402   3.659   3.512   0.821  0.3259  0.2251 -0.6896
14333SOL     OW46403   0.934   0.322   8.446  0.0538 -0.5663 -0.0548
14333SOL    HW146404   0.945   0.339   8.352 -1.0383  0.3633 -0.0277
14333SOL    HW246405   0.913   0.229   8.451  0.4337 -0.6899 -0.7154
14334SOL     OW46406   6.817   6.048   7.961 -0.0425 -0.1582 -0.1137
14334SOL    HW146407   6.873   6.027   7.886 -2.0310  1.2495 -2.0510
14334SOL    HW246408   6.770   6.127   7.935 -2.7770 -1.1682  1.5197
14335SOL     OW46409   3.237   8.453   1.923 -0.1007 -0.1286  0.0170
14335SOL    HW146410   3.274   8.525   1.974 -1.9747  0.2202  0.9267
14335SOL    HW246411   3.144   8.456   1.942 -0.4322 -1.7666 -1.2556
14336SOL     OW46412   8.204   4.333   6.960  0.5936 -0.2983 -0.1760
14336SOL    HW146413   8.143   4.402   6.933  0.3936  0.0912  1.2094
14336SOL    HW246414   8.166   4.252   6.926  0.7315  0.2530 -1.6618
14337SOL     OW46415   0.328   3.591   9.952  0.4049  0.2115 -0.1481
14337SOL    HW146416   0.333   3.668  10.009  0.1597  0.7482 -0.8488
14337SOL    HW246417   0.234   3.575   9.941  0.4452  0.8821 -1.4411
14338SOL     OW46418   3.502   3.188   8.922  0.0467 -0.3459 -0.0270
14338SOL    HW146419   3.534   3.279   8.919 -1.3661  0.1156 -1.9749
14338SOL    HW246420   3.414   3.194   8.957 -0.1469 -0.9381 -0.4012
14339SOL     OW46421   4.978   8.105   2.815 -0.0542 -0.0677 -0.5438
14339SOL    HW146422   4.899   8.084   2.764 -1.2636 -1.2340  1.7447
14339SOL    HW246423   5.007   8.021   2.849  2.6076  0.2637 -1.8797
14340SOL     OW46424   5.938   4.855   0.146 -0.7889 -0.2235 -0.7310
14340SOL    HW146425   5.864   4.796   0.160  0.2942 -1.1285  1.2532
14340SOL    HW246426   6.014   4.797   0.136  0.2470  0.7947  0.9947
14341SOL     OW46427   6.404   7.583   9.357  0.8216 -0.1984 -0.2858
14341SOL    HW146428   6.495   7.569   9.385  0.2354  0.0726  1.8349
14341SOL    HW246429   6.353   7.574   9.437 -0.9885  0.1036 -1.3905
14342SOL     OW46430  10.947   0.921   3.301 -0.1623 -0.1315  0.2245
14342SOL    HW146431  11.006   0.865   3.351 -0.6708 -0.0863  0.8924
14342SOL    HW246432  11.004   0.979   3.251  0.3635 -0.9400 -0.1151
14343SOL     OW46433   8.519   7.017   9.582  0.2990 -0.3573  0.0720
14343SOL    HW146434   8.559   7.067   9.654  2.3577 -1.1301 -0.4821
14343SOL    HW246435   8.533   7.071   9.505 -2.9246  0.9976  0.3832
14344SOL     OW46436   9.548   8.230   2.213  1.4956  0.2472 -0.0723
14344SOL    HW146437   9.565   8.150   2.162  0.6354  0.9078 -1.4519
14344SOL    HW246438   9.521   8.294   2.147 -0.0892  1.0042  1.2656
14345SOL     OW46439   5.319   2.987   8.351  0.3286  0.5324  0.6454
14345SOL    HW146440   5.275   3.071   8.359 -1.1294 -0.0069 -1.4051
14345SOL    HW246441   5.250   2.922   8.369  0.9738 -0.2714  0.2474
14346SOL     OW46442   1.340   6.260   3.099 -0.3412  0.1173 -0.1839
14346SOL    HW146443   1.386   6.292   3.177 -2.6889  0.1068  1.2439
14346SOL    HW246444   1.304   6.339   3.059  1.2619  0.1727 -1.5389
14347SOL     OW46445   4.780   0.967   4.433 -0.1051  0.0659  0.2569
14347SOL    HW146446   4.698   0.976   4.384  0.6979  1.7246 -0.8506
14347SOL    HW246447   4.840   0.923   4.372 -0.0677 -0.7796  0.9105
14348SOL     OW46448   4.574   6.757   6.805  0.0325 -0.0721  0.5268
14348SOL    HW146449   4.516   6.746   6.880 -1.4937  1.1649 -0.4293
14348SOL    HW246450   4.561   6.679   6.752  0.5208 -0.5820  1.1579
14349SOL     OW46451  10.524   6.956   1.288  0.2783 -0.2816 -0.1996
14349SOL    HW146452  10.465   6.881   1.286  1.2599 -1.0436 -1.0411
14349SOL    HW246453  10.605   6.922   1.325 -0.1927  1.0590  2.1351
14350SOL     OW46454   8.629   5.370   8.571  0.4070 -0.0201 -0.0597
14350SOL    HW146455   8.664   5.288   8.606 -0.2636  1.2659  3.9403
14350SOL    HW246456   8.707   5.419   8.544  1.1284 -0.4798  1.1110
14351SOL     OW46457   0.803   0.329   1.645 -0.0176 -0.0254 -0.2628
14351SOL    HW146458   0.804   0.247   1.595  2.0635  0.2236 -0.6691
14351SOL    HW246459   0.758   0.391   1.588  0.0244 -0.4235 -0.7374
14352SOL     OW46460   7.041   9.728   0.866 -0.4175  0.7244 -0.5456
14352SOL    HW146461   7.100   9.668   0.912 -1.0369  0.3569 -0.2095
14352SOL    HW246462   7.075   9.815   0.885 -0.1639  0.5302 -0.0975
14353SOL     OW46463   2.011   2.197   4.172 -0.2441  0.0637 -0.0057
14353SOL    HW146464   1.985   2.218   4.082  2.5286 -0.6189 -1.0247
14353SOL    HW246465   1.961   2.258   4.226 -1.2639  1.1299 -2.0668
14354SOL     OW46466   1.639   4.250   7.190  0.0812 -0.4174  0.5573
14354SOL    HW146467   1.563   4.309   7.195  0.9402  0.5138  3.3666
14354SOL    HW246468   1.713   4.307   7.171  0.5471 -0.9205  0.8376
14355SOL     OW46469   4.670   2.102   4.290  0.6178 -0.6040  0.4076
14355SOL    HW146470   4.738   2.080   4.226  2.1537  0.6558  1.5602
14355SOL    HW246471   4.688   2.193   4.313  0.8759 -1.3831  3.5167
14356SOL     OW46472   9.187   4.037   7.950  0.0853 -0.2385  0.1177
14356SOL    HW146473   9.272   3.998   7.972  0.1918  0.2048  0.5071
14356SOL    HW246474   9.141   3.969   7.900  1.1075 -0.0696 -1.0691
14357SOL     OW46475   8.957   7.100   6.865 -0.3579  0.3982  0.5554
14357SOL    HW146476   9.029   7.094   6.803 -1.1591  0.6836 -0.4098
14357SOL    HW246477   8.984   7.167   6.927  1.4253 -1.4518  1.8416
14358SOL     OW46478   6.765   4.250   6.904 -0.2416 -0.1372 -0.2216
14358SOL    HW146479   6.711   4.299   6.842 -0.1022  0.0820 -0.1715
14358SOL    HW246480   6.722   4.266   6.989  1.0594  1.7323  0.1231
14359SOL     OW46481   6.531   1.795   3.989 -0.5361  0.0017  0.6975
14359SOL    HW146482   6.557   1.703   3.979 -2.1762 -0.4656  0.6114
14359SOL    HW246483   6.568   1.839   3.913  0.9995 -0.4029  1.1826
14360SOL     OW46484   3.680   6.983  10.259 -0.0305 -0.1298  0.2544
14360SOL    HW146485   3.682   7.069  10.301  1.4440 -0.5130  1.0028
14360SOL    HW246486   3.624   6.930  10.316  0.4518 -0.1275  0.7385
14361SOL     OW46487   7.086   8.322   1.234  0.3740  0.1485 -0.1108
14361SOL    HW146488   7.011   8.383   1.236 -0.5415 -0.9438 -0.6348
14361SOL    HW246489   7.162   8.379   1.244 -0.3994  1.5298 -1.7195
14362SOL     OW46490   6.927   0.532   2.123 -1.1348  0.2719 -0.0570
14362SOL    HW146491   6.892   0.476   2.053  0.4170 -1.0285  0.1941
14362SOL    HW246492   6.884   0.617   2.109 -1.3698 -0.1724 -2.1648
14363SOL     OW46493   3.380   6.510   0.169  0.3690  0.1364  0.1744
14363SOL    HW146494   3.399   6.600   0.142  0.3498 -0.0231 -0.3793
14363SOL    HW246495   3.466   6.470   0.183  0.3748  0.2789  0.5546
14364SOL     OW46496   9.863   4.136   4.271 -0.9469 -0.3741 -0.4109
14364SOL    HW146497   9.855   4.231   4.280  0.7969 -0.1637 -0.9228
14364SOL    HW246498   9.877   4.121   4.178  1.5163 -0.8945  0.0108
14365SOL     OW46499   8.352   4.994   9.988  0.5934  0.7565  0.1508
14365SOL    HW146500   8.301   4.977  10.067  1.1797  0.8804  0.5565
14365SOL    HW246501   8.443   5.000  10.018  0.8281  0.7631 -0.5344
14366SOL     OW46502   9.447   5.194   2.389 -0.4675  0.5465  0.3218
14366SOL    HW146503   9.469   5.105   2.417 -0.1273  0.3370 -0.5916
14366SOL    HW246504   9.379   5.183   2.323  0.1868  0.9042 -0.4294
14367SOL     OW46505   2.305   9.612   2.574  0.0636  0.2580  0.4687
14367SOL    HW146506   2.388   9.618   2.528 -0.2484 -0.2109 -0.1737
14367SOL    HW246507   2.328   9.591   2.664  0.5950 -1.6098 -0.0680
14368SOL     OW46508   5.817   4.656   6.095 -0.3023 -0.0096  0.6112
14368SOL    HW146509   5.752   4.709   6.142  2.3236  1.6194  2.5453
14368SOL    HW246510   5.864   4.719   6.041  0.0994 -1.0613 -0.2790
14369SOL     OW46511   8.503   0.681   2.613 -0.1579  0.1723 -0.3938
14369SOL    HW146512   8.473   0.632   2.536 -1.8491 -0.5829  0.7049
14369SOL    HW246513   8.477   0.771   2.595 -1.6723 -0.2054 -0.1920
14370SOL     OW46514   6.548   8.628   3.762  0.3892 -0.2806  0.7164
14370SOL    HW146515   6.613   8.581   3.814  1.7579  0.8883  0.0945
14370SOL    HW246516   6.519   8.699   3.818  0.1380 -0.4024  0.7415
14371SOL     OW46517   5.486   4.268   9.391  0.5732  0.6520  0.0580
14371SOL    HW146518   5.534   4.262   9.308 -0.3526 -1.2773 -0.3794
14371SOL    HW246519   5.553   4.282   9.457  1.4446  0.9819 -0.8942
14372SOL     OW46520   3.080   8.422   3.339 -0.7828  0.0731  0.2638
14372SOL    HW146521   3.059   8.403   3.248  0.3883  0.3960 -0.0770
14372SOL    HW246522   3.020   8.366   3.389 -0.8747 -0.7044 -0.7015
14373SOL     OW46523  10.557   0.462   7.375 -0.1469  0.2401  0.2080
14373SOL    HW146524  10.493   0.525   7.410  0.1448  1.4853 -1.4270
14373SOL    HW246525  10.634   0.473   7.431  0.0523  1.6693 -0.3210
14374SOL     OW46526   2.216   4.840   7.321  0.4233 -0.1352  0.3588
14374SOL    HW146527   2.254   4.920   7.356 -0.9101  2.0390 -2.9175
14374SOL    HW246528   2.283   4.805   7.262  1.2991 -1.9204  2.3329
14375SOL     OW46529   9.031   8.712   4.864  0.3233  0.0270 -0.1525
14375SOL    HW146530   9.087   8.688   4.938  0.8582 -1.2456 -0.9594
14375SOL    HW246531   9.091   8.743   4.797 -0.0110 -0.5223 -0.7076
14376SOL     OW46532   5.030   6.271   7.693 -0.5541 -0.3517  0.3694
14376SOL    HW146533   4.979   6.264   7.774 -0.7442  2.9641  0.6108
14376SOL    HW246534   5.112   6.313   7.719 -0.1820 -0.2251 -0.9606
14377SOL     OW46535   2.430   8.205   7.080 -0.2107 -0.5053  0.4106
14377SOL    HW146536   2.411   8.270   7.147  1.1475  1.6989 -1.3015
14377SOL    HW246537   2.348   8.195   7.032  0.2063  1.7112 -0.7953
14378SOL     OW46538   6.074   0.622   9.929  0.4804 -0.1334  0.4238
14378SOL    HW146539   5.989   0.652   9.964  1.1626  0.7437  1.3683
14378SOL    HW246540   6.119   0.703   9.905  1.3583 -0.5523  0.6502
14379SOL     OW46541   6.633   0.532   0.925  0.4047 -0.4297  0.2770
14379SOL    HW146542   6.555   0.489   0.961 -0.0319 -0.7325 -0.9984
14379SOL    HW246543   6.704   0.469   0.938  0.5856  0.0955  2.0008
14380SOL     OW46544   2.749   1.659  10.249  0.0311 -0.2363  0.4639
14380SOL    HW146545   2.686   1.615  10.192 -1.7671  1.1966  1.3126
14380SOL    HW246546   2.739   1.616  10.334 -0.5623  0.6844  0.8675
14381SOL     OW46547   5.836  10.781   8.578 -0.4863  0.7646  0.6955
14381SOL    HW146548   5.785  10.754   8.654  0.6973  1.6768  1.8430
14381SOL    HW246549   5.899  10.844   8.612 -0.9813  2.4078 -1.3451
14382SOL     OW46550  10.966   6.318  10.485  0.7161  0.3140  0.3545
14382SOL    HW146551  10.903   6.247  10.474  1.5285 -0.6699  1.9599
14382SOL    HW246552  10.950   6.353  10.572  0.9791  1.4782 -0.0455
14383SOL     OW46553  10.954   3.630   7.443 -0.0310 -0.3100 -0.6901
14383SOL    HW146554  11.000   3.574   7.380  0.7778  0.8839 -1.1779
14383SOL    HW246555  11.006   3.624   7.523  0.3779  0.1824 -0.9145
14384SOL     OW46556   7.989   5.829   6.779 -0.9135 -0.0710  0.5070
14384SOL    HW146557   7.985   5.850   6.686  0.7611  0.2663  0.4962
14384SOL    HW246558   7.989   5.914   6.823 -0.6371 -0.1990  0.7573
14385SOL     OW46559   3.808   2.901   5.685  0.0953 -0.2620 -0.0717
14385SOL    HW146560   3.724   2.933   5.652 -0.4892 -0.6515  1.0433
14385SOL    HW246561   3.796   2.892   5.779  0.7749 -2.1782 -0.1388
14386SOL     OW46562   3.304   0.927   9.411  0.0816  0.4112 -0.2874
14386SOL    HW146563   3.352   0.920   9.494  0.9491  1.1666 -0.7081
14386SOL    HW246564   3.269   0.839   9.395  0.9767 -0.0512  0.2562
14387SOL     OW46565  10.889   1.742   2.210  0.4310 -0.1215  0.3856
14387SOL    HW146566  10.945   1.816   2.235 -0.4561  0.9427 -0.7154
14387SOL    HW246567  10.913   1.672   2.271  0.7268  1.3215  1.9762
14388SOL     OW46568   8.136   1.215   8.771 -0.2503 -0.0106 -0.3326
14388SOL    HW146569   8.151   1.177   8.685 -0.5439 -0.7615 -0.0632
14388SOL    HW246570   8.086   1.295   8.754  1.6291  1.0616 -1.0183
14389SOL     OW46571   0.327   9.743   7.064 -0.5061 -0.4986 -0.1744
14389SOL    HW146572   0.397   9.700   7.015 -1.8544 -2.5642 -0.3676
14389SOL    HW246573   0.306   9.821   7.014  0.9112 -0.4228 -0.6766
14390SOL     OW46574   1.554   9.522  10.357 -0.2124 -0.3865  0.5416
14390SOL    HW146575   1.577   9.505  10.449  1.1869 -0.9938  0.0929
14390SOL    HW246576   1.630   9.493  10.307 -1.8224 -2.1497 -0.9875
14391SOL     OW46577  10.019   3.531   0.394 -0.6491 -0.0734 -0.2915
14391SOL    HW146578   9.931   3.533   0.357 -0.9634 -1.3488  0.3812
14391SOL    HW246579  10.074   3.499   0.323 -1.0837 -1.4552 -0.0128
14392SOL     OW46580   1.791   2.310   7.561 -0.2624 -0.1669 -0.1877
14392SOL    HW146581   1.845   2.232   7.545 -1.4570 -1.0311 -0.0842
14392SOL    HW246582   1.748   2.291   7.645  0.5137  1.2251  0.5377
14393SOL     OW46583   0.780   3.730   4.171 -0.7651  0.4147  0.0042
14393SOL    HW146584   0.713   3.787   4.133  0.7257  1.5077 -1.0342
14393SOL    HW246585   0.750   3.641   4.151 -1.0998  0.9330 -1.8438
14394SOL     OW46586   6.576   9.479   5.215 -0.2114 -0.3471  0.1974
14394SOL    HW146587   6.498   9.473   5.160 -0.1414  0.3984  0.0166
14394SOL    HW246588   6.557   9.550   5.276  0.9606  0.8883 -0.8632
14395SOL     OW46589   0.701  10.945   8.924  0.0990  0.0861  0.6558
14395SOL    HW146590   0.785  10.937   8.879  0.2015 -0.2652  0.9112
14395SOL    HW246591   0.650  10.869   8.895 -0.5763  0.9327 -0.4331
14396SOL     OW46592   7.547   3.277  10.274  0.0464  0.0792 -0.1197
14396SOL    HW146593   7.631   3.237  10.297  0.0526  0.1543 -0.0113
14396SOL    HW246594   7.504   3.212  10.218 -1.1141 -1.2667  2.2335
14397SOL     OW46595   5.425   9.078   5.434  0.3381 -0.2897  0.4686
14397SOL    HW146596   5.353   9.104   5.377  0.2197 -0.2571  0.6309
14397SOL    HW246597   5.383   9.057   5.518  0.2748 -2.2957 -0.0342
14398SOL     OW46598   5.863   8.774   4.258 -0.7025 -0.6742 -0.4060
14398SOL    HW146599   5.798   8.720   4.304 -1.3782  0.3101 -0.2012
14398SOL    HW246600   5.818   8.856   4.240  0.7435  0.3251  0.4392
14399SOL     OW46601   4.742   4.718   7.387 -0.1358  0.3281  0.2358
14399SOL    HW146602   4.800   4.656   7.343  0.7009  2.0765 -1.1864
14399SOL    HW246603   4.667   4.665   7.414  0.4651 -1.2662 -1.1201
14400SOL     OW46604   3.130   7.922   0.765  0.1317 -0.2888  0.4290
14400SOL    HW146605   3.118   7.938   0.671  2.5697 -1.4599 -0.1146
14400SOL    HW246606   3.166   7.834   0.770  0.0675 -0.2197  2.4862
14401SOL     OW46607   1.576  10.974   5.911 -0.1936  0.4274  0.6158
14401SOL    HW146608   1.554  11.062   5.881 -1.1118  0.1246  0.3793
14401SOL    HW246609   1.492  10.930   5.919  0.2747 -0.4857  0.5569
14402SOL     OW46610   6.282   1.443   7.367 -0.6489 -0.4184 -0.5876
14402SOL    HW146611   6.254   1.524   7.409 -1.0100  0.1172 -1.8527
14402SOL    HW246612   6.375   1.435   7.392 -1.2331 -0.9133  1.5511
14403SOL     OW46613   1.123   4.914   9.045  0.1210  0.0094  0.2316
14403SOL    HW146614   1.172   4.859   9.106 -0.1232 -0.7941 -0.2944
14403SOL    HW246615   1.049   4.947   9.096 -0.6441 -1.4784  0.0825
14404SOL     OW46616  10.280   0.927   2.600 -0.2871  0.0403 -0.0290
14404SOL    HW146617  10.247   0.984   2.669 -1.0147  1.1988 -1.2913
14404SOL    HW246618  10.303   0.846   2.644 -1.1599  0.6025  1.4907
14405SOL     OW46619  10.923   2.496   3.899  0.1567 -0.2653 -0.3681
14405SOL    HW146620  10.987   2.566   3.887  0.6663 -0.7925 -0.7523
14405SOL    HW246621  10.899   2.500   3.991  0.2572  0.3575 -0.3715
14406SOL     OW46622   3.928   2.292   6.696 -0.0914 -0.2771  0.7890
14406SOL    HW146623   3.860   2.244   6.649 -1.0814  0.7175  1.1866
14406SOL    HW246624   3.999   2.228   6.707 -1.1239 -1.4517  0.7519
14407SOL     OW46625   7.987   3.931   7.774 -0.2098  0.2716 -0.0746
14407SOL    HW146626   8.016   3.916   7.684  0.4179 -0.4588  0.2420
14407SOL    HW246627   7.941   4.015   7.771  0.7160  0.7595 -0.8819
14408SOL     OW46628   8.417  10.632   7.608 -0.6291 -0.7229 -0.1722
14408SOL    HW146629   8.477  10.705   7.594 -0.1133 -1.6592 -3.3897
14408SOL    HW246630   8.462  10.575   7.669 -0.1277  0.6267  0.7369
14409SOL     OW46631   8.488   0.493   3.454 -0.3486  0.1398 -0.1000
14409SOL    HW146632   8.407   0.444   3.464 -0.3282 -0.1778 -1.3106
14409SOL    HW246633   8.555   0.439   3.496 -0.7447  0.3328  0.7712
14410SOL     OW46634   9.436   1.644   1.815 -0.5621  0.2872 -0.3072
14410SOL    HW146635   9.345   1.620   1.835 -0.6738 -0.7027 -1.9592
14410SOL    HW246636   9.481   1.560   1.805  0.2766  0.7765 -0.6927
14411SOL     OW46637   1.898   3.986   6.341  0.6906 -0.1531  0.0059
14411SOL    HW146638   1.972   4.028   6.298 -0.7737  0.5423 -1.9260
14411SOL    HW246639   1.903   3.894   6.314  0.4236  0.0507 -0.7535
14412SOL     OW46640   1.215   9.198   2.014 -0.2077  0.3318 -0.2759
14412SOL    HW146641   1.267   9.244   1.947 -0.7515 -0.4489 -1.2555
14412SOL    HW246642   1.212   9.108   1.983  0.7482 -0.3602  1.5653
14413SOL     OW46643   1.718   7.904   2.510 -0.0243  0.7671  0.4045
14413SOL    HW146644   1.627   7.931   2.509  0.1703  1.3901 -0.9541
14413SOL    HW246645   1.742   7.893   2.418  0.6485 -1.5275  0.8004
14414SOL     OW46646   0.375   0.108   4.278 -0.1296 -0.4446  0.6806
14414SOL    HW146647   0.436   0.074   4.343  0.7018 -0.3590 -0.0366
14414SOL    HW246648   0.297   0.052   4.286  1.3078 -2.7565 -0.6717
14415SOL     OW46649  10.959   0.307   7.558 -0.1816  0.0050 -0.0447
14415SOL    HW146650  10.939   0.260   7.640 -0.0113  0.0246  0.0085
14415SOL    HW246651  10.986   0.238   7.498 -0.4231 -0.0238 -0.1232
14416SOL     OW46652   3.958   5.151   9.849 -0.1533 -0.1470  0.5613
14416SOL    HW146653   3.941   5.201   9.929  1.7292 -1.3847  1.7733
14416SOL    HW246654   3.991   5.066   9.880 -0.2712 -0.9748 -1.5112
14417SOL     OW46655   9.121  10.906   0.139 -0.1566 -0.1502  0.3524
14417SOL    HW146656   9.176  10.862   0.204  1.4847  1.1159 -0.1393
14417SOL    HW246657   9.036  10.916   0.183  0.2295 -1.4027  1.4338
14418SOL     OW46658   7.601   4.095  10.320  0.1919 -0.5119  0.4826
14418SOL    HW146659   7.693   4.071  10.323  1.2680  3.2290 -0.3858
14418SOL    HW246660   7.578   4.114  10.411  0.7331  0.0949  0.4966
14419SOL     OW46661   8.836   3.756   2.364 -0.0300 -0.8321  0.3322
14419SOL    HW146662   8.881   3.796   2.438  0.9738 -0.0872 -0.6531
14419SOL    HW246663   8.771   3.821   2.337  1.5537  0.1735 -1.2244
14420SOL     OW46664  10.440   9.792   1.775  0.2202 -0.1186 -0.0590
14420SOL    HW146665  10.492   9.725   1.819  1.4579 -0.9889 -2.7959
14420SOL    HW246666  10.349   9.766   1.791  0.6572 -1.3032  0.5859
14421SOL     OW46667   1.473   5.584   4.404  0.4434  0.3652 -0.3341
14421SOL    HW146668   1.524   5.509   4.374 -0.5770 -0.1742 -0.7497
14421SOL    HW246669   1.435   5.620   4.324  0.2912  0.8485 -0.0447
14422SOL     OW46670   7.427   8.434   9.451  0.4324 -0.2325 -0.3561
14422SOL    HW146671   7.498   8.412   9.391  1.2035  0.2622  0.3798
14422SOL    HW246672   7.460   8.508   9.502 -0.3675 -0.4023  0.4158
14423SOL     OW46673   9.477   8.305   1.638  0.4048 -0.7687  0.4575
14423SOL    HW146674   9.469   8.380   1.698 -1.1814 -0.4791 -0.1026
14423SOL    HW246675   9.517   8.236   1.692  2.4782  0.6503  0.8067
14424SOL     OW46676  10.810   2.566   9.489 -0.9884  0.2757  0.5267
14424SOL    HW146677  10.717   2.544   9.497 -0.4157 -1.4966  2.9567
14424SOL    HW246678  10.846   2.496   9.435 -0.8007  0.1523  0.8120
14425SOL     OW46679   2.449   8.771  10.016 -0.3101  0.0828  0.3364
14425SOL    HW146680   2.533   8.757  10.058 -0.4713  1.1340  1.0447
14425SOL    HW246681   2.471   8.799   9.927  0.0352 -1.9240 -0.2256
14426SOL     OW46682   9.882   9.797   7.598 -0.6397  0.7591 -0.0587
14426SOL    HW146683   9.970   9.786   7.563 -0.1067 -0.8618  1.6831
14426SOL    HW246684   9.829   9.733   7.549 -0.5276  0.6723 -0.0682
14427SOL     OW46685   4.813   9.202   2.677  0.8333 -0.8199  0.1446
14427SOL    HW146686   4.737   9.228   2.730  1.4093 -1.4322  1.2913
14427SOL    HW246687   4.888   9.214   2.736  1.5096 -1.2824 -0.6239
14428SOL     OW46688   8.261   8.109   4.717 -0.9275 -0.3262 -0.2794
14428SOL    HW146689   8.244   8.053   4.641  0.5893  0.1161 -0.9722
14428SOL    HW246690   8.352   8.138   4.705 -0.7725  0.0069  1.5429
14429SOL     OW46691   9.043   3.250   5.545 -0.0390 -0.0647  0.0638
14429SOL    HW146692   9.043   3.205   5.461  1.3081  0.3686 -0.1926
14429SOL    HW246693   9.012   3.338   5.526 -3.6367 -1.1365  0.7375
14430SOL     OW46694   6.458   6.659   7.235  0.1463 -0.0518  0.0480
14430SOL    HW146695   6.363   6.651   7.226  0.3230 -2.4320  0.0160
14430SOL    HW246696   6.489   6.680   7.147 -0.1861 -1.1536 -0.3375
14431SOL     OW46697   6.595   9.369   9.082  0.9071 -0.4843 -0.6984
14431SOL    HW146698   6.644   9.446   9.053  0.7015 -1.2379 -3.1224
14431SOL    HW246699   6.533   9.351   9.011 -1.4349 -0.8340  1.3530
14432SOL     OW46700   8.016   9.844   1.757  0.1504  0.4212 -0.0114
14432SOL    HW146701   8.062   9.880   1.681  1.5014 -0.4478  0.3852
14432SOL    HW246702   7.957   9.778   1.721  1.8748 -1.0597 -0.1804
14433SOL     OW46703   2.250   8.327   9.336 -0.1201  0.0775  0.5958
14433SOL    HW146704   2.197   8.256   9.300 -1.9944  1.3174  0.8663
14433SOL    HW246705   2.301   8.286   9.406  0.0246 -1.3391 -0.3206
14434SOL     OW46706   8.180   6.987   4.274 -0.1813 -0.2148  0.1604
14434SOL    HW146707   8.127   6.995   4.195  0.9572 -3.5718 -1.0072
14434SOL    HW246708   8.142   6.914   4.322  0.1326  0.7695  1.9402
14435SOL     OW46709   2.954   4.091   3.503  0.2625  0.3289 -0.0065
14435SOL    HW146710   2.968   4.112   3.595  0.4185  2.1029 -0.4185
14435SOL    HW246711   3.022   4.027   3.482  1.5744  1.5177  0.5683
14436SOL     OW46712   9.591   5.177   3.039  0.5421  0.1127  0.0427
14436SOL    HW146713   9.656   5.244   3.014  1.4222 -1.3126 -1.6371
14436SOL    HW246714   9.602   5.108   2.973 -2.3818 -0.3772  0.0186
14437SOL     OW46715   1.183   9.348   7.992  0.5364 -0.6250  0.2567
14437SOL    HW146716   1.221   9.367   8.078  0.9454 -0.6654  0.0894
14437SOL    HW246717   1.215   9.260   7.971  0.7501 -0.4654 -0.1010
14438SOL     OW46718   1.981   8.978   3.421  0.4618  0.3854  0.0174
14438SOL    HW146719   1.890   9.001   3.439  0.0489 -1.8735  1.0769
14438SOL    HW246720   2.020   9.058   3.386 -1.8295  1.4879 -0.1048
14439SOL     OW46721   0.269   0.266   4.025  0.2104  0.4676  0.3229
14439SOL    HW146722   0.258   0.270   3.930  0.4111  1.7381  0.3484
14439SOL    HW246723   0.239   0.178   4.049  1.8733 -0.5333 -1.1372
14440SOL     OW46724   8.163   0.852   8.026 -0.1871  0.3624 -0.0730
14440SOL    HW146725   8.257   0.856   8.041  0.1239 -0.4335 -1.7289
14440SOL    HW246726   8.133   0.943   8.035  0.8834  0.7583 -0.4707
14441SOL     OW46727   5.514   3.091   6.344 -0.3131 -0.1116  0.7323
14441SOL    HW146728   5.459   3.106   6.267  0.7144  0.4863  0.0951
14441SOL    HW246729   5.542   3.179   6.370  1.5411 -0.5033  0.1373
14442SOL     OW46730   6.412   6.282   7.694 -0.5964 -0.4555 -0.2306
14442SOL    HW146731   6.347   6.211   7.690 -1.0477 -0.0351 -0.4704
14442SOL    HW246732   6.359   6.361   7.709 -0.1973 -0.0219 -1.0753
14443SOL     OW46733   8.490   7.880   3.410  0.0627 -0.8078 -0.0670
14443SOL    HW146734   8.500   7.803   3.466 -1.4410 -0.0501  1.3011
14443SOL    HW246735   8.396   7.897   3.409  0.6111  3.0053  2.4774
14444SOL     OW46736   8.785   6.431   9.215  0.3575 -0.0099  0.1119
14444SOL    HW146737   8.735   6.453   9.136 -1.9071 -0.8786  1.2686
14444SOL    HW246738   8.764   6.339   9.231  0.8904  0.1372  1.6644
14445SOL     OW46739   8.076   0.787   0.373  0.1345  0.1142  1.0283
14445SOL    HW146740   8.132   0.771   0.448  0.4911  0.5655  0.8621
14445SOL    HW246741   7.987   0.767   0.404  0.3896 -0.6302  1.2780
14446SOL     OW46742   8.008   9.177   3.109 -0.0324 -0.2109  0.3095
14446SOL    HW146743   8.031   9.150   3.198  0.1444 -0.2415  0.2537
14446SOL    HW246744   7.932   9.235   3.121 -0.6718 -1.0482  0.3983
14447SOL     OW46745   0.317   5.151   4.548 -0.1614  0.6271 -0.0637
14447SOL    HW146746   0.223   5.145   4.533 -0.2373  0.8518  0.3253
14447SOL    HW246747   0.356   5.099   4.478 -0.6332 -0.7409  0.6755
14448SOL     OW46748   5.485   0.083   7.030 -0.2234 -0.1898  0.3991
14448SOL    HW146749   5.515   0.147   6.966  1.7856 -0.6024  0.9005
14448SOL    HW246750   5.502  -0.002   6.988 -3.0372 -0.4481 -0.3462
14449SOL     OW46751   6.030   6.225   9.673 -0.2911 -0.5788 -0.5154
14449SOL    HW146752   6.020   6.161   9.744  0.4288 -1.2338 -0.9946
14449SOL    HW246753   5.949   6.277   9.677 -0.3663 -0.7559  0.6284
14450SOL     OW46754   1.184   4.887   4.585  0.6622 -0.0136 -0.2456
14450SOL    HW146755   1.248   4.926   4.645 -0.5782  0.4113  0.8230
14450SOL    HW246756   1.158   4.805   4.628 -0.1122  0.2136 -0.2712
14451SOL     OW46757   4.014   0.442   4.697  0.1896 -0.1863 -0.1685
14451SOL    HW146758   3.974   0.379   4.757 -1.5152  0.3848 -0.6884
14451SOL    HW246759   4.079   0.488   4.750 -1.0710  0.0824  1.1539
14452SOL     OW46760   8.241   4.206   7.673  0.6009 -0.1027  0.0919
14452SOL    HW146761   8.272   4.171   7.757 -2.3784  1.2450  1.8417
14452SOL    HW246762   8.235   4.300   7.687  0.7487  0.2121 -1.8909
14453SOL     OW46763   0.396   7.738   5.144  0.3582  0.3046 -1.0430
14453SOL    HW146764   0.303   7.752   5.124  0.0405  0.9572  0.7806
14453SOL    HW246765   0.442   7.805   5.093 -0.3829  1.5570 -0.1143
14454SOL     OW46766   0.611   0.298   9.889 -0.2903 -0.2445 -0.4647
14454SOL    HW146767   0.661   0.218   9.870  0.6218  0.5136 -1.3383
14454SOL    HW246768   0.627   0.355   9.814 -0.6161  0.9192  0.3240
14455SOL     OW46769   1.073   4.012   5.999 -0.4105  0.2134  0.5749
14455SOL    HW146770   1.029   4.096   6.009  3.0242  2.1823 -0.3036
14455SOL    HW246771   1.088   4.004   5.905 -1.1472 -1.6403  0.5928
14456SOL     OW46772   4.654   0.905   3.767 -0.4435  0.1722 -0.4754
14456SOL    HW146773   4.653   0.838   3.699 -0.2707 -0.4501  0.1322
14456SOL    HW246774   4.746   0.913   3.791 -0.8302 -1.7295  1.7636
14457SOL     OW46775   6.377   5.855   0.749  0.0326 -0.0025 -0.2345
14457SOL    HW146776   6.293   5.897   0.765  1.4249  2.5601  0.7133
14457SOL    HW246777   6.442   5.917   0.784  2.1875 -3.3089  1.9585
14458SOL     OW46778   3.432   7.794   6.319  0.6991 -0.4489  0.7212
14458SOL    HW146779   3.378   7.715   6.315  0.6122 -0.4071  1.0541
14458SOL    HW246780   3.441   7.812   6.413 -0.2894  0.6298  0.6243
14459SOL     OW46781   4.958   0.714   1.931 -0.1159  0.0752  0.3567
14459SOL    HW146782   4.928   0.623   1.927  0.4370 -0.1215  0.5631
14459SOL    HW246783   5.032   0.717   1.869 -1.7558  1.0259 -1.5945
14460SOL     OW46784   9.103   2.191   5.250 -0.2807 -0.1443 -0.4089
14460SOL    HW146785   9.138   2.120   5.197  2.2831  1.0043 -0.3057
14460SOL    HW246786   9.057   2.247   5.188  0.7633 -0.0099 -1.0704
14461SOL     OW46787   1.280   8.968   5.458  0.0895  0.0316  0.1093
14461SOL    HW146788   1.212   8.972   5.390 -1.0963 -0.2890  1.2435
14461SOL    HW246789   1.362   8.966   5.410 -0.7703 -1.8682 -1.3635
14462SOL     OW46790   2.751   5.115   4.353 -0.3753  0.1730 -0.0629
14462SOL    HW146791   2.714   5.142   4.437  0.3697  0.9632  0.0250
14462SOL    HW246792   2.750   5.020   4.356 -1.6024  0.1947  0.2810
14463SOL     OW46793   5.397   9.641   6.097 -0.2374  0.3425 -0.2674
14463SOL    HW146794   5.318   9.685   6.128 -0.1309  1.8241 -2.0068
14463SOL    HW246795   5.455   9.640   6.173  0.7537  5.5856 -0.7584
14464SOL     OW46796   6.303   9.542   2.206  0.1624  0.5093 -0.1162
14464SOL    HW146797   6.356   9.560   2.284 -0.4497 -2.8920  1.1761
14464SOL    HW246798   6.339   9.461   2.170 -1.2351  0.6313 -1.8766
14465SOL     OW46799   7.833   1.841   1.390  0.4297  0.1859  0.4977
14465SOL    HW146800   7.749   1.804   1.363 -0.0265  0.6880  1.1948
14465SOL    HW246801   7.814   1.934   1.408  1.2630  0.4480  0.0598
14466SOL     OW46802   6.560  10.716   5.995 -0.3901 -0.1452  0.3999
14466SOL    HW146803   6.533  10.634   5.954 -1.0723  0.1203  0.3111
14466SOL    HW246804   6.634  10.746   5.941 -0.0092 -0.7902  0.5511
14467SOL     OW46805   4.395   5.388   7.606  0.2317 -0.1071 -0.2029
14467SOL    HW146806   4.467   5.401   7.667 -0.6545  0.4906  0.7474
14467SOL    HW246807   4.430   5.414   7.520  1.3819 -0.6294  0.1135
14468SOL     OW46808   6.813   1.629   7.441  1.0045  0.6566 -0.3209
14468SOL    HW146809   6.728   1.673   7.449  2.1615  2.6574  1.9573
14468SOL    HW246810   6.809   1.557   7.504  1.0371  0.8374 -0.1105
14469SOL     OW46811   4.355   6.303   1.669  0.0002  0.2852 -0.2045
14469SOL    HW146812   4.390   6.385   1.634  1.9153  0.2949  1.6300
14469SOL    HW246813   4.412   6.235   1.634 -0.4751 -0.0975 -0.2504
14470SOL     OW46814   0.072   9.637   9.639 -0.3306 -0.6225  0.4162
14470SOL    HW146815   0.025   9.589   9.570  0.5687  1.1119 -1.4619
14470SOL    HW246816   0.162   9.604   9.633 -0.1650 -0.1843  0.4784
14471SOL     OW46817  10.932   3.486   9.067 -0.5246  0.0803  0.3538
14471SOL    HW146818  10.892   3.497   8.981  1.3978  2.7967 -0.2324
14471SOL    HW246819  10.867   3.520   9.128 -1.0544  0.0345 -0.1831
14472SOL     OW46820  10.582   8.802   0.675  0.1233 -0.3141  0.2776
14472SOL    HW146821  10.613   8.880   0.721 -0.1656 -1.1737  1.9515
14472SOL    HW246822  10.609   8.728   0.730 -2.1616 -1.2387  0.2257
14473SOL     OW46823   6.817  10.619   7.191 -0.2777 -0.9422  0.4274
14473SOL    HW146824   6.909  10.634   7.214 -0.8875  0.4973  1.9753
14473SOL    HW246825   6.786  10.704   7.160 -1.5056 -1.0544  1.3477
14474SOL     OW46826   1.665   3.562   8.834 -0.1430 -0.3900  0.1578
14474SOL    HW146827   1.682   3.592   8.744 -0.2817 -0.5781  0.0687
14474SOL    HW246828   1.633   3.640   8.879 -0.1984 -0.3239  0.0084
14475SOL     OW46829   4.865   3.437   1.916  0.3225 -0.1429  0.5506
14475SOL    HW146830   4.882   3.419   1.824  0.5297 -0.6001  0.6765
14475SOL    HW246831   4.890   3.357   1.962 -2.0456 -0.8172  0.7668
14476SOL     OW46832   5.805   0.029   0.555  0.5173 -0.2348 -0.1751
14476SOL    HW146833   5.884  -0.025   0.547  1.0465  0.6366 -0.9933
14476SOL    HW246834   5.831   0.100   0.614 -0.1626 -0.8451  0.8628
14477SOL     OW46835  10.448   5.249   1.015 -0.0954  0.3194 -0.5235
14477SOL    HW146836  10.504   5.192   1.068 -0.7862  0.3755  0.2756
14477SOL    HW246837  10.367   5.255   1.064 -0.9273 -0.0162 -1.8290
14478SOL     OW46838  10.723   6.164  10.420 -0.5450  0.4992  0.0484
14478SOL    HW146839  10.719   6.069  10.412  0.3064  0.6567 -2.8053
14478SOL    HW246840  10.655   6.185  10.485 -0.3497 -2.0634  1.1455
14479SOL     OW46841   3.657   2.851   4.281  0.1314 -0.2251  0.5094
14479SOL    HW146842   3.604   2.888   4.351  0.2344  2.2725 -0.6734
14479SOL    HW246843   3.595   2.798   4.230 -0.4657 -0.0966  1.1008
14480SOL     OW46844   9.252   2.983   9.737  0.3620  0.5804  0.0183
14480SOL    HW146845   9.291   2.899   9.763 -1.2677 -0.1757  0.1237
14480SOL    HW246846   9.302   3.010   9.660  0.1421 -1.1033 -0.7505
14481SOL     OW46847   0.993   5.363   1.135 -0.1438  1.3236 -0.2658
14481SOL    HW146848   0.968   5.329   1.049 -0.2702 -0.3979  0.4439
14481SOL    HW246849   0.943   5.310   1.198 -0.0235  2.5323  0.8735
14482SOL     OW46850   6.858   4.371   3.093  0.1559 -0.2542  0.2539
14482SOL    HW146851   6.837   4.461   3.116  1.0911  0.2983 -1.0466
14482SOL    HW246852   6.833   4.362   3.001  0.9052 -1.0521  0.1216
14483SOL     OW46853  10.848   4.791   3.005 -0.2036  0.1252 -0.0755
14483SOL    HW146854  10.868   4.698   2.999  1.2909  0.4975 -1.1331
14483SOL    HW246855  10.901   4.822   3.079 -0.7690  0.1294  0.3335
14484SOL     OW46856   1.811   3.683  10.004 -0.0719  0.2458 -0.1506
14484SOL    HW146857   1.730   3.652   9.964  0.7817 -1.6176 -0.5100
14484SOL    HW246858   1.784   3.718  10.089 -1.5638  1.9424 -1.3149
14485SOL     OW46859   0.702   3.126   6.225 -0.8337  0.2756  0.0522
14485SOL    HW146860   0.657   3.043   6.209 -0.4296 -0.1364  1.0251
14485SOL    HW246861   0.758   3.138   6.148  0.4750 -1.2634  0.7553
14486SOL     OW46862   8.889   3.638   1.970  0.1815 -0.1142  0.5256
14486SOL    HW146863   8.941   3.654   2.049  0.0163  0.2084  0.5708
14486SOL    HW246864   8.847   3.554   1.985 -1.3370  0.7925  1.5940
14487SOL     OW46865   3.995   1.301   4.439  0.3481 -0.1183  0.4657
14487SOL    HW146866   4.085   1.293   4.470 -0.3938  1.1532  3.1671
14487SOL    HW246867   3.950   1.348   4.510 -2.3263 -0.3511 -1.0189
14488SOL     OW46868   6.152   3.337   9.740  0.2191 -0.1514 -0.5826
14488SOL    HW146869   6.159   3.244   9.716  0.8643 -0.1101 -0.5438
14488SOL    HW246870   6.236   3.374   9.717  0.2849  0.2369  0.2717
14489SOL     OW46871   1.491   2.630   4.394  0.1009  0.0599  0.3771
14489SOL    HW146872   1.435   2.690   4.443  0.0195 -1.3303  2.0259
14489SOL    HW246873   1.580   2.650   4.424 -0.0410 -1.4819  1.8870
14490SOL     OW46874   3.020   7.269   7.073 -0.1655  0.1852 -0.0115
14490SOL    HW146875   3.034   7.339   7.137 -0.9407  0.7254 -0.4241
14490SOL    HW246876   2.941   7.224   7.103 -0.1245 -0.0082 -0.1910
14491SOL     OW46877   1.477  10.321   0.007  0.4152 -0.3787  0.1665
14491SOL    HW146878   1.396  10.269   0.000  0.7397 -0.9637  0.7574
14491SOL    HW246879   1.446  10.411   0.017 -0.1569 -0.5081 -0.3758
14492SOL     OW46880   3.106   2.424   5.062  0.2182 -0.5132  0.1807
14492SOL    HW146881   3.062   2.341   5.079  0.2353 -0.8900 -1.4787
14492SOL    HW246882   3.041   2.476   5.015  0.6977 -0.1284 -0.0621
14493SOL     OW46883   1.241   7.451   2.069 -0.6658 -0.0501 -0.1328
14493SOL    HW146884   1.250   7.534   2.021 -2.1626  1.6104  2.3645
14493SOL    HW246885   1.188   7.396   2.011 -2.0302  1.7368 -0.6329
14494SOL     OW46886   7.708   0.615   5.466  0.4228 -0.8842 -0.0222
14494SOL    HW146887   7.649   0.584   5.397  0.1220  0.9617 -0.6242
14494SOL    HW246888   7.796   0.601   5.429  0.3297 -1.8613  0.1024
14495SOL     OW46889   0.605   2.390   2.780  0.2755  0.5715 -0.1143
14495SOL    HW146890   0.602   2.409   2.874 -0.9704 -0.4808  0.0731
14495SOL    HW246891   0.665   2.455   2.744  1.1828  0.6534  1.4927
14496SOL     OW46892   4.615   0.905   4.200 -0.2851 -0.6553  0.1077
14496SOL    HW146893   4.522   0.889   4.190 -0.6572  0.2200  1.9681
14496SOL    HW246894   4.657   0.834   4.151 -1.8890  0.0951 -2.4281
14497SOL     OW46895   5.526   8.536   9.811  0.1410  0.2127  0.0621
14497SOL    HW146896   5.572   8.472   9.865 -0.4930 -0.6476 -0.4116
14497SOL    HW246897   5.584   8.551   9.736 -0.3209 -0.8301 -0.5087
14498SOL     OW46898   9.665   3.801   8.490  0.0597  0.9735  0.5655
14498SOL    HW146899   9.759   3.789   8.479 -0.1548 -0.9331  0.6299
14498SOL    HW246900   9.648   3.783   8.582 -0.4782  0.5991  0.3949
14499SOL     OW46901  10.814   2.741   3.551 -0.0360 -0.1098  0.0940
14499SOL    HW146902  10.760   2.820   3.555 -1.2612 -0.9454  0.3720
14499SOL    HW246903  10.752   2.668   3.558  1.0871 -1.1054  0.0405
14500SOL     OW46904   3.434   4.002   8.045 -0.3044 -0.0728 -0.4867
14500SOL    HW146905   3.516   3.958   8.023  0.2502 -0.5311  2.3089
14500SOL    HW246906   3.385   3.937   8.095 -1.6472  0.7965 -0.6579
14501SOL     OW46907   6.905   1.132   5.825 -0.3325 -0.1461 -0.3633
14501SOL    HW146908   6.903   1.065   5.893 -0.2127  0.6662  0.4477
14501SOL    HW246909   6.815   1.163   5.819 -0.1445  0.5241  0.1782
14502SOL     OW46910   8.000   0.739   6.731  0.0152  0.2927  0.2287
14502SOL    HW146911   7.958   0.726   6.816  0.2120 -0.9597  0.1304
14502SOL    HW246912   8.062   0.810   6.746  0.0877  0.0458  1.1409
14503SOL     OW46913   8.534   6.085   3.888 -0.7486 -0.5953 -0.0736
14503SOL    HW146914   8.495   6.098   3.974 -1.5326 -2.5558 -0.1229
14503SOL    HW246915   8.495   6.153   3.833  0.7651  1.5450  1.4064
14504SOL     OW46916   9.827   2.160   9.473  0.0007 -0.0734 -0.1293
14504SOL    HW146917   9.765   2.214   9.522  2.1474  1.4825  0.9299
14504SOL    HW246918   9.792   2.158   9.384 -2.4232 -0.5661  0.7831
14505SOL     OW46919   7.727   7.319   0.447 -0.3063  0.4009  0.2793
14505SOL    HW146920   7.802   7.351   0.497  0.6350  0.2402 -1.0169
14505SOL    HW246921   7.684   7.398   0.415 -0.3939  0.4757  0.5751
14506SOL     OW46922   2.957  10.729  10.897  0.3650 -0.1910 -0.2061
14506SOL    HW146923   2.973  10.654  10.839 -2.1032 -1.0060  0.1078
14506SOL    HW246924   2.959  10.805  10.838  3.9383 -0.3387 -0.3632
14507SOL     OW46925   4.221   8.903   1.527 -0.0143 -0.4582  0.3581
14507SOL    HW146926   4.195   8.970   1.464  1.5745 -0.5886 -0.4568
14507SOL    HW246927   4.141   8.884   1.576 -1.2968 -0.4153 -1.6618
14508SOL     OW46928   5.536   5.397   6.718  0.3766 -0.4009 -0.3307
14508SOL    HW146929   5.503   5.332   6.656 -0.5011 -1.5402  1.2873
14508SOL    HW246930   5.582   5.346   6.784  1.2085  0.7888  0.0118
14509SOL     OW46931   5.061   5.959  10.598 -0.5024 -0.6823  0.3528
14509SOL    HW146932   5.014   5.960  10.515  2.1122  0.3928 -1.1633
14509SOL    HW246933   5.107   6.043  10.601  1.7159 -1.8941  1.5234
14510SOL     OW46934   6.192   8.953   6.909  0.3810 -0.0239 -0.0731
14510SOL    HW146935   6.193   8.859   6.892  1.6474 -0.0708  0.2618
14510SOL    HW246936   6.100   8.972   6.929 -0.0069 -1.0602 -0.8090
14511SOL     OW46937  10.903   5.246   5.110  0.4761 -0.1476  0.4201
14511SOL    HW146938  10.959   5.236   5.033 -0.0507 -1.2873  0.1753
14511SOL    HW246939  10.945   5.190   5.177  0.1141 -0.3126  0.5074
14512SOL     OW46940   8.492   9.629   6.104  0.3500  0.4276  0.1855
14512SOL    HW146941   8.510   9.702   6.163  1.3287  0.7622 -0.5067
14512SOL    HW246942   8.512   9.663   6.017 -0.9231 -0.1079 -0.3293
14513SOL     OW46943   6.522   9.715  10.633  0.3754 -0.5441  0.0349
14513SOL    HW146944   6.525   9.646  10.700  1.1605 -0.5196  0.0314
14513SOL    HW246945   6.527   9.797  10.682 -1.1988 -0.4547  0.0846
14514SOL     OW46946  10.001   0.752   5.661 -0.6120  0.2680 -0.1171
14514SOL    HW146947   9.952   0.779   5.583  0.9477 -0.5797 -1.4317
14514SOL    HW246948   9.967   0.664   5.681 -1.6165  0.8228  0.7061
14515SOL     OW46949   0.253   4.036   9.134  0.2411  0.2590 -0.0052
14515SOL    HW146950   0.196   3.964   9.107  1.1014 -0.0268 -1.1017
14515SOL    HW246951   0.199   4.115   9.124 -0.7848 -0.2480  1.4342
14516SOL     OW46952   5.761   8.925   1.138 -0.1133 -0.2566  0.0239
14516SOL    HW146953   5.747   8.957   1.049  0.1784  0.0407  0.0859
14516SOL    HW246954   5.805   8.997   1.183 -0.7116 -0.2115  0.5461
14517SOL     OW46955   2.712   7.293   5.986  0.5437 -0.4384 -0.1325
14517SOL    HW146956   2.619   7.312   6.001  0.4862 -2.2545  1.9979
14517SOL    HW246957   2.758   7.364   6.031  0.2005  0.0698 -0.5788
14518SOL     OW46958   0.420  10.552   4.402  0.0667  0.4132  0.2778
14518SOL    HW146959   0.355  10.485   4.379  1.3893 -0.7616 -0.1201
14518SOL    HW246960   0.416  10.557   4.497 -0.7395  0.4762  0.2442
14519SOL     OW46961   3.810   2.840   1.796  0.4827 -0.5890 -0.0501
14519SOL    HW146962   3.798   2.934   1.787  1.6902 -0.4815 -0.7096
14519SOL    HW246963   3.722   2.804   1.795  0.1166  0.3056 -2.4015
14520SOL     OW46964   4.298   8.386   0.101  0.2353 -0.2266 -0.2224
14520SOL    HW146965   4.235   8.348   0.162  0.6814 -0.7774 -0.1023
14520SOL    HW246966   4.369   8.418   0.156  1.0264 -1.4586 -0.4903
14521SOL     OW46967   1.699   8.416   3.814 -0.2996 -0.1230  0.2352
14521SOL    HW146968   1.743   8.446   3.893  0.3491 -0.3750 -0.0303
14521SOL    HW246969   1.741   8.332   3.793  0.9452  0.9337 -1.5533
14522SOL     OW46970   9.192   1.990   5.079 -0.3166 -0.4728 -0.0894
14522SOL    HW146971   9.234   2.008   4.995  0.2196  0.6296  0.4099
14522SOL    HW246972   9.124   1.925   5.058  1.3885 -2.0437 -0.9585
14523SOL     OW46973   9.010   8.149   7.693  0.3430  0.1370 -0.4914
14523SOL    HW146974   9.031   8.208   7.620  0.9036  0.6527  0.0781
14523SOL    HW246975   9.064   8.071   7.677  2.2263  1.1781  0.5924
14524SOL     OW46976  10.611   3.199   2.200 -0.3675 -0.2173  0.2433
14524SOL    HW146977  10.664   3.226   2.276  2.1469  0.0810 -1.5541
14524SOL    HW246978  10.655   3.120   2.168 -2.1564 -1.0533 -0.1652
14525SOL     OW46979   3.160   3.993   1.917 -0.0338  0.0207 -0.9582
14525SOL    HW146980   3.159   3.971   1.824  0.6711 -0.1287 -0.9336
14525SOL    HW246981   3.095   4.062   1.926  1.9233  2.0830 -2.1010
14526SOL     OW46982   1.590   2.168  10.662 -0.1511  0.4600  0.1327
14526SOL    HW146983   1.528   2.170  10.735 -0.2659  0.5320  0.0329
14526SOL    HW246984   1.673   2.196  10.700  0.1303 -0.9107  0.5697
14527SOL     OW46985   3.082   5.141   9.417 -0.0923 -0.4872  0.5632
14527SOL    HW146986   3.158   5.143   9.359 -1.3100  0.0786 -1.0714
14527SOL    HW246987   3.117   5.154   9.505  1.5575  1.3907 -0.3327
14528SOL     OW46988   6.915   8.092   5.849 -0.6529  0.2917 -0.2235
14528SOL    HW146989   6.897   8.181   5.878 -3.0156 -0.1145 -0.3299
14528SOL    HW246990   6.859   8.037   5.905  1.9857 -1.2879  1.0004
14529SOL     OW46991   5.967   1.905   9.299 -0.4487  0.0076  0.3360
14529SOL    HW146992   6.053   1.864   9.303 -0.0247  0.5614 -2.3147
14529SOL    HW246993   5.978   1.990   9.341  0.0616 -0.2911  0.8170
14530SOL     OW46994   9.805   3.804   6.945  0.2736  0.2773 -1.1772
14530SOL    HW146995   9.791   3.711   6.963  1.7375  0.3566  0.5340
14530SOL    HW246996   9.782   3.848   7.027  0.1590  1.3659 -1.7876
14531SOL     OW46997   5.129   2.779   1.683 -0.0987 -0.2798 -0.6180
14531SOL    HW146998   5.095   2.823   1.605 -0.1237 -0.2207 -0.5740
14531SOL    HW246999   5.164   2.696   1.651  0.4744  0.0270 -0.7950
14532SOL     OW47000   2.107   9.344   6.527 -0.8009 -0.1017 -0.8928
14532SOL    HW147001   2.144   9.428   6.554  0.9138 -1.1516  0.1115
14532SOL    HW247002   2.034   9.367   6.469 -0.6389  2.0722 -0.2579
14533SOL     OW47003   4.901   4.499   8.580  0.2842  0.2665 -0.1763
14533SOL    HW147004   4.935   4.429   8.525 -0.8424 -0.6662  0.2871
14533SOL    HW247005   4.899   4.461   8.668  0.7526  1.2766  0.2754
14534SOL     OW47006   6.633  10.334   1.044 -0.0822 -0.3750 -0.5844
14534SOL    HW147007   6.562  10.363   1.102  1.5556  3.0933 -0.1652
14534SOL    HW247008   6.610  10.367   0.958  0.6954  0.2168 -0.5730
14535SOL     OW47009   0.845   9.775   8.562  0.0945 -0.0198  0.2858
14535SOL    HW147010   0.866   9.769   8.656  1.0361  1.0668  0.1577
14535SOL    HW247011   0.797   9.694   8.543  1.0506 -0.8749  1.4210
14536SOL     OW47012   0.018  10.082   2.513  0.6898  0.4831  0.0492
14536SOL    HW147013   0.049  10.147   2.449  0.8384 -0.7617 -1.1766
14536SOL    HW247014  -0.015  10.010   2.459 -1.4117  0.4202  1.3677
14537SOL     OW47015   9.945   4.654   1.968 -0.0822 -0.6734 -0.1117
14537SOL    HW147016   9.860   4.614   1.984  0.1073 -0.9356  0.2516
14537SOL    HW247017   9.926   4.733   1.918 -0.6734 -0.0240  1.1144
14538SOL     OW47018   5.143   3.612   5.670  0.4107  0.2606 -0.5212
14538SOL    HW147019   5.164   3.693   5.717  1.7343 -0.8490  0.8032
14538SOL    HW247020   5.054   3.591   5.698 -0.1599  1.5583 -1.3107
14539SOL     OW47021   5.143   1.446   0.905  0.0098  0.0386  0.1486
14539SOL    HW147022   5.138   1.352   0.890 -1.2058 -0.1853  1.7263
14539SOL    HW247023   5.176   1.482   0.823  0.3207 -1.7418 -0.5357
14540SOL     OW47024   1.775   1.072  10.780 -0.5403  0.9771 -0.8432
14540SOL    HW147025   1.781   1.164  10.757  0.8518  1.2771  0.6005
14540SOL    HW247026   1.687   1.046  10.753 -0.3880  2.3051 -2.6901
14541SOL     OW47027   4.363   6.527   8.395  0.1314 -0.3730 -0.2516
14541SOL    HW147028   4.276   6.563   8.380  0.3513  0.1710 -0.2262
14541SOL    HW247029   4.379   6.542   8.489 -0.2374 -1.5578  0.0170
14542SOL     OW47030   2.784   8.924   3.612 -0.1850  0.3150  0.3749
14542SOL    HW147031   2.703   8.883   3.642  0.7337 -1.7981  0.0617
14542SOL    HW247032   2.791   9.004   3.664 -3.8344  1.9416 -1.4863
14543SOL     OW47033   9.776   4.709   1.714 -0.1706 -0.1090 -0.1050
14543SOL    HW147034   9.837   4.777   1.742  1.3325 -0.6329 -1.9828
14543SOL    HW247035   9.772   4.718   1.618  0.9745 -3.3351 -0.5380
14544SOL     OW47036   7.875   4.183   2.163  0.3291 -0.3403  0.3123
14544SOL    HW147037   7.925   4.264   2.152  0.5312 -0.5475 -0.3040
14544SOL    HW247038   7.868   4.172   2.258  2.5475 -0.9711  0.4367
14545SOL     OW47039   3.331   4.682   2.179  0.4587  0.6700  0.6608
14545SOL    HW147040   3.326   4.667   2.084  1.6953  1.2995  0.4924
14545SOL    HW247041   3.395   4.619   2.211 -0.6030 -0.1373  1.2203
14546SOL     OW47042   3.812   6.539   9.576 -0.4322  0.0926  0.0429
14546SOL    HW147043   3.871   6.588   9.633  0.1364 -1.0569  0.4574
14546SOL    HW247044   3.856   6.455   9.563 -1.7370 -0.5763 -0.0784
14547SOL     OW47045   6.779  10.005   2.127  0.3876  0.5355 -0.5345
14547SOL    HW147046   6.732   9.945   2.068 -0.2166  1.7911 -1.3377
14547SOL    HW247047   6.846   9.950   2.167 -0.4848 -0.8195 -0.8771
14548SOL     OW47048   8.156   9.180   6.029  0.0529  0.5552 -0.5228
14548SOL    HW147049   8.158   9.103   6.085 -1.5617  0.6736 -0.2773
14548SOL    HW247050   8.150   9.145   5.940 -0.9328  0.3758 -0.3994
14549SOL     OW47051   3.685   3.731   4.996 -0.0529 -0.1813  0.0652
14549SOL    HW147052   3.671   3.661   5.060  0.9352  0.2818  0.7982
14549SOL    HW247053   3.730   3.688   4.924  0.3076 -0.3660  0.3949
14550SOL     OW47054   7.654   2.745   1.818  0.3664 -0.0897 -0.6591
14550SOL    HW147055   7.644   2.700   1.902  0.7034  0.2407 -0.4415
14550SOL    HW247056   7.645   2.838   1.840  4.3075  0.2906 -0.3653
14551SOL     OW47057   1.521  10.205   4.252 -0.3463 -0.3409 -0.0924
14551SOL    HW147058   1.568  10.126   4.226 -0.1194  0.1655 -1.2774
14551SOL    HW247059   1.554  10.225   4.339 -0.0681 -1.2923  0.0303
14552SOL     OW47060   2.371  10.490   4.182  0.2363 -0.1643  0.0970
14552SOL    HW147061   2.389  10.471   4.274  1.9999 -1.0785 -0.4052
14552SOL    HW247062   2.298  10.433   4.159 -1.1730  1.1317  1.3076
14553SOL     OW47063   3.692   2.666   7.188  0.0349 -0.5160  0.2914
14553SOL    HW147064   3.781   2.664   7.153  0.2212  1.4195  0.6404
14553SOL    HW247065   3.647   2.596   7.140  1.4182 -0.7489 -0.7176
14554SOL     OW47066   7.765   2.181   8.283 -0.2606 -0.0874 -0.2148
14554SOL    HW147067   7.741   2.166   8.191 -0.0249  1.0847 -0.4799
14554SOL    HW247068   7.773   2.276   8.290 -0.2927 -0.1736  1.0331
14555SOL     OW47069   6.838   4.154   1.773 -0.8622  0.1134 -0.5906
14555SOL    HW147070   6.748   4.185   1.776 -0.9052  0.0921 -1.4937
14555SOL    HW247071   6.835   4.067   1.815 -1.1657  0.3199 -0.1788
14556SOL     OW47072   0.006   0.996   8.336  0.5360 -0.2703  0.2014
14556SOL    HW147073   0.089   0.998   8.289  1.4599 -0.2256  1.7741
14556SOL    HW247074  -0.006   0.904   8.360 -0.0741 -0.3406 -0.3617
14557SOL     OW47075   8.647   3.795   7.924  0.5326 -0.8348 -0.4936
14557SOL    HW147076   8.724   3.775   7.977  0.9299  2.8531  0.4292
14557SOL    HW247077   8.574   3.789   7.985  0.6020 -0.0122 -0.3225
14558SOL     OW47078   0.410   3.091   3.697 -0.3669  0.1332  0.0152
14558SOL    HW147079   0.404   3.061   3.787  2.3634 -0.1633  0.1274
14558SOL    HW247080   0.421   3.011   3.645  0.1424  0.4628 -0.3839
14559SOL     OW47081   4.351  10.863   2.045  0.5179  0.7111  0.1019
14559SOL    HW147082   4.354  10.943   2.098  1.4600  0.2408  0.7749
14559SOL    HW247083   4.345  10.792   2.109 -1.2744  0.2796 -0.5246
14560SOL     OW47084   0.711   0.066   5.099  0.0569  0.5091 -0.3598
14560SOL    HW147085   0.733   0.051   5.007  0.1834 -0.4787 -0.1701
14560SOL    HW247086   0.656   0.145   5.098 -1.1697 -0.3344 -1.4453
14561SOL     OW47087   7.129   2.824   2.026 -0.4516 -0.0945  0.2833
14561SOL    HW147088   7.150   2.740   1.984  2.5745  1.3466 -1.2720
14561SOL    HW247089   7.151   2.810   2.118  0.2376 -0.9595  0.0008
14562SOL     OW47090   6.908   0.436   4.233  0.5739  0.2497 -0.0646
14562SOL    HW147091   6.818   0.407   4.225  0.3472  0.8279  0.3353
14562SOL    HW247092   6.927   0.477   4.149 -0.0391  1.4864  0.3854
14563SOL     OW47093   4.262   5.914   1.749 -0.5977  0.1531 -0.4312
14563SOL    HW147094   4.305   5.850   1.692 -0.7054  1.6452 -2.2123
14563SOL    HW247095   4.331   5.945   1.807 -0.5272 -1.4909  0.4143
14564SOL     OW47096   2.775   2.225   9.834 -0.7811 -0.8828  0.6109
14564SOL    HW147097   2.836   2.273   9.889  1.1889 -0.6239 -1.7569
14564SOL    HW247098   2.794   2.133   9.852  0.2309 -0.8029 -0.0330
14565SOL     OW47099   7.290   2.673   5.635  0.0787  0.4770  0.2351
14565SOL    HW147100   7.328   2.719   5.709  1.5558 -1.0850  0.4706
14565SOL    HW247101   7.361   2.668   5.571 -0.6303  0.1707 -0.5350
14566SOL     OW47102  10.319   5.611   4.163 -0.1799  0.0589  0.2984
14566SOL    HW147103  10.283   5.608   4.252 -0.6791  2.6289  0.2204
14566SOL    HW247104  10.246   5.639   4.108  0.6786  0.5981 -0.5852
14567SOL     OW47105   0.737   6.691   5.672 -0.5058 -0.4673 -0.1479
14567SOL    HW147106   0.646   6.721   5.679  0.0436  0.9425  1.4189
14567SOL    HW247107   0.767   6.725   5.588 -0.7851  0.9556  0.3072
14568SOL     OW47108   1.840   6.171  10.651  0.0224 -0.2208  0.6655
14568SOL    HW147109   1.845   6.092  10.598 -0.0096 -0.5163  1.0954
14568SOL    HW247110   1.831   6.242  10.588  0.6708 -0.5028  0.2561
14569SOL     OW47111   9.564   4.026   4.808 -0.2419  0.0999 -0.0827
14569SOL    HW147112   9.563   4.072   4.724 -2.0372 -0.3578 -0.3310
14569SOL    HW247113   9.507   4.078   4.865  0.6748  0.2047  0.7512
14570SOL     OW47114   2.978  10.223   3.852  0.5256 -1.2077  0.1107
14570SOL    HW147115   3.064  10.265   3.846 -0.1947  0.5216  1.4351
14570SOL    HW247116   2.994  10.131   3.827  2.5466 -0.6833 -0.6254
14571SOL     OW47117   8.084   9.146   7.192 -0.4558 -0.7907 -0.4182
14571SOL    HW147118   8.033   9.087   7.136 -0.0258 -2.4472  0.9183
14571SOL    HW247119   8.109   9.218   7.133 -3.9921 -0.0740 -1.2250
14572SOL     OW47120   6.199   9.608   9.125 -0.4125  0.1153  0.2055
14572SOL    HW147121   6.231   9.518   9.122 -1.1264 -0.1201 -0.5693
14572SOL    HW247122   6.150   9.615   9.206 -1.6544 -0.6487 -0.4654
14573SOL     OW47123   6.344   3.427   7.218 -0.2363  0.6589 -0.1707
14573SOL    HW147124   6.290   3.503   7.235 -1.2314 -0.5076  2.1071
14573SOL    HW247125   6.286   3.365   7.173 -0.2107  0.2068  0.4109
14574SOL     OW47126   5.905   8.798   5.301 -0.0276 -0.0226 -0.2203
14574SOL    HW147127   5.811   8.808   5.320 -0.4925 -1.8101 -1.4753
14574SOL    HW247128   5.920   8.855   5.226  0.0856  0.9030  0.4941
14575SOL     OW47129   6.857   0.643   0.769 -0.0358 -0.3355  0.6836
14575SOL    HW147130   6.792   0.601   0.824  0.1780 -0.6360  0.7107
14575SOL    HW247131   6.856   0.735   0.796  0.6058 -0.6233  1.7171
14576SOL     OW47132   3.874   5.447   3.654  0.3650  0.8764  0.1213
14576SOL    HW147133   3.815   5.521   3.665  0.0040  0.4761  0.9451
14576SOL    HW247134   3.959   5.478   3.686 -0.6661 -0.2652  4.2014
14577SOL     OW47135   7.124   0.312   9.009  0.6206 -0.0885  0.8838
14577SOL    HW147136   7.116   0.235   8.953  2.9960  0.0861  0.2428
14577SOL    HW247137   7.218   0.331   9.011 -0.0793  4.3565 -1.1509
14578SOL     OW47138   9.697   7.872   3.316 -0.1631 -0.0957 -0.3682
14578SOL    HW147139   9.634   7.869   3.388  0.0593 -1.2228 -0.2145
14578SOL    HW247140   9.776   7.830   3.351 -0.8238 -2.8236 -1.9928
14579SOL     OW47141  10.774   9.464   5.656  0.1072  0.2522 -0.3820
14579SOL    HW147142  10.691   9.430   5.622 -0.4628  2.4631 -1.3029
14579SOL    HW247143  10.823   9.491   5.578  0.8927  0.7487  0.2699
14580SOL     OW47144   4.605   0.486   3.371 -0.3654  0.3793 -0.6560
14580SOL    HW147145   4.578   0.404   3.411 -0.4879  0.0889 -1.3316
14580SOL    HW247146   4.527   0.541   3.372 -0.6103  0.0458 -1.3227
14581SOL     OW47147   1.257   6.683   8.799  0.1171  0.2067 -0.0438
14581SOL    HW147148   1.244   6.591   8.823 -2.2237  0.1090 -1.4741
14581SOL    HW247149   1.237   6.732   8.879 -0.3244 -0.4656  0.2598
14582SOL     OW47150   2.443   4.805   2.856  0.2280  0.3421 -0.1572
14582SOL    HW147151   2.436   4.890   2.813 -1.7908  0.0827 -0.3983
14582SOL    HW247152   2.449   4.742   2.784  2.9820  0.3289  0.0215
14583SOL     OW47153   4.338   8.784   1.774 -0.0654 -0.1583 -0.1211
14583SOL    HW147154   4.286   8.787   1.694  0.1705  1.0461 -0.2510
14583SOL    HW247155   4.420   8.828   1.751  0.4321 -0.7570  0.4855
14584SOL     OW47156   8.144  10.095  10.798 -0.1441 -0.1607 -0.6295
14584SOL    HW147157   8.055  10.062  10.800 -0.9966  2.0769  0.1504
14584SOL    HW247158   8.136  10.186  10.771  1.6351  0.8072  1.8816
14585SOL     OW47159   9.880   7.891   6.966 -0.2086 -0.6005  0.6617
14585SOL    HW147160   9.824   7.831   7.014  1.6259 -1.4376  1.8481
14585SOL    HW247161   9.968   7.871   6.998  0.8060  0.4106 -1.4020
14586SOL     OW47162   5.800   7.300   8.755  0.6909 -0.2201  0.0789
14586SOL    HW147163   5.748   7.292   8.675 -0.1402  0.8528  0.4897
14586SOL    HW247164   5.787   7.218   8.801 -2.0133  0.6499  0.9586
14587SOL     OW47165   4.516   7.769  10.535  0.1975  0.4076 -0.5542
14587SOL    HW147166   4.468   7.695  10.572 -1.7374  3.0739  2.5591
14587SOL    HW247167   4.607   7.752  10.560 -0.5281  0.1564  2.1532
14588SOL     OW47168   0.184   0.056   5.716 -0.2065  0.5179  0.2286
14588SOL    HW147169   0.260   0.001   5.694 -0.3785  0.5516 -0.4620
14588SOL    HW247170   0.215   0.146   5.703 -0.3701  0.5306 -0.0854
14589SOL     OW47171   2.366   9.347   7.936  0.2675  0.3766 -0.7462
14589SOL    HW147172   2.317   9.378   8.013  0.1866  1.5320 -1.2467
14589SOL    HW247173   2.376   9.253   7.950 -0.0162  0.5249  0.5317
14590SOL     OW47174  10.172   3.181   8.865  0.2821 -0.4180 -0.0232
14590SOL    HW147175  10.098   3.213   8.917  1.1313  0.8465  0.4508
14590SOL    HW247176  10.247   3.229   8.900  1.7034 -3.3170  0.9970
14591SOL     OW47177   6.575   5.612   7.332 -0.0229 -0.3255  0.3901
14591SOL    HW147178   6.591   5.683   7.394  1.3425  0.6434 -1.0305
14591SOL    HW247179   6.650   5.554   7.342 -0.2628 -0.6558  0.2880
14592SOL     OW47180   5.179   3.519   3.072  0.2270 -0.0258 -0.5704
14592SOL    HW147181   5.221   3.460   3.009  1.5684 -0.2904  0.5684
14592SOL    HW247182   5.163   3.599   3.021  0.8795 -0.3970 -1.3802
14593SOL     OW47183   2.409   9.880   0.362  0.2970  0.5135  0.2209
14593SOL    HW147184   2.400   9.907   0.271 -1.5722 -0.2444  0.1632
14593SOL    HW247185   2.327   9.907   0.404  0.7133 -0.0430  1.4340
14594SOL     OW47186   7.324   1.367  10.325 -0.2398 -0.1461 -0.4655
14594SOL    HW147187   7.288   1.434  10.267  3.0589  2.4677  0.3824
14594SOL    HW247188   7.260   1.360  10.396 -1.2693  1.1381 -1.2582
14595SOL     OW47189  10.212   7.561   6.480  0.2170 -0.0329 -0.4796
14595SOL    HW147190  10.244   7.585   6.393  1.9866  0.0139  0.1482
14595SOL    HW247191  10.134   7.508   6.464  0.1653  0.5223 -2.0681
14596SOL     OW47192   4.463   5.644   5.451 -0.2485  0.1322 -0.1518
14596SOL    HW147193   4.496   5.556   5.466  0.2248  0.2334 -0.5867
14596SOL    HW247194   4.516   5.700   5.508  1.1580  0.4448 -1.7485
14597SOL     OW47195   9.426   8.145   9.917 -0.2212 -0.0385  0.3187
14597SOL    HW147196   9.522   8.142   9.918 -0.1837  0.8196  0.0205
14597SOL    HW247197   9.401   8.134  10.009  0.0781 -2.2112  0.1606
14598SOL     OW47198   5.963   3.363   3.951  0.7524  0.5889 -0.7439
14598SOL    HW147199   5.896   3.321   4.005  0.8417  1.5361  0.1201
14598SOL    HW247200   5.933   3.350   3.861 -0.9957  1.6628 -0.3386
14599SOL     OW47201   8.567   4.864   4.646  1.1662 -0.3365  0.0554
14599SOL    HW147202   8.516   4.942   4.622 -0.0041 -1.1483 -0.0999
14599SOL    HW247203   8.658   4.892   4.635  0.8150  1.5677  1.7103
14600SOL     OW47204   1.695   4.655   6.286  0.1207 -0.4943 -0.0175
14600SOL    HW147205   1.695   4.649   6.191  0.3237 -0.1188 -0.0398
14600SOL    HW247206   1.616   4.607   6.313  0.5087 -1.3073 -0.3296
14601SOL     OW47207   5.424   2.032   1.319 -0.1147  0.2168 -0.0906
14601SOL    HW147208   5.507   2.061   1.356  0.1864  0.9941 -1.3335
14601SOL    HW247209   5.449   1.986   1.238 -0.6277 -2.9001  1.4315
14602SOL     OW47210  10.981   0.163   9.570 -0.4493  0.2048 -0.1958
14602SOL    HW147211  11.050   0.181   9.507 -0.8602 -0.7042 -0.9235
14602SOL    HW247212  11.026   0.138   9.650  0.0662 -1.4615 -0.9915
14603SOL     OW47213   1.919   2.694   1.740 -0.5123  0.4857  0.2645
14603SOL    HW147214   1.902   2.695   1.835 -0.4403  0.8492  0.2748
14603SOL    HW247215   1.896   2.606   1.713 -4.0063  1.3848  0.0228
14604SOL     OW47216   1.793   7.341   5.966 -0.2335 -0.5878 -0.2084
14604SOL    HW147217   1.844   7.401   5.911 -4.5356  0.6955 -3.0253
14604SOL    HW247218   1.724   7.395   6.003 -2.8380 -3.2679 -0.9372
14605SOL     OW47219   4.865   6.585   0.145  0.4538  0.4070  0.1243
14605SOL    HW147220   4.874   6.595   0.240 -0.8890  0.6299  0.2350
14605SOL    HW247221   4.926   6.514   0.123 -1.5568 -1.9150  1.6473
14606SOL     OW47222   9.791   8.575   9.906  0.1560  0.0852  0.1626
14606SOL    HW147223   9.774   8.658   9.861  1.7868  0.3119 -0.0629
14606SOL    HW247224   9.823   8.517   9.837 -1.9753 -1.0697  0.1220
14607SOL     OW47225  10.136   5.024   3.803  0.3358  0.4293  0.6060
14607SOL    HW147226  10.196   4.995   3.873  0.5130 -0.7404 -0.0158
14607SOL    HW247227  10.175   5.105   3.771  1.2145  0.0540  0.6873
14608SOL     OW47228   5.235   5.433   4.387 -0.0145 -0.2825  0.4042
14608SOL    HW147229   5.184   5.444   4.468 -2.7234 -2.7291 -0.8994
14608SOL    HW247230   5.317   5.394   4.416 -0.6972 -0.5326  2.0544
14609SOL     OW47231   2.563   1.069  10.671  0.0355  0.2749  0.6251
14609SOL    HW147232   2.509   1.144  10.696 -0.2478  0.3856 -0.2905
14609SOL    HW247233   2.548   1.059  10.577  2.7970  1.3139  0.0044
14610SOL     OW47234   5.548   3.765   9.091  0.0606  0.1971  0.3957
14610SOL    HW147235   5.636   3.729   9.084 -0.4220 -0.7823 -0.8841
14610SOL    HW247236   5.493   3.690   9.116 -0.7519  0.3065 -1.0362
14611SOL     OW47237  10.398   2.345   1.497 -0.4304  0.2138 -0.1707
14611SOL    HW147238  10.344   2.268   1.483 -0.3687  0.0540  0.4485
14611SOL    HW247239  10.457   2.348   1.422 -0.6712 -0.1392 -0.3720
14612SOL     OW47240   3.101   8.971   1.067 -0.0062  0.1436  0.1937
14612SOL    HW147241   3.159   9.009   1.000  0.1837  0.4051  0.5036
14612SOL    HW247242   3.147   8.892   1.096 -1.3299 -1.4642 -1.8745
14613SOL     OW47243  10.660   9.125  10.944  0.0858 -0.6620  0.2967
14613SOL    HW147244  10.749   9.120  10.979  0.3662  0.1074 -0.2724
14613SOL    HW247245  10.614   9.051  10.984  1.1008 -1.3358  0.2504
14614SOL     OW47246   8.739   0.728   0.887  0.3747 -0.8028  0.0428
14614SOL    HW147247   8.771   0.716   0.798  1.6497  1.5298  0.1505
14614SOL    HW247248   8.706   0.818   0.889 -3.9428 -2.2347  0.6707
14615SOL     OW47249   4.589   7.421   4.816 -0.7476 -0.4868  0.3509
14615SOL    HW147250   4.600   7.431   4.722  0.2849 -0.4377  0.4692
14615SOL    HW247251   4.577   7.326   4.829  0.9227 -0.7029  0.3441
14616SOL     OW47252   3.071   6.762  10.118 -0.2013 -0.7201  0.3743
14616SOL    HW147253   3.126   6.827  10.162 -0.7023  0.2239 -0.3690
14616SOL    HW247254   2.991   6.759  10.171 -0.7913  0.3915 -0.4359
14617SOL     OW47255   5.281  10.659   1.057  0.2532 -0.1275  0.3474
14617SOL    HW147256   5.232  10.733   1.092  0.1689 -0.1729  0.3246
14617SOL    HW247257   5.362  10.698   1.023 -1.1871  0.4453 -2.6642
14618SOL     OW47258  10.675   8.079   1.626  0.3476 -0.1966 -0.1494
14618SOL    HW147259  10.659   8.044   1.713  0.9565  0.8098  0.3810
14618SOL    HW247260  10.594   8.125   1.603 -0.1655 -1.2630 -0.5257
14619SOL     OW47261   9.046   3.799   4.952  0.0151 -0.7298  0.3599
14619SOL    HW147262   8.992   3.739   5.003 -1.9156  0.5626 -0.0709
14619SOL    HW247263   9.136   3.776   4.973 -0.7182 -2.5310  1.6056
14620SOL     OW47264   9.258   2.606   8.779  0.3091 -0.3106  0.5560
14620SOL    HW147265   9.229   2.638   8.693  0.0304  0.3703  0.8973
14620SOL    HW247266   9.259   2.511   8.770 -2.1095 -0.3729  0.5411
14621SOL     OW47267   1.373   6.619   0.341 -0.3343 -0.6875 -0.1714
14621SOL    HW147268   1.421   6.632   0.258 -0.1383  0.7257  0.1429
14621SOL    HW247269   1.440   6.589   0.402 -0.5943 -2.3000 -0.6650
14622SOL     OW47270   9.530   2.717   2.305  0.5380  0.5354 -0.4567
14622SOL    HW147271   9.612   2.682   2.340  0.0167  0.1833  0.4351
14622SOL    HW247272   9.530   2.809   2.333 -0.3680 -0.0086  1.4155
14623SOL     OW47273   9.848   8.563   1.170  0.2059  0.0651  0.4269
14623SOL    HW147274   9.754   8.558   1.184  0.1900  1.8545  1.1109
14623SOL    HW247275   9.857   8.609   1.086  0.4653  0.2822  0.5715
14624SOL     OW47276  10.842   8.191   4.143  0.0512 -0.4226 -0.1834
14624SOL    HW147277  10.890   8.126   4.194 -1.8309 -0.1010  2.0763
14624SOL    HW247278  10.786   8.140   4.085  2.0570 -0.7904 -1.8595
14625SOL     OW47279   2.878   0.882   1.898 -0.0876  0.5287  0.3679
14625SOL    HW147280   2.788   0.883   1.867 -0.3348  0.6321  1.0814
14625SOL    HW247281   2.888   0.964   1.947  0.0661 -0.0048  1.2254
14626SOL     OW47282   7.383   1.968   0.409  0.3432  0.1560  0.0294
14626SOL    HW147283   7.425   2.053   0.414  1.1096 -0.2530  0.6939
14626SOL    HW247284   7.290   1.987   0.397  0.7388  1.0605 -1.7444
14627SOL     OW47285   7.518   4.456   1.785  0.2810  0.3872  0.4503
14627SOL    HW147286   7.464   4.533   1.767  1.0828  0.8231 -0.1111
14627SOL    HW247287   7.548   4.427   1.698  0.6483 -0.0641  0.7259
14628SOL     OW47288   8.067   2.282   3.255  0.5606 -0.3674 -0.2672
14628SOL    HW147289   8.045   2.206   3.308 -0.7938 -0.4306 -0.8962
14628SOL    HW247290   7.996   2.344   3.272  1.2677  0.4729 -0.3252
14629SOL     OW47291   3.840   1.869   0.931  0.0243  0.0791 -0.3046
14629SOL    HW147292   3.795   1.949   0.957 -1.1087 -0.8537  0.6616
14629SOL    HW247293   3.870   1.830   1.014 -1.7515 -1.8295 -0.5152
14630SOL     OW47294   8.898   9.549   4.749 -0.1011 -0.0091  0.1946
14630SOL    HW147295   8.976   9.524   4.798 -0.3574  0.5201  0.8907
14630SOL    HW247296   8.851   9.609   4.808  0.5687  2.1986 -1.4576
14631SOL     OW47297   1.428   6.222   4.217  0.4251 -0.4463  0.4939
14631SOL    HW147298   1.381   6.215   4.135  0.1879  2.5810  0.3019
14631SOL    HW247299   1.520   6.210   4.194  0.2567 -0.7053 -0.0329
14632SOL     OW47300   8.130  10.267   5.233  0.1057  0.7869 -0.1837
14632SOL    HW147301   8.114  10.346   5.182  1.0602  0.7979 -0.4880
14632SOL    HW247302   8.204  10.289   5.290 -1.6080  1.0935  1.9527
14633SOL     OW47303   8.399   0.608   2.944  0.3066 -0.1329 -0.6636
14633SOL    HW147304   8.431   0.683   2.995  1.0865  0.4506 -1.9913
14633SOL    HW247305   8.476   0.576   2.897 -0.4532 -0.5390 -1.6452
14634SOL     OW47306   7.215   1.559  10.613  0.1672  0.0960 -0.2527
14634SOL    HW147307   7.156   1.484  10.605 -2.6806  2.2358  0.2875
14634SOL    HW247308   7.255   1.548  10.699 -0.9705 -0.3011  0.2397
14635SOL     OW47309   8.355   2.649   6.303  0.2851 -0.5396  0.0006
14635SOL    HW147310   8.438   2.621   6.264  0.6807 -0.4438  0.7713
14635SOL    HW247311   8.351   2.603   6.387  0.3360  0.7166  0.6984
14636SOL     OW47312   0.826   3.194   3.414  0.3276 -0.1243  0.1681
14636SOL    HW147313   0.863   3.164   3.497  0.4196  0.3642  0.3058
14636SOL    HW247314   0.798   3.114   3.370 -2.1259 -0.2387  1.8002
14637SOL     OW47315   9.036   5.163   2.202 -0.0968  0.2313  0.3738
14637SOL    HW147316   9.030   5.069   2.185 -3.9150  0.3090  0.8794
14637SOL    HW247317   9.041   5.202   2.115 -0.5572 -0.3264  0.0907
14638SOL     OW47318   8.227   0.801   4.820  0.2482  0.1176  0.0694
14638SOL    HW147319   8.166   0.853   4.767  0.8850  0.6094 -0.1866
14638SOL    HW247320   8.249   0.726   4.765  0.2558  0.1954 -0.0340
14639SOL     OW47321   0.788   1.736   0.923  0.4111  0.3347 -0.3530
14639SOL    HW147322   0.876   1.700   0.914 -0.0472 -0.5894 -1.2700
14639SOL    HW247323   0.737   1.691   0.855 -0.6040  1.3623 -0.2806
14640SOL     OW47324   4.696   3.503   6.915  0.4089  0.1670 -0.0046
14640SOL    HW147325   4.681   3.428   6.973 -0.5176  0.0079 -0.4413
14640SOL    HW247326   4.743   3.566   6.969  1.3505 -0.7992  0.3180
14641SOL     OW47327   7.588  10.902   5.597  0.4686 -0.0566  0.0838
14641SOL    HW147328   7.645  10.908   5.673 -1.0307 -0.7923  1.2950
14641SOL    HW247329   7.627  10.833   5.543  1.5404  0.4698  0.1724
14642SOL     OW47330   7.198   4.483   4.384 -0.4214 -0.2109  0.1492
14642SOL    HW147331   7.148   4.453   4.460  0.4444  1.4009  1.3907
14642SOL    HW247332   7.261   4.414   4.367  0.7780  0.3328  2.2360
14643SOL     OW47333   4.986   7.128  10.148  0.3974  0.4319 -0.6163
14643SOL    HW147334   4.924   7.199  10.168 -0.2086 -0.6161  1.3361
14643SOL    HW247335   5.041   7.122  10.226  1.6946  0.0212 -1.5458
14644SOL     OW47336   5.552   2.517   7.874 -0.0805  0.4897 -0.5038
14644SOL    HW147337   5.633   2.471   7.897  0.4777  1.5910 -0.2573
14644SOL    HW247338   5.490   2.489   7.942  0.1982 -0.0446 -0.4602
14645SOL     OW47339   1.489   4.738   7.098 -0.0432  0.5028 -0.1009
14645SOL    HW147340   1.494   4.755   7.193 -4.7967  0.3063  0.3161
14645SOL    HW247341   1.454   4.820   7.062 -2.4792 -0.8873 -1.0133
14646SOL     OW47342   8.338   0.043   9.765  0.4069 -0.2749  0.4081
14646SOL    HW147343   8.396  -0.029   9.789  1.5467  0.8646  1.1281
14646SOL    HW247344   8.280   0.054   9.841 -0.1343 -0.7843  0.0748
14647SOL     OW47345   0.708   1.978  10.487 -0.6438 -0.2162  0.1102
14647SOL    HW147346   0.679   2.012  10.402  0.8592 -0.0078 -0.3366
14647SOL    HW247347   0.774   2.041  10.516  1.9467 -2.5072 -0.5688
14648SOL     OW47348   7.828   8.949   4.178  0.5493 -0.5139 -0.4994
14648SOL    HW147349   7.836   9.031   4.130 -0.2243 -0.1659 -0.0339
14648SOL    HW247350   7.755   8.904   4.137 -0.2861 -0.0955  0.5232
14649SOL     OW47351   3.228   1.215   1.074  0.4501  0.3073  0.4829
14649SOL    HW147352   3.302   1.216   1.134  0.2644 -0.9422  0.7348
14649SOL    HW247353   3.211   1.123   1.056 -0.7494  0.5899  0.0542
14650SOL     OW47354   3.556   9.130   9.734 -0.1250 -0.5733 -0.6430
14650SOL    HW147355   3.562   9.210   9.683  0.8458 -0.6798 -0.7009
14650SOL    HW247356   3.545   9.160   9.825  1.3113 -0.3651 -0.5340
14651SOL     OW47357   1.619   1.662   3.582 -0.1123  0.2804 -0.8753
14651SOL    HW147358   1.687   1.621   3.529  0.6482  1.3493 -0.7337
14651SOL    HW247359   1.626   1.619   3.668  2.3208  2.3575  0.0365
14652SOL     OW47360   5.536   6.382   0.776  0.2730  0.1930  0.5546
14652SOL    HW147361   5.488   6.326   0.715  0.4901 -1.1586  1.5775
14652SOL    HW247362   5.527   6.470   0.741  1.0812 -0.6418 -1.8503
14653SOL     OW47363   0.840   6.674   2.473 -0.2948 -0.1497 -0.2164
14653SOL    HW147364   0.808   6.722   2.550 -1.6501  0.3692 -1.0792
14653SOL    HW247365   0.760   6.648   2.427  0.4760 -1.9977 -0.5190
14654SOL     OW47366   1.894   3.918   4.696 -0.1007 -0.2933  0.0639
14654SOL    HW147367   1.852   3.915   4.611 -0.2786  2.0108  0.0337
14654SOL    HW247368   1.832   3.876   4.756 -1.9298  1.9073 -0.2067
14655SOL     OW47369   3.168  10.292  10.907 -0.3871 -0.0760  0.3347
14655SOL    HW147370   3.219  10.343  10.844  0.4150  0.2014  1.1930
14655SOL    HW247371   3.217  10.210  10.915 -0.5830 -0.1800  0.4659
14656SOL     OW47372   0.080   2.270   0.305 -0.0248 -0.3893 -0.3683
14656SOL    HW147373   0.013   2.298   0.366 -0.5511  1.3462 -1.6905
14656SOL    HW247374   0.156   2.325   0.325  0.9891 -2.2199  1.0036
14657SOL     OW47375   7.695   8.238   7.949 -0.1513  0.1600 -0.3027
14657SOL    HW147376   7.667   8.312   7.895 -1.1653 -0.1692 -0.2471
14657SOL    HW247377   7.670   8.263   8.038  1.8711  0.8737  0.0734
14658SOL     OW47378   9.958   5.140   6.308 -0.2740 -0.5224 -0.4769
14658SOL    HW147379   9.989   5.230   6.299  0.2013 -0.7452 -1.1232
14658SOL    HW247380   9.886   5.145   6.372  0.0545  0.2383 -0.1617
14659SOL     OW47381   1.235   0.730   2.753  0.6316  0.1135 -0.8096
14659SOL    HW147382   1.283   0.655   2.717  0.9084 -0.1125  0.0131
14659SOL    HW247383   1.300   0.800   2.758  0.8760 -0.1900  0.2973
14660SOL     OW47384   0.661   6.827   0.118 -0.1184  0.1401  0.3710
14660SOL    HW147385   0.744   6.784   0.137  1.0030  1.4081 -1.5072
14660SOL    HW247386   0.644   6.883   0.194  1.0210  0.2699  0.5291
14661SOL     OW47387  10.325   1.544   9.075 -0.3326 -0.1139  0.1183
14661SOL    HW147388  10.322   1.557   9.170  1.7793 -1.6879  0.4403
14661SOL    HW247389  10.418   1.530   9.056 -0.6814  0.5817 -2.2455
14662SOL     OW47390   9.721   1.989   7.200  0.2925  0.0418 -0.0892
14662SOL    HW147391   9.798   2.026   7.157  1.3708  0.5768  2.2736
14662SOL    HW247392   9.654   1.989   7.131  2.2747 -0.0982 -2.0607
14663SOL     OW47393   8.072   8.258   7.191  0.1093 -0.4077  0.6280
14663SOL    HW147394   8.038   8.342   7.158  0.9683 -0.5767 -0.7142
14663SOL    HW247395   8.158   8.250   7.151 -0.2452 -2.2687  0.2110
14664SOL     OW47396   5.770   1.782   2.046  0.8957  0.4230 -0.1810
14664SOL    HW147397   5.788   1.793   2.140  1.8639  2.0591 -0.5598
14664SOL    HW247398   5.855   1.758   2.008  0.9162  1.7197 -0.9499
14665SOL     OW47399   5.886   1.029   6.728  0.3063  0.2285  0.6810
14665SOL    HW147400   5.920   1.100   6.782 -0.7146 -0.7541  2.6657
14665SOL    HW247401   5.821   0.986   6.783 -0.0391 -1.4294 -0.9765
14666SOL     OW47402   9.477   1.919   2.683 -0.4200  0.0596  0.3577
14666SOL    HW147403   9.447   1.842   2.732 -1.6428  1.0996  1.2545
14666SOL    HW247404   9.422   1.921   2.605  0.4475 -0.6754 -0.2838
14667SOL     OW47405   7.081   9.085   2.236  0.7715 -0.2659 -0.1972
14667SOL    HW147406   6.999   9.037   2.226  2.0236 -2.4040 -0.4888
14667SOL    HW247407   7.093   9.093   2.331  1.4998 -2.2594 -0.0929
14668SOL     OW47408  10.180   9.345   6.278 -0.1548  0.3052  0.1942
14668SOL    HW147409  10.171   9.393   6.360  0.3327  0.3025  0.2512
14668SOL    HW247410  10.169   9.253   6.302  0.8835  0.2335  0.4009
14669SOL     OW47411  10.138   9.081   6.372  0.2338  0.2747  0.0660
14669SOL    HW147412  10.052   9.092   6.412  0.8419  0.3629  1.3565
14669SOL    HW247413  10.174   9.003   6.414  0.8605  0.3452 -0.3333
14670SOL     OW47414   1.133   3.149   7.909 -0.6324 -0.2947  0.3045
14670SOL    HW147415   1.202   3.210   7.937  0.1218 -1.2083  0.4393
14670SOL    HW247416   1.171   3.062   7.921 -2.1413 -0.8280  1.2257
14671SOL     OW47417   5.777   9.128  10.964 -0.2990 -0.0232 -0.7958
14671SOL    HW147418   5.750   9.074  10.890  0.0232  0.4281 -1.2411
14671SOL    HW247419   5.822   9.066  11.023 -1.4008 -0.5745 -0.5136
14672SOL     OW47420   9.221   9.380   6.946  0.1225  0.3254 -0.3149
14672SOL    HW147421   9.178   9.348   7.025  0.4538  0.1015 -0.2220
14672SOL    HW247422   9.194   9.318   6.878  0.8277 -0.2028 -0.1189
14673SOL     OW47423  10.430   6.593   0.467 -0.4516  0.2459 -0.2664
14673SOL    HW147424  10.456   6.686   0.470 -1.0120  0.3847  0.6186
14673SOL    HW247425  10.506   6.546   0.501 -1.4009  0.6775  2.6482
14674SOL     OW47426   2.371   7.210   5.387  0.5969 -0.1091  0.4847
14674SOL    HW147427   2.363   7.281   5.452  0.7690  1.2062 -0.9127
14674SOL    HW247428   2.453   7.166   5.410  0.8449  0.5753  0.9402
14675SOL     OW47429   3.638   3.904   9.453 -0.1325 -0.0478 -0.3136
14675SOL    HW147430   3.717   3.957   9.457  0.2587 -0.6074 -0.6305
14675SOL    HW247431   3.652   3.844   9.380 -0.9794  0.0596 -0.5775
14676SOL     OW47432  10.154   6.494   9.806  0.4246  0.0100  0.3770
14676SOL    HW147433  10.091   6.559   9.775  0.4210 -0.8477 -1.4314
14676SOL    HW247434  10.135   6.486   9.899 -0.5121  1.5600  0.3511
14677SOL     OW47435   7.646   0.604   3.283  0.1877  0.0580  0.4835
14677SOL    HW147436   7.683   0.534   3.230  1.0003  0.9407 -0.1246
14677SOL    HW247437   7.697   0.682   3.260 -1.7538  1.2077 -0.0495
14678SOL     OW47438   1.114   8.984   1.087  0.1102  0.1351 -0.5615
14678SOL    HW147439   1.074   9.045   1.149  2.3852  0.5277  0.6103
14678SOL    HW247440   1.115   8.900   1.132  0.3400  0.0736 -0.6768
14679SOL     OW47441   0.514   7.813   9.410 -0.0303  0.3060 -0.3248
14679SOL    HW147442   0.481   7.784   9.325  0.3462 -0.6318 -0.1556
14679SOL    HW247443   0.437   7.841   9.458 -0.1584  1.6546 -1.2809
14680SOL     OW47444   6.698   4.523   1.172 -0.3312  0.1790 -0.3336
14680SOL    HW147445   6.655   4.438   1.178  0.3974 -0.1545  0.3295
14680SOL    HW247446   6.734   4.525   1.084  0.8198 -0.7848  0.0968
14681SOL     OW47447   3.059   3.343   6.901 -0.0914  0.2471 -0.0635
14681SOL    HW147448   3.063   3.431   6.863  0.5906  0.0272 -0.5268
14681SOL    HW247449   3.142   3.334   6.948  0.8779 -0.9991 -1.9535
14682SOL     OW47450   3.480  10.716   0.327  0.1836  0.0722 -0.1067
14682SOL    HW147451   3.506  10.625   0.312  3.1594  1.3683 -3.3959
14682SOL    HW247452   3.414  10.733   0.259  2.6854  1.5387 -2.2384
14683SOL     OW47453   7.675   8.047   6.625 -0.1498 -0.6054 -0.3690
14683SOL    HW147454   7.684   8.118   6.562 -1.8837  0.6315  0.7359
14683SOL    HW247455   7.610   7.988   6.585 -0.1451 -0.5808 -0.4127
14684SOL     OW47456   6.086  10.225   5.592 -0.1770 -0.2157  0.0089
14684SOL    HW147457   6.114  10.230   5.684  0.3676  0.7377 -0.2061
14684SOL    HW247458   5.999  10.265   5.592 -0.7223 -1.3792  0.3284
14685SOL     OW47459   2.957   0.419   2.255  0.2178 -0.1076 -0.0127
14685SOL    HW147460   3.036   0.444   2.303 -1.7789  0.4327  3.0593
14685SOL    HW247461   2.905   0.499   2.252 -0.8128 -0.8031 -0.8923
14686SOL     OW47462   0.132   2.297   4.808  0.0712 -0.2370 -0.2481
14686SOL    HW147463   0.153   2.208   4.834 -0.3637 -0.2597  0.0278
14686SOL    HW247464   0.071   2.287   4.734  1.2419 -0.1747 -1.2411
14687SOL     OW47465   8.202   6.728   0.803  0.2349 -0.2120  0.2284
14687SOL    HW147466   8.107   6.738   0.804 -0.2657 -4.2912 -0.4351
14687SOL    HW247467   8.225   6.709   0.894  0.5747  1.6299  0.5532
14688SOL     OW47468   5.742   1.472   7.629 -0.1728 -0.3806  0.2540
14688SOL    HW147469   5.808   1.408   7.603  0.4943  0.2296  0.4307
14688SOL    HW247470   5.786   1.528   7.693 -0.5601  0.6195 -0.3333
14689SOL     OW47471  10.709   5.290   5.643 -0.0781  0.1029  0.1484
14689SOL    HW147472  10.661   5.371   5.628  0.2446  0.3355  0.3841
14689SOL    HW247473  10.702   5.243   5.560  0.3774  0.7060 -0.2333
14690SOL     OW47474   8.214   8.673   6.934 -0.0213  0.1439 -0.2411
14690SOL    HW147475   8.183   8.643   6.848 -0.5544 -1.5440  0.5057
14690SOL    HW247476   8.288   8.616   6.954  0.6053  1.0678  0.0600
14691SOL     OW47477  10.000   1.696   9.570  0.4182  0.1049 -0.2185
14691SOL    HW147478   9.976   1.721   9.659 -1.8123 -0.9257 -0.4973
14691SOL    HW247479   9.934   1.632   9.544  3.0367 -2.2839 -1.3517
14692SOL     OW47480   5.254   3.659   9.171  0.4360  0.1555 -0.6491
14692SOL    HW147481   5.234   3.603   9.246  1.3074 -2.2483 -2.1362
14692SOL    HW247482   5.195   3.630   9.102  0.6803  1.3115 -1.3666
14693SOL     OW47483   0.087   2.789   2.243  0.0117  0.4562 -0.7191
14693SOL    HW147484   0.139   2.866   2.267 -1.1654  0.9020  0.4632
14693SOL    HW247485   0.151   2.719   2.232  1.0252  1.4302 -1.0853
14694SOL     OW47486   0.192   8.002   3.315  0.0331 -0.2113 -0.1335
14694SOL    HW147487   0.287   8.004   3.330 -0.2311 -0.1032  1.6475
14694SOL    HW247488   0.167   8.094   3.309 -0.0707 -0.2089  0.2688
14695SOL     OW47489   0.069   4.495   6.839 -0.0994 -0.0453 -0.1254
14695SOL    HW147490  -0.002   4.556   6.862 -0.1357  0.8233 -2.4309
14695SOL    HW247491   0.149   4.541   6.865 -0.3525 -1.0641  2.5653
14696SOL     OW47492   5.541   0.183   6.042  0.5645  0.0730 -0.2540
14696SOL    HW147493   5.526   0.254   5.980  0.6691 -0.3515 -0.7760
14696SOL    HW247494   5.634   0.189   6.063  0.9801 -0.9970 -1.6823
14697SOL     OW47495   0.563   1.148   4.299 -0.1946  0.3907 -0.1410
14697SOL    HW147496   0.487   1.136   4.242 -1.8992  0.1196  2.1008
14697SOL    HW247497   0.623   1.077   4.276 -1.2257 -0.2033 -1.0091
14698SOL     OW47498   4.770   3.844   9.234  0.2122  0.0027  0.0375
14698SOL    HW147499   4.747   3.755   9.207  0.2835 -0.5566  1.7541
14698SOL    HW247500   4.784   3.838   9.328 -1.5774  2.1953  0.5070
14699SOL     OW47501   8.274   7.877   1.013  0.2183 -0.1481  0.2520
14699SOL    HW147502   8.346   7.926   0.973  0.3817 -0.5040  0.1133
14699SOL    HW247503   8.249   7.929   1.090 -0.3019  0.6998 -0.4744
14700SOL     OW47504   3.466   0.423   4.885 -0.0412  0.4201  0.0795
14700SOL    HW147505   3.552   0.466   4.887 -0.8219  2.1407 -1.3472
14700SOL    HW247506   3.478   0.347   4.829  0.6312  0.4423  0.1882
14701SOL     OW47507   6.925   6.285   3.169 -0.0382  0.2878 -0.5035
14701SOL    HW147508   6.911   6.276   3.075  0.8826 -0.6418 -0.5601
14701SOL    HW247509   6.883   6.207   3.207  0.9084 -0.1237 -0.2853
14702SOL     OW47510   5.042   7.725   5.254 -0.4502  0.5749 -0.1872
14702SOL    HW147511   4.952   7.695   5.272 -0.3740  0.8972  0.7848
14702SOL    HW247512   5.032   7.795   5.190 -0.7670 -0.4033 -1.2308
14703SOL     OW47513   9.862   4.908   5.787  0.1059  0.2337  0.1320
14703SOL    HW147514   9.874   4.873   5.698 -0.5490  0.2858  0.0170
14703SOL    HW247515   9.772   4.942   5.786  0.6768  1.7643  0.2861
14704SOL     OW47516   2.317   2.803  10.738  0.5328  0.1558 -0.2601
14704SOL    HW147517   2.397   2.795  10.791  0.6656  0.9812 -0.3196
14704SOL    HW247518   2.248   2.767  10.794  0.9284 -0.4254 -0.1478
14705SOL     OW47519   5.813   7.849   5.909 -0.3768 -0.1556  0.7351
14705SOL    HW147520   5.764   7.904   5.971 -0.4370  1.7317 -0.9516
14705SOL    HW247521   5.745   7.809   5.855 -0.1873  0.9706 -0.3685
14706SOL     OW47522   0.266   2.757   6.178 -0.3389 -0.0871  0.2212
14706SOL    HW147523   0.350   2.740   6.221 -2.1123 -3.2511  2.6352
14706SOL    HW247524   0.253   2.682   6.120 -0.3051  1.6817 -2.0954
14707SOL     OW47525   3.439   4.780   3.474  0.3384 -0.3987  0.1092
14707SOL    HW147526   3.478   4.846   3.417  0.0983  0.5634  1.0493
14707SOL    HW247527   3.345   4.791   3.463  0.2913 -0.2849  0.5881
14708SOL     OW47528   9.966   5.952   6.501  0.5994 -0.2164  0.0704
14708SOL    HW147529   9.966   5.931   6.408 -0.7712 -1.6107  0.3673
14708SOL    HW247530   9.875   5.969   6.523  1.0849  1.4537  0.8786
14709SOL     OW47531   7.918   6.930  10.552  0.1203 -0.3948 -0.2353
14709SOL    HW147532   7.885   6.869  10.486 -0.9735  0.7385 -0.7609
14709SOL    HW247533   7.876   6.903  10.633  0.5812 -1.0806 -0.2164
14710SOL     OW47534   5.598   1.739  10.175 -0.2866  0.3309  0.6422
14710SOL    HW147535   5.637   1.779  10.253  1.5662 -1.9832  0.9547
14710SOL    HW247536   5.518   1.698  10.207  0.1304 -0.0541  1.2075
14711SOL     OW47537   6.610   7.907   6.712  0.5236  0.7403 -0.0399
14711SOL    HW147538   6.571   7.872   6.792  0.6202  0.1302 -0.2499
14711SOL    HW247539   6.535   7.940   6.662  0.4611  1.1013  0.2931
14712SOL     OW47540   5.266   6.399   7.754 -0.3042  0.4878  0.3195
14712SOL    HW147541   5.246   6.484   7.795 -2.0005  0.7517 -1.0065
14712SOL    HW247542   5.341   6.418   7.697  1.0500  0.4690  2.0602
14713SOL     OW47543   1.325   5.876  10.890  0.6974 -0.2992 -0.4042
14713SOL    HW147544   1.317   5.948  10.953  0.0810 -0.2691 -0.5151
14713SOL    HW247545   1.254   5.890  10.828  0.5517 -1.0187 -0.4112
14714SOL     OW47546   9.702   5.935   9.282 -0.4172  0.6346  0.1546
14714SOL    HW147547   9.773   5.917   9.343 -0.3258  1.6052  0.3406
14714SOL    HW247548   9.668   5.849   9.259  1.4762  0.0944 -0.7252
14715SOL     OW47549  10.452   2.616  10.780 -0.0420  0.4432 -0.3002
14715SOL    HW147550  10.544   2.622  10.804  0.5138 -0.7159 -2.0297
14715SOL    HW247551  10.444   2.666  10.699 -0.4184 -1.3588 -1.4192
14716SOL     OW47552  10.314   2.092   1.423  0.4096  0.4207  0.4319
14716SOL    HW147553  10.334   1.999   1.416  0.8427  0.4223  1.5460
14716SOL    HW247554  10.306   2.122   1.332 -0.5609 -0.8692  0.0817
14717SOL     OW47555  10.225   4.683  10.420 -0.0745  0.2983  0.0909
14717SOL    HW147556  10.234   4.761  10.473  0.3005  0.8167 -0.7169
14717SOL    HW247557  10.132   4.679  10.398  0.3650  2.2670 -2.4258
14718SOL     OW47558   4.400   5.069   9.406 -0.1863 -0.2801  0.4599
14718SOL    HW147559   4.376   5.085   9.498 -0.6887 -2.0083  0.6340
14718SOL    HW247560   4.329   5.110   9.356  0.0748  0.6430  0.8233
14719SOL     OW47561   9.206   1.396   0.571 -0.3823 -0.3415 -0.4256
14719SOL    HW147562   9.255   1.461   0.520 -0.9302 -0.2600 -0.8456
14719SOL    HW247563   9.227   1.416   0.662  4.6521 -3.5441 -0.6447
14720SOL     OW47564   6.676  10.779   3.372 -0.4381  0.2893 -0.1565
14720SOL    HW147565   6.731  10.841   3.420 -0.6273  0.5924 -0.3317
14720SOL    HW247566   6.699  10.792   3.280  0.0066 -0.3729 -0.1436
14721SOL     OW47567   1.723   3.749   0.085  0.2817 -0.4852  0.4217
14721SOL    HW147568   1.642   3.798   0.102 -0.5642 -1.5252 -0.5067
14721SOL    HW247569   1.694   3.671   0.037  1.6593 -1.6118  1.3672
14722SOL     OW47570   4.590   2.708   1.807 -0.5103 -0.1765 -0.2261
14722SOL    HW147571   4.541   2.647   1.751 -0.3368  0.2621 -0.8534
14722SOL    HW247572   4.527   2.777   1.827 -0.1685  0.3693 -1.0035
14723SOL     OW47573   3.705   9.544   5.856  0.1814 -0.0878  0.0218
14723SOL    HW147574   3.701   9.596   5.936  0.2290  1.2436 -0.8260
14723SOL    HW247575   3.798   9.520   5.848  0.4177  0.9481 -0.3680
14724SOL     OW47576   2.360  10.948  10.622  0.2553 -0.4375 -0.6307
14724SOL    HW147577   2.276  10.919  10.587  0.3262 -0.8379 -0.4719
14724SOL    HW247578   2.421  10.876  10.603  0.1098 -1.0401  1.0149
14725SOL     OW47579   6.624   5.488   5.463  0.0533  0.4536  0.5079
14725SOL    HW147580   6.592   5.403   5.492 -0.3731  0.7671  0.9751
14725SOL    HW247581   6.632   5.480   5.368 -1.1580  0.2665  0.4081
14726SOL     OW47582  10.891   2.003  10.726  0.5167 -0.2391  0.5503
14726SOL    HW147583  10.940   1.940  10.779  1.2847 -0.1431 -0.0377
14726SOL    HW247584  10.931   2.087  10.746  1.4891 -0.3309 -0.9502
14727SOL     OW47585   2.539   0.896   7.754  0.1789  0.2916 -0.1926
14727SOL    HW147586   2.465   0.883   7.813  1.0047  0.1883  0.8301
14727SOL    HW247587   2.613   0.852   7.797  0.8197  0.3322 -1.2293
14728SOL     OW47588   3.399   6.361  10.208 -0.0296 -0.3653 -0.1170
14728SOL    HW147589   3.328   6.406  10.162  1.0643  1.7908  0.2223
14728SOL    HW247590   3.468   6.352  10.142  0.7742  0.9300  0.5095
14729SOL     OW47591   0.449  10.481   6.928  0.1962 -0.0246 -0.6781
14729SOL    HW147592   0.481  10.484   7.018  0.1612  2.3448 -0.7132
14729SOL    HW247593   0.388  10.554   6.921 -0.4000 -0.6424 -2.4147
14730SOL     OW47594   1.376   2.478   8.393 -0.2070 -0.2472  0.1183
14730SOL    HW147595   1.470   2.471   8.414  0.1130  2.1670 -0.3943
14730SOL    HW247596   1.339   2.529   8.466 -1.2853 -1.8487  0.7155
14731SOL     OW47597   5.556   9.251   0.110  0.1112  0.0597  0.6334
14731SOL    HW147598   5.638   9.202   0.102  0.7165  1.0500  0.8088
14731SOL    HW247599   5.488   9.185   0.095  0.9756 -0.3637 -1.7260
14732SOL     OW47600   7.709   1.228   0.020 -0.0361 -0.1085  0.4361
14732SOL    HW147601   7.661   1.145   0.019  0.8206 -0.6072 -0.5822
14732SOL    HW247602   7.645   1.293  -0.010 -1.1182 -0.1480  2.6131
14733SOL     OW47603   0.405  10.608   4.691  0.2674  0.4607 -0.2571
14733SOL    HW147604   0.315  10.580   4.707  0.6056 -0.3348  0.2504
14733SOL    HW247605   0.449  10.597   4.775  0.8061  0.9941 -0.4633
14734SOL     OW47606   4.490   7.191  10.082 -0.2725  0.0415 -0.2722
14734SOL    HW147607   4.536   7.118  10.039 -1.9070 -0.7747 -0.6724
14734SOL    HW247608   4.527   7.269  10.041  0.6880 -0.5995 -0.6583
14735SOL     OW47609   1.611   3.660   9.494 -0.0737  0.5495 -0.3497
14735SOL    HW147610   1.613   3.753   9.515 -0.5339  1.0065 -2.2316
14735SOL    HW247611   1.546   3.653   9.424  0.2958 -1.1162 -0.5445
14736SOL     OW47612   3.456  10.426   1.838 -0.2143 -0.3300  0.0032
14736SOL    HW147613   3.377  10.445   1.889 -0.7508 -1.1218 -0.4991
14736SOL    HW247614   3.520  10.398   1.903 -0.8003 -1.0565  0.2834
14737SOL     OW47615   1.725   9.917   3.403 -0.0716 -0.1217  0.1129
14737SOL    HW147616   1.717   9.855   3.475  0.1469  0.7699  0.9241
14737SOL    HW247617   1.819   9.934   3.396 -0.3048  2.3259  1.8681
14738SOL     OW47618   6.916   9.485  10.175  0.2141  0.1729 -0.4038
14738SOL    HW147619   6.912   9.566  10.227 -0.7156 -0.5997  0.7665
14738SOL    HW247620   6.848   9.497  10.108 -0.5297  0.0130  0.3077
14739SOL     OW47621   6.567   5.124   5.258 -0.6752  0.2300 -0.1603
14739SOL    HW147622   6.529   5.047   5.215 -1.3658  0.8431 -0.6607
14739SOL    HW247623   6.660   5.103   5.268 -1.1416 -1.2879  1.0776
14740SOL     OW47624   2.020  10.528   2.659 -0.2014 -0.4681  0.6780
14740SOL    HW147625   1.985  10.612   2.628 -0.3879  0.3021  2.8850
14740SOL    HW247626   2.003  10.467   2.587 -0.4658  1.2824 -0.7801
14741SOL     OW47627   7.233   3.261   8.411 -0.1808 -0.5225 -0.2804
14741SOL    HW147628   7.272   3.310   8.483 -0.1136  0.1839 -0.7940
14741SOL    HW247629   7.239   3.169   8.438  2.8270 -0.5306 -0.8317
14742SOL     OW47630   3.804   4.960   7.556  0.5706 -0.1585  0.2310
14742SOL    HW147631   3.886   5.010   7.551  0.0737  0.5576 -1.0419
14742SOL    HW247632   3.814   4.905   7.633  2.3452 -0.2363 -0.0424
14743SOL     OW47633   2.537   6.718   9.557 -0.3281  0.1042  0.2152
14743SOL    HW147634   2.583   6.634   9.557 -0.1421  0.2061  0.6692
14743SOL    HW247635   2.582   6.769   9.490  0.7860  0.5096  1.2554
14744SOL     OW47636   1.345   8.401   7.630 -0.2290  0.0297 -0.4764
14744SOL    HW147637   1.407   8.359   7.571 -1.1108 -1.0855 -0.6181
14744SOL    HW247638   1.345   8.345   7.708  1.3865  1.8146  0.8641
14745SOL     OW47639   4.255   2.200   1.560 -0.3618 -0.0949 -0.3938
14745SOL    HW147640   4.289   2.111   1.566  1.0584  0.5471  1.7071
14745SOL    HW247641   4.286   2.243   1.640 -1.8295  2.0104 -0.9077
14746SOL     OW47642   5.237   3.272   5.423 -0.0668  0.3375 -0.8230
14746SOL    HW147643   5.272   3.236   5.505 -0.2545  0.7608 -0.5569
14746SOL    HW247644   5.274   3.216   5.355  0.4816  0.2871 -0.4852
14747SOL     OW47645  10.843  10.011   7.285 -0.6274 -0.4892  0.0504
14747SOL    HW147646  10.815   9.929   7.326 -0.9001 -1.2262 -1.5871
14747SOL    HW247647  10.938  10.004   7.279 -0.5702 -0.3064  0.6902
14748SOL     OW47648   5.152   4.392   9.941 -0.5679  0.0420  0.1261
14748SOL    HW147649   5.113   4.332   9.878  1.5253 -0.0306 -1.1316
14748SOL    HW247650   5.097   4.384  10.019 -0.3392 -3.4633 -0.0218
14749SOL     OW47651   4.912   8.712   0.061 -0.3718  0.0516  0.0659
14749SOL    HW147652   4.829   8.726   0.107  0.0539  2.5354  0.1302
14749SOL    HW247653   4.927   8.617   0.069 -2.7209 -0.3118  0.8357
14750SOL     OW47654   1.932   1.797   7.122  0.1590 -0.3021  0.4485
14750SOL    HW147655   1.949   1.708   7.153 -1.0407 -0.8803 -0.4678
14750SOL    HW247656   1.952   1.853   7.196 -0.3403 -1.4538  1.4805
14751SOL     OW47657   4.569   6.252   3.141  0.3958 -0.2508 -0.9799
14751SOL    HW147658   4.538   6.216   3.058 -0.5597  0.9994 -1.1712
14751SOL    HW247659   4.496   6.305   3.173  1.0473 -0.1031  0.2880
14752SOL     OW47660   8.472   6.808   8.346  0.5351  0.0673 -0.3256
14752SOL    HW147661   8.522   6.727   8.329 -0.1867 -0.5726  0.5824
14752SOL    HW247662   8.538   6.877   8.343  1.2223 -0.5897 -0.7457
14753SOL     OW47663   4.788   8.553   4.946  0.1061 -0.0338  0.0817
14753SOL    HW147664   4.713   8.500   4.973  0.5715 -0.6308  0.2265
14753SOL    HW247665   4.860   8.490   4.938  0.3081  0.3411 -1.2203
14754SOL     OW47666   0.647   6.553   2.313 -0.4383 -0.0779  0.4637
14754SOL    HW147667   0.637   6.463   2.344 -2.3352  0.0832  0.3828
14754SOL    HW247668   0.722   6.550   2.254 -2.3543 -2.2515 -1.9805
14755SOL     OW47669   2.302   4.351   3.353 -0.0427 -0.2189  0.1930
14755SOL    HW147670   2.256   4.408   3.414 -1.3588  0.6584 -1.5479
14755SOL    HW247671   2.239   4.281   3.333 -1.4493  1.9744 -3.6127
14756SOL     OW47672   6.226   0.660   5.679  0.2026 -0.4878 -0.3567
14756SOL    HW147673   6.311   0.690   5.645 -0.2627  0.4429 -0.7249
14756SOL    HW247674   6.234   0.565   5.682  1.0451 -0.4489 -0.9738
14757SOL     OW47675   0.359   4.080   2.543 -0.4485  0.2004 -0.3208
14757SOL    HW147676   0.342   4.171   2.568  0.5526  0.6483 -1.2822
14757SOL    HW247677   0.273   4.038   2.549 -0.9088  1.1877  0.1779
14758SOL     OW47678   2.540   8.339   3.058  0.1548 -0.2868  0.1511
14758SOL    HW147679   2.571   8.296   2.979 -1.3042  0.2726 -0.7541
14758SOL    HW247680   2.594   8.417   3.066  1.2715 -1.0891  0.5201
14759SOL     OW47681   7.825   6.626   8.404  0.2678  0.4366 -0.2076
14759SOL    HW147682   7.914   6.661   8.394  0.8177 -0.4645  1.2646
14759SOL    HW247683   7.768   6.693   8.365  1.6467  0.6037 -1.9643
14760SOL     OW47684   1.296   5.516   1.788 -0.0806 -0.0903  0.2293
14760SOL    HW147685   1.286   5.529   1.694 -0.3229 -2.9388 -0.1666
14760SOL    HW247686   1.224   5.459   1.813  1.5153 -1.5421  1.6500
14761SOL     OW47687   7.071   4.429   5.937  0.6905 -0.1885 -0.0735
14761SOL    HW147688   7.166   4.419   5.935  0.6616 -0.4129 -0.3616
14761SOL    HW247689   7.038   4.351   5.894  0.3258 -0.8219  1.3342
14762SOL     OW47690   4.461   8.842   7.232  0.2843 -0.6543  0.4172
14762SOL    HW147691   4.371   8.831   7.261  0.5430 -3.0066  0.4116
14762SOL    HW247692   4.461   8.925   7.183 -1.5633  0.0076  1.5068
14763SOL     OW47693   9.061   0.695   2.919  0.2205  0.8632 -0.1102
14763SOL    HW147694   9.128   0.695   2.988  0.1421  1.1889 -0.0327
14763SOL    HW247695   9.069   0.781   2.878  0.6464  0.4576 -0.8854
14764SOL     OW47696   1.921   7.838   2.668  0.4147 -0.4606  0.3847
14764SOL    HW147697   1.868   7.763   2.640 -0.1912 -0.0539  0.4468
14764SOL    HW247698   1.874   7.914   2.635  1.3035 -0.1255 -0.1331
14765SOL     OW47699  10.809   3.430   9.740 -0.0540 -0.0085  0.4813
14765SOL    HW147700  10.791   3.501   9.678 -1.7529 -1.4558 -0.7315
14765SOL    HW247701  10.903   3.436   9.756  0.1107  1.4850 -0.9025
14766SOL     OW47702   7.604   4.123   2.134  0.2080 -0.1878 -0.6843
14766SOL    HW147703   7.695   4.146   2.114  0.3542 -1.3297 -1.3870
14766SOL    HW247704   7.552   4.191   2.093  0.7521  0.5520 -0.1628
14767SOL     OW47705   3.618   0.902   6.259  0.1452  0.3522 -0.1427
14767SOL    HW147706   3.709   0.875   6.270 -0.4644 -1.4896  0.6642
14767SOL    HW247707   3.593   0.936   6.345 -0.1829  0.0314 -0.1100
14768SOL     OW47708   3.355   6.099   3.377 -0.0958 -0.0272  0.2799
14768SOL    HW147709   3.284   6.046   3.413 -0.3878  0.8757  1.0854
14768SOL    HW247710   3.330   6.189   3.400  1.0580  0.3327  0.1305
14769SOL     OW47711   8.061   2.464  10.475 -0.3864  0.8930 -0.0128
14769SOL    HW147712   8.137   2.502  10.518 -0.1520  2.6297 -1.9360
14769SOL    HW247713   8.006   2.538  10.452 -2.3317 -0.2902  0.6648
14770SOL     OW47714   7.697   1.916   6.830 -0.4854 -0.5524 -0.5575
14770SOL    HW147715   7.646   1.950   6.757 -0.1969  0.3323 -0.3460
14770SOL    HW247716   7.787   1.912   6.797 -0.1085  1.2043  0.2000
14771SOL     OW47717   8.447   2.468   2.511 -0.1081 -0.1523 -0.0799
14771SOL    HW147718   8.434   2.486   2.418  1.2239 -2.3814 -0.7280
14771SOL    HW247719   8.447   2.555   2.552 -2.4907  0.7619 -1.8761
14772SOL     OW47720   5.686   3.861   0.493  0.2583 -0.0062  0.4514
14772SOL    HW147721   5.665   3.952   0.513  1.6119  0.8016 -1.5915
14772SOL    HW247722   5.781   3.855   0.506  0.4325 -0.6787 -1.0489
14773SOL     OW47723   4.677   4.238   4.621  0.8816  0.5123 -0.0203
14773SOL    HW147724   4.591   4.239   4.662  0.2149  1.2541 -1.3824
14773SOL    HW247725   4.685   4.150   4.584  1.2091  0.0622  1.1072
14774SOL     OW47726   1.641   0.722   6.028 -0.0646 -0.0632  0.1129
14774SOL    HW147727   1.598   0.759   6.106 -1.6472  0.5552 -1.0159
14774SOL    HW247728   1.570   0.710   5.966  1.4645  1.3206 -1.9630
14775SOL     OW47729   5.409   1.286   3.942  0.1324 -0.9958  0.1942
14775SOL    HW147730   5.457   1.336   3.876 -0.8551 -0.9810 -0.5208
14775SOL    HW247731   5.463   1.208   3.956  0.8032 -0.5658  0.0401
14776SOL     OW47732   7.753   5.530   9.934 -0.1463  0.6043 -0.3715
14776SOL    HW147733   7.701   5.610   9.929 -0.3170  0.5092 -0.1560
14776SOL    HW247734   7.702   5.472   9.992  0.1284  0.4576 -0.2767
14777SOL     OW47735   0.600   9.956   0.228 -0.0000  0.3667 -0.4269
14777SOL    HW147736   0.567  10.038   0.190  0.7582  1.2878  0.8771
14777SOL    HW247737   0.608   9.975   0.321  1.3545 -0.8109 -0.2961
14778SOL     OW47738   8.051  10.693   0.485  0.2598  0.3512 -0.3548
14778SOL    HW147739   7.971  10.676   0.436  0.6804 -1.2775 -0.4801
14778SOL    HW247740   8.039  10.781   0.520 -1.2489  0.4153 -1.0171
14779SOL     OW47741   5.158   6.873   3.979  0.0676 -0.1107  0.1126
14779SOL    HW147742   5.192   6.901   4.065 -1.0523  0.4748  0.3717
14779SOL    HW247743   5.202   6.790   3.963  0.1999 -0.2971  1.3279
14780SOL     OW47744   2.661   2.562   5.337 -0.3246  0.2023  0.6477
14780SOL    HW147745   2.620   2.591   5.419  0.6431 -1.2841  1.6988
14780SOL    HW247746   2.590   2.525   5.286 -1.3402  3.1619 -0.1587
14781SOL     OW47747   2.090   0.723   0.074  0.6086 -0.4180  0.5553
14781SOL    HW147748   2.141   0.711  -0.006  0.2039 -0.4751  0.3040
14781SOL    HW247749   2.011   0.770   0.045  0.3079 -0.7272  0.8629
14782SOL     OW47750   2.417   4.818  10.510 -0.1577  0.1276 -0.0813
14782SOL    HW147751   2.466   4.899  10.525  0.3477 -0.0149 -0.9134
14782SOL    HW247752   2.347   4.843  10.450  0.9153 -0.3568 -1.5602
14783SOL     OW47753   5.444  10.060   4.883 -1.2423 -0.0907 -0.2721
14783SOL    HW147754   5.470  10.014   4.963 -2.0701 -1.3154 -0.6856
14783SOL    HW247755   5.492  10.143   4.885 -0.0190 -0.8207  0.6791
14784SOL     OW47756   4.558  10.394   5.093  0.2682  0.4154 -0.7137
14784SOL    HW147757   4.623  10.456   5.060  1.2928 -1.0290 -1.5269
14784SOL    HW247758   4.563  10.320   5.031 -0.5302 -0.6907  0.5181
14785SOL     OW47759   3.972   6.731   1.149  0.1638 -0.1816 -0.3265
14785SOL    HW147760   3.911   6.729   1.222  0.7498 -0.2609  0.1625
14785SOL    HW247761   4.055   6.701   1.186  0.2777 -0.9553 -1.1986
14786SOL     OW47762   8.753   4.919   1.098 -0.2419 -0.1904  0.1545
14786SOL    HW147763   8.689   4.962   1.041  0.3810 -0.0963 -0.4873
14786SOL    HW247764   8.751   4.970   1.179 -0.6552  0.0819 -0.0261
14787SOL     OW47765   1.789  10.939   9.265  0.0544 -0.8479 -0.5200
14787SOL    HW147766   1.730  11.012   9.283 -0.3157 -0.4570 -3.2184
14787SOL    HW247767   1.827  10.918   9.351  0.0698  2.3847  0.3376
14788SOL     OW47768  10.131   7.989   1.865  0.6690  0.0721 -0.0340
14788SOL    HW147769  10.221   7.959   1.862  0.8488  0.7426 -1.7664
14788SOL    HW247770  10.116   8.029   1.779 -0.5025  2.1987  1.1346
14789SOL     OW47771   2.824   0.084   0.716 -0.1581  0.0269  0.2797
14789SOL    HW147772   2.767   0.007   0.715  2.4219 -1.9397  0.3469
14789SOL    HW247773   2.796   0.135   0.640 -0.3223 -2.1937 -1.2068
14790SOL     OW47774   0.208   9.456   7.881  0.5589 -0.1140 -0.2685
14790SOL    HW147775   0.205   9.435   7.788 -0.5803  1.4349 -0.5918
14790SOL    HW247776   0.271   9.528   7.887  0.3730  0.0191  0.1161
14791SOL     OW47777   1.314   7.518   5.988  0.2091  0.0460 -0.4619
14791SOL    HW147778   1.406   7.537   6.002  0.0228  0.3022  0.4318
14791SOL    HW247779   1.294   7.448   6.051  0.2282 -1.2644 -1.8669
14792SOL     OW47780   5.314   7.069   6.824  0.1840  0.4848  0.9632
14792SOL    HW147781   5.310   6.975   6.840 -1.2300  0.6676  1.7682
14792SOL    HW247782   5.272   7.108   6.900 -1.8176  1.6106 -0.6593
14793SOL     OW47783   5.239  10.621   0.434 -0.4776 -0.3669  0.3911
14793SOL    HW147784   5.283  10.591   0.513 -0.1945 -0.6582  0.1217
14793SOL    HW247785   5.235  10.717   0.444  0.6368 -0.2985  0.1931
14794SOL     OW47786   0.134   1.179   8.652 -0.2321  0.0010  0.2198
14794SOL    HW147787   0.191   1.241   8.609 -0.2094 -0.0220  0.2158
14794SOL    HW247788   0.157   1.184   8.745  2.8792 -3.2174 -0.2797
14795SOL     OW47789   7.732   7.460   9.581 -0.0741 -0.2065  0.4293
14795SOL    HW147790   7.642   7.491   9.570  0.3937  0.8946 -0.3936
14795SOL    HW247791   7.772   7.524   9.641  0.4319 -0.1422  0.0252
14796SOL     OW47792   9.254  10.673   4.394  0.4359  0.1731  0.4705
14796SOL    HW147793   9.158  10.679   4.389  0.4917  0.1830 -0.6438
14796SOL    HW247794   9.285  10.726   4.321  1.2384 -1.5366 -0.4577
14797SOL     OW47795  10.115   1.431   6.365 -0.7933  0.0422 -0.0708
14797SOL    HW147796  10.106   1.524   6.385  0.8717  0.1903  0.0364
14797SOL    HW247797  10.112   1.388   6.451 -0.7397  0.0670 -0.0566
14798SOL     OW47798   4.292   5.516   4.274  0.4440  0.3128  0.1827
14798SOL    HW147799   4.240   5.471   4.208  0.9233  0.0615 -0.0251
14798SOL    HW247800   4.334   5.445   4.323  0.8270  0.5234  0.1560
14799SOL     OW47801   5.602   3.300   0.526  0.1281 -0.1233 -0.1264
14799SOL    HW147802   5.625   3.219   0.481  1.8805  0.9108 -1.1460
14799SOL    HW247803   5.562   3.355   0.458 -0.9513 -0.0883  0.5291
14800SOL     OW47804   9.867   4.657   5.991 -0.1694  0.3736  0.3882
14800SOL    HW147805   9.921   4.590   6.034 -1.0466  1.0641  2.6764
14800SOL    HW247806   9.798   4.607   5.948  0.0163 -0.2882  0.8493
14801SOL     OW47807   4.648  10.422   4.278 -0.3224  0.1061  0.2768
14801SOL    HW147808   4.651  10.418   4.373 -1.7347 -2.5927  0.2419
14801SOL    HW247809   4.669  10.514   4.257  0.3860  0.6329  3.1266
14802SOL     OW47810   1.025   5.042   2.049 -0.7413 -0.0783 -0.4722
14802SOL    HW147811   1.008   5.042   2.143  2.2384  2.0676  0.1328
14802SOL    HW247812   0.981   5.120   2.016 -1.1351 -0.4160 -0.7653
14803SOL     OW47813   1.239   8.349   2.714 -0.6588  0.3594 -0.7412
14803SOL    HW147814   1.323   8.389   2.692 -1.4877  2.5288 -0.1174
14803SOL    HW247815   1.249   8.320   2.805 -0.3638  0.0019 -0.8881
14804SOL     OW47816   7.638   4.507   8.695 -0.0788  0.3458  0.0861
14804SOL    HW147817   7.672   4.488   8.783  1.3664  1.2239 -0.2822
14804SOL    HW247818   7.585   4.586   8.707  1.2596  1.2685 -0.1032
14805SOL     OW47819   3.176   5.567   7.420 -0.1773  0.0973 -0.0837
14805SOL    HW147820   3.128   5.623   7.481 -0.5604 -0.0278 -0.2725
14805SOL    HW247821   3.236   5.626   7.375 -0.8747  0.4249 -0.5802
14806SOL     OW47822  10.827  10.316   2.587  0.1290  0.2382  0.5653
14806SOL    HW147823  10.862  10.232   2.558 -0.6616  0.2597 -0.4507
14806SOL    HW247824  10.788  10.355   2.509  1.8465  2.2588  0.6628
14807SOL     OW47825   8.893   5.855   6.341 -0.0314 -0.5735 -0.2732
14807SOL    HW147826   8.822   5.815   6.291 -0.7391 -0.5039  0.6607
14807SOL    HW247827   8.851   5.929   6.386  1.1873  1.0790 -1.7705
14808SOL     OW47828   1.500   5.567   2.362 -0.1510 -0.4629 -1.0375
14808SOL    HW147829   1.520   5.479   2.330  2.2673 -0.4653  0.4357
14808SOL    HW247830   1.526   5.625   2.290  0.5182 -0.7951 -1.0684
14809SOL     OW47831   4.226   5.306   2.157  0.5628  0.4833  1.2517
14809SOL    HW147832   4.292   5.303   2.087 -1.5921 -0.5686 -0.7786
14809SOL    HW247833   4.194   5.396   2.156 -0.6350  0.0591 -0.2671
14810SOL     OW47834   4.588   4.104   2.669  0.5448  0.5838  0.0831
14810SOL    HW147835   4.596   4.193   2.703 -1.4386  1.1190 -0.7373
14810SOL    HW247836   4.645   4.103   2.592  1.0104  0.9770  0.4200
14811SOL     OW47837   7.402   5.796   8.794  0.3523 -0.3346 -0.4478
14811SOL    HW147838   7.468   5.822   8.858  0.8003 -2.0739 -0.1783
14811SOL    HW247839   7.453   5.761   8.721 -0.2346 -0.2868 -0.8817
14812SOL     OW47840   3.834   1.524  10.735  0.1014  0.9120  0.3597
14812SOL    HW147841   3.752   1.571  10.717  0.0154  1.7256  2.7643
14812SOL    HW247842   3.892   1.590  10.773  1.2178 -0.1083  0.4419
14813SOL     OW47843   6.288  10.343   0.320  0.1707  0.2564 -0.2480
14813SOL    HW147844   6.299  10.266   0.263  1.3396  0.0704  0.2085
14813SOL    HW247845   6.285  10.417   0.259 -0.2859 -0.0857 -0.6521
14814SOL     OW47846   2.837   5.062   5.803  0.2513  0.0867 -0.1093
14814SOL    HW147847   2.787   5.117   5.863  0.0867 -0.1122 -0.0674
14814SOL    HW247848   2.876   4.994   5.859  1.1057  0.6220 -0.0373
14815SOL     OW47849   4.037   4.346  10.283  0.1649  0.5346  0.0684
14815SOL    HW147850   4.129   4.355  10.307  0.0646 -0.6093  0.9097
14815SOL    HW247851   4.036   4.276  10.217 -0.1073  0.4929  0.1155
14816SOL     OW47852   2.210   6.894   0.642 -0.4171 -0.1134 -0.0421
14816SOL    HW147853   2.195   6.948   0.719 -1.0248  1.7317 -1.4105
14816SOL    HW247854   2.263   6.948   0.584  1.0990 -1.9549 -0.4074
14817SOL     OW47855  10.504   1.656  10.288  0.0241 -0.3115 -0.6956
14817SOL    HW147856  10.530   1.663  10.196 -0.6901 -0.0413 -0.8873
14817SOL    HW247857  10.410   1.634  10.284  0.3771 -2.0229 -0.0385
14818SOL     OW47858   8.139   3.467   0.921  0.1754 -1.0242  0.0662
14818SOL    HW147859   8.157   3.394   0.979  0.6771 -1.5283 -0.7139
14818SOL    HW247860   8.070   3.435   0.863 -0.2907 -0.5416  0.3491
14819SOL     OW47861   7.706   2.560   4.057  0.1923  0.2698  0.3145
14819SOL    HW147862   7.683   2.470   4.036  1.0685  0.2865 -0.7513
14819SOL    HW247863   7.640   2.613   4.013  1.0196  0.2292 -1.0243
14820SOL     OW47864  10.004   9.913   0.429 -0.0638 -0.5692  0.5718
14820SOL    HW147865  10.094   9.946   0.427 -0.3114  0.0678 -0.2369
14820SOL    HW247866   9.984   9.894   0.337 -1.3074  0.7785  0.5531
14821SOL     OW47867   4.114   3.460   5.727  0.6281  0.4572  0.1444
14821SOL    HW147868   4.031   3.489   5.764  0.1618 -1.7700  0.9283
14821SOL    HW247869   4.095   3.446   5.634 -0.0280 -0.5977  0.4323
14822SOL     OW47870   2.193  10.419   1.236  0.4851 -0.4211  0.5806
14822SOL    HW147871   2.163  10.508   1.257  0.9094 -0.5558  1.7965
14822SOL    HW247872   2.205  10.419   1.141 -2.9211 -0.2191  0.0741
14823SOL     OW47873   6.694   1.683   4.686 -0.4160  0.6157  0.3782
14823SOL    HW147874   6.707   1.589   4.676  0.4438  0.9950 -2.6430
14823SOL    HW247875   6.767   1.712   4.741 -0.4994 -0.4065  1.0418
14824SOL     OW47876   9.754   9.034   6.882 -0.1895 -0.0174 -0.3108
14824SOL    HW147877   9.700   9.083   6.820 -0.4483  1.0283  0.7178
14824SOL    HW247878   9.712   8.948   6.888 -1.6292  0.7269  0.3441
14825SOL     OW47879   4.988  10.525   4.813 -0.2835  0.3109 -0.2142
14825SOL    HW147880   4.929  10.451   4.802 -0.6252  0.2602  1.8751
14825SOL    HW247881   5.075  10.486   4.820 -0.4100  0.1492  0.4124
14826SOL     OW47882   9.745   2.098   3.112 -0.2040 -0.3015 -0.8505
14826SOL    HW147883   9.836   2.127   3.118 -0.1444 -0.7136  0.5790
14826SOL    HW247884   9.700   2.168   3.066  0.5608  0.5954 -0.2543
14827SOL     OW47885   5.585   7.238   2.601 -0.2091 -0.2895 -0.0557
14827SOL    HW147886   5.567   7.245   2.695  1.5227 -1.6212  0.3984
14827SOL    HW247887   5.635   7.157   2.592 -0.2486 -0.1100 -2.1213
14828SOL     OW47888   4.353   2.104   8.553  0.0749 -0.3693  0.1732
14828SOL    HW147889   4.337   2.012   8.571  1.9001 -1.2367 -2.4209
14828SOL    HW247890   4.445   2.117   8.575 -0.7780  1.5279  3.0072
14829SOL     OW47891   7.867   7.125   1.642  0.2354 -0.5051 -0.9162
14829SOL    HW147892   7.819   7.060   1.693 -0.2336  0.2499 -0.3779
14829SOL    HW247893   7.844   7.209   1.683  2.0676 -0.1353 -0.6352
14830SOL     OW47894   4.990   6.885   0.036  0.5306 -0.4106  0.4369
14830SOL    HW147895   4.994   6.893   0.132 -0.7242 -1.6023  0.6117
14830SOL    HW247896   4.913   6.829   0.020  0.8415 -0.3792 -1.2573
14831SOL     OW47897   3.308   0.578   4.755 -0.2118  0.0146 -0.0980
14831SOL    HW147898   3.352   0.519   4.816 -2.6418 -1.2777  0.4725
14831SOL    HW247899   3.252   0.522   4.702 -1.0295  1.5641 -0.9291
14832SOL     OW47900   1.006   7.958   2.939  0.1963  0.0855  0.5883
14832SOL    HW147901   0.977   7.902   3.011  0.6307 -0.4535  0.3457
14832SOL    HW247902   1.049   8.032   2.982  1.3067 -0.7024  0.8689
14833SOL     OW47903   8.190   7.379   8.727 -0.5053  0.2797 -0.5894
14833SOL    HW147904   8.101   7.382   8.693 -0.1972  2.0101 -1.2694
14833SOL    HW247905   8.218   7.470   8.732  0.7213 -0.1503  1.0004
14834SOL     OW47906   7.225   2.370   6.689 -0.2103  1.0574  0.2292
14834SOL    HW147907   7.136   2.374   6.653 -0.1873  0.9179  0.1599
14834SOL    HW247908   7.235   2.280   6.718 -0.5028  1.3602  1.2847
14835SOL     OW47909   5.299   3.938   9.460  0.9828 -0.3646  0.0453
14835SOL    HW147910   5.342   3.958   9.376 -0.9411  2.6023 -0.2994
14835SOL    HW247911   5.345   3.993   9.524  0.3435 -0.2236  0.3825
14836SOL     OW47912   2.408   4.290   4.664 -0.6059 -0.5630  0.3928
14836SOL    HW147913   2.489   4.245   4.687 -0.7904 -1.4811 -0.7200
14836SOL    HW247914   2.362   4.301   4.747  0.1318 -1.0712  0.8707
14837SOL     OW47915  10.063   5.358   6.753 -0.1716  0.0632  0.5947
14837SOL    HW147916   9.987   5.378   6.698 -0.6220 -1.8955  0.4566
14837SOL    HW247917  10.029   5.297   6.819  1.1814 -0.4685  0.8154
14838SOL     OW47918   1.002   9.433   0.418  0.6237 -0.3205 -0.7214
14838SOL    HW147919   0.991   9.461   0.327 -0.2424 -0.4774 -0.6769
14838SOL    HW247920   1.079   9.377   0.417 -0.2309 -1.5110 -1.6447
14839SOL     OW47921   9.937   7.975   6.334  0.3479  0.0807  0.2488
14839SOL    HW147922   9.847   7.970   6.304  0.6775  1.5007 -1.0219
14839SOL    HW247923   9.933   7.948   6.426 -1.2386 -0.5973  0.0026
14840SOL     OW47924   1.417   9.415   1.402  0.3554  0.0195  0.4497
14840SOL    HW147925   1.436   9.359   1.476  0.3968  1.2103  1.3584
14840SOL    HW247926   1.502   9.429   1.360  0.2030 -1.3384 -0.3298
14841SOL     OW47927   6.585  10.282   3.335 -0.4585  0.2410  0.3423
14841SOL    HW147928   6.602  10.354   3.395 -2.3174  0.2031  0.9726
14841SOL    HW247929   6.523  10.226   3.382 -0.6913 -0.6373 -0.9701
14842SOL     OW47930   9.292   3.432   2.237 -0.2455 -0.3646  0.4690
14842SOL    HW147931   9.202   3.414   2.262 -0.9515  1.1606 -0.8198
14842SOL    HW247932   9.329   3.347   2.214 -1.7477 -0.8527 -0.1879
14843SOL     OW47933   7.480   8.268   2.031 -0.1394 -0.4996 -0.5768
14843SOL    HW147934   7.447   8.196   2.085  0.3188 -1.0914 -1.0790
14843SOL    HW247935   7.519   8.225   1.955  2.3482  0.1598  0.3074
14844SOL     OW47936   5.407   1.904   9.106  0.2504  0.3246 -0.0477
14844SOL    HW147937   5.461   1.883   9.182 -0.5008  0.6527  0.5866
14844SOL    HW247938   5.397   1.821   9.059 -1.4046 -0.4479  1.6061
14845SOL     OW47939   7.590   1.419  10.769  0.7442  0.0465  0.2012
14845SOL    HW147940   7.666   1.375  10.731 -1.3263 -2.5940 -1.0728
14845SOL    HW247941   7.596   1.509  10.737  2.5525 -0.4795 -1.0467
14846SOL     OW47942  10.734   4.115  10.569 -0.0650 -0.0502 -0.2353
14846SOL    HW147943  10.783   4.189  10.605  0.9576 -1.5092  1.4831
14846SOL    HW247944  10.652   4.153  10.537  0.5019  1.8390  0.5186
14847SOL     OW47945   9.398  10.754   8.530 -0.6983  0.4382  0.3051
14847SOL    HW147946   9.429  10.844   8.536  0.0550  0.1650  0.7736
14847SOL    HW247947   9.321  10.757   8.474  0.5275  1.0714 -1.3872
14848SOL     OW47948   1.963   3.643   6.579 -0.6204 -0.1134 -0.2346
14848SOL    HW147949   1.988   3.736   6.576  1.8632 -0.7852 -2.3082
14848SOL    HW247950   1.948   3.625   6.672  0.8208  1.8850  0.4189
14849SOL     OW47951  10.922   2.921   5.094  0.5107  0.3061  0.1602
14849SOL    HW147952  10.984   2.850   5.075 -0.6807 -0.8520  0.5156
14849SOL    HW247953  10.851   2.908   5.030  0.2300  1.1231  0.2974
14850SOL     OW47954   7.262   5.139   3.022 -0.0008 -0.1779  0.4366
14850SOL    HW147955   7.238   5.069   2.961  0.7432 -0.2256  0.1969
14850SOL    HW247956   7.351   5.118   3.049 -0.4636 -0.3804  1.8689
14851SOL     OW47957   6.644   7.334   4.735 -0.5483 -0.1096  0.0195
14851SOL    HW147958   6.686   7.418   4.756 -0.8637 -0.2148  1.1295
14851SOL    HW247959   6.550   7.351   4.743 -0.6294 -0.4491 -0.1963
14852SOL     OW47960   1.159   2.316   1.847  0.5160  0.2408 -1.0073
14852SOL    HW147961   1.164   2.377   1.921 -1.0323  0.4059 -1.0062
14852SOL    HW247962   1.161   2.372   1.770 -0.5708  0.2886 -1.0135
14853SOL     OW47963   1.199   6.484   3.653  0.3702  0.0425 -0.0983
14853SOL    HW147964   1.114   6.522   3.677  0.4266 -0.5108  1.0222
14853SOL    HW247965   1.208   6.409   3.711  1.0850 -0.6111 -1.0523
14854SOL     OW47966   6.350   3.852   5.962 -0.0831  0.6067  0.0560
14854SOL    HW147967   6.333   3.767   6.003 -0.5068  1.3052  1.3453
14854SOL    HW247968   6.273   3.867   5.907 -0.2075  0.3569  0.1618
14855SOL     OW47969   6.482   9.185   0.990  0.2094 -0.4230  0.5048
14855SOL    HW147970   6.412   9.204   1.053 -0.0009  1.5270 -0.2787
14855SOL    HW247971   6.451   9.223   0.908  2.2410  0.5651  0.1711
14856SOL     OW47972   1.920   5.572   6.898  0.2781  0.5203 -0.1876
14856SOL    HW147973   1.909   5.511   6.971  0.2205 -0.4229 -0.9826
14856SOL    HW247974   1.968   5.522   6.832  1.5734  1.8079 -0.2572
14857SOL     OW47975  10.087   0.178   1.547  0.5783  0.2883 -0.0964
14857SOL    HW147976   9.992   0.170   1.539  0.8052 -0.5191 -2.5179
14857SOL    HW247977  10.102   0.273   1.548 -0.2328  0.4224  0.0424
14858SOL     OW47978   4.550   0.550   0.805  0.0168  0.0033  0.1082
14858SOL    HW147979   4.559   0.461   0.771  0.9313 -0.1064  0.6304
14858SOL    HW247980   4.489   0.541   0.878 -0.8827  0.0189 -0.6272
14859SOL     OW47981   2.685   5.520   8.919 -0.4784  0.4190 -0.1944
14859SOL    HW147982   2.710   5.558   9.004  0.8919 -0.8701 -0.0126
14859SOL    HW247983   2.730   5.574   8.855  0.0128  0.2232 -0.0161
14860SOL     OW47984   1.604   7.160   0.425 -0.1554 -0.3037 -0.1629
14860SOL    HW147985   1.582   7.076   0.384 -0.2132  0.7530 -2.3658
14860SOL    HW247986   1.631   7.216   0.352 -0.7088  1.7876  1.1928
14861SOL     OW47987   3.386   6.505   8.421  0.1092  1.0054  0.5099
14861SOL    HW147988   3.437   6.438   8.377 -0.7361  0.6487  0.0459
14861SOL    HW247989   3.300   6.465   8.433 -0.5053  2.1135 -0.0882
14862SOL     OW47990   5.586   8.274   3.065  0.8468 -0.0578 -0.2057
14862SOL    HW147991   5.638   8.257   3.144  2.2938 -0.4258 -1.2122
14862SOL    HW247992   5.568   8.187   3.029  2.2251  0.1903 -1.5466
14863SOL     OW47993   2.532   7.496   1.780 -0.1036 -0.6211 -0.3346
14863SOL    HW147994   2.437   7.486   1.770 -0.1811 -0.2663  0.0770
14863SOL    HW247995   2.544   7.588   1.804  0.2786 -0.8872  0.4864
14864SOL     OW47996   0.140  10.540   5.268  0.2508 -0.0338 -0.7948
14864SOL    HW147997   0.144  10.444   5.266 -0.1697 -0.0247 -2.5228
14864SOL    HW247998   0.056  10.561   5.228  0.4552  1.0793 -0.6504
14865SOL     OW47999   2.955   2.265   6.009 -0.1667  0.2110  0.5196
14865SOL    HW148000   3.009   2.191   6.037 -0.2622 -0.1674 -0.2928
14865SOL    HW248001   2.870   2.226   5.988 -0.1373  0.5069 -0.1620
14866SOL     OW48002   4.241   6.752   4.261 -0.5674  0.1625  0.4556
14866SOL    HW148003   4.159   6.720   4.224 -0.3616  1.8627 -1.5501
14866SOL    HW248004   4.269   6.683   4.322 -1.4964 -2.1991 -1.7178
14867SOL     OW48005   1.776   3.331   7.678  0.0763 -0.3033  0.4299
14867SOL    HW148006   1.846   3.332   7.614 -1.8420  0.4304 -1.7394
14867SOL    HW248007   1.801   3.398   7.742  0.5211  1.1860 -1.2590
14868SOL     OW48008  10.264   6.158   0.597  0.2715 -0.1051 -0.6020
14868SOL    HW148009  10.187   6.131   0.546 -0.0154 -0.5910  0.0871
14868SOL    HW248010  10.337   6.112   0.555 -0.2203 -2.0318  0.5944
14869SOL     OW48011  10.906   0.679   8.838 -0.6237  0.4245  0.1188
14869SOL    HW148012  10.926   0.593   8.874  1.0798  1.3898  1.6062
14869SOL    HW248013  10.951   0.681   8.753 -1.1567 -0.3585 -0.1812
14870SOL     OW48014   4.238   2.413   2.881 -0.0525 -0.2018  0.0053
14870SOL    HW148015   4.174   2.458   2.937  0.5517  1.2437 -0.4420
14870SOL    HW248016   4.319   2.414   2.931  0.2283  0.1656 -0.4527
14871SOL     OW48017   7.971  10.824   5.575 -0.2481  0.1054  0.5704
14871SOL    HW148018   7.925  10.800   5.656 -0.3470  0.0102  0.4880
14871SOL    HW248019   7.926  10.774   5.507  0.4826 -0.6007  0.5965
14872SOL     OW48020   5.765   4.398   6.225 -0.0108  0.5271 -0.2503
14872SOL    HW148021   5.836   4.350   6.182  0.3078  0.9473 -0.1858
14872SOL    HW248022   5.761   4.482   6.180  0.8736  1.3001  1.0958
14873SOL     OW48023   4.428   5.330   9.892  0.8157  0.2878 -0.5909
14873SOL    HW148024   4.507   5.289   9.929  0.8645  1.0883  0.2253
14873SOL    HW248025   4.455   5.358   9.804  1.2548  0.0107 -0.5487
14874SOL     OW48026   6.719  10.472   3.774  0.3918 -0.0500  0.5829
14874SOL    HW148027   6.698  10.507   3.861 -2.0367 -0.1120  0.0394
14874SOL    HW248028   6.741  10.381   3.790 -2.1044 -0.6344  0.9186
14875SOL     OW48029   7.836  10.018   5.520 -0.0187 -0.6026 -0.3337
14875SOL    HW148030   7.863  10.055   5.436 -0.5917  0.0714 -0.2312
14875SOL    HW248031   7.741  10.009   5.512 -0.1206 -0.2106  0.3580
14876SOL     OW48032   1.506   2.397   9.624 -0.5369  0.4201  1.0863
14876SOL    HW148033   1.547   2.311   9.616  0.4615  0.8891  1.0670
14876SOL    HW248034   1.435   2.384   9.688 -1.6297 -0.8376 -0.3612
14877SOL     OW48035   1.810   1.256   2.320  0.3651 -0.2108  0.1485
14877SOL    HW148036   1.727   1.238   2.365  0.8289 -0.7749  0.8014
14877SOL    HW248037   1.843   1.169   2.295 -0.0628  0.1283 -1.6232
14878SOL     OW48038   3.229   6.148   2.056  0.1463  0.3167 -0.0266
14878SOL    HW148039   3.225   6.195   2.139 -0.4570 -0.7832  0.5735
14878SOL    HW248040   3.208   6.214   1.990 -0.9816  0.8294  0.8308
14879SOL     OW48041   5.452   0.970   1.545  0.5478 -0.0371  0.1605
14879SOL    HW148042   5.505   1.050   1.550  0.9341 -0.3514  1.2092
14879SOL    HW248043   5.487   0.913   1.614  0.3855 -1.1826 -0.6796
14880SOL     OW48044   6.755   0.458   7.308 -0.0064  0.0085 -0.5717
14880SOL    HW148045   6.766   0.401   7.232  0.3137 -1.4583  0.5651
14880SOL    HW248046   6.670   0.433   7.344  2.3481 -3.4676  2.9598
14881SOL     OW48047   0.765   3.019   8.841  0.5853  0.3423 -0.0652
14881SOL    HW148048   0.820   2.952   8.880  0.7726 -0.1053 -1.0930
14881SOL    HW248049   0.794   3.101   8.882  3.0029  0.3191 -1.6424
14882SOL     OW48050   2.801  10.818   9.781  0.1846 -0.6052  0.0098
14882SOL    HW148051   2.740  10.765   9.729  0.3621 -1.2573  0.4556
14882SOL    HW248052   2.744  10.868   9.840  0.0448 -0.7725  0.0210
14883SOL     OW48053   9.139   5.098   4.199  0.3032 -0.0529 -0.5439
14883SOL    HW148054   9.215   5.055   4.159  1.4782  0.6769  0.8600
14883SOL    HW248055   9.133   5.060   4.287 -1.3507 -0.5656 -0.8702
14884SOL     OW48056   9.001   8.234   8.268 -0.9978 -0.0554 -0.4310
14884SOL    HW148057   8.993   8.180   8.347  0.2058 -0.2512 -0.4412
14884SOL    HW248058   8.910   8.255   8.244 -1.4963 -2.3446 -0.6188
14885SOL     OW48059   5.750   7.442   6.064 -0.3049 -0.5712 -0.0097
14885SOL    HW148060   5.766   7.471   5.974 -1.0632 -0.2174 -0.0342
14885SOL    HW248061   5.747   7.346   6.058  1.6193 -0.6561 -0.0263
14886SOL     OW48062   3.964   1.779  10.877  0.1717 -0.2505  0.2839
14886SOL    HW148063   3.910   1.849  10.914  1.3155  0.6287  0.3098
14886SOL    HW248064   4.007   1.739  10.953  2.4496  1.4941 -0.0142
14887SOL     OW48065   5.618   8.470   7.136  0.0434  0.5681  0.2488
14887SOL    HW148066   5.680   8.404   7.165 -1.5185 -1.7737 -1.5745
14887SOL    HW248067   5.533   8.437   7.163 -0.5344  3.4337  2.1472
14888SOL     OW48068   6.880   3.452   2.620  0.1102 -0.5411 -0.2336
14888SOL    HW148069   6.897   3.412   2.535 -1.2355 -0.0365 -0.7687
14888SOL    HW248070   6.957   3.432   2.673  0.8833 -1.0050 -1.5211
14889SOL     OW48071   6.473   2.357   7.141  0.2205 -0.5787  0.3998
14889SOL    HW148072   6.506   2.401   7.219 -0.4443  1.3765 -0.3961
14889SOL    HW248073   6.454   2.428   7.079 -2.2231 -1.8712 -0.4135
14890SOL     OW48074   9.203   3.067   3.273  0.0791 -1.0274  0.0947
14890SOL    HW148075   9.137   3.136   3.269 -0.4924 -1.3851  2.3089
14890SOL    HW248076   9.286   3.112   3.256 -0.2041  0.4039  2.2548
14891SOL     OW48077  10.323   3.639  10.156 -0.0329  0.9944  0.1215
14891SOL    HW148078  10.408   3.684  10.154  0.5898 -0.1831  0.1062
14891SOL    HW248079  10.342   3.553  10.192 -1.4953  1.2803  1.5939
14892SOL     OW48080   3.226  10.131   0.321 -0.2893 -0.2443 -0.8300
14892SOL    HW148081   3.219  10.227   0.326 -0.9965 -0.2620 -1.5247
14892SOL    HW248082   3.299  10.110   0.380 -0.0509  0.7302 -0.7646
14893SOL     OW48083   1.672   5.540   0.641  0.3563  0.3830  0.1630
14893SOL    HW148084   1.611   5.524   0.713 -1.1534 -3.0337 -1.7743
14893SOL    HW248085   1.620   5.586   0.575  0.6547 -0.0010 -0.3441
14894SOL     OW48086   5.965   4.007   8.919 -0.0616 -0.2102 -0.0982
14894SOL    HW148087   6.014   3.981   8.841 -2.4788  0.9838 -2.0777
14894SOL    HW248088   5.962   4.103   8.916 -0.9815 -0.1853  0.9589
14895SOL     OW48089   9.150   3.821   9.350  0.1317  0.0474  0.4287
14895SOL    HW148090   9.232   3.803   9.396 -1.0076 -2.2368  1.6941
14895SOL    HW248091   9.148   3.916   9.340  3.1101  0.1167  0.0084
14896SOL     OW48092   8.148  10.779   0.859 -0.2778  0.0288 -0.1687
14896SOL    HW148093   8.216  10.829   0.815  0.1176  0.0258  0.4431
14896SOL    HW248094   8.123  10.832   0.934 -0.5811 -0.2137 -0.0971
14897SOL     OW48095   0.740   3.195   9.172  0.0549 -0.1135  0.3630
14897SOL    HW148096   0.771   3.259   9.235 -0.2878  0.6620 -0.2400
14897SOL    HW248097   0.676   3.142   9.221  0.8578 -0.4451  1.0516
14898SOL     OW48098   4.950   2.304   2.108 -0.8752 -0.1101  0.5703
14898SOL    HW148099   5.017   2.353   2.155  0.0326 -2.3219  1.6826
14898SOL    HW248100   4.991   2.279   2.025 -0.7983 -0.2532  0.6499
14899SOL     OW48101   2.209   2.800   4.860 -0.5757 -0.2124  0.6052
14899SOL    HW148102   2.125   2.827   4.897 -1.6541 -1.6277 -0.7469
14899SOL    HW248103   2.187   2.763   4.775  1.5433  0.3254 -0.2119
14900SOL     OW48104   1.231   9.761   8.237 -0.2650 -0.4489  0.0280
14900SOL    HW148105   1.322   9.778   8.214  0.1474 -2.0484  0.4402
14900SOL    HW248106   1.198   9.707   8.165 -0.5405 -0.8665  0.4668
14901SOL     OW48107   2.068   8.869   4.551 -0.5686 -0.0521  0.0136
14901SOL    HW148108   2.033   8.798   4.605  1.3660 -0.2527  1.0282
14901SOL    HW248109   1.991   8.920   4.526 -1.5552 -0.1152  2.7521
14902SOL     OW48110   8.179   4.007   9.634 -0.1867 -0.4910  0.2016
14902SOL    HW148111   8.210   4.073   9.572  0.9553  0.8605  2.1454
14902SOL    HW248112   8.256   3.952   9.651 -0.8411 -1.6680 -0.5551
14903SOL     OW48113   3.265   6.079   6.361  0.3408  0.2300 -0.0193
14903SOL    HW148114   3.334   6.044   6.304  1.0004  2.4418 -0.6127
14903SOL    HW248115   3.206   6.125   6.303 -0.0079  0.9124  0.8618
14904SOL     OW48116   0.262  10.447   0.333  0.1122  0.3682 -0.2183
14904SOL    HW148117   0.296  10.514   0.393  0.9874 -0.8692  0.6877
14904SOL    HW248118   0.323  10.374   0.342 -1.0602 -0.7063 -0.9111
14905SOL     OW48119   8.451   0.136   9.327 -0.0732 -0.6475 -0.4790
14905SOL    HW148120   8.371   0.189   9.320 -0.5445 -1.3663 -0.5815
14905SOL    HW248121   8.431   0.072   9.396  1.6465  1.3435  1.9825
14906SOL     OW48122   5.927   6.048   7.103  0.2360  0.1384  0.2734
14906SOL    HW148123   5.934   5.954   7.091  1.9181  0.3927 -0.7965
14906SOL    HW248124   6.005   6.072   7.152 -0.3097  0.9481  0.7653
14907SOL     OW48125   4.855  10.361   6.036 -0.1732 -0.1661 -0.3069
14907SOL    HW148126   4.848  10.349   6.131 -1.5012 -1.6610 -0.5627
14907SOL    HW248127   4.868  10.455   6.024 -0.8650  0.1529  1.3034
14908SOL     OW48128   8.345  10.584   3.995  0.5262  0.2603  0.9061
14908SOL    HW148129   8.310  10.584   3.906 -2.2453  1.0895  1.9227
14908SOL    HW248130   8.431  10.545   3.987 -0.0224 -0.4984 -2.0053
14909SOL     OW48131   7.669   4.677   5.278 -0.3739  0.2694  0.2831
14909SOL    HW148132   7.675   4.710   5.367 -1.6325 -0.6291  0.7145
14909SOL    HW248133   7.585   4.632   5.274 -0.3820  0.3801 -1.3899
14910SOL     OW48134   3.078   4.654   1.710  0.2373 -0.8463 -0.0887
14910SOL    HW148135   3.080   4.665   1.615 -0.2851  1.0957  0.1181
14910SOL    HW248136   3.154   4.702   1.741 -0.8249  0.3848  0.6459
14911SOL     OW48137   0.166   0.715   5.491  0.4582 -0.4001 -0.1398
14911SOL    HW148138   0.255   0.743   5.468 -0.0467  1.0640 -0.3265
14911SOL    HW248139   0.111   0.789   5.468 -0.7338 -1.0292  0.6614
14912SOL     OW48140   3.118   2.420   7.249 -0.0687  0.0555 -0.0496
14912SOL    HW148141   3.088   2.329   7.247 -0.2682  0.0141  2.8600
14912SOL    HW248142   3.084   2.458   7.168 -1.3144 -2.0441 -0.5549
14913SOL     OW48143   9.427   2.620   6.099  0.2380 -0.2032  0.1236
14913SOL    HW148144   9.410   2.660   6.185  0.3405  0.7463 -0.2901
14913SOL    HW248145   9.520   2.598   6.101  0.8198  2.0157 -0.6152
14914SOL     OW48146  10.499   6.290   8.097  0.6517 -0.5201  0.1278
14914SOL    HW148147  10.577   6.262   8.145  1.6589  1.2254 -0.4409
14914SOL    HW248148  10.499   6.236   8.018  0.1134 -1.9776  1.1048
14915SOL     OW48149  10.974   0.157   7.138  0.0015 -0.1681 -0.1356
14915SOL    HW148150  11.019   0.141   7.055  1.4605  2.1272  0.1829
14915SOL    HW248151  10.902   0.216   7.117  0.7611  0.9404  0.3047
14916SOL     OW48152   0.634   6.543   4.247 -0.0796 -0.0528  0.5748
14916SOL    HW148153   0.724   6.575   4.236 -0.8159  1.9699  0.2738
14916SOL    HW248154   0.601   6.532   4.158  0.4223 -2.4970  0.6554
14917SOL     OW48155   4.845   8.231  10.147 -0.2274  0.0742 -0.2614
14917SOL    HW148156   4.752   8.254  10.153 -0.0214  1.0110 -0.5828
14917SOL    HW248157   4.853   8.186  10.063 -0.5883 -0.9695  0.2569
14918SOL     OW48158   7.962   3.856   9.550 -0.1744 -0.0087  0.1240
14918SOL    HW148159   7.898   3.876   9.619 -0.7401  0.4644 -0.5218
14918SOL    HW248160   8.038   3.909   9.571  0.3202 -1.1942  1.3573
14919SOL     OW48161   2.066   5.067   0.507  0.0027 -0.0806 -0.2621
14919SOL    HW148162   2.075   5.011   0.429  0.7697 -0.7560  0.2964
14919SOL    HW248163   1.980   5.045   0.543  0.4495 -1.1878  0.1608
14920SOL     OW48164   2.382   8.435  10.138 -0.0667 -0.2759 -0.3410
14920SOL    HW148165   2.371   8.471  10.050 -1.2421 -2.0472 -0.9398
14920SOL    HW248166   2.335   8.496  10.195 -1.6435 -0.5914 -1.2779
14921SOL     OW48167   9.035   1.437  10.274  0.1738 -0.2875 -0.0268
14921SOL    HW148168   9.010   1.365  10.217  0.9707 -1.9638  1.6781
14921SOL    HW248169   9.088   1.495  10.219 -1.5718 -0.2991 -1.7627
14922SOL     OW48170   5.441  10.580   8.260  0.2881 -0.3414  0.3489
14922SOL    HW148171   5.479  10.496   8.235  1.1960  0.5132 -1.1720
14922SOL    HW248172   5.452  10.636   8.183 -0.0338  1.2750  1.4494
14923SOL     OW48173  10.042   9.336   7.299 -0.4296  0.1682  0.4068
14923SOL    HW148174  10.061   9.335   7.205  1.5250  4.0654  0.6695
14923SOL    HW248175  10.088   9.259   7.333  0.3252 -0.2908 -1.5626
14924SOL     OW48176   4.292   7.084   0.877  0.0322  0.5753 -0.3983
14924SOL    HW148177   4.254   7.066   0.963  1.4658 -0.7537 -0.0253
14924SOL    HW248178   4.365   7.143   0.896  0.2819  0.3670 -0.7228
14925SOL     OW48179  10.452   9.916   4.427 -0.2705 -0.5141 -0.3257
14925SOL    HW148180  10.375   9.864   4.450 -2.2402  1.7885 -1.4853
14925SOL    HW248181  10.429   9.956   4.343  1.2690  2.0259  0.4249
14926SOL     OW48182   7.909   8.828   4.536 -0.3355  0.0858 -0.1380
14926SOL    HW148183   7.882   8.912   4.500  1.2482  0.2975 -0.8363
14926SOL    HW248184   7.944   8.848   4.623  0.3415  0.1939 -0.4336
14927SOL     OW48185   9.769   1.765  10.242  0.2072  0.2856  0.2669
14927SOL    HW148186   9.739   1.730  10.158 -1.9014 -0.7981  1.4271
14927SOL    HW248187   9.770   1.860  10.230 -0.5145  0.1660 -0.8185
14928SOL     OW48188   6.944   1.803   6.527 -0.6438  0.4818 -0.4395
14928SOL    HW148189   6.998   1.880   6.543 -0.3676  0.4381 -1.1850
14928SOL    HW248190   6.920   1.808   6.434  0.3067 -0.9349 -0.7727
14929SOL     OW48191   9.721  10.318   8.104 -0.4796  0.2232 -0.7316
14929SOL    HW148192   9.799  10.266   8.122 -0.7734  1.2140  4.0006
14929SOL    HW248193   9.754  10.406   8.087 -0.3860 -0.1412 -2.5567
14930SOL     OW48194   7.393   1.809   6.252 -0.1072  0.1235  0.2128
14930SOL    HW148195   7.383   1.749   6.178 -1.1564 -0.0657  0.5027
14930SOL    HW248196   7.352   1.764   6.325  0.7064  0.4262  0.8588
14931SOL     OW48197   7.225  10.644   4.554  0.3315 -0.5596 -0.7601
14931SOL    HW148198   7.171  10.680   4.484 -1.1406 -0.1877  0.5430
14931SOL    HW248199   7.215  10.549   4.546 -0.5037 -0.4950 -0.5582
14932SOL     OW48200   7.327  10.952   6.924 -0.5286  0.0169  0.7025
14932SOL    HW148201   7.339  10.895   6.849  0.3966  0.9004  0.1688
14932SOL    HW248202   7.403  11.010   6.923 -1.0518  0.7420  1.6927
14933SOL     OW48203   9.787   5.138   2.712  0.2673  0.3901 -0.2117
14933SOL    HW148204   9.876   5.103   2.706  0.3037  0.4282  0.0905
14933SOL    HW248205   9.795   5.230   2.688  0.3464  0.4447  0.0155
14934SOL     OW48206   7.381   8.282   8.828  0.5670 -0.1144 -0.0174
14934SOL    HW148207   7.372   8.201   8.778 -0.2662 -0.1006  0.0914
14934SOL    HW248208   7.354   8.258   8.917 -1.3018  0.6452 -0.3377
14935SOL     OW48209   6.693   7.327   6.160 -0.0526 -0.3097 -0.2948
14935SOL    HW148210   6.758   7.393   6.185  0.7661 -1.2200  0.0382
14935SOL    HW248211   6.630   7.374   6.105  0.2730  0.8411  0.3104
14936SOL     OW48212  10.659   9.851   3.503 -0.0927  0.3626  0.2376
14936SOL    HW148213  10.640   9.935   3.544  0.4629  0.6737 -0.1224
14936SOL    HW248214  10.645   9.868   3.409  0.4144  0.1687  0.1276
14937SOL     OW48215   6.211   4.348   2.368  0.7910 -0.6728  0.5612
14937SOL    HW148216   6.186   4.257   2.353  1.0292 -0.4793 -1.1304
14937SOL    HW248217   6.133   4.389   2.405  0.8446 -1.6640  1.8134
14938SOL     OW48218   3.874   1.285   4.967  0.2209  0.0471  0.1969
14938SOL    HW148219   3.930   1.209   4.948 -0.2252  0.1228 -1.4717
14938SOL    HW248220   3.785   1.255   4.947 -0.0571  0.7312  0.3940
14939SOL     OW48221   3.255   7.050   0.697 -0.1050  0.3829  0.2533
14939SOL    HW148222   3.189   7.012   0.755 -0.2179  0.3026  0.0741
14939SOL    HW248223   3.224   7.029   0.608  0.7765 -0.6850  0.1921
14940SOL     OW48224   2.151   1.580  10.872  0.2640  0.0177 -0.0858
14940SOL    HW148225   2.087   1.590  10.802  0.2970  1.4025  0.0679
14940SOL    HW248226   2.127   1.498  10.915  1.0760 -1.5502 -2.5333
14941SOL     OW48227   6.904   6.634   4.569 -0.1545 -0.2294 -0.1702
14941SOL    HW148228   6.858   6.696   4.626 -1.1494  1.5927 -2.7994
14941SOL    HW248229   6.834   6.592   4.519  0.7724 -0.5261 -1.2373
14942SOL     OW48230  10.840   4.229   7.849  0.0450  0.4388  0.1061
14942SOL    HW148231  10.879   4.317   7.849  1.1702 -0.0560  0.1958
14942SOL    HW248232  10.875   4.187   7.770 -2.5851  0.9775 -1.3910
14943SOL     OW48233   8.500   0.330   6.767 -0.1547 -0.2246 -0.8196
14943SOL    HW148234   8.413   0.337   6.805 -1.2434  0.3661 -3.3450
14943SOL    HW248235   8.544   0.411   6.792 -1.1539  0.5550 -1.5635
14944SOL     OW48236  10.360  10.329   9.362  0.1361  0.6446 -0.6571
14944SOL    HW148237  10.363  10.302   9.270  1.5583  1.5369 -0.8981
14944SOL    HW248238  10.342  10.248   9.410  0.5982 -0.0545 -1.6286
14945SOL     OW48239   5.854   8.099   3.855  0.2529 -0.1848  0.0508
14945SOL    HW148240   5.851   8.173   3.794 -1.6622 -1.0484 -0.9595
14945SOL    HW248241   5.938   8.107   3.900 -0.2856  3.1299  0.6004
14946SOL     OW48242   5.187  10.446   2.459  0.3101 -0.2465  0.1247
14946SOL    HW148243   5.209  10.373   2.516 -0.0296  0.1219  0.7276
14946SOL    HW248244   5.106  10.419   2.416 -0.6773  0.4224  1.5229
14947SOL     OW48245   4.130   0.839   1.130 -0.4836 -0.3030  0.0192
14947SOL    HW148246   4.184   0.764   1.106 -0.5315 -0.7297  1.2613
14947SOL    HW248247   4.107   0.825   1.221  0.5418  1.8348  0.6431
14948SOL     OW48248   7.581   9.720  10.382  0.2406 -0.0257  0.4010
14948SOL    HW148249   7.560   9.658  10.452  0.5507 -1.2894 -0.6063
14948SOL    HW248250   7.612   9.798  10.428 -2.2349  0.2118  1.7658
14949SOL     OW48251   6.788   4.179   0.814  0.0063  0.1884  0.2303
14949SOL    HW148252   6.802   4.219   0.728 -0.4823 -0.3217 -0.0910
14949SOL    HW248253   6.753   4.092   0.795  4.3468 -1.8483  0.7944
14950SOL     OW48254   6.213   1.862   8.965 -0.3661 -0.1024 -0.2748
14950SOL    HW148255   6.153   1.910   8.908 -3.2143 -0.8342  1.9748
14950SOL    HW248256   6.192   1.770   8.949  0.7641 -0.3978 -0.0753
14951SOL     OW48257   2.150   7.197   7.973 -0.1071 -0.0686  0.2847
14951SOL    HW148258   2.221   7.202   7.909  2.5206 -1.7187  2.9080
14951SOL    HW248259   2.122   7.105   7.971 -2.7540  0.7117 -1.2457
14952SOL     OW48260   2.784   2.382   0.680 -0.4014  0.1613  0.3944
14952SOL    HW148261   2.863   2.329   0.678 -1.2163 -1.0348 -1.5224
14952SOL    HW248262   2.803   2.452   0.743  2.1130 -0.1838  0.0533
14953SOL     OW48263   8.051   2.989   6.232 -0.5767 -0.4966 -0.3010
14953SOL    HW148264   8.062   2.932   6.155 -1.6752 -1.9464  0.6055
14953SOL    HW248265   8.120   2.961   6.292  0.0796  0.4274 -0.6060
14954SOL     OW48266   7.154   2.643  10.839  0.0548  0.0085 -0.5975
14954SOL    HW148267   7.126   2.566  10.789 -1.7725 -0.5946  1.3044
14954SOL    HW248268   7.216   2.687  10.781 -0.7551 -1.5495 -2.7306
14955SOL     OW48269   5.572   0.163   1.595 -0.1089  0.0069  0.3894
14955SOL    HW148270   5.511   0.125   1.531  0.9075 -0.6984 -0.1693
14955SOL    HW248271   5.578   0.097   1.664  0.2333 -0.0429  0.3123
14956SOL     OW48272   6.569   9.452   4.577 -0.3708  0.1549  0.1021
14956SOL    HW148273   6.638   9.487   4.634 -0.3269 -0.8047  0.6512
14956SOL    HW248274   6.488   9.484   4.615 -0.3400 -0.4817  0.7160
14957SOL     OW48275   4.192   3.821   6.628  0.3775  0.3229 -0.8354
14957SOL    HW148276   4.107   3.864   6.622  0.9206  1.8509  1.6383
14957SOL    HW248277   4.175   3.741   6.677  0.5137  1.1186  0.5297
14958SOL     OW48278   3.746   9.110   5.793 -0.1652 -0.2741  0.3995
14958SOL    HW148279   3.753   9.017   5.815 -1.0292 -0.4430 -0.0430
14958SOL    HW248280   3.656   9.122   5.765 -0.5497  1.0530  2.0929
14959SOL     OW48281   6.221   9.938   8.193  0.1131 -0.3195  0.1536
14959SOL    HW148282   6.245   9.851   8.224  1.2892 -0.0881 -0.0523
14959SOL    HW248283   6.260   9.998   8.258 -1.9829  0.0158  1.1273
14960SOL     OW48284   3.014   5.454   7.941 -0.3316 -0.3390 -0.0351
14960SOL    HW148285   3.016   5.496   8.027  0.4010  1.2798 -0.8174
14960SOL    HW248286   3.094   5.484   7.898 -0.6574 -1.1768 -1.2573
14961SOL     OW48287   1.122   3.584   0.315  0.4996 -0.1432  0.1927
14961SOL    HW148288   1.204   3.544   0.345  0.3664 -0.4465  0.1561
14961SOL    HW248289   1.150   3.655   0.256  0.7379 -0.1709  0.2730
14962SOL     OW48290   9.224   6.472   7.239  0.1367 -0.4703 -0.7292
14962SOL    HW148291   9.298   6.533   7.239  0.1382 -0.4680  0.0078
14962SOL    HW248292   9.147   6.529   7.234  0.0389 -0.2482  2.0942
14963SOL     OW48293   4.811   3.059   2.260  0.0356 -0.2654  0.7091
14963SOL    HW148294   4.746   3.014   2.206  0.1677 -0.8791  1.0483
14963SOL    HW248295   4.760   3.100   2.330 -0.0906  0.1569  0.3692
14964SOL     OW48296   4.176  10.393   0.530  0.6331 -0.2455 -0.1194
14964SOL    HW148297   4.204  10.484   0.536  2.7877 -0.9039  0.1015
14964SOL    HW248298   4.251  10.343   0.560 -1.0293 -2.0489  1.1631
14965SOL     OW48299   4.401   4.231   2.914  0.0188 -0.3248 -0.4958
14965SOL    HW148300   4.486   4.246   2.957  0.5410 -1.6084 -1.0475
14965SOL    HW248301   4.406   4.140   2.883 -0.6514  0.3309 -2.5602
14966SOL     OW48302   4.854   6.668  10.076 -0.6398  0.3614  0.5918
14966SOL    HW148303   4.904   6.609  10.131  0.1839 -0.3986 -0.9739
14966SOL    HW248304   4.783   6.614  10.040  0.6178  0.0618 -1.5308
14967SOL     OW48305  10.882   6.027   6.149 -0.2356  0.2977  0.3041
14967SOL    HW148306  10.822   6.063   6.215 -0.7272  0.1941 -0.0899
14967SOL    HW248307  10.959   6.084   6.154 -0.2605  0.2848  0.9788
14968SOL     OW48308   5.479   6.422   6.148  0.0527 -0.1502 -0.2489
14968SOL    HW148309   5.572   6.442   6.164  0.0377 -0.5562  0.3745
14968SOL    HW248310   5.468   6.332   6.181 -0.7539  0.1962  0.4418
14969SOL     OW48311   2.318   6.180   4.520 -0.3064  0.4860  0.4124
14969SOL    HW148312   2.230   6.162   4.487 -0.1009  1.5352 -0.7280
14969SOL    HW248313   2.330   6.274   4.508  0.4650  0.5800  1.8226
14970SOL     OW48314   1.387   9.675   5.553 -0.2860  0.1119  0.3334
14970SOL    HW148315   1.327   9.695   5.625  0.7430 -0.6524  1.4189
14970SOL    HW248316   1.423   9.589   5.574  1.3016  0.6150 -0.2187
14971SOL     OW48317   0.380   5.964   8.592  0.2135  0.3133 -0.4908
14971SOL    HW148318   0.475   5.955   8.599  0.1401 -0.1793 -0.1187
14971SOL    HW248319   0.350   5.879   8.561 -0.2860 -0.1313  1.1798
14972SOL     OW48320   5.157   8.695   5.896 -0.3431  0.4095 -0.2291
14972SOL    HW148321   5.080   8.672   5.948 -2.1024  1.3812 -2.3404
14972SOL    HW248322   5.146   8.645   5.815  1.2972  0.5347 -0.5467
14973SOL     OW48323   7.273   3.427   5.439  0.0971 -0.3106  0.3594
14973SOL    HW148324   7.193   3.471   5.466  0.3479 -0.0950  0.7444
14973SOL    HW248325   7.252   3.333   5.445  0.3690 -0.2741  1.9353
14974SOL     OW48326   7.419   3.491   8.846 -0.0260 -0.2429 -0.3700
14974SOL    HW148327   7.442   3.583   8.831  0.1923 -0.3859 -0.9295
14974SOL    HW248328   7.359   3.494   8.921 -0.3617  0.4014 -0.6526
14975SOL     OW48329   1.123   4.892   6.547  0.6113 -0.2959  0.2766
14975SOL    HW148330   1.203   4.909   6.597  1.0839  0.9054 -0.8471
14975SOL    HW248331   1.059   4.953   6.584  0.8865  0.4025 -0.3705
14976SOL     OW48332   7.562   9.198   8.351  0.4838  0.5776 -0.3099
14976SOL    HW148333   7.575   9.124   8.410 -0.4867  1.4541  1.0076
14976SOL    HW248334   7.494   9.169   8.290 -0.2349  0.5740  0.5019
14977SOL     OW48335   5.699   7.150   4.719 -0.3504 -0.3076 -0.2491
14977SOL    HW148336   5.750   7.074   4.693  0.6290  0.3441 -0.2569
14977SOL    HW248337   5.724   7.218   4.657  0.3446  0.6167  1.0079
14978SOL     OW48338   4.427   5.630   2.194 -0.0438 -0.1363 -0.0006
14978SOL    HW148339   4.460   5.540   2.199  0.9996  0.2404  0.0767
14978SOL    HW248340   4.427   5.650   2.101  1.6143  0.4596  0.1182
14979SOL     OW48341   5.178   9.637  10.118  0.7715  0.0161 -0.5593
14979SOL    HW148342   5.247   9.683  10.166  1.0736  0.1269 -1.0811
14979SOL    HW248343   5.202   9.650  10.026  0.2115 -0.1982 -0.7342
14980SOL     OW48344   7.782   1.525   7.368  0.1102 -0.3217 -0.3276
14980SOL    HW148345   7.845   1.466   7.327  1.4605  1.5848 -1.0246
14980SOL    HW248346   7.725   1.552   7.296 -0.1482 -0.2946 -0.1153
14981SOL     OW48347   5.045   5.459   7.376 -0.2512 -0.0839 -0.2569
14981SOL    HW148348   5.137   5.447   7.352 -0.7958 -1.0179 -1.9218
14981SOL    HW248349   4.996   5.439   7.296 -1.8000  2.3695  0.0122
14982SOL     OW48350   0.368   4.716   9.491 -0.1163 -0.4013 -0.0208
14982SOL    HW148351   0.364   4.624   9.520  0.9920 -0.5309 -0.2392
14982SOL    HW248352   0.286   4.730   9.443 -1.3313 -0.6062  1.9260
14983SOL     OW48353   3.672   7.816   1.643 -0.0440 -0.2284 -0.6105
14983SOL    HW148354   3.622   7.837   1.564 -0.0386 -3.2689 -1.4515
14983SOL    HW248355   3.607   7.821   1.714 -0.9609 -1.4545 -1.3444
14984SOL     OW48356   0.045   2.993   4.810  0.1238  0.0277  0.2985
14984SOL    HW148357   0.003   2.918   4.768  0.0081 -0.4684  1.3010
14984SOL    HW248358   0.006   3.069   4.767 -1.0693 -0.4403  0.5336
14985SOL     OW48359   5.903   4.470   0.298  0.1803  0.2733 -0.5364
14985SOL    HW148360   5.908   4.475   0.393  0.9843 -0.0991 -0.5583
14985SOL    HW248361   5.993   4.479   0.268 -0.1865  1.4193 -1.3226
14986SOL     OW48362   9.164   2.364   1.935  0.6562 -0.3687  0.3076
14986SOL    HW148363   9.093   2.391   1.993 -0.0902 -1.4330 -0.0879
14986SOL    HW248364   9.210   2.296   1.984  0.1069 -1.1728 -0.2813
14987SOL     OW48365   4.145   6.377   7.284  0.3182  0.3601  0.6699
14987SOL    HW148366   4.127   6.284   7.275  0.4290  0.3323  0.7428
14987SOL    HW248367   4.090   6.419   7.217  0.5231  0.2177  0.4122
14988SOL     OW48368   0.387   0.085   5.256 -0.2178 -0.1589 -0.0616
14988SOL    HW148369   0.477   0.114   5.265 -0.5884  0.6458  1.1092
14988SOL    HW248370   0.341   0.160   5.219 -0.4989 -0.4326 -0.2768
14989SOL     OW48371   7.957   1.266   2.136 -0.6847 -0.2195  0.7443
14989SOL    HW148372   8.020   1.271   2.065 -2.3017 -0.1996 -0.7358
14989SOL    HW248373   7.900   1.193   2.112 -0.5232 -0.9958  2.6460
14990SOL     OW48374   2.551   1.549   2.181  0.6820 -0.0233 -0.0188
14990SOL    HW148375   2.552   1.454   2.178  0.1542 -0.0532  0.7682
14990SOL    HW248376   2.544   1.571   2.274 -0.2615  0.7748 -0.2618
14991SOL     OW48377   9.405   8.949   8.916  0.1030 -0.0098 -0.3077
14991SOL    HW148378   9.309   8.950   8.916  0.0552 -0.9382  1.6122
14991SOL    HW248379   9.429   9.036   8.947 -0.0713  0.6791 -2.0502
14992SOL     OW48380   4.868   0.864   8.321  0.0416 -0.4230 -0.2378
14992SOL    HW148381   4.919   0.846   8.242 -0.0556  0.3945 -0.4883
14992SOL    HW248382   4.896   0.952   8.349 -0.4579 -0.4004  0.2166
14993SOL     OW48383   9.069   0.696   7.280 -0.9523 -0.1375 -0.2815
14993SOL    HW148384   9.135   0.751   7.239 -2.3458  1.4088 -0.5065
14993SOL    HW248385   9.093   0.695   7.373  0.1973 -0.7792 -0.5696
14994SOL     OW48386   7.551   2.329   5.942 -0.0109 -0.0177 -0.8252
14994SOL    HW148387   7.499   2.404   5.970  0.2917 -0.3554  0.6844
14994SOL    HW248388   7.491   2.275   5.891 -1.7367 -1.3788  2.5037
14995SOL     OW48389   2.866   6.093  10.764  0.0951  0.4614 -0.2636
14995SOL    HW148390   2.875   6.182  10.798  1.1010  0.0402  0.5910
14995SOL    HW248391   2.788   6.096  10.708  0.4790  2.0197 -0.7239
14996SOL     OW48392   3.895  10.955   5.947 -0.0158 -0.0672  0.2665
14996SOL    HW148393   3.983  10.921   5.930 -0.5854 -0.2907 -2.4520
14996SOL    HW248394   3.910  11.040   5.988  1.4312 -1.4762  2.8371
14997SOL     OW48395   8.101   4.315   6.580  0.3123 -0.4161 -0.6208
14997SOL    HW148396   8.114   4.315   6.485  0.3388  0.7568 -0.6257
14997SOL    HW248397   8.183   4.347   6.616  0.1969 -0.5671 -0.2179
14998SOL     OW48398   5.639   9.312   5.083  0.4177 -0.5681  0.0995
14998SOL    HW148399   5.641   9.341   5.174 -1.4605 -1.7724  0.5548
14998SOL    HW248400   5.726   9.273   5.069  0.9004  0.0794  1.2072
14999SOL     OW48401   2.747   5.826   0.092 -0.3404  0.7199 -0.0924
14999SOL    HW148402   2.806   5.824   0.017 -0.0083 -0.0434  0.1825
14999SOL    HW248403   2.804   5.843   0.167 -0.5889  0.8989  0.0560
15000SOL     OW48404   7.534   2.140   0.724 -0.8688  0.5284  0.1238
15000SOL    HW148405   7.613   2.177   0.765 -1.8889  1.5643  1.2326
15000SOL    HW248406   7.491   2.091   0.795 -0.6376 -0.9858 -0.7774
15001SOL     OW48407   3.515   7.945   1.450  0.0973 -0.0742 -0.4573
15001SOL    HW148408   3.457   7.893   1.393 -0.1226  0.1118 -0.4048
15001SOL    HW248409   3.471   8.030   1.456  0.7885  0.3356 -1.0808
15002SOL     OW48410   2.369   6.308   4.769  0.2046 -0.5047  0.5446
15002SOL    HW148411   2.337   6.392   4.738  0.9117 -1.1580 -2.1160
15002SOL    HW248412   2.346   6.246   4.699  2.5093 -1.9307  0.9982
15003SOL     OW48413  10.907  10.652  10.975  0.2834 -0.4076  0.2143
15003SOL    HW148414  10.994  10.616  10.989  0.3870 -0.7949 -1.2704
15003SOL    HW248415  10.910  10.688  10.886 -1.1405 -0.6483  0.0481
15004SOL     OW48416   4.251   1.332   3.827  0.3663  0.1218  0.0598
15004SOL    HW148417   4.200   1.373   3.758  0.6196  0.6731  0.2002
15004SOL    HW248418   4.294   1.257   3.784 -1.0274 -0.7031  0.0834
15005SOL     OW48419   9.342   1.093   6.690 -0.1000  0.7508  0.0776
15005SOL    HW148420   9.403   1.144   6.638 -2.0915  3.3722  0.1660
15005SOL    HW248421   9.384   1.086   6.776  0.2400  2.2593  0.0558
15006SOL     OW48422  10.345   4.967   9.846  0.2147 -0.0433  0.4976
15006SOL    HW148423  10.374   5.041   9.793  0.4972  0.1021  0.8533
15006SOL    HW248424  10.425   4.916   9.862 -0.3796 -1.8333 -1.9283
15007SOL     OW48425  10.932   8.815   2.713 -0.4632 -0.0601  0.2835
15007SOL    HW148426  10.892   8.897   2.742  0.8350  0.9589 -0.7621
15007SOL    HW248427  10.895   8.800   2.626 -0.1136 -0.1794  0.1571
15008SOL     OW48428   1.349  10.671   0.615 -0.0023 -0.6819 -0.1013
15008SOL    HW148429   1.290  10.600   0.589  0.7742 -1.0283 -0.9509
15008SOL    HW248430   1.291  10.746   0.629 -0.7722 -1.3338  0.2434
15009SOL     OW48431   9.854   5.099   2.022  0.1828  0.7330  0.8656
15009SOL    HW148432   9.897   5.171   2.070  2.8390 -0.5786  0.5441
15009SOL    HW248433   9.876   5.115   1.930  0.5399 -0.3202  0.7639
15010SOL     OW48434   2.298   8.849   5.227  0.1480 -0.3849  0.2486
15010SOL    HW148435   2.207   8.850   5.197  0.5938 -0.8728 -1.1155
15010SOL    HW248436   2.292   8.866   5.321 -1.1914  1.8877 -0.2251
15011SOL     OW48437   1.208   9.262  10.828  0.3217  0.6608 -0.1121
15011SOL    HW148438   1.152   9.334  10.799  1.5214  2.4064  1.7771
15011SOL    HW248439   1.291   9.278  10.783  0.5444  0.3603  0.1975
15012SOL     OW48440  10.103  10.437   8.498  0.8293  0.1693 -0.8999
15012SOL    HW148441  10.111  10.515   8.442  3.5315  1.0253  0.5758
15012SOL    HW248442  10.143  10.464   8.581 -0.0503 -2.1722  0.3155
15013SOL     OW48443   8.007   5.532   3.731  0.0546  0.6439 -0.1965
15013SOL    HW148444   8.060   5.598   3.774 -1.2865  1.0894  0.8413
15013SOL    HW248445   8.028   5.451   3.777  1.8177  0.2954 -1.5734
15014SOL     OW48446   8.232   4.509   3.206  0.0333  0.5213  0.3383
15014SOL    HW148447   8.296   4.513   3.135 -0.8917  1.0171 -0.4797
15014SOL    HW248448   8.245   4.423   3.245 -0.3555 -0.2976 -1.3018
15015SOL     OW48449   3.579   4.239   7.338 -1.0690 -0.2541  0.4511
15015SOL    HW148450   3.493   4.221   7.299 -0.7791  0.9238 -0.7898
15015SOL    HW248451   3.613   4.313   7.286  0.7025 -0.7373  0.9100
15016SOL     OW48452   0.836   1.898  10.794 -0.1170 -0.2980  0.5610
15016SOL    HW148453   0.847   1.848  10.875  2.6365 -0.7512 -0.0219
15016SOL    HW248454   0.820   1.831  10.727 -2.4098  0.0764  0.6966
15017SOL     OW48455   7.777  10.383  10.847 -0.3543 -0.0805  0.0062
15017SOL    HW148456   7.767  10.300  10.802  0.2249  0.4666 -1.1685
15017SOL    HW248457   7.698  10.433  10.824 -1.0248 -0.5494  1.2589
15018SOL     OW48458   6.789   2.077   6.525 -0.3138  0.1109  0.1146
15018SOL    HW148459   6.858   2.124   6.478  0.3275  0.8254  1.7245
15018SOL    HW248460   6.802   2.101   6.617 -1.9345 -0.7429  0.5902
15019SOL     OW48461   8.939  10.602   8.857  0.5066 -0.5114 -0.5144
15019SOL    HW148462   8.882  10.655   8.913  1.7936 -0.4253  0.7488
15019SOL    HW248463   8.981  10.666   8.799  0.3404 -0.4274 -0.5444
15020SOL     OW48464   2.734   7.092   0.199 -0.1838  0.5438  0.0805
15020SOL    HW148465   2.682   7.049   0.267 -0.0938  1.5411  0.7734
15020SOL    HW248466   2.701   7.181   0.195 -0.0617  0.5503 -1.0628
15021SOL     OW48467   7.185   3.142   9.610 -0.3195 -0.0909  0.1521
15021SOL    HW148468   7.219   3.203   9.544 -0.1475 -1.3730 -0.9520
15021SOL    HW248469   7.226   3.058   9.589 -0.7163 -0.6369  1.5442
15022SOL     OW48470   0.871   0.550   0.157  0.3958  0.2311  0.0485
15022SOL    HW148471   0.962   0.544   0.187  0.5686 -1.5030 -0.7509
15022SOL    HW248472   0.878   0.558   0.062 -0.2989 -0.2191 -0.0392
15023SOL     OW48473   7.342   6.578   1.892  0.6939  0.0247  0.0324
15023SOL    HW148474   7.404   6.529   1.946  0.7112  0.1402  0.1198
15023SOL    HW248475   7.329   6.525   1.814  0.1508 -0.4750  0.4518
15024SOL     OW48476   8.076   1.605   3.998 -0.8981  0.0485  0.3691
15024SOL    HW148477   8.035   1.674   3.946  0.2929  0.5320  0.0410
15024SOL    HW248478   8.045   1.620   4.087 -0.4285  1.1881  0.3488
15025SOL     OW48479   1.774   0.783   4.366 -0.2429 -0.2050  0.0984
15025SOL    HW148480   1.732   0.701   4.339  1.3404 -0.6214 -1.1125
15025SOL    HW248481   1.823   0.812   4.290 -0.3718  1.6282  0.6777
15026SOL     OW48482   5.432   4.681   5.835 -0.1750 -0.2231  0.2431
15026SOL    HW148483   5.515   4.693   5.789 -0.4507  1.8301  0.2509
15026SOL    HW248484   5.457   4.678   5.928 -0.1185  0.6716  0.2637
15027SOL     OW48485   8.121  10.182   5.684  0.6107 -0.0739 -0.3348
15027SOL    HW148486   8.144  10.270   5.715 -2.3742  1.6289 -2.6281
15027SOL    HW248487   8.034  10.165   5.721  1.4982 -2.4728  0.7674
15028SOL     OW48488   6.019   7.268   7.778  0.3062  0.6837  0.3479
15028SOL    HW148489   5.972   7.345   7.811  1.4556  1.9614 -0.9459
15028SOL    HW248490   6.038   7.216   7.856 -1.1069  1.3482  1.1558
15029SOL     OW48491   6.788  10.507  10.818 -0.1348  0.3341 -0.2090
15029SOL    HW148492   6.765  10.599  10.835 -2.1860 -0.3696  0.9197
15029SOL    HW248493   6.826  10.477  10.901 -1.7340 -0.5285  0.2144
15030SOL     OW48494   5.041   7.179   2.979 -0.4998  0.7347 -0.1872
15030SOL    HW148495   4.971   7.120   3.006  0.4106  0.4385  1.5991
15030SOL    HW248496   5.033   7.255   3.037  0.4513  0.8481 -0.1962
15031SOL     OW48497   1.259   3.703   6.417  0.1510 -0.4298 -0.1734
15031SOL    HW148498   1.165   3.707   6.403  0.4270  1.1527 -1.7314
15031SOL    HW248499   1.293   3.784   6.380  2.1268 -0.9175  0.4619
15032SOL     OW48500   6.497   7.111   4.995  0.1385  0.3765 -0.0014
15032SOL    HW148501   6.500   7.189   4.940 -0.1109  0.8727  0.6874
15032SOL    HW248502   6.588   7.095   5.020  0.1350  0.6637  0.1803
15033SOL     OW48503   4.328   5.495   0.903  0.2904 -0.0714 -0.0664
15033SOL    HW148504   4.407   5.548   0.899  0.7832 -0.6810  1.2326
15033SOL    HW248505   4.357   5.410   0.935 -0.7303 -0.6476 -0.6147
15034SOL     OW48506   8.698   7.371   1.223 -0.3197  0.2139 -0.0961
15034SOL    HW148507   8.605   7.373   1.244 -0.1857  0.3623  0.4893
15034SOL    HW248508   8.717   7.458   1.190 -0.2481  0.3877  0.4025
15035SOL     OW48509   0.961   1.104   5.554 -0.6184 -0.2461  0.2270
15035SOL    HW148510   1.036   1.053   5.583 -0.7338 -0.4938  0.0920
15035SOL    HW248511   0.893   1.039   5.537 -0.2859 -0.1747 -1.4289
15036SOL     OW48512   2.192   3.419   6.305  0.1915  0.0647  0.0525
15036SOL    HW148513   2.249   3.452   6.236  0.8007 -0.3890  0.3426
15036SOL    HW248514   2.247   3.416   6.383 -0.6620  1.1721  0.7088
15037SOL     OW48515   8.113   9.112   4.057 -0.0618 -0.1506  0.0019
15037SOL    HW148516   8.197   9.141   4.022  0.3394 -0.1857  0.9187
15037SOL    HW248517   8.061   9.193   4.063 -0.7679 -0.4051 -2.3470
15038SOL     OW48518   1.764   3.145   9.898  0.7351 -0.3076 -0.2776
15038SOL    HW148519   1.739   3.131   9.989 -1.9887 -0.2786 -0.9788
15038SOL    HW248520   1.842   3.090   9.885 -0.7682 -2.8567  1.1577
15039SOL     OW48521  10.027   2.304   3.282  0.0828  0.0368  0.4424
15039SOL    HW148522  10.111   2.318   3.326  0.4738 -0.4818 -0.1267
15039SOL    HW248523  10.001   2.392   3.253  1.0762  0.0417 -0.5062
15040SOL     OW48524   3.744   0.402   0.271 -0.1838  0.5931 -0.1135
15040SOL    HW148525   3.803   0.469   0.305  0.6672  0.1207 -0.6225
15040SOL    HW248526   3.802   0.339   0.227 -0.9177 -0.7259  0.7685
15041SOL     OW48527   5.791   2.376   7.895  0.0325  0.5535  0.0129
15041SOL    HW148528   5.817   2.353   7.984  2.1587  3.3703  0.2040
15041SOL    HW248529   5.849   2.326   7.839 -0.4334 -0.2245  0.2094
15042SOL     OW48530   7.864   3.715   6.705  0.3570 -0.4524 -0.1788
15042SOL    HW148531   7.884   3.800   6.666 -0.0029 -0.5572 -0.5867
15042SOL    HW248532   7.801   3.734   6.774  0.7168 -0.3154  0.1150
15043SOL     OW48533   0.020   1.051   7.088 -0.8249 -0.4894 -0.3396
15043SOL    HW148534   0.063   1.124   7.133 -1.6620 -0.7660  0.9135
15043SOL    HW248535   0.030   1.072   6.995  2.8132 -0.9826 -0.1357
15044SOL     OW48536   9.118   8.177   8.028 -0.4644  0.1415 -0.4745
15044SOL    HW148537   9.054   8.200   7.960 -1.5122 -1.1525  0.0497
15044SOL    HW248538   9.083   8.216   8.108  0.3384  0.9505 -0.5107
15045SOL     OW48539   9.306   4.874   5.238 -0.1353 -0.0161 -0.1898
15045SOL    HW148540   9.392   4.836   5.223 -0.3853 -0.3785 -0.7152
15045SOL    HW248541   9.247   4.799   5.243 -0.6960  0.3076 -1.6485
15046SOL     OW48542  10.930   1.598   3.951  0.2637  0.2029  0.0682
15046SOL    HW148543  11.015   1.570   3.983  1.6215  2.8257 -1.0943
15046SOL    HW248544  10.902   1.666   4.013 -0.5471  0.0102 -0.0782
15047SOL     OW48545   3.044   7.815   7.726  0.8263  0.1603 -0.2492
15047SOL    HW148546   2.987   7.881   7.765  0.6013 -0.4446  0.4621
15047SOL    HW248547   3.062   7.847   7.637 -0.1192  0.6552 -0.2608
15048SOL     OW48548   9.134  10.865   5.954 -0.2966  0.5021 -0.0809
15048SOL    HW148549   9.125  10.939   6.014  0.2958 -0.3865  1.1169
15048SOL    HW248550   9.105  10.900   5.870  0.0384  2.1208  0.4425
15049SOL     OW48551   2.002   9.797   1.708  0.2530  0.4768 -0.4576
15049SOL    HW148552   2.077   9.823   1.655  0.3751  1.2146  0.0725
15049SOL    HW248553   1.945   9.874   1.709  0.5222  0.6815  0.9445
15050SOL     OW48554  10.799   9.680   8.682 -0.2631  0.1248  0.1329
15050SOL    HW148555  10.724   9.685   8.741  0.9122  1.6079  1.5550
15050SOL    HW248556  10.859   9.619   8.725 -0.7706 -1.3148 -1.1634
15051SOL     OW48557   1.238   0.481   0.637  0.5242 -0.1528  0.1692
15051SOL    HW148558   1.144   0.466   0.631  0.4008  1.1903 -1.5934
15051SOL    HW248559   1.248   0.548   0.704  0.0333  1.3684 -1.2708
15052SOL     OW48560   5.006   4.447   1.341 -0.1387 -0.2916  0.0349
15052SOL    HW148561   5.004   4.444   1.246  0.3225 -1.1662  0.0426
15052SOL    HW248562   5.004   4.540   1.363 -0.0673 -0.0861 -0.8351
15053SOL     OW48563   3.550   4.230   0.706  0.4727 -0.4263  0.0745
15053SOL    HW148564   3.584   4.144   0.731  0.4942 -0.5338 -0.3294
15053SOL    HW248565   3.623   4.272   0.661 -0.1162 -0.8733 -1.3004
15054SOL     OW48566   1.882   3.817   5.548  0.0444  0.0898  0.3416
15054SOL    HW148567   1.912   3.869   5.474  0.5671 -0.2292  0.3249
15054SOL    HW248568   1.870   3.880   5.619  0.7422  0.2319  0.3424
15055SOL     OW48569   5.076   4.215   8.925 -0.0958  0.2155  0.6274
15055SOL    HW148570   5.128   4.205   9.005 -0.8735  0.1394  1.1368
15055SOL    HW248571   5.039   4.127   8.910 -1.9855  0.7966  1.6296
15056SOL     OW48572   7.907  10.062   5.260  0.8843  0.1215  0.0031
15056SOL    HW148573   7.925   9.999   5.191  1.5780  0.1970  0.1146
15056SOL    HW248574   7.982  10.121   5.260  1.7169 -0.8751  1.9365
15057SOL     OW48575   8.496   5.567   7.763 -0.7603 -0.1484  0.1621
15057SOL    HW148576   8.561   5.586   7.696 -0.1393  0.8846  1.0252
15057SOL    HW248577   8.534   5.495   7.813 -0.5256  0.0863  0.3259
15058SOL     OW48578   5.219  10.901   0.486  0.0295 -0.6679  0.1775
15058SOL    HW148579   5.254  10.940   0.406 -0.7379  0.9806  0.6227
15058SOL    HW248580   5.283  10.923   0.554 -1.0635  1.0233  0.6906
15059SOL     OW48581   7.410   3.067   8.063 -0.4859 -0.2862 -0.1358
15059SOL    HW148582   7.481   3.102   8.116 -0.5430 -0.0429 -0.2188
15059SOL    HW248583   7.449   3.052   7.977 -0.6262  0.1894 -0.2848
15060SOL     OW48584   7.852   8.953   3.020  0.0722 -0.0571  0.5184
15060SOL    HW148585   7.828   8.991   2.935 -0.2565 -0.7127  0.3093
15060SOL    HW248586   7.929   9.003   3.048  1.7876 -1.5288 -1.4054
15061SOL     OW48587   2.904   8.763   8.341  0.0274  0.1681  0.1084
15061SOL    HW148588   2.826   8.773   8.394  1.0319 -2.3694  2.1952
15061SOL    HW248589   2.976   8.795   8.397  1.0310 -2.0142  0.1143
15062SOL     OW48590   5.015   5.643  10.505 -0.0505  1.0176  0.6507
15062SOL    HW148591   5.100   5.606  10.485 -0.0107  0.5259  1.7293
15062SOL    HW248592   5.026   5.688  10.588 -0.9615  0.5361  1.0450
15063SOL     OW48593   8.551   0.111   8.707 -0.5184 -0.0788 -0.0257
15063SOL    HW148594   8.515   0.044   8.765 -0.2670  0.6055  0.9424
15063SOL    HW248595   8.475   0.160   8.676 -0.5261  0.6625  1.1358
15064SOL     OW48596   3.024   4.085  10.394  0.1850  0.3106  0.4025
15064SOL    HW148597   2.966   4.011  10.376  0.7208 -0.1318  0.5085
15064SOL    HW248598   2.968   4.162  10.381 -0.8326 -0.1490  1.9768
15065SOL     OW48599   9.833   4.785   4.372  0.0588 -0.4587 -0.3725
15065SOL    HW148600   9.810   4.722   4.304  0.1007  0.0527 -0.8688
15065SOL    HW248601   9.924   4.809   4.354  0.0922 -0.3760 -0.0987
15066SOL     OW48602   0.908  10.239   4.171  0.5001  0.0523  0.4804
15066SOL    HW148603   0.988  10.270   4.213  0.5281 -0.5086  0.8454
15066SOL    HW248604   0.855  10.205   4.243 -1.1929  2.8168  0.5982
15067SOL     OW48605  10.179   7.466   5.843 -0.1512 -0.0377  0.0619
15067SOL    HW148606  10.129   7.505   5.915 -1.1493 -0.6355 -0.2947
15067SOL    HW248607  10.113   7.448   5.776  0.7840  0.6791 -1.0766
15068SOL     OW48608   7.771   7.829  10.490 -0.2625 -0.5248  0.4551
15068SOL    HW148609   7.708   7.765  10.459 -0.2147 -0.7144  0.7416
15068SOL    HW248610   7.718   7.905  10.515 -0.2984 -0.3706 -0.0913
15069SOL     OW48611   5.141   4.897   3.450  0.4966 -0.4779  0.0828
15069SOL    HW148612   5.208   4.965   3.451  0.6932 -0.6767  0.5615
15069SOL    HW248613   5.074   4.930   3.390 -0.6690  1.3649  2.3113
15070SOL     OW48614   8.977   5.902   9.823  0.0740  0.3014 -0.3427
15070SOL    HW148615   9.048   5.901   9.759  1.5453  2.2671  1.1942
15070SOL    HW248616   9.019   5.878   9.906 -1.4968 -0.6250  0.2142
15071SOL     OW48617   0.433   8.610   3.264  0.0137 -0.4921  0.4571
15071SOL    HW148618   0.432   8.668   3.340  2.2816 -0.9359  0.8622
15071SOL    HW248619   0.519   8.623   3.225 -0.4803 -1.5500 -1.0386
15072SOL     OW48620   5.501   4.675   6.084  0.2718  0.1739 -0.1166
15072SOL    HW148621   5.564   4.723   6.137 -0.7116  1.1767  0.1541
15072SOL    HW248622   5.416   4.694   6.124 -0.4617  0.7962 -1.9249
15073SOL     OW48623   2.367   5.065   7.368 -0.1247 -0.9026 -0.3206
15073SOL    HW148624   2.358   5.124   7.443 -1.8690 -2.0588  0.4238
15073SOL    HW248625   2.455   5.028   7.376  0.6494  0.9142 -0.2961
15074SOL     OW48626   9.682   5.107   0.427 -0.5569 -0.5417 -0.0755
15074SOL    HW148627   9.731   5.162   0.488 -1.5572  0.4788 -0.1696
15074SOL    HW248628   9.606   5.078   0.476 -0.7234 -0.7459 -0.4499
15075SOL     OW48629   0.150   1.537   5.729  0.1614 -0.2160  0.2884
15075SOL    HW148630   0.110   1.495   5.806 -0.5310 -1.6568 -0.8386
15075SOL    HW248631   0.239   1.558   5.757 -0.8135  1.5036  2.2948
15076SOL     OW48632   5.884   3.538  10.040  0.2592 -0.3597  0.1497
15076SOL    HW148633   5.899   3.597  10.114  0.1311  1.6642 -1.3891
15076SOL    HW248634   5.825   3.471  10.074 -2.2377  2.2274  1.1011
15077SOL     OW48635   2.136   1.500   1.652 -0.4188 -0.7515 -0.5995
15077SOL    HW148636   2.052   1.503   1.698 -0.3553  0.4167 -0.5350
15077SOL    HW248637   2.195   1.552   1.707  0.0808 -0.7038 -1.1706
15078SOL     OW48638   2.855   6.861   6.263  0.5552  0.1736 -0.1253
15078SOL    HW148639   2.868   6.938   6.208  0.5119  1.1931  1.2854
15078SOL    HW248640   2.765   6.834   6.245  0.6971  0.2145 -0.9119
15079SOL     OW48641   5.368   0.180   2.555  0.8018  0.7341 -0.4256
15079SOL    HW148642   5.404   0.267   2.568 -0.6658  1.4433 -0.9425
15079SOL    HW248643   5.301   0.170   2.623 -0.5327  0.8859 -1.6733
15080SOL     OW48644  10.414   9.364   7.272 -0.9262 -0.4400 -0.4039
15080SOL    HW148645  10.346   9.304   7.241 -3.3863  1.3147  1.3795
15080SOL    HW248646  10.478   9.308   7.314 -1.2619 -2.1407 -2.0820
15081SOL     OW48647   0.693   8.735  10.738 -0.9210 -0.5628  0.0141
15081SOL    HW148648   0.642   8.659  10.712 -1.4610  0.5554 -2.3863
15081SOL    HW248649   0.784   8.711  10.719 -0.8707 -1.3905  1.2937
15082SOL     OW48650   0.687   2.344   3.626  0.4186 -0.0479 -0.1234
15082SOL    HW148651   0.602   2.387   3.620  1.0583  1.3021  0.3372
15082SOL    HW248652   0.750   2.412   3.603  1.2824 -1.5067 -2.2297
15083SOL     OW48653   7.311   0.838  10.340  0.1577  0.0104 -0.5846
15083SOL    HW148654   7.406   0.838  10.323 -0.0005 -2.2920 -1.6732
15083SOL    HW248655   7.283   0.749  10.318 -1.9434  0.0849  1.6038
15084SOL     OW48656  10.430   3.343   6.847  0.0230 -0.8833  0.2225
15084SOL    HW148657  10.502   3.389   6.891 -0.5798  0.3560 -0.0619
15084SOL    HW248658  10.442   3.362   6.754 -0.1210 -1.4748  0.0791
15085SOL     OW48659   2.896   0.958   4.318  0.4304 -0.6874  0.5754
15085SOL    HW148660   2.908   0.907   4.238  0.7055 -0.7320  0.6435
15085SOL    HW248661   2.909   0.894   4.389  0.3744 -0.6082  0.6567
15086SOL     OW48662   3.725   2.004   5.463 -0.2563 -0.1538 -0.0584
15086SOL    HW148663   3.768   2.076   5.508  0.6414 -1.3045  0.9499
15086SOL    HW248664   3.632   2.027   5.463 -0.2635 -0.0821  2.3014
15087SOL     OW48665  10.826   1.693   7.968  0.2009  0.2214 -0.5064
15087SOL    HW148666  10.919   1.689   7.990  0.0953  1.5216  0.2138
15087SOL    HW248667  10.781   1.669   8.048 -0.0835 -0.1527 -0.7804
15088SOL     OW48668   8.419   9.303   8.382  0.0354 -0.3001  0.0923
15088SOL    HW148669   8.360   9.333   8.314 -1.4577 -1.1907  0.9609
15088SOL    HW248670   8.364   9.296   8.460  1.5024 -0.2161  1.1598
15089SOL     OW48671   1.098   2.495   1.649  0.4565  0.4196 -0.8069
15089SOL    HW148672   1.003   2.490   1.644  0.5139 -0.3862 -1.1242
15089SOL    HW248673   1.129   2.434   1.582  1.1959  1.2102 -1.2009
15090SOL     OW48674   3.263   6.967   5.083 -0.8709  0.5833 -0.3204
15090SOL    HW148675   3.271   7.057   5.054 -1.6594  0.3621 -1.2615
15090SOL    HW248676   3.335   6.921   5.039  0.0393  0.8958  0.8095
15091SOL     OW48677   0.397   0.503   4.132 -0.2936 -0.2837  0.8807
15091SOL    HW148678   0.347   0.424   4.110 -1.0897  0.4621 -0.0034
15091SOL    HW248679   0.334   0.575   4.124  0.7917  0.6110  0.2449
15092SOL     OW48680   4.965   6.623  10.619 -0.8281 -0.2587 -0.7229
15092SOL    HW148681   5.048   6.662  10.591  1.5628 -3.5822  1.4142
15092SOL    HW248682   4.942   6.671  10.699  0.5284 -1.1949  0.2376
15093SOL     OW48683   7.247   1.203   7.037 -0.0584 -0.0969  0.0258
15093SOL    HW148684   7.159   1.240   7.030  0.3431  0.7697 -0.5330
15093SOL    HW248685   7.289   1.252   7.107 -0.0910 -0.6602  0.4418
15094SOL     OW48686   1.806   0.582   2.499  0.0354  0.3080 -0.1065
15094SOL    HW148687   1.756   0.500   2.501 -0.0742  0.4120  1.2994
15094SOL    HW248688   1.895   0.554   2.478  0.1518 -0.2503  1.1202
15095SOL     OW48689   3.320   1.064   1.472 -0.5697 -0.0248  0.2976
15095SOL    HW148690   3.293   0.973   1.483 -0.0929 -0.0578  1.2290
15095SOL    HW248691   3.358   1.089   1.556 -1.0013  1.1413  0.1672
15096SOL     OW48692   8.113   1.542   9.524 -0.1359  0.1021  0.1616
15096SOL    HW148693   8.128   1.470   9.585 -0.8963 -0.9770 -0.9023
15096SOL    HW248694   8.199   1.562   9.489 -0.0124 -0.7879 -0.0687
15097SOL     OW48695  10.548   1.930   2.462 -0.2178 -0.3261  0.2426
15097SOL    HW148696  10.521   2.016   2.492 -0.9298 -0.4344 -0.0766
15097SOL    HW248697  10.468   1.877   2.464  0.1980 -0.9679  0.3881
15098SOL     OW48698   6.928   8.975   0.837  0.1713  0.0238  0.4817
15098SOL    HW148699   6.834   8.984   0.853  0.0093 -1.2814  0.2776
15098SOL    HW248700   6.934   8.930   0.753  0.9786 -0.0187  0.5600
15099SOL     OW48701   6.508   8.402   9.738  0.0645 -0.1655  0.1127
15099SOL    HW148702   6.570   8.469   9.709 -0.5627 -0.2908 -1.5900
15099SOL    HW248703   6.427   8.449   9.755  0.3541 -0.1338  1.4486
15100SOL     OW48704   8.931   8.062   8.478 -0.4117  0.1733 -0.3539
15100SOL    HW148705   8.946   8.028   8.566 -0.9143 -3.6190 -1.6281
15100SOL    HW248706   8.837   8.053   8.464 -0.3354  0.6688 -1.2633
15101SOL     OW48707   6.408   7.889   6.119 -0.0147 -0.0941  0.0384
15101SOL    HW148708   6.469   7.845   6.177 -0.1390 -0.3525 -0.0247
15101SOL    HW248709   6.402   7.979   6.153 -0.2223 -0.2930  0.5294
15102SOL     OW48710   0.151   6.659   2.359 -0.3584 -0.5945 -0.0555
15102SOL    HW148711   0.233   6.658   2.408 -0.4116  2.9090  0.2516
15102SOL    HW248712   0.087   6.621   2.419 -0.1666  2.4697  2.2217
15103SOL     OW48713   4.668   3.365   5.019 -0.0798 -0.6951 -0.0634
15103SOL    HW148714   4.616   3.287   5.000  0.3389 -0.8273 -0.6798
15103SOL    HW248715   4.752   3.349   4.976 -0.0231  0.1323 -0.2722
15104SOL     OW48716   7.627   2.037   5.651 -0.2786 -0.2212  0.1544
15104SOL    HW148717   7.709   2.043   5.700  0.1968 -0.3169 -0.6195
15104SOL    HW248718   7.637   2.100   5.580 -0.5581 -0.8130 -0.4084
15105SOL     OW48719   6.617   7.158  10.596  0.1135  0.1353 -0.3827
15105SOL    HW148720   6.550   7.116  10.651 -0.4723  0.6623 -0.6782
15105SOL    HW248721   6.585   7.248  10.585 -0.2063 -0.1832 -2.2596
15106SOL     OW48722   5.550   9.557   4.189 -0.6644  0.2254  0.5709
15106SOL    HW148723   5.547   9.640   4.236 -2.8264  0.0853  0.7552
15106SOL    HW248724   5.551   9.581   4.097  1.1178  0.4725  0.6461
15107SOL     OW48725  10.716   5.134   8.076 -0.3468 -0.4615  0.0069
15107SOL    HW148726  10.664   5.155   8.153 -2.4737 -1.4271 -1.1335
15107SOL    HW248727  10.712   5.039   8.068  1.0004 -0.4941 -0.5092
15108SOL     OW48728   9.195   6.967   5.542 -0.0534  0.3891  0.1138
15108SOL    HW148729   9.266   6.982   5.481 -1.2452  0.0456 -1.3879
15108SOL    HW248730   9.203   6.874   5.566 -2.8078 -0.9591 -3.7864
15109SOL     OW48731   3.747   8.208   4.405 -0.8329 -0.2023 -0.1089
15109SOL    HW148732   3.807   8.137   4.382  0.2190  0.9622 -1.0039
15109SOL    HW248733   3.733   8.255   4.322 -0.3553  1.5183  0.7685
15110SOL     OW48734   4.726   5.284   1.464 -0.5220 -0.6403 -0.1512
15110SOL    HW148735   4.630   5.292   1.464 -0.3329  2.2263 -1.6023
15110SOL    HW248736   4.755   5.337   1.538 -0.0259 -1.1532  0.0256
15111SOL     OW48737   3.741   9.541   9.806  0.3934 -0.2137 -0.1785
15111SOL    HW148738   3.750   9.517   9.714 -0.0027 -0.3510 -0.1816
15111SOL    HW248739   3.818   9.503   9.848 -0.5477 -2.0559 -0.0725
15112SOL     OW48740   7.585   3.381   0.934 -0.6967 -0.2849  0.4454
15112SOL    HW148741   7.535   3.312   0.889 -2.0412  1.0873 -0.2269
15112SOL    HW248742   7.561   3.371   1.026 -0.0236 -1.4156  0.5009
15113SOL     OW48743  10.557   9.810   6.763  0.0138 -0.0502  0.0979
15113SOL    HW148744  10.579   9.857   6.683  0.4444 -1.0277 -0.3598
15113SOL    HW248745  10.523   9.878   6.822  0.8811  0.8702 -0.4561
15114SOL     OW48746   8.150   3.444   1.551 -0.4533  0.3616 -0.1375
15114SOL    HW148747   8.142   3.448   1.646  0.3218 -0.0285 -0.0536
15114SOL    HW248748   8.060   3.449   1.519 -0.8021 -0.8442  0.6534
15115SOL     OW48749   8.785  10.266   0.008  0.4414  0.0186 -0.0005
15115SOL    HW148750   8.811  10.191   0.061 -0.4583 -0.4403 -0.1972
15115SOL    HW248751   8.691  10.275   0.024  0.5017  0.9742 -0.1391
15116SOL     OW48752   8.191   9.356   7.055  0.0843  0.0878 -0.1286
15116SOL    HW148753   8.122   9.400   7.005 -0.2277 -1.2765 -0.9346
15116SOL    HW248754   8.216   9.418   7.123 -1.0869  1.0726 -0.5942
15117SOL     OW48755   6.479   1.370   3.147 -0.4526  0.1128  0.1196
15117SOL    HW148756   6.395   1.416   3.153  0.0157  1.1853 -1.2859
15117SOL    HW248757   6.535   1.411   3.212 -1.0569 -0.7231  1.1838
15118SOL     OW48758   7.470   2.199   7.667 -0.0793  0.4683  0.1007
15118SOL    HW148759   7.385   2.242   7.677 -1.0296 -1.5762  1.0664
15118SOL    HW248760   7.457   2.134   7.598  0.6557  0.0197  0.3747
15119SOL     OW48761  10.912   6.125  10.144  0.2425 -0.0282 -0.3255
15119SOL    HW148762  10.863   6.136  10.225  0.9018  0.1267  0.0540
15119SOL    HW248763  10.875   6.046  10.104 -1.3975  0.9542 -0.8290
15120SOL     OW48764   3.179   0.178   9.728  0.1360 -0.4288 -0.7171
15120SOL    HW148765   3.265   0.212   9.707 -0.0704 -0.6497 -1.9771
15120SOL    HW248766   3.142   0.151   9.644 -1.4435  0.3134 -0.2860
15121SOL     OW48767  10.301   9.290   9.392  0.6471 -0.2254 -0.0463
15121SOL    HW148768  10.262   9.355   9.335 -0.5591 -1.1207 -0.2689
15121SOL    HW248769  10.311   9.212   9.336  0.7070 -0.6829  0.5901
15122SOL     OW48770   5.909   6.918   1.413 -0.4922  0.4111 -0.0885
15122SOL    HW148771   5.937   6.853   1.349 -1.4487 -1.3743  1.2504
15122SOL    HW248772   5.856   6.980   1.363 -2.7547 -1.9762 -0.7344
15123SOL     OW48773   6.876   2.139   5.799 -0.0509 -0.1426  0.4741
15123SOL    HW148774   6.963   2.178   5.807  1.4651 -3.0119 -1.1207
15123SOL    HW248775   6.831   2.194   5.734  1.2761  0.2181 -0.1574
15124SOL     OW48776   4.186   2.453   2.604 -0.6144 -0.5577  0.1576
15124SOL    HW148777   4.222   2.413   2.683 -2.1638  0.6639  1.5013
15124SOL    HW248778   4.114   2.394   2.578 -0.6299 -0.5196  0.1145
15125SOL     OW48779   1.147   7.873   5.128  0.0917 -0.2413 -0.0811
15125SOL    HW148780   1.154   7.965   5.105  1.3578  0.4726  2.9679
15125SOL    HW248781   1.228   7.834   5.094  0.4408  0.1527  0.2918
15126SOL     OW48782   8.898   2.262   0.977  0.0089  0.0701 -0.6314
15126SOL    HW148783   8.905   2.358   0.984 -0.4676  0.0398  0.4770
15126SOL    HW248784   8.806   2.247   0.954 -1.4197 -0.3061  4.6941
15127SOL     OW48785   2.184   1.185   0.909 -0.7336  0.2034 -0.6462
15127SOL    HW148786   2.243   1.139   0.969 -0.4822 -1.2171 -1.9523
15127SOL    HW248787   2.105   1.200   0.961 -0.8227 -1.7066 -0.1856
15128SOL     OW48788   7.274   2.436   2.619  0.3278  0.1899 -0.0818
15128SOL    HW148789   7.288   2.529   2.605  1.1910 -0.1178 -1.3612
15128SOL    HW248790   7.343   2.411   2.680  0.3720  0.3000 -0.0862
15129SOL     OW48791   9.326   5.549   1.078  0.0167 -0.4770 -0.0799
15129SOL    HW148792   9.382   5.475   1.102 -2.4612 -2.3821  0.0390
15129SOL    HW248793   9.321   5.545   0.982  1.0631  0.4989 -0.2025
15130SOL     OW48794   6.637   9.271   6.682  0.0498 -0.2013  0.1514
15130SOL    HW148795   6.726   9.300   6.662 -0.2117  0.9928  0.6844
15130SOL    HW248796   6.600   9.341   6.736 -1.5778 -0.2030 -0.9241
15131SOL     OW48797   0.180   6.882   4.785  0.4540 -0.0754 -0.0826
15131SOL    HW148798   0.258   6.935   4.770  0.3210 -0.1024 -0.9075
15131SOL    HW248799   0.191   6.847   4.874  0.6044  1.2206  0.4110
15132SOL     OW48800   6.342   2.282   3.453  0.2192 -0.1722 -0.0099
15132SOL    HW148801   6.414   2.305   3.511 -0.3014 -2.1051  1.4471
15132SOL    HW248802   6.274   2.347   3.471  0.1306 -0.6458  1.4362
15133SOL     OW48803   9.155   9.057   6.258 -0.1031  0.0537 -0.1290
15133SOL    HW148804   9.211   8.985   6.287 -0.8308 -1.0395 -1.4114
15133SOL    HW248805   9.131   9.102   6.339  0.8653 -0.7679  0.6277
15134SOL     OW48806   1.930   1.305   8.923  0.0592  0.0028 -0.4841
15134SOL    HW148807   1.986   1.329   8.997 -0.3955 -0.3517 -0.0226
15134SOL    HW248808   1.841   1.310   8.957 -0.3434  2.4280 -1.7220
15135SOL     OW48809   0.523   6.302   6.222  0.5953 -0.1829 -0.5295
15135SOL    HW148810   0.558   6.364   6.286  0.0952  0.4449 -0.8613
15135SOL    HW248811   0.569   6.220   6.241  2.6193  0.7300 -1.2495
15136SOL     OW48812   6.590   1.925   5.638 -0.2129 -0.1213  0.3316
15136SOL    HW148813   6.528   1.862   5.602 -0.3571  0.9552 -1.3666
15136SOL    HW248814   6.647   1.947   5.564  1.1334  0.1803  1.4319
15137SOL     OW48815   3.198   4.325   9.408  0.0296  0.3825 -0.0383
15137SOL    HW148816   3.125   4.277   9.370 -1.4447  0.2722  2.8350
15137SOL    HW248817   3.173   4.417   9.401  0.4430  0.4524 -0.6748
15138SOL     OW48818   7.387   1.213   7.490 -0.6405 -0.0563 -0.1556
15138SOL    HW148819   7.373   1.119   7.500 -1.9044  0.0890 -0.4939
15138SOL    HW248820   7.479   1.221   7.465 -0.4798 -1.1866  0.0466
15139SOL     OW48821   2.148   4.929   4.827 -0.5647  0.0838 -0.3842
15139SOL    HW148822   2.206   4.856   4.806  0.7423  1.2699 -0.9033
15139SOL    HW248823   2.172   4.998   4.765 -0.4298  1.6653  1.4109
15140SOL     OW48824   2.556  10.017   3.631  0.0704 -0.9801 -0.0027
15140SOL    HW148825   2.528   9.945   3.574 -3.7850  0.7702 -0.4869
15140SOL    HW248826   2.504  10.005   3.711 -0.1039  0.8354  0.1750
15141SOL     OW48827   7.145   6.489   8.256 -0.2945 -0.3535  0.4101
15141SOL    HW148828   7.107   6.402   8.247  0.2411 -0.6606  1.1552
15141SOL    HW248829   7.205   6.497   8.182 -0.1523 -0.7108  0.4903
15142SOL     OW48830   4.435   1.778   4.916  0.0278 -0.8605  0.2440
15142SOL    HW148831   4.485   1.841   4.865 -3.3068  1.2300 -0.6397
15142SOL    HW248832   4.474   1.781   5.003  0.4414  1.9454  0.0274
15143SOL     OW48833   2.242   2.345  10.784  0.2230  0.3140 -0.2302
15143SOL    HW148834   2.201   2.409  10.841  0.0657 -0.5904  0.6953
15143SOL    HW248835   2.208   2.260  10.815  1.3439 -0.3023 -0.6636
15144SOL     OW48836  10.227   0.888   5.783  0.0350 -0.0779  0.4068
15144SOL    HW148837  10.160   0.862   5.721 -0.1736 -1.0548  1.0463
15144SOL    HW248838  10.200   0.975   5.812  0.5061  0.6996 -1.3906
15145SOL     OW48839   9.101  10.858   1.736 -0.5951 -0.0597  0.0393
15145SOL    HW148840   9.044  10.926   1.772 -0.3802  0.5018 -0.6643
15145SOL    HW248841   9.164  10.906   1.682  1.6350 -0.4994  2.1687
15146SOL     OW48842   2.124   2.896   2.635  0.0967 -0.2831  0.4415
15146SOL    HW148843   2.121   2.805   2.664  0.5806 -0.2188  0.6947
15146SOL    HW248844   2.216   2.913   2.618 -0.1527 -0.2722 -0.9966
15147SOL     OW48845  10.302   8.513   9.553 -0.7637  0.1713  0.0028
15147SOL    HW148846  10.209   8.524   9.535 -0.8089  3.8336  2.1109
15147SOL    HW248847  10.346   8.539   9.472 -1.4961  0.8817 -0.1661
15148SOL     OW48848  10.096   5.666   7.354  0.1976 -0.0120 -0.1681
15148SOL    HW148849  10.019   5.700   7.309 -1.0231 -2.3820  0.0155
15148SOL    HW248850  10.133   5.741   7.400 -1.2817  1.4198 -1.2750
15149SOL     OW48851   8.189   8.024  10.090 -0.3358  0.0490 -0.3878
15149SOL    HW148852   8.177   8.018  10.185 -0.8394 -1.4628 -0.5387
15149SOL    HW248853   8.198   7.934  10.061 -0.1889  0.4997 -1.7861
15150SOL     OW48854   6.770   7.665   5.790 -0.2939  0.2874 -0.4156
15150SOL    HW148855   6.726   7.682   5.706 -1.0494 -0.5720 -0.1953
15150SOL    HW248856   6.857   7.633   5.766 -0.6034 -0.2062 -0.8696
15151SOL     OW48857   5.256   8.236   1.079 -0.7856  0.5796  0.4464
15151SOL    HW148858   5.169   8.196   1.089  0.2130 -1.2753  2.0873
15151SOL    HW248859   5.238   8.325   1.049 -3.1649 -0.4170 -1.2453
15152SOL     OW48860   6.314   0.119   0.691  0.1350  0.1514  0.1687
15152SOL    HW148861   6.231   0.072   0.701 -0.0462  0.5037  0.3079
15152SOL    HW248862   6.331   0.118   0.596  0.9301 -1.5720  0.2946
15153SOL     OW48863   4.971   3.685   2.002 -0.1643 -0.0288  0.0849
15153SOL    HW148864   4.965   3.599   1.960  1.0646 -0.8192  1.4546
15153SOL    HW248865   4.905   3.682   2.072 -0.5071  0.3669 -0.2149
15154SOL     OW48866   7.411   2.953   6.685  0.1952  0.4138  0.0797
15154SOL    HW148867   7.351   3.006   6.633  1.1224  1.7047  0.3135
15154SOL    HW248868   7.498   2.982   6.658  0.7046 -0.3054  0.9271
15155SOL     OW48869   7.718   2.137  10.854 -0.2290  0.2426 -0.3305
15155SOL    HW148870   7.748   2.167  10.940  0.1801  1.7667 -0.9846
15155SOL    HW248871   7.797   2.103  10.813 -0.6967 -1.7718  0.4152
15156SOL     OW48872   3.850   6.778   4.841 -0.0811 -0.1018  0.2106
15156SOL    HW148873   3.934   6.752   4.879 -0.4035  1.2873  1.9649
15156SOL    HW248874   3.806   6.695   4.822  1.8577 -0.8424 -1.1542
15157SOL     OW48875   2.848   1.677   9.998  0.0304 -0.3531  0.6579
15157SOL    HW148876   2.853   1.660  10.092 -0.5230  0.3962  0.8310
15157SOL    HW248877   2.756   1.663   9.977  0.5214 -2.4941 -0.1726
15158SOL     OW48878   3.334   1.904   7.624  0.6888  0.1671 -0.1842
15158SOL    HW148879   3.421   1.867   7.642  1.3393  1.7237  0.0301
15158SOL    HW248880   3.296   1.845   7.560  1.9183 -0.5466 -0.2862
15159SOL     OW48881   9.198   9.553   2.653  0.0142 -0.4514  0.2784
15159SOL    HW148882   9.218   9.644   2.674 -0.1869  0.0001 -1.4317
15159SOL    HW248883   9.132   9.558   2.584 -0.0802 -1.9008  0.2462
15160SOL     OW48884   0.299   8.404   2.033 -0.3327  0.2765 -0.0604
15160SOL    HW148885   0.275   8.472   2.094  0.6846  1.8086 -1.3186
15160SOL    HW248886   0.216   8.370   2.000 -0.8557  0.3376  1.1729
15161SOL     OW48887   0.083   0.811   6.749 -0.0872  0.5365 -0.1617
15161SOL    HW148888   0.138   0.881   6.785  1.0977  0.9960 -2.7265
15161SOL    HW248889   0.047   0.848   6.668 -1.5110 -0.9354 -0.2250
15162SOL     OW48890   3.389   7.892   5.320  0.4833 -0.6205 -0.1708
15162SOL    HW148891   3.398   7.823   5.385 -0.1196 -0.8901 -0.3757
15162SOL    HW248892   3.345   7.851   5.245 -0.4129  0.1146 -0.0677
15163SOL     OW48893   4.881   8.427   7.180  0.3851  0.1150 -0.0481
15163SOL    HW148894   4.800   8.377   7.196  0.1312  0.6917  0.4572
15163SOL    HW248895   4.950   8.360   7.182 -0.0431 -0.3442 -0.2366
15164SOL     OW48896  10.137  10.861   8.361 -0.0412 -0.0616 -0.2283
15164SOL    HW148897  10.170  10.840   8.448  0.3253  0.0854 -0.3305
15164SOL    HW248898  10.067  10.798   8.346 -0.7115  0.4960  0.5466
15165SOL     OW48899   8.458   0.130   5.390  0.1195 -0.5086  0.4769
15165SOL    HW148900   8.474   0.130   5.484  0.8552  0.9978  0.3785
15165SOL    HW248901   8.545   0.146   5.352 -0.3993  0.2381 -0.3979
15166SOL     OW48902   4.167   2.550   5.562 -0.1057  0.0538 -0.0310
15166SOL    HW148903   4.078   2.514   5.567 -0.4778  0.9735  0.0023
15166SOL    HW248904   4.224   2.475   5.580 -0.8587 -0.6321 -0.4670
15167SOL     OW48905   1.543   3.602   4.394  0.1612 -0.2145  0.7851
15167SOL    HW148906   1.536   3.664   4.467  0.4051  0.3484  0.3359
15167SOL    HW248907   1.546   3.516   4.436 -0.7480  0.0386  1.3905
15168SOL     OW48908   6.551   4.797   4.461 -0.1937  0.1511 -0.2492
15168SOL    HW148909   6.494   4.758   4.527 -0.1829 -0.1994 -0.4405
15168SOL    HW248910   6.593   4.722   4.420 -2.6371  0.1152 -2.8775
15169SOL     OW48911   9.386   6.258   2.961 -0.4709 -0.0986 -0.1189
15169SOL    HW148912   9.364   6.346   2.930 -0.2536 -0.8923 -2.5747
15169SOL    HW248913   9.355   6.199   2.892  1.3581 -1.7981  0.4726
15170SOL     OW48914   8.517  10.445   4.588  0.2916  0.1071  0.2332
15170SOL    HW148915   8.464  10.471   4.513 -0.0014  1.9442  1.0562
15170SOL    HW248916   8.507  10.349   4.592 -2.0094  0.2888 -0.3515
15171SOL     OW48917   2.632   9.078  10.044  0.3528  0.3670  0.0541
15171SOL    HW148918   2.683   9.146  10.088  0.7800  0.8369 -1.1517
15171SOL    HW248919   2.560   9.126  10.001 -1.8915 -0.4094  2.7798
15172SOL     OW48920   4.111   4.894  10.857  0.5152 -0.0705 -0.5172
15172SOL    HW148921   4.158   4.840  10.794  3.0387  0.7705  0.5930
15172SOL    HW248922   4.081   4.832  10.924  2.0247 -0.3246 -0.0628
15173SOL     OW48923   6.878   2.789   9.299  0.2387 -0.2508  0.2147
15173SOL    HW148924   6.950   2.787   9.237  0.4361 -1.5512  0.4743
15173SOL    HW248925   6.903   2.855   9.364 -0.0737  1.2756 -1.1988
15174SOL     OW48926   2.076   4.781   8.547  0.7783  0.6367  0.3950
15174SOL    HW148927   2.094   4.753   8.457  0.0601  1.9520 -0.1808
15174SOL    HW248928   2.098   4.874   8.547 -2.2350  1.4049  0.7150
15175SOL     OW48929   3.800   2.762   2.705  0.3385  0.2410 -0.1782
15175SOL    HW148930   3.852   2.824   2.654 -0.6452 -0.2611 -1.8656
15175SOL    HW248931   3.815   2.677   2.662  0.4203 -0.4110  1.1180
15176SOL     OW48932   3.340   4.446   5.663 -0.2319 -0.3860 -0.2642
15176SOL    HW148933   3.311   4.504   5.733 -2.5175  0.1407 -1.5943
15176SOL    HW248934   3.424   4.481   5.635 -0.1642  0.4694  0.9818
15177SOL     OW48935   5.671   7.898   6.541  0.3769 -0.0590 -0.3966
15177SOL    HW148936   5.754   7.851   6.554  0.6751  0.6211  0.1980
15177SOL    HW248937   5.618   7.873   6.617  0.3898  0.2506 -0.2837
15178SOL     OW48938   4.202   5.122  10.380  0.7290  0.4022 -0.3640
15178SOL    HW148939   4.200   5.037  10.336  0.6930  0.6683 -0.8810
15178SOL    HW248940   4.241   5.181  10.316  0.5271  0.8286 -0.0949
15179SOL     OW48941   8.877   4.983   9.384 -0.0583  0.2677  0.1218
15179SOL    HW148942   8.855   5.023   9.300 -1.2810  1.3012  0.9106
15179SOL    HW248943   8.836   4.897   9.382  0.7409 -0.1084 -0.7151
15180SOL     OW48944   4.150   9.590   1.053  0.4672 -0.0068 -0.3470
15180SOL    HW148945   4.122   9.501   1.077  0.8480 -0.3214 -1.0495
15180SOL    HW248946   4.068   9.635   1.031  0.1227  0.2523  1.3970
15181SOL     OW48947   5.803  10.301  10.229 -0.5726  0.3436  0.3539
15181SOL    HW148948   5.779  10.394  10.232  3.1607  1.3982  0.1941
15181SOL    HW248949   5.832  10.287  10.139 -0.9857 -0.9695  0.4231
15182SOL     OW48950   2.243   3.321   6.728 -0.1148 -0.4655 -0.0232
15182SOL    HW148951   2.305   3.292   6.794 -1.0336  0.3704  1.2196
15182SOL    HW248952   2.297   3.367   6.663  0.5553  0.4369  1.1448
15183SOL     OW48953   1.137   4.304   7.635 -0.2661  0.6158 -0.0968
15183SOL    HW148954   1.090   4.387   7.640  0.1476  0.8451  0.0449
15183SOL    HW248955   1.229   4.328   7.648 -0.1740  0.1042  0.2204
15184SOL     OW48956   2.251   7.906   7.289  1.1184  0.7924  0.7267
15184SOL    HW148957   2.239   7.823   7.335  0.9575  1.4538  1.9038
15184SOL    HW248958   2.206   7.894   7.206  1.0687 -0.2854  0.9017
15185SOL     OW48959   6.064   2.947   5.784 -0.1085 -0.3695  0.2429
15185SOL    HW148960   6.004   2.874   5.772  0.7307 -1.1582  0.7247
15185SOL    HW248961   6.150   2.906   5.791  0.5158  0.7587 -0.6539
15186SOL     OW48962   0.343  10.071   9.624 -0.0261  0.3415 -0.3306
15186SOL    HW148963   0.368  10.162   9.641 -1.6138  0.5562  0.9494
15186SOL    HW248964   0.426  10.026   9.609  0.7837  1.9710 -0.8508
15187SOL     OW48965   7.046   1.828  10.029 -0.2497 -0.2306  0.3086
15187SOL    HW148966   6.991   1.764   9.984  0.7860 -1.6760  1.0203
15187SOL    HW248967   7.047   1.799  10.121  0.9962  0.2382  0.4625
15188SOL     OW48968   1.724   5.040   4.801 -0.7498 -0.2231  0.2142
15188SOL    HW148969   1.680   5.113   4.844  2.1953  0.0840  2.9524
15188SOL    HW248970   1.735   5.069   4.710 -0.9465  2.1375  0.8935
15189SOL     OW48971   8.034   2.422  10.762  0.2058 -0.3354 -0.2075
15189SOL    HW148972   8.052   2.491  10.825  1.4477 -1.7210  0.9980
15189SOL    HW248973   7.972   2.365  10.807  0.7233 -1.0680 -0.4186
15190SOL     OW48974   9.168   1.940   9.270  0.1090  0.2059  0.0542
15190SOL    HW148975   9.212   1.888   9.338  0.9499  0.3835 -0.3592
15190SOL    HW248976   9.196   2.030   9.286 -0.3542  0.3688 -0.0199
15191SOL     OW48977   8.792   6.573   3.337 -0.6365 -0.3251  0.1896
15191SOL    HW148978   8.823   6.503   3.394  2.8499  0.4073 -0.6581
15191SOL    HW248979   8.805   6.653   3.388 -1.3666 -0.0135 -0.1142
15192SOL     OW48980   9.206   6.183  10.005  0.3164 -0.1752 -0.2208
15192SOL    HW148981   9.137   6.201   9.942 -0.0390  0.2000  0.2740
15192SOL    HW248982   9.279   6.150   9.952  0.9826  2.6835 -1.1416
15193SOL     OW48983   8.221   0.341   5.422  0.2071 -0.1914  0.4166
15193SOL    HW148984   8.225   0.246   5.431 -0.2695 -0.1013  1.6660
15193SOL    HW248985   8.296   0.363   5.367 -0.0771 -1.3553 -0.4558
15194SOL     OW48986   2.752   4.560   3.586  0.3235  0.0898 -0.0916
15194SOL    HW148987   2.810   4.605   3.524  0.5925  1.0046  0.7985
15194SOL    HW248988   2.664   4.573   3.551  0.6762 -1.6664 -1.6781
15195SOL     OW48989   0.473   0.623   2.134  0.0370  0.5196  0.0273
15195SOL    HW148990   0.395   0.592   2.181 -0.2445 -0.9915 -1.3631
15195SOL    HW248991   0.483   0.560   2.062  1.4352  1.8084 -0.9194
15196SOL     OW48992   4.695   6.135   5.828 -0.1267  0.1856 -0.3350
15196SOL    HW148993   4.699   6.209   5.767 -1.3169 -0.0543 -0.7213
15196SOL    HW248994   4.776   6.141   5.878  0.6844  0.6334 -1.6596
15197SOL     OW48995   5.171   5.037   2.197  0.1689 -0.0905 -0.6424
15197SOL    HW148996   5.119   4.999   2.268  0.8043 -0.7539 -0.5265
15197SOL    HW248997   5.261   5.034   2.230  0.2323  1.4488 -0.6609
15198SOL     OW48998   2.580   0.330   0.063  0.3009 -0.1721 -0.1697
15198SOL    HW148999   2.557   0.248   0.020 -2.6511 -0.2540  1.4613
15198SOL    HW249000   2.619   0.303   0.146  2.3944  0.0565 -1.0502
15199SOL     OW49001   9.482   0.092   6.084  0.0722  0.7073 -0.8351
15199SOL    HW149002   9.567   0.134   6.100 -0.2503  0.5337  1.4774
15199SOL    HW249003   9.494   0.001   6.111 -1.2981  1.0799  1.1527
15200SOL     OW49004   3.147   4.575   0.542  1.0347 -0.4155 -0.9071
15200SOL    HW149005   3.142   4.613   0.454 -0.7478  0.4774 -0.4330
15200SOL    HW249006   3.079   4.507   0.542  1.9802 -1.3854 -0.6579
15201SOL     OW49007   2.012   8.764   7.763  0.5297  0.1352 -0.3621
15201SOL    HW149008   2.017   8.757   7.858  0.2513 -0.9276 -0.4264
15201SOL    HW249009   1.931   8.719   7.739  0.6195  0.3574 -1.1056
15202SOL     OW49010   4.398   5.752   1.278  0.6729 -0.5233  0.1153
15202SOL    HW149011   4.337   5.772   1.207 -0.5245 -0.4363  1.1526
15202SOL    HW249012   4.439   5.836   1.298  1.1652 -0.5891 -0.6154
15203SOL     OW49013   3.571   9.793  10.274 -0.3171 -0.0731  0.0835
15203SOL    HW149014   3.512   9.856  10.233 -1.3804 -0.5766  0.8191
15203SOL    HW249015   3.613   9.749  10.201  0.2235  1.2849 -0.4397
15204SOL     OW49016   8.515   3.401   7.657  0.1130 -0.0343 -0.3010
15204SOL    HW149017   8.445   3.465   7.644  0.4360  0.2826 -0.4722
15204SOL    HW249018   8.539   3.373   7.569 -0.1348 -0.5053 -0.2199
15205SOL     OW49019   3.413   1.062   2.727  0.4392  0.7790 -0.3300
15205SOL    HW149020   3.467   0.984   2.740  0.9201  1.3467  1.2409
15205SOL    HW249021   3.475   1.135   2.732  0.1792  1.2140 -3.0262
15206SOL     OW49022   7.707   0.979   9.419 -0.0098  0.0641 -0.8675
15206SOL    HW149023   7.734   1.052   9.362  0.4821  1.1235  0.6795
15206SOL    HW249024   7.770   0.982   9.491 -0.7740 -1.1170 -0.1538
15207SOL     OW49025   0.495  10.832  10.602  0.3887  0.1285 -0.9260
15207SOL    HW149026   0.569  10.772  10.591 -0.4357 -0.9839 -0.5146
15207SOL    HW249027   0.520  10.910  10.553  1.8429 -0.2213 -0.7790
15208SOL     OW49028   1.800   5.238   0.796  0.4559 -0.1476 -0.1346
15208SOL    HW149029   1.826   5.307   0.736 -1.1039 -0.6524 -1.4142
15208SOL    HW249030   1.759   5.284   0.870  1.1989  0.3999 -0.0675
15209SOL     OW49031   8.303   3.130   7.705 -0.8166  0.1939  0.2521
15209SOL    HW149032   8.393   3.159   7.718 -0.1503 -1.8373  0.3156
15209SOL    HW249033   8.259   3.150   7.788 -0.3518  0.9271  0.3243
15210SOL     OW49034   1.518   6.412   9.756  0.1291 -0.0425  0.2978
15210SOL    HW149035   1.472   6.338   9.716 -1.0755  2.0449 -2.2977
15210SOL    HW249036   1.589   6.432   9.694  0.0945  1.3389  0.7060
15211SOL     OW49037  10.678  10.028   0.387 -0.0445 -0.6438 -0.0355
15211SOL    HW149038  10.649  10.113   0.355  1.6695  0.0937  0.3203
15211SOL    HW249039  10.733   9.994   0.317 -0.1002 -1.1205  0.1510
15212SOL     OW49040  10.632   8.052   1.903  0.2431  0.3546  0.1372
15212SOL    HW149041  10.612   8.143   1.926 -0.8571 -0.1578  1.3028
15212SOL    HW249042  10.663   8.013   1.984 -1.4928 -0.8986  0.2300
15213SOL     OW49043   2.461   8.511   3.317 -0.2187  0.6246  0.1391
15213SOL    HW149044   2.455   8.416   3.306 -0.6886  0.9599 -2.9910
15213SOL    HW249045   2.554   8.531   3.303 -0.1364  0.6210  0.7004
15214SOL     OW49046   3.123  10.799   8.952 -0.2328 -0.0787  0.3451
15214SOL    HW149047   3.193  10.864   8.945 -0.6512  0.1574 -2.0712
15214SOL    HW249048   3.169  10.715   8.950  0.0501  0.0883 -0.2649
15215SOL     OW49049   3.785  10.284   3.317  0.6503 -0.0169  0.2782
15215SOL    HW149050   3.857  10.238   3.275  0.1630 -0.0597 -0.5236
15215SOL    HW249051   3.750  10.341   3.249 -0.3912 -0.3690  0.4976
15216SOL     OW49052   4.939   5.529   6.831 -0.1575 -0.4772  0.9881
15216SOL    HW149053   4.864   5.585   6.808  1.2579  0.2539 -1.9731
15216SOL    HW249054   4.902   5.441   6.836 -1.3032 -0.0656  0.0147
15217SOL     OW49055   2.738   0.396   5.795 -0.1014 -0.0215  0.2313
15217SOL    HW149056   2.678   0.457   5.838 -1.2229 -0.9599  0.0150
15217SOL    HW249057   2.767   0.338   5.865 -0.0529 -0.0545  0.1837
15218SOL     OW49058   7.824   7.087   4.229 -0.7328 -0.0589  0.5190
15218SOL    HW149059   7.796   6.996   4.219 -0.7729  0.0572 -0.4005
15218SOL    HW249060   7.823   7.101   4.324 -3.3688 -0.1885  0.5525
15219SOL     OW49061   5.691  10.790   8.821 -0.6207 -0.1405  0.0736
15219SOL    HW149062   5.741  10.820   8.897  0.8235 -0.5621 -0.6817
15219SOL    HW249063   5.618  10.741   8.858  0.5449 -1.0809  1.1760
15220SOL     OW49064  10.810  10.136   8.614  0.4551  0.5408  0.5464
15220SOL    HW149065  10.784  10.171   8.529  0.1453  1.7667  1.1338
15220SOL    HW249066  10.727  10.117   8.658  0.5952  1.2115  1.1031
15221SOL     OW49067   7.834   5.634   8.865 -0.1111  0.4391 -0.0588
15221SOL    HW149068   7.818   5.550   8.908  0.6905 -0.2547 -1.0948
15221SOL    HW249069   7.929   5.635   8.848  0.1549  2.2427  1.3652
15222SOL     OW49070  10.939  10.785   6.557  0.3498  0.1615 -0.2583
15222SOL    HW149071  10.925  10.740   6.641 -2.2211  1.6110  0.1561
15222SOL    HW249072  10.851  10.796   6.521  0.9921  3.5953 -0.9832
15223SOL     OW49073   1.457   5.502   2.621 -0.4143  0.2832  0.1388
15223SOL    HW149074   1.482   5.518   2.530  0.1304 -1.4520 -0.0407
15223SOL    HW249075   1.369   5.464   2.615 -0.8338  1.2018  0.4131
15224SOL     OW49076  10.010   3.265   2.484  0.1040 -0.1305 -0.4612
15224SOL    HW149077   9.988   3.177   2.515  0.9114 -0.0694  0.3178
15224SOL    HW249078  10.034   3.254   2.392  2.0209 -1.0256  0.1219
15225SOL     OW49079   1.293   4.547   9.153 -0.1670 -0.5436  0.0675
15225SOL    HW149080   1.271   4.570   9.063 -0.0585  1.3042  0.5055
15225SOL    HW249081   1.385   4.519   9.149  0.0706  0.2837 -0.2623
15226SOL     OW49082   1.894   4.814   9.579 -0.3638 -0.3744 -0.3410
15226SOL    HW149083   1.952   4.797   9.653 -0.1077 -2.1659 -0.9323
15226SOL    HW249084   1.817   4.761   9.597 -2.0555  2.2817  0.6369
15227SOL     OW49085   9.088   3.953   6.927 -0.2636  0.1705 -0.1395
15227SOL    HW149086   9.152   4.024   6.931 -0.9026  0.6964  0.8487
15227SOL    HW249087   9.008   3.990   6.962 -0.8799 -0.7537 -0.5347
15228SOL     OW49088   4.737   1.150   6.023 -0.1206  0.3300  0.2003
15228SOL    HW149089   4.824   1.185   6.042  1.0150 -1.8905 -0.6798
15228SOL    HW249090   4.734   1.143   5.928 -0.7656 -0.8210  0.2944
15229SOL     OW49091   8.771   8.584   3.492  0.1852  0.5031 -0.7496
15229SOL    HW149092   8.861   8.557   3.474  1.1498  1.5602  2.1076
15229SOL    HW249093   8.741   8.523   3.560 -0.7395  1.0489 -0.6643
15230SOL     OW49094   4.325   9.635   5.830 -0.1744 -0.2492  0.6532
15230SOL    HW149095   4.328   9.568   5.761  0.1056  0.3605  0.0702
15230SOL    HW249096   4.251   9.691   5.805  1.5963  1.5563 -0.6394
15231SOL     OW49097   1.764   3.810   4.918 -0.0764  0.6903 -0.3129
15231SOL    HW149098   1.799   3.816   5.007  0.0506 -0.6822 -0.2613
15231SOL    HW249099   1.685   3.757   4.928 -0.4859  1.1827 -0.9091
15232SOL     OW49100   4.641   3.030   0.250 -0.0419  0.2027 -0.1075
15232SOL    HW149101   4.652   3.072   0.165 -0.2976  0.1381 -0.1716
15232SOL    HW249102   4.586   3.090   0.300 -2.4427 -1.1761 -1.0134
15233SOL     OW49103   2.061   4.698   3.322 -0.0901 -0.7967 -0.5736
15233SOL    HW149104   2.020   4.641   3.257 -2.8068  1.3083 -0.7653
15233SOL    HW249105   2.103   4.767   3.271  1.6576 -1.6009 -0.2566
15234SOL     OW49106   7.670   6.276   0.676  0.4899 -0.0116 -0.7319
15234SOL    HW149107   7.720   6.357   0.685 -0.2177  0.3928 -0.3742
15234SOL    HW249108   7.729   6.216   0.630  1.9580 -0.1046  1.1606
15235SOL     OW49109   3.334   3.860   0.866 -0.2250  0.2599  1.0183
15235SOL    HW149110   3.287   3.943   0.868 -1.0801 -0.2058  0.4997
15235SOL    HW249111   3.275   3.800   0.821  0.7533 -0.4000  0.5899
15236SOL     OW49112   7.840   8.887   9.029  0.6117  0.0858  0.4019
15236SOL    HW149113   7.868   8.858   8.942  1.3871  0.3996  0.5502
15236SOL    HW249114   7.766   8.946   9.012  1.0036  0.4424 -0.0640
15237SOL     OW49115   0.678   4.105   8.176  0.8385 -0.5623  0.3259
15237SOL    HW149116   0.595   4.127   8.134  1.6895  1.1792 -0.4749
15237SOL    HW249117   0.735   4.078   8.104  1.9348  1.2958  0.4677
15238SOL     OW49118   3.188   2.774   6.198  0.1090  0.5316 -0.1233
15238SOL    HW149119   3.134   2.745   6.272  0.7486  0.1737  0.2140
15238SOL    HW249120   3.253   2.704   6.188  1.6596  1.8007  0.6764
15239SOL     OW49121   4.198  10.833   0.867 -0.1637 -0.2670  0.7472
15239SOL    HW149122   4.158  10.893   0.804 -2.3787 -0.6838  1.6970
15239SOL    HW249123   4.221  10.890   0.941 -1.8693 -0.5111  1.4718
15240SOL     OW49124   0.934  10.077   8.902  0.2568 -0.1720 -0.3734
15240SOL    HW149125   0.899  10.055   8.988  1.0313 -1.8439 -0.4821
15240SOL    HW249126   1.029  10.075   8.913  0.3554  0.6119 -1.0217
15241SOL     OW49127  10.690   7.056   2.272 -0.2342 -0.2660 -0.2289
15241SOL    HW149128  10.642   7.017   2.346  0.6024 -0.8821 -0.0085
15241SOL    HW249129  10.658   7.008   2.195  0.2297 -0.8704 -0.0473
15242SOL     OW49130   1.811   4.737   0.183 -0.1557  0.6683  0.0746
15242SOL    HW149131   1.853   4.811   0.138 -1.0104  0.6961 -0.7171
15242SOL    HW249132   1.883   4.681   0.211  0.4752  1.4981  0.1415
15243SOL     OW49133  10.594   4.572   3.837  0.1555  0.0806  0.0751
15243SOL    HW149134  10.512   4.523   3.847  1.0489 -1.7142 -1.0664
15243SOL    HW249135  10.636   4.565   3.923  0.3315 -1.3055 -0.1076
15244SOL     OW49136   8.265   8.808   9.623 -0.5633 -0.1291  0.0244
15244SOL    HW149137   8.202   8.756   9.672 -2.0533  1.2414 -0.4196
15244SOL    HW249138   8.334   8.828   9.687 -1.5707  0.0852  1.0584
15245SOL     OW49139   1.817   6.855   0.861 -0.3915  0.4643 -0.5077
15245SOL    HW149140   1.784   6.880   0.774  0.0900  1.9896 -0.2589
15245SOL    HW249141   1.793   6.928   0.918 -2.3413 -1.3335  1.0557
15246SOL     OW49142  10.269   1.016   5.181 -0.3360 -0.2840  0.3894
15246SOL    HW149143  10.273   1.038   5.275  0.8021 -0.8353  0.4712
15246SOL    HW249144  10.223   1.090   5.142  1.6502  1.3135  0.9811
15247SOL     OW49145   9.294   0.578   6.544  0.3920  0.0275 -0.1363
15247SOL    HW149146   9.211   0.555   6.584 -0.1468  0.9226 -0.7113
15247SOL    HW249147   9.309   0.669   6.570  1.3359 -0.2160  0.2044
15248SOL     OW49148   0.572   9.230   2.390 -0.1518  0.0621 -0.2531
15248SOL    HW149149   0.546   9.258   2.302  1.2656 -0.3994 -0.8338
15248SOL    HW249150   0.536   9.142   2.398 -2.2098  0.9265  0.5110
15249SOL     OW49151   8.774   5.734   4.194 -0.4500  0.0719  0.7413
15249SOL    HW149152   8.850   5.695   4.238 -0.0320 -0.2721 -0.2728
15249SOL    HW249153   8.806   5.817   4.159 -0.7089  0.2098  0.8285
15250SOL     OW49154   5.828   0.916   3.526  0.3123  0.1830  0.4608
15250SOL    HW149155   5.747   0.886   3.484  0.8153 -0.7749  0.1671
15250SOL    HW249156   5.888   0.843   3.517  1.3011  0.9868  0.4497
15251SOL     OW49157   0.039  10.252   4.449 -0.0156  0.3978  0.4690
15251SOL    HW149158   0.001  10.173   4.412  0.3512  0.3139  0.2763
15251SOL    HW249159   0.006  10.254   4.539 -0.5256  0.3576  0.2863
15252SOL     OW49160   7.274   6.931   9.402 -0.1670 -0.5052 -0.4204
15252SOL    HW149161   7.336   6.877   9.353  0.7648 -0.4012  0.6385
15252SOL    HW249162   7.311   6.937   9.490 -1.3177  0.1496  0.0276
15253SOL     OW49163   8.346   7.647   2.790  0.3850 -0.1297 -0.2075
15253SOL    HW149164   8.309   7.632   2.877 -0.5353 -0.2280 -0.5978
15253SOL    HW249165   8.325   7.566   2.742  2.2009 -0.6901 -0.0894
15254SOL     OW49166   4.924   5.343   4.375  0.1269 -0.8272 -0.7728
15254SOL    HW149167   4.838   5.378   4.353 -0.8414 -3.2158 -0.9146
15254SOL    HW249168   4.983   5.381   4.310 -0.6365  1.5594 -0.1075
15255SOL     OW49169   1.866   3.257   2.273 -0.1666 -0.1140 -0.2848
15255SOL    HW149170   1.847   3.169   2.241 -0.3439 -0.4713  0.7878
15255SOL    HW249171   1.850   3.253   2.367  4.4374 -0.2729  0.6348
15256SOL     OW49172  10.951   7.573   1.756 -0.7685 -0.0916 -0.6698
15256SOL    HW149173  10.937   7.542   1.666 -0.6292 -0.1631 -0.6662
15256SOL    HW249174  10.879   7.635   1.771 -0.1895  0.7070 -1.1999
15257SOL     OW49175   6.140   8.462   0.315  0.5953  0.1323 -0.0018
15257SOL    HW149176   6.184   8.390   0.268 -0.6614 -0.7435  0.1351
15257SOL    HW249177   6.088   8.418   0.382  0.6007  1.2434  0.7412
15258SOL     OW49178   7.932   2.687   9.204  0.5369 -0.5770  0.2925
15258SOL    HW149179   7.948   2.776   9.171 -1.5427 -0.7218 -1.1937
15258SOL    HW249180   7.843   2.689   9.237  0.1279 -2.3617 -0.6236
15259SOL     OW49181   0.134   3.060   9.202 -0.0145 -0.3907 -0.0835
15259SOL    HW149182   0.181   3.135   9.166 -0.0623  0.6536  1.9909
15259SOL    HW249183   0.165   3.053   9.292 -1.3424 -1.7747  0.2806
15260SOL     OW49184  10.066   9.713   1.781  0.6296 -0.2593 -0.1553
15260SOL    HW149185  10.087   9.743   1.693  1.6545  1.7404  0.7234
15260SOL    HW249186   9.971   9.705   1.782  0.2188  3.6724 -0.2811
15261SOL     OW49187   9.248   4.929   4.678  0.5700  0.4589  0.0806
15261SOL    HW149188   9.294   4.845   4.679  1.7452  1.0707 -0.9629
15261SOL    HW249189   9.306   4.989   4.726  0.6610  1.1205 -0.8314
15262SOL     OW49190   2.301   9.356   4.112 -0.3805  0.5673  0.4029
15262SOL    HW149191   2.358   9.433   4.108  3.0508 -1.8547  0.1681
15262SOL    HW249192   2.341   9.300   4.179 -3.0793 -0.7985  0.9180
15263SOL     OW49193  10.025   8.684   7.471  0.0392  0.5061  0.2587
15263SOL    HW149194   9.999   8.644   7.554  1.0760  0.3357  0.5154
15263SOL    HW249195   9.964   8.648   7.406 -0.4132  0.1986  0.8549
15264SOL     OW49196   5.320   6.836   8.587 -0.2715 -0.3986 -0.6839
15264SOL    HW149197   5.315   6.759   8.531 -2.8221 -1.2145  0.5984
15264SOL    HW249198   5.259   6.818   8.658 -0.2613  2.4244  0.1024
15265SOL     OW49199   4.822   9.861   5.566 -0.8246 -0.3247 -0.2516
15265SOL    HW149200   4.757   9.791   5.559 -0.9168 -0.2114 -0.5287
15265SOL    HW249201   4.776   9.931   5.612 -0.9445 -0.1923 -0.5688
15266SOL     OW49202   6.873   0.358   0.300 -0.5671  0.2391  0.0465
15266SOL    HW149203   6.797   0.396   0.257  0.0876  2.2899  0.6448
15266SOL    HW249204   6.851   0.358   0.393 -0.0243  0.4173  0.1769
15267SOL     OW49205   8.583   4.616   0.470 -0.5267  0.2711 -0.3524
15267SOL    HW149206   8.552   4.560   0.399 -0.3762  0.4351 -0.5460
15267SOL    HW249207   8.611   4.555   0.538  1.6501  0.0465 -1.3947
15268SOL     OW49208   0.245  10.361   9.759 -0.0289  0.2313 -0.1887
15268SOL    HW149209   0.191  10.392   9.687 -0.5641 -1.2988 -0.4603
15268SOL    HW249210   0.274  10.441   9.803 -1.3153  1.1055 -0.9000
15269SOL     OW49211  10.332   8.819   9.368  0.4063  0.0745  0.5442
15269SOL    HW149212  10.314   8.731   9.335  0.4140 -0.0481  0.8642
15269SOL    HW249213  10.263   8.873   9.331  0.6563  0.0174 -0.0139
15270SOL     OW49214   6.747   1.132   5.031  0.1460  0.5137  0.0263
15270SOL    HW149215   6.807   1.116   4.958 -1.3135  0.4594 -1.1932
15270SOL    HW249216   6.795   1.103   5.109  0.7641 -1.8541 -1.1901
15271SOL     OW49217   3.116   1.562  10.815  0.2954  0.0237  0.5640
15271SOL    HW149218   3.080   1.487  10.767  0.2143  0.2853  0.2154
15271SOL    HW249219   3.092   1.638  10.762  0.4724  0.2876  0.8614
15272SOL     OW49220   5.986   6.936   1.859 -0.0795  0.6499 -0.4692
15272SOL    HW149221   6.045   7.007   1.887  2.1090 -1.3580  0.2260
15272SOL    HW249222   6.021   6.908   1.774 -0.8575  0.3152 -0.6804
15273SOL     OW49223   7.909   7.086   5.545 -0.1381  0.8365 -0.0837
15273SOL    HW149224   7.861   7.023   5.492 -0.6674 -1.1074  2.5780
15273SOL    HW249225   8.000   7.080   5.514 -0.4003 -0.3841 -0.6383
15274SOL     OW49226   5.215   1.840   9.901 -0.3991  0.3192  0.2322
15274SOL    HW149227   5.242   1.757   9.939 -2.9803 -0.4024  0.5633
15274SOL    HW249228   5.121   1.845   9.916 -0.8228  1.9184 -2.4276
15275SOL     OW49229   7.600   0.600   3.918  0.7191  0.0183 -0.0056
15275SOL    HW149230   7.681   0.587   3.967  1.3103  3.2789  0.0111
15275SOL    HW249231   7.629   0.626   3.831 -0.3406 -2.7167 -1.2292
15276SOL     OW49232   0.832   3.652   4.628 -0.4910  0.2429  0.3838
15276SOL    HW149233   0.740   3.650   4.601 -0.3016 -2.8117 -0.1705
15276SOL    HW249234   0.828   3.652   4.724 -1.0772  0.8471  0.3652
15277SOL     OW49235   5.173   5.696   9.172  0.4254 -0.2505 -0.3118
15277SOL    HW149236   5.199   5.629   9.235 -1.7316  0.4451  1.4018
15277SOL    HW249237   5.091   5.662   9.135 -0.5755  1.3436  0.4254
15278SOL     OW49238   1.627   1.476   1.731  0.5418 -0.3737  0.3590
15278SOL    HW149239   1.539   1.495   1.764  1.0932  2.5879  0.3126
15278SOL    HW249240   1.613   1.424   1.652 -1.2275  1.0603 -0.3060
15279SOL     OW49241   3.373   4.767   9.290 -0.4886 -0.4495 -0.2279
15279SOL    HW149242   3.405   4.833   9.228  0.1364 -0.9668 -0.4655
15279SOL    HW249243   3.361   4.688   9.237 -0.1964 -0.8274  0.2617
15280SOL     OW49244   8.578   5.854   1.620  0.0391  0.5327 -0.1383
15280SOL    HW149245   8.645   5.918   1.643 -1.3455  1.7038  0.7263
15280SOL    HW249246   8.626   5.772   1.608  1.4580  1.0348  1.8440
15281SOL     OW49247   1.607   9.226   8.201  0.3309 -0.5982 -0.2271
15281SOL    HW149248   1.651   9.226   8.287 -0.1471  1.2043  0.0430
15281SOL    HW249249   1.578   9.317   8.189 -1.5039 -1.2945 -1.3311
15282SOL     OW49250   9.784   3.441   8.167 -0.1655 -0.3261  1.0547
15282SOL    HW149251   9.872   3.445   8.203 -1.0571  1.7072  3.2124
15282SOL    HW249252   9.780   3.513   8.105 -0.4920  0.0148  1.4648
15283SOL     OW49253   1.730   8.705   6.212 -0.2268 -0.3497 -0.2332
15283SOL    HW149254   1.644   8.688   6.251  0.3064  0.4322  1.3090
15283SOL    HW249255   1.767   8.776   6.264  1.8434 -1.4451 -0.1452
15284SOL     OW49256   2.606   6.676   6.252  0.1213  0.3137  0.3153
15284SOL    HW149257   2.512   6.660   6.257 -0.2088  1.9845 -0.3024
15284SOL    HW249258   2.644   6.591   6.231 -1.3338 -0.1953 -0.2991
15285SOL     OW49259   5.380   1.334   3.547 -0.1075  0.2804  0.3540
15285SOL    HW149260   5.356   1.381   3.627  0.6178 -1.2336  1.4752
15285SOL    HW249261   5.320   1.260   3.544  0.7614 -0.4245  0.2265
15286SOL     OW49262   9.791   5.506   6.650 -0.7710 -0.1726 -0.1675
15286SOL    HW149263   9.739   5.570   6.602 -0.8448  0.3894  0.6465
15286SOL    HW249264   9.846   5.559   6.708  1.6933 -0.6605 -1.9578
15287SOL     OW49265   8.752   0.075   4.825 -0.3845  0.0465 -0.2445
15287SOL    HW149266   8.718   0.059   4.914  1.1624 -0.4777  0.2717
15287SOL    HW249267   8.675   0.101   4.775 -1.5795 -1.2059  0.8673
15288SOL     OW49268   5.381   7.311   9.725  0.0292 -0.6716 -0.8283
15288SOL    HW149269   5.470   7.277   9.716  0.2180  0.0277 -1.6973
15288SOL    HW249270   5.372   7.373   9.653  0.4632  2.7526  1.8941
15289SOL     OW49271  10.361   3.896   3.689  0.1842 -0.0391 -0.7069
15289SOL    HW149272  10.312   3.936   3.618  2.2585  3.0904 -0.4731
15289SOL    HW249273  10.347   3.953   3.765  1.5716 -0.8521  0.2078
15290SOL     OW49274   6.056   3.137  10.303 -0.3697  0.2753  0.2347
15290SOL    HW149275   6.124   3.085  10.347 -0.3284  0.3733  0.2864
15290SOL    HW249276   6.065   3.224  10.340 -0.7395  0.2087  0.4812
15291SOL     OW49277   6.155   4.141  10.653  0.4360 -0.7507 -0.8089
15291SOL    HW149278   6.081   4.201  10.648  0.0325 -1.0468  1.0362
15291SOL    HW249279   6.125   4.062  10.608  0.2297 -0.2981 -1.4741
15292SOL     OW49280   6.346   3.456   3.630  0.4946 -0.0575  0.1928
15292SOL    HW149281   6.414   3.393   3.610 -0.9167 -1.2234 -1.0902
15292SOL    HW249282   6.327   3.443   3.723  1.1455 -0.6113  0.2476
15293SOL     OW49283   1.586   3.889   1.598 -0.7117  0.4351 -0.5116
15293SOL    HW149284   1.619   3.962   1.545  1.5848  0.6447  1.1336
15293SOL    HW249285   1.540   3.931   1.671  0.7766  0.2758  0.5388
15294SOL     OW49286   9.496   2.190   2.761 -0.3214  0.3045 -0.2490
15294SOL    HW149287   9.418   2.228   2.801 -1.3749 -1.5747 -0.4534
15294SOL    HW249288   9.485   2.096   2.770 -0.1709 -0.1966 -4.1083
15295SOL     OW49289   4.853  10.812   0.911 -0.2025  0.3232 -0.3487
15295SOL    HW149290   4.907  10.877   0.956  0.0802 -0.0917 -0.0817
15295SOL    HW249291   4.905  10.732   0.913 -0.5485  0.0889 -0.6720
15296SOL     OW49292   2.016   7.159   0.416  0.4045 -0.1256 -0.5957
15296SOL    HW149293   2.088   7.142   0.477  0.7305  1.1284 -0.6121
15296SOL    HW249294   2.059   7.167   0.330  0.0100 -1.3314 -0.9174
15297SOL     OW49295   3.742   7.107   8.647 -0.3540  0.0615 -0.2232
15297SOL    HW149296   3.706   7.131   8.732 -1.2517  0.1335 -0.6215
15297SOL    HW249297   3.715   7.016   8.634  0.4730 -0.2126 -0.0740
15298SOL     OW49298  10.205   9.115   7.316 -0.1011  0.1571  0.1023
15298SOL    HW149299  10.214   9.044   7.379 -1.9767 -1.1589 -1.0530
15298SOL    HW249300  10.229   9.077   7.232  1.3845  1.6158 -0.1532
15299SOL     OW49301   0.866   9.820   8.288  0.4420  0.3836 -0.2174
15299SOL    HW149302   0.856   9.820   8.383 -0.9715 -1.0397 -0.3537
15299SOL    HW249303   0.786   9.860   8.255  0.0524 -0.9248 -0.8821
15300SOL     OW49304   8.906   9.466   8.858 -0.2991 -0.3064 -0.2959
15300SOL    HW149305   8.976   9.413   8.896 -0.7926 -0.0824  0.9633
15300SOL    HW249306   8.943   9.554   8.853 -0.7287 -0.0296  1.0834
15301SOL     OW49307   9.090   4.846   3.343 -0.7581 -0.2104 -0.3495
15301SOL    HW149308   9.067   4.754   3.356  0.7723 -0.5044  0.3762
15301SOL    HW249309   9.014   4.894   3.376 -0.5719 -1.1712  1.5728
15302SOL     OW49310   6.350   2.869   0.587 -0.4140 -0.2354  0.4295
15302SOL    HW149311   6.375   2.809   0.517 -0.6168  0.4512 -0.2356
15302SOL    HW249312   6.256   2.855   0.597 -0.7641  1.1020 -0.8222
15303SOL     OW49313   5.350   1.376   6.273 -0.2718 -0.3133 -0.1365
15303SOL    HW149314   5.380   1.422   6.194 -1.3974  0.6759 -0.0039
15303SOL    HW249315   5.257   1.397   6.278 -0.1576 -0.2058  1.5848
15304SOL     OW49316   2.387   3.728  10.469  0.4702  0.1654  0.0828
15304SOL    HW149317   2.430   3.642  10.468  0.9039  0.3813 -0.2909
15304SOL    HW249318   2.331   3.726  10.547  0.6542 -0.3698  0.2062
15305SOL     OW49319   2.223   4.397   0.047  0.2168 -0.5666 -0.2102
15305SOL    HW149320   2.193   4.351   0.125 -1.1653  1.4821  0.5033
15305SOL    HW249321   2.184   4.348  -0.026 -3.1427  0.7223  0.6186
15306SOL     OW49322   8.040   5.529   7.016  0.0461 -0.0284  0.0404
15306SOL    HW149323   7.948   5.554   7.004 -0.2438 -1.3900 -0.6316
15306SOL    HW249324   8.089   5.605   6.985 -0.8446  0.4519 -0.2159
15307SOL     OW49325   0.995   3.247   6.508  0.2133 -0.1885 -1.1432
15307SOL    HW149326   0.998   3.268   6.415 -1.1587  1.5185 -0.8396
15307SOL    HW249327   1.037   3.321   6.551  3.5298 -2.3037 -0.5170
15308SOL     OW49328   8.755   0.339   1.215  0.0377 -0.0288 -0.9559
15308SOL    HW149329   8.692   0.268   1.201 -1.2342  0.8104  0.3678
15308SOL    HW249330   8.838   0.303   1.184 -0.8363 -1.6355 -1.5153
15309SOL     OW49331   9.828   4.215  10.956 -0.3821 -0.1617 -0.2773
15309SOL    HW149332   9.842   4.122  10.975 -0.5064 -0.0597  0.3187
15309SOL    HW249333   9.775   4.216  10.877 -0.2386 -0.5987 -0.3785
15310SOL     OW49334   7.133   1.345   4.263  0.0974 -0.2478 -0.3580
15310SOL    HW149335   7.147   1.257   4.227  0.0893 -0.8587  1.0931
15310SOL    HW249336   7.221   1.383   4.266  0.7712 -1.8989  3.2101
15311SOL     OW49337   1.372   2.436   0.415 -0.2889 -0.7961  0.0190
15311SOL    HW149338   1.402   2.465   0.502 -0.6074 -0.3446 -0.0207
15311SOL    HW249339   1.282   2.467   0.410 -1.0589 -2.8847  0.4793
15312SOL     OW49340   4.656   4.775   3.104  0.8149  0.2147 -0.3985
15312SOL    HW149341   4.625   4.694   3.145  0.6086  1.3575  1.7926
15312SOL    HW249342   4.577   4.814   3.066  0.7300 -0.1196 -0.5614
15313SOL     OW49343   8.024   1.046   0.925 -0.0090  0.4691  0.3943
15313SOL    HW149344   8.110   1.009   0.941  0.5904  0.9407 -1.6686
15313SOL    HW249345   7.998   1.083   1.010  0.5850 -2.1225  1.7491
15314SOL     OW49346   5.804   9.337   0.574 -0.2931 -0.1291 -0.3493
15314SOL    HW149347   5.773   9.252   0.603  1.9954 -1.1533 -0.7903
15314SOL    HW249348   5.801   9.333   0.479 -0.5613  0.4443 -0.3700
15315SOL     OW49349   5.793  10.129   5.197 -0.1495  0.2296 -0.3162
15315SOL    HW149350   5.826  10.047   5.159 -2.2630 -0.8559  0.1149
15315SOL    HW249351   5.715  10.102   5.246 -0.5643  2.4411  0.2537
15316SOL     OW49352   8.268  10.849   6.311 -0.9143  0.2996  0.6848
15316SOL    HW149353   8.220  10.828   6.391 -1.6818  1.5283  0.5496
15316SOL    HW249354   8.254  10.774   6.254 -0.4424 -0.5403  1.6544
15317SOL     OW49355   7.811   5.583   5.724 -0.0500  0.3304  0.3868
15317SOL    HW149356   7.828   5.677   5.720 -0.4338  0.3476 -1.3040
15317SOL    HW249357   7.820   5.553   5.633  1.7254 -1.5709  1.1511
15318SOL     OW49358   4.836   5.788  10.934  0.2704 -0.2268  0.4566
15318SOL    HW149359   4.809   5.877  10.957  0.8384  0.0059  0.2221
15318SOL    HW249360   4.813   5.736  11.011 -0.5157  0.0258  0.4035
15319SOL     OW49361   6.871  10.149   5.809  0.7407 -0.1352  0.0669
15319SOL    HW149362   6.927  10.176   5.736  0.5781 -0.4976 -0.1919
15319SOL    HW249363   6.929  10.097   5.865  1.0131  0.6208  0.4865
15320SOL     OW49364   5.890   6.066   4.818 -0.1942 -0.5449  0.6347
15320SOL    HW149365   5.801   6.068   4.783 -0.0305  0.4089  0.2503
15320SOL    HW249366   5.916   6.158   4.823  0.9871 -0.8457  0.1746
15321SOL     OW49367   8.088   6.999   7.924 -0.4457  0.5860 -0.1963
15321SOL    HW149368   8.110   6.911   7.955 -0.5705  0.1935 -1.2172
15321SOL    HW249369   8.024   7.031   7.988 -0.4027 -0.0647  0.1818
15322SOL     OW49370   1.019   7.601   0.108 -0.0939  0.0882 -0.3342
15322SOL    HW149371   1.052   7.517   0.141 -0.4037  0.3298  0.6180
15322SOL    HW249372   1.019   7.658   0.185 -0.3840  0.8027 -0.8653
15323SOL     OW49373   5.826   5.063  10.643  0.6734  0.2285  0.5068
15323SOL    HW149374   5.760   5.016  10.694 -0.2257  1.4064  0.4609
15323SOL    HW249375   5.909   5.042  10.686  0.2024 -0.7791  0.9358
15324SOL     OW49376   0.212   8.496   6.852  0.4183  0.2029  0.7046
15324SOL    HW149377   0.131   8.462   6.889  0.0283  0.3866  0.0369
15324SOL    HW249378   0.209   8.590   6.871  1.6019 -0.1469  2.7441
15325SOL     OW49379   9.767   6.540  10.147 -0.3475 -0.3310 -0.1092
15325SOL    HW149380   9.699   6.607  10.160 -1.8917 -1.8298 -0.2685
15325SOL    HW249381   9.842   6.589  10.114 -1.0057  1.5166  1.0681
15326SOL     OW49382   1.689   0.070   3.326  0.3561  0.0954  0.1593
15326SOL    HW149383   1.615   0.009   3.323  0.1984  0.2884  0.1017
15326SOL    HW249384   1.649   0.156   3.337  0.5922  0.1652  0.4689
15327SOL     OW49385   1.160   8.006   9.516  0.0027  0.5908  0.0369
15327SOL    HW149386   1.198   7.937   9.571  1.2031 -0.7505 -2.3984
15327SOL    HW249387   1.070   8.016   9.547  0.2408 -1.1298  1.2970
15328SOL     OW49388   6.775   7.624   7.873 -0.3597 -0.0494  0.0887
15328SOL    HW149389   6.732   7.549   7.915 -1.1405  0.8752  0.9656
15328SOL    HW249390   6.868   7.612   7.892 -0.6215 -0.0731  1.3839
15329SOL     OW49391   5.388   4.067   8.525 -0.2444 -0.1725  0.0825
15329SOL    HW149392   5.319   4.133   8.524  0.2021  0.3218  1.2396
15329SOL    HW249393   5.459   4.107   8.474 -0.0426  0.1664  0.6266
15330SOL     OW49394  10.252   0.015   3.191  0.3269  0.4687 -0.1944
15330SOL    HW149395  10.303  -0.009   3.114 -0.3948  0.1768 -0.5920
15330SOL    HW249396  10.210  -0.066   3.219 -2.9682  1.3810 -2.1738
15331SOL     OW49397   0.104   3.314   2.632 -0.0101  0.6191  0.2648
15331SOL    HW149398   0.042   3.383   2.613 -0.5258  0.8876  2.7699
15331SOL    HW249399   0.065   3.265   2.704  1.3271 -0.9951 -0.0565
15332SOL     OW49400   3.577   5.641   6.134 -0.3812  0.4076 -0.5858
15332SOL    HW149401   3.662   5.654   6.175 -0.2206 -0.2179 -0.7170
15332SOL    HW249402   3.514   5.674   6.198 -0.1762 -1.1870  0.4705
15333SOL     OW49403   4.579   5.519   1.748  0.4373  0.5800  0.0460
15333SOL    HW149404   4.670   5.537   1.722  0.1298  0.1738 -1.3836
15333SOL    HW249405   4.568   5.425   1.732 -0.4962  0.8024 -0.6532
15334SOL     OW49406   7.467   5.131   5.584 -0.3559 -0.1712 -0.2961
15334SOL    HW149407   7.542   5.088   5.543  1.4787  2.2068  0.4053
15334SOL    HW249408   7.433   5.189   5.517 -0.4794  0.0051 -0.0826
15335SOL     OW49409   9.879   8.993   1.151 -0.0664  0.2548  0.4971
15335SOL    HW149410   9.942   8.920   1.147 -0.4815 -0.1578  1.3963
15335SOL    HW249411   9.850   8.994   1.242 -0.6073  1.0891  0.3127
15336SOL     OW49412   2.330  10.044   2.820 -0.6761 -0.2525 -0.3025
15336SOL    HW149413   2.267   9.984   2.860  0.0503 -0.4177  0.6394
15336SOL    HW249414   2.404   9.989   2.795  0.1157  0.2512  0.8188
15337SOL     OW49415   4.151   8.462   3.169  0.0945 -0.0477  0.7069
15337SOL    HW149416   4.066   8.454   3.126  1.0866 -0.6670 -1.1594
15337SOL    HW249417   4.140   8.414   3.251 -1.4670  0.2118  0.6730
15338SOL     OW49418   0.520   2.579  10.061  0.3114  0.5067 -0.5522
15338SOL    HW149419   0.489   2.492  10.087  1.6958  0.3368  0.5782
15338SOL    HW249420   0.485   2.638  10.128  0.8278  0.5704 -0.3342
15339SOL     OW49421   8.716   3.556   4.645 -0.1491 -0.7609  0.3059
15339SOL    HW149422   8.766   3.488   4.599  1.0196 -0.7242  1.4921
15339SOL    HW249423   8.781   3.622   4.669 -1.3908  1.1514 -1.4543
15340SOL     OW49424   5.256   2.171   3.386 -0.5859  0.2738 -0.3945
15340SOL    HW149425   5.189   2.168   3.317 -0.8021 -1.6919 -0.1269
15340SOL    HW249426   5.322   2.108   3.358 -0.8931 -0.8879  1.3878
15341SOL     OW49427   8.521   1.600   3.796 -0.5724 -0.4910  0.7195
15341SOL    HW149428   8.431   1.618   3.820 -0.7360 -1.6470  1.0236
15341SOL    HW249429   8.544   1.670   3.735 -1.4847  0.1282  1.0719
15342SOL     OW49430   9.013   2.601   8.402  0.2930 -0.1964  0.3013
15342SOL    HW149431   9.032   2.648   8.321 -0.4269  0.2641  0.3942
15342SOL    HW249432   8.919   2.612   8.415 -0.1414 -2.8368 -0.3865
15343SOL     OW49433   7.429  10.640   2.791 -0.6055  0.5811 -0.5726
15343SOL    HW149434   7.370  10.696   2.740  0.6933  1.2101 -1.3868
15343SOL    HW249435   7.515  10.655   2.753 -0.0041 -0.7838  0.2382
15344SOL     OW49436   9.093  10.642  10.929  0.0820  0.6201  0.1882
15344SOL    HW149437   9.034  10.636  11.004  0.9072 -3.3806  0.6407
15344SOL    HW249438   9.066  10.571  10.871  3.4318 -0.3293 -0.3148
15345SOL     OW49439  10.003   5.213  10.739 -0.4856 -0.2372  0.3673
15345SOL    HW149440   9.942   5.141  10.728  0.2658 -0.4369 -3.0880
15345SOL    HW249441   9.948   5.290  10.752 -1.4127 -0.8001 -0.1763
15346SOL     OW49442   9.820   3.279   1.766  0.1999  0.4917  0.5409
15346SOL    HW149443   9.815   3.251   1.675 -1.2997  0.2805  0.6733
15346SOL    HW249444   9.904   3.324   1.773  1.5516 -1.8121 -0.2773
15347SOL     OW49445   4.672   6.088   2.097 -0.6191  0.6402  0.2885
15347SOL    HW149446   4.657   6.180   2.077 -0.4680  0.2641 -1.6893
15347SOL    HW249447   4.751   6.065   2.048 -1.2537 -0.8003 -0.0977
15348SOL     OW49448   0.433   1.353   9.065 -0.2802 -0.5321  0.5767
15348SOL    HW149449   0.382   1.347   9.146 -1.2437  1.3642  0.1579
15348SOL    HW249450   0.522   1.332   9.091 -0.3251  1.4123  2.4415
15349SOL     OW49451   1.907   5.546   4.466  0.3332 -0.1986  0.6177
15349SOL    HW149452   1.886   5.639   4.464  0.8417 -0.0898 -1.3452
15349SOL    HW249453   1.922   5.523   4.374 -0.5578 -2.3947  0.9724
15350SOL     OW49454   6.008   2.203   7.813  0.4133 -0.0037  0.6604
15350SOL    HW149455   5.995   2.141   7.741  1.8735  0.0839  0.2878
15350SOL    HW249456   6.092   2.177   7.852  1.1301  1.8157  0.3842
15351SOL     OW49457   3.491   4.604   0.199 -0.1844 -0.7694  0.0799
15351SOL    HW149458   3.409   4.609   0.149  0.9312  0.6963 -1.6778
15351SOL    HW249459   3.542   4.679   0.169  1.5426 -1.2721  1.6518
15352SOL     OW49460   3.839   4.095   9.470 -0.9590  0.0204  0.0677
15352SOL    HW149461   3.801   4.149   9.401 -0.4179 -1.5585 -1.5065
15352SOL    HW249462   3.845   4.153   9.546 -0.4749  2.1332 -1.5485
15353SOL     OW49463   8.726   1.008   5.573 -0.6095 -0.0456 -0.0091
15353SOL    HW149464   8.807   1.031   5.618 -0.1531 -1.5518 -0.0199
15353SOL    HW249465   8.657   1.047   5.626  0.1456  1.7399 -0.3136
15354SOL     OW49466   4.971   2.508   1.072  0.0985  0.0791 -0.2848
15354SOL    HW149467   4.890   2.558   1.079  0.3938  0.6482 -0.8812
15354SOL    HW249468   5.001   2.499   1.162 -0.7389 -0.3212 -0.0439
15355SOL     OW49469   5.334   7.965   4.021  0.1063 -0.7558 -0.1837
15355SOL    HW149470   5.413   7.912   4.015 -0.2172 -1.5038  1.7287
15355SOL    HW249471   5.317   7.972   4.115 -0.8743  1.2399 -0.4712
15356SOL     OW49472   3.480   5.330  10.564  0.1798  0.2102 -0.2931
15356SOL    HW149473   3.563   5.292  10.535 -0.3012 -0.2159 -1.1343
15356SOL    HW249474   3.413   5.267  10.536 -0.3968  0.3283  0.7821
15357SOL     OW49475   4.600   8.139   0.284  0.4023 -0.1310  0.2411
15357SOL    HW149476   4.626   8.135   0.192 -0.3205 -1.1289  0.0870
15357SOL    HW249477   4.516   8.184   0.283  0.4890  0.0391  0.4438
15358SOL     OW49478   2.854   0.378   5.044  0.0265  0.7681  0.1518
15358SOL    HW149479   2.802   0.457   5.059 -0.9146 -0.3200  3.0492
15358SOL    HW249480   2.923   0.382   5.110  1.0823  0.0697 -0.8902
15359SOL     OW49481   7.305   3.577   7.579 -0.1875 -0.4100 -0.4649
15359SOL    HW149482   7.249   3.630   7.522 -2.0783 -1.2823  0.5388
15359SOL    HW249483   7.285   3.609   7.667  2.6427  0.8642 -0.2448
15360SOL     OW49484   6.668   6.903   0.977 -0.0509  0.6007 -0.6432
15360SOL    HW149485   6.690   6.945   1.060 -2.2354 -1.9208  1.3118
15360SOL    HW249486   6.723   6.824   0.975  0.8866  1.2633 -2.2193
15361SOL     OW49487   9.902   0.525   6.853  0.4396 -0.2664  0.0883
15361SOL    HW149488   9.848   0.597   6.884 -0.7935 -0.3647 -1.7703
15361SOL    HW249489   9.973   0.520   6.917  1.0344  3.1361 -0.1830
15362SOL     OW49490   2.431   2.403   1.472 -0.0247  0.3367  0.5946
15362SOL    HW149491   2.451   2.311   1.454  0.2868  0.5249 -0.0413
15362SOL    HW249492   2.362   2.400   1.538 -0.9491 -0.3870 -0.3715
15363SOL     OW49493   3.228  10.738   2.679  0.4505  0.1997 -0.2327
15363SOL    HW149494   3.145  10.751   2.633  0.4418 -0.6898 -0.4870
15363SOL    HW249495   3.209  10.757   2.771  0.2115  0.9696 -0.4419
15364SOL     OW49496   3.219   1.603   3.247  0.0084 -0.2462  0.8240
15364SOL    HW149497   3.168   1.603   3.328  1.0898 -0.9122  1.5005
15364SOL    HW249498   3.261   1.689   3.245 -0.2707 -0.1085  0.7983
15365SOL     OW49499  10.319   2.400   4.089  0.2725  0.1717 -0.4484
15365SOL    HW149500  10.383   2.332   4.067  1.5618  0.6995  1.5871
15365SOL    HW249501  10.340   2.472   4.029  0.8900 -0.0629 -0.5223
15366SOL     OW49502   5.238   1.053   9.216  0.3737  0.2583 -0.4263
15366SOL    HW149503   5.189   0.996   9.157  0.4052 -0.7125  0.4891
15366SOL    HW249504   5.183   1.131   9.224 -0.0774  0.0053 -0.9744
15367SOL     OW49505   8.876   0.394   4.341  0.4495  0.0594  0.4458
15367SOL    HW149506   8.883   0.385   4.246 -0.4663 -0.7390  0.4410
15367SOL    HW249507   8.858   0.487   4.355  0.6101  0.1848 -0.1599
15368SOL     OW49508   2.985   3.102   2.878 -0.8103  0.0560  0.3302
15368SOL    HW149509   3.052   3.135   2.819 -0.0293  0.8863  1.6488
15368SOL    HW249510   2.993   3.007   2.874 -0.9505  0.0961 -1.0937
15369SOL     OW49511   5.741   4.822   2.966 -0.0516  0.3702 -0.2763
15369SOL    HW149512   5.812   4.879   2.937 -2.3411  2.8117 -1.3417
15369SOL    HW249513   5.730   4.842   3.059  0.2548  0.4500 -0.2583
15370SOL     OW49514   8.508   9.671   1.147  0.3458  0.8356 -0.1139
15370SOL    HW149515   8.528   9.702   1.059  1.7773  1.0235  0.2565
15370SOL    HW249516   8.550   9.734   1.205  2.0522 -0.9464  0.6560
15371SOL     OW49517   5.347   6.612  10.180 -0.0360 -0.3933 -0.3193
15371SOL    HW149518   5.340   6.580  10.270  2.2467  2.0289  0.7790
15371SOL    HW249519   5.258   6.641  10.158 -0.8845 -2.1709  0.6823
15372SOL     OW49520   9.914   2.668   9.702  0.1741  0.0748 -0.1413
15372SOL    HW149521   9.865   2.635   9.777  0.5909 -1.2300 -0.4290
15372SOL    HW249522   9.999   2.693   9.737  0.2722 -0.2800 -0.1245
15373SOL     OW49523   5.189   4.652   4.746 -0.4281  0.0098 -0.0028
15373SOL    HW149524   5.193   4.560   4.770  3.1853  0.3109  0.9135
15373SOL    HW249525   5.220   4.655   4.655  1.2516  0.4511  0.5570
15374SOL     OW49526  10.972   6.503   7.804  0.0309  0.1965  0.0001
15374SOL    HW149527  10.925   6.578   7.768  0.5804  0.8200  0.5757
15374SOL    HW249528  10.942   6.498   7.895 -1.6721 -1.6226 -0.6117
15375SOL     OW49529   9.770   3.385   1.417 -0.7525 -0.0710  0.1492
15375SOL    HW149530   9.783   3.297   1.451  0.9262 -0.6467 -1.8382
15375SOL    HW249531   9.675   3.400   1.424 -1.2039 -2.4103 -0.3559
15376SOL     OW49532   0.134   8.127   5.639  0.0900  0.4869 -0.2373
15376SOL    HW149533   0.230   8.123   5.647  0.1115  1.8873  0.3946
15376SOL    HW249534   0.110   8.209   5.682 -1.4616 -0.1423  0.1259
15377SOL     OW49535   0.553   9.051   0.971  0.0433 -0.0115 -0.0572
15377SOL    HW149536   0.581   8.977   0.917  2.2829 -1.0110  2.4105
15377SOL    HW249537   0.483   9.092   0.920  1.0307 -1.8262 -3.0107
15378SOL     OW49538   5.780   8.817   9.636  0.1025  0.3533  0.4663
15378SOL    HW149539   5.867   8.811   9.596 -0.2723 -0.5881 -0.2185
15378SOL    HW249540   5.746   8.728   9.633 -1.4115  0.9425 -0.4623
15379SOL     OW49541  10.188   2.007  10.633 -0.3373 -0.4657 -0.0024
15379SOL    HW149542  10.255   2.044  10.692 -0.5019  1.8686 -1.2042
15379SOL    HW249543  10.124   2.078  10.623 -3.5071 -2.9596  1.8432
15380SOL     OW49544   5.301   4.055   4.419 -0.5051  0.0187 -0.1589
15380SOL    HW149545   5.254   4.083   4.498  2.5417  0.4652  1.5914
15380SOL    HW249546   5.273   3.964   4.406 -2.9028  0.6884 -0.0623
15381SOL     OW49547   1.864   2.870   4.675 -0.0656  0.2476  0.0171
15381SOL    HW149548   1.900   2.782   4.682  2.1131  1.0447 -0.5126
15381SOL    HW249549   1.880   2.910   4.761 -0.3616  0.3571  0.0208
15382SOL     OW49550   3.950   9.008   4.195 -0.5681  0.0955  0.2402
15382SOL    HW149551   3.911   9.094   4.180 -0.3056  0.1985  0.1418
15382SOL    HW249552   4.032   9.026   4.242 -1.1322 -0.1893  1.3624
15383SOL     OW49553   8.332   2.790   5.365 -0.2005  0.2488  0.7171
15383SOL    HW149554   8.353   2.838   5.285  1.2001  1.1563  1.5984
15383SOL    HW249555   8.248   2.827   5.394 -0.0104  0.9149  0.4190
15384SOL     OW49556   8.838   7.622   1.835  0.4261 -0.2300 -0.5215
15384SOL    HW149557   8.795   7.548   1.878  0.0193  1.1287  1.5079
15384SOL    HW249558   8.766   7.676   1.803  0.7046 -0.3255 -1.3058
15385SOL     OW49559   1.022   4.017   1.740 -0.1272 -0.0737 -0.2090
15385SOL    HW149560   1.045   3.983   1.827 -0.0496 -3.2036 -1.3693
15385SOL    HW249561   0.937   3.978   1.721 -0.6806  1.5192 -1.0782
15386SOL     OW49562   5.139   7.670   6.506  0.1866 -0.4359 -0.2645
15386SOL    HW149563   5.143   7.599   6.570 -1.3964 -0.3451 -0.0515
15386SOL    HW249564   5.078   7.638   6.439 -0.5294  0.7015 -0.1727
15387SOL     OW49565   5.026   2.940   0.426 -0.2934  0.2979 -0.5476
15387SOL    HW149566   4.949   2.920   0.373 -0.2083 -1.9674  0.1107
15387SOL    HW249567   5.079   2.860   0.422  1.1671  1.1928  0.4682
15388SOL     OW49568   4.801   3.354   8.022  0.1439  0.4384  0.2133
15388SOL    HW149569   4.770   3.317   8.105  0.3441  0.1284  0.1522
15388SOL    HW249570   4.721   3.374   7.973  0.0197  1.1933  0.7310
15389SOL     OW49571  10.022   7.814   3.716  0.4868 -0.0565  0.3232
15389SOL    HW149572  10.044   7.740   3.660 -0.3007  0.4426 -0.6657
15389SOL    HW249573   9.948   7.783   3.768 -0.8450  0.5256 -1.1818
15390SOL     OW49574   0.959   2.920   5.668  0.7324  0.1793 -0.3867
15390SOL    HW149575   1.004   2.838   5.649  1.5953  0.4720  0.3273
15390SOL    HW249576   0.874   2.894   5.702  1.1750 -0.4359  0.2631
15391SOL     OW49577   3.937   0.150   0.472 -0.3016  0.0338 -0.2753
15391SOL    HW149578   3.960   0.184   0.385 -0.3771  0.1147 -0.2635
15391SOL    HW249579   3.847   0.118   0.461 -0.2494 -0.1141 -0.2733
15392SOL     OW49580   7.719   1.199   8.405  0.1735  0.0717 -0.6420
15392SOL    HW149581   7.756   1.249   8.478 -1.9544 -1.2967  1.4549
15392SOL    HW249582   7.655   1.259   8.366 -0.7535 -0.1750  0.4554
15393SOL     OW49583   7.119   2.011   6.524 -0.0224 -0.3644 -0.1802
15393SOL    HW149584   7.153   2.078   6.464 -0.4292 -0.4303 -0.4847
15393SOL    HW249585   7.144   2.043   6.611  2.2275 -1.2235 -0.4787
15394SOL     OW49586  10.874  10.899   7.296  0.2122 -0.4564  0.1050
15394SOL    HW149587  10.912  10.928   7.379  0.8647  0.1799 -0.4133
15394SOL    HW249588  10.879  10.976   7.239 -1.6974 -0.4054 -0.0357
15395SOL     OW49589   2.936   7.222   2.010  0.3489 -0.0682  0.2054
15395SOL    HW149590   2.961   7.134   1.980 -0.3858  0.1462 -1.0355
15395SOL    HW249591   2.896   7.263   1.934 -1.0631  0.6753  1.3424
15396SOL     OW49592   3.803   3.553   4.012  0.1240  0.2728 -0.7783
15396SOL    HW149593   3.853   3.634   4.012  0.8359 -0.1445  1.4928
15396SOL    HW249594   3.869   3.484   4.014 -0.5082 -0.3143  0.0050
15397SOL     OW49595   0.313  10.257   5.170 -0.2688 -0.5880 -0.5517
15397SOL    HW149596   0.254  10.199   5.121  0.7965 -0.1426 -2.4068
15397SOL    HW249597   0.377  10.286   5.105  1.0902  0.1488  1.0924
15398SOL     OW49598   6.782   1.216   1.505 -0.1318 -0.4869 -0.0439
15398SOL    HW149599   6.845   1.278   1.540  0.5994 -0.6875 -1.0029
15398SOL    HW249600   6.697   1.259   1.516  0.4027  0.8525 -1.0582
15399SOL     OW49601   9.937   5.182   3.632 -0.0578  0.4349  0.2320
15399SOL    HW149602  10.006   5.137   3.584 -0.6808 -1.6481  1.1880
15399SOL    HW249603   9.978   5.261   3.665  1.4722 -0.0713 -0.3995
15400SOL     OW49604   1.465   8.671   0.979  0.3649 -0.1754 -1.0935
15400SOL    HW149605   1.488   8.764   0.984 -1.9017  0.4347 -1.4542
15400SOL    HW249606   1.416   8.654   1.059  1.1092 -1.1804 -0.8351
15401SOL     OW49607   7.758   7.818   5.007 -0.1301  0.1530 -0.0284
15401SOL    HW149608   7.749   7.913   5.019  1.6625  0.2922  0.3546
15401SOL    HW249609   7.743   7.804   4.914 -3.5622  0.3930  0.4133
15402SOL     OW49610   1.282   2.999   3.289 -0.5537 -0.8075 -0.1990
15402SOL    HW149611   1.376   2.984   3.281 -0.9295 -3.2754 -0.3244
15402SOL    HW249612   1.261   3.057   3.216  0.7345 -0.9100 -0.6603
15403SOL     OW49613   9.129   1.843   5.650 -0.1033  0.1305 -0.2125
15403SOL    HW149614   9.077   1.780   5.602  2.0134 -1.4644 -0.4952
15403SOL    HW249615   9.170   1.897   5.583  0.1801  0.0809 -0.0812
15404SOL     OW49616   0.212   4.520   4.393 -0.1127 -0.1893  0.2084
15404SOL    HW149617   0.202   4.535   4.487  2.8759  0.8234  0.4238
15404SOL    HW249618   0.222   4.425   4.385 -0.1553 -0.2615  0.9194
15405SOL     OW49619   1.837   3.442   7.057  0.1678  0.0503 -0.0433
15405SOL    HW149620   1.896   3.432   6.982 -1.0331  1.2768 -1.1861
15405SOL    HW249621   1.817   3.352   7.084  2.0117 -0.3865 -0.0446
15406SOL     OW49622   0.300   8.711   0.144 -0.0170  0.4661 -0.1519
15406SOL    HW149623   0.352   8.701   0.064  1.2253 -1.0610  0.8183
15406SOL    HW249624   0.350   8.772   0.198  0.3641 -0.3617  0.4390
15407SOL     OW49625   3.927   3.985   0.405 -0.2878  0.1035 -0.0538
15407SOL    HW149626   3.897   4.066   0.365 -0.0714 -0.0269 -0.4856
15407SOL    HW249627   3.852   3.926   0.400  0.3397 -0.5705 -2.0858
15408SOL     OW49628   9.229   7.587   7.390 -0.3696  0.1442  0.5987
15408SOL    HW149629   9.182   7.664   7.421 -0.3693  0.5111 -0.3066
15408SOL    HW249630   9.269   7.614   7.307  2.4923  0.2319  1.9455
15409SOL     OW49631   9.134   8.253   0.779 -0.1442 -0.2320  0.1787
15409SOL    HW149632   9.122   8.333   0.830 -0.6225  0.0678 -0.3848
15409SOL    HW249633   9.051   8.206   0.788  1.0669 -2.0189  2.7541
15410SOL     OW49634  10.294  10.038   7.215  0.3706  0.2665  0.2691
15410SOL    HW149635  10.287  10.128   7.186 -0.2151 -0.7594 -2.9593
15410SOL    HW249636  10.365  10.001   7.163  0.0983 -1.3433  0.9910
15411SOL     OW49637   6.063   1.236   1.570 -0.5874  0.5919  0.3311
15411SOL    HW149638   5.969   1.228   1.584 -0.5645 -0.5581 -0.1441
15411SOL    HW249639   6.078   1.203   1.482  0.1417  1.7011  0.0161
15412SOL     OW49640   9.412   5.743   3.387  0.3395  0.2879  0.6033
15412SOL    HW149641   9.383   5.686   3.459 -1.9476  0.2770 -0.2916
15412SOL    HW249642   9.419   5.684   3.312 -0.2453  0.8419  0.1103
15413SOL     OW49643   8.741  10.520   0.403 -0.1363 -0.0173  0.5429
15413SOL    HW149644   8.674  10.497   0.467  0.9268 -2.1224  0.9607
15413SOL    HW249645   8.809  10.454   0.415  0.8180  0.5022 -1.6641
15414SOL     OW49646   4.173   6.236   2.304 -0.4330  0.0413 -0.1835
15414SOL    HW149647   4.152   6.258   2.213  1.3110  1.1584 -0.3512
15414SOL    HW249648   4.222   6.154   2.297 -1.8754 -0.8437 -0.0744
15415SOL     OW49649   3.597   1.132   0.577 -0.1736 -0.2850  0.1497
15415SOL    HW149650   3.509   1.112   0.547 -0.3228  3.5466 -2.2742
15415SOL    HW249651   3.584   1.167   0.666 -1.1878  0.9464 -0.4695
15416SOL     OW49652   3.739   4.430   2.948  0.0601  0.2504 -0.1603
15416SOL    HW149653   3.646   4.444   2.964 -0.0856 -1.1419  0.2264
15416SOL    HW249654   3.755   4.469   2.862 -1.1825 -0.8200 -0.8833
15417SOL     OW49655   9.934   4.986   0.646 -0.7379  0.0764 -0.2683
15417SOL    HW149656   9.911   5.076   0.667  0.0876  0.2217  0.0353
15417SOL    HW249657  10.018   4.971   0.691  0.2664 -0.1072 -2.1370
15418SOL     OW49658   1.490  10.734   6.190 -0.4946  0.7614  0.3866
15418SOL    HW149659   1.543  10.655   6.184  1.7184  2.2331  0.1006
15418SOL    HW249660   1.411  10.714   6.139  0.5455 -0.8432 -0.6163
15419SOL     OW49661   0.505   9.577   4.103 -0.3108 -0.4540  0.4645
15419SOL    HW149662   0.511   9.646   4.169  0.5924 -2.4526  2.5468
15419SOL    HW249663   0.504   9.624   4.019  1.9823  2.0201  1.7234
15420SOL     OW49664   7.497   5.855   8.302  0.5740 -0.8332 -0.2514
15420SOL    HW149665   7.537   5.794   8.239  0.1937  0.6903 -1.9961
15420SOL    HW249666   7.477   5.933   8.251 -0.2926  0.2252  1.6515
15421SOL     OW49667   2.939   5.069   7.669 -0.7545 -0.2789 -0.2300
15421SOL    HW149668   2.917   5.049   7.760  2.0238  1.1856  0.8394
15421SOL    HW249669   2.858   5.055   7.621 -1.8582 -2.7221  2.1996
15422SOL     OW49670   3.646   0.093  10.278 -0.2712 -0.0085  0.4871
15422SOL    HW149671   3.603   0.031  10.220 -1.3132 -0.3930  1.6450
15422SOL    HW249672   3.670   0.167  10.222  2.8163 -2.2856 -1.3383
15423SOL     OW49673  10.835  10.730   8.644  0.6805  0.3514  0.2054
15423SOL    HW149674  10.856  10.752   8.735  1.7256  2.8044 -0.6000
15423SOL    HW249675  10.769  10.795   8.618 -0.8286 -1.3456 -0.3095
15424SOL     OW49676   9.253   8.281   3.483 -0.0909 -0.2578  0.5068
15424SOL    HW149677   9.272   8.371   3.455  1.4624 -1.0033 -1.0130
15424SOL    HW249678   9.339   8.245   3.507 -0.3692 -1.9709 -0.9318
15425SOL     OW49679   6.556   5.790   6.165  0.3318 -0.0713  0.3145
15425SOL    HW149680   6.529   5.879   6.187  1.1741  0.7698 -1.9964
15425SOL    HW249681   6.646   5.783   6.198  1.0409  0.6809 -1.3952
15426SOL     OW49682  10.795   5.046   9.091  0.0541  0.6601  0.4447
15426SOL    HW149683  10.885   5.078   9.079 -0.6415  2.5787  0.1542
15426SOL    HW249684  10.744   5.125   9.108 -1.4156 -0.5316  1.6630
15427SOL     OW49685   6.232   6.459   3.944 -0.5388  0.2540 -0.0491
15427SOL    HW149686   6.263   6.368   3.950  1.1714  0.7380 -1.1784
15427SOL    HW249687   6.210   6.470   3.851 -0.3386  1.1231  0.0071
15428SOL     OW49688  10.762   9.995   4.367  0.3088  0.2168  0.0733
15428SOL    HW149689  10.726  10.050   4.437 -0.5386 -1.2895  0.8419
15428SOL    HW249690  10.700   9.922   4.360  1.3640 -0.5885 -1.0004
15429SOL     OW49691   3.148  10.454   7.243  0.4738 -0.1963  0.1736
15429SOL    HW149692   3.157  10.359   7.235 -0.7085 -0.3042 -0.0524
15429SOL    HW249693   3.084  10.465   7.314  1.0043  0.4490  0.5559
15430SOL     OW49694   2.183   7.870   5.504 -0.3587  0.7232 -0.4761
15430SOL    HW149695   2.156   7.961   5.493 -1.0351  0.8490  1.8290
15430SOL    HW249696   2.250   7.874   5.573 -0.4625 -0.5278 -0.2961
15431SOL     OW49697  10.501   1.112   2.954 -0.1333 -0.2445 -0.8698
15431SOL    HW149698  10.470   1.095   3.043  2.1890 -1.7797 -0.3198
15431SOL    HW249699  10.508   1.207   2.948 -1.6992 -0.0523  0.0773
15432SOL     OW49700   1.173  10.672   9.544 -0.0494 -0.9095 -0.4677
15432SOL    HW149701   1.089  10.696   9.582  0.8780  1.2933  0.2650
15432SOL    HW249702   1.170  10.709   9.456  0.3526 -0.4081 -0.2687
15433SOL     OW49703   7.544   1.399   2.763  0.1584 -0.2719 -0.5547
15433SOL    HW149704   7.458   1.423   2.798  0.8497  3.4278 -1.2515
15433SOL    HW249705   7.526   1.370   2.673 -0.2897  1.3822 -1.0163
15434SOL     OW49706   0.634   0.886   9.413 -0.2514 -0.4340  0.5896
15434SOL    HW149707   0.578   0.936   9.353 -1.4373 -1.0215  1.1786
15434SOL    HW249708   0.633   0.939   9.494  1.8999  0.7110 -0.1044
15435SOL     OW49709  10.397   6.172   7.455 -0.2175 -0.3069 -0.1707
15435SOL    HW149710  10.360   6.124   7.382  0.5255 -0.1266 -0.6663
15435SOL    HW249711  10.491   6.153   7.452  0.4410  2.8648 -1.6880
15436SOL     OW49712   9.408   8.666   9.013 -0.1643 -0.0826 -0.2555
15436SOL    HW149713   9.375   8.753   8.991  0.7968 -0.8202 -5.0915
15436SOL    HW249714   9.503   8.674   9.009 -0.0537 -1.2686 -0.3842
15437SOL     OW49715   1.993   0.217   7.034  0.1632  0.2983 -0.1499
15437SOL    HW149716   1.931   0.290   7.041 -1.3662 -1.0711  0.6468
15437SOL    HW249717   1.987   0.189   6.943 -0.5556  0.0179 -0.0152
15438SOL     OW49718   8.906   0.326   3.267 -0.2519  0.1398 -0.4147
15438SOL    HW149719   8.887   0.302   3.358  0.3240 -2.3077 -0.9100
15438SOL    HW249720   8.820   0.344   3.229 -0.4714  1.5488  0.6926
15439SOL     OW49721   7.049   3.163   7.350  0.1023  0.1691 -0.2163
15439SOL    HW149722   7.057   3.235   7.413  0.2989  1.1443 -1.3471
15439SOL    HW249723   7.135   3.120   7.352 -0.5553 -1.1470  1.7544
15440SOL     OW49724   8.556   8.985   8.364  0.4165 -0.1134  0.4371
15440SOL    HW149725   8.528   9.024   8.447 -1.3225 -0.2813 -0.0516
15440SOL    HW249726   8.542   9.053   8.299  2.3426  0.2204  0.3492
15441SOL     OW49727   6.321  10.026   7.199 -0.0052  0.1959 -0.1033
15441SOL    HW149728   6.283  10.111   7.221 -1.4032 -0.9543  2.1584
15441SOL    HW249729   6.414  10.043   7.188 -0.4525  2.2212 -0.8262
15442SOL     OW49730   6.524  10.111   4.828  0.0215 -0.6206  0.2428
15442SOL    HW149731   6.591  10.153   4.775 -0.3581 -1.4000 -0.8639
15442SOL    HW249732   6.467  10.067   4.765  0.8959 -3.5511  1.4214
15443SOL     OW49733   4.150   4.608   8.898 -0.1171  0.0943  0.2777
15443SOL    HW149734   4.127   4.679   8.959  1.1394 -0.2178  1.1431
15443SOL    HW249735   4.081   4.543   8.910 -1.7076  1.4682 -1.0743
15444SOL     OW49736   4.460   3.172   9.668 -0.0524 -0.7378  0.1677
15444SOL    HW149737   4.368   3.199   9.662 -0.0445 -0.6518  0.4377
15444SOL    HW249738   4.492   3.179   9.578 -0.4574 -1.2991 -0.0241
15445SOL     OW49739   7.973   1.735   5.326  0.2690 -0.5388  0.7395
15445SOL    HW149740   7.908   1.803   5.309 -1.3131 -2.1687  0.1677
15445SOL    HW249741   7.950   1.703   5.414  1.0208 -0.3479  1.0101
15446SOL     OW49742   5.802   0.126   7.844  0.3129 -0.1068 -0.2222
15446SOL    HW149743   5.750   0.100   7.769 -0.6564  1.2227 -0.0253
15446SOL    HW249744   5.758   0.203   7.879  0.6801 -0.7641  1.7880
15447SOL     OW49745   0.622   5.846   2.011 -0.0287  0.0139  0.4420
15447SOL    HW149746   0.687   5.889   2.067 -0.5556 -0.3275  1.3368
15447SOL    HW249747   0.539   5.886   2.037 -0.6160 -1.9560  1.7489
15448SOL     OW49748   5.677   2.634  10.688 -0.0524 -0.0789 -0.0638
15448SOL    HW149749   5.652   2.587  10.768 -1.0841 -0.3451 -0.5306
15448SOL    HW249750   5.734   2.573  10.641 -1.1755 -0.7930 -0.5435
15449SOL     OW49751   6.077   3.937   0.944 -0.5179 -0.6759  0.4448
15449SOL    HW149752   6.017   3.996   0.991  1.9923  1.0701  1.6133
15449SOL    HW249753   6.075   3.968   0.853  2.6649  3.0165  1.4933
15450SOL     OW49754   2.515   4.141   7.258  0.3380 -0.3579 -0.6730
15450SOL    HW149755   2.540   4.230   7.233 -0.1277  0.5200  1.8168
15450SOL    HW249756   2.420   4.146   7.273  0.5668 -0.8586  1.0366
15451SOL     OW49757   3.861   6.321   7.374 -0.2932  0.3852 -0.4606
15451SOL    HW149758   3.877   6.232   7.406  0.9335 -0.1870 -2.6056
15451SOL    HW249759   3.823   6.309   7.287 -1.6883  1.9553 -0.0922
15452SOL     OW49760   1.786   8.189   2.511  0.3333 -0.2519 -0.0784
15452SOL    HW149761   1.855   8.198   2.577  0.9945 -0.5698 -0.7138
15452SOL    HW249762   1.784   8.096   2.491  0.2379 -0.1417 -0.6015
15453SOL     OW49763   8.421   9.451   1.258 -0.4665 -0.2171  0.1026
15453SOL    HW149764   8.353   9.424   1.196  0.2065  1.4145 -1.3843
15453SOL    HW249765   8.456   9.533   1.222  1.6942 -0.5658  1.3078
15454SOL     OW49766   9.787   5.199   4.261  0.3806  0.1462 -0.4580
15454SOL    HW149767   9.856   5.263   4.278  1.2096 -1.1708  1.4170
15454SOL    HW249768   9.775   5.154   4.345  1.7023 -3.9497 -2.3263
15455SOL     OW49769   2.157   8.116   2.109 -0.0337  0.0866  0.2652
15455SOL    HW149770   2.176   8.210   2.105  0.9518 -0.1834 -2.0711
15455SOL    HW249771   2.128   8.101   2.199  0.4259  2.5116  0.8397
15456SOL     OW49772   6.147   5.708   1.333 -0.2680 -0.6076 -0.0454
15456SOL    HW149773   6.103   5.679   1.412 -1.7000  0.0655 -0.5746
15456SOL    HW249774   6.164   5.801   1.348 -0.3600 -0.5241 -0.4383
15457SOL     OW49775   6.935   9.661   6.973  0.2943 -0.3163 -0.1316
15457SOL    HW149776   6.970   9.744   7.005  1.3284 -0.3842 -1.0563
15457SOL    HW249777   6.943   9.667   6.878  0.3015 -1.4453 -0.2121
15458SOL     OW49778   3.918   8.805   0.992 -0.3551 -0.5206 -0.6636
15458SOL    HW149779   3.883   8.771   1.075 -0.9360  0.4897 -0.4855
15458SOL    HW249780   3.915   8.729   0.933  0.1632 -1.2759  0.2588
15459SOL     OW49781   5.939   2.697   6.089  0.4703 -0.1947 -0.5023
15459SOL    HW149782   5.964   2.771   6.145 -0.4300  0.8616 -1.4556
15459SOL    HW249783   5.909   2.630   6.150 -0.5748  0.9734  0.3036
15460SOL     OW49784   6.835   3.717   9.892 -0.0298 -0.5010 -0.2094
15460SOL    HW149785   6.853   3.706   9.798 -0.8257 -0.5596 -0.3630
15460SOL    HW249786   6.765   3.654   9.910 -1.8248  1.4216 -0.2001
15461SOL     OW49787   5.013   5.767   6.968  0.2775  0.7342 -0.0693
15461SOL    HW149788   4.992   5.674   6.957 -1.2458  0.9235  1.0504
15461SOL    HW249789   5.037   5.775   7.060  2.0925  1.1645 -0.5527
15462SOL     OW49790  10.256   0.656   4.821  0.2014 -0.2097 -0.7238
15462SOL    HW149791  10.342   0.614   4.815  0.2267 -0.2871  0.2446
15462SOL    HW249792  10.233   0.651   4.913 -0.8353 -0.1660 -0.9775
15463SOL     OW49793   8.162   7.287   0.543  0.1384  0.4107  0.0966
15463SOL    HW149794   8.119   7.222   0.599 -0.8096  0.7157 -0.2608
15463SOL    HW249795   8.199   7.236   0.471  0.2404  0.1562  0.3308
15464SOL     OW49796   3.292   4.047  10.590 -0.0592 -0.3722 -0.2424
15464SOL    HW149797   3.235   4.056  10.513 -0.9957  2.1761  0.7272
15464SOL    HW249798   3.232   4.029  10.662  0.6740 -0.9753  0.2234
15465SOL     OW49799   9.318   7.106   9.626 -0.3224 -0.2757 -0.0832
15465SOL    HW149800   9.239   7.158   9.643 -0.2208 -0.8585  2.4860
15465SOL    HW249801   9.285   7.024   9.589 -0.8550 -0.0983 -0.0084
15466SOL     OW49802   3.660   0.941   1.420  0.4098  0.6802 -0.1268
15466SOL    HW149803   3.722   0.965   1.352 -0.0424  0.0149 -0.7806
15466SOL    HW249804   3.591   0.893   1.374  0.2858 -0.0964  0.8509
15467SOL     OW49805  10.736   4.528   1.150 -0.3070  0.3436  0.3625
15467SOL    HW149806  10.797   4.484   1.090 -0.5521 -0.9882  1.0655
15467SOL    HW249807  10.730   4.469   1.225 -1.3468  1.1675  0.9372
15468SOL     OW49808  10.358   6.536   2.547 -0.7386 -0.0753  0.2005
15468SOL    HW149809  10.322   6.622   2.568  0.2906 -0.0935  2.0964
15468SOL    HW249810  10.453   6.549   2.547 -0.6126 -0.8542 -1.1716
15469SOL     OW49811   8.963   6.243   7.010 -0.0032  0.2140  0.4687
15469SOL    HW149812   8.933   6.213   6.924  1.0566  0.3428  0.0527
15469SOL    HW249813   8.916   6.326   7.024 -1.6037 -0.7411  0.8570
15470SOL     OW49814   1.011   2.465   0.439 -0.2233 -0.1595 -0.0083
15470SOL    HW149815   1.052   2.530   0.496 -1.3674  1.2434 -0.7498
15470SOL    HW249816   0.975   2.400   0.499  1.0287 -0.1861  0.7383
15471SOL     OW49817   5.825   2.268   1.008  0.1613  0.4776 -0.2147
15471SOL    HW149818   5.911   2.299   1.039 -0.3348 -1.4604  3.3741
15471SOL    HW249819   5.842   2.180   0.975 -0.2822  0.3993 -0.2339
15472SOL     OW49820   6.364   7.135  10.864 -0.5969 -0.0948  0.5242
15472SOL    HW149821   6.369   7.218  10.816  0.0587 -0.3010  0.2292
15472SOL    HW249822   6.360   7.068  10.796 -1.6958 -0.2784  0.7593
15473SOL     OW49823   2.531   7.289  10.454  0.4549  1.1354  0.3765
15473SOL    HW149824   2.564   7.362  10.400  2.1935  0.5710  0.6595
15473SOL    HW249825   2.609   7.247  10.488 -0.5490 -0.8227  0.3115
15474SOL     OW49826  10.041   5.078   3.275 -0.1839  0.2973  0.0015
15474SOL    HW149827  10.087   5.103   3.355  1.0216  1.2781 -0.9764
15474SOL    HW249828  10.098   5.012   3.234  0.4434  1.6287 -1.2920
15475SOL     OW49829   5.328  10.212   2.354 -0.1883  0.7509  0.2907
15475SOL    HW149830   5.274  10.171   2.422  1.0293  0.8612  1.3301
15475SOL    HW249831   5.361  10.139   2.302 -1.2916  0.6780 -0.3275
15476SOL     OW49832   4.780   5.932   1.242 -0.1914  0.8237  0.4091
15476SOL    HW149833   4.838   5.932   1.319 -0.6738  2.4438  0.7754
15476SOL    HW249834   4.703   5.982   1.269 -1.9100 -1.4918 -0.0064
15477SOL     OW49835   3.747   0.670   6.590 -0.0837 -0.0233 -0.8053
15477SOL    HW149836   3.835   0.708   6.587  0.0836 -0.2511  0.9020
15477SOL    HW249837   3.761   0.576   6.575  0.3459 -0.5794  2.7893
15478SOL     OW49838  10.383   1.531   9.387 -0.1037 -0.4581 -0.2441
15478SOL    HW149839  10.369   1.513   9.480  2.0404 -0.5989  0.0807
15478SOL    HW249840  10.433   1.456   9.356  0.2116  0.1624 -1.2408
15479SOL     OW49841   8.945  10.551   5.257  0.8567 -0.6196  0.3443
15479SOL    HW149842   8.898  10.555   5.174 -0.5899  0.9901  1.2134
15479SOL    HW249843   9.033  10.583   5.236  1.3820 -2.8719 -1.1214
15480SOL     OW49844   7.680  10.960   3.380 -0.1512 -0.0051 -0.1832
15480SOL    HW149845   7.604  10.956   3.322 -0.4750 -0.1769  0.2439
15480SOL    HW249846   7.666  11.039   3.432  0.1475  0.1603 -0.3595
15481SOL     OW49847   6.078   4.736   1.730  0.2317  0.4637 -0.0922
15481SOL    HW149848   6.148   4.792   1.696  0.0839  0.8756  0.2769
15481SOL    HW249849   6.013   4.797   1.766 -0.4963  0.1000 -0.7741
15482SOL     OW49850   8.450   9.660   7.197 -0.2097 -0.0749 -0.1898
15482SOL    HW149851   8.369   9.712   7.198 -0.9576 -1.2301  0.1141
15482SOL    HW249852   8.421   9.570   7.216  1.0997 -0.5583 -0.4590
15483SOL     OW49853  10.724   8.267   9.136  0.0390 -0.4103  1.0121
15483SOL    HW149854  10.742   8.313   9.054  1.5358 -0.4094  1.3326
15483SOL    HW249855  10.683   8.185   9.109 -2.3650  0.9335  0.4205
15484SOL     OW49856   2.690   7.118   6.267 -0.0669 -0.2392 -0.1842
15484SOL    HW149857   2.689   7.109   6.172 -1.0826 -0.4557 -0.1579
15484SOL    HW249858   2.651   7.037   6.300  1.2316 -0.6170  0.4625
15485SOL     OW49859   0.643   3.059   2.619  0.1672  0.1317 -0.2802
15485SOL    HW149860   0.695   2.988   2.581  2.0955  0.7905  1.0253
15485SOL    HW249861   0.559   3.054   2.574  0.6442 -2.2846 -0.9942
15486SOL     OW49862   7.269   7.040   8.971  0.3813  0.1197  0.0591
15486SOL    HW149863   7.251   7.104   9.040 -0.9065 -0.1850  0.0334
15486SOL    HW249864   7.319   6.971   9.014  0.5304  0.4567  0.4268
15487SOL     OW49865   8.751   7.139   6.681 -0.1123 -0.6825  0.0414
15487SOL    HW149866   8.658   7.129   6.702 -0.5116  1.1822 -0.7672
15487SOL    HW249867   8.796   7.115   6.762 -1.3410 -0.6241  0.7523
15488SOL     OW49868  10.561   4.405   2.472 -0.0788 -0.5163  0.0525
15488SOL    HW149869  10.609   4.481   2.505 -1.0024 -0.2781  0.8775
15488SOL    HW249870  10.601   4.386   2.387  1.3295 -0.1966  0.6256
15489SOL     OW49871   7.486   6.319   9.654 -0.6065  0.3846 -0.0186
15489SOL    HW149872   7.521   6.347   9.738 -0.8459  1.5626 -0.3025
15489SOL    HW249873   7.530   6.235   9.636  0.1479  0.5958  0.8226
15490SOL     OW49874   8.250   4.254   2.841 -0.4709  0.6476  0.0710
15490SOL    HW149875   8.193   4.294   2.775 -1.2638  0.9134  0.9067
15490SOL    HW249876   8.307   4.325   2.869 -0.9007  0.8186  0.5037
15491SOL     OW49877   5.078   8.499   4.487  0.7879  0.0840  0.4776
15491SOL    HW149878   5.024   8.551   4.427  0.9082 -0.6919 -0.3040
15491SOL    HW249879   5.143   8.562   4.521  0.4794  0.6120  0.1004
15492SOL     OW49880   6.039   3.752   5.876 -0.3357  0.0286 -0.4785
15492SOL    HW149881   6.028   3.683   5.941  2.7709 -0.8403 -0.8149
15492SOL    HW249882   6.036   3.706   5.792  0.6890  0.4393 -0.7431
15493SOL     OW49883   1.527   3.317   0.149 -0.1965  0.0115  0.2298
15493SOL    HW149884   1.532   3.312   0.054 -2.7521  0.2536  0.0576
15493SOL    HW249885   1.527   3.411   0.169  2.6782 -0.0254  0.6590
15494SOL     OW49886   5.549   5.038   1.999  0.0398 -0.1337  0.0007
15494SOL    HW149887   5.527   4.959   1.950 -2.0839  0.9073 -0.7652
15494SOL    HW249888   5.549   5.108   1.933  0.3220  0.7598  0.9406
15495SOL     OW49889   4.242   4.840  10.375 -0.2071 -0.3329  0.1861
15495SOL    HW149890   4.207   4.812  10.460  0.2738  1.1639  0.8955
15495SOL    HW249891   4.204   4.779  10.312 -2.9261  0.3588  1.1161
15496SOL     OW49892   4.178   1.301   5.281  0.9315 -0.0186 -0.4204
15496SOL    HW149893   4.174   1.356   5.203 -0.9377 -0.4169 -0.6214
15496SOL    HW249894   4.226   1.223   5.253 -2.2229 -1.4483 -2.0045
15497SOL     OW49895   9.394   4.457  10.418 -0.4307 -0.2641  0.1380
15497SOL    HW149896   9.303   4.450  10.446 -0.8520 -1.5274 -1.4932
15497SOL    HW249897   9.416   4.370  10.384  0.7020  0.6255 -1.5000
15498SOL     OW49898   1.133   5.712  10.313  0.5530  0.5193 -0.0817
15498SOL    HW149899   1.178   5.639  10.271  0.6561 -0.7267  2.1022
15498SOL    HW249900   1.042   5.682  10.322  0.4670  0.8763  0.2831
15499SOL     OW49901   3.112   7.950   7.503  0.9607 -0.0557 -0.0735
15499SOL    HW149902   3.036   7.937   7.446  1.4931 -0.7366 -0.6302
15499SOL    HW249903   3.140   8.039   7.485  0.7155 -0.0374 -0.3696
15500SOL     OW49904   2.697   2.946   5.672 -0.1365 -0.1925  0.6517
15500SOL    HW149905   2.712   2.999   5.751  0.5841 -0.8984  1.0099
15500SOL    HW249906   2.602   2.934   5.668 -0.5161  2.8509 -0.6059
15501SOL     OW49907   2.042   5.748   1.650  0.2414 -0.7743  0.0553
15501SOL    HW149908   2.043   5.755   1.554 -2.4987  0.6361  0.0762
15501SOL    HW249909   2.053   5.837   1.681 -4.1083 -0.3953  0.8968
15502SOL     OW49910   1.367   1.998   3.846  0.5008 -0.6119 -0.6509
15502SOL    HW149911   1.366   2.093   3.831 -1.0704 -0.5271 -0.0805
15502SOL    HW249912   1.444   1.983   3.901 -0.7048  0.6880  1.4547
15503SOL     OW49913   0.856   0.430   9.286 -0.2907  0.3228 -0.4732
15503SOL    HW149914   0.903   0.390   9.360  0.6749  0.1555 -1.1667
15503SOL    HW249915   0.826   0.514   9.320  0.1195  0.2320  0.1316
15504SOL     OW49916  10.708   0.271   5.384  0.0126  0.2410  0.3354
15504SOL    HW149917  10.796   0.278   5.421  0.4293 -0.7890 -0.4141
15504SOL    HW249918  10.716   0.306   5.295  0.2132 -1.8773 -0.5213
15505SOL     OW49919   6.294  10.043   1.110  0.5602 -0.4042  0.1646
15505SOL    HW149920   6.270  10.098   1.184  0.5076 -0.0407 -0.1179
15505SOL    HW249921   6.319  10.106   1.041  3.8316 -0.7699  0.9370
15506SOL     OW49922   8.774   3.149   8.443  0.3024  0.4811 -0.3177
15506SOL    HW149923   8.721   3.228   8.457 -0.7434 -0.0945 -1.0158
15506SOL    HW249924   8.864   3.179   8.457 -0.2167  1.3674  1.3093
15507SOL     OW49925   9.053   2.014   9.975  0.2566 -0.2124  0.3702
15507SOL    HW149926   9.144   1.984   9.978  0.0066 -1.0379 -0.0544
15507SOL    HW249927   9.022   1.990   9.888 -0.7071 -0.9759  0.9118
15508SOL     OW49928   4.591   2.469   2.688  0.2751  0.9329  0.6231
15508SOL    HW149929   4.550   2.556   2.682 -1.2490  0.1190 -1.7193
15508SOL    HW249930   4.644   2.463   2.609  0.0898 -0.3835  0.5954
15509SOL     OW49931   7.983   3.980   4.731 -0.7025 -0.1563  0.6823
15509SOL    HW149932   7.942   4.065   4.746 -0.6900 -0.0259  0.0042
15509SOL    HW249933   8.055   3.976   4.794 -0.9170  0.1902  0.9492
15510SOL     OW49934   0.838   8.235   5.477 -0.1000  0.0896  0.0282
15510SOL    HW149935   0.827   8.140   5.482 -1.0360  0.2256  0.8070
15510SOL    HW249936   0.766   8.269   5.529 -0.5286  1.2691 -1.3343
15511SOL     OW49937   2.037   6.074   6.311 -0.1264  0.2437  0.1543
15511SOL    HW149938   1.990   6.104   6.388  0.3251  1.2313  0.0515
15511SOL    HW249939   2.022   6.142   6.245  1.0060  0.3169 -0.0466
15512SOL     OW49940   4.896   6.780   7.192  0.3595 -0.0032  0.1562
15512SOL    HW149941   4.886   6.756   7.100 -1.6912  0.5796  0.2107
15512SOL    HW249942   4.871   6.701   7.240  0.9721 -0.1531  0.2393
15513SOL     OW49943  10.494   4.213   0.891  0.0424 -0.2231  0.4590
15513SOL    HW149944  10.454   4.155   0.827 -0.8206 -0.0851  0.8577
15513SOL    HW249945  10.444   4.198   0.971  0.5658  0.2134  0.8721
15514SOL     OW49946   4.339   4.849   8.495 -0.2374  0.2550 -0.0690
15514SOL    HW149947   4.324   4.936   8.533 -1.7818 -0.3569  0.7704
15514SOL    HW249948   4.342   4.790   8.570 -0.4743 -0.5907 -0.7165
15515SOL     OW49949   1.706   3.099   6.472  0.5604  0.2350 -0.0862
15515SOL    HW149950   1.683   3.153   6.397 -0.7152  0.4290  0.4222
15515SOL    HW249951   1.802   3.100   6.475  0.5611  2.3529 -0.1611
15516SOL     OW49952  10.410   2.608   8.722  0.3573  0.5332  0.0122
15516SOL    HW149953  10.406   2.669   8.648 -0.6516  1.1791  0.5945
15516SOL    HW249954  10.337   2.548   8.707  1.3745 -0.5697 -0.5828
15517SOL     OW49955   4.292   5.852  10.360  0.2945  0.8928  0.1525
15517SOL    HW149956   4.242   5.770  10.358 -1.3149  1.8357  0.7980
15517SOL    HW249957   4.339   5.849  10.443 -0.5308  1.0799  0.6226
15518SOL     OW49958   9.882  10.273   2.824  0.1628 -0.1377  0.1583
15518SOL    HW149959   9.800  10.276   2.775 -0.9359 -1.9871  1.8248
15518SOL    HW249960   9.856  10.260   2.915  2.2310  1.4216  1.0322
15519SOL     OW49961   0.874   8.855   1.748  0.0843  0.2994 -0.0864
15519SOL    HW149962   0.857   8.921   1.681 -0.4939  0.9009  0.6463
15519SOL    HW249963   0.796   8.799   1.746 -0.3938  0.9197  0.7774
15520SOL     OW49964   5.604   0.552   5.248  0.0450 -0.0202  0.0486
15520SOL    HW149965   5.655   0.611   5.304 -0.4570  1.9466 -1.4957
15520SOL    HW249966   5.517   0.550   5.287  0.3402 -0.5700  0.6840
15521SOL     OW49967   4.293   9.411   0.559  0.1007 -0.2700 -0.5720
15521SOL    HW149968   4.308   9.413   0.653  0.4475  2.6501 -0.6461
15521SOL    HW249969   4.247   9.329   0.543 -0.9978 -0.2511  2.3046
15522SOL     OW49970   9.586   0.451   8.981  0.1193  0.3772  0.8514
15522SOL    HW149971   9.618   0.537   9.008  1.3006  0.4356 -0.6755
15522SOL    HW249972   9.502   0.469   8.938  0.8145  0.9069 -0.3250
15523SOL     OW49973   7.218   0.104   9.694 -0.1422 -0.5180  0.5320
15523SOL    HW149974   7.274   0.163   9.744  0.0344  0.4792 -0.7935
15523SOL    HW249975   7.130   0.136   9.709 -0.1265 -0.4969  0.5785
15524SOL     OW49976   3.062   0.351   2.543  0.1234 -0.0876  0.0416
15524SOL    HW149977   3.139   0.409   2.542  0.2064 -0.1921  0.5268
15524SOL    HW249978   2.990   0.407   2.572 -0.5000  0.6492 -2.7020
15525SOL     OW49979   0.139  10.558   1.135 -0.0455  0.3727  0.2083
15525SOL    HW149980   0.055  10.592   1.104 -0.8594 -1.6298  0.0909
15525SOL    HW249981   0.162  10.490   1.071  1.1861  0.2329  0.7749
15526SOL     OW49982   2.394   1.354   1.690 -0.3101 -0.1376  0.2317
15526SOL    HW149983   2.459   1.416   1.658  0.3682 -2.3576 -2.9393
15526SOL    HW249984   2.312   1.403   1.693  0.2795  1.0302 -1.8219
15527SOL     OW49985   0.879  10.769   4.873 -0.5204  0.4311  0.3387
15527SOL    HW149986   0.961  10.815   4.888  0.0921 -0.2886 -0.7270
15527SOL    HW249987   0.900  10.705   4.805 -1.0390 -2.2208  2.6036
15528SOL     OW49988   3.927   9.250   0.751  0.5349  0.1557  0.4269
15528SOL    HW149989   3.950   9.340   0.774  0.3355  0.7847 -1.7597
15528SOL    HW249990   4.011   9.205   0.744  0.6835  0.4262  0.4503
15529SOL     OW49991   9.255   9.687   3.275 -0.2589 -0.3093 -0.3377
15529SOL    HW149992   9.219   9.680   3.363 -1.2477  0.6267 -0.6533
15529SOL    HW249993   9.178   9.694   3.218  0.3810  1.5376 -1.0399
15530SOL     OW49994   3.133   3.744   9.287 -0.8869 -0.3466 -0.0439
15530SOL    HW149995   3.181   3.754   9.369 -0.1300  0.4079 -0.5732
15530SOL    HW249996   3.201   3.726   9.222 -1.4161 -0.2416 -0.6290
15531SOL     OW49997   1.150   3.930   9.802 -0.2116 -0.1085  0.4510
15531SOL    HW149998   1.138   3.935   9.897 -0.9433  1.5326  0.3022
15531SOL    HW249999   1.103   4.007   9.769 -0.5003 -1.0200 -1.2896
15532SOL     OW50000   2.036   7.950  10.059 -0.5214 -0.5485  0.2438
15532SOL    HW150001   1.969   8.012  10.088 -0.9542 -1.3789  1.0344
15532SOL    HW250002   1.990   7.891   9.999 -0.3385 -0.7211  0.2749
15533SOL     OW50003   5.483   7.689   4.437  0.5132 -0.1536  0.7021
15533SOL    HW150004   5.437   7.624   4.384 -2.9472  1.8024  1.1456
15533SOL    HW250005   5.523   7.749   4.374  0.0643 -0.2888  0.2879
15534SOL     OW50006   2.448   2.131   7.390 -0.3782  0.5296  0.1355
15534SOL    HW150007   2.525   2.158   7.440  0.1533 -1.4659  0.4663
15534SOL    HW250008   2.484   2.084   7.315 -1.2578 -0.3432  0.2411
15535SOL     OW50009  10.043   1.952   5.582 -0.0343 -0.0120 -0.3401
15535SOL    HW150010   9.991   1.983   5.655 -0.1466 -0.9488 -0.0238
15535SOL    HW250011   9.982   1.902   5.528 -0.1543  1.3505 -1.5201
15536SOL     OW50012   2.243   9.333   1.146  0.1113 -0.0247  0.1355
15536SOL    HW150013   2.318   9.393   1.146  0.4011 -0.3593  2.7939
15536SOL    HW250014   2.281   9.246   1.158 -0.6758 -0.2381  1.1205
15537SOL     OW50015   7.083   5.062  10.755  0.4360  0.4324 -0.0022
15537SOL    HW150016   7.057   5.139  10.805  1.6158  1.6285 -1.1969
15537SOL    HW250017   7.175   5.047  10.780  1.4679  1.8332 -2.7303
15538SOL     OW50018   1.344   5.091   0.203  0.0712 -0.4516 -0.3798
15538SOL    HW150019   1.370   5.103   0.112 -0.6568 -0.9501 -0.6561
15538SOL    HW250020   1.406   5.027   0.237  0.4018 -0.1951 -0.4978
15539SOL     OW50021   6.736   9.056  10.181 -0.0918  0.1361 -0.5627
15539SOL    HW150022   6.768   9.104  10.258 -0.7864 -2.1869  1.2157
15539SOL    HW250023   6.802   8.989  10.166 -1.6046 -1.5366  0.0843
15540SOL     OW50024   5.812   9.591   4.647 -0.1586  0.1646 -0.5344
15540SOL    HW150025   5.880   9.531   4.616  1.3826  0.6197  1.8916
15540SOL    HW250026   5.763   9.539   4.711 -0.6855  0.5680 -0.6101
15541SOL     OW50027   1.263   4.686   6.015 -0.4040  0.4584  0.5372
15541SOL    HW150028   1.304   4.600   6.017 -0.6618  0.3523  1.3356
15541SOL    HW250029   1.324   4.743   6.063  0.0238  0.8410 -0.4379
15542SOL     OW50030   5.805   5.154   1.131 -0.3141  0.4987  0.4035
15542SOL    HW150031   5.758   5.087   1.181  2.5258 -0.8202  1.4124
15542SOL    HW250032   5.841   5.213   1.198  1.4813  0.0846 -0.1495
15543SOL     OW50033   2.913   4.567   5.341 -0.0142 -1.0559  0.3149
15543SOL    HW150034   3.005   4.592   5.333  0.4512 -2.4278  1.1630
15543SOL    HW250035   2.909   4.516   5.421 -1.4690 -1.3001  0.1064
15544SOL     OW50036   2.919   8.095   9.479 -0.2407 -0.0041 -0.5357
15544SOL    HW150037   2.949   8.156   9.545 -1.2680  0.6342 -0.6491
15544SOL    HW250038   2.991   8.090   9.416  0.9734 -1.0746  0.9232
15545SOL     OW50039   9.402   9.521   9.274 -0.3545  0.5019 -0.0969
15545SOL    HW150040   9.366   9.458   9.337  0.2450 -0.9180 -1.1465
15545SOL    HW250041   9.325   9.552   9.225 -0.5584  0.0237 -0.0818
15546SOL     OW50042   3.886   1.412   6.857  0.0995  0.1141  0.5078
15546SOL    HW150043   3.940   1.335   6.876  1.0312  0.4099 -0.8423
15546SOL    HW250044   3.827   1.382   6.788  1.4120  0.9802 -1.0316
15547SOL     OW50045   7.309   5.140  10.019 -0.6698 -0.1798  0.1866
15547SOL    HW150046   7.383   5.126  10.077 -1.0681 -1.3562  0.4296
15547SOL    HW250047   7.247   5.192  10.071 -1.1875 -1.5486  0.9779
15548SOL     OW50048   2.735   4.023   0.571 -0.0413  1.1476  0.1396
15548SOL    HW150049   2.767   3.938   0.600 -1.8628  0.1700 -0.6508
15548SOL    HW250050   2.710   4.068   0.651  0.5561  0.7924  0.5274
15549SOL     OW50051   5.863   3.560   5.734 -0.5697 -0.5094  0.3279
15549SOL    HW150052   5.869   3.520   5.648 -1.7497 -0.2886  0.1331
15549SOL    HW250053   5.794   3.510   5.779 -2.4449  1.6068 -0.1029
15550SOL     OW50054   2.648   4.863   4.705  0.1906  0.7030  0.1016
15550SOL    HW150055   2.678   4.873   4.796  3.5976  1.0925 -1.0111
15550SOL    HW250056   2.641   4.953   4.673 -2.1334  0.6121  0.2933
15551SOL     OW50057   2.416   5.961   4.682 -1.1682  0.4057 -0.2474
15551SOL    HW150058   2.364   5.925   4.753 -1.4699  4.8002  1.9119
15551SOL    HW250059   2.362   6.031   4.645  0.5654  0.7481 -2.2922
15552SOL     OW50060   2.564   1.152   9.620 -0.0279  0.1779  0.5235
15552SOL    HW150061   2.656   1.127   9.612  0.3262  1.5458  0.2096
15552SOL    HW250062   2.544   1.195   9.537 -0.3448  1.7849  1.4141
15553SOL     OW50063   3.716   3.313   7.364  0.7254  0.4094 -0.2383
15553SOL    HW150064   3.810   3.327   7.380  0.8695  1.8754 -2.1521
15553SOL    HW250065   3.674   3.342   7.444  1.9177 -0.5894  0.7799
15554SOL     OW50066   3.130   3.701   2.009 -0.3262  0.0185 -0.1865
15554SOL    HW150067   3.075   3.761   2.058 -1.0212 -1.7704  1.2683
15554SOL    HW250068   3.195   3.757   1.966 -1.5325  1.8677  0.3688
15555SOL     OW50069   1.722   4.943   7.101  0.4432 -0.0233  0.1593
15555SOL    HW150070   1.695   4.926   7.191 -0.7007  2.3134  0.3067
15555SOL    HW250071   1.804   4.895   7.090 -0.1863 -1.5294  1.9606
15556SOL     OW50072   2.614   1.566   7.719 -0.0248  0.1774  0.4180
15556SOL    HW150073   2.605   1.577   7.624  0.1332 -0.7443  0.2862
15556SOL    HW250074   2.538   1.610   7.756  1.4803  3.2315  0.0628
15557SOL     OW50075   2.112   8.967   0.784 -0.1127  0.2442 -0.0709
15557SOL    HW150076   2.025   8.927   0.786  0.0892 -0.1649  1.9787
15557SOL    HW250077   2.095   9.061   0.778 -0.7077  0.1846  0.6287
15558SOL     OW50078   6.463   0.456   1.917  0.3483  0.1863  0.5491
15558SOL    HW150079   6.430   0.461   1.827  1.8816  1.0458  0.0191
15558SOL    HW250080   6.514   0.537   1.927 -0.0366  0.2181  2.2808
15559SOL     OW50081   6.607   2.454   1.486 -0.9331 -0.1008 -0.0909
15559SOL    HW150082   6.614   2.376   1.431 -0.2551  0.4385 -0.7804
15559SOL    HW250083   6.687   2.504   1.468 -0.8549  0.2439  1.1392
15560SOL     OW50084   2.800  10.339   1.124 -0.1285 -0.8160 -0.1161
15560SOL    HW150085   2.753  10.275   1.177 -0.7440  1.1401  1.8076
15560SOL    HW250086   2.752  10.421   1.137  1.0204  0.2061 -1.9696
15561SOL     OW50087  10.001   9.200   8.585  0.3736  0.2304 -0.0624
15561SOL    HW150088  10.038   9.215   8.672  0.6211 -1.2378  0.1031
15561SOL    HW250089   9.916   9.159   8.602  0.7367 -0.7304 -0.4993
15562SOL     OW50090   1.873  10.270   5.186  0.1335  0.3515 -0.2524
15562SOL    HW150091   1.850  10.187   5.144  1.2220  1.0228 -2.2256
15562SOL    HW250092   1.831  10.265   5.272  0.7676 -2.5230 -0.0528
15563SOL     OW50093   7.521   9.627   6.024  0.2221  0.4495 -0.0424
15563SOL    HW150094   7.587   9.590   5.966  1.1828 -1.3664  2.1061
15563SOL    HW250095   7.567   9.641   6.107 -1.8287  0.0573  1.2042
15564SOL     OW50096   9.594   0.393   8.164  0.0949  0.2125 -0.1465
15564SOL    HW150097   9.659   0.450   8.205  2.4646 -0.1657 -3.1837
15564SOL    HW250098   9.576   0.325   8.228  0.4992  1.9421  1.8448
15565SOL     OW50099   2.872   1.579   9.117  0.4422 -0.0305 -0.8269
15565SOL    HW150100   2.887   1.518   9.190 -0.3121  1.3534  0.5197
15565SOL    HW250101   2.957   1.584   9.073  1.2281 -0.0765  0.6226
15566SOL     OW50102  10.943  10.884   5.137  0.0720  0.0488 -0.2200
15566SOL    HW150103  10.868  10.882   5.196  0.1484  0.4043 -0.1098
15566SOL    HW250104  11.018  10.864   5.193  0.0727 -0.2052 -0.3107
15567SOL     OW50105   8.364   7.474   8.480 -0.1902  0.1926  0.3941
15567SOL    HW150106   8.383   7.439   8.567  1.6471  0.5521  0.1615
15567SOL    HW250107   8.427   7.546   8.469 -1.4854  1.2093 -0.5874
15568SOL     OW50108   0.018   4.275   3.363 -0.2889  0.1996  0.0319
15568SOL    HW150109  -0.037   4.200   3.340  0.3870  0.4075 -2.4414
15568SOL    HW250110  -0.035   4.351   3.342  0.1472  0.4087 -0.3030
15569SOL     OW50111   5.600   7.393   0.449  0.3723  0.1632  0.1025
15569SOL    HW150112   5.622   7.486   0.451 -1.0159  0.5088 -0.3768
15569SOL    HW250113   5.591   7.369   0.541  0.7460  0.4981  0.2291
15570SOL     OW50114   7.295   9.864   8.751  0.1192 -0.7563  0.3116
15570SOL    HW150115   7.253   9.944   8.784  0.3337 -1.0950  1.4497
15570SOL    HW250116   7.224   9.814   8.712 -0.2393 -0.5719  0.7229
15571SOL     OW50117   5.014   5.725   7.246 -0.0154  0.1671  0.0522
15571SOL    HW150118   4.960   5.766   7.313  0.9133 -0.9729  1.5560
15571SOL    HW250119   5.026   5.635   7.277  2.0942  0.1801 -0.5983
15572SOL     OW50120   2.757   3.577   9.344  0.4171  0.0858  0.0753
15572SOL    HW150121   2.783   3.663   9.311  0.0808 -0.2321 -1.0496
15572SOL    HW250122   2.674   3.559   9.300  0.7594 -1.0576 -0.1086
15573SOL     OW50123   6.186   9.338   9.115 -0.5926 -0.4094 -0.2131
15573SOL    HW150124   6.125   9.378   9.054 -0.4490  0.1735  0.0295
15573SOL    HW250125   6.144   9.256   9.140 -0.2812 -1.0634 -1.7435
15574SOL     OW50126   3.895   3.092   1.984 -0.2025  0.0971  0.3102
15574SOL    HW150127   3.877   3.185   1.968  0.2226  0.1901  0.3758
15574SOL    HW250128   3.990   3.085   1.982 -0.2453 -0.4081 -0.0706
15575SOL     OW50129   8.436   6.207  10.174 -0.4596 -0.2988  0.2544
15575SOL    HW150130   8.468   6.297  10.175 -2.2361  0.3763 -0.8703
15575SOL    HW250131   8.479   6.165  10.249  0.7542  1.3383  0.5030
15576SOL     OW50132   3.844   9.909   3.723 -0.5113 -0.0996 -0.1050
15576SOL    HW150133   3.915   9.960   3.682 -1.1297  2.3047  1.6990
15576SOL    HW250134   3.882   9.879   3.805 -1.2092  0.2063  0.3254
15577SOL     OW50135   8.813   3.104   0.227 -0.1800  0.8203  0.0515
15577SOL    HW150136   8.810   3.117   0.322  2.1478  0.3960  0.2273
15577SOL    HW250137   8.900   3.135   0.202 -0.4548  0.1465 -1.8135
15578SOL     OW50138   4.099   3.422   3.738  0.2887  0.4644 -0.1586
15578SOL    HW150139   4.161   3.491   3.764  0.3021  0.5981 -0.5395
15578SOL    HW250140   4.141   3.341   3.765 -0.1201  0.6549  1.0866
15579SOL     OW50141   7.482   6.513   0.704  0.0325  0.2383 -0.2997
15579SOL    HW150142   7.502   6.419   0.697  1.1814  0.5125 -0.7075
15579SOL    HW250143   7.409   6.526   0.644  1.6047  0.1200 -2.2712
15580SOL     OW50144   6.137  10.432   1.503  0.0684  0.4781 -0.3466
15580SOL    HW150145   6.134  10.472   1.590  0.2183 -3.2266  1.4411
15580SOL    HW250146   6.226  10.400   1.495 -0.6949 -1.6593 -0.6551
15581SOL     OW50147   1.281   1.549   4.734 -0.1321 -0.0503 -0.1815
15581SOL    HW150148   1.194   1.524   4.764 -0.0558 -0.9042 -0.6435
15581SOL    HW250149   1.319   1.467   4.701  0.5307  0.4847 -0.7520
15582SOL     OW50150   5.042  10.053   4.309  0.2019 -0.0524  0.4047
15582SOL    HW150151   5.087   9.971   4.291  0.2473  0.7040 -3.2650
15582SOL    HW250152   4.960  10.026   4.350  1.0338 -1.8028  0.9874
15583SOL     OW50153   9.975   1.797   2.795 -0.1537 -0.1456  0.3907
15583SOL    HW150154   9.924   1.865   2.751 -2.8984 -1.3821  1.5646
15583SOL    HW250155   9.985   1.729   2.728  1.4112  0.7762 -0.3488
15584SOL     OW50156   4.230   3.976   4.722 -0.4858 -0.0340 -0.2585
15584SOL    HW150157   4.299   3.909   4.728  0.2568  0.8108  0.9630
15584SOL    HW250158   4.161   3.944   4.781 -0.3784 -0.0065 -0.1171
15585SOL     OW50159   0.959   5.968   5.819  0.2790  0.4608  0.1517
15585SOL    HW150160   0.985   6.050   5.777  0.6136  0.3968  0.2374
15585SOL    HW250161   1.027   5.906   5.796  0.5185  0.4502  0.8636
15586SOL     OW50162   5.731   0.385   3.628  0.1394 -0.0443 -0.0244
15586SOL    HW150163   5.789   0.311   3.613  0.1264 -0.0918  0.1611
15586SOL    HW250164   5.788   0.454   3.664 -0.0043 -0.2557  0.6279
15587SOL     OW50165   4.779   9.854  10.781 -0.1668 -0.2237 -0.1557
15587SOL    HW150166   4.817   9.810  10.704 -0.2903  0.7980 -0.8094
15587SOL    HW250167   4.820   9.810  10.856  0.7672 -0.5211 -0.8246
15588SOL     OW50168   7.742   0.903  10.723  0.7944  0.2542  0.2814
15588SOL    HW150169   7.736   0.824  10.670  0.5659  0.1207  0.5045
15588SOL    HW250170   7.662   0.904  10.775  1.3573 -0.0168  1.1646
15589SOL     OW50171   3.691   8.907   0.543  0.1579 -0.7838 -0.3268
15589SOL    HW150172   3.777   8.882   0.576 -0.5353 -1.7101  0.8274
15589SOL    HW250173   3.631   8.883   0.613 -0.9352  0.8204 -0.7046
15590SOL     OW50174   8.454   4.893   1.952 -0.6010 -0.5531  0.0959
15590SOL    HW150175   8.412   4.977   1.933 -0.0817 -0.5916 -1.2541
15590SOL    HW250176   8.404   4.857   2.025 -1.1297  0.7094  0.3678
15591SOL     OW50177   2.609   2.505  10.716 -0.3440 -0.3107 -0.2656
15591SOL    HW150178   2.619   2.586  10.667 -0.7440 -0.3327 -0.3841
15591SOL    HW250179   2.552   2.527  10.789 -1.0866 -0.6636 -0.7305
15592SOL     OW50180   6.335   5.885   7.902 -0.5566 -0.2616  0.4311
15592SOL    HW150181   6.424   5.872   7.869 -0.6415 -0.0765  0.1309
15592SOL    HW250182   6.343   5.876   7.997 -0.2033 -0.1427  0.4114
15593SOL     OW50183   0.312   2.436   1.651 -0.4287  0.3631 -0.0673
15593SOL    HW150184   0.253   2.457   1.579 -1.1486  2.2623  1.0412
15593SOL    HW250185   0.271   2.361   1.694 -0.5767 -0.0734 -0.9561
15594SOL     OW50186   4.899   9.307   1.270 -0.1425 -0.2998  0.5285
15594SOL    HW150187   4.830   9.333   1.332  0.4252  0.0750  1.0072
15594SOL    HW250188   4.851   9.269   1.196 -0.8345 -0.6856  1.1614
15595SOL     OW50189  10.619   0.807   9.603  0.2399 -0.2761  0.4075
15595SOL    HW150190  10.655   0.720   9.584 -3.2985 -1.4916 -1.1750
15595SOL    HW250191  10.534   0.789   9.643  0.3369  2.4759  1.9117
15596SOL     OW50192   3.303   2.668   5.078 -0.4349 -0.0124  0.4463
15596SOL    HW150193   3.256   2.722   5.015 -0.8587  1.2308  1.7959
15596SOL    HW250194   3.262   2.687   5.163 -1.3707 -3.3214  0.8303
15597SOL     OW50195   6.873   2.671   5.180  0.2056  0.1618 -0.1889
15597SOL    HW150196   6.947   2.698   5.234  0.4690  0.5987 -0.7622
15597SOL    HW250197   6.800   2.663   5.241  0.6259  0.1582  0.3100
15598SOL     OW50198   6.067   4.602   6.267 -0.1754 -0.6395  0.0131
15598SOL    HW150199   6.107   4.540   6.206 -1.8909  0.1189 -1.9673
15598SOL    HW250200   5.974   4.604   6.241 -0.5062  1.3404  1.2295
15599SOL     OW50201   1.060   9.734   7.408 -0.2073 -0.9636 -0.0822
15599SOL    HW150202   0.989   9.780   7.365 -0.1427  1.0571  1.8846
15599SOL    HW250203   1.027   9.644   7.418 -1.1990 -0.8412 -1.9838
15600SOL     OW50204   5.080   2.107   1.692 -0.2010 -0.1409  0.4318
15600SOL    HW150205   5.156   2.128   1.638 -0.2853 -2.0744 -0.5011
15600SOL    HW250206   5.006   2.110   1.632 -0.4619 -1.1111  0.6875
15601SOL     OW50207   9.652   8.606   4.408  0.4952 -0.0189 -0.2079
15601SOL    HW150208   9.617   8.541   4.346  0.8397 -0.3140 -0.0900
15601SOL    HW250209   9.694   8.554   4.477 -0.2134  0.2981  0.4696
15602SOL     OW50210   1.188   2.619   1.238 -0.0861 -0.2113  0.1160
15602SOL    HW150211   1.173   2.676   1.313 -1.5232 -1.6900  0.9690
15602SOL    HW250212   1.101   2.603   1.201  0.5729  0.3274 -1.7595
15603SOL     OW50213   2.733   0.054   2.309  0.1282  0.3360 -0.0934
15603SOL    HW150214   2.771   0.064   2.397 -2.0675 -1.3343  1.0960
15603SOL    HW250215   2.679   0.132   2.297  0.5405  0.6364 -0.0233
15604SOL     OW50216   8.180   2.325  10.269 -0.8923  0.0670  0.4651
15604SOL    HW150217   8.261   2.355  10.229 -2.4206  1.0776 -1.9466
15604SOL    HW250218   8.157   2.394  10.332  0.2768 -0.3995  1.4274
15605SOL     OW50219   0.807   3.127   4.546  0.4516 -0.7285  0.2882
15605SOL    HW150220   0.854   3.045   4.530 -0.6738 -1.5812  1.2964
15605SOL    HW250221   0.818   3.144   4.639  3.7137  2.2094 -0.4984
15606SOL     OW50222   2.031  10.092  10.217  0.1549 -0.2767 -0.0841
15606SOL    HW150223   1.945  10.089  10.261  0.5580 -0.8618  0.6710
15606SOL    HW250224   2.076  10.012  10.247  1.4981  0.7287  0.6353
15607SOL     OW50225   2.617   1.071   6.070  0.1164 -0.5806  0.4362
15607SOL    HW150226   2.698   1.103   6.111  0.5367 -1.3145  0.1987
15607SOL    HW250227   2.553   1.140   6.086  1.0994  0.5498 -0.3879
15608SOL     OW50228   9.762   2.925   3.642 -0.3356  0.1711  0.1380
15608SOL    HW150229   9.811   2.921   3.724  0.3719 -0.4541 -0.3111
15608SOL    HW250230   9.797   2.853   3.590 -1.4403 -0.0173 -0.3509
15609SOL     OW50231   1.049   6.682  10.507 -0.4119 -0.1451  0.2825
15609SOL    HW150232   1.050   6.776  10.487  2.4952 -0.3296 -0.6636
15609SOL    HW250233   1.027   6.641  10.423  0.0064 -0.3878  0.2933
15610SOL     OW50234   1.491   9.433   5.584  0.4793  0.1365  0.2089
15610SOL    HW150235   1.556   9.376   5.624 -1.5730 -1.6456  1.0907
15610SOL    HW250236   1.409   9.410   5.627 -1.5139 -0.7088 -3.8193
15611SOL     OW50237   0.905   8.776   6.202 -0.1301 -0.3444  0.2626
15611SOL    HW150238   0.880   8.779   6.110  0.2615  0.5398  0.1871
15611SOL    HW250239   0.822   8.789   6.249 -0.5224 -1.9899  0.0596
15612SOL     OW50240  10.412   0.029  10.444  0.0625  0.4326 -0.8286
15612SOL    HW150241  10.436   0.122  10.444  1.1113  0.1910  1.0347
15612SOL    HW250242  10.392   0.009  10.353  1.3711  2.1008 -1.4972
15613SOL     OW50243   3.761   4.038   3.427 -0.5280  0.6131 -0.1658
15613SOL    HW150244   3.691   4.102   3.411 -0.2814  0.8863 -0.1655
15613SOL    HW250245   3.778   4.000   3.341 -0.7320  0.4899 -0.1520
15614SOL     OW50246   6.582   7.535   1.192  0.5630 -0.2054  0.1941
15614SOL    HW150247   6.487   7.522   1.198  0.3484  0.9853 -0.3836
15614SOL    HW250248   6.619   7.447   1.200 -0.5463 -0.5975  1.2591
15615SOL     OW50249   6.938  10.064   1.768  0.3192 -0.0511 -0.7049
15615SOL    HW150250   6.872  10.057   1.698 -1.4090 -1.6585  1.0154
15615SOL    HW250251   6.926  10.153   1.803 -2.0330 -0.8293  0.5890
15616SOL     OW50252   6.404   1.419   1.953  0.0880  0.1468 -0.0710
15616SOL    HW150253   6.365   1.361   1.888  1.7433  0.1678 -1.1277
15616SOL    HW250254   6.419   1.364   2.029 -1.6742  0.0697  0.2321
15617SOL     OW50255   1.779   2.101   1.918 -0.3183 -0.1601 -0.3589
15617SOL    HW150256   1.750   2.105   2.010  1.1272  0.5910  0.0762
15617SOL    HW250257   1.847   2.035   1.917  0.9550  1.1193 -0.5086
15618SOL     OW50258   8.886  10.061   1.898 -0.1532  0.0706  0.3454
15618SOL    HW150259   8.895  10.123   1.826 -1.2013 -0.7973 -0.5589
15618SOL    HW250260   8.860   9.979   1.856  0.7341 -0.8716  1.5587
15619SOL     OW50261   2.299   5.328   6.609  0.0566  0.1637 -0.4617
15619SOL    HW150262   2.309   5.242   6.568  1.9937  0.6626 -1.0932
15619SOL    HW250263   2.317   5.390   6.539  1.7526  1.0432  0.7291
15620SOL     OW50264   8.649   7.029   0.242  0.4374 -0.0115  0.2307
15620SOL    HW150265   8.652   6.985   0.327 -0.5885  0.9061  0.7568
15620SOL    HW250266   8.583   6.981   0.192  0.3605  0.0299  0.2919
15621SOL     OW50267  10.030   4.807   1.194 -0.0150 -0.6194  0.4247
15621SOL    HW150268   9.964   4.841   1.254 -1.6019  0.0864 -1.6733
15621SOL    HW250269  10.056   4.882   1.140  2.6728 -0.8424  1.3451
15622SOL     OW50270   1.550   5.910   2.559  0.2036 -0.4829  0.3409
15622SOL    HW150271   1.619   5.847   2.580  1.6842  1.0434  0.1947
15622SOL    HW250272   1.533   5.897   2.465 -2.4410 -3.4463  1.1354
15623SOL     OW50273   1.701   9.891   4.527  0.7376 -0.2090 -0.2476
15623SOL    HW150274   1.637   9.944   4.576 -1.2978 -1.6933 -1.2005
15623SOL    HW250275   1.650   9.852   4.456  2.2495 -3.0287  0.1228
15624SOL     OW50276   0.509   2.181   6.911  0.0382 -0.1045  0.5555
15624SOL    HW150277   0.478   2.179   6.821 -1.1544  1.4835  0.9112
15624SOL    HW250278   0.430   2.178   6.964  0.7594 -1.7123  1.5855
15625SOL     OW50279  10.791   5.817   4.113  0.2692  0.2642 -0.0965
15625SOL    HW150280  10.739   5.862   4.179 -1.2496 -0.9136 -0.4675
15625SOL    HW250281  10.847   5.756   4.163 -1.4192 -1.1724  0.0768
15626SOL     OW50282   4.148   5.689   9.921  0.0422 -0.7083  0.6713
15626SOL    HW150283   4.191   5.766   9.958  1.1464 -0.7036 -0.5964
15626SOL    HW250284   4.192   5.614   9.963 -0.6649 -0.6633  1.5013
15627SOL     OW50285   1.659   9.900   2.253 -0.5883 -0.4241  0.1343
15627SOL    HW150286   1.712   9.831   2.213 -0.9683 -0.2921 -0.6037
15627SOL    HW250287   1.628   9.862   2.335 -2.1453 -1.7341 -1.0330
15628SOL     OW50288   2.902   4.306   8.642 -0.9875  0.2381 -0.2607
15628SOL    HW150289   2.862   4.315   8.555 -0.7149 -1.4045 -0.5783
15628SOL    HW250290   2.996   4.304   8.624 -0.5921  5.1912  0.5801
15629SOL     OW50291   8.872   5.637   5.457  0.3100  0.2205  0.1431
15629SOL    HW150292   8.880   5.672   5.545  0.9665  3.2431 -1.0468
15629SOL    HW250293   8.962   5.615   5.432  0.2422  0.2401 -0.1220
15630SOL     OW50294  10.001   0.507   0.340  0.3921 -0.3742 -0.1772
15630SOL    HW150295  10.029   0.468   0.423 -1.5682 -0.8768  0.2696
15630SOL    HW250296   9.992   0.432   0.281 -0.2310 -0.2408 -0.2472
15631SOL     OW50297   4.897   7.032   0.300 -0.3599 -0.1753  0.3809
15631SOL    HW150298   4.837   7.101   0.329 -1.2113 -0.8538  0.2498
15631SOL    HW250299   4.855   6.951   0.327 -0.4276 -0.7524 -1.3936
15632SOL     OW50300   6.826   1.496   5.222  0.2034 -0.1915  0.1829
15632SOL    HW150301   6.768   1.479   5.148  0.0404  0.2143  0.2099
15632SOL    HW250302   6.914   1.500   5.185  0.0289  0.9002 -0.1364
15633SOL     OW50303   1.611   4.167   4.708 -0.1367  0.6974  0.7959
15633SOL    HW150304   1.698   4.191   4.741  0.0678  0.4531  0.4388
15633SOL    HW250305   1.565   4.250   4.700  0.3251  0.9043  0.2589
15634SOL     OW50306   3.150   4.247   1.542 -0.6267 -0.0021 -0.1414
15634SOL    HW150307   3.143   4.318   1.479  1.2773  0.4146  0.0751
15634SOL    HW250308   3.196   4.286   1.616 -0.0215 -1.3278  0.1856
15635SOL     OW50309   5.772  10.066   6.484 -0.2756  0.0630  0.0552
15635SOL    HW150310   5.801  10.158   6.486  0.7692 -0.2803  1.4406
15635SOL    HW250311   5.698  10.063   6.545 -0.6812  0.1098 -0.4370
15636SOL     OW50312   2.584   9.289   2.929 -0.0290  0.3390 -0.3297
15636SOL    HW150313   2.604   9.374   2.968  0.1571 -0.3028  1.0000
15636SOL    HW250314   2.597   9.302   2.835  0.8376  1.5362 -0.0568
15637SOL     OW50315  10.543   2.201   2.494  0.1159 -0.8077  0.3818
15637SOL    HW150316  10.460   2.222   2.451 -0.0376  1.5524  1.7491
15637SOL    HW250317  10.605   2.191   2.421 -0.2598  2.5610 -0.4921
15638SOL     OW50318   7.574   1.572   5.385  0.2237  0.5346 -0.3053
15638SOL    HW150319   7.565   1.666   5.365  1.9690  0.7513 -0.1212
15638SOL    HW250320   7.551   1.566   5.477  0.9061  0.9164 -0.1050
15639SOL     OW50321  10.255   7.483   8.464  0.0305  0.5940  0.4033
15639SOL    HW150322  10.345   7.449   8.457 -0.8008 -1.3670 -1.4376
15639SOL    HW250323  10.247   7.543   8.390  0.1745  1.6342  1.2294
15640SOL     OW50324   5.675   1.672   7.015 -0.4441  0.4473  0.0759
15640SOL    HW150325   5.639   1.724   7.086  0.0660  0.1670  0.5513
15640SOL    HW250326   5.682   1.583   7.052 -2.2656 -0.1922 -1.0505
15641SOL     OW50327   8.401   1.542   2.532 -0.1723 -0.0114  0.1343
15641SOL    HW150328   8.352   1.621   2.556 -0.1274 -0.0998  0.5197
15641SOL    HW250329   8.361   1.514   2.449  0.0248  0.5928 -0.1681
15642SOL     OW50330   1.075   1.982   7.717  0.3681  0.4662  0.8209
15642SOL    HW150331   1.025   2.020   7.789 -0.6195 -2.7618  1.9292
15642SOL    HW250332   1.157   2.031   7.715 -0.4867  2.0320  2.7089
15643SOL     OW50333   1.304   8.288   8.946  0.1969  0.0906 -0.2105
15643SOL    HW150334   1.300   8.199   8.982  0.9849 -0.1644 -0.7494
15643SOL    HW250335   1.322   8.343   9.022  0.9367 -0.3469 -0.0675
15644SOL     OW50336   5.381   5.393   7.607  0.0635 -0.4011 -0.6014
15644SOL    HW150337   5.459   5.437   7.640  1.6647  0.1685 -4.8551
15644SOL    HW250338   5.308   5.443   7.642  1.6718  0.8107  1.0802
15645SOL     OW50339   6.107   3.669   4.291  0.2110 -0.1863 -0.3407
15645SOL    HW150340   6.035   3.608   4.308  0.3924 -0.5957 -1.0246
15645SOL    HW250341   6.128   3.656   4.199 -0.9773  2.2430 -0.9787
15646SOL     OW50342  10.109  10.450   2.922  0.6970 -0.2193 -0.4021
15646SOL    HW150343  10.032  10.502   2.898 -0.9558 -0.9286  3.0269
15646SOL    HW250344  10.083  10.360   2.901 -0.0437 -0.6279  2.1646
15647SOL     OW50345   1.947   0.758   4.133 -0.1127 -0.5164 -0.3605
15647SOL    HW150346   1.994   0.676   4.118 -0.8547 -1.0309  0.0581
15647SOL    HW250347   2.011   0.827   4.116  1.4117 -1.2242  2.2706
15648SOL     OW50348  10.214   3.684   3.869 -0.8258 -0.0395 -0.5278
15648SOL    HW150349  10.291   3.727   3.831  0.4058 -0.9560  0.8391
15648SOL    HW250350  10.234   3.591   3.865 -1.3357 -0.2312  0.9147
15649SOL     OW50351   9.059   8.185   5.863 -0.8378  0.0320  0.1439
15649SOL    HW150352   9.053   8.108   5.920 -1.0516 -0.8050 -0.9872
15649SOL    HW250353   8.980   8.182   5.810  0.5502 -0.6680 -1.9744
15650SOL     OW50354   8.794   4.617   6.609  0.1001 -0.0164 -0.0521
15650SOL    HW150355   8.878   4.604   6.652 -0.6653  0.2266  1.5634
15650SOL    HW250356   8.809   4.690   6.549  1.0767 -0.0821  0.1023
15651SOL     OW50357   0.274   6.266   1.997  0.0423 -0.0938 -0.7718
15651SOL    HW150358   0.224   6.275   2.078 -1.1035  0.7502 -1.5531
15651SOL    HW250359   0.355   6.315   2.012 -1.1925  2.0545 -0.9612
15652SOL     OW50360   1.474   2.013   8.895 -0.7341  0.5313 -0.4210
15652SOL    HW150361   1.526   2.070   8.952  0.2419 -0.5021 -0.2660
15652SOL    HW250362   1.399   2.067   8.869 -0.6926  1.3304  1.0584
15653SOL     OW50363   3.403   2.254   3.791  0.1065 -0.1666 -0.0213
15653SOL    HW150364   3.364   2.230   3.706  0.5434 -1.4909  0.1344
15653SOL    HW250365   3.334   2.303   3.836 -0.4175 -0.1537 -0.8181
15654SOL     OW50366   8.007  10.652   2.489 -0.0221 -0.3524  0.3569
15654SOL    HW150367   8.026  10.589   2.420  1.3242 -0.1228  0.4988
15654SOL    HW250368   8.085  10.708   2.492 -1.2093  1.3480  0.1943
15655SOL     OW50369   5.700  10.418   2.690  0.2236  0.4024 -0.1894
15655SOL    HW150370   5.666  10.503   2.666  0.4769  0.5206 -0.1285
15655SOL    HW250371   5.793  10.422   2.668  0.4749  0.5387  0.8569
15656SOL     OW50372   6.858   5.982   5.935 -0.8615 -0.2790  0.0606
15656SOL    HW150373   6.841   5.921   6.007  2.3386 -1.3949 -0.0359
15656SOL    HW250374   6.888   6.062   5.979 -2.3636  0.2766  0.0851
15657SOL     OW50375   2.507   5.461  10.957  0.2586 -0.2128 -0.1167
15657SOL    HW150376   2.571   5.454  10.885 -0.5374  1.0350 -0.9640
15657SOL    HW250377   2.554   5.510  11.025  0.4369  0.1178 -0.4712
15658SOL     OW50378   3.712   1.499   1.016  0.0811 -0.5816 -0.0635
15658SOL    HW150379   3.630   1.511   1.064  0.5325  2.3598  0.0865
15658SOL    HW250380   3.780   1.534   1.074  1.2716 -1.6956 -0.7499
15659SOL     OW50381  10.428   2.986   0.077  0.7653  0.5357  0.1597
15659SOL    HW150382  10.514   2.974   0.035  0.4668 -0.3832 -0.1847
15659SOL    HW250383  10.449   3.014   0.166  1.4625 -1.9570  0.8101
15660SOL     OW50384   1.253   4.345   8.258  0.0537 -0.0119 -0.5839
15660SOL    HW150385   1.276   4.365   8.349  0.0310  0.5271 -0.6984
15660SOL    HW250386   1.251   4.430   8.214 -2.2807 -0.0282 -0.5603
15661SOL     OW50387   5.790   7.463   5.786  0.4499 -0.2385  0.4001
15661SOL    HW150388   5.862   7.516   5.752  2.0721 -1.9833  1.0520
15661SOL    HW250389   5.740   7.439   5.708  1.2697 -0.0244 -0.1987
15662SOL     OW50390   0.965   1.936   1.915  0.1342  0.0274 -0.1412
15662SOL    HW150391   1.016   1.966   1.839  0.4501  0.1416  0.1182
15662SOL    HW250392   0.897   2.002   1.925  0.3901  0.2724 -0.0206
15663SOL     OW50393  10.865   8.887   3.046 -0.1089  0.0190 -0.1327
15663SOL    HW150394  10.852   8.948   3.119  1.0123  0.6764 -0.4701
15663SOL    HW250395  10.850   8.940   2.967 -0.9445 -0.5973 -0.3930
15664SOL     OW50396   5.950   7.416   2.142 -0.4497  0.6503  0.1502
15664SOL    HW150397   5.907   7.376   2.066 -0.9560  2.0806 -0.3292
15664SOL    HW250398   5.955   7.345   2.206 -3.5478  0.4227  0.2160
15665SOL     OW50399   9.548   2.908   9.879 -0.2015 -0.1694 -0.8622
15665SOL    HW150400   9.566   2.987   9.828  0.0877 -0.0875 -0.6351
15665SOL    HW250401   9.576   2.836   9.823 -1.5675 -0.1821 -1.5549
15666SOL     OW50402   5.734  10.856   2.078 -0.0384 -0.4188 -0.1359
15666SOL    HW150403   5.687  10.828   2.000 -0.1087 -0.8944  0.0779
15666SOL    HW250404   5.666  10.859   2.146 -0.1457  0.7969 -0.2808
15667SOL     OW50405   0.455   4.888   1.259 -0.2141 -0.3040  0.3396
15667SOL    HW150406   0.488   4.841   1.183 -1.1589  0.0474 -0.2929
15667SOL    HW250407   0.389   4.830   1.297 -0.9003  0.2132 -0.0507
15668SOL     OW50408   5.115  10.890   2.243 -0.4802 -0.0524  0.5312
15668SOL    HW150409   5.146  10.962   2.189  0.8496 -0.3328  0.9112
15668SOL    HW250410   5.068  10.932   2.315  0.3956  0.4441  0.8206
15669SOL     OW50411   1.027   5.067   0.041  0.5364 -0.3583 -0.4747
15669SOL    HW150412   1.041   5.111   0.124  0.9172  1.0415 -1.2675
15669SOL    HW250413   1.021   5.137  -0.023 -0.4903 -1.3854 -1.5312
15670SOL     OW50414  10.253   9.959   9.978  0.2679 -0.4531 -0.0775
15670SOL    HW150415  10.228  10.008  10.056 -0.1860  1.6000 -1.4734
15670SOL    HW250416  10.335   9.915  10.002  1.0167  1.4736  1.0492
15671SOL     OW50417   4.360   8.818   5.918 -0.8030 -0.1158  0.1012
15671SOL    HW150418   4.417   8.867   5.979 -0.7135  0.4387 -0.4224
15671SOL    HW250419   4.292   8.881   5.894 -0.4676 -0.1309 -0.8855
15672SOL     OW50420   0.054   2.020   0.633 -0.0083  0.1674 -0.2488
15672SOL    HW150421  -0.007   2.084   0.595  0.9079  0.0012 -2.0485
15672SOL    HW250422   0.106   2.071   0.695 -0.9883  0.6141  0.2244
15673SOL     OW50423   3.911   2.251   3.558  0.2282  0.1683  0.7898
15673SOL    HW150424   3.972   2.247   3.632  0.3009  0.7771  0.7620
15673SOL    HW250425   3.830   2.213   3.592 -0.0340  1.3308  1.4679
15674SOL     OW50426   5.409   2.938   0.546 -0.7190  0.3065 -0.3802
15674SOL    HW150427   5.425   2.896   0.462 -0.6393  0.0869 -0.2542
15674SOL    HW250428   5.491   2.983   0.567 -0.4687 -0.3007 -0.0364
15675SOL     OW50429   0.877   1.955   6.329  1.0675  0.5086 -0.7773
15675SOL    HW150430   0.850   2.018   6.397 -2.3936  0.1874 -1.7510
15675SOL    HW250431   0.858   1.869   6.367 -0.2020  0.3081 -1.8190
15676SOL     OW50432   6.316   4.896   9.625  0.1608  0.1717 -0.1517
15676SOL    HW150433   6.385   4.846   9.581 -0.8814 -0.0058 -1.6484
15676SOL    HW250434   6.355   4.925   9.707  1.9097 -0.1749 -0.8431
15677SOL     OW50435   4.916   2.949   4.840 -0.0215 -0.2989 -0.1886
15677SOL    HW150436   5.000   2.919   4.805  0.3666 -0.6227  0.9998
15677SOL    HW250437   4.867   2.978   4.763  1.6614  1.1272 -0.7510
15678SOL     OW50438  10.440   9.510   4.503 -0.2272  0.0206  0.0193
15678SOL    HW150439  10.526   9.532   4.468 -0.4511 -0.1928 -0.6613
15678SOL    HW250440  10.378   9.543   4.438 -0.6362 -0.5079  0.1385
15679SOL     OW50441   6.797   9.479   8.301 -0.3957 -1.1308 -0.6727
15679SOL    HW150442   6.752   9.408   8.349 -0.6652  0.7023  1.8840
15679SOL    HW250443   6.727   9.541   8.280  0.4208  0.2198  0.5349
15680SOL     OW50444   8.352   3.808   9.673  0.7071  0.0107 -0.7081
15680SOL    HW150445   8.355   3.740   9.740  2.1176 -0.2178 -0.9862
15680SOL    HW250446   8.406   3.774   9.602 -1.7861 -0.3069 -2.5214
15681SOL     OW50447   1.172   8.031   3.624  0.4476  0.4998  0.0477
15681SOL    HW150448   1.106   7.996   3.564 -0.4076  2.0158  0.0753
15681SOL    HW250449   1.229   7.957   3.643 -1.1269 -0.7783 -0.1379
15682SOL     OW50450   6.422   4.541   1.734  0.2458 -0.1263 -0.5792
15682SOL    HW150451   6.510   4.518   1.763  0.4688 -0.0779 -1.2101
15682SOL    HW250452   6.417   4.508   1.644  0.0396  0.9339 -0.9685
15683SOL     OW50453   2.766   6.629   9.739  0.6477 -0.0644  0.7445
15683SOL    HW150454   2.808   6.557   9.693  0.4165 -0.0231  0.4694
15683SOL    HW250455   2.673   6.610   9.735  0.7165 -0.7976  2.4355
15684SOL     OW50456   0.902   6.833   6.431  0.2126 -0.2341 -0.1027
15684SOL    HW150457   0.967   6.777   6.388 -0.3432 -2.0289  1.3423
15684SOL    HW250458   0.818   6.788   6.417 -0.3502  0.6489  0.3876
15685SOL     OW50459   7.272   2.678   4.170  0.1954 -0.4265 -0.4475
15685SOL    HW150460   7.314   2.592   4.183 -0.8295 -0.7249  0.9386
15685SOL    HW250461   7.211   2.686   4.243 -0.2821  1.1568 -1.0138
15686SOL     OW50462   1.635   6.918   6.751 -0.3206 -0.3132  0.3373
15686SOL    HW150463   1.584   6.837   6.755 -2.3888  1.0614  3.5363
15686SOL    HW250464   1.583   6.977   6.697  0.3324 -0.4826 -0.5017
15687SOL     OW50465   1.310   6.524   6.799  0.0322  0.1175 -0.0350
15687SOL    HW150466   1.369   6.456   6.765  0.3922  0.4480 -0.0710
15687SOL    HW250467   1.242   6.475   6.844  0.2005 -0.2786 -0.2033
15688SOL     OW50468   2.316   0.706   7.892 -0.6350  0.0693  0.1774
15688SOL    HW150469   2.272   0.758   7.824  2.5915  1.0753 -1.2227
15688SOL    HW250470   2.290   0.748   7.974 -2.2140  0.6585 -0.5899
15689SOL     OW50471   1.930   1.640   8.073  0.8244 -0.1509  0.3478
15689SOL    HW150472   1.973   1.583   8.009 -0.5541 -1.2930  0.4114
15689SOL    HW250473   1.956   1.728   8.048  1.4026 -0.6837 -0.9651
15690SOL     OW50474   8.331   2.052   9.426  0.0903 -0.3550  0.0781
15690SOL    HW150475   8.363   1.963   9.408 -1.7851 -1.2809  1.1748
15690SOL    HW250476   8.349   2.064   9.520 -0.1363  0.2213  0.0461
15691SOL     OW50477   8.282   7.600   7.258  0.2034 -0.4038 -0.0121
15691SOL    HW150478   8.258   7.691   7.245  0.9845 -0.2396 -0.3429
15691SOL    HW250479   8.373   7.595   7.230 -0.1520 -1.5165 -1.0360
15692SOL     OW50480   1.449   0.378   0.020  0.1952 -0.4520 -0.1932
15692SOL    HW150481   1.529   0.394   0.070 -0.0633  2.1323 -0.5779
15692SOL    HW250482   1.474   0.393  -0.071 -0.9568  1.4404 -0.2294
15693SOL     OW50483   1.391   1.773   7.624  0.1901 -0.1283 -0.3844
15693SOL    HW150484   1.462   1.767   7.688  0.8419  0.8079 -1.0104
15693SOL    HW250485   1.314   1.739   7.670  1.0552 -1.2290  0.2714
15694SOL     OW50486   7.953   6.793   0.711  0.2718 -0.0807  0.1089
15694SOL    HW150487   7.918   6.789   0.622  0.9749  0.7913 -0.2123
15694SOL    HW250488   7.879   6.822   0.765  0.1577  0.5088 -0.3632
15695SOL     OW50489   0.217   6.601   4.735 -0.0021 -0.3155  0.3416
15695SOL    HW150490   0.190   6.692   4.748 -0.4048 -0.2144 -1.0706
15695SOL    HW250491   0.135   6.553   4.727  0.1873 -0.3691 -1.6340
15696SOL     OW50492   4.204   6.751   7.154 -0.4756 -0.3530 -0.1244
15696SOL    HW150493   4.154   6.733   7.234 -0.5007  1.2842  0.2374
15696SOL    HW250494   4.223   6.845   7.158  2.6649 -0.9122 -0.2346
15697SOL     OW50495   2.301   7.433   9.050 -0.2849  0.3282 -0.7941
15697SOL    HW150496   2.234   7.497   9.073 -0.2585  0.6611 -1.6245
15697SOL    HW250497   2.306   7.375   9.126 -1.5079  0.3048 -0.7158
15698SOL     OW50498   9.312   4.706   0.630 -0.5696 -0.8000 -0.3364
15698SOL    HW150499   9.335   4.645   0.701  3.0569 -2.3224 -2.7044
15698SOL    HW250500   9.373   4.780   0.642 -2.2776  0.5654  0.1306
15699SOL     OW50501   1.662   7.611   3.489  0.1519  0.0683 -0.4112
15699SOL    HW150502   1.614   7.671   3.432 -1.0023 -0.7948 -0.3850
15699SOL    HW250503   1.671   7.531   3.437  0.5859 -0.1487 -0.0049
15700SOL     OW50504   8.939   0.079   9.363 -0.2394 -0.1779 -0.1347
15700SOL    HW150505   8.894   0.021   9.425 -0.2818  1.2677  1.2399
15700SOL    HW250506   8.881   0.082   9.287 -1.4755  0.0495  0.7946
15701SOL     OW50507  10.091  10.891   1.794  0.9361 -0.0789  0.6971
15701SOL    HW150508  10.014  10.836   1.784  0.1105  1.2235 -0.2700
15701SOL    HW250509  10.055  10.979   1.811  2.2152  0.2747  1.6647
15702SOL     OW50510   6.501   1.694   2.245 -0.6884  0.7897 -0.3454
15702SOL    HW150511   6.525   1.731   2.160  1.0242  0.2115 -0.1270
15702SOL    HW250512   6.530   1.759   2.309  0.3018  0.1050 -0.0818
15703SOL     OW50513  10.725   7.096   9.687 -0.6318 -0.0139  0.1570
15703SOL    HW150514  10.640   7.133   9.708 -0.1535  0.8245  0.6261
15703SOL    HW250515  10.756   7.059   9.769 -1.4607 -2.2112 -0.4787
15704SOL     OW50516   6.792   9.427  10.679 -0.1876 -0.2087  0.2337
15704SOL    HW150517   6.840   9.396  10.756  1.0205  0.3433 -0.2916
15704SOL    HW250518   6.762   9.347  10.636  0.4910 -0.5716  0.4214
15705SOL     OW50519   1.015   1.147   7.281  0.4060 -0.5694 -0.0746
15705SOL    HW150520   0.921   1.137   7.299  0.6058 -0.0364  1.3242
15705SOL    HW250521   1.031   1.241   7.290  1.0905 -0.6658 -0.2462
15706SOL     OW50522   1.992   7.846   0.607 -0.1303 -0.0155  0.0752
15706SOL    HW150523   2.031   7.764   0.573  0.5343  0.4293 -0.2552
15706SOL    HW250524   2.046   7.868   0.683 -0.4652 -0.0140  0.3121
15707SOL     OW50525   6.172   8.612   2.995 -0.6805  0.4225 -0.0077
15707SOL    HW150526   6.246   8.552   2.982 -0.4110  0.8535 -0.5023
15707SOL    HW250527   6.213   8.699   3.004 -0.8995  0.2593  2.9855
15708SOL     OW50528   2.402   4.034   8.164  0.4084  0.2549 -0.2229
15708SOL    HW150529   2.342   3.969   8.199 -1.0268  1.6899  0.0135
15708SOL    HW250530   2.464   4.051   8.235 -0.5278  0.7427  0.4798
15709SOL     OW50531   5.147   5.801   5.288 -0.1367 -0.2391 -0.0533
15709SOL    HW150532   5.150   5.706   5.283 -1.0799 -0.2318 -1.2400
15709SOL    HW250533   5.238   5.829   5.279 -0.1834 -0.9148 -3.4823
15710SOL     OW50534   2.104   0.704   6.860 -0.2282  0.1425 -0.0418
15710SOL    HW150535   2.112   0.610   6.845 -2.3700 -0.3372  1.6800
15710SOL    HW250536   2.060   0.712   6.944  1.6445  2.7208  0.7584
15711SOL     OW50537   3.945   9.855  10.159  0.0773  0.3993  0.3117
15711SOL    HW150538   3.977   9.891  10.076 -0.8222  0.4555 -0.0200
15711SOL    HW250539   3.981   9.767  10.163 -0.6297  0.0656 -0.5845
15712SOL     OW50540   0.555   7.248   2.343 -0.1939 -0.2952 -0.3877
15712SOL    HW150541   0.512   7.178   2.391 -1.0702  1.3405  1.2468
15712SOL    HW250542   0.647   7.219   2.337 -0.1857 -0.8254  1.7383
15713SOL     OW50543   6.585   1.841   2.013  0.6459 -0.0077  0.4318
15713SOL    HW150544   6.633   1.895   1.951 -0.5392 -1.1099 -1.4999
15713SOL    HW250545   6.498   1.831   1.974 -0.4143  0.0235  2.7144
15714SOL     OW50546   1.190   3.504   4.160  0.1582 -1.1406 -0.0316
15714SOL    HW150547   1.211   3.562   4.233 -0.3159  0.9495 -1.5106
15714SOL    HW250548   1.104   3.468   4.182  0.1106 -0.6750  0.5478
15715SOL     OW50549   5.561   6.632   8.648  0.6908 -0.0154  0.3993
15715SOL    HW150550   5.472   6.601   8.659  0.4329  0.7470  0.5280
15715SOL    HW250551   5.585   6.609   8.559  1.2048 -2.3025  1.1007
15716SOL     OW50552   0.735   2.885   5.860 -0.1755 -0.1389  0.2866
15716SOL    HW150553   0.733   2.792   5.840 -0.9918  0.0223 -0.4155
15716SOL    HW250554   0.645   2.907   5.883  0.5382 -0.1022  3.1948
15717SOL     OW50555   6.782   5.838   5.553  0.1321 -0.2956 -0.2726
15717SOL    HW150556   6.868   5.807   5.584  0.4828  0.6259 -0.3024
15717SOL    HW250557   6.732   5.853   5.633 -0.4689 -2.0754 -0.2793
15718SOL     OW50558   9.140   9.442   0.703  0.5615  0.1799  0.1067
15718SOL    HW150559   9.181   9.446   0.617  1.3929 -0.7396  0.4558
15718SOL    HW250560   9.210   9.459   0.765  0.3773 -1.0782  0.6906
15719SOL     OW50561   0.838   0.129   3.371 -0.7251  0.2050 -0.1887
15719SOL    HW150562   0.878   0.205   3.413 -0.2847  1.3178 -2.5505
15719SOL    HW250563   0.805   0.076   3.444  0.2823  1.9107  1.5526
15720SOL     OW50564   9.307   8.468   7.834  0.3416  0.4465 -0.1272
15720SOL    HW150565   9.251   8.450   7.910 -0.9537  0.3968 -1.0689
15720SOL    HW250566   9.364   8.392   7.828  0.3639  0.3878  0.7160
15721SOL     OW50567   8.080   6.081  10.563 -0.0498 -0.8161 -0.5495
15721SOL    HW150568   8.091   6.153  10.501 -0.5479  0.2120  0.5485
15721SOL    HW250569   7.989   6.054  10.553 -0.8671  1.0318  1.5102
15722SOL     OW50570   5.353  10.324  10.276  0.0834 -0.3529 -0.1120
15722SOL    HW150571   5.284  10.276  10.230  0.2157 -0.4173 -0.2485
15722SOL    HW250572   5.423  10.260  10.286 -0.0112 -0.3829  0.3322
15723SOL     OW50573   3.034   1.345  10.680  0.2070  0.7841  0.1538
15723SOL    HW150574   2.952   1.373  10.641  0.3755 -0.7042 -1.3331
15723SOL    HW250575   3.088   1.317  10.606  1.7127  0.8493  1.1876
15724SOL     OW50576   2.089   8.912   5.041  0.4391 -0.4328 -0.0833
15724SOL    HW150577   1.999   8.888   5.066  0.7055 -1.5380 -0.1958
15724SOL    HW250578   2.125   8.833   5.001  0.8610  0.5662 -1.7008
15725SOL     OW50579   8.434   7.033   2.909 -0.2871  0.1197  0.4245
15725SOL    HW150580   8.441   7.089   2.831 -1.2583  3.0077  2.3090
15725SOL    HW250581   8.340   7.024   2.924 -0.1091 -0.2752  1.3377
15726SOL     OW50582   6.813   3.879   3.850  0.3266 -0.4597  0.1218
15726SOL    HW150583   6.841   3.796   3.813  1.3577  0.2301 -0.6780
15726SOL    HW250584   6.888   3.908   3.902 -0.0106 -0.0097  0.3572
15727SOL     OW50585   9.938   2.670  10.027 -0.3631 -0.2403  0.2153
15727SOL    HW150586   9.949   2.753   9.979 -1.9221  0.5485  1.1765
15727SOL    HW250587   9.971   2.689  10.115 -3.6904  0.3874  1.3941
15728SOL     OW50588   2.560   8.833   0.387 -0.4872 -0.1850  0.4870
15728SOL    HW150589   2.486   8.883   0.353  0.5999  1.0449 -0.1091
15728SOL    HW250590   2.561   8.852   0.481  0.4215  1.5987  0.1316
15729SOL     OW50591   9.724   8.396   7.774 -0.3142 -0.1268  0.1074
15729SOL    HW150592   9.668   8.472   7.761 -0.5262 -0.0972  1.1080
15729SOL    HW250593   9.716   8.376   7.868 -0.5808 -1.6249 -0.2135
15730SOL     OW50594   4.143   5.366   8.525  0.4976  0.4128  0.0733
15730SOL    HW150595   4.094   5.377   8.444 -1.0907  1.8625  1.1924
15730SOL    HW250596   4.168   5.274   8.526 -1.9189 -0.2771 -0.6898
15731SOL     OW50597   8.593   3.534   9.230  0.0892 -0.0171  0.0430
15731SOL    HW150598   8.686   3.527   9.252  0.4957  0.5833 -1.4729
15731SOL    HW250599   8.562   3.443   9.226 -0.1069 -0.1575  3.4504
15732SOL     OW50600   7.800   6.649   7.217 -0.1715 -0.6859 -0.0126
15732SOL    HW150601   7.721   6.667   7.166 -1.1152 -0.1587  1.6034
15732SOL    HW250602   7.773   6.583   7.280  0.6165 -0.3393  0.6963
15733SOL     OW50603   9.903   4.728   2.466  0.1469 -0.3910  0.0986
15733SOL    HW150604   9.945   4.687   2.390 -1.3167 -1.5435 -0.1037
15733SOL    HW250605   9.954   4.697   2.541  2.2925  1.6295 -0.4489
15734SOL     OW50606   7.247   3.127  10.704  0.4074 -0.4711  0.1474
15734SOL    HW150607   7.259   3.168  10.790 -0.9995 -0.3047  0.2829
15734SOL    HW250608   7.294   3.044  10.711  0.7868 -0.2026  0.8849
15735SOL     OW50609   9.513   8.010  10.923  0.0475 -0.2782  0.1904
15735SOL    HW150610   9.561   8.049  10.996 -2.7813 -0.9959  2.5270
15735SOL    HW250611   9.556   7.925  10.909  0.0030 -0.5542  1.6636
15736SOL     OW50612   7.928   7.639   8.451  0.4035 -0.1488  0.3144
15736SOL    HW150613   7.900   7.568   8.509  0.4081 -1.6699 -1.4745
15736SOL    HW250614   7.848   7.667   8.407  0.7153 -0.4093 -0.4312
15737SOL     OW50615   7.954   1.125   3.667 -0.7220  0.0091  0.3284
15737SOL    HW150616   8.039   1.166   3.650 -0.6528  0.3436  1.4541
15737SOL    HW250617   7.958   1.042   3.619  0.3390 -0.0935  0.5787
15738SOL     OW50618   6.182   1.831   6.635  0.0643  0.1853  0.0329
15738SOL    HW150619   6.259   1.779   6.610 -0.3387 -1.5990  2.3072
15738SOL    HW250620   6.213   1.922   6.632  1.7037 -0.3710 -0.9494
15739SOL     OW50621   8.064   7.736   2.581 -0.2709 -0.3762  0.3885
15739SOL    HW150622   8.084   7.703   2.494 -0.0470 -0.6000  0.5242
15739SOL    HW250623   8.102   7.672   2.641 -1.0870 -0.6154  0.6545
15740SOL     OW50624   7.238   9.527   2.036  0.1611 -0.4790 -0.2764
15740SOL    HW150625   7.273   9.602   1.987 -0.0372 -0.5115 -0.4660
15740SOL    HW250626   7.274   9.451   1.992 -1.3447 -0.5626 -1.3937
15741SOL     OW50627  10.866   0.739   9.277 -0.3788 -0.8247 -0.3740
15741SOL    HW150628  10.961   0.742   9.263 -0.4423  0.2811 -0.6129
15741SOL    HW250629  10.846   0.646   9.288  0.5568 -1.1810 -1.5872
15742SOL     OW50630   6.134   5.569  10.479 -0.0924 -0.1221 -0.5766
15742SOL    HW150631   6.203   5.565  10.544  0.1408 -1.2487 -0.8825
15742SOL    HW250632   6.111   5.477  10.462 -1.0681  0.2098 -1.0948
15743SOL     OW50633   4.459   0.586   3.004  0.2641 -0.0717  0.2430
15743SOL    HW150634   4.528   0.651   3.015  1.3187 -1.5228  2.4320
15743SOL    HW250635   4.505   0.502   3.007 -1.2680 -0.9716 -1.0417
15744SOL     OW50636   3.620   1.681   7.984  0.1148  0.4373  0.5682
15744SOL    HW150637   3.573   1.599   8.001 -0.4680  0.1618 -2.1473
15744SOL    HW250638   3.604   1.734   8.062  1.4979 -2.4484  2.9038
15745SOL     OW50639   1.783   1.562   0.373  0.2935 -0.8070  0.5946
15745SOL    HW150640   1.784   1.534   0.464  0.9807 -0.8009  0.5903
15745SOL    HW250641   1.875   1.576   0.351  0.2047 -1.6203 -0.3410
15746SOL     OW50642   1.646   4.331   8.824 -0.1166 -0.0084 -0.0526
15746SOL    HW150643   1.700   4.252   8.816 -0.1291  0.0621 -0.8053
15746SOL    HW250644   1.700   4.401   8.789 -0.8541 -0.0069 -1.1894
15747SOL     OW50645   6.494   7.083   8.471 -0.2718 -0.2173  0.4949
15747SOL    HW150646   6.474   7.087   8.378 -2.4266 -1.5389  0.8571
15747SOL    HW250647   6.582   7.120   8.479 -0.5682  1.0624 -1.8886
15748SOL     OW50648   4.879   2.073   4.716 -0.2661  0.2427  0.0467
15748SOL    HW150649   4.885   2.032   4.630 -1.5561 -0.9243  0.5026
15748SOL    HW250650   4.799   2.124   4.713  0.6655  1.7215 -0.0742
15749SOL     OW50651   2.718   7.341   3.684  0.1228  0.4180 -0.3739
15749SOL    HW150652   2.754   7.417   3.731  3.3469 -0.7934 -0.7311
15749SOL    HW250653   2.681   7.286   3.753 -0.1573  1.2435  0.1438
15750SOL     OW50654   6.933   6.755   3.411  0.2886  0.2824  0.6088
15750SOL    HW150655   6.928   6.660   3.425  1.4774  0.1684  0.2833
15750SOL    HW250656   6.902   6.792   3.494 -1.7454 -0.3634  0.1848
15751SOL     OW50657   0.018   2.505  10.787  0.2551 -0.2282  0.0204
15751SOL    HW150658  -0.011   2.486  10.877 -0.0287  0.4543  0.0767
15751SOL    HW250659   0.045   2.420  10.753  0.6526 -0.4488  0.8531
15752SOL     OW50660   7.249   9.195   7.240  0.8333 -0.6280 -0.1072
15752SOL    HW150661   7.156   9.170   7.238  0.8404 -0.7049  0.4697
15752SOL    HW250662   7.267   9.211   7.332  1.3836 -0.5568 -0.2289
15753SOL     OW50663   0.561   4.340   0.963 -0.0293 -0.9772  0.1396
15753SOL    HW150664   0.496   4.365   0.897  2.5965 -1.0402 -2.5931
15753SOL    HW250665   0.535   4.253   0.991 -2.6904  0.1023  1.2030
15754SOL     OW50666   2.312   3.794   7.251  0.6160 -0.0054  0.6589
15754SOL    HW150667   2.381   3.859   7.252  0.7316 -0.1029 -0.3962
15754SOL    HW250668   2.323   3.748   7.168 -0.7587  0.0336  0.4293
15755SOL     OW50669   6.015   6.486   0.489  0.3784  0.4022 -0.4186
15755SOL    HW150670   6.004   6.494   0.584  0.2563  0.2212 -0.4166
15755SOL    HW250671   5.988   6.571   0.454  1.2533  0.7590 -0.2220
15756SOL     OW50672   3.841   2.874   0.776  0.1001  0.4494 -0.0166
15756SOL    HW150673   3.925   2.902   0.813  1.1190 -1.2700 -0.9686
15756SOL    HW250674   3.802   2.820   0.845  0.4013  0.1225 -0.1019
15757SOL     OW50675   8.645   5.560   7.518  0.9669 -0.2022  0.1111
15757SOL    HW150676   8.611   5.470   7.515  1.2669 -0.2770 -1.1079
15757SOL    HW250677   8.740   5.550   7.517  0.9965  0.1486 -0.4767
15758SOL     OW50678   2.773   9.141   5.080  0.8226  0.3095  0.2056
15758SOL    HW150679   2.678   9.147   5.068  1.2646  1.8399 -2.9423
15758SOL    HW250680   2.787   9.057   5.124 -2.0423  0.5556  1.7267
15759SOL     OW50681   2.203   1.912   5.318 -0.0178 -0.2938  0.1573
15759SOL    HW150682   2.119   1.915   5.366  0.0392  0.1797  0.2314
15759SOL    HW250683   2.211   1.821   5.290  0.4523 -0.8321  1.9531
15760SOL     OW50684   7.691   5.230   6.040  0.2373 -0.1749  0.3337
15760SOL    HW150685   7.645   5.313   6.031  0.3123 -0.4300 -3.2151
15760SOL    HW250686   7.621   5.164   6.048  0.0146 -0.1932 -1.4678
15761SOL     OW50687   5.870  10.413   4.955 -0.0985  0.8661 -0.0915
15761SOL    HW150688   5.882  10.471   5.030  1.3425  0.5834 -0.0794
15761SOL    HW250689   5.937  10.441   4.892  1.8144 -1.8511  0.6050
15762SOL     OW50690   0.441   1.426   6.042 -0.2132  0.1026 -0.3687
15762SOL    HW150691   0.534   1.428   6.064 -0.7441 -0.1222  2.0337
15762SOL    HW250692   0.431   1.352   5.982  1.3113  0.7494 -1.4333
15763SOL     OW50693  10.612   5.642   6.233  0.2044 -0.2165  0.3615
15763SOL    HW150694  10.636   5.610   6.146 -1.1117 -0.5874  0.1252
15763SOL    HW250695  10.575   5.566   6.278 -1.2250  0.4882  0.4314
15764SOL     OW50696   7.632   1.026   7.884  0.0618 -0.0354 -0.4587
15764SOL    HW150697   7.635   1.002   7.791 -0.5200 -0.5157 -0.3575
15764SOL    HW250698   7.719   1.060   7.903 -0.3070  1.5682 -1.5763
15765SOL     OW50699   4.650   1.288   3.977  0.6463  0.5015  0.2068
15765SOL    HW150700   4.668   1.229   4.050  1.1036  0.3581 -0.0231
15765SOL    HW250701   4.565   1.327   3.999  0.4182 -0.1148  0.4415
15766SOL     OW50702   8.438   3.819   1.998 -0.0144  0.1879 -0.2676
15766SOL    HW150703   8.432   3.867   2.080 -0.3417 -0.1423 -0.0958
15766SOL    HW250704   8.356   3.840   1.952 -0.3450 -0.5177 -0.0154
15767SOL     OW50705   4.890   7.643   1.650  0.4629 -0.1588 -0.2901
15767SOL    HW150706   4.850   7.577   1.593 -0.7054  0.3509 -0.0823
15767SOL    HW250707   4.841   7.723   1.633 -0.5350 -0.2029  2.0335
15768SOL     OW50708   5.801   2.997   1.140 -0.3502 -0.0371 -0.5889
15768SOL    HW150709   5.838   2.997   1.228 -1.1723  1.1208 -0.2312
15768SOL    HW250710   5.714   3.035   1.151 -0.1883  0.7691 -2.0081
15769SOL     OW50711   1.379   0.014   4.331  0.0988 -0.5366 -0.1814
15769SOL    HW150712   1.385  -0.079   4.352 -1.4724 -1.2435 -2.6058
15769SOL    HW250713   1.318   0.049   4.396  0.7771 -1.1798  0.8054
15770SOL     OW50714   2.085   1.495   2.326  0.3139  0.5578 -0.0284
15770SOL    HW150715   2.120   1.570   2.278 -0.1068  0.1924 -0.9229
15770SOL    HW250716   2.093   1.421   2.265  0.9842 -0.1936  0.9419
15771SOL     OW50717  10.737   4.847   3.471  0.2371  0.0893  0.6924
15771SOL    HW150718  10.746   4.804   3.556 -0.3671  1.0308  1.2420
15771SOL    HW250719  10.668   4.911   3.484  0.3434  0.4381 -0.4355
15772SOL     OW50720   0.223   3.327   8.655 -0.0592  0.4706  0.2203
15772SOL    HW150721   0.243   3.286   8.739 -0.1310 -0.1635 -0.0657
15772SOL    HW250722   0.158   3.269   8.615 -1.6026  1.8814  0.6320
15773SOL     OW50723   2.866   3.113   4.228  0.5905 -0.2632 -0.4451
15773SOL    HW150724   2.857   3.033   4.177  3.0173 -0.7329 -0.1980
15773SOL    HW250725   2.831   3.182   4.172  0.7619 -1.1515 -1.6456
15774SOL     OW50726   0.264  10.642   9.900  0.4357 -0.1198 -0.0016
15774SOL    HW150727   0.272  10.642   9.996  0.1765  2.5816  0.0388
15774SOL    HW250728   0.182  10.687   9.883 -0.4401 -2.2092 -1.4738
15775SOL     OW50729   9.583   7.537   8.781 -0.1670  0.0944  0.5812
15775SOL    HW150730   9.593   7.615   8.727 -0.0981  1.0128  1.8977
15775SOL    HW250731   9.640   7.472   8.739 -0.0247  0.8173 -0.3775
15776SOL     OW50732   9.623   8.144   3.286 -0.2097 -0.0542  0.0740
15776SOL    HW150733   9.678   8.066   3.287  0.4093  0.3737  0.0246
15776SOL    HW250734   9.548   8.120   3.232 -0.8178 -1.1385  1.3702
15777SOL     OW50735   8.242   1.114   0.023  0.5257 -0.1596  0.1068
15777SOL    HW150736   8.258   1.209   0.021  1.7426 -0.3284  1.0920
15777SOL    HW250737   8.208   1.098   0.111  4.3974 -1.2340  1.4681
15778SOL     OW50738   3.400   7.172   9.613 -0.3845 -0.1239  0.3507
15778SOL    HW150739   3.482   7.191   9.568 -0.2958 -0.1343  0.5064
15778SOL    HW250740   3.340   7.240   9.584 -0.6045 -0.6894 -0.5270
15779SOL     OW50741   5.717  10.485   9.032 -0.3498  0.3425  0.3483
15779SOL    HW150742   5.785  10.452   8.974 -0.2792 -0.0487  0.6488
15779SOL    HW250743   5.765  10.523   9.106 -0.3970  2.1111 -0.4980
15780SOL     OW50744   0.972   3.652   7.587 -0.3538  0.8437  0.3242
15780SOL    HW150745   1.030   3.598   7.641  0.2525  0.7344 -0.4341
15780SOL    HW250746   0.893   3.600   7.578 -1.0857  1.5320  2.4459
15781SOL     OW50747   5.561   1.769   3.032  0.5479 -0.6402 -0.1389
15781SOL    HW150748   5.636   1.815   3.068  0.8547 -0.5097 -0.9227
15781SOL    HW250749   5.544   1.812   2.948 -0.9298 -0.1288  0.4097
15782SOL     OW50750  10.289   3.944   9.114 -0.0657 -0.1434 -0.5506
15782SOL    HW150751  10.380   3.913   9.116 -0.7173 -2.1678 -1.5846
15782SOL    HW250752  10.251   3.914   9.196 -0.4146 -1.2281 -1.1049
15783SOL     OW50753   2.137   1.014   3.006  0.1441  0.0835  0.0264
15783SOL    HW150754   2.101   1.095   3.044  1.2386 -0.4459  2.3077
15783SOL    HW250755   2.208   0.990   3.066  2.9195 -0.0245 -3.2117
15784SOL     OW50756   2.160   4.610   8.288 -0.3324 -0.0987 -0.1541
15784SOL    HW150757   2.134   4.540   8.228 -1.3137 -1.1205  1.4062
15784SOL    HW250758   2.167   4.566   8.373 -1.2504  1.7703  0.9080
15785SOL     OW50759   8.603   4.190   0.900 -0.2789 -0.1828 -0.0730
15785SOL    HW150760   8.610   4.281   0.929 -0.0906 -0.1185 -0.3237
15785SOL    HW250761   8.564   4.195   0.813 -1.7602 -0.4356  0.5665
15786SOL     OW50762   6.630   1.305   6.763 -0.2097 -0.0917 -0.5319
15786SOL    HW150763   6.588   1.225   6.729 -0.5554 -0.1438  0.0052
15786SOL    HW250764   6.641   1.361   6.686 -1.7303  0.1237 -0.6077
15787SOL     OW50765   2.019   4.470   7.623  0.2643  0.6645  0.3584
15787SOL    HW150766   2.005   4.454   7.716 -0.7911  1.5187  0.3476
15787SOL    HW250767   2.070   4.551   7.619  3.5767 -1.3022  0.3113
15788SOL     OW50768   7.421   5.691  10.261 -0.0877 -0.0054 -0.5964
15788SOL    HW150769   7.417   5.785  10.240  0.0297  0.4196  1.1920
15788SOL    HW250770   7.513   5.675  10.281 -0.1450 -0.4622 -0.6919
15789SOL     OW50771   2.713   6.276   1.361  0.0102 -0.5928  0.1508
15789SOL    HW150772   2.693   6.228   1.441  0.3048  0.5978  0.9595
15789SOL    HW250773   2.644   6.342   1.355 -0.4673 -1.1930 -1.0165
15790SOL     OW50774   6.026   6.192   2.901  0.4335  0.5413  0.3569
15790SOL    HW150775   5.996   6.155   2.818  2.5027 -0.4303 -0.0066
15790SOL    HW250776   5.987   6.137   2.968  1.6180 -0.9093 -0.1090
15791SOL     OW50777   1.676   7.036   1.038 -0.1688 -0.0124 -0.0653
15791SOL    HW150778   1.685   7.111   1.097  0.3220  0.2991 -0.5322
15791SOL    HW250779   1.594   6.993   1.066 -0.7148  0.9831 -0.1290
15792SOL     OW50780   9.534   7.498  10.525  0.1851  0.0954  0.1802
15792SOL    HW150781   9.570   7.569  10.473  0.7495 -1.4691 -1.6409
15792SOL    HW250782   9.467   7.458  10.469  0.0235 -0.9294  1.0732
15793SOL     OW50783   2.684   5.995   6.138  0.1579 -0.6045  0.1213
15793SOL    HW150784   2.611   5.992   6.201  1.9610  1.0635  2.3817
15793SOL    HW250785   2.691   6.088   6.115  1.1918 -0.8368 -0.5222
15794SOL     OW50786   2.003   1.747   6.325  0.7815  0.4920 -0.1055
15794SOL    HW150787   2.044   1.757   6.239  2.4608 -0.0025  0.6172
15794SOL    HW250788   1.980   1.654   6.330 -1.1657  0.9145 -0.8144
15795SOL     OW50789   1.309   7.759   7.731  0.1048 -0.5547 -0.5204
15795SOL    HW150790   1.396   7.720   7.719  0.1802 -0.6559  0.3284
15795SOL    HW250791   1.323   7.827   7.797 -0.1500  0.4956 -1.5119
15796SOL     OW50792   4.436   7.572   9.274  0.1815  0.0838  0.3395
15796SOL    HW150793   4.451   7.480   9.254 -1.6582 -0.6085  2.0283
15796SOL    HW250794   4.515   7.616   9.241  2.0955 -2.3455  1.4818
15797SOL     OW50795   1.112   9.815   2.336 -0.0759  0.0487 -0.1573
15797SOL    HW150796   1.034   9.865   2.357 -0.1290 -0.1366  0.0874
15797SOL    HW250797   1.079   9.729   2.310  0.0048  0.1970 -0.7490
15798SOL     OW50798   2.589   4.388   0.549 -0.6279  0.3821  0.3432
15798SOL    HW150799   2.628   4.310   0.587 -2.7030 -0.0515  1.6556
15798SOL    HW250800   2.587   4.451   0.621  0.8848  1.6170 -0.6615
15799SOL     OW50801   2.210   0.554   1.527  0.0645  0.0214  0.3902
15799SOL    HW150802   2.176   0.618   1.464  1.0127  1.4480  1.2857
15799SOL    HW250803   2.135   0.531   1.581  0.1545  2.0256  1.4145
15800SOL     OW50804  10.833   4.981  10.305  0.2806  0.6357  0.6954
15800SOL    HW150805  10.855   4.954  10.395  1.2776  0.5143  0.4120
15800SOL    HW250806  10.884   4.922  10.249  0.4750  1.4131  0.0565
15801SOL     OW50807   2.522   1.657   5.311  0.1864 -0.1618 -0.4915
15801SOL    HW150808   2.564   1.625   5.231 -2.5412  0.1505 -2.1045
15801SOL    HW250809   2.430   1.669   5.287 -0.0621  3.1126  1.7730
15802SOL     OW50810   4.766   1.189   0.842  0.9102  0.1435 -0.7097
15802SOL    HW150811   4.755   1.230   0.928  0.9952  0.8682 -1.0374
15802SOL    HW250812   4.851   1.146   0.847  0.1931 -1.1894  0.1148
15803SOL     OW50813   8.405   0.616   0.104 -0.1871 -0.1726 -0.1243
15803SOL    HW150814   8.322   0.661   0.089 -1.2493 -2.2851 -0.7833
15803SOL    HW250815   8.414   0.557   0.029  1.1052 -1.1349  0.7590
15804SOL     OW50816   5.297   7.129   0.214 -0.3424 -0.1932  0.3765
15804SOL    HW150817   5.215   7.162   0.177 -0.7630 -0.9527  0.6174
15804SOL    HW250818   5.365   7.185   0.177 -0.9879  0.5551  0.3114
15805SOL     OW50819   4.276   2.039   3.458  0.1231  0.4470  0.1392
15805SOL    HW150820   4.187   2.033   3.424  0.4968 -1.3656 -0.6274
15805SOL    HW250821   4.272   1.994   3.543  0.4372 -0.2945 -0.2277
15806SOL     OW50822   1.283   3.756   5.261 -0.3210  0.4297 -0.2047
15806SOL    HW150823   1.360   3.813   5.269 -0.9734  1.1615  0.8987
15806SOL    HW250824   1.267   3.724   5.349 -0.7058 -0.5167 -0.6071
15807SOL     OW50825   2.862  10.318   4.634  0.0207 -0.2888 -0.4387
15807SOL    HW150826   2.938  10.373   4.655 -0.3924 -0.4410  1.5125
15807SOL    HW250827   2.900  10.237   4.599  0.7230  0.0771 -0.5270
15808SOL     OW50828   2.064   3.251   0.378  0.2038 -0.3686  0.1377
15808SOL    HW150829   1.987   3.248   0.321  1.3684  1.5179 -1.6190
15808SOL    HW250830   2.042   3.317   0.444 -0.0926 -0.5667  0.2358
15809SOL     OW50831   5.682   5.689   5.508 -0.1585  0.2412 -0.2956
15809SOL    HW150832   5.595   5.728   5.517  0.3099  0.7954  2.2844
15809SOL    HW250833   5.670   5.597   5.531 -0.3114  0.0178 -1.2710
15810SOL     OW50834   3.581   8.871  10.169  0.2252 -0.1553 -0.4137
15810SOL    HW150835   3.551   8.939  10.229  0.5690  0.2960 -0.7478
15810SOL    HW250836   3.667   8.902  10.138  1.7254 -2.0931  1.6278
15811SOL     OW50837   0.464  10.526   5.966 -0.6164 -0.1088  0.2775
15811SOL    HW150838   0.399  10.478   5.915 -1.2723  1.3269 -0.2655
15811SOL    HW250839   0.501  10.589   5.904  2.2468 -1.7456  0.2146
15812SOL     OW50840  10.428   3.579  10.512 -0.2607 -0.2685 -0.3475
15812SOL    HW150841  10.459   3.550  10.597  0.5755  0.7880 -0.2747
15812SOL    HW250842  10.491   3.542  10.450 -1.5096 -1.9876 -0.6269
15813SOL     OW50843   8.201   2.078   8.194 -0.0147  0.0119 -0.2919
15813SOL    HW150844   8.291   2.108   8.213  0.6155 -1.8552 -0.2256
15813SOL    HW250845   8.145   2.139   8.241  1.2926  0.1759  1.0835
15814SOL     OW50846   9.148   8.963   7.725 -0.4804 -0.0860  0.0469
15814SOL    HW150847   9.210   8.911   7.775 -0.8363 -1.9242 -1.3680
15814SOL    HW250848   9.157   8.932   7.635  0.8785  3.8654 -1.2551
15815SOL     OW50849   0.597   7.146   8.637 -0.1325 -0.2812  0.6599
15815SOL    HW150850   0.510   7.179   8.657 -0.1036 -0.8715  1.7911
15815SOL    HW250851   0.587   7.050   8.637  0.3652 -0.3420  0.1025
15816SOL     OW50852   6.130   1.917   4.548  0.0171 -0.2788  0.4605
15816SOL    HW150853   6.165   1.843   4.499 -0.0775  0.3017 -0.4969
15816SOL    HW250854   6.104   1.980   4.481  0.1638  0.6511  1.2668
15817SOL     OW50855   2.396   9.566   3.617  0.3416 -0.4654 -0.0553
15817SOL    HW150856   2.390   9.543   3.710  1.0559  0.9199  0.3433
15817SOL    HW250857   2.319   9.526   3.578 -0.4334 -0.3300  1.2951
15818SOL     OW50858   4.248  10.046   4.416  0.8433 -0.0437  0.5466
15818SOL    HW150859   4.266  10.139   4.432 -0.0592  0.8587 -3.2179
15818SOL    HW250860   4.329  10.013   4.377  1.5794 -1.1840  2.9473
15819SOL     OW50861   4.541  10.367   1.607 -0.6154  0.4606  0.1578
15819SOL    HW150862   4.573  10.406   1.525  1.8092  0.8368  1.2465
15819SOL    HW250863   4.538  10.273   1.589 -0.8959  0.6134 -0.6221
15820SOL     OW50864   6.749   7.419   1.634  0.7236 -0.0559 -0.3435
15820SOL    HW150865   6.798   7.500   1.641  0.9151 -0.1018 -1.0517
15820SOL    HW250866   6.659   7.446   1.614  0.5507  0.0147  0.5168
15821SOL     OW50867   2.218   4.410   8.469 -0.5124  0.1762  0.3714
15821SOL    HW150868   2.260   4.367   8.544  0.1422  1.1378  0.5677
15821SOL    HW250869   2.225   4.347   8.398  1.6215  0.4368  0.2994
15822SOL     OW50870   0.173   1.679   7.044 -0.2547 -0.2233  0.1350
15822SOL    HW150871   0.166   1.637   6.959 -0.4630 -0.0381  0.0615
15822SOL    HW250872   0.125   1.621   7.104  2.4942 -1.9875  0.7154
15823SOL     OW50873   7.142   4.617   6.844 -0.9978  0.1463 -0.4554
15823SOL    HW150874   7.094   4.535   6.843  0.1226 -0.5355  0.6956
15823SOL    HW250875   7.229   4.594   6.877 -0.5469  1.7252 -0.4883
15824SOL     OW50876   4.436   8.392   9.845  0.0893  0.2324 -0.4788
15824SOL    HW150877   4.490   8.373   9.922 -0.2515 -0.5266 -0.4258
15824SOL    HW250878   4.381   8.466   9.871  0.3147  0.2861 -0.1590
15825SOL     OW50879   5.544   1.054   3.999  0.0036  0.3313  0.4630
15825SOL    HW150880   5.617   1.035   3.939  1.7872  2.3934  1.9126
15825SOL    HW250881   5.547   0.983   4.063 -0.1939 -0.3902 -0.3176
15826SOL     OW50882   6.370   7.318   5.420 -0.4161  0.1609 -0.0492
15826SOL    HW150883   6.318   7.257   5.474 -0.3540  0.5221  0.4247
15826SOL    HW250884   6.317   7.332   5.342 -1.1859  0.7810  0.5735
15827SOL     OW50885   5.048   8.833   1.489 -0.3941  0.2440  0.2343
15827SOL    HW150886   5.080   8.806   1.403 -4.2041 -0.8182 -0.9561
15827SOL    HW250887   5.018   8.751   1.529 -2.8194  1.3263  0.6892
15828SOL     OW50888   2.421   1.871   8.740 -0.2342  0.0013 -0.7330
15828SOL    HW150889   2.335   1.849   8.704 -1.4916  1.3323  1.3732
15828SOL    HW250890   2.428   1.818   8.820  1.9277 -1.8555 -2.0851
15829SOL     OW50891   0.573   7.688   0.675 -0.1173  0.1074  0.3242
15829SOL    HW150892   0.654   7.637   0.682 -0.7507 -0.7830  1.4920
15829SOL    HW250893   0.507   7.625   0.646 -0.7797  0.3815  1.1874
15830SOL     OW50894   9.046   4.474   2.528  0.1849  0.2335  0.0576
15830SOL    HW150895   8.965   4.507   2.490  0.6107 -0.3912 -1.4442
15830SOL    HW250896   9.115   4.503   2.468  0.6976 -2.2740 -0.6519
15831SOL     OW50897   2.974   5.203   8.036  0.3464  0.8167  0.1898
15831SOL    HW150898   2.925   5.129   7.999  1.1365  0.3201  0.1334
15831SOL    HW250899   2.987   5.262   7.962 -0.6839  1.2428  0.3310
15832SOL     OW50900   6.007   2.953   9.960 -0.4525 -0.8537  0.4819
15832SOL    HW150901   5.936   2.914   9.909  0.4489 -1.7804 -0.0943
15832SOL    HW250902   5.977   2.948  10.051 -1.7081  0.0381  0.1437
15833SOL     OW50903   9.057   6.190   5.693  0.3814 -0.1163  0.3114
15833SOL    HW150904   9.139   6.172   5.647  0.1119  1.1885 -0.7084
15833SOL    HW250905   8.995   6.126   5.657  0.7029 -0.4738  0.3892
15834SOL     OW50906   7.743   5.109   8.685  0.1755 -0.0103  0.8822
15834SOL    HW150907   7.680   5.176   8.711 -0.0376  0.2151 -0.1855
15834SOL    HW250908   7.813   5.114   8.750 -1.1777 -0.6477  2.4046
15835SOL     OW50909   3.810   4.149   4.227  0.0191  0.3688  0.1568
15835SOL    HW150910   3.819   4.070   4.174  0.4344  0.4343  0.1259
15835SOL    HW250911   3.850   4.125   4.311 -1.2556  0.0418  0.6695
15836SOL     OW50912   4.818   2.898  10.578  0.5653 -0.4410 -0.1001
15836SOL    HW150913   4.759   2.971  10.594 -0.7734 -0.6667 -3.5168
15836SOL    HW250914   4.759   2.823  10.565  1.7745 -1.3817 -0.1799
15837SOL     OW50915  10.071   3.411   3.663  0.7559 -0.0690  0.5464
15837SOL    HW150916  10.092   3.479   3.599  0.3855 -2.2677 -2.0137
15837SOL    HW250917  10.085   3.329   3.616  0.1014 -1.7744  3.2083
15838SOL     OW50918  10.651   4.453   5.939 -0.0416  0.1525 -0.3208
15838SOL    HW150919  10.745   4.457   5.953 -0.0079  1.4125 -0.8492
15838SOL    HW250920  10.623   4.374   5.986  0.9646  0.9298  1.6508
15839SOL     OW50921   7.723   1.882   4.574  0.4593 -0.6237  0.0967
15839SOL    HW150922   7.639   1.848   4.602  0.2783 -0.7498 -0.6005
15839SOL    HW250923   7.784   1.854   4.642 -0.1457 -0.0874  0.8768
15840SOL     OW50924   7.577   1.850  10.976 -0.2499  0.1562 -0.1495
15840SOL    HW150925   7.669   1.875  10.977  0.1246 -0.9450 -2.7265
15840SOL    HW250926   7.562   1.813  11.063  0.9824  2.8328  1.2586
15841SOL     OW50927   4.335   0.052   2.447  0.5173 -0.0982 -0.5370
15841SOL    HW150928   4.262  -0.009   2.458  0.6887 -0.4843 -1.5046
15841SOL    HW250929   4.392   0.034   2.522  0.3350 -0.7882 -0.5620
15842SOL     OW50930   8.929   0.385   2.370  0.4888 -0.2682 -0.3073
15842SOL    HW150931   8.921   0.291   2.354  0.8838 -0.1247 -1.3891
15842SOL    HW250932   8.939   0.423   2.283 -0.9924  0.9160  0.0322
15843SOL     OW50933   7.673  10.720   8.305  0.1983 -0.0978  0.0324
15843SOL    HW150934   7.635  10.764   8.381 -0.5899  0.1575 -0.5007
15843SOL    HW250935   7.759  10.690   8.334 -0.7631 -1.4411  1.5494
15844SOL     OW50936   6.577   4.096   0.302  0.0076  0.1899  0.1118
15844SOL    HW150937   6.570   4.179   0.256 -0.5917 -0.2834 -0.6664
15844SOL    HW250938   6.558   4.117   0.394  0.0956  0.9487 -0.0464
15845SOL     OW50939   7.671   1.582   9.731 -0.1811 -0.3579  0.1672
15845SOL    HW150940   7.633   1.571   9.644  0.3737  1.9487 -0.3867
15845SOL    HW250941   7.652   1.672   9.755  2.3970 -0.0158  1.1086
15846SOL     OW50942   2.688   3.276   7.622  0.5480  0.2816  0.1916
15846SOL    HW150943   2.650   3.250   7.538 -1.2764  0.6508  0.8796
15846SOL    HW250944   2.737   3.356   7.603 -2.1285  1.9038 -0.0112
15847SOL     OW50945   9.880   7.551   2.081 -0.5590  0.0607  0.0748
15847SOL    HW150946   9.934   7.630   2.078 -0.0911 -0.2671 -0.3814
15847SOL    HW250947   9.850   7.546   2.172 -1.5970  1.4112 -0.1860
15848SOL     OW50948   6.856   8.542   5.746  0.0924 -0.0584 -0.0561
15848SOL    HW150949   6.897   8.587   5.671  0.0590  1.1452  0.6329
15848SOL    HW250950   6.795   8.480   5.705 -0.7564  1.3815 -1.0333
15849SOL     OW50951   7.610   9.344   6.191 -0.1489  0.2551  0.5098
15849SOL    HW150952   7.521   9.332   6.157 -0.4575 -1.4329  1.8348
15849SOL    HW250953   7.617   9.438   6.207 -0.8410  0.7342 -1.8535
15850SOL     OW50954   4.774   2.812   2.491  0.0460  0.0087 -0.1484
15850SOL    HW150955   4.808   2.901   2.484  0.3036 -0.0158  0.6951
15850SOL    HW250956   4.784   2.775   2.403 -0.9675  1.1216 -0.7392
15851SOL     OW50957   8.362   7.645   3.279 -0.1040  0.1281  0.0368
15851SOL    HW150958   8.410   7.723   3.249 -0.4370  0.8244  1.2490
15851SOL    HW250959   8.403   7.623   3.362  0.2530 -1.2569 -0.4958
15852SOL     OW50960  10.602   7.225   6.303  0.0770 -0.2328 -0.1080
15852SOL    HW150961  10.597   7.194   6.213  1.4060 -2.9107  0.7121
15852SOL    HW250962  10.544   7.166   6.352  0.6104  0.1953  1.0584
15853SOL     OW50963   5.041   8.116   3.850  0.3572  0.0821  0.0466
15853SOL    HW150964   5.103   8.092   3.781 -0.8922 -4.1652  0.2749
15853SOL    HW250965   4.955   8.106   3.810 -0.3733 -2.2822  2.0974
15854SOL     OW50966  10.446   4.119   2.544 -0.9525  0.0125 -0.2376
15854SOL    HW150967  10.510   4.054   2.574 -1.2990 -0.6460 -0.8984
15854SOL    HW250968  10.497   4.180   2.490 -0.7282 -0.0395 -0.0837
15855SOL     OW50969   4.965  10.066  10.894 -0.3538 -0.0912  0.1325
15855SOL    HW150970   4.997  10.062  10.985 -1.4551  1.4477  0.5930
15855SOL    HW250971   4.961  10.159  10.874  1.3205 -0.4424 -2.0357
15856SOL     OW50972   6.578   4.803   6.760  0.1388 -0.1631  0.0653
15856SOL    HW150973   6.609   4.827   6.848  0.8439  0.1137 -0.2560
15856SOL    HW250974   6.503   4.860   6.746 -0.6420 -0.9586  0.9196
15857SOL     OW50975   3.759   6.830  10.022 -0.0346 -0.1970  0.7135
15857SOL    HW150976   3.746   6.897  10.088  0.5260  0.3229  0.3035
15857SOL    HW250977   3.694   6.762  10.043 -1.3213  0.9362  0.5165
15858SOL     OW50978   3.352   7.128   2.919  0.0426 -0.0084  0.3887
15858SOL    HW150979   3.398   7.095   2.997 -0.8463  0.2723  1.0512
15858SOL    HW250980   3.259   7.112   2.939 -0.0419 -2.7375 -1.9048
15859SOL     OW50981   7.251   6.030   2.525 -0.5162 -0.6497  0.2081
15859SOL    HW150982   7.255   6.035   2.620 -6.3538  2.3293  0.5213
15859SOL    HW250983   7.293   6.111   2.495  0.8134 -1.3180  0.2327
15860SOL     OW50984   0.649   8.015   2.181  0.4576  0.4895 -0.5641
15860SOL    HW150985   0.583   8.011   2.112 -0.8417  1.1484  0.6078
15860SOL    HW250986   0.625   7.944   2.241  0.1763  1.3855  0.3987
15861SOL     OW50987   4.871   7.533   2.145  0.4545  0.6996  0.3114
15861SOL    HW150988   4.776   7.534   2.150  0.3756 -2.0901 -0.2415
15861SOL    HW250989   4.891   7.521   2.052  1.3389  0.9878  0.4547
15862SOL     OW50990   0.277   8.562   4.242 -0.0449  0.2156 -0.2322
15862SOL    HW150991   0.364   8.523   4.236  0.4149  0.6826  2.4657
15862SOL    HW250992   0.239   8.524   4.321 -1.8830  0.8065 -0.8016
15863SOL     OW50993   4.969   9.700   3.389  0.6464 -0.3113  0.0474
15863SOL    HW150994   5.022   9.660   3.458 -0.7637 -0.3906  1.1166
15863SOL    HW250995   4.879   9.697   3.423  0.2552  2.0209 -0.6638
15864SOL     OW50996   6.282   7.734   8.928  0.2670  0.3865 -0.5328
15864SOL    HW150997   6.279   7.706   8.836 -0.9986  1.5954 -0.8844
15864SOL    HW250998   6.322   7.821   8.924 -2.0269  1.4974 -0.2440
15865SOL     OW50999   2.911   2.059   1.459  0.0903 -0.5729 -0.2834
15865SOL    HW151000   2.916   1.987   1.395  1.4374 -0.1819 -0.6406
15865SOL    HW251001   2.940   2.019   1.541 -0.7769 -0.8502 -0.1061
15866SOL     OW51002   8.900   1.658   0.474 -0.0169 -0.3450 -0.0867
15866SOL    HW151003   8.908   1.752   0.456 -0.3571 -0.3060 -0.0282
15866SOL    HW251004   8.907   1.650   0.569 -1.6797 -0.2090  0.0553
15867SOL     OW51005   1.438   0.955   7.640 -0.4180  0.9598  0.0798
15867SOL    HW151006   1.509   1.015   7.617 -1.2172  1.9050  0.0611
15867SOL    HW251007   1.380   0.956   7.564 -0.5598  0.3403  0.1746
15868SOL     OW51008   5.253   8.110   4.268  0.1068 -0.2996 -0.2562
15868SOL    HW151009   5.305   8.190   4.268  0.7380 -0.7100 -0.9178
15868SOL    HW251010   5.171   8.135   4.226 -0.2811  0.3719  0.8757
15869SOL     OW51011   0.594   6.229   8.219 -0.2636  0.1471  0.0600
15869SOL    HW151012   0.539   6.284   8.275  0.1838  0.8197 -0.1428
15869SOL    HW251013   0.676   6.220   8.267 -0.8276 -1.5253  0.7249
15870SOL     OW51014   6.787   3.986   4.504  0.3839  0.3277 -0.2563
15870SOL    HW151015   6.793   4.040   4.583 -0.7858  0.7097 -0.4187
15870SOL    HW251016   6.797   4.048   4.432 -0.7400  0.3156 -0.4388
15871SOL     OW51017   7.376   0.556   6.023  0.5122  0.3602 -0.0414
15871SOL    HW151018   7.294   0.562   5.973  1.4600 -2.0212 -2.0256
15871SOL    HW251019   7.387   0.462   6.040  1.3310  0.9384  2.8069
15872SOL     OW51020  10.662   8.993   7.604  0.6658  0.3474  0.0624
15872SOL    HW151021  10.651   8.912   7.654 -0.6886 -0.6552 -1.7626
15872SOL    HW251022  10.653   9.063   7.668 -0.3126 -0.9037  1.3252
15873SOL     OW51023   8.362   0.536   8.874  0.3922 -0.2463 -0.6887
15873SOL    HW151024   8.361   0.442   8.892 -0.9659 -0.1139  0.0037
15873SOL    HW251025   8.449   0.565   8.902  1.0266 -1.3993 -1.4685
15874SOL     OW51026   6.296   5.312   3.981  0.6701 -0.3650 -0.9226
15874SOL    HW151027   6.248   5.382   3.938  0.1353 -0.6041 -0.7183
15874SOL    HW251028   6.378   5.305   3.932  0.6821  0.3333 -1.0028
15875SOL     OW51029  10.604   9.968   6.533  0.1017  0.0280 -0.2554
15875SOL    HW151030  10.602   9.976   6.437 -0.9884  1.5286 -0.1282
15875SOL    HW251031  10.662  10.039   6.562 -2.6037  2.0665  0.3868
15876SOL     OW51032   6.916   7.252   6.457  0.1049 -0.2607 -0.5055
15876SOL    HW151033   6.860   7.226   6.531  2.4561 -1.9396  0.7425
15876SOL    HW251034   6.888   7.341   6.435 -0.9536  0.0792  2.1113
15877SOL     OW51035   4.515   1.832   5.887 -0.5112  0.2844 -0.3548
15877SOL    HW151036   4.448   1.831   5.955 -0.1925  1.6301 -0.0078
15877SOL    HW251037   4.475   1.880   5.814  0.2814  1.5794  0.0658
15878SOL     OW51038   6.661   9.270   9.657  0.1770 -0.6954  0.1181
15878SOL    HW151039   6.596   9.208   9.691 -0.4409 -1.0019 -1.5790
15878SOL    HW251040   6.612   9.322   9.592  1.1197  0.4348  0.2979
15879SOL     OW51041   9.174   2.501   2.796  0.6248 -0.4742 -0.2467
15879SOL    HW151042   9.201   2.584   2.756  1.0445  0.2169  1.4178
15879SOL    HW251043   9.138   2.450   2.723  0.8262  0.9650 -1.3885
15880SOL     OW51044  10.450   7.379  10.418  0.4974  0.2763  0.0304
15880SOL    HW151045  10.503   7.301  10.405 -0.6493 -0.1155 -2.6612
15880SOL    HW251046  10.369   7.345  10.457 -0.3941 -0.0611 -2.0422
15881SOL     OW51047   1.723  10.602   3.629 -0.2556  0.2697  0.6902
15881SOL    HW151048   1.745  10.565   3.543 -0.3813  1.0535  0.3211
15881SOL    HW251049   1.661  10.672   3.610  1.2225  1.7466  1.2429
15882SOL     OW51050   5.272   6.054   8.455 -0.6702  0.1725 -0.1531
15882SOL    HW151051   5.364   6.069   8.435 -1.3415  2.1699 -1.9162
15882SOL    HW251052   5.258   6.100   8.538  0.5487 -2.5671  1.6472
15883SOL     OW51053   2.240   8.891   4.087  0.0491 -0.4067 -0.7036
15883SOL    HW151054   2.311   8.850   4.136 -1.2549  0.1728  1.7539
15883SOL    HW251055   2.181   8.819   4.065 -1.6513 -0.1677  2.6122
15884SOL     OW51056  10.457   4.157   9.290 -0.2230 -0.0955  0.5761
15884SOL    HW151057  10.460   4.063   9.307  1.2262 -0.1749 -0.1466
15884SOL    HW251058  10.365   4.180   9.304 -0.7445 -1.7553 -0.0138
15885SOL     OW51059   8.906   4.176   0.857  0.0434  0.3747  0.3358
15885SOL    HW151060   8.841   4.124   0.811 -1.9316  2.2553  0.8896
15885SOL    HW251061   8.889   4.161   0.949  1.3196 -0.2008  0.4896
15886SOL     OW51062   8.359   5.096   3.854 -0.4341 -0.1077  0.3861
15886SOL    HW151063   8.328   5.009   3.881  1.0284 -0.0132  2.4939
15886SOL    HW251064   8.293   5.156   3.888 -2.0588 -0.4312 -2.0789
15887SOL     OW51065   6.456   3.070   4.916 -0.0555  0.2724 -0.0849
15887SOL    HW151066   6.533   3.124   4.935 -1.3503  1.9448  0.6166
15887SOL    HW251067   6.451   3.067   4.821  0.7062  0.3846 -0.1331
15888SOL     OW51068   3.275   6.456  10.719  1.2131  0.7372  0.2843
15888SOL    HW151069   3.283   6.421  10.630 -0.9538 -0.2826  0.4507
15888SOL    HW251070   3.203   6.518  10.714  0.7987  0.3527  1.4192
15889SOL     OW51071   3.458   3.899   0.462 -0.1730 -0.1733 -0.1484
15889SOL    HW151072   3.420   3.979   0.498 -0.5700 -0.4720  0.0967
15889SOL    HW251073   3.449   3.909   0.368 -0.4664 -0.0510 -0.1083
15890SOL     OW51074   1.784   7.391   8.571 -0.4063  0.0562  0.0758
15890SOL    HW151075   1.809   7.452   8.641 -3.6790  1.4565  0.0977
15890SOL    HW251076   1.728   7.326   8.614 -0.0468 -0.7928 -0.7093
15891SOL     OW51077   2.502   6.287   0.848 -0.6814  0.2738  0.2253
15891SOL    HW151078   2.568   6.223   0.822 -0.2747  1.1209 -0.8474
15891SOL    HW251079   2.420   6.238   0.846 -0.2839 -0.3926  0.0700
15892SOL     OW51080   8.968  10.093   7.374 -0.5321  0.4741  0.0912
15892SOL    HW151081   8.915  10.015   7.393 -0.2938 -0.1235 -1.6931
15892SOL    HW251082   8.909  10.151   7.326 -1.0640  1.9084  2.3892
15893SOL     OW51083   3.106   1.219   3.614  0.9405  0.2812  0.0512
15893SOL    HW151084   3.191   1.248   3.648  1.2183 -1.3495  0.7716
15893SOL    HW251085   3.043   1.277   3.656  1.5422  0.3055  0.9326
15894SOL     OW51086   9.591   7.998   1.339 -0.4070  0.2179 -0.3079
15894SOL    HW151087   9.673   7.949   1.349 -0.6165  0.1515  1.3219
15894SOL    HW251088   9.563   7.980   1.250  0.4512 -1.1928 -0.3120
15895SOL     OW51089   1.775   3.063   2.930 -0.0962  0.2880  0.0905
15895SOL    HW151090   1.831   3.027   2.999  1.3032  0.7727 -0.7813
15895SOL    HW251091   1.728   2.987   2.896  2.1038 -0.5914 -1.0575
15896SOL     OW51092   2.093   9.708   1.044  0.6979  0.1814 -0.3796
15896SOL    HW151093   2.154   9.765   1.091 -0.0949  1.1365 -0.5106
15896SOL    HW251094   2.148   9.662   0.980  1.3273  0.8480 -0.3263
15897SOL     OW51095   7.321   5.436   8.728  0.5197  0.3135 -0.4077
15897SOL    HW151096   7.374   5.483   8.793 -0.3100 -1.0437  1.2826
15897SOL    HW251097   7.232   5.440   8.763  0.1782 -1.0356 -1.1171
15898SOL     OW51098   7.789   8.155   2.108 -0.1175 -0.7096 -0.4604
15898SOL    HW151099   7.707   8.147   2.157  1.1870  0.0206  1.9110
15898SOL    HW251100   7.818   8.245   2.123  1.3796 -1.1147 -0.8378
15899SOL     OW51101   4.828  10.019   8.610 -0.0337 -0.4371  0.1085
15899SOL    HW151102   4.873   9.992   8.529  0.3766  0.2930  0.0943
15899SOL    HW251103   4.898  10.025   8.675 -0.1956  0.1092  0.2357
15900SOL     OW51104  10.782   1.990   2.832  0.5660 -0.1544 -0.3492
15900SOL    HW151105  10.692   1.970   2.859  1.4869  0.2711  3.3367
15900SOL    HW251106  10.778   2.078   2.796 -0.6646 -0.5710 -1.2621
15901SOL     OW51107  10.463   1.012   7.326 -0.5534  0.2726 -0.0764
15901SOL    HW151108  10.409   0.948   7.280 -0.0087 -0.4981  0.3319
15901SOL    HW251109  10.485   1.078   7.261  2.1906 -2.0192 -1.6023
15902SOL     OW51110   0.731   9.916   3.293  0.1153 -0.5815  0.0355
15902SOL    HW151111   0.705   9.873   3.375 -0.3037  0.0390  0.2308
15902SOL    HW251112   0.707  10.007   3.305  1.7918 -0.1066 -0.0461
15903SOL     OW51113   0.690   6.749   4.682  0.2138 -0.3965 -0.6002
15903SOL    HW151114   0.761   6.685   4.672  0.4269 -0.5567  1.6979
15903SOL    HW251115   0.735   6.833   4.684  0.2578 -0.4368  0.0300
15904SOL     OW51116   9.633   2.035   6.907  0.6533  0.0012  0.0193
15904SOL    HW151117   9.717   1.999   6.877  1.1660  0.5587  0.7812
15904SOL    HW251118   9.638   2.128   6.887  0.7257  0.2594  1.2166
15905SOL     OW51119   6.539  10.430   0.808  0.1088 -0.3258 -0.4430
15905SOL    HW151120   6.528  10.429   0.713  0.1582  0.8298 -0.4715
15905SOL    HW251121   6.455  10.462   0.842  1.1423  2.4015 -0.3000
15906SOL     OW51122   9.475   2.707  10.396 -0.2191 -0.1082 -0.2999
15906SOL    HW151123   9.457   2.741  10.484  0.2454 -1.0399  0.1631
15906SOL    HW251124   9.517   2.781  10.351  1.0022 -0.1191  0.7712
15907SOL     OW51125   2.713   4.804   2.662 -0.2760  0.2514 -0.2117
15907SOL    HW151126   2.680   4.720   2.695 -0.0939  0.4882  0.5785
15907SOL    HW251127   2.786   4.780   2.605  1.6031 -0.0053  2.1948
15908SOL     OW51128   3.023   9.858   1.388 -0.0750 -0.2808 -0.2489
15908SOL    HW151129   2.976   9.851   1.304 -1.4524  0.6779  0.4215
15908SOL    HW251130   2.954   9.855   1.454  1.0823 -1.9884  0.9097
15909SOL     OW51131   6.855   4.264   6.616 -0.0019  1.4013  0.3736
15909SOL    HW151132   6.821   4.353   6.627  0.2677  1.3573  1.6755
15909SOL    HW251133   6.781   4.207   6.635 -0.0393  1.3419  0.0488
15910SOL     OW51134   7.078  10.851  10.120 -0.3212  0.3197 -0.3313
15910SOL    HW151135   7.083  10.773  10.064  0.8223 -0.5636  0.9688
15910SOL    HW251136   7.010  10.831  10.184  0.3317  0.1803  0.3181
15911SOL     OW51137   2.970   4.776   0.647  0.1093 -0.2113  0.1428
15911SOL    HW151138   3.021   4.710   0.695  1.3596  1.3451  1.0343
15911SOL    HW251139   3.034   4.820   0.591 -0.3087  1.5038  0.9712
15912SOL     OW51140   3.145   2.056   9.722  0.3410  0.0655 -0.0691
15912SOL    HW151141   3.069   2.004   9.694  0.6052 -1.6609  2.2329
15912SOL    HW251142   3.216   2.027   9.665 -0.2044  0.0430 -0.7412
15913SOL     OW51143   8.977   8.164   4.213 -0.0789 -0.0892 -0.5123
15913SOL    HW151144   9.024   8.208   4.284 -0.7000 -2.1278  1.2412
15913SOL    HW251145   8.906   8.223   4.190  0.4684  0.8534  0.1855
15914SOL     OW51146   7.249   7.909   1.309  0.5271 -0.0369 -0.0130
15914SOL    HW151147   7.319   7.972   1.295  1.7835 -0.8369  2.4587
15914SOL    HW251148   7.174   7.961   1.337  1.1932  0.4921  0.8043
15915SOL     OW51149   1.245   3.851   6.922 -0.2917  0.1165 -0.7016
15915SOL    HW151150   1.289   3.918   6.974 -2.0827  1.3879 -0.7829
15915SOL    HW251151   1.250   3.771   6.975  1.5505  0.3671 -0.4569
15916SOL     OW51152   0.969   8.997   0.507 -0.3363  0.3090  0.4107
15916SOL    HW151153   0.922   9.021   0.426 -1.1379 -0.0066  0.7761
15916SOL    HW251154   0.930   9.054   0.574  0.3471  0.5838  0.5705
15917SOL     OW51155   7.882   6.126   0.951 -0.1623 -0.2276  0.0907
15917SOL    HW151156   7.918   6.123   1.039 -0.3007 -0.5990  0.1369
15917SOL    HW251157   7.941   6.184   0.902 -1.0536  1.3628  0.8644
15918SOL     OW51158   4.140   2.039   5.539  0.3659  0.0651 -0.0010
15918SOL    HW151159   4.218   2.053   5.485  0.6450 -1.2762  0.0463
15918SOL    HW251160   4.171   2.050   5.629 -0.1554  2.5696 -0.0934
15919SOL     OW51161   8.561   7.202   5.495  0.0396 -0.2306  0.6689
15919SOL    HW151162   8.499   7.242   5.433 -0.8628 -2.1390  0.3014
15919SOL    HW251163   8.646   7.217   5.455 -0.4525 -0.5003 -0.5305
15920SOL     OW51164   3.091   6.256  10.527  0.0077  0.4132  0.2490
15920SOL    HW151165   3.048   6.171  10.520 -0.9891  0.8653  0.7922
15920SOL    HW251166   3.164   6.251  10.464 -1.3455 -0.0533 -1.3127
15921SOL     OW51167  10.446   4.620   4.613 -0.7336  0.0902  0.7009
15921SOL    HW151168  10.431   4.623   4.707  1.3937  1.5079  1.0320
15921SOL    HW251169  10.398   4.696   4.579 -1.0164 -0.0801  0.7213
15922SOL     OW51170   2.368   6.603   3.320  0.5446 -0.2551 -0.3410
15922SOL    HW151171   2.278   6.571   3.329 -0.0952  1.4950 -0.4743
15922SOL    HW251172   2.362   6.697   3.337  2.9672 -0.7109  3.5181
15923SOL     OW51173   6.817   4.200   3.627 -0.1215  0.2424  0.4363
15923SOL    HW151174   6.823   4.124   3.569  1.0976  2.3111 -2.2616
15923SOL    HW251175   6.908   4.223   3.645 -0.4891  1.1322  1.1748
15924SOL     OW51176  10.566   8.288  10.757 -0.5494  0.5061 -0.6768
15924SOL    HW151177  10.517   8.351  10.706 -0.7832  1.7678  1.0558
15924SOL    HW251178  10.552   8.314  10.848  1.1398 -0.7168 -0.0296
15925SOL     OW51179   0.058  10.088   5.416 -0.1918  0.3225 -0.7089
15925SOL    HW151180   0.020  10.170   5.448 -2.0689 -0.8581  0.1891
15925SOL    HW251181   0.024  10.021   5.474  1.9973 -1.0264 -0.9253
15926SOL     OW51182  10.626   6.292   2.729  0.7597 -0.2521  0.8489
15926SOL    HW151183  10.598   6.333   2.811  0.9524  2.2256 -0.2956
15926SOL    HW251184  10.621   6.198   2.747 -2.1356  0.1896  2.7200
15927SOL     OW51185   0.876   5.661   6.894  0.2181 -1.0940  0.6289
15927SOL    HW151186   0.885   5.757   6.893  1.4527 -1.2118 -0.2291
15927SOL    HW251187   0.788   5.646   6.930 -0.5738  0.3937 -0.6099
15928SOL     OW51188   4.475   6.323   4.705  0.4333 -0.0189  0.5780
15928SOL    HW151189   4.452   6.412   4.678  1.2919  0.5839  1.7606
15928SOL    HW251190   4.393   6.274   4.702 -0.2341  1.0752  0.8592
15929SOL     OW51191   0.701   2.986   8.137 -0.0877  0.0942  0.4011
15929SOL    HW151192   0.662   3.074   8.136 -0.9843 -0.2913  0.7348
15929SOL    HW251193   0.787   2.999   8.177 -1.2860  0.4173  3.0026
15930SOL     OW51194   2.272   5.774   8.311  0.0795 -0.3320 -0.0006
15930SOL    HW151195   2.246   5.837   8.378 -0.9573  0.8529 -1.4709
15930SOL    HW251196   2.360   5.745   8.337  0.5581  1.7041  0.6998
15931SOL     OW51197   1.994   6.352   1.643  0.3292 -0.4215  0.6260
15931SOL    HW151198   2.085   6.340   1.617  0.2264  2.0737 -0.9266
15931SOL    HW251199   1.996   6.345   1.739  2.1635 -0.1628  0.6231
15932SOL     OW51200  10.340   4.336   6.460 -0.2499 -0.3294 -0.6128
15932SOL    HW151201  10.313   4.352   6.370  1.1884 -1.1916 -1.2132
15932SOL    HW251202  10.429   4.370   6.466 -0.3545 -0.2090  0.5093
15933SOL     OW51203   3.393   0.265   5.528  0.3416  0.3395  0.4775
15933SOL    HW151204   3.444   0.214   5.466  0.2849  2.4044 -1.3326
15933SOL    HW251205   3.445   0.344   5.543 -0.5903  0.7824  1.4988
15934SOL     OW51206   4.052  10.299   5.717 -0.1425  0.5578 -0.0749
15934SOL    HW151207   4.106  10.313   5.795  0.2965 -1.0435 -0.0645
15934SOL    HW251208   4.055  10.382   5.671  1.8685  0.7028  0.2463
15935SOL     OW51209   3.895   1.021   2.734 -0.9058  0.1928  0.6867
15935SOL    HW151210   3.986   1.049   2.728 -0.5005 -0.9755  1.2136
15935SOL    HW251211   3.900   0.927   2.753 -2.2226 -0.0104  0.0820
15936SOL     OW51212   7.299   7.518   1.497  0.3629 -0.0207 -0.1398
15936SOL    HW151213   7.272   7.553   1.412 -0.0679  1.1945  0.4920
15936SOL    HW251214   7.218   7.503   1.544  0.6212 -0.2332  0.2373
15937SOL     OW51215   1.763   3.651   8.565 -0.4057  0.4124 -0.1484
15937SOL    HW151216   1.730   3.605   8.488 -1.4262 -2.5495  1.9732
15937SOL    HW251217   1.853   3.619   8.575 -0.0935  1.1940 -0.3683
15938SOL     OW51218   9.888   0.636   1.632 -0.3680 -0.0071  0.6131
15938SOL    HW151219   9.922   0.701   1.694 -0.6463  1.2481 -0.5131
15938SOL    HW251220   9.946   0.642   1.557 -0.4212 -1.0638  0.4811
15939SOL     OW51221   1.200   6.864   1.043  0.0635 -0.7937 -0.4681
15939SOL    HW151222   1.144   6.878   0.966  0.8249  0.8264 -0.7491
15939SOL    HW251223   1.143   6.884   1.117  0.1342  0.4183 -0.7337
15940SOL     OW51224   1.586   5.431   4.169 -0.6142  0.0071 -0.3477
15940SOL    HW151225   1.576   5.384   4.087 -1.6788 -0.0466 -0.1916
15940SOL    HW251226   1.522   5.502   4.165  0.6156  1.1323 -0.3566
15941SOL     OW51227   0.106   3.088   4.455  0.2260 -0.2202  0.4627
15941SOL    HW151228   0.180   3.029   4.438 -0.5889 -1.3415  0.7697
15941SOL    HW251229   0.052   3.082   4.376  0.9222  1.3151 -0.1548
15942SOL     OW51230   4.686  10.204   5.309 -0.4868  0.0772 -0.0173
15942SOL    HW151231   4.639  10.279   5.273 -0.6678  0.3082  0.6921
15942SOL    HW251232   4.775  10.236   5.325 -0.6201  0.1992  0.4785
15943SOL     OW51233   0.956  10.979   2.120  0.0137  0.3494  0.0365
15943SOL    HW151234   0.922  10.889   2.118 -0.3616  0.4671  0.9656
15943SOL    HW251235   1.042  10.972   2.079  0.5847 -0.7069  1.3556
15944SOL     OW51236   9.204   8.016   6.987 -0.0026 -0.4582  0.3941
15944SOL    HW151237   9.213   8.110   6.974 -1.5085 -0.2961  0.3806
15944SOL    HW251238   9.222   7.978   6.901 -0.7293 -0.0686  0.0622
15945SOL     OW51239   2.987   1.297   6.429  0.2628  0.5474 -0.3662
15945SOL    HW151240   2.986   1.204   6.450  0.7809  0.2415 -1.7017
15945SOL    HW251241   3.002   1.340   6.513 -0.6156 -0.5325  0.3661
15946SOL     OW51242   1.273   5.233   1.037  0.0121  0.7666 -0.3899
15946SOL    HW151243   1.192   5.280   1.015  0.0670  1.2880  0.4983
15946SOL    HW251244   1.328   5.243   0.959 -0.8627  0.2236 -1.0826
15947SOL     OW51245   2.743   5.550   9.177  0.1657  0.3939 -0.3635
15947SOL    HW151246   2.805   5.477   9.186  0.6995  0.8646 -0.2312
15947SOL    HW251247   2.797   5.629   9.182 -0.1113  0.7731 -2.8374
15948SOL     OW51248   6.131   8.184   7.736 -0.3096  0.0388  0.2806
15948SOL    HW151249   6.149   8.278   7.731 -0.5916  0.0741 -0.1788
15948SOL    HW251250   6.123   8.157   7.644 -1.9375 -0.0937  0.4498
15949SOL     OW51251   3.286   1.799   7.135 -0.1072 -0.0836 -0.2619
15949SOL    HW151252   3.317   1.762   7.052 -0.9669 -1.4010 -0.0126
15949SOL    HW251253   3.225   1.868   7.109  2.2713  1.8947 -0.7455
15950SOL     OW51254   3.783   3.535   6.658  0.0971 -0.3896 -0.4349
15950SOL    HW151255   3.768   3.609   6.717  0.0295  0.8162 -1.9359
15950SOL    HW251256   3.862   3.559   6.610 -0.3589 -0.9480 -1.4771
15951SOL     OW51257   9.954   1.668  10.636 -0.3353  0.3269 -0.0282
15951SOL    HW151258   9.949   1.733  10.706  0.2040  1.2099 -0.7958
15951SOL    HW251259  10.004   1.596  10.674  2.6575  2.0934 -0.4502
15952SOL     OW51260   6.875   8.363   0.959  0.0023  0.2013  0.3050
15952SOL    HW151261   6.951   8.404   1.000 -0.4063  1.4007 -0.1023
15952SOL    HW251262   6.885   8.381   0.866 -0.0093 -0.9329  0.0800
15953SOL     OW51263  10.161   1.710   5.958 -0.2451 -0.2677 -0.2983
15953SOL    HW151264  10.140   1.629   5.911 -0.9868  0.7168 -1.7038
15953SOL    HW251265  10.076   1.751   5.974 -0.0259 -0.7219  2.2020
15954SOL     OW51266   2.352   4.799   2.517 -0.2435  0.7749  0.3720
15954SOL    HW151267   2.394   4.725   2.561 -1.5977  0.0934  0.5263
15954SOL    HW251268   2.342   4.772   2.426 -1.7946  0.2991  0.6738
15955SOL     OW51269   2.536   5.897   7.803  0.2230  0.2591  0.3821
15955SOL    HW151270   2.607   5.853   7.850  0.7581 -0.9249 -1.4995
15955SOL    HW251271   2.570   5.908   7.714 -1.8233 -0.0484 -0.4526
15956SOL     OW51272   2.236   4.517   8.019  0.2993  0.3967  0.3714
15956SOL    HW151273   2.176   4.574   7.970 -0.3590  0.0882  0.8126
15956SOL    HW251274   2.323   4.544   7.991 -0.0683  0.1769 -1.0435
15957SOL     OW51275   9.986   2.361   1.321 -0.3675  0.1460 -0.7401
15957SOL    HW151276  10.012   2.333   1.234  1.2952 -0.0198 -0.1959
15957SOL    HW251277  10.050   2.321   1.380 -0.6437  1.4068  0.4403
15958SOL     OW51278   9.756   9.820   5.461  0.3093  0.4542  0.1602
15958SOL    HW151279   9.724   9.899   5.505 -0.1905  0.8937 -0.9770
15958SOL    HW251280   9.770   9.757   5.532 -0.3653  1.1941  0.9600
15959SOL     OW51281   3.205   2.407   2.036  0.0514 -0.2991 -0.1421
15959SOL    HW151282   3.200   2.502   2.026  2.0113  0.0089  1.3849
15959SOL    HW251283   3.234   2.375   1.950  0.0858  0.5393 -0.4456
15960SOL     OW51284   0.184  10.329   1.885  0.1371 -0.3427  0.0325
15960SOL    HW151285   0.235  10.370   1.815 -1.3015  0.3612 -0.6180
15960SOL    HW251286   0.125  10.398   1.915  0.6311 -0.6765  1.8522
15961SOL     OW51287   6.604   9.799   1.667  0.3037 -0.0525 -0.3085
15961SOL    HW151288   6.537   9.795   1.599 -0.3602 -0.2217  0.3373
15961SOL    HW251289   6.651   9.716   1.661 -0.5448 -0.5831  0.2174
15962SOL     OW51290   0.699   0.625   4.024  0.2584  0.3100 -0.1321
15962SOL    HW151291   0.645   0.705   4.028 -0.6818 -0.1208 -2.9119
15962SOL    HW251292   0.648   0.560   4.072 -1.6212 -0.0010 -2.4595
15963SOL     OW51293   2.250   2.098   0.177  0.2113 -0.2967 -0.5558
15963SOL    HW151294   2.155   2.092   0.174  0.1538  0.6845 -0.7898
15963SOL    HW251295   2.269   2.190   0.161  1.1355 -0.1597  1.2032
15964SOL     OW51296   8.216   8.263   9.482 -0.2125  0.2670  0.0618
15964SOL    HW151297   8.164   8.241   9.404 -0.3110 -0.3608  0.3047
15964SOL    HW251298   8.153   8.304   9.541 -1.2460 -3.5727  1.7546
15965SOL     OW51299   9.591  10.270   7.848 -0.3608 -0.4451  0.3805
15965SOL    HW151300   9.661  10.210   7.875 -1.2704 -1.4763  0.4829
15965SOL    HW251301   9.636  10.339   7.800  0.6659 -1.4027 -0.0543
15966SOL     OW51302   1.574   7.764   5.235  0.0139 -0.1822 -0.2058
15966SOL    HW151303   1.514   7.758   5.309 -0.5172 -0.3756 -0.6501
15966SOL    HW251304   1.634   7.834   5.259  0.5628 -1.0275  0.9235
15967SOL     OW51305   7.647   1.319   9.491 -0.1825  0.6801 -0.1803
15967SOL    HW151306   7.734   1.307   9.529 -0.7792 -0.5256  0.8375
15967SOL    HW251307   7.621   1.232   9.460 -0.4690  1.2912 -1.7227
15968SOL     OW51308   0.756   7.304   7.859  0.2915 -0.0761 -0.5027
15968SOL    HW151309   0.744   7.344   7.946 -0.2351  1.0777 -1.0952
15968SOL    HW251310   0.667   7.299   7.822  0.4851 -0.7779 -0.8946
15969SOL     OW51311   0.664   0.746   8.482 -0.7438  0.0306 -0.0129
15969SOL    HW151312   0.663   0.744   8.578 -1.2117  1.7044  0.0341
15969SOL    HW251313   0.755   0.730   8.458 -0.8216 -1.6085  0.6493
15970SOL     OW51314   1.238   2.949   8.216  0.2910 -0.3146 -0.1515
15970SOL    HW151315   1.321   2.916   8.249  0.2785  0.1504  0.3590
15970SOL    HW251316   1.247   2.947   8.121  0.5984 -0.9877 -0.1088
15971SOL     OW51317   9.861   8.233   2.707  0.7224 -0.2168 -0.2625
15971SOL    HW151318   9.929   8.227   2.774 -0.4089 -0.5209  0.8697
15971SOL    HW251319   9.838   8.326   2.705  1.9547  0.0701 -1.4430
15972SOL     OW51320   9.850   9.226   4.942  0.2994  0.6242 -0.2839
15972SOL    HW151321   9.900   9.160   4.895  0.3992  0.5201 -0.0314
15972SOL    HW251322   9.777   9.178   4.982  0.0213  0.7679 -0.6142
15973SOL     OW51323   1.938   4.433   3.781  0.7356  0.0598 -0.2743
15973SOL    HW151324   2.008   4.498   3.783  0.2903  0.5886 -1.5499
15973SOL    HW251325   1.950   4.388   3.697 -0.0284 -0.3307 -0.1755
15974SOL     OW51326   6.691   3.876   5.832 -0.0406  0.2469  0.1247
15974SOL    HW151327   6.652   3.901   5.748  0.5333  0.3572 -0.1080
15974SOL    HW251328   6.659   3.941   5.894 -2.5389 -1.2929  0.5175
15975SOL     OW51329   9.716   7.809   5.520  0.4172 -0.4284 -0.0459
15975SOL    HW151330   9.734   7.898   5.551 -1.4095  0.2309 -0.7842
15975SOL    HW251331   9.712   7.818   5.424  3.0016 -1.8561 -0.3312
15976SOL     OW51332   6.451   6.968   7.223 -0.2562  0.1116  0.1612
15976SOL    HW151333   6.458   7.063   7.234 -0.5243 -0.0005  1.2900
15976SOL    HW251334   6.530   6.945   7.174  0.3765  0.7701  0.8403
15977SOL     OW51335   6.802   5.253   1.744  0.6705 -0.1295 -0.1813
15977SOL    HW151336   6.829   5.163   1.727  1.3611  0.0631 -0.0863
15977SOL    HW251337   6.843   5.275   1.827 -1.5745 -0.5911  1.0794
15978SOL     OW51338   1.348   9.130   8.815  0.0676  0.0693  0.5266
15978SOL    HW151339   1.426   9.092   8.855  0.2885  1.2256  1.2280
15978SOL    HW251340   1.365   9.125   8.721  1.1773  0.6770  0.6785
15979SOL     OW51341  10.835   3.666   9.934 -0.3658  0.1425 -0.2351
15979SOL    HW151342  10.891   3.647  10.010  1.4285 -1.7130 -1.9589
15979SOL    HW251343  10.836   3.762   9.927  2.2664  0.1639  0.0228
15980SOL     OW51344   7.510   1.054   8.479 -0.0763  0.3460  0.2452
15980SOL    HW151345   7.503   0.986   8.412  0.1860  0.5745 -0.0148
15980SOL    HW251346   7.600   1.087   8.470  0.2608 -0.2629  1.3251
15981SOL     OW51347  10.502   7.614   6.139  0.2364 -0.2327  0.3795
15981SOL    HW151348  10.443   7.662   6.080 -0.8457  1.5740  2.8563
15981SOL    HW251349  10.447   7.546   6.178  0.2706  0.2319  1.2427
15982SOL     OW51350   3.967   9.639   4.124 -0.3216  1.0972  0.0191
15982SOL    HW151351   3.994   9.593   4.045 -0.4058 -0.8312  1.0950
15982SOL    HW251352   4.044   9.688   4.151  0.6878 -0.7506  0.5181
15983SOL     OW51353   2.263   5.411   5.470  0.2648  0.0577 -0.3498
15983SOL    HW151354   2.311   5.394   5.551 -2.5701  0.5968  1.5436
15983SOL    HW251355   2.250   5.324   5.432  1.2505 -0.2516  0.0029
15984SOL     OW51356   2.569   4.841   0.040  0.1721  0.3975 -0.1893
15984SOL    HW151357   2.533   4.816  -0.045  0.4898 -0.3154 -0.1128
15984SOL    HW251358   2.597   4.932   0.028  1.3780 -0.0953 -1.2314
15985SOL     OW51359   5.846  10.861   9.108  0.0913  0.0103 -0.7609
15985SOL    HW151360   5.849  10.787   9.168 -0.4549  0.3256 -0.3488
15985SOL    HW251361   5.870  10.936   9.161  0.1786  0.2028 -1.0711
15986SOL     OW51362   4.082   2.841   1.126  0.5847  0.4186 -0.1880
15986SOL    HW151363   4.032   2.767   1.092  0.8728  1.3739 -2.8081
15986SOL    HW251364   4.138   2.804   1.194 -0.5613 -1.4268 -0.2281
15987SOL     OW51365   1.457   9.395   1.750  0.0197 -0.4553 -0.0307
15987SOL    HW151366   1.456   9.411   1.844  1.2803 -2.9679  0.4447
15987SOL    HW251367   1.432   9.479   1.711  0.3654  0.8648  2.4979
15988SOL     OW51368   6.589   0.833   7.974 -0.6538  0.1619  0.0254
15988SOL    HW151369   6.648   0.798   8.041 -1.9467  2.4660  2.4998
15988SOL    HW251370   6.503   0.836   8.018 -1.4059  2.3480 -1.5214
15989SOL     OW51371   4.472   0.873   1.989  0.2044  0.3443 -0.3499
15989SOL    HW151372   4.387   0.849   2.026  0.7571 -0.7051  0.2769
15989SOL    HW251373   4.491   0.803   1.926  1.4070 -0.3963  0.8039
15990SOL     OW51374   7.144   9.067   5.070  0.5196 -0.0977 -0.2557
15990SOL    HW151375   7.180   9.005   5.006  0.4034  0.3035 -0.7197
15990SOL    HW251376   7.088   9.125   5.018  0.1902  0.0513  0.2638
15991SOL     OW51377   9.563   4.634   8.338 -0.4079 -0.2486 -0.3186
15991SOL    HW151378   9.496   4.569   8.316  0.5718 -1.4805  0.2603
15991SOL    HW251379   9.525   4.685   8.409 -1.6389  0.5767 -1.5438
15992SOL     OW51380   5.798   0.938   9.598  0.0202 -0.4685 -1.0682
15992SOL    HW151381   5.821   0.846   9.611  0.6289  0.1883  3.1492
15992SOL    HW251382   5.879   0.980   9.570  0.3319 -0.7870 -0.6420
15993SOL     OW51383   1.572  10.134   7.232  0.9317  0.3908  0.3981
15993SOL    HW151384   1.545  10.094   7.150  1.0009 -0.2344  0.6782
15993SOL    HW251385   1.558  10.066   7.298 -1.4195  1.6813  1.2862
15994SOL     OW51386   4.962   5.854   8.316 -0.1142 -0.4887  0.5857
15994SOL    HW151387   4.960   5.945   8.347 -0.4937 -0.1231 -0.5015
15994SOL    HW251388   5.055   5.831   8.316  0.2620  0.8759 -1.8897
15995SOL     OW51389   1.677   0.487   4.144 -0.3028  0.3556  0.0227
15995SOL    HW151390   1.629   0.447   4.216 -0.4378  0.8797  0.2252
15995SOL    HW251391   1.749   0.427   4.127  0.3924  0.8022  1.3502
15996SOL     OW51392   4.882   6.430   2.951 -0.1293  0.2323  0.0300
15996SOL    HW151393   4.855   6.482   2.875 -0.1166 -0.5958 -0.5412
15996SOL    HW251394   4.833   6.348   2.943 -1.7598  0.9692  2.0664
15997SOL     OW51395   6.671   6.389   5.354  0.4447  0.3180  0.7062
15997SOL    HW151396   6.715   6.362   5.274  0.8414 -0.4096  1.1541
15997SOL    HW251397   6.596   6.329   5.362 -1.2061  2.1784 -0.5583
15998SOL     OW51398   1.441   4.551   1.846 -0.0590 -0.3464 -0.0242
15998SOL    HW151399   1.350   4.577   1.862  0.7240  2.0624  0.7532
15998SOL    HW251400   1.458   4.577   1.756  0.8594  2.3399  0.8921
15999SOL     OW51401  10.221   7.743   4.700 -0.2093  0.6227  0.4537
15999SOL    HW151402  10.135   7.761   4.660  0.4746  2.1414 -0.3805
15999SOL    HW251403  10.258   7.673   4.647 -0.7991  0.1771  0.6234
16000SOL     OW51404   8.046   6.005   7.782 -0.0782  0.7532 -0.4157
16000SOL    HW151405   8.087   5.929   7.742 -1.1156  0.4146 -0.8525
16000SOL    HW251406   8.041   6.070   7.712 -1.9670  0.1332 -0.8869
16001SOL     OW51407   2.585  10.056   4.892 -0.2798 -0.0641  0.2755
16001SOL    HW151408   2.604  10.043   4.799 -1.2361  0.2240  0.0351
16001SOL    HW251409   2.545  10.143   4.896  1.7162  0.8337  1.2426
16002SOL     OW51410   2.784   0.727  10.352 -0.7810 -0.3437  0.0274
16002SOL    HW151411   2.845   0.662  10.389 -1.0254 -0.0672  0.9372
16002SOL    HW251412   2.703   0.714  10.401 -1.3196 -0.4098 -0.8803
16003SOL     OW51413   7.466   4.599   6.354 -0.3139 -0.1403 -0.6858
16003SOL    HW151414   7.448   4.543   6.278 -1.5879 -1.5803  0.6255
16003SOL    HW251415   7.384   4.646   6.370  0.0913  0.5100 -0.5003
16004SOL     OW51416   6.487   6.248   4.868 -0.0979  0.1961  0.0794
16004SOL    HW151417   6.540   6.202   4.803 -0.8246 -0.2108 -0.2279
16004SOL    HW251418   6.430   6.304   4.817  0.0382  0.6374  0.4123
16005SOL     OW51419   4.345   2.225   1.239  0.5238  0.2860 -0.4999
16005SOL    HW151420   4.404   2.150   1.230  0.0949 -0.1602  0.3047
16005SOL    HW251421   4.334   2.235   1.334 -0.1571  0.7837 -0.6291
16006SOL     OW51422   6.995   6.336   9.535 -0.2161 -0.7555  0.6727
16006SOL    HW151423   7.059   6.357   9.603 -1.2417  0.2180  1.3634
16006SOL    HW251424   7.000   6.409   9.473  0.0307 -1.1653  0.2023
16007SOL     OW51425   3.690   5.049  10.242 -0.2753  0.2197  0.1836
16007SOL    HW151426   3.625   4.980  10.254 -0.8292  0.6212 -0.4962
16007SOL    HW251427   3.644   5.117  10.194  1.0534 -0.1038 -1.6073
16008SOL     OW51428   9.847   4.082   3.136  0.4347 -0.5432 -0.0281
16008SOL    HW151429   9.872   4.174   3.136  0.6445 -0.5950  1.8802
16008SOL    HW251430   9.752   4.082   3.150  0.4374 -0.6292 -0.0120
16009SOL     OW51431   3.912   4.601   7.646 -0.0757  0.4625  0.2898
16009SOL    HW151432   3.845   4.570   7.585 -0.4639  0.5614  0.6601
16009SOL    HW251433   3.864   4.654   7.710  0.3222  0.3553  0.6837
16010SOL     OW51434   7.803   4.704   9.645 -0.4694  0.1482  0.0310
16010SOL    HW151435   7.730   4.694   9.585 -1.0703  1.5080  0.5320
16010SOL    HW251436   7.763   4.706   9.732  0.0280  2.1402  0.2343
16011SOL     OW51437   3.317   3.016   6.308 -0.0350  0.4684 -0.3433
16011SOL    HW151438   3.361   2.988   6.389  1.5098  0.5131 -1.1367
16011SOL    HW251439   3.290   2.935   6.266  0.1408  0.3922 -0.3099
16012SOL     OW51440   2.814   2.964   4.828 -0.1373  0.7414 -0.0712
16012SOL    HW151441   2.782   2.883   4.788 -1.5549  1.3712 -0.2656
16012SOL    HW251442   2.908   2.951   4.838 -0.3913 -1.0610  0.1910
16013SOL     OW51443   2.289   3.489   4.573  0.1863  0.0632 -0.2692
16013SOL    HW151444   2.323   3.445   4.495  0.7764  0.7720 -0.4188
16013SOL    HW251445   2.366   3.504   4.627 -0.5497 -2.8150  1.6879
16014SOL     OW51446   3.029   2.055   7.478 -0.1675  0.2392  0.6772
16014SOL    HW151447   2.949   2.083   7.523 -0.7259 -0.6476  0.2646
16014SOL    HW251448   3.051   1.972   7.520  0.0507  0.0587  0.2093
16015SOL     OW51449   8.044   3.799   0.076 -0.1906 -0.6201 -0.2538
16015SOL    HW151450   8.119   3.856   0.062  0.3012 -1.1603  0.1811
16015SOL    HW251451   8.009   3.785  -0.012 -0.9496  1.1936 -0.2686
16016SOL     OW51452   5.514   9.499   5.767 -0.0011 -0.2503 -0.4809
16016SOL    HW151453   5.486   9.476   5.678 -0.2589 -2.0985  0.0680
16016SOL    HW251454   5.450   9.564   5.796 -1.1527 -1.1956 -0.8701
16017SOL     OW51455   1.695   0.345   2.574 -0.2603 -0.3476 -0.0630
16017SOL    HW151456   1.683   0.297   2.491 -0.6556 -1.0049  0.3651
16017SOL    HW251457   1.634   0.302   2.634 -1.0612  1.1022  0.1690
16018SOL     OW51458   5.483   8.035   3.752 -0.3483 -0.1592 -0.1450
16018SOL    HW151459   5.544   8.101   3.720  0.8177 -1.2639 -0.2768
16018SOL    HW251460   5.526   7.998   3.829 -1.9753  0.7257  1.1895
16019SOL     OW51461  10.036   9.239   1.519  0.1861  0.2286  0.5856
16019SOL    HW151462   9.952   9.248   1.474  0.1587  3.5846  1.2338
16019SOL    HW251463  10.064   9.328   1.538  2.7656 -0.9147  2.5415
16020SOL     OW51464   6.663   8.831   5.396 -0.0978  0.4105  0.4873
16020SOL    HW151465   6.715   8.854   5.474  1.1111 -2.6441  0.6453
16020SOL    HW251466   6.631   8.743   5.414 -3.0660  1.1755 -0.8459
16021SOL     OW51467   5.804   5.111   8.899 -0.0628  0.1077  0.0967
16021SOL    HW151468   5.725   5.057   8.902  0.7249 -1.1124 -0.6078
16021SOL    HW251469   5.804   5.159   8.982 -0.6234 -1.2170  0.8765
16022SOL     OW51470   4.409   2.290   0.320  0.4993 -0.2664 -0.3309
16022SOL    HW151471   4.416   2.308   0.414  1.6937 -0.6172 -0.3419
16022SOL    HW251472   4.420   2.195   0.313 -1.8408 -0.5484 -0.6271
16023SOL     OW51473   8.492   3.144   5.880  0.1403 -0.0065 -0.0487
16023SOL    HW151474   8.471   3.091   5.804  0.8207 -0.1643 -0.1351
16023SOL    HW251475   8.410   3.187   5.904 -0.2288 -0.4868 -0.4554
16024SOL     OW51476   6.998   2.868   4.743  0.3292  0.1337 -0.7141
16024SOL    HW151477   6.908   2.838   4.753  0.2609  0.8115  0.8479
16024SOL    HW251478   7.051   2.788   4.746 -0.0656 -0.0904  0.6043
16025SOL     OW51479   2.631  10.826   0.665 -0.2021 -0.4718 -0.0349
16025SOL    HW151480   2.635  10.743   0.713  0.6520 -1.1976 -1.3321
16025SOL    HW251481   2.566  10.810   0.596 -1.9057  0.7739  1.2265
16026SOL     OW51482   2.486   6.052   9.815 -0.2459 -0.4676 -1.0346
16026SOL    HW151483   2.436   5.998   9.755 -0.7687 -1.1834  0.0375
16026SOL    HW251484   2.421   6.095   9.870  0.2881 -1.1689  0.1666
16027SOL     OW51485   4.679   1.159   4.633 -0.2478  0.0664 -0.1658
16027SOL    HW151486   4.635   1.086   4.590 -0.8532  0.9089 -1.0112
16027SOL    HW251487   4.752   1.181   4.575 -0.4629  0.5585 -0.2504
16028SOL     OW51488   9.365   8.695  10.428  0.5056 -0.0785  0.1207
16028SOL    HW151489   9.334   8.624  10.371  1.3040  0.3343 -0.8394
16028SOL    HW251490   9.342   8.775  10.382 -0.3688  0.3014  1.1941
16029SOL     OW51491  10.182   8.212   0.382 -0.1551  0.7928 -0.4961
16029SOL    HW151492  10.120   8.285   0.381 -2.2361 -0.9223  0.7043
16029SOL    HW251493  10.257   8.246   0.431 -2.4683  1.1544  3.0377
16030SOL     OW51494   3.234  10.879   0.736 -0.8742 -0.2223  0.0310
16030SOL    HW151495   3.289  10.949   0.771 -0.2391 -1.6059  1.8789
16030SOL    HW251496   3.262  10.868   0.646  0.4963  0.4592  0.3756
16031SOL     OW51497   5.706   7.136  10.538  0.1516 -0.1261 -0.2388
16031SOL    HW151498   5.672   7.086  10.464 -2.5341 -0.1618  0.9586
16031SOL    HW251499   5.765   7.201  10.498 -0.4257 -0.8275 -2.2827
16032SOL     OW51500   6.083   6.783   0.942 -0.3608 -0.4750 -0.1875
16032SOL    HW151501   6.172   6.765   0.913  0.5772  1.4724  1.4153
16032SOL    HW251502   6.048   6.842   0.875  0.2021  0.2322  0.1279
16033SOL     OW51503   3.909   3.649  10.754 -0.1427  0.3265 -0.5028
16033SOL    HW151504   3.941   3.605  10.833  0.3899 -0.5885 -1.2282
16033SOL    HW251505   3.987   3.669  10.703 -0.5812 -0.3405 -1.4530
16034SOL     OW51506   0.241  10.059   0.024  0.3038 -0.4266  0.5416
16034SOL    HW151507   0.288  10.111   0.089  5.0676 -2.0989 -1.3443
16034SOL    HW251508   0.234   9.972   0.063 -1.2098 -0.2231  0.7549
16035SOL     OW51509   7.231   9.334   4.917 -0.2261  0.3513 -0.1566
16035SOL    HW151510   7.301   9.292   4.967 -0.1391 -0.0297 -0.5935
16035SOL    HW251511   7.210   9.272   4.847 -0.2682  0.9293 -0.6639
16036SOL     OW51512   9.098   8.954   9.717  0.7392 -0.0023 -0.2113
16036SOL    HW151513   9.007   8.964   9.689  0.2256 -0.5368  1.2368
16036SOL    HW251514   9.150   8.990   9.644 -0.6517  1.1709 -0.6357
16037SOL     OW51515   4.207  10.303  10.237 -0.0926  0.1286  0.0800
16037SOL    HW151516   4.256  10.221  10.227 -0.2709 -0.1663  1.5226
16037SOL    HW251517   4.261  10.369  10.193  1.3562 -0.2867  1.2038
16038SOL     OW51518   9.939   3.443   3.913  0.9601  0.3380 -0.3508
16038SOL    HW151519   9.987   3.462   3.832 -0.7901 -0.6495 -1.6580
16038SOL    HW251520   9.847   3.445   3.887  0.4641 -2.9917  0.9375
16039SOL     OW51521   0.386   1.415   2.526 -0.0491  0.1743 -0.1465
16039SOL    HW151522   0.376   1.364   2.445 -1.7841  0.1739  0.0346
16039SOL    HW251523   0.368   1.352   2.596  0.6883  0.3607  0.2157
16040SOL     OW51524   0.776   3.525   6.593 -0.5358 -0.2307  0.0124
16040SOL    HW151525   0.778   3.463   6.520  0.4305  0.0990 -0.2427
16040SOL    HW251526   0.735   3.604   6.556 -0.3433 -0.1774 -0.0896
16041SOL     OW51527   1.459   5.675   1.575 -0.5030 -0.2779 -0.5262
16041SOL    HW151528   1.523   5.689   1.506 -0.7878 -0.6873 -0.8737
16041SOL    HW251529   1.457   5.757   1.623  0.5314 -0.3717 -0.3087
16042SOL     OW51530   4.029   2.534   3.085  0.1092 -0.3688  0.7796
16042SOL    HW151531   3.958   2.597   3.077  0.8121  0.3290  0.0228
16042SOL    HW251532   4.019   2.499   3.174 -0.7037  0.2910  0.9572
16043SOL     OW51533   4.158   7.158   5.577 -0.0065 -0.0354 -0.6916
16043SOL    HW151534   4.194   7.106   5.506  0.4016 -0.0417 -0.4842
16043SOL    HW251535   4.066   7.130   5.583 -0.4376  1.0197 -2.1617
16044SOL     OW51536   8.605   6.447   5.946 -0.4368 -0.2323 -0.3505
16044SOL    HW151537   8.526   6.486   5.983  0.3303  2.0986 -1.0754
16044SOL    HW251538   8.655   6.417   6.022 -0.2441  1.8106  0.3616
16045SOL     OW51539   0.982   4.169   0.451  0.2122 -0.7676 -0.0576
16045SOL    HW151540   0.931   4.183   0.371  0.9598 -1.2654 -0.6255
16045SOL    HW251541   0.955   4.082   0.481 -0.9880 -0.0811  0.9268
16046SOL     OW51542   8.095   5.774  10.615 -0.7722 -0.6804 -0.4455
16046SOL    HW151543   8.151   5.697  10.618 -1.9676 -1.5672 -0.7263
16046SOL    HW251544   8.141   5.839  10.668 -0.0415 -1.7673  0.2705
16047SOL     OW51545   9.106   1.977   5.891 -0.5954  0.3751  0.4269
16047SOL    HW151546   9.112   1.925   5.811 -0.4046  0.0316  0.6607
16047SOL    HW251547   9.089   2.066   5.861 -0.7768  0.2044  0.0156
16048SOL     OW51548   8.554   6.288   1.489  0.1748 -0.0017 -0.0835
16048SOL    HW151549   8.571   6.353   1.558 -0.2702  0.7989 -0.7256
16048SOL    HW251550   8.609   6.315   1.416 -0.6612  0.1640 -0.6632
16049SOL     OW51551   2.260   9.006   9.750 -0.3277  0.0959 -0.1458
16049SOL    HW151552   2.344   9.007   9.704 -0.2630 -1.9847 -0.1308
16049SOL    HW251553   2.195   8.991   9.682 -0.6780  1.4544 -0.1242
16050SOL     OW51554   7.219   5.426   6.228  0.1917  0.1223  0.0825
16050SOL    HW151555   7.305   5.407   6.192 -0.4516 -1.0804 -0.8489
16050SOL    HW251556   7.228   5.407   6.322  0.5229 -1.5452 -0.2629
16051SOL     OW51557   5.496   0.182   3.315 -0.5666 -0.1835  0.1566
16051SOL    HW151558   5.446   0.190   3.396  0.3767 -1.7902  0.9194
16051SOL    HW251559   5.559   0.112   3.333  0.4270  0.2541 -1.5648
16052SOL     OW51560   9.408   8.673   5.455  0.0388  0.1657  0.2712
16052SOL    HW151561   9.412   8.588   5.499 -0.7280  0.8758  1.7434
16052SOL    HW251562   9.484   8.672   5.396  0.5599 -1.1787  0.9250
16053SOL     OW51563   8.202   8.869   0.848  0.3062 -0.1086 -0.4021
16053SOL    HW151564   8.109   8.884   0.832 -0.4383 -3.4803  0.3957
16053SOL    HW251565   8.215   8.775   0.832  3.8277  0.5030 -1.6299
16054SOL     OW51566  10.259   8.104   1.069 -0.4291 -0.2656 -0.4100
16054SOL    HW151567  10.200   8.173   1.040 -0.9250 -0.2205  0.6791
16054SOL    HW251568  10.334   8.151   1.105  0.7596 -0.3235 -2.7116
16055SOL     OW51569   8.323   1.545   7.129  0.4958  0.8157  0.2286
16055SOL    HW151570   8.234   1.579   7.132 -0.0593 -0.6975  1.6568
16055SOL    HW251571   8.379   1.623   7.124 -0.9111  1.7450 -1.2729
16056SOL     OW51572   2.389   5.367   6.882  0.0605 -0.6664 -0.0697
16056SOL    HW151573   2.456   5.299   6.886  0.3485 -0.4724 -1.2690
16056SOL    HW251574   2.343   5.350   6.800  0.9124  1.2942 -1.0008
16057SOL     OW51575   0.876   6.357   9.425 -0.4236 -0.0466  0.4908
16057SOL    HW151576   0.943   6.294   9.453  0.4279  1.1312  1.1573
16057SOL    HW251577   0.892   6.434   9.480 -1.4457  0.7463 -0.3207
16058SOL     OW51578  10.768   6.123   8.219 -0.6020 -0.2655  0.4275
16058SOL    HW151579  10.794   6.100   8.308 -2.3267  0.9220  1.2740
16058SOL    HW251580  10.794   6.048   8.165 -1.0906 -1.7310  2.2135
16059SOL     OW51581   2.907   2.861   3.081 -0.1618 -0.2687  0.2446
16059SOL    HW151582   2.940   2.842   2.993 -1.6571 -3.0254  0.2107
16059SOL    HW251583   2.863   2.946   3.072  0.9730  0.1852 -1.3116
16060SOL     OW51584   2.504   1.262   5.195  0.5143 -0.4075 -0.6016
16060SOL    HW151585   2.492   1.352   5.165  1.1049  0.0101  0.3946
16060SOL    HW251586   2.432   1.247   5.256  1.0245 -0.2489  0.0426
16061SOL     OW51587   9.655   5.505   9.871 -0.3558 -0.7584  0.5429
16061SOL    HW151588   9.708   5.428   9.851  0.5464 -0.4843  1.7947
16061SOL    HW251589   9.634   5.496   9.964 -0.2699  0.4852  0.6933
16062SOL     OW51590   4.741  10.638   0.554 -0.3140  0.7599  0.5648
16062SOL    HW151591   4.715  10.730   0.565 -1.6048  0.5728 -0.7347
16062SOL    HW251592   4.828  10.633   0.593 -0.6698  2.2884  1.6307
16063SOL     OW51593   1.885   6.760   9.623 -0.0005  0.1515  0.0447
16063SOL    HW151594   1.942   6.782   9.697  0.0972  1.2870 -0.3640
16063SOL    HW251595   1.945   6.741   9.551  0.0145 -3.7225  0.9448
16064SOL     OW51596   5.638   2.151   7.381  0.0675  0.1087  0.6722
16064SOL    HW151597   5.674   2.076   7.334 -0.0103  0.0944  0.6346
16064SOL    HW251598   5.573   2.187   7.321  0.7146  0.7230  0.3343
16065SOL     OW51599   4.928   0.028   5.291  0.2099  0.2053  0.0254
16065SOL    HW151600   5.008   0.070   5.260  0.1721 -0.2184 -0.6708
16065SOL    HW251601   4.951  -0.008   5.377  1.1560 -1.0491 -0.7420
16066SOL     OW51602   4.347   2.822   8.426  0.1351 -0.0160  0.2751
16066SOL    HW151603   4.373   2.730   8.420  1.4361  0.4164 -0.9372
16066SOL    HW251604   4.252   2.820   8.427  0.0922 -1.2806 -2.1303
16067SOL     OW51605   0.364  10.368   8.696  0.4578 -0.3441  0.0126
16067SOL    HW151606   0.380  10.315   8.775  0.4126  0.8947  0.8605
16067SOL    HW251607   0.280  10.337   8.664  0.7219 -1.2285  0.1458
16068SOL     OW51608   3.568   3.784   5.722  0.2198  0.2133 -0.0964
16068SOL    HW151609   3.481   3.794   5.682 -0.0783  0.5868  0.6340
16068SOL    HW251610   3.570   3.692   5.750 -0.3166  0.4541  0.7425
16069SOL     OW51611   0.162   0.776   8.359 -0.2405 -0.8675 -0.4168
16069SOL    HW151612   0.257   0.773   8.357 -0.2810 -2.6048 -0.3789
16069SOL    HW251613   0.135   0.688   8.387 -1.8433 -0.3619 -0.3027
16070SOL     OW51614   2.681   4.053   5.969 -0.0182  0.0731 -0.1079
16070SOL    HW151615   2.660   3.960   5.961  1.0635 -0.3834  2.0184
16070SOL    HW251616   2.754   4.067   5.908 -0.3784 -0.3898 -0.6526
16071SOL     OW51617  10.976   4.908   1.104 -0.0362  0.2519  0.5083
16071SOL    HW151618  10.948   4.994   1.073  0.6212  0.1003 -0.4974
16071SOL    HW251619  11.017   4.926   1.189  0.5772  0.9911  0.0579
16072SOL     OW51620   7.766   2.583  10.001  0.5343 -0.0625 -0.6982
16072SOL    HW151621   7.843   2.530  10.021  0.4256 -0.4514 -1.3121
16072SOL    HW251622   7.752   2.572   9.907 -1.0569 -1.0410 -0.3665
16073SOL     OW51623   6.058   6.837   4.592  0.0687  0.3833 -0.5075
16073SOL    HW151624   6.149   6.861   4.576  0.3462 -1.0796 -1.2090
16073SOL    HW251625   6.062   6.762   4.651 -0.5556 -1.3665 -2.6033
16074SOL     OW51626   1.553   1.732   4.050  0.0540  0.1548 -0.0449
16074SOL    HW151627   1.559   1.827   4.049  1.9321  0.0544  0.6245
16074SOL    HW251628   1.528   1.711   4.140 -0.4247  0.0109 -0.2084
16075SOL     OW51629   3.080   7.193  10.108  0.4947  0.9191  0.4854
16075SOL    HW151630   3.105   7.204  10.016 -0.4717  0.2523  0.1277
16075SOL    HW251631   3.134   7.120  10.138 -0.3005  0.1040 -0.0146
16076SOL     OW51632   0.623   1.656   9.099 -0.0714 -0.1904 -0.0159
16076SOL    HW151633   0.652   1.614   9.180 -0.0384  1.2759  0.7432
16076SOL    HW251634   0.692   1.635   9.036 -0.0657 -1.2823  0.3353
16077SOL     OW51635   6.638   5.236   7.553  0.0873 -0.3804  0.0936
16077SOL    HW151636   6.588   5.249   7.472 -0.7371 -1.0952  0.4891
16077SOL    HW251637   6.586   5.176   7.605 -0.6341  2.0225  2.2692
16078SOL     OW51638  10.764   7.329   5.272 -0.0024  0.1169  0.0308
16078SOL    HW151639  10.761   7.396   5.204 -0.1543 -0.8860 -0.9636
16078SOL    HW251640  10.672   7.306   5.287  0.1282 -0.7724 -0.5357
16079SOL     OW51641   8.076  10.134   4.284  0.2663  0.0579 -0.4448
16079SOL    HW151642   8.006  10.099   4.229  0.0402  0.3522 -0.3466
16079SOL    HW251643   8.157  10.099   4.246 -0.0436 -1.8248  0.5883
16080SOL     OW51644   5.275   4.876   6.262  0.0591  0.3620  0.1242
16080SOL    HW151645   5.350   4.934   6.274  0.8098 -0.7813  0.9929
16080SOL    HW251646   5.243   4.859   6.350 -1.1484  0.7317 -0.2299
16081SOL     OW51647   3.967  10.598   1.682  0.0081  0.5932 -0.3004
16081SOL    HW151648   4.044  10.575   1.732 -0.5671  0.9323  0.7557
16081SOL    HW251649   3.919  10.515   1.672  0.9989  0.1721 -1.8615
16082SOL     OW51650   2.311   4.629   0.587 -0.9454  0.2715  0.2607
16082SOL    HW151651   2.388   4.596   0.634 -0.6991  0.7576  0.2153
16082SOL    HW251652   2.346   4.699   0.531 -1.8175  2.3792  2.2610
16083SOL     OW51653  10.276   1.155  10.764 -0.2957  0.0992 -0.0831
16083SOL    HW151654  10.181   1.163  10.763 -0.2733  1.0123  2.1324
16083SOL    HW251655  10.308   1.238  10.728 -0.3159  0.6434  1.1524
16084SOL     OW51656   9.083   3.132   2.854 -1.0293  0.4658  0.0996
16084SOL    HW151657   8.996   3.172   2.854 -1.2423  0.0165 -0.2799
16084SOL    HW251658   9.080   3.069   2.926 -1.5762 -0.7169 -0.9428
16085SOL     OW51659   0.696   5.090   9.575  0.1579 -0.0903  0.1788
16085SOL    HW151660   0.724   5.115   9.663  0.3930  0.3305 -0.0139
16085SOL    HW251661   0.617   5.036   9.589  0.6566 -0.6934  0.6822
16086SOL     OW51662   3.143   1.968   2.008 -0.0724 -0.3319  0.2768
16086SOL    HW151663   3.057   1.944   2.043 -0.2826 -0.4858 -0.3280
16086SOL    HW251664   3.179   1.886   1.974 -0.6599  0.1162 -1.5086
16087SOL     OW51665   8.929   5.574   7.600  0.7672  0.0257 -0.2449
16087SOL    HW151666   8.941   5.666   7.623  0.3780  0.2245 -0.8390
16087SOL    HW251667   8.967   5.526   7.674 -0.5351  0.6671  0.8656
16088SOL     OW51668   1.589   1.621   2.614  0.9516 -0.3169 -0.2110
16088SOL    HW151669   1.528   1.653   2.549 -1.3294 -1.7566  1.1655
16088SOL    HW251670   1.671   1.667   2.595 -0.4862  1.4954 -2.1816
16089SOL     OW51671   8.311   8.591   2.217 -0.0539  0.7891  0.1850
16089SOL    HW151672   8.366   8.638   2.279  2.2048 -0.0624 -1.1253
16089SOL    HW251673   8.287   8.511   2.263  1.2392  0.3632  0.1394
16090SOL     OW51674   0.930   2.681   1.185  0.2583 -0.7811 -0.3722
16090SOL    HW151675   0.843   2.721   1.189  0.2880 -0.6033 -1.5151
16090SOL    HW251676   0.985   2.747   1.143  0.4956 -1.6776 -1.4805
16091SOL     OW51677   7.839  10.006   1.887 -0.0368 -0.0443  0.1342
16091SOL    HW151678   7.906  10.074   1.895  0.0281 -0.0528 -0.3388
16091SOL    HW251679   7.889   9.926   1.867 -0.2505  0.1123 -1.0633
16092SOL     OW51680   5.411   2.983   1.919  0.4507 -0.7565  0.1151
16092SOL    HW151681   5.389   2.974   1.826 -0.3794  0.0378  0.2313
16092SOL    HW251682   5.370   2.908   1.961  2.0461 -1.9278 -0.3524
16093SOL     OW51683   9.962   8.845   7.869 -0.3919 -0.2293  0.3833
16093SOL    HW151684  10.008   8.891   7.939 -1.7683  0.1278  1.0575
16093SOL    HW251685   9.894   8.793   7.913 -1.2202 -0.0611 -0.6623
16094SOL     OW51686  10.305   3.608   8.334  0.0164  0.5220  0.1026
16094SOL    HW151687  10.223   3.561   8.317  1.2127 -0.8547 -1.9893
16094SOL    HW251688  10.345   3.560   8.407 -0.0173 -0.1221 -0.2971
16095SOL     OW51689   7.801   6.364   3.656  0.4460 -0.3121 -0.2784
16095SOL    HW151690   7.811   6.283   3.606  2.1785 -0.5231  0.3951
16095SOL    HW251691   7.710   6.361   3.686  0.5087 -2.0692 -0.1728
16096SOL     OW51692   8.334  10.513   0.020 -0.5443 -0.2358 -0.1234
16096SOL    HW151693   8.264  10.527   0.085 -1.0879 -0.6415 -0.6119
16096SOL    HW251694   8.289  10.520  -0.064 -0.0666 -0.8904 -0.4326
16097SOL     OW51695   2.011   3.763   8.825 -0.7279  0.0449 -0.0158
16097SOL    HW151696   2.017   3.679   8.779  1.3502  0.2770 -0.1941
16097SOL    HW251697   1.918   3.786   8.820 -1.4223 -2.5188  0.5736
16098SOL     OW51698   5.540   5.814   2.485 -0.3387 -0.4784 -0.1608
16098SOL    HW151699   5.491   5.797   2.565  0.6653 -3.6365 -0.1518
16098SOL    HW251700   5.628   5.781   2.503  0.8725  1.9931 -1.3603
16099SOL     OW51701   4.926   1.940   9.535 -0.2135 -0.5550 -0.6439
16099SOL    HW151702   4.898   2.008   9.474 -3.2796 -0.8697  0.2955
16099SOL    HW251703   4.941   1.863   9.480 -3.2293 -0.9215 -1.0550
16100SOL     OW51704   8.735  10.436   9.332  0.1642 -0.2272 -0.1249
16100SOL    HW151705   8.665  10.429   9.397 -0.3186  0.1745 -0.5979
16100SOL    HW251706   8.753  10.345   9.306  0.4409 -0.4005  0.6462
16101SOL     OW51707   9.301   9.586   4.940  0.5556  0.4189  0.1757
16101SOL    HW151708   9.381   9.551   4.901  0.4964  0.8241 -0.3089
16101SOL    HW251709   9.326   9.674   4.970  0.2816  0.5561 -0.0009
16102SOL     OW51710   4.179   1.780   9.030  0.8095  0.3377  0.2767
16102SOL    HW151711   4.162   1.696   8.988 -2.5079  0.6147  0.9430
16102SOL    HW251712   4.199   1.758   9.120 -2.2161  0.3325  0.9945
16103SOL     OW51713   5.336   4.609   2.421  0.2910  0.0365  0.6660
16103SOL    HW151714   5.369   4.527   2.457  3.4085 -0.3934 -2.9103
16103SOL    HW251715   5.407   4.672   2.435  0.6832  0.3877 -2.6691
16104SOL     OW51716   4.390   3.451  10.246 -0.1060 -0.0621  0.1207
16104SOL    HW151717   4.345   3.370  10.270  0.2494 -0.3481 -0.1873
16104SOL    HW251718   4.441   3.474  10.324  1.0202 -0.9734 -0.3345
16105SOL     OW51719   7.233   4.573   9.719 -0.0650 -0.1234  0.1036
16105SOL    HW151720   7.159   4.542   9.667 -0.2479 -1.0383  0.9076
16105SOL    HW251721   7.304   4.581   9.656 -0.8620  0.8333 -0.6915
16106SOL     OW51722   2.560   2.557   2.378 -0.1081 -0.2232  0.5883
16106SOL    HW151723   2.500   2.625   2.347 -0.8516 -1.3575 -0.4998
16106SOL    HW251724   2.645   2.582   2.342 -1.0263 -1.7377 -2.8458
16107SOL     OW51725   9.994   9.896   4.109 -0.0157  0.1344 -0.4803
16107SOL    HW151726   9.972   9.808   4.139 -0.0977 -0.7489 -3.0158
16107SOL    HW251727  10.090   9.899   4.112  0.0515 -0.5080 -1.5541
16108SOL     OW51728   1.298   7.618   4.638 -0.2144  0.5076  0.1969
16108SOL    HW151729   1.385   7.582   4.625 -0.3697 -0.3413  1.4743
16108SOL    HW251730   1.239   7.544   4.625 -0.7154  0.9304 -0.0012
16109SOL     OW51731   2.772   7.385   2.637 -0.2793 -0.2119  0.1832
16109SOL    HW151732   2.755   7.369   2.730 -1.0076 -0.1278  0.0617
16109SOL    HW251733   2.801   7.476   2.633 -0.6762 -0.0805  0.2735
16110SOL     OW51734   0.229   5.467   9.792  0.0571 -0.4257  0.2326
16110SOL    HW151735   0.297   5.533   9.786 -0.0856 -0.2974  0.0185
16110SOL    HW251736   0.251   5.416   9.870  0.0699 -0.0215  0.4932
16111SOL     OW51737   8.101   4.540   0.601  0.0382 -0.6169 -0.0056
16111SOL    HW151738   8.165   4.500   0.542  0.1197 -0.1203 -0.2613
16111SOL    HW251739   8.051   4.466   0.636  0.4134 -0.9665 -0.2007
16112SOL     OW51740   8.849   0.127   1.793  0.2669  0.1447  0.2016
16112SOL    HW151741   8.770   0.109   1.842  1.0842  3.0025  2.6778
16112SOL    HW251742   8.920   0.092   1.847  0.9679  0.7966 -0.2756
16113SOL     OW51743   9.971   8.123   5.681  0.2291 -0.4599 -0.0794
16113SOL    HW151744   9.958   8.207   5.637 -0.2206 -0.8248 -0.6440
16113SOL    HW251745  10.036   8.078   5.628  0.4142 -0.5035  0.1830
16114SOL     OW51746   1.607   2.138   9.699  0.3603  0.3572 -0.7632
16114SOL    HW151747   1.701   2.155   9.703  0.3071  0.5478 -0.2921
16114SOL    HW251748   1.597   2.048   9.733  0.5143 -0.1774 -2.1108
16115SOL     OW51749   4.752   4.659   5.463 -0.0215 -0.2221  0.3137
16115SOL    HW151750   4.748   4.636   5.370  1.4149 -1.1863  0.4717
16115SOL    HW251751   4.845   4.650   5.486  0.1137  2.8254  1.1614
16116SOL     OW51752   9.164   7.529   0.155 -0.3201 -0.0787 -0.5160
16116SOL    HW151753   9.137   7.443   0.186  1.1057 -0.9386 -1.6264
16116SOL    HW251754   9.131   7.590   0.222  0.9049 -1.7038  1.6186
16117SOL     OW51755   4.518   1.732   6.219  0.0067 -0.2946 -0.2314
16117SOL    HW151756   4.556   1.763   6.300 -2.0024 -0.7211  0.9066
16117SOL    HW251757   4.593   1.704   6.166  1.4196  1.2296  0.9123
16118SOL     OW51758   5.387   1.579   0.256 -0.7985  0.5638 -0.0709
16118SOL    HW151759   5.400   1.501   0.201 -1.7959  0.8784 -0.7635
16118SOL    HW251760   5.367   1.544   0.343 -2.3577  0.0301 -0.6352
16119SOL     OW51761   0.700   2.222   1.740  0.3753 -0.4533 -0.8693
16119SOL    HW151762   0.771   2.261   1.691  1.8235 -0.5622  1.0838
16119SOL    HW251763   0.733   2.215   1.830 -1.4876 -1.9983 -0.2572
16120SOL     OW51764   2.924   1.802   7.182  0.6399 -0.3893  0.1767
16120SOL    HW151765   2.973   1.772   7.258  0.4504  1.3606  1.0279
16120SOL    HW251766   2.987   1.803   7.111  1.2175 -0.5260  0.6870
16121SOL     OW51767   7.241   1.637  10.341 -0.4894 -0.0790 -0.7589
16121SOL    HW151768   7.159   1.680  10.316 -0.3314  0.3121 -0.6022
16121SOL    HW251769   7.227   1.611  10.432 -0.3799  0.1276 -0.6836
16122SOL     OW51770   5.432   3.412   1.466 -1.0393 -0.2332 -0.5934
16122SOL    HW151771   5.371   3.471   1.424 -0.2249  0.3168 -1.0127
16122SOL    HW251772   5.499   3.469   1.504  0.1296 -0.9145 -1.5976
16123SOL     OW51773   9.305   6.949   8.311 -0.4298  0.2521 -0.5632
16123SOL    HW151774   9.215   6.949   8.278 -1.4953 -0.1687  2.2262
16123SOL    HW251775   9.297   6.927   8.404  2.7401 -2.0890 -0.7330
16124SOL     OW51776   9.371   1.835   6.600  0.1628 -0.1377  0.4408
16124SOL    HW151777   9.416   1.767   6.550  0.6721  1.1160 -0.8423
16124SOL    HW251778   9.342   1.791   6.680  0.7429 -1.7802 -0.2332
16125SOL     OW51779  10.388   9.381   6.833  0.6028  0.1134  0.2733
16125SOL    HW151780  10.379   9.444   6.762 -0.2476 -1.5106 -1.1173
16125SOL    HW251781  10.353   9.299   6.797 -1.2640 -0.3967  3.0636
16126SOL     OW51782   5.574   4.913   5.344 -0.1690  0.6928  0.9123
16126SOL    HW151783   5.626   4.837   5.316  1.0729  1.6059  0.7123
16126SOL    HW251784   5.532   4.883   5.425 -0.5857 -0.5906  0.2379
16127SOL     OW51785   6.063   5.875   8.833  0.2175  0.0087 -0.4551
16127SOL    HW151786   6.035   5.817   8.904 -1.4151 -0.2100 -1.2334
16127SOL    HW251787   5.984   5.888   8.781  1.2017  0.8067 -1.7854
16128SOL     OW51788   3.096   8.619  10.453 -0.0089 -0.3761 -0.2274
16128SOL    HW151789   3.113   8.543  10.508 -2.3467 -0.1593  0.8578
16128SOL    HW251790   3.037   8.587  10.385 -2.6134  0.8294  1.3724
16129SOL     OW51791   2.345   7.257   1.567  0.3923 -0.3476 -0.1013
16129SOL    HW151792   2.339   7.327   1.632 -1.0416 -0.6641  0.1230
16129SOL    HW251793   2.265   7.266   1.515  1.3237 -0.3662 -1.5564
16130SOL     OW51794   4.650   3.757   3.295  0.2428 -0.1543  0.0934
16130SOL    HW151795   4.588   3.687   3.275  0.2867 -0.6743  1.6812
16130SOL    HW251796   4.619   3.833   3.245 -1.2234 -0.6243  0.2799
16131SOL     OW51797   4.584   7.218   5.260  0.4121  0.0324  0.5605
16131SOL    HW151798   4.560   7.158   5.331  0.8701 -0.6321  0.1550
16131SOL    HW251799   4.666   7.183   5.226 -0.9055 -0.9621 -1.7602
16132SOL     OW51800   1.957   4.751  10.750 -0.4919 -0.0993  0.2904
16132SOL    HW151801   1.994   4.710  10.671 -0.7036  1.0501 -0.4263
16132SOL    HW251802   2.032   4.794  10.792 -0.4273 -0.4937  0.5848
16133SOL     OW51803   4.849   8.172  10.489 -0.5432  0.3664 -0.3804
16133SOL    HW151804   4.765   8.132  10.463 -0.7262  1.1256 -0.9901
16133SOL    HW251805   4.845   8.176  10.584 -1.7075  1.4415 -0.4504
16134SOL     OW51806  10.787  10.406   1.563 -0.1244  0.0249  0.3761
16134SOL    HW151807  10.779  10.350   1.641  1.5186  1.8595  1.9113
16134SOL    HW251808  10.711  10.384   1.510 -1.1003 -1.5090  2.3428
16135SOL     OW51809   9.212   3.752   1.488 -0.2188 -0.3707  0.2537
16135SOL    HW151810   9.128   3.708   1.478 -1.1220  1.5325 -0.7708
16135SOL    HW251811   9.232   3.745   1.582 -1.4353 -0.9512  0.4761
16136SOL     OW51812   6.808   2.987   1.924  0.1872 -0.7354  0.4510
16136SOL    HW151813   6.829   2.910   1.978 -0.3736 -1.4028 -0.2857
16136SOL    HW251814   6.714   2.979   1.907  0.2127 -0.0986  0.0295
16137SOL     OW51815   0.095   7.778   5.125 -0.4130  0.3037  0.0736
16137SOL    HW151816   0.072   7.866   5.094 -2.0292 -0.5071 -1.0603
16137SOL    HW251817   0.083   7.783   5.220  1.4959  1.8843  0.2577
16138SOL     OW51818   3.309   0.048  10.754  0.3371 -0.3147  0.4159
16138SOL    HW151819   3.344  -0.041  10.748 -0.9110 -0.7856 -0.0727
16138SOL    HW251820   3.298   0.076  10.662  2.0224  0.8804  0.5450
16139SOL     OW51821   1.601   5.997   4.418  0.3773  0.2039 -0.2463
16139SOL    HW151822   1.606   6.075   4.473 -0.9892  0.3796 -0.3520
16139SOL    HW251823   1.550   6.024   4.342  0.2885 -0.6654 -0.5030
16140SOL     OW51824   4.468   8.258   2.197  0.2095  0.5810  0.3580
16140SOL    HW151825   4.463   8.257   2.102 -0.0731  2.5991  0.3297
16140SOL    HW251826   4.420   8.180   2.225  1.8651 -1.0140 -1.1946
16141SOL     OW51827   2.023  10.590   2.043 -0.5193 -0.9253 -0.0747
16141SOL    HW151828   2.000  10.497   2.030  1.1535 -1.5015  0.9770
16141SOL    HW251829   2.074  10.613   1.966 -0.4465 -1.0521 -0.0649
16142SOL     OW51830   0.186   7.957   7.809 -0.0099 -0.4594 -0.3373
16142SOL    HW151831   0.234   8.033   7.843  0.9401 -0.8555 -0.7929
16142SOL    HW251832   0.221   7.883   7.859 -0.5459 -0.6714 -0.2782
16143SOL     OW51833   9.187   8.811   4.605  0.3070  0.4485 -0.4157
16143SOL    HW151834   9.202   8.735   4.549 -1.1425 -0.2000  0.0504
16143SOL    HW251835   9.212   8.886   4.552  1.6147 -0.3407 -0.9319
16144SOL     OW51836   0.812   4.744   9.114  0.3361 -0.5126 -0.4145
16144SOL    HW151837   0.860   4.824   9.137 -0.2504  0.2749 -1.8921
16144SOL    HW251838   0.722   4.772   9.102 -0.2244 -1.7409  0.9050
16145SOL     OW51839   0.778  10.658   7.708  0.5921 -0.3282  0.0650
16145SOL    HW151840   0.810  10.744   7.682 -0.3274  0.4599  1.5166
16145SOL    HW251841   0.796  10.653   7.802 -0.8395 -1.0661  0.3039
16146SOL     OW51842   4.354   6.836   9.994 -0.3555  0.0129  0.3014
16146SOL    HW151843   4.425   6.813   9.934 -1.9010 -3.1226 -0.4421
16146SOL    HW251844   4.279   6.786   9.962 -1.9428  0.4256  3.2188
16147SOL     OW51845   0.473   0.798   4.425  0.0993 -0.0465 -0.0179
16147SOL    HW151846   0.389   0.831   4.392 -0.8648 -0.1398  2.2310
16147SOL    HW251847   0.456   0.706   4.445  1.1553 -0.4334 -0.8572
16148SOL     OW51848   7.808   7.327   3.889  0.4646  0.2604 -0.0330
16148SOL    HW151849   7.735   7.326   3.952  0.1714  0.1933 -0.3724
16148SOL    HW251850   7.769   7.297   3.807  0.5484  1.5404 -0.5640
16149SOL     OW51851   6.827   2.188   4.744 -0.2327 -0.4147  0.6498
16149SOL    HW151852   6.732   2.178   4.744 -0.2882  0.1064  0.3084
16149SOL    HW251853   6.861   2.100   4.762 -0.8269 -0.0791  3.7841
16150SOL     OW51854   3.453   9.031   8.808  0.5451 -0.1443 -0.1428
16150SOL    HW151855   3.474   8.972   8.881 -0.5958  1.4010  1.5056
16150SOL    HW251856   3.478   8.983   8.730  0.1681 -2.5724  1.1771
16151SOL     OW51857   2.015   9.612   3.165 -0.2537 -0.0010 -0.3021
16151SOL    HW151858   1.937   9.661   3.188  0.6007  3.0993 -3.6045
16151SOL    HW251859   2.086   9.654   3.214 -0.3213 -1.7139  1.3461
16152SOL     OW51860   8.086   6.777   4.376  0.3866 -0.1145  0.0666
16152SOL    HW151861   8.138   6.697   4.387  1.1816  0.3765 -0.0715
16152SOL    HW251862   8.069   6.807   4.465  0.8392  0.0438  0.0991
16153SOL     OW51863   1.760   7.061   4.549 -0.4181  1.2388  0.1720
16153SOL    HW151864   1.686   7.000   4.558  1.2932 -0.7819  0.8050
16153SOL    HW251865   1.789   7.050   4.459 -0.9762  2.1582 -0.1246
16154SOL     OW51866   7.347   4.987   6.261 -0.1534 -0.0627 -0.1787
16154SOL    HW151867   7.394   4.920   6.311 -0.8195 -0.2094  0.2449
16154SOL    HW251868   7.388   4.984   6.174  1.0271  0.2159  0.3494
16155SOL     OW51869   0.639   7.213   4.163  0.0267 -0.2744 -0.1402
16155SOL    HW151870   0.717   7.267   4.176 -1.4016  1.4265  1.7786
16155SOL    HW251871   0.567   7.268   4.193 -1.9169 -1.8721 -1.7164
16156SOL     OW51872   5.811   8.621   2.368 -0.2383  0.1418 -0.3282
16156SOL    HW151873   5.780   8.708   2.393 -1.4373 -0.6720  1.1027
16156SOL    HW251874   5.758   8.561   2.420 -0.1680 -1.4939 -2.0754
16157SOL     OW51875   2.023   9.542   1.805  0.0955  0.1980 -0.1930
16157SOL    HW151876   2.000   9.494   1.725  0.2197  0.1859 -0.2198
16157SOL    HW251877   2.013   9.634   1.781  0.6165  0.2098 -0.3676
16158SOL     OW51878   5.508   7.391   8.996 -0.7810 -0.3724 -0.0304
16158SOL    HW151879   5.433   7.371   9.052  0.7606 -0.4081  2.0957
16158SOL    HW251880   5.566   7.315   9.005  1.7389  1.6972  2.2960
16159SOL     OW51881   0.048   9.490   2.464 -0.5454 -0.3797  0.1444
16159SOL    HW151882   0.033   9.581   2.488 -0.3448 -0.3474  0.1428
16159SOL    HW251883   0.084   9.494   2.375  1.6273 -0.3415  0.9967
16160SOL     OW51884  10.319   4.854   0.063  0.7415 -0.3360 -0.7073
16160SOL    HW151885  10.246   4.896   0.018  0.7614 -0.9802 -1.3573
16160SOL    HW251886  10.372   4.817  -0.007  2.8661  1.9556 -0.3773
16161SOL     OW51887  10.222   6.298   6.206  0.6768  0.1806 -0.1251
16161SOL    HW151888  10.225   6.342   6.122  3.8101  1.1682  0.4421
16161SOL    HW251889  10.218   6.204   6.185  3.2244  0.3332 -1.4097
16162SOL     OW51890   1.653   1.184   0.743 -0.3937  0.3933 -0.2495
16162SOL    HW151891   1.704   1.104   0.731 -0.2255  0.3737  0.5657
16162SOL    HW251892   1.669   1.235   0.664 -0.7622 -0.5206 -0.9223
16163SOL     OW51893   0.413   1.891   2.817  0.0819  0.2510 -0.6250
16163SOL    HW151894   0.507   1.879   2.830  0.0506  1.3290  0.6852
16163SOL    HW251895   0.403   1.984   2.796 -0.7505  0.3054 -0.0496
16164SOL     OW51896   1.506   8.165   4.617  0.2525  0.4835  0.4977
16164SOL    HW151897   1.433   8.187   4.559  0.2456  1.0396  0.7145
16164SOL    HW251898   1.559   8.245   4.621  0.1058  0.5349  1.4706
16165SOL     OW51899   9.030   0.027   6.668  0.4670  0.2235  0.0460
16165SOL    HW151900   9.120   0.007   6.692  0.9297  0.7459 -1.2078
16165SOL    HW251901   8.979   0.005   6.746  1.7351  0.4208  0.9455
16166SOL     OW51902   6.343   9.984   9.629  0.1087 -0.4160 -0.0300
16166SOL    HW151903   6.356   9.977   9.724 -1.6538  0.6590  0.3129
16166SOL    HW251904   6.311  10.074   9.616  1.8456 -0.0168 -1.8308
16167SOL     OW51905   4.842   4.468   5.925 -0.1670 -0.0527  0.2284
16167SOL    HW151906   4.870   4.390   5.876  0.7166  0.1519  0.3987
16167SOL    HW251907   4.911   4.532   5.909 -1.7932  1.3342 -1.4026
16168SOL     OW51908  10.874   4.439   3.826 -0.2633 -0.3937  0.3432
16168SOL    HW151909  10.932   4.417   3.753 -1.4770 -2.3238 -0.1039
16168SOL    HW251910  10.902   4.380   3.897  0.9604  1.5210  1.5082
16169SOL     OW51911   3.528   9.597   3.606 -0.0061  0.8984 -0.3291
16169SOL    HW151912   3.482   9.588   3.523  1.4099  1.1669 -1.1386
16169SOL    HW251913   3.544   9.691   3.615  0.1440  0.8362  0.0886
16170SOL     OW51914   3.068   4.453   2.201 -0.3904  0.2146  0.7890
16170SOL    HW151915   3.059   4.537   2.246 -0.9042  0.2111  0.6999
16170SOL    HW251916   3.101   4.393   2.268 -1.1803  0.2017  1.1748
16171SOL     OW51917   3.539   5.193   1.030 -0.0836  0.3232  0.4639
16171SOL    HW151918   3.567   5.149   0.950  2.0758 -0.1466  1.4414
16171SOL    HW251919   3.449   5.165   1.042  0.4743 -1.9218 -0.2622
16172SOL     OW51920   0.364   3.749   1.537 -0.3106  0.3112 -0.4509
16172SOL    HW151921   0.437   3.754   1.474 -0.9614  0.9024 -1.1655
16172SOL    HW251922   0.348   3.655   1.548 -1.8879  0.2183 -3.1721
16173SOL     OW51923   8.545   0.189   1.160 -0.4865 -0.0870  0.4402
16173SOL    HW151924   8.545   0.093   1.161 -1.9024 -0.0852  1.7977
16173SOL    HW251925   8.456   0.212   1.133 -0.3478  0.8569  0.7984
16174SOL     OW51926   2.573   6.680   1.618 -0.0534 -0.1937  0.0220
16174SOL    HW151927   2.507   6.613   1.604 -1.1533  1.1126 -1.1458
16174SOL    HW251928   2.560   6.709   1.708 -1.1849  0.1820 -0.2632
16175SOL     OW51929   5.263   7.848   2.731 -0.6242  0.2744 -0.2660
16175SOL    HW151930   5.184   7.840   2.785 -0.2477 -2.7073 -0.0874
16175SOL    HW251931   5.334   7.857   2.795 -0.4840 -0.2441 -0.3525
16176SOL     OW51932   3.066   6.138   9.086  0.0693 -0.4910  0.4931
16176SOL    HW151933   3.040   6.226   9.113  0.0325 -0.9359  1.9304
16176SOL    HW251934   2.984   6.096   9.061 -0.1268 -0.6563  1.3993
16177SOL     OW51935   9.733   9.533   1.511  0.1653 -0.0795  0.4969
16177SOL    HW151936   9.689   9.459   1.470 -0.5122  1.9351 -2.6360
16177SOL    HW251937   9.666   9.602   1.512  1.4313  1.1572  1.3489
16178SOL     OW51938   8.377  10.067   9.675 -0.4127  0.1683 -0.2819
16178SOL    HW151939   8.397  10.039   9.764  0.0252  3.7123  0.8007
16178SOL    HW251940   8.458  10.053   9.626 -0.1707 -0.2794  0.2456
16179SOL     OW51941   7.078   6.369   7.619 -0.3496 -0.0874 -0.0680
16179SOL    HW151942   7.150   6.307   7.605  0.8653  0.8876  1.6557
16179SOL    HW251943   7.035   6.376   7.534  0.4188 -2.1469 -0.6446
16180SOL     OW51944   3.136   5.051   7.316  0.1147  0.6502  0.0032
16180SOL    HW151945   3.137   5.146   7.327 -3.2055  0.7727 -0.2522
16180SOL    HW251946   3.043   5.029   7.306  0.5412 -2.9567  2.9910
16181SOL     OW51947   3.736   7.504   2.564  0.7017 -0.2578  0.0437
16181SOL    HW151948   3.715   7.521   2.472  1.6320 -0.9529 -0.3010
16181SOL    HW251949   3.780   7.583   2.594  2.0898 -0.7619 -0.6389
16182SOL     OW51950  10.342  10.384   9.072  0.0286 -0.7308  0.2376
16182SOL    HW151951  10.321  10.294   9.099  0.9284 -1.8383 -2.6178
16182SOL    HW251952  10.423  10.376   9.022  0.3177  1.7423  0.2580
16183SOL     OW51953   9.133   5.238   5.875  0.3026  0.2514 -0.7947
16183SOL    HW151954   9.161   5.327   5.895 -1.0136  0.4726  0.1519
16183SOL    HW251955   9.127   5.196   5.961  0.8580 -0.7482 -1.2316
16184SOL     OW51956   2.685   8.711   6.789  0.0632 -0.1128 -0.0100
16184SOL    HW151957   2.594   8.710   6.818 -0.9597 -1.0950 -3.1130
16184SOL    HW251958   2.706   8.619   6.773  0.9231  0.2925 -1.3006
16185SOL     OW51959   5.504   5.923   9.683  0.5359 -0.3264  0.2545
16185SOL    HW151960   5.558   5.990   9.724 -0.2131  1.6638 -1.8761
16185SOL    HW251961   5.506   5.944   9.589 -1.6823 -1.8347 -0.1783
16186SOL     OW51962   8.950   0.258   6.446 -0.0808 -0.3199 -0.5602
16186SOL    HW151963   9.006   0.313   6.391 -0.4245  0.0320 -0.5596
16186SOL    HW251964   8.991   0.171   6.441  1.0826  0.1651  0.3227
16187SOL     OW51965   4.490   6.282   7.521  0.4184 -0.3253 -0.5100
16187SOL    HW151966   4.585   6.271   7.509  0.4591 -0.4543 -0.0662
16187SOL    HW251967   4.469   6.358   7.466  0.7446 -0.4182 -0.7677
16188SOL     OW51968   8.978  10.090   0.576  0.2776 -0.1949 -0.5484
16188SOL    HW151969   8.976   9.995   0.588  0.9516 -0.0118  1.1803
16188SOL    HW251970   9.070  10.113   0.587 -0.1907  0.8994  1.2181
16189SOL     OW51971   8.070  10.468   0.660  0.0262  0.3939  0.9857
16189SOL    HW151972   8.071  10.552   0.615 -1.4723 -0.5286 -0.8797
16189SOL    HW251973   8.095  10.488   0.750  2.1217  2.4422 -0.0127
16190SOL     OW51974  10.891   5.191   3.347 -0.1801 -0.2563  0.1063
16190SOL    HW151975  10.894   5.223   3.437 -0.6661 -0.3753  0.1668
16190SOL    HW251976  10.826   5.120   3.350 -1.0727  0.5337 -0.5963
16191SOL     OW51977  10.517   1.801   9.455 -0.0932  0.8169 -0.0086
16191SOL    HW151978  10.456   1.743   9.409  0.4534 -0.7178  1.1703
16191SOL    HW251979  10.590   1.813   9.395  1.2378 -2.2498  0.9292
16192SOL     OW51980   0.371   8.249   6.986 -0.3956 -0.4447 -0.0444
16192SOL    HW151981   0.344   8.336   6.955 -1.1059  1.0118  4.3059
16192SOL    HW251982   0.439   8.267   7.050 -0.2118 -3.1604  0.5629
16193SOL     OW51983   4.499   5.347   9.035 -0.3228  0.0930  0.4151
16193SOL    HW151984   4.549   5.273   9.068 -2.1977 -1.5700 -0.3848
16193SOL    HW251985   4.501   5.411   9.106  0.5664 -1.0729  1.4651
16194SOL     OW51986   6.658  10.933   6.170 -0.4583  0.3497 -0.0662
16194SOL    HW151987   6.608  10.870   6.119 -3.0114  2.2004  0.0827
16194SOL    HW251988   6.648  10.905   6.261  3.2321 -2.3348 -0.3443
16195SOL     OW51989  10.084   7.927   7.602 -0.2944 -1.0945 -0.3979
16195SOL    HW151990  10.043   7.841   7.611 -0.6146 -0.8240  0.7074
16195SOL    HW251991  10.170   7.908   7.562  0.4069 -2.1215  1.5621
16196SOL     OW51992   9.335   2.803   1.392 -0.0490  0.4468  0.0013
16196SOL    HW151993   9.266   2.867   1.375 -0.4120  0.2199  0.5888
16196SOL    HW251994   9.309   2.725   1.343  0.1150  0.5723 -0.2840
16197SOL     OW51995  10.133   7.796   2.629 -0.5318 -0.6784  0.2964
16197SOL    HW151996  10.170   7.877   2.663 -0.7657 -0.4673  0.0502
16197SOL    HW251997  10.047   7.789   2.671 -1.0840 -0.0929 -0.7333
16198SOL     OW51998   5.362   2.068   0.527 -0.1359 -0.5054 -0.6095
16198SOL    HW151999   5.278   2.027   0.547  0.3456 -0.3207  1.9730
16198SOL    HW252000   5.415   1.997   0.491 -0.1973 -1.5439  1.2894
16199SOL     OW52001   8.026  10.434   1.311 -0.1897 -0.4213 -0.0249
16199SOL    HW152002   7.985  10.348   1.296 -0.4863 -0.1190 -1.0396
16199SOL    HW252003   7.981  10.492   1.249  0.5562  0.2965  0.1014
16200SOL     OW52004   9.340   5.413   4.647 -0.1722  0.0091 -0.4786
16200SOL    HW152005   9.383   5.375   4.723 -0.0415  1.3164  0.1156
16200SOL    HW252006   9.258   5.449   4.682 -0.4883 -0.0901 -1.1107
16201SOL     OW52007   9.871   4.609   2.788 -0.0310 -0.2198  0.4925
16201SOL    HW152008   9.930   4.663   2.841 -0.0332  1.9771 -1.6617
16201SOL    HW252009   9.926   4.576   2.717 -0.2838 -2.2443  1.1972
16202SOL     OW52010   1.498  10.567  10.787  0.2970 -0.0473  0.0665
16202SOL    HW152011   1.548  10.488  10.810 -3.6196 -2.4288  0.7790
16202SOL    HW252012   1.499  10.620  10.867  0.3502 -0.8037  0.5707
16203SOL     OW52013   0.984   7.973   4.643  0.2161  0.0545 -0.2657
16203SOL    HW152014   0.968   7.879   4.638  2.0876 -0.2191 -2.1030
16203SOL    HW252015   1.079   7.981   4.648  0.2152  1.8873 -2.2160
16204SOL     OW52016   8.293   8.731   1.486  0.3995  0.1381 -0.0449
16204SOL    HW152017   8.287   8.824   1.465  0.4101  0.3474  0.8555
16204SOL    HW252018   8.324   8.729   1.576 -0.1444 -0.7265  0.1275
16205SOL     OW52019   0.249   6.653   2.740  0.0603 -1.2117 -0.1992
16205SOL    HW152020   0.215   6.707   2.811  2.2671 -0.1264  0.0799
16205SOL    HW252021   0.287   6.576   2.783  0.1564 -1.2251 -0.3054
16206SOL     OW52022  10.904   7.432  10.194  0.5734  0.2118  0.6754
16206SOL    HW152023  10.933   7.352  10.150 -0.1228 -0.1965  0.9569
16206SOL    HW252024  10.921   7.502  10.130  0.1881 -0.2924  0.0124
16207SOL     OW52025   1.698   0.367   8.364  0.2465  0.0903 -0.0763
16207SOL    HW152026   1.685   0.419   8.284 -0.8103  0.2547  0.1894
16207SOL    HW252027   1.721   0.431   8.431 -1.8027  0.3464  0.4294
16208SOL     OW52028  10.934   9.589   7.125 -0.6303 -0.4358 -0.6929
16208SOL    HW152029  10.865   9.573   7.190 -0.1285  2.4373  0.6129
16208SOL    HW252030  10.890   9.633   7.053 -0.1523  1.6187  0.2458
16209SOL     OW52031   1.063  10.228   6.622 -0.0264  0.0007 -0.0798
16209SOL    HW152032   0.973  10.199   6.615  0.3553 -0.9361 -1.2243
16209SOL    HW252033   1.115  10.147   6.619  0.9827  0.6876 -1.8593
16210SOL     OW52034  10.292   1.812   5.583 -0.5787  0.3159  0.4014
16210SOL    HW152035  10.208   1.854   5.597  0.1350  1.1551  2.4315
16210SOL    HW252036  10.314   1.831   5.492 -3.0753 -0.8864 -0.4888
16211SOL     OW52037   8.760  10.331   6.225 -0.0725  0.4290  0.4725
16211SOL    HW152038   8.688  10.394   6.224  0.4731  1.0377 -1.9813
16211SOL    HW252039   8.783  10.323   6.318 -1.1028  2.7364  0.9609
16212SOL     OW52040  10.536   3.361   4.057  0.1313 -0.2326  0.1636
16212SOL    HW152041  10.618   3.336   4.013  0.6610  2.0113 -0.1908
16212SOL    HW252042  10.563   3.429   4.119 -1.2402 -0.5615  1.1268
16213SOL     OW52043   2.792   8.133   2.079  0.2251 -0.3044  0.1544
16213SOL    HW152044   2.869   8.116   2.133  1.4726 -0.9293 -1.7400
16213SOL    HW252045   2.720   8.089   2.124  0.9919  0.1891  1.8878
16214SOL     OW52046   1.988   0.741   7.098  0.3364  0.0152 -0.6949
16214SOL    HW152047   1.902   0.710   7.128 -0.1155  0.5497 -1.3991
16214SOL    HW252048   2.027   0.782   7.175  0.4775 -1.2887 -0.0458
16215SOL     OW52049   5.539   6.782  10.219 -0.1584 -0.4683 -0.3907
16215SOL    HW152050   5.462   6.732  10.192 -0.3081 -0.7207  0.4852
16215SOL    HW252051   5.594   6.719  10.266 -0.2052  0.1001  0.4455
16216SOL     OW52052   7.312   7.861   2.502 -0.6995  0.6494  0.5071
16216SOL    HW152053   7.302   7.956   2.507  3.5861  1.3533 -1.6131
16216SOL    HW252054   7.385   7.842   2.562 -1.5620 -1.3176  0.9497
16217SOL     OW52055   7.342  10.522   6.865 -0.4773 -0.5072 -0.1969
16217SOL    HW152056   7.382  10.567   6.939  1.0558  1.5192 -2.1992
16217SOL    HW252057   7.380  10.434   6.868  0.2113 -0.1860  0.9454
16218SOL     OW52058   6.276   6.755   3.822  0.2371  0.3652 -0.1626
16218SOL    HW152059   6.317   6.681   3.777  0.2082 -0.4385  1.0819
16218SOL    HW252060   6.331   6.769   3.899 -0.1395  1.2070 -0.0432
16219SOL     OW52061   3.781   4.700   8.748  0.0039  0.4715  0.2354
16219SOL    HW152062   3.714   4.754   8.707  1.3128  1.2781 -0.8992
16219SOL    HW252063   3.749   4.685   8.837 -1.3455  1.4100 -0.0797
16220SOL     OW52064   0.493   5.209  10.249  0.4287 -0.3027 -0.2361
16220SOL    HW152065   0.402   5.204  10.281 -0.1296  0.2076 -1.6852
16220SOL    HW252066   0.507   5.126  10.204 -0.1741  0.5968 -2.1434
16221SOL     OW52067   5.895   2.117   5.555  0.1976  0.2032 -0.0556
16221SOL    HW152068   5.867   2.173   5.482  0.9270 -1.6111 -1.7602
16221SOL    HW252069   5.989   2.130   5.560 -0.2818  2.9821  2.8708
16222SOL     OW52070  10.580   5.519   3.137  0.1029  0.6394 -0.3118
16222SOL    HW152071  10.558   5.482   3.222 -0.5036  2.3465  0.2929
16222SOL    HW252072  10.671   5.546   3.145 -0.2636  1.7379  0.1307
16223SOL     OW52073   7.833   4.749  10.474 -0.0153 -0.2845 -0.0787
16223SOL    HW152074   7.755   4.781  10.518 -0.6625 -3.0902  0.9221
16223SOL    HW252075   7.805   4.732  10.384 -0.0664  0.3759 -0.1959
16224SOL     OW52076   2.315   9.920   7.132  0.4635  0.2573  0.1733
16224SOL    HW152077   2.294   9.970   7.054  1.5780 -1.6227 -1.3827
16224SOL    HW252078   2.303   9.981   7.205 -0.4491  2.0666 -1.4680
16225SOL     OW52079   1.722   7.767   9.527 -0.3757 -0.2473  0.1493
16225SOL    HW152080   1.711   7.674   9.542  0.9308 -0.2731  1.0095
16225SOL    HW252081   1.731   7.805   9.614 -2.0286  0.8466 -0.1295
16226SOL     OW52082   5.834   6.500   1.452  0.0653 -0.1237  0.2255
16226SOL    HW152083   5.763   6.466   1.508 -1.8910  0.8956 -1.5899
16226SOL    HW252084   5.906   6.515   1.513 -1.6550 -0.0689  2.3346
16227SOL     OW52085   5.434  10.253   3.373 -0.1517  0.3985  0.0464
16227SOL    HW152086   5.466  10.178   3.424  0.0452  0.7892  0.5059
16227SOL    HW252087   5.347  10.228   3.345  0.4086 -0.5309 -0.8928
16228SOL     OW52088   5.271   4.884  10.204 -0.4198  0.3706  0.0325
16228SOL    HW152089   5.327   4.864  10.279 -1.7796  1.7905  1.4837
16228SOL    HW252090   5.199   4.821  10.211 -0.1887  0.0540 -0.4728
16229SOL     OW52091   3.070   8.816   4.979 -0.4233  0.1321  0.3382
16229SOL    HW152092   3.116   8.754   4.923  0.3964  0.6224  0.4647
16229SOL    HW252093   3.109   8.901   4.959 -0.7398  0.4400  1.0043
16230SOL     OW52094   6.149  10.748  10.890  0.5019 -0.0826  0.0449
16230SOL    HW152095   6.121  10.828  10.934  0.2923  0.6377 -1.3547
16230SOL    HW252096   6.224  10.774  10.837 -0.4164 -0.4792 -1.5008
16231SOL     OW52097   0.070  10.323  10.579  0.2025  0.8210  0.0189
16231SOL    HW152098   0.002  10.388  10.596 -0.7326 -0.5063  1.5389
16231SOL    HW252099   0.048  10.287  10.494 -1.2223  0.1499  0.6581
16232SOL     OW52100   0.435   2.251   2.493 -0.3222 -0.2968 -0.2611
16232SOL    HW152101   0.526   2.269   2.467  0.5552 -1.4304  1.8434
16232SOL    HW252102   0.395   2.337   2.502  0.8885  0.2597 -0.0911
16233SOL     OW52103   7.938   5.541   0.561 -0.1184  0.5086 -0.5751
16233SOL    HW152104   7.888   5.541   0.480 -0.1326  0.7050 -0.5663
16233SOL    HW252105   8.011   5.481   0.544 -1.1303 -0.9003 -0.1094
16234SOL     OW52106   8.787   9.209   1.691  0.3127  0.4695 -0.4444
16234SOL    HW152107   8.737   9.205   1.772 -0.3181 -0.7515 -0.8745
16234SOL    HW252108   8.878   9.196   1.717  0.2935  1.5594  0.2148
16235SOL     OW52109   2.893   4.994   1.415  0.6572  0.4437  0.0308
16235SOL    HW152110   2.919   5.071   1.466  1.2012 -1.2539  2.4438
16235SOL    HW252111   2.804   4.975   1.444  0.7616 -0.1932 -0.0558
16236SOL     OW52112   1.584   6.821   4.392  0.5037 -1.5973 -0.4851
16236SOL    HW152113   1.547   6.797   4.307  1.5649 -2.1483 -0.7918
16236SOL    HW252114   1.581   6.741   4.444  0.6948 -1.4882 -0.3027
16237SOL     OW52115   0.208  10.123   9.126 -0.0517 -0.2004  0.6342
16237SOL    HW152116   0.238  10.136   9.036  0.1733  1.5071  0.9364
16237SOL    HW252117   0.133  10.065   9.118  0.8380 -1.2305 -0.5115
16238SOL     OW52118   9.849   8.059   0.254 -0.5366  0.9574  0.1194
16238SOL    HW152119   9.861   8.080   0.346 -1.9278 -0.4513  0.6296
16238SOL    HW252120   9.755   8.062   0.240 -0.3562  0.9323 -1.2070
16239SOL     OW52121   0.557   5.256   0.205  0.2052 -0.4874  0.2626
16239SOL    HW152122   0.474   5.303   0.195  1.4803  1.6390 -0.6710
16239SOL    HW252123   0.581   5.270   0.297  1.4804  2.3340 -0.4433
16240SOL     OW52124   1.184   4.673  10.629  0.5107 -0.0534  0.0798
16240SOL    HW152125   1.251   4.636  10.687  2.2417  2.2345 -0.3957
16240SOL    HW252126   1.202   4.767  10.629 -1.4109  0.3396 -1.7312
16241SOL     OW52127   9.918  10.626   2.396  0.5272  0.3555 -0.3858
16241SOL    HW152128   9.932  10.533   2.377  0.9840  0.5225 -0.8702
16241SOL    HW252129   9.961  10.640   2.480 -1.5685 -0.4081  0.8478
16242SOL     OW52130   1.781   0.354   3.066 -0.2642  0.0433 -0.4908
16242SOL    HW152131   1.834   0.361   3.145 -0.9525 -0.3236  0.0087
16242SOL    HW252132   1.692   0.375   3.094 -1.0532 -2.9646 -0.5020
16243SOL     OW52133   1.909   8.762   0.145 -0.0843 -0.8256 -0.0682
16243SOL    HW152134   1.923   8.702   0.073 -0.7810 -1.3900  0.2593
16243SOL    HW252135   1.841   8.721   0.198 -0.9989  0.5130 -0.1564
16244SOL     OW52136   2.456   4.117   3.037  0.1037  0.3860  0.2025
16244SOL    HW152137   2.372   4.076   3.014  0.1630 -0.9517  2.2608
16244SOL    HW252138   2.442   4.151   3.126  1.5480  0.7225  0.3060
16245SOL     OW52139   0.659   9.744   5.226  0.5905  0.1560  0.1656
16245SOL    HW152140   0.637   9.802   5.153 -0.3842 -2.3959 -1.5965
16245SOL    HW252141   0.752   9.725   5.215  0.2987 -0.7398 -0.8021
16246SOL     OW52142  10.506   4.989   4.514  0.3165  0.0797 -0.1657
16246SOL    HW152143  10.592   4.975   4.554  0.4163 -2.7660 -1.2174
16246SOL    HW252144  10.456   4.910   4.536 -1.7995  1.3541 -0.2153
16247SOL     OW52145   5.598   0.347   1.107  0.3074  0.2713  0.1315
16247SOL    HW152146   5.526   0.300   1.150  0.2076 -1.1111 -1.4659
16247SOL    HW252147   5.675   0.326   1.159 -0.3759  1.4691  1.6530
16248SOL     OW52148  10.952   5.669   1.959 -0.0440  0.1985  0.2242
16248SOL    HW152149  11.033   5.707   1.925  0.3733 -0.3583  0.5852
16248SOL    HW252150  10.944   5.585   1.914 -1.4594  1.0948 -1.2744
16249SOL     OW52151  10.610   1.462   5.528  0.1721  0.1817 -0.0284
16249SOL    HW152152  10.683   1.432   5.582  0.6191  2.0810  0.4619
16249SOL    HW252153  10.650   1.491   5.446 -0.3872 -1.6672 -0.9807
16250SOL     OW52154   0.316   5.138   1.712 -0.6395 -0.0296 -0.1755
16250SOL    HW152155   0.287   5.130   1.803 -0.5945 -1.5904 -0.2818
16250SOL    HW252156   0.314   5.048   1.679  0.0241  0.4431 -1.5089
16251SOL     OW52157   3.836   5.140   2.780  0.0217  0.0849 -0.4670
16251SOL    HW152158   3.872   5.052   2.771 -1.8014 -0.7507  0.1194
16251SOL    HW252159   3.746   5.126   2.810  0.0267  2.1713  0.6097
16252SOL     OW52160  10.388   8.730   6.996 -0.0734 -0.3908 -0.1202
16252SOL    HW152161  10.472   8.765   6.967  0.0186 -0.3619  0.1847
16252SOL    HW252162  10.400   8.635   6.995  0.6506 -0.3385  1.9899
16253SOL     OW52163   4.162   7.939   5.604 -0.3178  0.6152 -0.2449
16253SOL    HW152164   4.228   7.937   5.535  0.3687 -0.4489  0.4420
16253SOL    HW252165   4.082   7.909   5.562  0.3974 -1.3217 -0.2832
16254SOL     OW52166   3.488   9.104   2.916  0.2938  1.0105  0.1921
16254SOL    HW152167   3.557   9.054   2.873  0.5208  1.8452 -0.4184
16254SOL    HW252168   3.532   9.180   2.954  0.0351  0.4833  1.5877
16255SOL     OW52169   9.442   3.956  10.876  0.0050 -0.0940  0.4914
16255SOL    HW152170   9.416   3.870  10.909  0.3030 -0.1984  0.4533
16255SOL    HW252171   9.372   3.980  10.815  0.1184 -0.4766  0.2134
16256SOL     OW52172   3.167   4.333   3.080 -0.1645 -0.1999 -0.0518
16256SOL    HW152173   3.144   4.321   3.172 -0.7628 -2.0725 -0.4277
16256SOL    HW252174   3.147   4.425   3.062 -0.5626  0.0385  1.5296
16257SOL     OW52175   8.662   3.760  10.067 -0.3056  0.3394 -0.3222
16257SOL    HW152176   8.752   3.792  10.066 -0.0055 -0.4997 -1.7656
16257SOL    HW252177   8.616   3.816  10.005 -0.9300  1.1576  0.8664
16258SOL     OW52178   8.434  10.804   9.232  0.5067 -0.2682  0.3460
16258SOL    HW152179   8.375  10.799   9.308  0.3997  0.1021  0.2850
16258SOL    HW252180   8.452  10.712   9.210 -1.8363 -0.4245 -1.0266
16259SOL     OW52181   3.779   3.865   4.177 -0.0497 -0.4700  0.8735
16259SOL    HW152182   3.815   3.824   4.098 -1.6304  0.3221 -0.2798
16259SOL    HW252183   3.694   3.822   4.190 -0.1382 -0.0546  1.7041
16260SOL     OW52184   3.497   3.961   7.367  0.3703  0.0169 -0.1558
16260SOL    HW152185   3.569   3.905   7.337  0.2025 -0.6885  0.7287
16260SOL    HW252186   3.530   4.050   7.359  0.3973 -0.1588 -2.2776
16261SOL     OW52187   5.972   2.792  10.886 -0.2525  0.1059 -0.0696
16261SOL    HW152188   6.006   2.762  10.802  0.6977  0.6785  0.1101
16261SOL    HW252189   5.883   2.758  10.889 -0.3185  0.1505 -1.3370
16262SOL     OW52190   9.276   4.385   6.145 -0.1581 -0.0201 -0.0700
16262SOL    HW152191   9.317   4.302   6.120  0.7471 -0.1517  1.7388
16262SOL    HW252192   9.296   4.444   6.072  1.6481 -0.6112 -0.0787
16263SOL     OW52193   4.222   5.449  10.029 -0.0357 -0.2130  0.0713
16263SOL    HW152194   4.251   5.405  10.108 -0.4098  0.1504  0.4176
16263SOL    HW252195   4.244   5.389   9.958 -0.1548 -0.7636  0.4953
16264SOL     OW52196  10.913   0.770   8.058 -1.1528  0.1209 -0.7043
16264SOL    HW152197  10.833   0.729   8.027 -0.0439 -1.9101 -0.9498
16264SOL    HW252198  10.951   0.707   8.119  0.8488  0.5197 -1.4846
16265SOL     OW52199   3.901   1.906   3.563 -1.0603 -0.5936 -0.0158
16265SOL    HW152200   3.992   1.889   3.541 -0.4689  2.5177 -0.2613
16265SOL    HW252201   3.898   1.906   3.658 -0.2141  1.8115  0.0493
16266SOL     OW52202   4.799   5.930   1.873 -0.0681 -0.2070  0.1442
16266SOL    HW152203   4.705   5.924   1.854 -0.3225 -0.8764  1.5099
16266SOL    HW252204   4.807   5.895   1.962  1.1064  2.3069  1.0863
16267SOL     OW52205   1.291   5.583   8.677  0.3121  0.2315  0.3607
16267SOL    HW152206   1.309   5.611   8.587 -0.3548 -0.6145 -0.0444
16267SOL    HW252207   1.283   5.488   8.671 -0.7916  0.2673  1.1196
16268SOL     OW52208   1.500  10.370   1.458 -0.4189  0.2398  0.3046
16268SOL    HW152209   1.507  10.437   1.526 -0.8289  0.2810  0.3050
16268SOL    HW252210   1.413  10.331   1.471  0.4088 -1.3232  1.2676
16269SOL     OW52211   3.338   6.913   7.182  0.5236 -0.3030 -0.1815
16269SOL    HW152212   3.309   7.004   7.187 -0.2657 -0.6400  1.8818
16269SOL    HW252213   3.356   6.888   7.273 -0.2171 -2.5038 -0.6086
16270SOL     OW52214   6.648   5.339  10.716 -0.9130  0.4550 -0.0562
16270SOL    HW152215   6.644   5.430  10.684 -0.9350  0.2857 -0.5317
16270SOL    HW252216   6.690   5.290  10.646 -0.5984  0.1537  0.3423
16271SOL     OW52217   6.080   3.920   9.749  0.2594 -0.1271  0.4105
16271SOL    HW152218   6.163   3.958   9.719 -0.2273  1.0954  0.5918
16271SOL    HW252219   6.016   3.946   9.682  0.4288 -2.9578 -0.9092
16272SOL     OW52220   3.354   5.101   7.561 -0.4445  0.4623 -0.1103
16272SOL    HW152221   3.414   5.056   7.502  0.1650  0.0443  0.8024
16272SOL    HW252222   3.342   5.187   7.522 -0.3495  0.0620 -1.0381
16273SOL     OW52223   7.134  10.242   0.122  1.0123  0.1896 -0.0165
16273SOL    HW152224   7.146  10.186   0.046  0.1486 -0.0243  0.0019
16273SOL    HW252225   7.144  10.184   0.197 -2.0396 -0.4096 -0.0155
16274SOL     OW52226   2.332   0.988   3.226  0.3202 -0.0420  0.3372
16274SOL    HW152227   2.276   0.947   3.291 -0.6570 -2.0437 -1.7248
16274SOL    HW252228   2.390   0.918   3.196 -0.8677  0.2372 -2.6960
16275SOL     OW52229   4.709  10.727   3.867  0.4799  0.0854 -0.2523
16275SOL    HW152230   4.778  10.773   3.819  0.8387 -0.8871 -0.6837
16275SOL    HW252231   4.656  10.797   3.905  0.9608  0.8532 -0.9679
16276SOL     OW52232   7.181   2.099  10.952 -0.8656 -0.2030  0.3381
16276SOL    HW152233   7.207   2.033  10.888 -0.5922 -0.5630  0.8189
16276SOL    HW252234   7.247   2.093  11.021 -0.8125  0.6044  0.3629
16277SOL     OW52235   1.031   1.775   2.250 -0.2064  0.0217 -0.0627
16277SOL    HW152236   1.066   1.790   2.162 -2.7260  0.5591 -1.0266
16277SOL    HW252237   0.997   1.686   2.248 -0.6734  0.1902  0.2272
16278SOL     OW52238   3.489   0.397   9.110 -0.1655 -0.2036  0.1955
16278SOL    HW152239   3.507   0.490   9.098 -2.1430  0.0126 -1.1890
16278SOL    HW252240   3.427   0.375   9.041 -1.0796 -2.1510  1.6007
16279SOL     OW52241   1.576   9.775   9.788  0.2480  0.2830  0.2047
16279SOL    HW152242   1.581   9.699   9.846 -0.2166 -0.5360 -0.8153
16279SOL    HW252243   1.564   9.738   9.701 -0.8918  1.5628 -0.1893
16280SOL     OW52244   2.411   6.956   8.201  0.5123  0.1404  0.2095
16280SOL    HW152245   2.486   7.016   8.194 -0.2352  1.1445  0.6484
16280SOL    HW252246   2.345   7.007   8.248 -0.2525 -0.9297  0.2930
16281SOL     OW52247   9.175   2.467   0.694 -1.0888 -0.3246 -0.3983
16281SOL    HW152248   9.183   2.430   0.782  0.6192 -0.8084 -0.7461
16281SOL    HW252249   9.179   2.392   0.635  3.6104  0.3433 -1.1796
16282SOL     OW52250   1.279   3.711   1.503 -0.2273  0.4313 -0.0954
16282SOL    HW152251   1.260   3.795   1.544  0.2409  0.9084 -0.8345
16282SOL    HW252252   1.364   3.685   1.538  0.9863  1.6623 -1.9918
16283SOL     OW52253   5.166   0.218   0.097 -0.2314 -0.0534 -0.3028
16283SOL    HW152254   5.113   0.138   0.098 -2.3461  1.2766 -0.9059
16283SOL    HW252255   5.109   0.285   0.136  0.6173  1.6571 -1.8960
16284SOL     OW52256   1.381   3.323   4.493  0.2106  0.4803 -0.6559
16284SOL    HW152257   1.294   3.363   4.502  0.2961  0.4610  0.3100
16284SOL    HW252258   1.437   3.374   4.550  0.2114 -1.3222  1.0250
16285SOL     OW52259   8.116   5.688   5.889 -0.0489  0.3256 -0.2777
16285SOL    HW152260   8.142   5.780   5.883  1.1368  0.0672  0.7306
16285SOL    HW252261   8.160   5.646   5.815 -0.2972  0.4995 -0.5255
16286SOL     OW52262   6.750   5.212   4.471 -0.1310 -0.8626  0.1681
16286SOL    HW152263   6.839   5.206   4.436  0.4323 -0.0350  1.4089
16286SOL    HW252264   6.704   5.137   4.433  1.9431 -3.1203  1.9468
16287SOL     OW52265   7.191   0.754   0.169 -0.0986 -0.1095 -0.0514
16287SOL    HW152266   7.125   0.689   0.145 -0.0501  0.1935 -1.0050
16287SOL    HW252267   7.198   0.746   0.264 -1.1392 -0.4953  0.0030
16288SOL     OW52268  10.163   4.055   0.946 -0.6609  0.5587  0.4018
16288SOL    HW152269  10.214   4.093   1.018 -0.9697  2.1945 -0.2145
16288SOL    HW252270  10.073   4.084   0.964 -1.3177 -1.8190  1.1665
16289SOL     OW52271   5.582   7.941   1.893 -0.0086 -0.2937 -0.2848
16289SOL    HW152272   5.658   7.909   1.941 -0.1578  0.1244  0.2512
16289SOL    HW252273   5.509   7.930   1.954  0.4603  4.2233  1.3129
16290SOL     OW52274   1.413   8.017   2.935 -0.6029 -0.3212 -0.2937
16290SOL    HW152275   1.381   8.091   2.987  0.1384  0.1676 -0.5321
16290SOL    HW252276   1.358   8.019   2.856 -0.7575 -0.1865 -0.1850
16291SOL     OW52277   7.832   7.642   3.508  0.8821  0.3877 -0.3423
16291SOL    HW152278   7.858   7.639   3.600  0.1769 -0.9968 -0.1787
16291SOL    HW252279   7.914   7.632   3.460  1.2609  1.1869  0.1393
16292SOL     OW52280   5.011   3.433   5.132 -0.4893  0.6758  0.7072
16292SOL    HW152281   4.962   3.382   5.067  3.3952 -0.5491 -1.3915
16292SOL    HW252282   5.020   3.520   5.092  1.3564  0.1054 -0.1463
16293SOL     OW52283   0.019   5.567   5.590  0.3780  0.1992  0.0956
16293SOL    HW152284   0.102   5.520   5.585  0.3287  0.1306 -0.0900
16293SOL    HW252285   0.020   5.625   5.514 -0.3334 -0.7713 -0.6659
16294SOL     OW52286   3.612   5.944   6.009  0.1868  0.2321  0.0823
16294SOL    HW152287   3.692   5.994   5.992  1.0762 -1.1910  0.0514
16294SOL    HW252288   3.604   5.886   5.934 -0.2301 -0.4635  0.6694
16295SOL     OW52289   6.628   9.933   6.534  0.1938 -0.2961 -0.5975
16295SOL    HW152290   6.642  10.026   6.518  0.8817 -0.4253 -0.7229
16295SOL    HW252291   6.541   9.915   6.497 -0.4577  0.5582  0.4962
16296SOL     OW52292   4.798   5.734   6.516 -0.5237  0.2399  0.2399
16296SOL    HW152293   4.840   5.778   6.590 -0.4127  1.4031 -0.4963
16296SOL    HW252294   4.835   5.777   6.439 -0.5725 -1.0155 -0.5036
16297SOL     OW52295   1.624   0.944   2.419 -0.6440  0.0445 -0.2388
16297SOL    HW152296   1.718   0.928   2.412 -0.5256  0.2134  0.8788
16297SOL    HW252297   1.587   0.859   2.443 -0.3745  0.6816  2.6158
16298SOL     OW52298  10.830   9.206   8.079  0.0470  0.5171  0.9744
16298SOL    HW152299  10.906   9.225   8.024 -0.2751 -0.5050  0.1560
16298SOL    HW252300  10.759   9.258   8.040  0.0347  0.5046  0.9795
16299SOL     OW52301   8.342   8.443   7.865  0.1366  0.3796 -0.0850
16299SOL    HW152302   8.287   8.425   7.789  0.5689  0.1758 -0.3503
16299SOL    HW252303   8.431   8.446   7.830  0.2711  0.9616  0.3027
16300SOL     OW52304   0.858   2.852  10.110  0.5902 -0.5907  0.2742
16300SOL    HW152305   0.862   2.758  10.126 -3.0795 -0.3012  3.5777
16300SOL    HW252306   0.926   2.889  10.167 -0.0881 -1.0260  1.3792
16301SOL     OW52307   6.948   6.443   5.875  0.5889 -0.2818 -0.2921
16301SOL    HW152308   6.930   6.376   5.941 -1.6254 -0.1257 -0.7015
16301SOL    HW252309   6.917   6.405   5.793  0.7045  0.6541 -0.7712
16302SOL     OW52310   3.381   4.876   0.218  0.1560  0.2915  0.2466
16302SOL    HW152311   3.295   4.873   0.175 -0.3374  0.4526  1.2190
16302SOL    HW252312   3.444   4.874   0.145 -0.6538 -0.5304 -0.4521
16303SOL     OW52313   1.441   5.118   9.215  0.3308 -0.0446 -0.1980
16303SOL    HW152314   1.387   5.089   9.288  1.7595 -1.2940  0.4103
16303SOL    HW252315   1.469   5.037   9.173 -1.8299  0.6948 -3.1774
16304SOL     OW52316   6.902   1.539  10.214 -0.3590  0.6412 -0.1876
16304SOL    HW152317   6.951   1.491  10.148 -1.3466  0.6934 -0.9638
16304SOL    HW252318   6.852   1.472  10.260  0.0587  0.6483  0.2854
16305SOL     OW52319   7.449   0.330   6.592 -0.4603 -0.0906  0.3137
16305SOL    HW152320   7.412   0.242   6.601 -2.9154  1.0954  2.2914
16305SOL    HW252321   7.425   0.374   6.673  1.3334  2.2025 -0.3789
16306SOL     OW52322   1.308   5.292   9.014  0.1663  0.0823 -0.1764
16306SOL    HW152323   1.343   5.211   9.051 -0.7875  0.1624  0.9371
16306SOL    HW252324   1.311   5.279   8.919 -0.7204 -1.5760  0.0160
16307SOL     OW52325   9.279   4.914   1.881  0.3679 -0.0863 -0.2266
16307SOL    HW152326   9.373   4.903   1.874  0.3605 -0.5020  0.2748
16307SOL    HW252327   9.245   4.824   1.879 -0.1133  0.1146 -1.7369
16308SOL     OW52328  10.283   5.290   9.800  0.7898  0.8884 -0.1322
16308SOL    HW152329  10.372   5.255   9.803 -0.6360 -2.8970  1.3391
16308SOL    HW252330  10.242   5.256   9.879 -1.9192  2.7951 -0.6543
16309SOL     OW52331   2.630   9.133   8.399  0.0900 -0.4268  0.7905
16309SOL    HW152332   2.607   9.198   8.465  1.8844 -1.9506  2.9993
16309SOL    HW252333   2.550   9.119   8.349 -1.3177  0.7207  2.6952
16310SOL     OW52334   2.876   7.764   6.421  0.3937  0.0402 -0.1642
16310SOL    HW152335   2.965   7.729   6.429 -0.3195 -1.6653  0.6317
16310SOL    HW252336   2.822   7.700   6.468 -1.3641  0.5797 -1.4410
16311SOL     OW52337   9.972   8.320   7.175 -0.3099  0.3134 -0.1612
16311SOL    HW152338  10.033   8.278   7.235  0.8802 -0.7179 -2.0708
16311SOL    HW252339   9.886   8.288   7.203  0.1836  0.1386  1.2195
16312SOL     OW52340   5.396  10.129   6.509  0.4204  0.2042  0.1119
16312SOL    HW152341   5.359  10.042   6.523  0.3994  0.2918  0.5947
16312SOL    HW252342   5.411  10.163   6.597  1.7698  0.1185 -0.0827
16313SOL     OW52343  10.501   6.484   8.322 -0.4969  0.3182  0.1104
16313SOL    HW152344  10.583   6.439   8.299  0.2732  1.6518  0.1913
16313SOL    HW252345  10.436   6.449   8.261  0.3434 -0.0556 -0.5782
16314SOL     OW52346   7.036   1.240   2.736 -0.1638  0.0572  0.2041
16314SOL    HW152347   6.973   1.182   2.693  1.2168 -0.3827 -1.2618
16314SOL    HW252348   7.122   1.206   2.711  0.6739  1.2767  1.3222
16315SOL     OW52349   0.498   6.353   8.437 -0.4339 -0.0928 -0.2555
16315SOL    HW152350   0.526   6.444   8.443  2.3254 -0.9659  1.1114
16315SOL    HW252351   0.492   6.323   8.528 -1.8663 -1.1230 -0.6716
16316SOL     OW52352   5.184   0.486   6.725 -0.6970 -0.0637  0.0820
16316SOL    HW152353   5.161   0.443   6.808 -2.7962 -0.0086 -0.4383
16316SOL    HW252354   5.159   0.423   6.658 -0.2341  0.4321 -0.5548
16317SOL     OW52355   5.057   8.340   1.895  0.1922 -0.2167 -1.0167
16317SOL    HW152356   5.136   8.316   1.847 -0.0723  1.9919 -2.6365
16317SOL    HW252357   5.089   8.390   1.971  0.4326 -0.7056 -0.7984
16318SOL     OW52358   3.225   7.940   0.093  0.0504  0.0703 -0.1434
16318SOL    HW152359   3.164   7.873   0.062 -2.6949  1.8936  1.1781
16318SOL    HW252360   3.229   8.004   0.022  0.6625 -0.1663 -0.3316
16319SOL     OW52361   6.753   5.119   7.272 -0.1989  0.0551 -0.3663
16319SOL    HW152362   6.695   5.044   7.287 -0.4399  0.2469 -0.3300
16319SOL    HW252363   6.694   5.194   7.269  0.3035  0.6012  2.3806
16320SOL     OW52364   9.830   7.315   7.548  0.8112 -0.7808 -0.0719
16320SOL    HW152365   9.784   7.371   7.611 -1.0896  0.0098 -2.0828
16320SOL    HW252366   9.895   7.268   7.600  1.2152  1.9436  1.9627
16321SOL     OW52367   1.069   4.559   3.819  0.0215 -0.5035 -0.2901
16321SOL    HW152368   1.133   4.625   3.844 -0.1810 -0.1416 -0.7069
16321SOL    HW252369   1.015   4.603   3.753 -1.4148 -0.3819  0.9342
16322SOL     OW52370   0.916   5.722   1.657 -0.1824 -0.1616 -0.1412
16322SOL    HW152371   0.878   5.688   1.738  2.1269  0.3052  1.1991
16322SOL    HW252372   0.911   5.648   1.596 -1.0761 -0.8386  0.7319
16323SOL     OW52373   8.733   9.459   3.111  0.3560 -0.3081 -0.3186
16323SOL    HW152374   8.828   9.450   3.114  0.5312  1.4507 -0.0725
16323SOL    HW252375   8.701   9.369   3.097  2.0411 -0.8848 -0.6179
16324SOL     OW52376   0.249   0.739  10.556  0.1332  0.1031 -0.8282
16324SOL    HW152377   0.166   0.703  10.524 -1.1582  1.5982  0.7314
16324SOL    HW252378   0.254   0.826  10.516  0.7677  0.1677 -0.6179
16325SOL     OW52379   8.633   6.678   1.667 -0.4046  0.2027 -0.2320
16325SOL    HW152380   8.641   6.688   1.572 -0.7813 -1.5040 -0.4597
16325SOL    HW252381   8.721   6.696   1.700  0.0712 -0.5934 -1.0443
16326SOL     OW52382   3.867   0.760   8.992 -0.5634  0.1278 -0.2979
16326SOL    HW152383   3.922   0.799   9.060 -0.1650  1.0193 -1.1096
16326SOL    HW252384   3.893   0.668   8.989  0.7420  0.4915 -0.5268
16327SOL     OW52385   5.633   4.575   2.406  0.3281 -0.7241 -0.2108
16327SOL    HW152386   5.707   4.514   2.413  1.4788  0.4070 -2.1761
16327SOL    HW252387   5.584   4.545   2.330 -0.9339 -1.1068  0.7353
16328SOL     OW52388   6.650   1.786   1.729  0.0103 -0.1361 -0.3840
16328SOL    HW152389   6.661   1.876   1.700  0.1277  0.3634  1.1936
16328SOL    HW252390   6.730   1.767   1.779 -0.9991 -0.3828  1.1476
16329SOL     OW52391  10.880   8.646   9.345  0.1742  0.0221  0.0718
16329SOL    HW152392  10.823   8.574   9.320  1.9278 -1.5300  0.4607
16329SOL    HW252393  10.858   8.716   9.283  0.6100 -1.8714 -2.3047
16330SOL     OW52394   7.372   7.975   2.030 -0.2051  0.6083  0.2469
16330SOL    HW152395   7.310   7.906   2.054 -0.5430 -0.0884 -2.4386
16330SOL    HW252396   7.458   7.939   2.052 -0.4656 -0.1839 -0.0071
16331SOL     OW52397   5.414   0.271   0.485  0.0954  0.7454  0.4459
16331SOL    HW152398   5.353   0.262   0.557 -0.1082 -0.6246  0.1113
16331SOL    HW252399   5.454   0.357   0.498 -0.7507  0.9783  1.5483
16332SOL     OW52400   3.719   5.408   6.454  0.2829  0.4396  0.1164
16332SOL    HW152401   3.770   5.340   6.410  0.1514  0.4409 -0.0378
16332SOL    HW252402   3.759   5.416   6.540  0.5556  0.4565 -0.0121
16333SOL     OW52403   1.456  10.424   8.027  0.1262 -0.1508  0.9281
16333SOL    HW152404   1.381  10.472   7.992  0.8510 -0.3695 -0.9440
16333SOL    HW252405   1.524  10.491   8.039  0.7231 -0.4800 -0.5178
16334SOL     OW52406  10.119   7.380   7.671  0.6627 -0.1680 -0.1885
16334SOL    HW152407  10.066   7.410   7.746  0.5623  0.8698 -0.6628
16334SOL    HW252408  10.096   7.288   7.661  1.2262 -0.5103  1.5262
16335SOL     OW52409   9.085   3.599   6.545  0.1790  0.0086  0.0113
16335SOL    HW152410   9.162   3.647   6.514  0.4833 -1.1670 -1.1112
16335SOL    HW252411   9.054   3.649   6.620  1.8110  0.7304  0.2306
16336SOL     OW52412   5.659   6.073   2.117 -0.2033 -0.2435 -0.1240
16336SOL    HW152413   5.675   6.063   2.211 -0.1145 -0.4886 -0.1656
16336SOL    HW252414   5.602   6.000   2.094  0.0874 -0.4063 -0.3369
16337SOL     OW52415   7.013   3.881   8.343 -0.2746 -0.6891 -0.1594
16337SOL    HW152416   6.973   3.831   8.415  0.2939 -0.3757  0.3849
16337SOL    HW252417   7.070   3.818   8.299 -0.9809 -1.0039 -0.6205
16338SOL     OW52418  10.421   5.071  10.162  0.4533 -0.6382 -0.1291
16338SOL    HW152419  10.453   5.013  10.231 -0.0020 -0.3092  0.3647
16338SOL    HW252420  10.497   5.085  10.106  0.7764 -1.0791  0.1881
16339SOL     OW52421  10.347   9.843   7.671 -0.0426 -0.3953 -0.1841
16339SOL    HW152422  10.427   9.820   7.623 -0.6615  0.4069 -1.6623
16339SOL    HW252423  10.303   9.906   7.614 -0.7447  0.7162  1.5485
16340SOL     OW52424   2.409   8.277   5.236  0.0433  0.8398 -0.1108
16340SOL    HW152425   2.492   8.233   5.256 -0.0121  1.2040  0.9728
16340SOL    HW252426   2.348   8.206   5.217  0.2655  0.5038  0.4170
16341SOL     OW52427   7.192   0.444   7.942 -0.1252  0.1984 -0.4830
16341SOL    HW152428   7.160   0.533   7.930  0.7177  0.5595 -0.0935
16341SOL    HW252429   7.144   0.392   7.878 -1.1129  0.8151 -0.2469
16342SOL     OW52430   4.805   3.590   7.876  0.2757 -0.2220  0.0465
16342SOL    HW152431   4.816   3.532   7.952 -0.1762 -0.3294  0.0279
16342SOL    HW252432   4.763   3.535   7.810  1.8849 -0.5260 -0.7641
16343SOL     OW52433   7.954   2.488   2.057 -0.3689 -0.0277  0.0576
16343SOL    HW152434   7.868   2.527   2.042 -0.2284  0.4170  0.3813
16343SOL    HW252435   7.952   2.405   2.010 -0.4020  0.7158 -1.2656
16344SOL     OW52436   6.398   8.598   4.310  0.0967 -0.1942 -0.3162
16344SOL    HW152437   6.305   8.573   4.312  0.4434 -1.5074 -0.4015
16344SOL    HW252438   6.426   8.578   4.221  0.3052  0.8452 -0.4992
16345SOL     OW52439   7.616  10.663   7.156  0.4399 -0.3817 -0.1242
16345SOL    HW152440   7.641  10.573   7.180  1.4634 -0.2223 -0.5733
16345SOL    HW252441   7.648  10.673   7.067  0.0600  0.3382 -0.1786
16346SOL     OW52442   4.414  10.295   8.798  0.5296 -0.1464 -0.3623
16346SOL    HW152443   4.342  10.234   8.814  1.2854 -0.5834  1.4675
16346SOL    HW252444   4.493  10.244   8.815  1.2022  1.0300  0.0708
16347SOL     OW52445   6.752   3.888   0.756  0.0356 -0.1135 -0.2723
16347SOL    HW152446   6.687   3.887   0.685 -0.4041  0.8137  0.1209
16347SOL    HW252447   6.709   3.842   0.828  0.0748 -0.0899 -0.2340
16348SOL     OW52448   0.786   4.917   1.214 -0.0717 -0.4940  0.2867
16348SOL    HW152449   0.765   4.851   1.280 -2.5583  2.2464  2.3531
16348SOL    HW252450   0.783   5.000   1.261 -0.9702  1.4550 -3.0410
16349SOL     OW52451   7.446   8.364   0.350  0.2682  0.8806 -0.3631
16349SOL    HW152452   7.480   8.388   0.435 -0.3065  1.4848 -0.3009
16349SOL    HW252453   7.489   8.280   0.329 -0.8740 -0.1286  1.2704
16350SOL     OW52454   6.651   1.038   8.246 -0.3979 -0.7937  0.1190
16350SOL    HW152455   6.578   1.027   8.306  0.2583  0.3337  1.1360
16350SOL    HW252456   6.726   1.000   8.292  0.0729 -0.0783 -0.0590
16351SOL     OW52457   7.217   3.756  10.818  0.1485  0.7938  0.7616
16351SOL    HW152458   7.260   3.751  10.903 -0.1827  0.9859  0.9456
16351SOL    HW252459   7.130   3.718  10.833  0.3576  0.1548  0.3281
16352SOL     OW52460   5.924   9.972   0.643  0.5276 -0.2311 -0.1856
16352SOL    HW152461   5.966  10.004   0.563 -0.7787 -1.3157 -1.3537
16352SOL    HW252462   5.961  10.025   0.713  1.8087  0.6519 -1.4996
16353SOL     OW52463  10.038  10.708   0.489  0.0933  0.4415 -0.4148
16353SOL    HW152464   9.989  10.721   0.408 -2.3556  0.6699  1.0625
16353SOL    HW252465  10.060  10.614   0.488 -0.7156  0.2459 -0.9199
16354SOL     OW52466   1.400   1.248   0.674 -0.3926  0.3392 -0.2193
16354SOL    HW152467   1.431   1.282   0.590  0.7641  1.3649  0.6116
16354SOL    HW252468   1.479   1.240   0.728 -1.1260 -0.2626  0.7893
16355SOL     OW52469   2.141   0.448   0.362 -0.8875 -0.0962  0.0722
16355SOL    HW152470   2.153   0.516   0.296 -2.5009  0.2255  0.1054
16355SOL    HW252471   2.205   0.381   0.339 -0.2559  0.7932 -0.7930
16356SOL     OW52472   9.279   8.753   9.748  0.3801  0.6946 -0.0744
16356SOL    HW152473   9.200   8.806   9.738 -1.2349 -1.7671 -0.9081
16356SOL    HW252474   9.287   8.741   9.843 -0.9538 -0.0355 -0.0370
16357SOL     OW52475   9.291   5.694   2.866  0.9583 -0.0888  0.1478
16357SOL    HW152476   9.231   5.733   2.802  0.8451  0.0301  0.3281
16357SOL    HW252477   9.234   5.646   2.926  1.0542 -0.0723  0.2516
16358SOL     OW52478   8.814   8.395   7.408 -0.1226  0.5481 -0.2291
16358SOL    HW152479   8.737   8.372   7.460  1.9803 -1.6114  2.0491
16358SOL    HW252480   8.844   8.311   7.372  1.7350  1.2398 -0.3054
16359SOL     OW52481   0.781   5.856   5.613 -0.1001  0.0465  0.2975
16359SOL    HW152482   0.837   5.916   5.662 -0.2810  0.2896  0.2051
16359SOL    HW252483   0.782   5.776   5.666 -0.8488  0.5333  1.0649
16360SOL     OW52484   4.467   0.325   2.614  0.1346  0.0384 -0.1123
16360SOL    HW152485   4.516   0.364   2.541 -0.7536  1.6379  0.1273
16360SOL    HW252486   4.511   0.358   2.692 -0.3331  0.2028  0.0858
16361SOL     OW52487   9.219   0.637   2.122 -0.5958 -0.2572  0.0826
16361SOL    HW152488   9.214   0.717   2.174 -1.4389 -0.2669  0.0209
16361SOL    HW252489   9.139   0.588   2.144  1.7642 -2.9979  3.1942
16362SOL     OW52490   0.374   2.536   6.751  0.3323 -0.5408 -0.2717
16362SOL    HW152491   0.344   2.589   6.676 -1.1236 -1.8212 -0.6158
16362SOL    HW252492   0.459   2.502   6.723  0.9328  0.9912 -0.3523
16363SOL     OW52493   0.756   1.284   2.642 -0.2462 -0.3362 -0.3185
16363SOL    HW152494   0.848   1.295   2.666  0.0594 -2.4351 -0.4484
16363SOL    HW252495   0.707   1.325   2.714  0.7583 -0.9079  0.6979
16364SOL     OW52496   3.017   1.021   9.636  0.1794  0.0464 -0.3635
16364SOL    HW152497   3.006   0.929   9.663  0.6883 -0.1396 -0.7808
16364SOL    HW252498   3.109   1.040   9.652 -0.1187  0.7613  0.5404
16365SOL     OW52499   1.794   2.470   5.429  0.1919 -0.2768  0.3430
16365SOL    HW152500   1.840   2.408   5.486 -0.0659  0.2017  1.0774
16365SOL    HW252501   1.775   2.545   5.485 -0.3358  0.0757 -0.2959
16366SOL     OW52502   9.028   9.227  10.006 -0.2125  0.0662 -0.0176
16366SOL    HW152503   9.121   9.247  10.017 -0.5694  0.7908  2.0448
16366SOL    HW252504   9.012   9.234   9.912  1.2389  2.6579 -0.1181
16367SOL     OW52505   8.902   5.889   6.883 -0.3578  0.3045 -0.4306
16367SOL    HW152506   8.858   5.972   6.864  0.2560  0.5756 -0.6763
16367SOL    HW252507   8.993   5.913   6.899 -0.4443 -0.1620  0.8348
16368SOL     OW52508   9.764   9.735   3.914 -0.0058 -0.1767 -0.4903
16368SOL    HW152509   9.706   9.772   3.980 -2.1070 -2.6855 -0.8309
16368SOL    HW252510   9.726   9.763   3.830  1.2244  0.9432 -0.6886
16369SOL     OW52511   1.276   6.066   4.026  0.2191  0.5956  0.4311
16369SOL    HW152512   1.213   6.031   3.964 -0.1554  1.5040  0.2918
16369SOL    HW252513   1.328   5.990   4.052  0.4923  0.2402 -1.1089
16370SOL     OW52514   1.609  10.296  10.268 -0.3311 -0.0315  0.5310
16370SOL    HW152515   1.697  10.324  10.243 -0.4266  0.4845  0.7582
16370SOL    HW252516   1.555  10.374  10.254 -1.1780 -0.9607 -1.7789
16371SOL     OW52517   7.730   6.588   2.187  0.5346  0.2997 -0.4518
16371SOL    HW152518   7.726   6.543   2.103  0.3346  2.8714 -1.8627
16371SOL    HW252519   7.640   6.585   2.221  0.5326 -0.3580 -0.5083
16372SOL     OW52520   9.875   5.543   3.544 -0.4601  0.2413 -0.5616
16372SOL    HW152521   9.885   5.549   3.449  1.0974  0.0417 -0.4242
16372SOL    HW252522   9.838   5.627   3.570  1.4551  1.2730 -1.0735
16373SOL     OW52523   8.211   0.183   3.810 -0.4593 -0.1966  0.1298
16373SOL    HW152524   8.279   0.121   3.783  1.9592  2.5083 -0.2106
16373SOL    HW252525   8.184   0.152   3.897  1.9516 -0.7638  0.7354
16374SOL     OW52526   3.930   3.599   2.791 -0.6582 -0.7072 -0.3107
16374SOL    HW152527   3.913   3.664   2.859 -0.2755 -1.1573  0.2129
16374SOL    HW252528   3.861   3.534   2.801 -1.0905 -0.3436 -0.8886
16375SOL     OW52529   9.690   9.386   9.168 -0.1737 -0.2863  0.0506
16375SOL    HW152530   9.642   9.440   9.105  0.5817 -0.6763 -0.8714
16375SOL    HW252531   9.661   9.418   9.253 -1.4919  0.0057 -0.4804
16376SOL     OW52532   6.698   1.060   8.818 -0.3601  0.0904 -0.2058
16376SOL    HW152533   6.638   1.011   8.874  1.1914 -0.1573  1.3062
16376SOL    HW252534   6.663   1.149   8.816  0.1310  0.3569  2.0440
16377SOL     OW52535   6.307   5.578   1.786 -0.3957  0.4613  0.1141
16377SOL    HW152536   6.314   5.524   1.707  1.3913 -0.4700  0.8791
16377SOL    HW252537   6.375   5.544   1.844 -1.3881  1.4274  1.8866
16378SOL     OW52538   1.468   9.879   7.610  0.5194 -0.0450  0.1335
16378SOL    HW152539   1.484   9.792   7.645  1.5768  0.0625 -0.0557
16378SOL    HW252540   1.454   9.934   7.687 -2.4670 -0.7963  0.1804
16379SOL     OW52541   7.134   4.821   5.685  0.4194  0.1827  0.6900
16379SOL    HW152542   7.087   4.748   5.644  0.7803  0.7703 -0.8003
16379SOL    HW252543   7.099   4.825   5.775 -1.6155 -0.0496 -0.0668
16380SOL     OW52544   9.484   9.780   2.573 -0.2832  0.7071 -0.7182
16380SOL    HW152545   9.554   9.824   2.622 -1.6154 -0.1257  2.0773
16380SOL    HW252546   9.404   9.811   2.616 -1.3783 -2.1259 -0.6263
16381SOL     OW52547   7.843   9.421   2.169 -0.0635 -0.0816  0.0468
16381SOL    HW152548   7.893   9.439   2.248  0.0841  0.1640 -0.1018
16381SOL    HW252549   7.884   9.475   2.102 -2.4217  2.4579  0.5795
16382SOL     OW52550   5.154   9.826   6.181  0.1868  0.5068 -0.1929
16382SOL    HW152551   5.214   9.885   6.226 -0.6504  1.4630 -0.3148
16382SOL    HW252552   5.103   9.786   6.251  0.4080  0.3083 -0.1445
16383SOL     OW52553   8.145   6.585   5.042 -1.0283 -0.5310 -0.1875
16383SOL    HW152554   8.152   6.602   4.948 -0.0603 -2.2727 -0.4497
16383SOL    HW252555   8.089   6.508   5.049 -0.1760 -1.0998  0.5890
16384SOL     OW52556   4.540   7.743   8.522 -0.2015 -0.0496  0.0351
16384SOL    HW152557   4.532   7.811   8.589 -1.1163  0.4482 -0.5752
16384SOL    HW252558   4.484   7.672   8.555 -1.5295  0.6242 -0.7208
16385SOL     OW52559   4.487  10.260   5.653  0.4633 -0.1986  0.7505
16385SOL    HW152560   4.484  10.331   5.717 -0.1773  0.2680  0.2166
16385SOL    HW252561   4.505  10.304   5.570 -2.1362 -0.3916  0.0490
16386SOL     OW52562   0.315   5.762   9.187 -0.0375  0.0111  0.4480
16386SOL    HW152563   0.410   5.759   9.189  0.0156  0.7652 -0.4423
16386SOL    HW252564   0.294   5.855   9.187 -0.7598 -0.1473  0.1150
16387SOL     OW52565   7.165   0.052   6.212 -0.2927  0.2617  0.1427
16387SOL    HW152566   7.153   0.064   6.117  0.2517 -1.9303 -0.2319
16387SOL    HW252567   7.078   0.029   6.244  0.1155 -2.0766 -0.3519
16388SOL     OW52568  10.729   5.930  10.014  0.2000  0.3605  0.0107
16388SOL    HW152569  10.717   5.858  10.075 -0.9024 -0.4876 -1.1658
16388SOL    HW252570  10.733   5.888   9.928 -1.0649  1.7314 -0.7473
16389SOL     OW52571   4.161   7.694   3.543  0.1268  0.3270  0.0022
16389SOL    HW152572   4.076   7.713   3.583 -0.3738  0.6444 -1.1749
16389SOL    HW252573   4.208   7.777   3.544  0.9392 -0.1447  1.8390
16390SOL     OW52574   1.768   3.130   8.740  0.3767 -0.3420  0.2074
16390SOL    HW152575   1.833   3.188   8.779  1.3964 -1.3813  0.0904
16390SOL    HW252576   1.716   3.099   8.815 -0.4465  1.0287  0.2235
16391SOL     OW52577   8.808   6.464  10.894  0.3646 -0.5660  0.2197
16391SOL    HW152578   8.864   6.421  10.958  1.2311  0.7822  0.3944
16391SOL    HW252579   8.867   6.521  10.845 -0.9316  1.3632  0.8294
16392SOL     OW52580   7.509   7.754   0.074 -0.0100 -0.0298 -0.1311
16392SOL    HW152581   7.487   7.846   0.091 -0.6510  0.0021 -1.0665
16392SOL    HW252582   7.551   7.756  -0.013  0.9448 -0.4850  0.3190
16393SOL     OW52583   0.444  10.481   3.308 -0.4241 -0.0103 -0.1488
16393SOL    HW152584   0.403  10.567   3.296  1.6074  0.6768 -2.4263
16393SOL    HW252585   0.525  10.499   3.356  1.2118 -0.2853 -2.6965
16394SOL     OW52586   5.883   3.366   2.557 -0.3342  0.0089 -0.0588
16394SOL    HW152587   5.843   3.365   2.644  0.0551  2.5500  0.1747
16394SOL    HW252588   5.885   3.274   2.532 -0.7961 -0.7476  2.4568
16395SOL     OW52589   1.184   1.883   8.209 -0.2497  0.0567 -0.0670
16395SOL    HW152590   1.261   1.929   8.177  0.3280 -1.0438 -0.2843
16395SOL    HW252591   1.184   1.900   8.304 -0.8128  1.6161 -0.3328
16396SOL     OW52592   7.139   1.800   0.203 -0.3070  0.2294 -0.8855
16396SOL    HW152593   7.114   1.884   0.240 -0.8241  0.9218 -2.7540
16396SOL    HW252594   7.061   1.770   0.157  0.1957 -0.7964 -1.0807
16397SOL     OW52595   8.506   6.428   2.787 -0.2415  0.1037  0.0499
16397SOL    HW152596   8.598   6.409   2.803  0.0565  0.1593 -1.5284
16397SOL    HW252597   8.494   6.518   2.816  0.7373  0.8419 -1.7489
16398SOL     OW52598  10.196   0.282   2.218  0.6229  0.3009 -0.7072
16398SOL    HW152599  10.253   0.332   2.159  0.5390  0.3667 -0.7306
16398SOL    HW252600  10.241   0.197   2.227  1.0527  0.5840 -0.2072
16399SOL     OW52601   0.409   6.455   4.371 -0.9095 -0.3995  0.3846
16399SOL    HW152602   0.456   6.512   4.432 -0.9902  1.3469 -1.1652
16399SOL    HW252603   0.466   6.449   4.295 -0.2100 -3.6573  1.1098
16400SOL     OW52604   6.994   2.040   1.662 -0.2499 -0.1255  0.1112
16400SOL    HW152605   7.004   2.135   1.653 -0.4284 -0.2401 -1.3004
16400SOL    HW252606   7.047   2.004   1.591 -0.3378 -1.0808  0.5340
16401SOL     OW52607   2.011  10.956   4.878 -0.1380 -0.1969  0.2140
16401SOL    HW152608   2.009  11.052   4.871  0.2763 -0.2212 -0.2749
16401SOL    HW252609   1.934  10.927   4.830 -0.6386 -0.0752  0.9413
16402SOL     OW52610   6.060   6.302   1.605 -0.7503 -0.7349 -0.1227
16402SOL    HW152611   6.155   6.287   1.611 -0.8649 -1.9026 -1.0846
16402SOL    HW252612   6.036   6.336   1.692  0.6049 -0.0596  0.0020
16403SOL     OW52613  10.634   4.295   3.734  0.0907 -0.0445  0.4085
16403SOL    HW152614  10.703   4.362   3.732 -1.7153  1.8707  1.2469
16403SOL    HW252615  10.557   4.340   3.767 -1.2257 -2.5157  0.8477
16404SOL     OW52616   8.343   7.178   3.685  0.3979  0.0760  0.1889
16404SOL    HW152617   8.404   7.173   3.758  1.2270 -0.7472 -0.5430
16404SOL    HW252618   8.331   7.087   3.658 -1.1673  0.2236  0.3267
16405SOL     OW52619   5.067   2.503   8.142  0.2262  0.1441 -0.3975
16405SOL    HW152620   4.980   2.541   8.133 -0.0669 -0.6846 -1.0090
16405SOL    HW252621   5.061   2.446   8.219  0.4594  0.7010  0.0476
16406SOL     OW52622   3.554   6.445   9.240  0.3493  0.1940 -0.2703
16406SOL    HW152623   3.640   6.462   9.277  0.2313  2.6810 -1.0650
16406SOL    HW252624   3.496   6.506   9.284 -0.7935 -0.6093 -0.6321
16407SOL     OW52625   4.283   9.405   0.831 -0.1175 -0.1190  0.8909
16407SOL    HW152626   4.247   9.327   0.788  1.4377  1.0172 -2.6576
16407SOL    HW252627   4.322   9.371   0.912 -0.3017 -2.8584 -0.1085
16408SOL     OW52628   7.053   0.720   8.498  0.0746 -0.4764  0.6471
16408SOL    HW152629   7.093   0.748   8.580 -0.5769 -1.0083  1.1494
16408SOL    HW252630   7.106   0.646   8.469 -0.8404 -1.5141  1.5818
16409SOL     OW52631   4.764   5.313   5.711 -0.0334 -0.0888  0.6554
16409SOL    HW152632   4.805   5.303   5.797  0.0032  2.1383  0.9203
16409SOL    HW252633   4.684   5.361   5.728 -0.5162 -0.4778 -0.4533
16410SOL     OW52634   8.557   4.469   0.801 -0.8055 -0.5019  0.1096
16410SOL    HW152635   8.652   4.482   0.802 -0.8736 -0.0600  1.0569
16410SOL    HW252636   8.520   4.557   0.801 -1.2100 -0.6669 -1.2214
16411SOL     OW52637   1.571  10.755   4.064 -0.2934 -0.7160  0.3370
16411SOL    HW152638   1.643  10.765   4.127 -0.0275  0.3704 -0.1306
16411SOL    HW252639   1.607  10.786   3.981 -1.7376  1.2674  0.4047
16412SOL     OW52640   3.594   6.242   6.240 -0.3582  0.1033 -0.4547
16412SOL    HW152641   3.584   6.206   6.328 -0.0649 -0.3924 -0.6186
16412SOL    HW252642   3.569   6.169   6.183 -1.1847  0.6226 -0.7720
16413SOL     OW52643   1.959  10.962   1.987 -0.2983  0.2824  0.4235
16413SOL    HW152644   1.931  11.048   1.954  0.7819  1.0238  1.3739
16413SOL    HW252645   1.877  10.915   2.003 -0.8759  0.6769 -1.2772
16414SOL     OW52646   9.978   0.798   1.826  0.2994  0.3106 -0.0538
16414SOL    HW152647  10.007   0.884   1.796 -0.3689  0.4880 -0.1886
16414SOL    HW252648  10.054   0.741   1.812 -0.2265  0.2099 -2.8402
16415SOL     OW52649   6.092   8.052   5.014 -0.0381 -0.0495 -0.1383
16415SOL    HW152650   6.032   8.036   5.087  1.6234 -0.2895  1.2111
16415SOL    HW252651   6.141   8.130   5.040  0.8235 -0.3507 -0.8301
16416SOL     OW52652   9.027   2.293   4.233  0.2701  0.6861  0.0118
16416SOL    HW152653   8.979   2.211   4.223  2.1858 -0.4499 -0.1908
16416SOL    HW252654   8.987   2.335   4.309  0.6486 -1.4625  1.4424
16417SOL     OW52655   7.835   7.738   4.348  0.4668 -0.7370  0.0305
16417SOL    HW152656   7.881   7.669   4.300 -1.1744 -1.6603 -0.2231
16417SOL    HW252657   7.797   7.794   4.280  0.3929 -0.5172  0.2525
16418SOL     OW52658   0.783   1.993   8.929  0.3370 -0.6827 -0.3126
16418SOL    HW152659   0.838   1.949   8.863  0.4807 -1.0309  0.0393
16418SOL    HW252660   0.789   1.937   9.006  0.9969  0.2603  0.3236
16419SOL     OW52661   2.961   1.253   7.335  0.1827  0.1899 -0.1242
16419SOL    HW152662   2.907   1.306   7.277 -2.1057  0.3703  2.1028
16419SOL    HW252663   3.031   1.312   7.363 -1.0014  1.3304  0.4677
16420SOL     OW52664   9.975   8.507   0.599  0.2847 -0.3686 -0.6351
16420SOL    HW152665  10.070   8.509   0.590  0.2743  0.1412 -0.6040
16420SOL    HW252666   9.943   8.485   0.511  0.3998  0.1100 -0.7983
16421SOL     OW52667   4.202   8.269   9.182  0.0108  0.0037  0.1633
16421SOL    HW152668   4.145   8.281   9.257  0.5643  2.0971  0.2974
16421SOL    HW252669   4.234   8.179   9.189 -0.3276  0.0286  2.1478
16422SOL     OW52670  10.062   5.193   1.137  0.1080  0.4875 -0.2522
16422SOL    HW152671  10.077   5.126   1.070 -1.5561 -0.9845  0.7768
16422SOL    HW252672  10.124   5.173   1.207  1.6979  1.8932 -1.2337
16423SOL     OW52673   8.222   2.836   3.101  0.4865  0.1886 -0.7178
16423SOL    HW152674   8.142   2.879   3.072 -0.3321 -1.1184 -0.4543
16423SOL    HW252675   8.216   2.747   3.066  0.3804 -0.8351  1.7682
16424SOL     OW52676   8.163   9.565   4.749  0.3563  0.0905 -0.2508
16424SOL    HW152677   8.196   9.570   4.660  0.3787 -1.1190 -0.3259
16424SOL    HW252678   8.098   9.494   4.747 -0.9249  1.2366  0.3036
16425SOL     OW52679  10.544   8.048  10.599 -0.8433 -0.2500  0.0810
16425SOL    HW152680  10.508   7.973  10.647 -1.9120 -0.2941 -0.7626
16425SOL    HW252681  10.559   8.115  10.666 -0.1134 -1.1195  0.8035
16426SOL     OW52682   4.689   0.527   9.856 -0.0363  0.5757  0.0265
16426SOL    HW152683   4.618   0.539   9.793  0.6642  0.5176 -0.7759
16426SOL    HW252684   4.660   0.574   9.934 -0.5230  1.3729 -0.6277
16427SOL     OW52685   7.449   6.520   7.343  0.3182  0.2012  0.5707
16427SOL    HW152686   7.461   6.557   7.256  0.1281  0.6924  0.7522
16427SOL    HW252687   7.397   6.585   7.390  1.7933  0.6892  1.5674
16428SOL     OW52688   5.388   4.007   3.054  0.2181  0.8828 -0.1342
16428SOL    HW152689   5.443   3.932   3.076 -0.2877  0.5375 -0.0116
16428SOL    HW252690   5.344   3.981   2.973  0.2407  1.1564 -0.2342
16429SOL     OW52691   7.602   9.571   8.130 -0.3494 -0.1754  0.0913
16429SOL    HW152692   7.510   9.544   8.126  0.1088 -1.5295 -2.1929
16429SOL    HW252693   7.617   9.591   8.222 -2.6892 -0.8330  0.6515
16430SOL     OW52694   3.186   2.770   4.617  0.0680  0.0240 -0.0290
16430SOL    HW152695   3.234   2.745   4.538  0.7223 -0.3797  0.4905
16430SOL    HW252696   3.141   2.851   4.593  1.1702  0.5204 -0.4574
16431SOL     OW52697   6.215   1.891   9.231  0.0674 -0.4788 -0.2479
16431SOL    HW152698   6.216   1.894   9.136  1.9657  0.1757 -0.2192
16431SOL    HW252699   6.244   1.977   9.259 -1.0650 -0.4585  0.9538
16432SOL     OW52700   9.304   7.957   8.043  0.5171 -0.1847  0.2258
16432SOL    HW152701   9.262   7.897   7.982  1.1341 -0.5858  0.1899
16432SOL    HW252702   9.264   8.042   8.024 -0.9399 -0.7200  0.8220
16433SOL     OW52703   0.825   7.108   5.758 -0.1869  0.1807 -0.3599
16433SOL    HW152704   0.735   7.133   5.741  0.5441  1.6990 -2.1479
16433SOL    HW252705   0.860   7.083   5.673  1.1370 -0.1521  0.2703
16434SOL     OW52706   6.415   5.037   2.952 -0.1977  0.0923  0.2561
16434SOL    HW152707   6.508   5.030   2.977 -0.0368 -0.1177 -0.4035
16434SOL    HW252708   6.416   5.047   2.857 -0.8948 -0.9791  0.1192
16435SOL     OW52709   9.953   5.260   0.144 -0.2915 -0.1518  0.0797
16435SOL    HW152710   9.964   5.296   0.232  1.3694 -1.7416  0.5662
16435SOL    HW252711   9.922   5.170   0.159 -0.1873 -0.3675 -0.9572
16436SOL     OW52712   3.841   8.495   2.839  0.1402 -0.3212  0.3149
16436SOL    HW152713   3.825   8.514   2.747  3.5604 -0.0021 -0.2811
16436SOL    HW252714   3.795   8.413   2.855  0.0779 -0.7389 -1.8771
16437SOL     OW52715   5.393   3.306   5.914  0.3645  0.2589 -0.3984
16437SOL    HW152716   5.366   3.384   5.865  1.2859  0.2509 -0.9338
16437SOL    HW252717   5.488   3.305   5.905  0.4006 -0.5883  0.1279
16438SOL     OW52718   4.126   4.775   5.531 -0.5481 -0.2301 -0.6279
16438SOL    HW152719   4.088   4.783   5.619  0.4672  1.1827 -0.2887
16438SOL    HW252720   4.062   4.816   5.473 -0.2203  0.8287 -0.2508
16439SOL     OW52721   3.511   1.437   0.405 -0.2096  0.5780  0.3130
16439SOL    HW152722   3.564   1.486   0.469  0.8671  0.0025 -0.1335
16439SOL    HW252723   3.574   1.401   0.344 -1.1215 -0.1661 -0.2020
16440SOL     OW52724   9.092   7.721   6.381 -0.6368 -0.2833  0.1818
16440SOL    HW152725   9.149   7.793   6.352 -1.0052 -0.0620 -0.0049
16440SOL    HW252726   9.127   7.644   6.337  0.1232 -0.3190  0.8564
16441SOL     OW52727   9.728   9.582   8.280  0.0181  0.1876 -0.6269
16441SOL    HW152728   9.756   9.492   8.294  0.7558  0.3832 -0.8173
16441SOL    HW252729   9.741   9.598   8.187  1.3428  0.9634 -0.3310
16442SOL     OW52730   7.135   8.957  10.442 -0.0662  0.4864  0.5026
16442SOL    HW152731   7.139   8.896  10.516  0.5147 -0.0210  0.0649
16442SOL    HW252732   7.196   9.027  10.464  0.3272  0.1852  0.3742
16443SOL     OW52733   1.371   7.929   8.329  1.0706  0.0926  0.7931
16443SOL    HW152734   1.295   7.980   8.301  0.2516 -0.2487  2.3613
16443SOL    HW252735   1.439   7.950   8.265  0.0874  1.4770  0.1884
16444SOL     OW52736   6.801   0.304   1.710 -0.4674 -0.2594  0.7151
16444SOL    HW152737   6.896   0.291   1.707 -0.2678  0.8855  1.5134
16444SOL    HW252738   6.775   0.270   1.796 -0.4545  1.2783  1.3546
16445SOL     OW52739   0.542   0.318   5.042 -0.2390 -0.1568  0.1390
16445SOL    HW152740   0.463   0.338   4.992 -1.7363  0.7392  2.7532
16445SOL    HW252741   0.568   0.402   5.081 -0.3232 -1.1766  2.4975
16446SOL     OW52742   4.561   0.459  10.826 -0.4442  0.0483  0.0431
16446SOL    HW152743   4.620   0.420  10.761 -0.2700  0.1894  0.1149
16446SOL    HW252744   4.547   0.548  10.794  0.7310  0.5635  0.9087
16447SOL     OW52745   3.395   6.193   4.919  0.0516 -0.3444 -0.5751
16447SOL    HW152746   3.319   6.143   4.889 -0.4735  1.6541 -2.7402
16447SOL    HW252747   3.366   6.284   4.915  2.0538  0.3353  0.1205
16448SOL     OW52748  10.007   1.227   6.861 -0.3649  0.4130  0.1273
16448SOL    HW152749   9.973   1.151   6.813 -0.2345 -0.3596  1.2410
16448SOL    HW252750   9.987   1.208   6.953  0.3914  1.3611  0.4893
16449SOL     OW52751  10.972   3.410   5.151 -0.4813  0.4892  0.7200
16449SOL    HW152752  10.987   3.389   5.059  0.1994 -2.5388  1.4575
16449SOL    HW252753  10.914   3.340   5.182 -1.2199  1.8212  2.4520
16450SOL     OW52754   2.369   5.555   6.453  0.0815 -0.1401  0.6319
16450SOL    HW152755   2.308   5.629   6.447  0.0364 -0.2115  0.2019
16450SOL    HW252756   2.455   5.597   6.461  0.4705  0.0324 -3.2670
16451SOL     OW52757  10.739  10.315   3.588  1.1543 -0.4149 -0.0955
16451SOL    HW152758  10.735  10.281   3.499  1.4188 -1.0934  0.1434
16451SOL    HW252759  10.665  10.274   3.633  0.5862  0.5010 -0.1937
16452SOL     OW52760   1.495   3.517   4.757  0.4582 -0.1744 -0.2566
16452SOL    HW152761   1.456   3.431   4.773 -0.0304 -0.2906 -1.9169
16452SOL    HW252762   1.589   3.499   4.750  0.4229 -0.4751 -0.0046
16453SOL     OW52763  10.897   3.548   7.792  0.7557 -0.3391 -0.1263
16453SOL    HW152764  10.976   3.577   7.746  0.1982 -0.7609 -1.3781
16453SOL    HW252765  10.834   3.531   7.722  0.3003 -2.2327  0.7276
16454SOL     OW52766   4.769   2.342   8.078 -0.8457 -0.0893  0.1878
16454SOL    HW152767   4.767   2.384   7.992 -0.5535  0.3203  0.3825
16454SOL    HW252768   4.847   2.288   8.076 -0.4978  0.4019  0.4232
16455SOL     OW52769   6.784  10.825   5.851 -1.1299 -0.2556  0.8742
16455SOL    HW152770   6.820  10.885   5.917  1.3321 -1.0748  0.3193
16455SOL    HW252771   6.790  10.874   5.769 -0.9252 -0.5243  0.7271
16456SOL     OW52772   3.636   8.015   5.649 -0.6055 -0.4956  1.0119
16456SOL    HW152773   3.661   8.069   5.575  1.5492 -1.3716  1.0539
16456SOL    HW252774   3.635   7.926   5.614 -2.4523 -0.6224  1.3467
16457SOL     OW52775  10.244   0.069   8.178  0.2105  0.7101  0.0042
16457SOL    HW152776  10.207   0.014   8.247  1.0097 -0.4520 -0.4649
16457SOL    HW252777  10.179   0.139   8.166 -1.0382 -0.3570  0.3384
16458SOL     OW52778   2.428   2.961   1.184  0.2309  0.3179  0.3639
16458SOL    HW152779   2.483   3.025   1.138  0.7850  0.8342  1.7182
16458SOL    HW252780   2.338   2.989   1.168  0.4656  1.2438  0.6631
16459SOL     OW52781   4.340   6.612   0.501 -0.3129  0.1637  0.4721
16459SOL    HW152782   4.291   6.532   0.485  0.1496  0.3152 -1.8271
16459SOL    HW252783   4.430   6.583   0.514 -0.3335  0.2301  0.7822
16460SOL     OW52784   0.649   7.245   8.385  0.6417 -0.7611 -0.3124
16460SOL    HW152785   0.639   7.175   8.450 -0.1061  0.7513  1.2241
16460SOL    HW252786   0.731   7.288   8.409 -0.4503  0.8457  0.7119
16461SOL     OW52787   5.626   4.597   2.842  0.4644 -0.3377  0.4736
16461SOL    HW152788   5.653   4.683   2.874 -0.7929  0.5912 -0.9387
16461SOL    HW252789   5.584   4.556   2.917  1.0033  0.3047  1.1362
16462SOL     OW52790   2.300   1.310   3.821 -0.1208  0.1363 -0.0237
16462SOL    HW152791   2.298   1.257   3.900 -2.0908 -0.3523 -0.3650
16462SOL    HW252792   2.310   1.400   3.853 -1.6019  0.0147  0.8376
16463SOL     OW52793   6.145   2.632  10.089  0.7360 -0.0747  0.2103
16463SOL    HW152794   6.211   2.638  10.021  0.6475 -0.4315  0.0937
16463SOL    HW252795   6.195   2.628  10.171  0.8926 -1.4296  0.0594
16464SOL     OW52796   9.809   5.411   2.679 -0.2391 -0.6679 -0.1318
16464SOL    HW152797   9.797   5.470   2.605 -1.1591  0.4209  0.8854
16464SOL    HW252798   9.904   5.406   2.691 -0.1429  0.1356 -0.5830
16465SOL     OW52799   8.160   0.511  10.250 -0.3897  0.0856  0.1059
16465SOL    HW152800   8.091   0.529  10.186  0.1452  1.3186 -0.1473
16465SOL    HW252801   8.240   0.542  10.208  0.1500 -0.2761  0.8610
16466SOL     OW52802   9.850  10.302   2.500  0.0472 -0.0564  0.0706
16466SOL    HW152803   9.877  10.347   2.421  0.6085 -0.3920  0.0732
16466SOL    HW252804   9.853  10.209   2.478  1.5781 -0.2167  0.9106
16467SOL     OW52805   9.103   7.807   7.520  0.8223  0.0683  0.3611
16467SOL    HW152806   9.015   7.845   7.513  1.0772  0.5465 -0.2171
16467SOL    HW252807   9.158   7.862   7.465  1.4004 -0.5154  0.3522
16468SOL     OW52808   6.008   6.569   0.781  0.0605  0.1679 -0.0463
16468SOL    HW152809   6.050   6.635   0.837 -0.5794 -0.1916  0.8647
16468SOL    HW252810   5.914   6.584   0.794 -0.1281  1.0409 -2.1497
16469SOL     OW52811   0.210   0.306   5.182 -0.5744 -0.0829 -0.1875
16469SOL    HW152812   0.163   0.389   5.185  0.6823  0.6002  1.5286
16469SOL    HW252813   0.152   0.247   5.134 -2.1852  1.3353 -0.0178
16470SOL     OW52814   1.032   3.188   5.017  0.2398 -0.3673  0.3120
16470SOL    HW152815   1.064   3.209   4.929 -0.1907 -1.3051 -0.0658
16470SOL    HW252816   1.112   3.177   5.069  0.5215 -1.0896 -0.2627
16471SOL     OW52817   7.469   4.334   0.057 -0.2507  0.7871 -0.0775
16471SOL    HW152818   7.490   4.271  -0.012 -1.4125 -0.7051  0.9031
16471SOL    HW252819   7.544   4.332   0.116  0.0460  0.8879 -0.4488
16472SOL     OW52820   6.877   8.741   1.599  0.6368  0.5668  0.1201
16472SOL    HW152821   6.882   8.674   1.667  0.5120  0.3955 -0.0367
16472SOL    HW252822   6.954   8.797   1.614  0.2815  0.8805  0.7633
16473SOL     OW52823   6.902   9.519   3.754  0.4876  0.4056  0.0592
16473SOL    HW152824   6.828   9.460   3.737 -0.0750  1.3649 -0.9028
16473SOL    HW252825   6.937   9.490   3.838  0.8864 -1.9654 -0.8934
16474SOL     OW52826  10.152   6.909   0.438 -0.3097  0.0684 -0.2036
16474SOL    HW152827  10.119   6.844   0.376 -0.7433  0.6800 -0.6100
16474SOL    HW252828  10.119   6.879   0.523 -0.7907 -0.0507 -0.4324
16475SOL     OW52829  10.913   3.275  10.734 -0.2500 -0.5419  0.0534
16475SOL    HW152830  10.923   3.280  10.829 -2.5537  0.2346  0.2900
16475SOL    HW252831  10.883   3.185  10.718  0.5660 -0.8094  0.0068
16476SOL     OW52832   9.314   8.637   3.132  0.3469  0.1026  0.2824
16476SOL    HW152833   9.273   8.723   3.138 -0.0526  0.0931 -1.9940
16476SOL    HW252834   9.405   8.655   3.109  0.4609 -0.0541  0.6110
16477SOL     OW52835   1.833   9.565   2.664  0.2206  0.0058 -0.2165
16477SOL    HW152836   1.915   9.614   2.669  0.2977 -0.2795  1.7378
16477SOL    HW252837   1.860   9.474   2.672 -0.2176 -0.1221 -0.2220
16478SOL     OW52838   4.283   8.185   2.438  0.0061  0.1962 -0.3577
16478SOL    HW152839   4.246   8.259   2.389  0.4291  0.6262 -0.0363
16478SOL    HW252840   4.235   8.109   2.406 -0.7048  0.6621 -0.4227
16479SOL     OW52841   0.792   1.758  10.571 -0.3466  0.1522  0.0165
16479SOL    HW152842   0.770   1.840  10.526 -2.4714  0.5836  1.7590
16479SOL    HW252843   0.721   1.698  10.547  0.1420 -0.5689  0.3650
16480SOL     OW52844   4.591   7.055   8.304  0.1183 -0.0015 -0.1903
16480SOL    HW152845   4.644   7.036   8.227  1.4212 -1.1112  0.9583
16480SOL    HW252846   4.653   7.053   8.377 -1.2101  0.3740  0.9696
16481SOL     OW52847   8.184   1.451   8.294 -0.3685  0.5087  0.1467
16481SOL    HW152848   8.235   1.504   8.233 -0.0634  0.6585  0.5325
16481SOL    HW252849   8.215   1.477   8.381 -1.5631  1.0785  0.4079
16482SOL     OW52850   2.747   5.890   5.405 -0.4495 -0.3172 -0.5745
16482SOL    HW152851   2.653   5.887   5.421  0.0655 -0.6500  2.5707
16482SOL    HW252852   2.780   5.806   5.436  1.0343  0.1692 -0.7933
16483SOL     OW52853   5.394   9.982   7.286 -0.5253 -1.1304 -0.1453
16483SOL    HW152854   5.483  10.012   7.266 -1.0455  1.1889  0.8610
16483SOL    HW252855   5.340  10.018   7.215 -1.3488  1.5457  1.7407
16484SOL     OW52856   9.360   6.102   6.456  0.0584 -0.7182  0.7281
16484SOL    HW152857   9.397   6.124   6.541 -0.7244  0.7243  0.7154
16484SOL    HW252858   9.274   6.144   6.456 -0.5898 -1.9841 -0.1841
16485SOL     OW52859   7.620  10.700   3.083  0.2193 -0.4110 -0.1578
16485SOL    HW152860   7.581  10.626   3.131  1.8850 -0.7120  0.7612
16485SOL    HW252861   7.672  10.658   3.015  1.9927 -0.1417  0.9999
16486SOL     OW52862   3.574   9.917   2.102 -0.0216 -0.2451  0.0565
16486SOL    HW152863   3.536   9.971   2.033 -0.2374  1.3718  1.4224
16486SOL    HW252864   3.640   9.973   2.144  0.4398 -1.3658  0.8659
16487SOL     OW52865   0.655   4.983   6.210  0.0431  0.0718  0.3379
16487SOL    HW152866   0.565   4.954   6.229  0.2802  0.6095  2.4954
16487SOL    HW252867   0.710   4.913   6.244  0.4404 -0.1928 -0.8642
16488SOL     OW52868   2.721   0.535   0.273 -0.4071 -0.1371  0.1579
16488SOL    HW152869   2.810   0.550   0.303 -0.3302 -0.9519  0.3513
16488SOL    HW252870   2.720   0.567   0.183 -0.3838  1.4325  0.7106
16489SOL     OW52871   7.968   1.473   6.172 -0.0595 -0.0258  0.5598
16489SOL    HW152872   8.003   1.416   6.104  0.5546 -1.2263  1.8769
16489SOL    HW252873   7.990   1.562   6.142  0.6420 -0.5680 -0.5563
16490SOL     OW52874   0.280   3.955   1.678 -0.1579 -0.3187  0.2720
16490SOL    HW152875   0.340   4.025   1.652 -0.1082 -0.6130 -0.4305
16490SOL    HW252876   0.303   3.882   1.620  0.6410 -1.3350  1.8481
16491SOL     OW52877   0.204   4.564   7.701  0.3428  0.0861  0.0880
16491SOL    HW152878   0.163   4.514   7.771 -1.3817  0.3762 -0.6954
16491SOL    HW252879   0.137   4.572   7.634  1.8509  0.1228 -1.4650
16492SOL     OW52880   7.238  10.442   2.781 -0.1383  0.1292  0.5501
16492SOL    HW152881   7.306  10.503   2.808 -1.9996  2.2117  0.7267
16492SOL    HW252882   7.188  10.425   2.860 -0.7076 -0.2201  0.1234
16493SOL     OW52883   5.454   1.021   0.183  0.1460  0.5483  0.4304
16493SOL    HW152884   5.510   1.012   0.260  0.6163 -1.6094 -0.1127
16493SOL    HW252885   5.371   0.981   0.210  0.4402 -0.5732 -0.2788
16494SOL     OW52886   0.472   0.325   2.394 -0.1193  0.3231  0.8244
16494SOL    HW152887   0.424   0.405   2.372 -2.0266 -1.0101  0.0120
16494SOL    HW252888   0.509   0.296   2.311  0.8177  0.5114  1.1725
16495SOL     OW52889   6.899   2.192   5.151  0.2058 -0.8299 -0.4570
16495SOL    HW152890   6.960   2.118   5.147 -2.3117 -3.0301  0.7748
16495SOL    HW252891   6.819   2.159   5.110 -1.6183  0.4876  1.9163
16496SOL     OW52892   3.649   1.272   3.316  0.0955 -0.6537 -0.5375
16496SOL    HW152893   3.564   1.247   3.280 -0.0965  0.5895 -0.9857
16496SOL    HW252894   3.643   1.367   3.327  2.3098 -0.1881 -2.9528
16497SOL     OW52895   9.914   9.942   8.731 -0.1977  0.4994 -0.3959
16497SOL    HW152896   9.893   9.848   8.726 -2.0599  0.8258  0.9814
16497SOL    HW252897   9.967   9.958   8.653  1.3190 -1.9889  0.0271
16498SOL     OW52898   3.800   0.844   2.481 -0.3487  0.0289 -0.2362
16498SOL    HW152899   3.783   0.936   2.500 -1.5544 -0.3278  0.4712
16498SOL    HW252900   3.876   0.821   2.535 -0.0487  0.6076 -0.4153
16499SOL     OW52901   0.184   1.074   3.703 -0.4180 -0.6976 -0.2103
16499SOL    HW152902   0.225   1.160   3.703  0.5273 -1.1284  1.0623
16499SOL    HW252903   0.131   1.072   3.782 -1.4142 -0.8425 -0.8719
16500SOL     OW52904   2.369   4.604   8.997 -0.0649  0.1399 -0.2359
16500SOL    HW152905   2.348   4.633   8.908  1.2424  0.1123 -0.5657
16500SOL    HW252906   2.401   4.515   8.987 -0.2139  0.0186  0.3125
16501SOL     OW52907  10.304   4.003   5.008 -0.1246 -0.0961  0.5791
16501SOL    HW152908  10.305   3.907   5.007 -2.2697 -0.1606 -3.1626
16501SOL    HW252909  10.215   4.026   5.032 -0.4290  0.9017 -1.4121
16502SOL     OW52910  10.956   4.307   5.939  0.6960  0.0824 -0.1062
16502SOL    HW152911  10.992   4.284   5.854 -0.8556 -0.2106 -0.7114
16502SOL    HW252912  10.930   4.399   5.931  1.2219  0.2651  0.2853
16503SOL     OW52913   7.593   5.344  10.076 -0.2368  0.0152  0.3401
16503SOL    HW152914   7.520   5.378  10.128  1.4379  0.0658  2.7626
16503SOL    HW252915   7.644   5.292  10.138  2.1745  0.5708 -1.1233
16504SOL     OW52916   9.417   4.757   3.042  0.2500 -0.0931 -0.0982
16504SOL    HW152917   9.498   4.718   3.009  0.7964  1.4154 -0.5820
16504SOL    HW252918   9.435   4.776   3.134  0.8584  1.2646 -0.4810
16505SOL     OW52919   3.733   1.858   4.104 -0.2554 -0.2341  0.2080
16505SOL    HW152920   3.807   1.856   4.164 -1.4273 -0.2702  1.6632
16505SOL    HW252921   3.660   1.823   4.154 -1.5707  1.0105 -0.7909
16506SOL     OW52922   9.859   7.303   6.642  0.2591  0.3127 -0.1297
16506SOL    HW152923   9.949   7.319   6.616  0.0285 -0.2782 -1.3263
16506SOL    HW252924   9.856   7.209   6.663 -0.1661  0.2466 -0.4774
16507SOL     OW52925   8.238   2.847   4.338 -0.2206  0.0700 -0.6813
16507SOL    HW152926   8.264   2.775   4.395  3.6609  0.6130 -1.6247
16507SOL    HW252927   8.276   2.824   4.253 -1.0735  2.0319 -1.6067
16508SOL     OW52928   8.139   3.767   9.259  0.3016  0.2749 -0.4972
16508SOL    HW152929   8.053   3.761   9.219  0.5670 -1.1840 -0.8829
16508SOL    HW252930   8.124   3.807   9.344 -0.8605 -0.5872 -0.2822
16509SOL     OW52931   0.248   3.332   4.492  0.4114  0.2105 -0.2624
16509SOL    HW152932   0.205   3.388   4.427  0.3486  1.1741  0.5894
16509SOL    HW252933   0.205   3.247   4.483 -1.2854  1.0052  0.1931
16510SOL     OW52934   7.046   7.805   7.802  0.3872  0.3824 -0.3230
16510SOL    HW152935   6.968   7.789   7.749 -1.2068 -0.8167  2.2894
16510SOL    HW252936   7.084   7.718   7.816  0.7329  0.6753  0.5804
16511SOL     OW52937   4.044   2.156  10.242 -0.1147 -0.2854  0.6191
16511SOL    HW152938   4.111   2.209  10.285 -0.7774  0.3050  0.9414
16511SOL    HW252939   3.961   2.193  10.272 -0.6048  0.6628 -1.7682
16512SOL     OW52940   4.561   5.889  10.194 -0.2388 -0.1269 -0.1872
16512SOL    HW152941   4.605   5.915  10.274  1.6866  0.1779 -1.3004
16512SOL    HW252942   4.563   5.793  10.194  0.5423 -0.1103 -0.2861
16513SOL     OW52943   1.938   7.333   6.846  0.0821  0.5357  0.0852
16513SOL    HW152944   1.922   7.367   6.758  0.6957 -0.8835 -0.5828
16513SOL    HW252945   1.864   7.273   6.862  0.3077  0.3120  0.2881
16514SOL     OW52946  10.292   3.340   9.832  0.3388  0.1939  0.0969
16514SOL    HW152947  10.370   3.341   9.777  0.7610 -0.5825  0.6635
16514SOL    HW252948  10.264   3.431   9.837  0.8202  0.3846 -0.6569
16515SOL     OW52949   4.122   2.083   4.862 -0.1616 -0.1434 -0.2404
16515SOL    HW152950   4.212   2.051   4.862 -0.4651 -1.0326 -0.3307
16515SOL    HW252951   4.087   2.053   4.947  0.1664  1.7747  0.5884
16516SOL     OW52952   2.942   0.393   0.941  0.4990  1.0775 -0.7197
16516SOL    HW152953   2.964   0.364   0.853 -0.2894 -1.2520 -0.1926
16516SOL    HW252954   3.024   0.388   0.990 -0.0635 -2.7145 -0.0341
16517SOL     OW52955   2.207   7.751  10.674 -0.1931  0.1964 -0.4104
16517SOL    HW152956   2.232   7.659  10.687 -0.2058  0.5350  2.0553
16517SOL    HW252957   2.111   7.748  10.666 -0.2929  0.1008  0.7328
16518SOL     OW52958   2.927   2.051   8.275  0.2256  0.8187 -0.1448
16518SOL    HW152959   2.905   1.981   8.214  1.8900  1.2913 -1.3238
16518SOL    HW252960   2.872   2.034   8.352 -1.4662 -0.1202 -1.5262
16519SOL     OW52961   6.297   5.520   2.605  0.5732  0.2282 -0.1485
16519SOL    HW152962   6.220   5.489   2.652  0.9409 -0.6117 -0.0865
16519SOL    HW252963   6.286   5.485   2.517  0.0538  1.5135 -0.6048
16520SOL     OW52964   2.439   7.863   5.682  0.2065 -0.2761  0.0332
16520SOL    HW152965   2.434   7.954   5.654  3.0554 -0.5053 -1.4609
16520SOL    HW252966   2.452   7.814   5.601 -0.8560 -1.9674  0.8663
16521SOL     OW52967   8.802  10.935   3.785 -0.0556 -0.9136  0.0935
16521SOL    HW152968   8.794  10.851   3.740 -2.1994 -1.0403  0.6418
16521SOL    HW252969   8.810  10.912   3.877  2.8167 -0.6012 -0.0367
16522SOL     OW52970   4.445   5.086   2.262  0.3230  0.0347 -0.0746
16522SOL    HW152971   4.480   5.075   2.173  0.8649 -0.9542  0.2534
16522SOL    HW252972   4.358   5.124   2.249 -1.3538 -3.9664 -1.2775
16523SOL     OW52973   8.269   6.830   8.551 -0.5264  0.6801 -0.1164
16523SOL    HW152974   8.263   6.918   8.589  0.5955 -0.1035  1.9423
16523SOL    HW252975   8.339   6.837   8.486  0.6030  0.9543  1.1059
16524SOL     OW52976   5.210  10.906   5.813  0.3565  0.3638 -0.4843
16524SOL    HW152977   5.264  10.845   5.763  0.4387  1.1575 -1.3907
16524SOL    HW252978   5.201  10.866   5.899 -0.5618 -1.4938 -1.4151
16525SOL     OW52979   6.161   2.384   7.315  0.6138 -0.1335  0.1072
16525SOL    HW152980   6.074   2.367   7.278  0.0857 -0.0039  1.2581
16525SOL    HW252981   6.188   2.467   7.276 -0.9426  1.1942  1.7321
16526SOL     OW52982   2.505   6.174   3.015  0.0778  0.3843 -0.1375
16526SOL    HW152983   2.516   6.269   3.023 -0.4135  0.2684  2.3622
16526SOL    HW252984   2.411   6.161   3.010  0.1509  0.0290 -0.6594
16527SOL     OW52985  10.371   0.756   3.479  0.1240  0.5706  0.9451
16527SOL    HW152986  10.348   0.689   3.544  0.4959  0.4417  0.9446
16527SOL    HW252987  10.466   0.762   3.484  0.2716 -0.2588 -0.3929
16528SOL     OW52988   0.649   2.349  10.635 -0.1219  0.3831  0.4143
16528SOL    HW152989   0.744   2.352  10.640 -0.1478  1.9090  0.1884
16528SOL    HW252990   0.619   2.414  10.700 -1.0467 -1.1520  1.5798
16529SOL     OW52991   0.075   0.574   0.341  0.4698 -0.2495  0.0487
16529SOL    HW152992   0.161   0.602   0.310  0.6132 -2.1990 -1.4455
16529SOL    HW252993   0.030   0.542   0.262 -1.4607  0.3118  0.8774
16530SOL     OW52994   4.333   3.565  10.786  0.3046 -0.7559 -0.4012
16530SOL    HW152995   4.348   3.478  10.748 -0.8509 -0.8188 -0.7473
16530SOL    HW252996   4.239   3.566  10.806  0.1695  0.6437 -1.0281
16531SOL     OW52997   0.223   7.112   2.427 -0.3756  0.0066  0.3510
16531SOL    HW152998   0.208   7.092   2.519 -3.1842  0.1861 -0.0373
16531SOL    HW252999   0.186   7.200   2.415 -2.4312 -1.0719 -1.5148
16532SOL     OW53000  10.193   3.764   1.376 -0.1358 -0.2981 -0.1175
16532SOL    HW153001  10.254   3.719   1.435  0.1153  0.9873  0.6252
16532SOL    HW253002  10.120   3.791   1.432  0.0854  0.8936 -0.3865
16533SOL     OW53003   6.468  10.667   6.831 -0.1700  0.7854 -0.1180
16533SOL    HW153004   6.517  10.744   6.860  0.8874  0.0568  0.0778
16533SOL    HW253005   6.466  10.609   6.907 -0.6030  0.4519 -0.3829
16534SOL     OW53006   0.238   7.572   8.639 -0.5668  0.0127 -0.3837
16534SOL    HW153007   0.229   7.494   8.585 -1.6379 -1.4195  1.8112
16534SOL    HW253008   0.149   7.605   8.648 -0.1704  1.2750 -0.9598
16535SOL     OW53009   5.196   2.327   8.981  0.2199 -0.3462  0.0337
16535SOL    HW153010   5.192   2.383   9.059 -1.7816  1.6010 -1.4149
16535SOL    HW253011   5.199   2.238   9.016  2.0852  0.5569  2.3692
16536SOL     OW53012   2.140   9.167   8.549  0.3228 -0.5407  0.1305
16536SOL    HW153013   2.137   9.179   8.454 -1.9495  0.4225  0.2832
16536SOL    HW253014   2.102   9.080   8.563 -1.3899  0.2011  0.2627
16537SOL     OW53015   6.104   2.799   7.436 -0.2788 -0.3905  0.0972
16537SOL    HW153016   6.137   2.711   7.420 -0.0632 -0.1853 -0.5923
16537SOL    HW253017   6.028   2.807   7.378  0.8530  0.5653 -1.3011
16538SOL     OW53018   0.863   8.816   7.615  0.1017 -0.1707  0.1464
16538SOL    HW153019   0.778   8.829   7.658  0.1562  1.9677 -0.3570
16538SOL    HW253020   0.844   8.824   7.522  1.0748  1.8210  0.0907
16539SOL     OW53021   1.954   7.434   1.574  0.3903 -0.1798 -0.6133
16539SOL    HW153022   1.896   7.501   1.537 -1.2318 -0.1740  1.7957
16539SOL    HW253023   1.909   7.352   1.560  0.3611 -0.3076  0.1985
16540SOL     OW53024  10.773   5.846   7.675  0.5110 -0.6741 -0.2223
16540SOL    HW153025  10.840   5.911   7.697 -0.2919  0.4474 -1.0603
16540SOL    HW253026  10.804   5.765   7.716  1.1743  0.3805  1.3932
16541SOL     OW53027   0.570   8.391   8.813  0.0839 -0.2283  0.5539
16541SOL    HW153028   0.578   8.468   8.758  2.1924 -0.2506  0.7561
16541SOL    HW253029   0.537   8.322   8.755 -2.7021  1.0436  0.6047
16542SOL     OW53030   4.511   9.623   3.055  0.5702 -0.0424  0.1609
16542SOL    HW153031   4.563   9.688   3.009 -0.3884  1.0359  0.5767
16542SOL    HW253032   4.573   9.578   3.112  1.6551 -1.0147 -1.7483
16543SOL     OW53033   1.224   5.737  10.571  0.1051 -0.0976 -0.4124
16543SOL    HW153034   1.175   5.801  10.623  2.4178  1.4490 -0.0749
16543SOL    HW253035   1.189   5.748  10.482  0.5042  1.6818 -0.3675
16544SOL     OW53036   0.481   5.970   3.280  0.5516 -0.4380  0.3036
16544SOL    HW153037   0.451   5.881   3.301 -0.6864  0.0280  0.5698
16544SOL    HW253038   0.568   5.976   3.320  0.5998 -1.4964  0.3714
16545SOL     OW53039   7.878   3.131   2.520  0.3108 -0.1179 -0.4176
16545SOL    HW153040   7.971   3.157   2.523  0.4184 -0.5138 -0.3886
16545SOL    HW253041   7.860   3.097   2.607  0.3011 -0.6226 -0.6195
16546SOL     OW53042   5.405   0.978   8.713  0.1992  0.3007 -0.2200
16546SOL    HW153043   5.409   1.024   8.797  3.5104  2.0758 -1.2665
16546SOL    HW253044   5.393   1.047   8.648  1.1309 -0.6904 -1.4790
16547SOL     OW53045   1.018   9.690  10.187 -0.3177 -0.0293  0.3017
16547SOL    HW153046   1.062   9.714  10.105 -1.2402  3.4736  0.7865
16547SOL    HW253047   0.931   9.661  10.160 -0.1228 -0.2880 -0.0591
16548SOL     OW53048   7.248  10.872   7.191  0.3205 -0.4923  0.0066
16548SOL    HW153049   7.235  10.876   7.096  0.9029 -0.1937 -0.0648
16548SOL    HW253050   7.341  10.890   7.203  0.4211 -1.3649  0.5797
16549SOL     OW53051   3.354   2.632   1.464 -0.1373 -0.1091 -0.0565
16549SOL    HW153052   3.380   2.559   1.407 -0.4648 -0.8133  0.6785
16549SOL    HW253053   3.433   2.686   1.472  0.6962 -1.4323  0.9422
16550SOL     OW53054   6.634   5.313   3.144  0.4895 -0.0157  0.2691
16550SOL    HW153055   6.613   5.357   3.062  1.1611  2.0549  1.1654
16550SOL    HW253056   6.549   5.301   3.187  0.0989 -1.4691 -0.8877
16551SOL     OW53057   9.557   8.536   0.503 -0.2184 -0.5083  0.1032
16551SOL    HW153058   9.521   8.571   0.422  0.3212  0.7988  0.4178
16551SOL    HW253059   9.554   8.441   0.491 -2.8993 -0.4099 -0.2303
16552SOL     OW53060   4.353   4.432   5.205 -0.8818  0.2960 -0.3863
16552SOL    HW153061   4.443   4.402   5.198 -0.7676  0.6487 -0.4069
16552SOL    HW253062   4.300   4.354   5.185 -0.5817  0.3232 -1.2733
16553SOL     OW53063   0.865   0.787   5.578  0.7334 -0.2113  0.1725
16553SOL    HW153064   0.873   0.815   5.487  1.5850  0.3535  0.4209
16553SOL    HW253065   0.955   0.786   5.611  0.4898 -1.0297  0.8249
16554SOL     OW53066   1.907   1.640  10.072  0.1092 -0.1963 -0.4485
16554SOL    HW153067   1.853   1.679  10.141  1.4452  1.0434 -0.0856
16554SOL    HW253068   1.982   1.602  10.119  2.2760  2.7844 -1.3886
16555SOL     OW53069   4.234  10.901   4.660 -0.0227 -0.2470  0.4280
16555SOL    HW153070   4.300  10.842   4.625 -0.3540 -0.9229  0.9403
16555SOL    HW253071   4.273  10.988   4.652  0.8771 -0.6292  0.6190
16556SOL     OW53072   0.063   6.000   5.467  0.1084 -0.3748  0.6993
16556SOL    HW153073   0.094   5.942   5.535 -1.2401  0.6403  2.2346
16556SOL    HW253074   0.004   5.946   5.414  0.4768 -0.9365  0.8624
16557SOL     OW53075   1.437  10.466   4.735 -0.3011 -0.0761 -0.0141
16557SOL    HW153076   1.398  10.389   4.776 -0.8284  0.1083 -0.1577
16557SOL    HW253077   1.472  10.517   4.808 -1.1226  0.1909  0.2068
16558SOL     OW53078   7.542   9.590  10.009  0.4863 -0.1115 -0.0627
16558SOL    HW153079   7.526   9.606   9.916  1.8912  1.5070 -0.0579
16558SOL    HW253080   7.460   9.613  10.052  0.1977  0.2614 -0.8099
16559SOL     OW53081   3.624   8.273   4.861 -0.2674 -0.1233 -0.3163
16559SOL    HW153082   3.578   8.264   4.778 -0.5253 -0.0310 -0.1852
16559SOL    HW253083   3.592   8.200   4.914 -1.1182  0.5856  0.1676
16560SOL     OW53084   8.459   7.951   7.090  0.1570 -0.0380  0.1130
16560SOL    HW153085   8.463   8.000   7.008  0.4090 -1.4707 -0.7422
16560SOL    HW253086   8.537   7.980   7.138  1.2084 -0.8206 -1.0968
16561SOL     OW53087   8.956   1.169  10.204 -0.1573  0.2089 -0.2811
16561SOL    HW153088   8.879   1.224  10.222 -0.4384 -0.3762  0.3531
16561SOL    HW253089   8.998   1.159  10.289  0.2161 -0.0759 -0.4983
16562SOL     OW53090  10.495   9.431   7.538 -0.1460  0.1286  0.4380
16562SOL    HW153091  10.405   9.415   7.565 -0.4998  0.6656 -0.4156
16562SOL    HW253092  10.524   9.347   7.502  0.0682 -0.3637  1.7018
16563SOL     OW53093   2.309   0.974   9.285 -0.0052  0.5201 -0.3070
16563SOL    HW153094   2.218   0.964   9.316  0.4174  1.6034  1.3433
16563SOL    HW253095   2.361   0.925   9.349  0.6176  0.3554 -0.9418
16564SOL     OW53096   4.587   7.456   2.149 -0.5810 -0.6318  0.2420
16564SOL    HW153097   4.526   7.491   2.084 -0.5784  0.5349  0.8593
16564SOL    HW253098   4.532   7.410   2.211 -0.6990 -0.7653  0.0394
16565SOL     OW53099   2.963   1.855   6.248 -0.9682 -0.4593 -0.1031
16565SOL    HW153100   2.963   1.950   6.243 -0.2940 -0.4807 -0.6063
16565SOL    HW253101   2.879   1.833   6.287 -0.9312  0.3632  0.4449
16566SOL     OW53102   4.038   0.199   2.714 -0.8711 -0.0404  0.0929
16566SOL    HW153103   4.102   0.266   2.737 -1.9519  1.2552 -0.5917
16566SOL    HW253104   4.087   0.117   2.715 -0.0031  0.4706  3.0541
16567SOL     OW53105   3.417   0.533   4.033  0.3205 -0.4292  0.4142
16567SOL    HW153106   3.489   0.479   4.001 -0.7442 -0.8568 -1.2752
16567SOL    HW253107   3.447   0.623   4.022  0.5480 -0.6054 -0.4281
16568SOL     OW53108   9.391   3.581   7.332  0.0561 -0.1789 -0.3052
16568SOL    HW153109   9.426   3.648   7.273 -3.0322  1.4607 -0.3559
16568SOL    HW253110   9.468   3.530   7.358  2.5764  3.6214  0.1105
16569SOL     OW53111   2.418   7.332   5.996 -0.4416 -0.1783  0.2647
16569SOL    HW153112   2.366   7.378   6.063  0.4236  1.2578 -0.0402
16569SOL    HW253113   2.356   7.271   5.956 -1.1190 -0.6669  1.9960
16570SOL     OW53114   5.993   9.314  10.887 -0.7922 -0.6492  0.0418
16570SOL    HW153115   5.920   9.256  10.908 -0.6313 -0.2072  1.9438
16570SOL    HW253116   6.020   9.349  10.972  0.7773  0.2074 -0.7984
16571SOL     OW53117   8.249   3.150   6.879 -0.1398  0.3616 -0.0206
16571SOL    HW153118   8.167   3.104   6.868 -0.5660  0.9062  0.8126
16571SOL    HW253119   8.233   3.213   6.950  1.5563 -0.8554  1.4952
16572SOL     OW53120   3.664   0.554   4.312 -0.2004 -0.1578 -0.0193
16572SOL    HW153121   3.751   0.538   4.349  0.0112  1.4733  0.2205
16572SOL    HW253122   3.682   0.580   4.221 -0.4551 -0.1003 -0.0523
16573SOL     OW53123   1.185   5.990   6.341  0.8696 -0.4282  0.0881
16573SOL    HW153124   1.264   6.038   6.317  0.4333  0.7195  0.9214
16573SOL    HW253125   1.159   5.946   6.260  0.7712  1.4701 -0.9461
16574SOL     OW53126   6.804   8.132   0.401 -0.6402 -0.3049  0.3245
16574SOL    HW153127   6.894   8.110   0.378 -0.7209 -0.7699  0.4451
16574SOL    HW253128   6.801   8.228   0.397 -0.0159 -0.2590  0.7836
16575SOL     OW53129   8.239  10.577   5.946  0.1734 -0.2636  0.2881
16575SOL    HW153130   8.249  10.663   5.907  1.1174 -0.7249 -0.5171
16575SOL    HW253131   8.317  10.528   5.918  0.2307 -1.0158  1.6801
16576SOL     OW53132   9.238   2.862   3.957 -0.1104  0.1952 -0.1627
16576SOL    HW153133   9.295   2.939   3.953 -1.7892  1.4864  0.2451
16576SOL    HW253134   9.294   2.792   3.990  1.0381  1.6223  0.9685
16577SOL     OW53135   6.379   1.056   2.554 -0.4359 -0.4369 -0.0236
16577SOL    HW153136   6.386   1.035   2.461  0.6682 -1.3530  0.2503
16577SOL    HW253137   6.444   1.125   2.569 -0.4496 -0.4509  0.1074
16578SOL     OW53138   3.474   8.387   9.076  0.1627  0.3452  0.4212
16578SOL    HW153139   3.534   8.313   9.067  0.9923  1.0324  0.2272
16578SOL    HW253140   3.479   8.432   8.991 -1.9528 -0.5826 -0.2114
16579SOL     OW53141   0.289  10.467   1.695 -0.0477  0.0406 -0.1218
16579SOL    HW153142   0.249  10.442   1.612  0.1275 -0.2523 -0.1170
16579SOL    HW253143   0.365  10.520   1.670  0.8876 -1.3271 -0.1853
16580SOL     OW53144   5.596   1.301   7.013  0.3651  0.2462 -0.0303
16580SOL    HW153145   5.518   1.323   7.064  1.0129  0.6242  0.8115
16580SOL    HW253146   5.570   1.224   6.962 -0.2823 -0.1847  0.9230
16581SOL     OW53147   5.376   9.172   2.489 -0.3151  0.0392  0.4108
16581SOL    HW153148   5.316   9.239   2.455  0.5372  1.3026  1.3436
16581SOL    HW253149   5.458   9.219   2.505  0.1886 -1.1560  1.4333
16582SOL     OW53150   5.843   7.159   1.610 -0.3327 -0.7585 -0.0621
16582SOL    HW153151   5.879   7.199   1.531  2.3837  0.8189  1.8885
16582SOL    HW253152   5.835   7.066   1.589 -0.1189 -0.2866 -2.3424
16583SOL     OW53153   8.656   5.991   8.393 -0.3769  0.3710 -0.2532
16583SOL    HW153154   8.652   6.086   8.406  0.1590  0.6349 -1.8896
16583SOL    HW253155   8.701   5.958   8.471 -0.1641  1.4987  0.1168
16584SOL     OW53156   1.600   4.934   6.835 -0.1282  0.0896 -0.2974
16584SOL    HW153157   1.645   4.974   6.909 -0.7455 -0.6857  0.4957
16584SOL    HW253158   1.509   4.929   6.861 -0.3269 -0.3271 -1.0528
16585SOL     OW53159   3.034   3.326   8.777  0.6859 -0.4427 -0.4610
16585SOL    HW153160   2.958   3.380   8.798  0.5707 -0.5468 -0.6025
16585SOL    HW253161   3.102   3.354   8.838  0.4549 -0.5242 -0.1666
16586SOL     OW53162   6.272   4.840   3.421  0.0718 -0.3198 -0.0273
16586SOL    HW153163   6.244   4.760   3.467 -0.5641  0.7305  1.4480
16586SOL    HW253164   6.224   4.910   3.463  1.9875  1.0817 -0.0889
16587SOL     OW53165  10.100   0.042   4.770 -0.0853  0.4753  0.3989
16587SOL    HW153166  10.130   0.120   4.724 -1.0073 -0.9008 -2.6419
16587SOL    HW253167  10.179  -0.010   4.783  0.3519  1.3754  1.4297
16588SOL     OW53168   5.193   5.715   3.050  0.1811 -0.2625  0.4812
16588SOL    HW153169   5.107   5.746   3.079  1.0429  0.3943  2.4316
16588SOL    HW253170   5.196   5.735   2.956 -1.0000  1.6010  0.8195
16589SOL     OW53171   1.469  10.228   2.596 -0.1720 -0.6977  0.3820
16589SOL    HW153172   1.490  10.283   2.671  0.1803  0.0044 -0.2185
16589SOL    HW253173   1.537  10.161   2.595 -1.5716 -2.1984  2.1243
16590SOL     OW53174   7.759   7.854   9.116  0.0707 -0.6628 -0.0420
16590SOL    HW153175   7.684   7.798   9.098 -0.9453  1.1620 -1.5964
16590SOL    HW253176   7.762   7.858   9.212 -1.0277 -1.7723  0.0650
16591SOL     OW53177   1.331   8.921   2.904  0.5384 -0.0995  0.2888
16591SOL    HW153178   1.370   8.869   2.833 -1.9762 -0.1754 -1.0916
16591SOL    HW253179   1.277   8.986   2.858 -3.1019 -1.7141  2.1808
16592SOL     OW53180   6.898   8.826   7.042 -0.0185  0.5846  0.1557
16592SOL    HW153181   6.868   8.839   6.952  0.7987 -0.4652 -0.2859
16592SOL    HW253182   6.823   8.789   7.088 -0.3224  0.7823 -0.1841
16593SOL     OW53183   2.326   3.393  10.046 -0.8249  0.2081 -0.3064
16593SOL    HW153184   2.305   3.346  10.127  1.2793  0.0176  0.1408
16593SOL    HW253185   2.307   3.485  10.067 -2.4201 -0.0855 -0.3435
16594SOL     OW53186   8.018   1.310   0.532  0.6402  0.1862 -0.3076
16594SOL    HW153187   7.970   1.233   0.564  0.2139  0.5379 -0.0900
16594SOL    HW253188   8.010   1.305   0.437  2.2269 -1.0664 -0.4031
16595SOL     OW53189   1.748   8.277   6.913  0.1668 -0.5333  0.2111
16595SOL    HW153190   1.713   8.189   6.896 -0.0297 -0.4842  0.3560
16595SOL    HW253191   1.733   8.290   7.007  1.1362 -0.7566  0.3981
16596SOL     OW53192   9.320   6.835   9.464 -0.0711 -0.5606 -0.1197
16596SOL    HW153193   9.283   6.747   9.472 -2.1919  0.3420  0.0427
16596SOL    HW253194   9.395   6.835   9.523 -0.1869 -2.1830  0.0478
16597SOL     OW53195   6.497  10.324   7.462 -0.4856  0.0364 -0.4221
16597SOL    HW153196   6.536  10.239   7.484 -1.6802 -0.4821 -0.3139
16597SOL    HW253197   6.523  10.381   7.534  0.3783 -0.2046 -0.5270
16598SOL     OW53198   9.286   1.524   5.831  0.0978 -0.3092  0.5249
16598SOL    HW153199   9.373   1.495   5.803  0.5340  0.5913  0.9172
16598SOL    HW253200   9.299   1.615   5.858 -1.2688  0.3260 -0.8933
16599SOL     OW53201   2.652   4.694  10.454  0.3403 -0.4889  0.3769
16599SOL    HW153202   2.573   4.743  10.476  0.1808 -0.7829  0.4547
16599SOL    HW253203   2.626   4.603  10.456  0.6546 -0.5832  0.2895
16600SOL     OW53204   4.707   3.965   0.910  0.1656 -0.6144 -0.1784
16600SOL    HW153205   4.703   4.014   0.992  0.7416  0.9553 -1.0723
16600SOL    HW253206   4.617   3.932   0.898 -0.8323  2.1932 -0.7480
16601SOL     OW53207   9.862   4.974  10.737  0.4426 -0.1172 -0.1979
16601SOL    HW153208   9.876   4.880  10.747 -1.0378 -0.5715 -2.1708
16601SOL    HW253209   9.883   4.992  10.646 -0.8399  1.1681 -0.2514
16602SOL     OW53210   6.688   6.402   6.911  0.5246 -0.1583 -0.2302
16602SOL    HW153211   6.718   6.425   6.823 -0.7704  0.4222 -0.5366
16602SOL    HW253212   6.675   6.308   6.908 -2.4968  0.2243 -1.6535
16603SOL     OW53213   7.669   3.334   2.331 -0.2498 -0.2099  0.4461
16603SOL    HW153214   7.745   3.277   2.338  0.0264  0.0792 -0.2509
16603SOL    HW253215   7.659   3.351   2.238 -1.0678 -0.1104  0.5456
16604SOL     OW53216   7.435   8.684   8.511  0.3299  0.2679  0.2451
16604SOL    HW153217   7.440   8.677   8.415  0.9344 -0.7973  0.3452
16604SOL    HW253218   7.452   8.595   8.542  1.7609  0.9166  1.3907
16605SOL     OW53219   4.716   4.337   8.378  0.2335 -0.4170  0.0364
16605SOL    HW153220   4.674   4.413   8.419 -1.2208 -1.5376  0.6809
16605SOL    HW253221   4.681   4.334   8.289 -1.7787 -1.8298  0.8266
16606SOL     OW53222   5.985   1.795   3.314 -0.1287 -0.4672 -0.2952
16606SOL    HW153223   6.004   1.888   3.306  2.4957 -0.9457  0.0185
16606SOL    HW253224   5.923   1.777   3.243 -2.5745  1.9537  1.1124
16607SOL     OW53225   7.017   5.291  10.604 -0.2585 -0.1487 -0.0997
16607SOL    HW153226   7.104   5.329  10.592 -0.6591  0.4808 -1.0433
16607SOL    HW253227   6.973   5.350  10.664  0.5456 -1.4136  1.8003
16608SOL     OW53228   1.743   0.915   2.060  0.4646  0.3861 -0.1394
16608SOL    HW153229   1.756   0.845   2.124  0.3385  0.0151 -0.5182
16608SOL    HW253230   1.679   0.973   2.100 -0.1298 -0.2146 -0.2243
16609SOL     OW53231   3.483   6.281   8.787  0.3911  0.2158  0.0153
16609SOL    HW153232   3.542   6.227   8.734 -0.2197  0.2451 -0.6917
16609SOL    HW253233   3.398   6.237   8.781  0.3184  0.2083  0.9876
16610SOL     OW53234   1.882  10.466   2.892 -0.0360 -0.0980  0.0218
16610SOL    HW153235   1.905  10.479   2.800  0.2265 -0.3375  0.0533
16610SOL    HW253236   1.909  10.376   2.911  0.7266  0.2451  0.5815
16611SOL     OW53237   0.110   5.869   8.480 -0.2397 -0.3900 -0.3095
16611SOL    HW153238   0.137   5.840   8.567  1.0827  0.9174 -0.2558
16611SOL    HW253239   0.150   5.807   8.419  0.4075 -0.2200 -0.0643
16612SOL     OW53240   9.549   4.424   2.398 -0.0806 -1.4715  0.0469
16612SOL    HW153241   9.533   4.386   2.484  0.0738 -0.8012  0.3740
16612SOL    HW253242   9.608   4.362   2.355  0.7940 -1.2223  0.8663
16613SOL     OW53243  10.923   1.224   0.114  0.0495  0.1784  0.5092
16613SOL    HW153244  10.834   1.190   0.126  0.2328  0.1292  1.7895
16613SOL    HW253245  10.963   1.219   0.201  1.0643  0.8852  0.0966
16614SOL     OW53246   6.145   6.372   2.667 -0.2300 -0.3242 -0.0067
16614SOL    HW153247   6.126   6.305   2.733  1.4048 -1.8631 -1.0585
16614SOL    HW253248   6.165   6.322   2.588 -2.0124  1.4883 -1.6641
16615SOL     OW53249   0.336   3.775  10.480 -1.1910 -0.1384  0.2631
16615SOL    HW153250   0.327   3.712  10.409  1.4913  0.3632 -0.5951
16615SOL    HW253251   0.277   3.847  10.456  0.1910  0.3409 -1.8612
16616SOL     OW53252   4.693   2.332   4.943  0.4696 -0.1439 -0.2517
16616SOL    HW153253   4.652   2.249   4.967  0.2260 -0.2361 -0.9800
16616SOL    HW253254   4.759   2.347   5.012 -1.8174  0.7889  1.8050
16617SOL     OW53255   1.132   9.971   9.976  0.3900  0.7060 -0.1801
16617SOL    HW153256   1.177   9.985  10.060 -0.9698 -0.2854  0.7445
16617SOL    HW253257   1.163   9.885   9.947  0.3577  0.7553 -0.3612
16618SOL     OW53258   2.655  10.420   4.064  0.2689  0.2727  0.2293
16618SOL    HW153259   2.562  10.432   4.043  0.4488  0.0526 -0.7095
16618SOL    HW253260   2.656  10.402   4.158 -0.6143  0.5419  0.2994
16619SOL     OW53261   0.624   0.289   9.391  0.5150  0.1870 -0.1001
16619SOL    HW153262   0.685   0.331   9.330  0.2722 -0.1334 -0.5654
16619SOL    HW253263   0.651   0.197   9.392  0.6287  0.2234  0.4126
16620SOL     OW53264   7.710   4.714   5.551 -0.3012 -0.2514  0.1680
16620SOL    HW153265   7.719   4.767   5.629 -0.2598  2.5035 -1.6494
16620SOL    HW253266   7.797   4.676   5.538 -0.2985 -0.6790  1.4106
16621SOL     OW53267   8.651   4.380   8.078 -0.3457 -0.0981 -0.2226
16621SOL    HW153268   8.707   4.346   8.008  0.8244  0.4695  0.4085
16621SOL    HW253269   8.713   4.421   8.139 -1.3014 -1.0170  1.3802
16622SOL     OW53270   9.519   8.340   4.793 -0.4205 -0.1854  0.3190
16622SOL    HW153271   9.466   8.355   4.715 -0.6739  0.7525  0.6522
16622SOL    HW253272   9.545   8.248   4.788 -0.6007 -0.1877 -0.7581
16623SOL     OW53273   4.869  10.402   5.348 -0.1922 -0.7594  0.4140
16623SOL    HW153274   4.824  10.479   5.384 -0.1666 -0.5066 -0.0907
16623SOL    HW253275   4.922  10.436   5.277  1.0670 -1.0157  1.2197
16624SOL     OW53276   9.571   2.927   2.913 -0.1355 -0.1841  0.1018
16624SOL    HW153277   9.481   2.901   2.936 -0.6355  0.0114 -1.5813
16624SOL    HW253278   9.600   2.861   2.851  0.4039  0.5002 -0.3763
16625SOL     OW53279   6.807   2.417   1.028 -0.2236 -0.7418 -0.0896
16625SOL    HW153280   6.849   2.501   1.044  1.0627 -1.6304  1.2462
16625SOL    HW253281   6.850   2.384   0.949 -0.8292 -0.1126 -0.7012
16626SOL     OW53282   5.276   5.219   4.149  0.2903  0.6289  0.1923
16626SOL    HW153283   5.233   5.272   4.216  1.2398  0.5062  0.9010
16626SOL    HW253284   5.310   5.143   4.197  2.2005  1.2277 -0.1862
16627SOL     OW53285   8.062   4.527   1.121  0.2195  0.0139  0.0514
16627SOL    HW153286   8.104   4.568   1.197 -0.5888  0.3558  0.3150
16627SOL    HW253287   8.073   4.591   1.050  0.2720  0.0409  0.0841
16628SOL     OW53288   1.023   5.399   7.143  0.3128  0.3341  0.5066
16628SOL    HW153289   0.940   5.444   7.159 -0.9684 -1.5813 -0.5630
16628SOL    HW253290   1.003   5.336   7.074  2.6008 -0.3545  0.4409
16629SOL     OW53291   8.804   9.254   8.743 -0.2817  0.0200  0.0475
16629SOL    HW153292   8.853   9.259   8.661  0.4455 -2.3990  0.2856
16629SOL    HW253293   8.785   9.345   8.765  1.3420  0.8297 -1.7070
16630SOL     OW53294   6.004   3.791   5.192 -0.2575 -0.5364 -0.5929
16630SOL    HW153295   5.994   3.715   5.135 -0.6883 -1.0303  0.1408
16630SOL    HW253296   5.948   3.772   5.267  0.1190  0.2285 -0.1210
16631SOL     OW53297  10.175   9.880   3.138  0.2182  0.0166  0.3652
16631SOL    HW153298  10.159   9.796   3.095  2.2198  0.6856 -1.7927
16631SOL    HW253299  10.104   9.936   3.107 -0.7157 -0.6688  1.2442
16632SOL     OW53300   7.547   9.529   7.427  0.0508  0.3259  0.5837
16632SOL    HW153301   7.609   9.602   7.434 -1.5540  1.6697  1.0789
16632SOL    HW253302   7.467   9.569   7.394 -0.2865 -1.5616 -0.9643
16633SOL     OW53303  10.880   8.004   7.090 -0.2269 -0.2841  0.2225
16633SOL    HW153304  10.809   8.045   7.041  0.5643 -0.3138 -0.9743
16633SOL    HW253305  10.951   8.068   7.087  0.4038 -0.9884 -0.1270
16634SOL     OW53306   6.850   9.628   0.684 -0.0720  0.0301 -0.3588
16634SOL    HW153307   6.917   9.656   0.746  1.6991  2.8781 -3.3941
16634SOL    HW253308   6.770   9.671   0.714  0.5743  0.6612  0.4768
16635SOL     OW53309   6.213   0.612   8.008 -0.0346  0.1217 -0.1629
16635SOL    HW153310   6.118   0.601   8.009 -0.2007  1.4624  0.9529
16635SOL    HW253311   6.243   0.574   8.091  0.1651  1.4692  0.4006
16636SOL     OW53312   7.931   3.019   4.546 -0.0016  0.3173  0.2586
16636SOL    HW153313   7.968   3.019   4.457 -0.3105  1.3463  0.1215
16636SOL    HW253314   7.867   2.948   4.545 -1.5092  1.6689 -0.9856
16637SOL     OW53315   4.664   9.338   2.183  0.0963  0.7499 -0.0362
16637SOL    HW153316   4.625   9.269   2.130  0.9738  0.5013 -0.3604
16637SOL    HW253317   4.747   9.358   2.141  0.2756  1.3685  0.5777
16638SOL     OW53318   0.781   1.622   6.825 -0.2022 -0.1232  0.0544
16638SOL    HW153319   0.797   1.537   6.784  1.3863  0.4881 -0.6124
16638SOL    HW253320   0.811   1.611   6.915 -1.2051 -0.6485  0.3358
16639SOL     OW53321   1.760   4.550   4.690  0.2024  0.5370  0.5037
16639SOL    HW153322   1.808   4.487   4.742 -0.3141 -1.9570 -1.9152
16639SOL    HW253323   1.827   4.609   4.655  1.0554 -0.6142  0.1933
16640SOL     OW53324   2.707   0.911   4.681 -0.1254  0.6084  0.0408
16640SOL    HW153325   2.742   0.982   4.735 -0.0921  0.8997 -0.3659
16640SOL    HW253326   2.612   0.924   4.683 -0.1545  0.3504  0.4026
16641SOL     OW53327   5.360   2.737   9.595 -0.1851  0.1049  0.4100
16641SOL    HW153328   5.282   2.681   9.600  0.4897 -0.9066 -0.3213
16641SOL    HW253329   5.422   2.687   9.542  1.0949  0.7548  1.2720
16642SOL     OW53330   4.406   0.669   6.464 -0.1437  0.3631 -0.0739
16642SOL    HW153331   4.483   0.689   6.516 -1.1212  3.4796  0.2602
16642SOL    HW253332   4.376   0.753   6.431 -2.6289 -0.9335 -1.3070
16643SOL     OW53333   8.702   8.520   1.753  0.0108  0.0853 -0.3147
16643SOL    HW153334   8.624   8.534   1.807  0.1648  0.1904 -0.1165
16643SOL    HW253335   8.710   8.599   1.701  0.1410  0.1924 -0.1357
16644SOL     OW53336   3.168   5.862   2.936 -0.2583 -0.2071  0.7209
16644SOL    HW153337   3.237   5.815   2.889 -0.9017 -1.0247  0.5725
16644SOL    HW253338   3.176   5.832   3.026 -0.8243 -0.7987  0.5798
16645SOL     OW53339   4.955   0.552   7.916  0.2790 -0.1476 -0.2606
16645SOL    HW153340   5.039   0.598   7.924 -1.4155  2.8779  1.4595
16645SOL    HW253341   4.891   0.622   7.910 -2.2986 -2.3824  0.3811
16646SOL     OW53342   9.280   0.482  10.724  0.1151 -0.0573  0.2068
16646SOL    HW153343   9.264   0.514  10.635 -0.1861 -1.7323 -0.3518
16646SOL    HW253344   9.220   0.409  10.735  1.6573 -1.2407  1.0084
16647SOL     OW53345   3.190  10.615   4.990  0.1734  0.3230 -0.5320
16647SOL    HW153346   3.264  10.672   4.967 -0.3041  1.1336 -0.1009
16647SOL    HW253347   3.227  10.551   5.050  0.7202  0.1741 -1.0225
16648SOL     OW53348   4.461   5.414   2.529  0.3353 -0.3595  0.1538
16648SOL    HW153349   4.449   5.344   2.593 -0.1216 -0.2554  0.1799
16648SOL    HW253350   4.379   5.463   2.531  0.4108 -0.2152 -0.3472
16649SOL     OW53351   9.334   9.231   7.691  0.0390  0.4484 -0.0585
16649SOL    HW153352   9.407   9.180   7.726 -0.8972 -0.7107  0.2428
16649SOL    HW253353   9.314   9.189   7.607 -0.8382  0.2172  0.2619
16650SOL     OW53354   3.026   6.905   7.256  0.0416 -0.4074 -0.2523
16650SOL    HW153355   3.115   6.873   7.272 -0.0352 -0.9663 -0.9068
16650SOL    HW253356   2.970   6.845   7.306  0.0646  0.2670  0.5899
16651SOL     OW53357   1.464   1.994   5.493  0.0401 -0.4853 -0.0924
16651SOL    HW153358   1.502   1.969   5.577  0.6880 -0.6469 -0.4302
16651SOL    HW253359   1.514   2.072   5.467  0.4680 -0.9768 -0.7634
16652SOL     OW53360   1.839   3.725   8.205 -0.2943  0.1158  0.2141
16652SOL    HW153361   1.805   3.792   8.264 -1.0963 -0.7260  0.7129
16652SOL    HW253362   1.762   3.673   8.180  0.3581 -0.7717  0.0203
16653SOL     OW53363   2.955   2.817   2.037  0.5151 -0.0610 -0.4356
16653SOL    HW153364   2.954   2.900   2.083  4.2666  0.2473 -0.7529
16653SOL    HW253365   2.910   2.834   1.954  0.3980  1.3562 -0.0839
16654SOL     OW53366   6.144   1.404   1.149 -0.3520  0.1881 -0.2188
16654SOL    HW153367   6.172   1.496   1.149 -0.0312  0.1013 -1.5833
16654SOL    HW253368   6.219   1.356   1.114 -0.6742 -0.5531  0.0969
16655SOL     OW53369   5.440   4.785  10.634  0.0124 -0.2549 -0.6477
16655SOL    HW153370   5.486   4.727  10.574  0.3064  0.1365 -0.7968
16655SOL    HW253371   5.509   4.835  10.678 -0.2646  0.3118 -0.8507
16656SOL     OW53372   1.518  10.807   3.569  0.2353  0.4442  0.0793
16656SOL    HW153373   1.440  10.833   3.618  0.7575  1.1520  0.5294
16656SOL    HW253374   1.483  10.759   3.494 -0.5861 -0.2898  0.9114
16657SOL     OW53375   6.630  10.218   1.820  0.6069  0.0297 -0.2196
16657SOL    HW153376   6.649  10.195   1.730 -1.0753  0.0092 -0.5818
16657SOL    HW253377   6.714  10.209   1.866  1.1159 -1.5189 -1.4363
16658SOL     OW53378   5.847   8.908   4.630  0.0279 -0.2722 -0.2389
16658SOL    HW153379   5.815   8.978   4.574 -0.1484 -0.1626 -0.0007
16658SOL    HW253380   5.768   8.866   4.665  0.1205 -1.1347 -1.0506
16659SOL     OW53381  10.573   1.750   9.724 -0.7002 -0.0401  0.1334
16659SOL    HW153382  10.498   1.795   9.763 -0.5564  1.1339 -0.9084
16659SOL    HW253383  10.573   1.779   9.632  0.5908 -0.6054 -0.0564
16660SOL     OW53384   3.618   6.508   7.017 -0.0788  0.3872 -0.2077
16660SOL    HW153385   3.564   6.585   7.030  0.2826  0.3589  1.5644
16660SOL    HW253386   3.586   6.469   6.935 -1.0570  1.7313 -0.4687
16661SOL     OW53387   3.523   1.505   8.294 -0.2487  0.1800  0.5774
16661SOL    HW153388   3.612   1.536   8.277 -0.5860  1.9426  1.8299
16661SOL    HW253389   3.467   1.578   8.267 -1.1362  0.3145  2.6653
16662SOL     OW53390   1.983   9.882   2.033  0.5315 -0.3715 -0.0154
16662SOL    HW153391   1.937   9.807   2.069 -1.6122  1.2941  0.7700
16662SOL    HW253392   1.928   9.958   2.054  2.2978  1.3590 -1.3755
16663SOL     OW53393   8.837   8.993   7.104  0.2819  0.1428 -0.5569
16663SOL    HW153394   8.776   8.922   7.084 -0.4598  0.4236  0.6383
16663SOL    HW253395   8.859   8.980   7.196 -1.5701  2.7086  0.3167
16664SOL     OW53396   1.225   7.189   2.875  0.2547 -0.0532 -0.7814
16664SOL    HW153397   1.290   7.155   2.813  0.2221 -0.6656 -0.4881
16664SOL    HW253398   1.163   7.236   2.821  0.5029 -0.1557 -1.1596
16665SOL     OW53399   3.917   7.118   8.263 -0.0782 -0.3333 -0.3060
16665SOL    HW153400   3.931   7.082   8.175 -1.0753 -0.9199 -0.2259
16665SOL    HW253401   3.917   7.041   8.320 -0.0733 -0.0110  0.1232
16666SOL     OW53402   6.447   0.029   9.898  0.1483  0.1407  0.0566
16666SOL    HW153403   6.429   0.117   9.929  0.2835 -0.3264  1.5222
16666SOL    HW253404   6.515   0.040   9.831 -0.7422  1.2521 -0.6754
16667SOL     OW53405   1.959   1.196   3.761  0.2199  0.0800  0.5462
16667SOL    HW153406   1.987   1.130   3.825  1.3686  1.3740  1.3984
16667SOL    HW253407   1.971   1.153   3.676  0.1663 -1.1064  1.1297
16668SOL     OW53408   1.350   0.118  10.279 -0.0488 -0.3089 -0.0584
16668SOL    HW153409   1.402   0.194  10.307 -0.2500 -0.4671  0.7553
16668SOL    HW253410   1.414   0.048  10.267 -0.0133 -0.3691  0.4670
16669SOL     OW53411  10.011   0.533  10.459 -0.2501  0.2732 -0.4019
16669SOL    HW153412   9.940   0.479  10.493 -0.7746  0.4489 -1.1915
16669SOL    HW253413  10.090   0.483  10.477 -0.6400 -0.2630 -0.1605
16670SOL     OW53414   8.698   7.086   3.391 -0.6037 -0.3447  0.1132
16670SOL    HW153415   8.738   7.157   3.441  0.7842 -0.5195 -0.7361
16670SOL    HW253416   8.764   7.017   3.390 -1.5589 -1.2807  0.0817
16671SOL     OW53417   1.924  10.908   8.234  0.3329  0.4883 -0.1443
16671SOL    HW153418   1.845  10.961   8.241  0.5872  0.8219  0.2484
16671SOL    HW253419   1.897  10.829   8.188 -0.1376  0.7827 -0.3737
16672SOL     OW53420   7.752   7.912   6.875 -0.6137  0.7014  0.4645
16672SOL    HW153421   7.733   7.954   6.791 -1.2986  1.3148  0.9217
16672SOL    HW253422   7.731   7.820   6.861 -1.7461  0.9851  0.2763
16673SOL     OW53423   0.936   5.254   0.899  0.2653 -0.1595  0.0875
16673SOL    HW153424   1.007   5.219   0.844  1.7360  1.1400  1.0907
16673SOL    HW253425   0.867   5.188   0.895  0.2194  0.0134 -3.5241
16674SOL     OW53426  10.790   6.400   8.279  0.2266  0.0200  0.3401
16674SOL    HW153427  10.856   6.402   8.348  2.2766 -0.0475 -1.5455
16674SOL    HW253428  10.795   6.311   8.243 -1.0106 -0.0318  0.2694
16675SOL     OW53429   2.827   6.820  10.249  0.4555  0.2970  0.0722
16675SOL    HW153430   2.778   6.811  10.330 -0.3687  0.4235 -0.3985
16675SOL    HW253431   2.769   6.783  10.182  1.1147  0.2070 -0.4593
16676SOL     OW53432   8.228   4.542   4.655  0.0927 -0.1403 -0.4234
16676SOL    HW153433   8.312   4.560   4.614  0.1521  0.7780  0.0940
16676SOL    HW253434   8.171   4.613   4.625  0.1615  0.5988  1.1445
16677SOL     OW53435   4.702   7.337   4.569 -0.0815  0.4048 -0.3516
16677SOL    HW153436   4.775   7.327   4.629  0.2335 -0.0818 -0.8137
16677SOL    HW253437   4.742   7.348   4.483 -0.5391  0.4750 -0.5591
16678SOL     OW53438   9.688   4.446  10.403 -0.2704  0.1404  0.0563
16678SOL    HW153439   9.708   4.444  10.310 -0.1391  0.0371  0.0867
16678SOL    HW253440   9.599   4.483  10.408  0.5907  2.3255  0.0261
16679SOL     OW53441   4.578   9.250   0.628 -0.4319  0.1296  0.1980
16679SOL    HW153442   4.541   9.170   0.591 -0.2687  0.1540 -0.0155
16679SOL    HW253443   4.673   9.238   0.623 -0.4074  0.0714  0.7418
16680SOL     OW53444   3.811   4.080   7.099 -0.3024 -0.2885  0.3103
16680SOL    HW153445   3.790   4.172   7.078  2.3261  0.1171 -0.7360
16680SOL    HW253446   3.834   4.082   7.192  0.2093  0.1947  0.1751
16681SOL     OW53447   2.479   2.909   1.958  0.5444 -0.2002  0.0019
16681SOL    HW153448   2.490   2.892   1.864  0.1856 -1.0873  0.1102
16681SOL    HW253449   2.400   2.860   1.981 -1.1281  2.4389  0.1507
16682SOL     OW53450   2.456   7.767   9.528 -0.3551 -0.2932  0.4554
16682SOL    HW153451   2.494   7.762   9.615  0.5636  0.5530  0.1024
16682SOL    HW253452   2.530   7.762   9.468 -0.9729 -0.7831 -0.2866
16683SOL     OW53453   2.869   4.489   2.021  0.5647  0.1668 -0.1271
16683SOL    HW153454   2.789   4.464   2.068  0.7035 -0.4853 -0.2352
16683SOL    HW253455   2.939   4.483   2.086  0.3989  1.6024  0.1978
16684SOL     OW53456   8.068   9.304   6.692  0.2314 -0.0434  0.2089
16684SOL    HW153457   8.055   9.339   6.780  1.7961  0.9788  0.0660
16684SOL    HW253458   8.001   9.236   6.682 -0.4252  0.3409  1.9056
16685SOL     OW53459   9.599   9.686  10.543 -0.0261 -0.4829 -0.1048
16685SOL    HW153460   9.632   9.767  10.504 -0.8033  0.5601  1.3385
16685SOL    HW253461   9.508   9.706  10.565 -0.6503 -2.2269 -1.0172
16686SOL     OW53462   5.447   2.705  10.304  0.4399 -0.2483  0.0489
16686SOL    HW153463   5.421   2.797  10.303  2.9794  0.5053 -1.5772
16686SOL    HW253464   5.414   2.670  10.221  0.0319 -0.6483  0.3781
16687SOL     OW53465   4.592   1.391   4.406  0.8238 -0.3555  0.0828
16687SOL    HW153466   4.517   1.354   4.360 -0.1431  0.1427  1.2371
16687SOL    HW253467   4.650   1.316   4.422 -0.1919 -1.0277  0.6470
16688SOL     OW53468   8.140   1.022   8.970  0.2717  0.0441 -0.2276
16688SOL    HW153469   8.113   1.105   8.930 -3.0245 -0.6308  0.4574
16688SOL    HW253470   8.058   0.982   9.000  1.8618 -3.1761  0.0337
16689SOL     OW53471   3.350   3.056  10.436  0.0817  0.1772 -0.1228
16689SOL    HW153472   3.380   2.967  10.450 -0.0063 -0.1386 -1.8522
16689SOL    HW253473   3.255   3.048  10.425 -0.1124  0.6611  1.1102
16690SOL     OW53474   3.019   3.628   7.609  0.0153 -0.3490  0.3145
16690SOL    HW153475   3.037   3.666   7.696 -1.6017  1.1751  0.0225
16690SOL    HW253476   3.020   3.703   7.550 -1.4804 -1.0101 -0.5735
16691SOL     OW53477  10.344   5.642   7.069 -0.4740 -0.1617  0.1966
16691SOL    HW153478  10.329   5.548   7.073  0.0850 -0.2453  0.3983
16691SOL    HW253479  10.256   5.681   7.063 -0.7029 -0.6926  0.1148
16692SOL     OW53480  10.928   3.002   2.489 -0.0061  0.3918  0.1837
16692SOL    HW153481  10.871   2.926   2.476  0.7745 -0.2311  0.3414
16692SOL    HW253482  11.005   2.966   2.533  1.3142  0.9054 -1.6433
16693SOL     OW53483   6.346   5.765   8.153  0.1620  0.2417  0.1158
16693SOL    HW153484   6.373   5.673   8.156 -1.1630 -0.1830 -0.3962
16693SOL    HW253485   6.392   5.806   8.226  1.3030 -0.6763 -0.0737
16694SOL     OW53486   8.898   4.342   7.972  0.5183 -0.4772  0.0787
16694SOL    HW153487   8.917   4.406   7.904 -0.7286 -1.0141 -0.8083
16694SOL    HW253488   8.967   4.354   8.037  1.7913 -0.0222 -1.3256
16695SOL     OW53489   5.421   3.827  10.766  0.0438 -0.0714 -0.4144
16695SOL    HW153490   5.362   3.866  10.830 -0.2221 -1.1057 -0.0129
16695SOL    HW253491   5.508   3.838  10.804 -0.0773 -0.3394 -0.0544
16696SOL     OW53492   4.890   2.347   0.060  0.7252 -0.5111 -0.1743
16696SOL    HW153493   4.807   2.381   0.027  1.2326 -0.9601 -1.9117
16696SOL    HW253494   4.953   2.360  -0.011  2.5688  1.3259  1.6780
16697SOL     OW53495   5.771   2.950   4.416 -0.7055  0.3756  0.7435
16697SOL    HW153496   5.722   3.011   4.361 -0.8565 -0.9065 -0.5776
16697SOL    HW253497   5.815   2.892   4.354 -0.4227 -0.7444  1.9782
16698SOL     OW53498   7.752   3.034   4.139  0.2523  0.6004  0.2042
16698SOL    HW153499   7.749   2.989   4.223 -0.4038 -0.7152 -0.4954
16698SOL    HW253500   7.666   3.076   4.131  0.2365  0.5452  0.0866
16699SOL     OW53501   5.150   3.213   7.126 -0.0352 -0.6756 -0.1754
16699SOL    HW153502   5.106   3.135   7.092 -2.6364  0.5117  0.3243
16699SOL    HW253503   5.157   3.272   7.050 -0.7376 -0.2485  0.0869
16700SOL     OW53504   9.006   3.587   1.356 -0.1541  0.5663  0.9125
16700SOL    HW153505   8.939   3.654   1.347 -1.0404 -0.4056  0.0915
16700SOL    HW253506   8.957   3.506   1.369  0.8880 -0.0067  1.3329
16701SOL     OW53507   9.626   5.938   8.296 -0.3151 -0.4092  0.0997
16701SOL    HW153508   9.535   5.925   8.323 -1.1825 -0.3936 -2.6497
16701SOL    HW253509   9.653   5.854   8.258  0.0924  0.2095 -1.0322
16702SOL     OW53510   4.436   3.717   7.856  0.1486 -0.6704 -0.2159
16702SOL    HW153511   4.488   3.712   7.776 -0.4110  0.4227 -0.6486
16702SOL    HW253512   4.496   3.754   7.921  0.3271 -0.7007 -0.3634
16703SOL     OW53513   1.737   7.205   5.395 -0.2113 -0.2087  0.6405
16703SOL    HW153514   1.665   7.256   5.432 -0.5598 -0.2321  0.0007
16703SOL    HW253515   1.757   7.248   5.312  0.3028 -0.3902  0.6666
16704SOL     OW53516   8.858   2.121   6.066 -0.0590  0.2437 -0.3394
16704SOL    HW153517   8.872   2.032   6.098  0.7606  0.2260 -0.7302
16704SOL    HW253518   8.814   2.166   6.138 -0.2627 -0.4139 -0.0530
16705SOL     OW53519   2.427   7.878   4.389 -0.3561 -0.4046  0.2430
16705SOL    HW153520   2.355   7.904   4.447 -0.1357 -0.6594  0.6244
16705SOL    HW253521   2.467   7.802   4.431 -0.0416 -0.4404 -0.1152
16706SOL     OW53522  10.837   7.325   0.219 -0.3053 -0.5608 -0.2809
16706SOL    HW153523  10.893   7.347   0.294  1.7699  0.5612 -2.1072
16706SOL    HW253524  10.897   7.322   0.145 -2.5574 -0.1888 -2.1620
16707SOL     OW53525   8.912   1.859   8.277  0.3522  0.2046 -0.1370
16707SOL    HW153526   8.909   1.814   8.362 -0.2184  0.6892  0.1060
16707SOL    HW253527   8.826   1.901   8.269  0.8789  1.2712 -0.3454
16708SOL     OW53528  10.136   8.220   8.202  0.2653  0.1102 -0.1689
16708SOL    HW153529  10.199   8.159   8.163 -0.3720  0.0549 -1.1262
16708SOL    HW253530  10.187   8.267   8.268  0.3868 -2.5917  1.7691
16709SOL     OW53531   4.243   4.395   3.752 -0.3822  0.5657  0.3313
16709SOL    HW153532   4.249   4.404   3.656 -3.1692  0.3217  0.1124
16709SOL    HW253533   4.233   4.301   3.766  1.8812  0.3936  1.0149
16710SOL     OW53534   7.192   4.301   0.756 -0.8426  0.0704  0.2309
16710SOL    HW153535   7.156   4.309   0.667 -2.3607  1.9435  1.0034
16710SOL    HW253536   7.216   4.208   0.763  0.0466  0.0571 -2.4143
16711SOL     OW53537   3.404   1.798   5.666  0.2472  0.2959 -0.7349
16711SOL    HW153538   3.337   1.859   5.636 -2.1071 -1.2057  1.3231
16711SOL    HW253539   3.400   1.725   5.604 -0.2242  0.0809 -0.4531
16712SOL     OW53540   0.420   0.642   7.666  0.7847  0.1509  0.3789
16712SOL    HW153541   0.361   0.572   7.693  0.3605  0.1173 -0.6083
16712SOL    HW253542   0.379   0.722   7.698  0.2862  0.1112 -0.1505
16713SOL     OW53543   7.225   8.314   0.724 -0.3155 -0.3602  0.5931
16713SOL    HW153544   7.271   8.262   0.790  1.9324  0.2884 -0.3961
16713SOL    HW253545   7.244   8.270   0.641 -0.3177  0.7093  0.0117
16714SOL     OW53546  10.317   4.084   0.723 -0.2110 -0.2648  0.1219
16714SOL    HW153547  10.246   4.127   0.676 -1.4211 -3.0023 -0.6253
16714SOL    HW253548  10.280   4.063   0.809  1.2299  2.5213  1.5135
16715SOL     OW53549  10.611   0.662   4.563 -0.1682 -0.6271  0.0786
16715SOL    HW153550  10.673   0.729   4.534 -0.7865 -0.4092 -0.7851
16715SOL    HW253551  10.536   0.672   4.503 -0.9831 -0.9554  1.0257
16716SOL     OW53552   1.424   7.488   7.304  0.4185  0.2024 -0.1317
16716SOL    HW153553   1.330   7.488   7.288  0.2457  1.1697  0.7888
16716SOL    HW253554   1.453   7.401   7.278 -0.7852 -0.2141 -0.1078
16717SOL     OW53555   8.005  10.640   8.212  0.5603 -0.1144  0.7284
16717SOL    HW153556   7.983  10.594   8.131  0.5684  0.2662  0.5073
16717SOL    HW253557   7.991  10.732   8.192 -0.2667 -0.0796  1.4214
16718SOL     OW53558   9.600   1.864   3.018  0.3277  0.1018  0.2025
16718SOL    HW153559   9.649   1.809   2.958  0.0735 -1.3523  1.2996
16718SOL    HW253560   9.663   1.928   3.050  0.6575  0.3678 -0.9698
16719SOL     OW53561   3.286   8.931   0.522  0.2009 -0.5672 -0.0668
16719SOL    HW153562   3.299   9.014   0.476 -0.3826 -0.8887 -0.7988
16719SOL    HW253563   3.196   8.934   0.553  0.9437  0.1961  2.1626
16720SOL     OW53564   2.832   9.000   0.520 -0.0364 -0.0474  0.4077
16720SOL    HW153565   2.916   9.008   0.565 -0.2862  0.9954  0.6835
16720SOL    HW253566   2.773   9.059   0.566  0.1209  2.3580 -2.2903
16721SOL     OW53567   5.581   1.264   2.568  0.0914 -0.0503 -0.4417
16721SOL    HW153568   5.488   1.277   2.583  0.0707 -0.5847 -0.0749
16721SOL    HW253569   5.585   1.202   2.494  0.1184 -1.6271  0.8452
16722SOL     OW53570   4.897   8.736   2.236  0.5493 -0.0452 -0.0265
16722SOL    HW153571   4.980   8.691   2.222  0.1679 -0.5529 -0.6383
16722SOL    HW253572   4.902   8.766   2.327  1.9307  1.0228 -0.4174
16723SOL     OW53573   4.302   3.490   6.153 -0.4496 -0.1057  0.0847
16723SOL    HW153574   4.288   3.479   6.247  2.6463  0.3049  0.6490
16723SOL    HW253575   4.314   3.400   6.121  0.8161 -0.0938  0.5030
16724SOL     OW53576   6.358   6.170   8.739 -0.1749  0.1569  0.4088
16724SOL    HW153577   6.435   6.116   8.720  0.3316  0.7327  0.7889
16724SOL    HW253578   6.284   6.114   8.717  0.3600  0.2490 -1.7119
16725SOL     OW53579   5.726   8.042   2.905 -0.9083  0.4729  0.1655
16725SOL    HW153580   5.707   8.120   2.854  2.4042  1.7129  0.7067
16725SOL    HW253581   5.820   8.047   2.922 -0.9438 -2.7690  1.6534
16726SOL     OW53582   7.791  10.977   5.300 -0.1200 -0.0883  0.7764
16726SOL    HW153583   7.742  10.927   5.365 -0.5554 -0.0483  0.4838
16726SOL    HW253584   7.848  10.913   5.257  1.4705  0.1939  2.3962
16727SOL     OW53585   0.840   6.244   8.384 -0.3208 -0.6618  0.3082
16727SOL    HW153586   0.809   6.302   8.454  0.8352 -1.1395  1.2380
16727SOL    HW253587   0.931   6.270   8.370 -0.1476 -1.4716 -0.0854
16728SOL     OW53588   1.946   5.907   3.904 -0.1392 -0.8092 -0.1584
16728SOL    HW153589   1.882   5.959   3.855 -0.3290 -0.1215  0.7932
16728SOL    HW253590   2.025   5.912   3.852  0.8776  3.3650  1.5399
16729SOL     OW53591   4.910   5.443  10.241 -0.1750  0.0182  0.0854
16729SOL    HW153592   4.985   5.456  10.299  0.0241  0.1753 -0.2029
16729SOL    HW253593   4.936   5.370  10.184  0.0112  0.4799 -0.4259
16730SOL     OW53594   2.321   8.566   9.383 -0.1315 -0.0540  0.2169
16730SOL    HW153595   2.287   8.477   9.381 -0.7362  0.1736 -0.0922
16730SOL    HW253596   2.243   8.621   9.374  0.3807  0.4672 -1.1990
16731SOL     OW53597   0.306   7.105   4.998  0.2005 -0.3720  0.0975
16731SOL    HW153598   0.284   7.012   5.003 -2.6356  0.3747  2.9967
16731SOL    HW253599   0.272   7.133   4.913  0.8268 -1.8911 -0.6758
16732SOL     OW53600   7.419   4.474   9.932 -0.2917  0.0650 -0.2857
16732SOL    HW153601   7.371   4.503   9.855  0.2972  1.0783 -0.2851
16732SOL    HW253602   7.405   4.543   9.997 -1.0033 -0.9040  0.6107
16733SOL     OW53603   0.186   6.934   8.675 -0.5617  0.5099  0.0210
16733SOL    HW153604   0.187   6.904   8.584 -0.0040 -3.8526  1.3402
16733SOL    HW253605   0.093   6.931   8.700 -0.5454  0.1651  0.0454
16734SOL     OW53606   9.506   9.136   7.882 -0.7273 -0.1311 -0.3542
16734SOL    HW153607   9.594   9.097   7.888 -0.6157  0.4484  2.0468
16734SOL    HW253608   9.503   9.201   7.952 -3.5964 -1.1877  0.5825
16735SOL     OW53609   9.998   3.819   3.718  0.5573 -0.2370 -0.4700
16735SOL    HW153610  10.065   3.779   3.775  0.5183 -1.6118 -1.3633
16735SOL    HW253611   9.981   3.752   3.652  1.5634  1.8404 -2.9079
16736SOL     OW53612  10.584   5.045   3.572  0.1421  0.2068  0.9326
16736SOL    HW153613  10.582   5.103   3.496 -1.4147 -2.0008 -0.8009
16736SOL    HW253614  10.594   5.103   3.647 -2.1112  2.7713 -0.6719
16737SOL     OW53615   0.574   8.074   0.469 -0.1701  0.4703  0.1301
16737SOL    HW153616   0.489   8.117   0.470  0.1254  1.0344  0.8325
16737SOL    HW253617   0.615   8.103   0.387  0.0906  1.6460  0.6727
16738SOL     OW53618   4.155   4.581   7.771  0.4400  0.6812  0.0285
16738SOL    HW153619   4.075   4.588   7.721  1.6514  3.2283 -1.6377
16738SOL    HW253620   4.129   4.599   7.861 -1.0000  0.4692 -0.3418
16739SOL     OW53621  10.057   0.912   1.570  0.2238  0.2114  0.1932
16739SOL    HW153622  10.033   0.897   1.478  1.2631  0.3549 -0.1087
16739SOL    HW253623  10.014   0.994   1.593  1.5778  1.2169 -0.7802
16740SOL     OW53624   3.352   6.779  10.055 -0.0784 -0.3229  0.1825
16740SOL    HW153625   3.349   6.693  10.012 -1.4109 -0.2289  0.0540
16740SOL    HW253626   3.431   6.821  10.021  1.0125 -1.8012  0.8312
16741SOL     OW53627   7.435   1.736  10.163 -0.1892  0.0932 -0.5986
16741SOL    HW153628   7.396   1.819  10.135  0.2812 -0.0047 -1.5877
16741SOL    HW253629   7.376   1.703  10.231 -1.6191  0.1626 -1.7595
16742SOL     OW53630   7.108   9.048   5.765 -0.6171  0.0729  0.2069
16742SOL    HW153631   7.053   9.126   5.756 -0.8509 -0.0560  0.5101
16742SOL    HW253632   7.197   9.079   5.749 -0.7431  0.3437  0.0234
16743SOL     OW53633   9.158  10.863   1.063  0.1678 -0.0257  0.3150
16743SOL    HW153634   9.223  10.918   1.019  0.4048  0.0224  0.7222
16743SOL    HW253635   9.123  10.807   0.994 -0.1772  0.7369 -0.1309
16744SOL     OW53636   4.723  10.023  10.126 -0.1187  0.4417 -0.1878
16744SOL    HW153637   4.800   9.966  10.130  0.1483  0.7808 -0.5022
16744SOL    HW253638   4.759  10.110  10.105 -0.4327  0.9118  1.1948
16745SOL     OW53639   4.011   1.214   7.926 -0.6783 -0.1829  0.2476
16745SOL    HW153640   3.988   1.294   7.974 -0.6797 -0.0479  0.0239
16745SOL    HW253641   4.086   1.178   7.973  1.4294  1.7089 -1.5666
16746SOL     OW53642   2.540   1.541   5.580 -0.6096 -0.3049 -0.3419
16746SOL    HW153643   2.555   1.603   5.652  2.5651 -0.2072 -1.0494
16746SOL    HW253644   2.544   1.594   5.501  0.9966 -1.2182 -0.8886
16747SOL     OW53645   4.264   1.119   9.988  0.6952  0.0924  0.1130
16747SOL    HW153646   4.316   1.103   9.909  0.1646  2.9862 -0.8596
16747SOL    HW253647   4.316   1.182  10.038 -0.2885  0.3923  0.7571
16748SOL     OW53648   8.879   7.110   6.005  0.1028 -0.1648 -0.0450
16748SOL    HW153649   8.786   7.090   5.998  0.2354 -0.4368 -1.0662
16748SOL    HW253650   8.906   7.073   6.089 -0.7197 -0.0168  0.2899
16749SOL     OW53651   3.019   2.257   0.656  0.0997  0.4519  0.2332
16749SOL    HW153652   3.027   2.190   0.724 -0.6710  0.8597  0.7247
16749SOL    HW253653   3.107   2.293   0.647 -0.1322  1.5801  2.2357
16750SOL     OW53654   7.324   3.107   7.292 -0.2826  0.8398  0.5502
16750SOL    HW153655   7.324   3.017   7.261 -1.0952  0.8415  0.5293
16750SOL    HW253656   7.410   3.120   7.331  0.7718  0.8331 -1.7095
16751SOL     OW53657   2.341   7.947   0.123 -0.2653  0.4068 -0.2090
16751SOL    HW153658   2.311   7.868   0.078 -0.9498  0.3786  0.2916
16751SOL    HW253659   2.265   8.005   0.125 -0.2673  0.3717  0.9713
16752SOL     OW53660   4.792   5.325   9.194 -0.0841  0.7610 -0.2148
16752SOL    HW153661   4.863   5.334   9.130  0.5592  0.6730  0.4710
16752SOL    HW253662   4.747   5.245   9.169  0.2195  0.6772 -0.4985
16753SOL     OW53663   7.568   8.380   4.104 -0.4478  0.2371 -0.2104
16753SOL    HW153664   7.616   8.427   4.036 -0.0361  0.5596  0.3057
16753SOL    HW253665   7.635   8.332   4.152 -0.3521  2.5159  1.9917
16754SOL     OW53666   1.245   3.378  10.484  0.1375  0.1977 -0.6147
16754SOL    HW153667   1.225   3.330  10.564  0.7731 -0.4241 -0.8264
16754SOL    HW253668   1.176   3.445  10.479  1.4103  1.7367  1.6651
16755SOL     OW53669   4.263   8.054   1.847 -0.2342 -0.1583 -0.0797
16755SOL    HW153670   4.294   8.020   1.931 -0.6498 -0.8493 -0.2006
16755SOL    HW253671   4.242   7.976   1.796 -0.2501  0.2648 -0.7272
16756SOL     OW53672   8.712   2.419   1.728 -0.1197 -0.4636 -0.0142
16756SOL    HW153673   8.640   2.481   1.742  1.2306  1.7552 -2.3460
16756SOL    HW253674   8.768   2.429   1.805  0.2682  1.5565 -0.5197
16757SOL     OW53675   5.308   2.994   3.236  0.3036 -0.4069  0.1510
16757SOL    HW153676   5.248   3.059   3.270 -0.3627  0.2598 -2.2100
16757SOL    HW253677   5.394   3.037   3.237  0.4234 -0.6695  1.6780
16758SOL     OW53678   8.496   5.392   6.551  0.4664  0.4140 -0.6264
16758SOL    HW153679   8.442   5.335   6.605  1.5105  1.2258  1.3111
16758SOL    HW253680   8.578   5.344   6.539  0.9394  1.0208  0.0986
16759SOL     OW53681  10.585   1.914   6.851 -0.2198 -0.3620  0.9220
16759SOL    HW153682  10.592   1.927   6.945 -0.3421  0.8273  0.7756
16759SOL    HW253683  10.668   1.949   6.816  0.3144 -1.8232  0.6812
16760SOL     OW53684   1.566  10.453   5.780 -0.1349 -0.0802 -0.1756
16760SOL    HW153685   1.561  10.471   5.874 -0.2280 -1.7421  0.1520
16760SOL    HW253686   1.640  10.505   5.750  0.4118 -0.1712  0.9781
16761SOL     OW53687  10.934   3.672   6.741  0.3242  0.0109 -0.4016
16761SOL    HW153688  11.021   3.689   6.705  0.2776  1.1663  0.0440
16761SOL    HW253689  10.874   3.707   6.675  0.2031 -0.2015 -0.4047
16762SOL     OW53690   0.571   4.612   4.926 -0.7070  0.1999 -0.0655
16762SOL    HW153691   0.617   4.602   4.843  0.9002 -0.4051  0.8765
16762SOL    HW253692   0.493   4.556   4.917 -1.0779  0.9255 -1.5236
16763SOL     OW53693  10.091   3.586   1.166 -0.4941 -0.1463 -0.2578
16763SOL    HW153694  10.132   3.661   1.209 -1.2230  0.0393  0.1348
16763SOL    HW253695  10.098   3.515   1.229 -1.6538  0.1525  0.2251
16764SOL     OW53696   3.281   0.855  10.542  0.4277 -0.2241 -0.4174
16764SOL    HW153697   3.196   0.897  10.533  0.2736 -0.4277  0.0382
16764SOL    HW253698   3.319   0.856  10.454 -0.4951 -1.0746 -0.8254
16765SOL     OW53699  10.345   8.727   8.518 -0.8160  0.1169  0.2791
16765SOL    HW153700  10.272   8.666   8.524 -1.2323  0.1883 -2.9840
16765SOL    HW253701  10.388   8.721   8.603 -1.4157 -3.9689  0.4051
16766SOL     OW53702   1.575   2.583   1.769  0.5293  0.8011  0.3859
16766SOL    HW153703   1.523   2.576   1.849  0.0237  1.9529  0.1656
16766SOL    HW253704   1.512   2.571   1.698  0.3880  2.9427  0.1002
16767SOL     OW53705   5.773  10.820   0.798  0.1632 -0.0107 -0.1849
16767SOL    HW153706   5.725  10.898   0.768 -0.8533 -0.0347  1.3345
16767SOL    HW253707   5.726  10.747   0.758  0.5757  0.1056 -0.8878
16768SOL     OW53708   4.252   4.605   0.701  0.4735 -0.1916  0.2943
16768SOL    HW153709   4.163   4.607   0.667  0.4222  0.3960  0.4657
16768SOL    HW253710   4.268   4.513   0.720 -0.1477 -0.2805  0.3989
16769SOL     OW53711   1.275   1.604   5.682  0.1785 -0.3495  0.5590
16769SOL    HW153712   1.291   1.619   5.589 -0.1521 -1.2678  0.3495
16769SOL    HW253713   1.183   1.628   5.695  0.6050  1.1450  0.9530
16770SOL     OW53714   1.660  10.003   2.589  0.2118 -0.5431 -0.3184
16770SOL    HW153715   1.718   9.997   2.665  2.1446 -1.4983 -1.8178
16770SOL    HW253716   1.717  10.030   2.517 -1.4707 -0.1737 -1.5518
16771SOL     OW53717   4.450   6.241  10.599  0.3376  1.0497 -0.4409
16771SOL    HW153718   4.381   6.175  10.598  0.3454  1.0397 -0.2115
16771SOL    HW253719   4.485   6.240  10.509  1.9545 -0.9667  0.1672
16772SOL     OW53720   6.336  10.931   8.211  0.0320  0.2546  0.3551
16772SOL    HW153721   6.285  10.854   8.185  0.2093 -0.3148  1.6811
16772SOL    HW253722   6.280  11.005   8.186  0.6564 -0.2050 -2.6501
16773SOL     OW53723   2.282   9.840  10.746  0.3251  0.7913  0.3782
16773SOL    HW153724   2.200   9.887  10.728  0.0519  0.0438 -0.3402
16773SOL    HW253725   2.257   9.770  10.807 -0.3587 -1.9524 -2.9510
16774SOL     OW53726  10.594   3.525   3.808  0.2698  0.2791 -0.7546
16774SOL    HW153727  10.519   3.545   3.751 -0.7962 -1.4403  0.0003
16774SOL    HW253728  10.588   3.430   3.822 -0.7475  0.8919  3.9110
16775SOL     OW53729   9.914   4.585   7.824 -0.2895 -0.1307 -0.2790
16775SOL    HW153730   9.940   4.493   7.815 -2.4733 -0.7077 -0.9710
16775SOL    HW253731   9.942   4.626   7.741 -0.1897 -0.3883 -0.3721
16776SOL     OW53732   2.391   1.106   9.812  0.1891 -0.4888  1.1442
16776SOL    HW153733   2.473   1.121   9.763  1.3780 -1.0437  2.9145
16776SOL    HW253734   2.323   1.107   9.745  1.7211 -0.6071 -0.4602
16777SOL     OW53735   1.925   4.285   1.391 -0.1382 -0.0439  0.1890
16777SOL    HW153736   1.953   4.243   1.310 -1.3231  0.2327 -0.3833
16777SOL    HW253737   1.945   4.222   1.460  0.3058 -0.5355 -0.3872
16778SOL     OW53738   2.986   7.031   3.893  0.3394  0.0366  0.3415
16778SOL    HW153739   2.966   6.948   3.937  2.6775 -0.4535  0.5607
16778SOL    HW253740   2.924   7.036   3.820 -0.2386 -1.5933  0.7085
16779SOL     OW53741   0.068   8.271   2.002 -0.3072 -0.1775  0.0233
16779SOL    HW153742   0.110   8.186   2.017 -1.3990 -0.4168  1.9096
16779SOL    HW253743   0.001   8.254   1.936  1.1337 -0.2278 -1.4679
16780SOL     OW53744   7.496   5.095   3.206 -0.4890  0.0653  0.0074
16780SOL    HW153745   7.534   5.147   3.135  0.3223 -0.6734 -0.0966
16780SOL    HW253746   7.531   5.134   3.286 -0.2993  0.0135 -0.0505
16781SOL     OW53747   4.596   3.449   2.181  0.0705 -0.2991  0.5165
16781SOL    HW153748   4.676   3.402   2.203  0.2943 -0.4122 -0.4869
16781SOL    HW253749   4.575   3.500   2.259  1.7899  0.6572  0.3821
16782SOL     OW53750   2.250   9.327   0.094  0.1956  0.0233  0.2525
16782SOL    HW153751   2.270   9.409   0.139  0.2345  0.5543 -0.7254
16782SOL    HW253752   2.167   9.298   0.132 -0.6676  1.3765 -0.5833
16783SOL     OW53753   7.044   1.052   9.521  0.0815 -0.5996  0.2064
16783SOL    HW153754   7.045   1.101   9.439  3.2420 -0.2790  0.3891
16783SOL    HW253755   6.978   1.096   9.575 -1.1127 -0.0396 -1.6710
16784SOL     OW53756   1.393   3.853   7.468  0.5026  0.4695 -0.1750
16784SOL    HW153757   1.414   3.812   7.384 -0.7640  1.6115 -1.0515
16784SOL    HW253758   1.299   3.870   7.464  0.8722  2.7561  0.4882
16785SOL     OW53759   4.735   1.162   7.956 -0.0171  0.5272 -0.2135
16785SOL    HW153760   4.697   1.115   8.031 -0.6090  1.0762 -0.1710
16785SOL    HW253761   4.790   1.096   7.913 -2.0963 -0.6945 -1.0839
16786SOL     OW53762   7.960   6.785   2.978 -0.0968  0.2046  0.0059
16786SOL    HW153763   7.906   6.832   2.914 -0.5039  0.3515  0.4466
16786SOL    HW253764   7.965   6.845   3.052  1.3746  0.5290 -0.3511
16787SOL     OW53765   7.985   4.408   5.304 -0.6468 -0.4562 -0.3909
16787SOL    HW153766   8.010   4.501   5.297 -0.1254 -0.6594 -1.2986
16787SOL    HW253767   7.976   4.393   5.398  0.4637  0.2007 -0.1732
16788SOL     OW53768   1.636   1.645   0.156 -0.1619  0.0353  0.0629
16788SOL    HW153769   1.681   1.624   0.074 -0.3525  2.3308 -0.6623
16788SOL    HW253770   1.702   1.630   0.224  1.0845  1.3960 -0.8157
16789SOL     OW53771  10.004   6.526   3.028 -0.0618  0.0379  0.1372
16789SOL    HW153772   9.978   6.609   3.069  1.6738  0.5005  0.3558
16789SOL    HW253773   9.943   6.515   2.955 -0.1432  1.6635 -0.0634
16790SOL     OW53774   5.149   2.616   6.254  0.1573  0.4809 -0.6966
16790SOL    HW153775   5.164   2.597   6.162  1.5358 -0.2258 -0.3417
16790SOL    HW253776   5.084   2.687   6.254  1.9692  2.1889 -2.2856
16791SOL     OW53777   1.093   9.932   8.035  0.0738  0.0600  1.0919
16791SOL    HW153778   1.087   9.851   7.984  0.8594  0.6912 -0.0318
16791SOL    HW253779   1.104   9.902   8.125 -2.2843 -1.0676  1.0445
16792SOL     OW53780   6.037   8.914   2.354 -0.2661  0.2684 -0.7247
16792SOL    HW153781   6.047   8.830   2.312 -1.5949 -0.4871  0.3956
16792SOL    HW253782   5.979   8.964   2.296 -0.7607 -0.1731 -0.6137
16793SOL     OW53783  10.836   2.193   0.522 -0.0619 -0.7713 -0.1945
16793SOL    HW153784  10.781   2.189   0.600  0.5999 -3.4167  0.1675
16793SOL    HW253785  10.786   2.247   0.460 -1.2313  0.1581  1.5178
16794SOL     OW53786   4.917   6.000   0.546  0.3411  0.1166  0.1130
16794SOL    HW153787   4.840   6.039   0.504  0.8213  0.9809  0.0114
16794SOL    HW253788   4.977   6.073   0.556  0.6495 -0.3066  1.3502
16795SOL     OW53789   2.610  10.902  10.002  0.1904 -0.6266 -0.8747
16795SOL    HW153790   2.634  10.926  10.091  2.2575 -0.7863 -1.3419
16795SOL    HW253791   2.515  10.907   9.999  0.1226 -0.4978  1.2958
16796SOL     OW53792   3.862  10.562  10.347  0.0919 -0.1714  0.4379
16796SOL    HW153793   3.781  10.612  10.338  1.2639  1.3437 -2.1732
16796SOL    HW253794   3.834  10.471  10.349 -1.6636  0.3246 -0.5741
16797SOL     OW53795  10.135   3.729   3.149 -0.0542 -0.1435  0.6193
16797SOL    HW153796  10.229   3.740   3.135  0.1125 -0.1047  1.7176
16797SOL    HW253797  10.116   3.640   3.121 -0.0557  0.4918 -1.4502
16798SOL     OW53798   5.450   2.069   5.440  0.3110  0.2072  0.0542
16798SOL    HW153799   5.450   2.158   5.474  0.9282 -0.2920  1.4213
16798SOL    HW253800   5.387   2.070   5.368 -1.1759  1.2478  1.3611
16799SOL     OW53801   7.631   1.527  10.241  0.1544  0.0222  0.1018
16799SOL    HW153802   7.710   1.530  10.295 -0.8561  0.9659  1.5557
16799SOL    HW253803   7.599   1.617  10.239 -1.0077 -0.3846 -0.2748
16800SOL     OW53804   6.761   2.682   7.085  0.0100  0.1367  0.5276
16800SOL    HW153805   6.853   2.706   7.094 -0.2029  1.4829 -0.7329
16800SOL    HW253806   6.725   2.691   7.173  0.7157  1.2094  0.7177
16801SOL     OW53807   7.667   2.170   9.472 -0.0951 -0.6728  0.3314
16801SOL    HW153808   7.748   2.169   9.423  0.2217  1.6758  0.7314
16801SOL    HW253809   7.694   2.156   9.563 -0.0665  0.4412  0.5090
16802SOL     OW53810  10.296   9.569   9.695 -0.0893 -0.9214  0.3344
16802SOL    HW153811  10.246   9.505   9.746 -2.7756  0.9826  0.1587
16802SOL    HW253812  10.260   9.654   9.722  1.3693  0.3534 -1.6488
16803SOL     OW53813  10.274   5.160  10.464  0.6593  0.1753  0.0436
16803SOL    HW153814  10.344   5.211  10.424  0.4327 -0.1279 -0.7465
16803SOL    HW253815  10.194   5.210  10.444  0.5194 -0.1094 -0.1048
16804SOL     OW53816   1.808   3.529   7.861 -0.1828 -0.0100  0.2392
16804SOL    HW153817   1.878   3.579   7.904  2.7569 -1.5286 -2.5672
16804SOL    HW253818   1.753   3.595   7.820  0.4421  1.1625  1.2605
16805SOL     OW53819   3.384   1.398  10.121  0.1643  0.2188 -0.8872
16805SOL    HW153820   3.442   1.424  10.049 -0.7350  1.6442 -1.1105
16805SOL    HW253821   3.318   1.467  10.125 -0.4972 -0.4739  0.5280
16806SOL     OW53822   5.411   6.304   2.792 -0.0027 -0.0246  0.0107
16806SOL    HW153823   5.439   6.396   2.794 -2.6765  0.8468 -0.6643
16806SOL    HW253824   5.374   6.288   2.879  0.0305 -0.3159 -0.0298
16807SOL     OW53825   6.650   7.102   4.610 -0.2099 -0.3203  0.4816
16807SOL    HW153826   6.590   7.039   4.650 -0.7518  0.1663  0.4405
16807SOL    HW253827   6.642   7.181   4.664 -0.3776  0.0853 -0.1186
16808SOL     OW53828   2.158  10.898   2.180  0.6475 -0.1628 -0.1523
16808SOL    HW153829   2.137  10.924   2.091  1.2772 -0.6130 -0.4334
16808SOL    HW253830   2.250  10.922   2.192  0.0500  1.6733  1.0339
16809SOL     OW53831   8.320  10.433   6.681  0.6992  0.3640 -0.6101
16809SOL    HW153832   8.326  10.497   6.610  0.1010  0.9585 -0.1460
16809SOL    HW253833   8.324  10.487   6.761 -0.7014 -0.0859 -0.2224
16810SOL     OW53834   0.109   6.325   8.777 -0.1149 -0.2851  0.2214
16810SOL    HW153835   0.019   6.318   8.808 -0.2847  0.6450 -0.0460
16810SOL    HW253836   0.131   6.418   8.789  0.2442 -0.1637 -1.2546
16811SOL     OW53837  10.836   9.029   2.814  0.4158 -0.4483  0.2435
16811SOL    HW153838  10.911   9.087   2.803 -1.0189  1.0392 -2.2136
16811SOL    HW253839  10.774   9.079   2.866  0.5985 -1.2057  1.2112
16812SOL     OW53840  10.967   6.048  10.614  0.1264  0.0121  0.0842
16812SOL    HW153841  10.878   6.041  10.649  0.2993  0.5788  0.6680
16812SOL    HW253842  11.010   6.112  10.672  0.4629  0.8633 -1.0992
16813SOL     OW53843   2.690   2.260   2.713 -0.1739  0.6808 -0.9834
16813SOL    HW153844   2.725   2.264   2.624  0.4917  0.6349 -0.7293
16813SOL    HW253845   2.743   2.194   2.757  0.3595  1.6160 -0.1889
16814SOL     OW53846   3.492   1.358   2.166  0.4346  0.2952  0.1971
16814SOL    HW153847   3.585   1.377   2.153  0.7494 -0.8735  0.6835
16814SOL    HW253848   3.485   1.263   2.154 -0.5493  0.2577  0.9764
16815SOL     OW53849   8.317   3.153  10.424  0.6904 -0.7591 -0.0146
16815SOL    HW153850   8.249   3.181  10.486 -0.5494  3.2454 -2.9420
16815SOL    HW253851   8.290   3.065  10.398 -1.6824 -0.4341  1.1628
16816SOL     OW53852   8.691   4.174   3.659 -0.0628  0.2042  0.9884
16816SOL    HW153853   8.709   4.265   3.681 -1.6735  0.8469 -0.3386
16816SOL    HW253854   8.597   4.170   3.644  0.3796 -1.0872 -1.6583
16817SOL     OW53855   5.712   7.234   9.943  0.4623 -0.3405  0.3143
16817SOL    HW153856   5.643   7.233  10.009 -0.6437 -0.9729 -0.8293
16817SOL    HW253857   5.751   7.146   9.948  0.2116 -0.4709 -0.0538
16818SOL     OW53858  10.436   7.764   4.432  0.4619  0.1875 -0.1068
16818SOL    HW153859  10.351   7.731   4.405  0.7822 -1.6229  0.9535
16818SOL    HW253860  10.499   7.702   4.394  1.0854 -0.5392  2.0305
16819SOL     OW53861   3.577   7.137   6.848 -0.4262 -0.2286 -0.5899
16819SOL    HW153862   3.562   7.174   6.761 -0.6082  0.3465 -0.3111
16819SOL    HW253863   3.533   7.197   6.908 -2.2891 -1.8566 -0.2746
16820SOL     OW53864   3.713   5.523   1.764  0.4493 -0.5653 -0.5761
16820SOL    HW153865   3.794   5.529   1.815  0.1295  1.2262 -0.2464
16820SOL    HW253866   3.662   5.456   1.809  1.1812 -0.7426  0.0191
16821SOL     OW53867   6.012   8.771   9.497 -0.1778  0.5177 -0.1033
16821SOL    HW153868   6.030   8.801   9.408  0.8489 -0.2348 -0.1555
16821SOL    HW253869   6.095   8.734   9.527 -0.1546  1.9184  1.6265
16822SOL     OW53870   6.727  10.107   4.453  0.1907  0.3270  0.1829
16822SOL    HW153871   6.756  10.157   4.377 -0.8332  1.2738  0.3946
16822SOL    HW253872   6.774  10.146   4.527 -0.6079  0.9865  0.3482
16823SOL     OW53873   7.470   8.188  10.370 -0.1531 -0.4274 -0.7043
16823SOL    HW153874   7.417   8.267  10.360 -0.0213 -0.4253 -1.4240
16823SOL    HW253875   7.406   8.119  10.386 -0.2569 -0.1418  0.1044
16824SOL     OW53876   9.057   7.287   1.742 -0.3741  0.0612 -0.3861
16824SOL    HW153877   9.072   7.378   1.767 -0.7630  0.4615 -1.5627
16824SOL    HW253878   9.140   7.257   1.705 -0.3722  0.0641 -0.3863
16825SOL     OW53879   0.890   4.112   5.129 -0.3240 -0.1390  0.3130
16825SOL    HW153880   0.914   4.168   5.056 -0.6728 -0.2750  0.0944
16825SOL    HW253881   0.942   4.032   5.117  0.2072  0.1566  0.6503
16826SOL     OW53882   2.099   0.303   8.615 -0.5035 -0.1182 -0.1875
16826SOL    HW153883   2.113   0.221   8.566 -0.3983  0.7489 -1.6292
16826SOL    HW253884   2.181   0.317   8.662 -0.4831 -0.7878 -0.0145
16827SOL     OW53885   0.893   9.943   1.131 -0.4374 -0.1858  0.1447
16827SOL    HW153886   0.978   9.935   1.175 -1.1278  0.0073  1.5472
16827SOL    HW253887   0.903  10.019   1.073 -0.2106  0.9482  1.6378
16828SOL     OW53888   7.536   5.077  10.216 -0.1857  0.0073  0.5539
16828SOL    HW153889   7.505   5.090  10.306 -0.2272  1.3934  0.3488
16828SOL    HW253890   7.631   5.081  10.223 -0.2252  1.2188  0.3687
16829SOL     OW53891   9.727   3.970   1.147  0.0008  0.1939 -0.1680
16829SOL    HW153892   9.793   3.906   1.174 -0.2276  1.1704  2.9321
16829SOL    HW253893   9.648   3.919   1.130  0.7560 -0.6806 -1.0815
16830SOL     OW53894   8.704   1.202   7.113 -0.2774 -0.0768 -0.1348
16830SOL    HW153895   8.689   1.269   7.180 -2.5631  0.0026 -0.6797
16830SOL    HW253896   8.616   1.170   7.091  0.6363 -1.8993 -1.2716
16831SOL     OW53897   9.998   9.422   4.588 -0.1404  0.5775 -0.0304
16831SOL    HW153898   9.983   9.430   4.494  0.4614  3.2072  0.0650
16831SOL    HW253899  10.086   9.387   4.596  0.0570  0.9753 -0.4541
16832SOL     OW53900   1.259   8.240   9.396  0.2172 -0.2572 -0.3453
16832SOL    HW153901   1.234   8.155   9.432 -0.4167  0.7188  1.5774
16832SOL    HW253902   1.352   8.249   9.419  0.1211 -0.1638  0.0175
16833SOL     OW53903   4.399  10.176   4.766  0.1158  0.1906 -0.2805
16833SOL    HW153904   4.326  10.221   4.807  0.0365 -0.9539  0.8506
16833SOL    HW253905   4.367  10.087   4.750  0.4874  0.3200 -1.9066
16834SOL     OW53906   8.482   7.311  10.758 -0.2386  0.0804 -0.2849
16834SOL    HW153907   8.577   7.295  10.765 -0.0801  1.2189  0.3201
16834SOL    HW253908   8.442   7.228  10.783  0.5747  0.1967  1.4409
16835SOL     OW53909   7.781   2.776   0.309  0.3156  0.4587 -0.1246
16835SOL    HW153910   7.801   2.781   0.402  0.0179  1.7346 -0.1170
16835SOL    HW253911   7.852   2.824   0.266 -0.5849  1.5688 -0.3969
16836SOL     OW53912   8.996   2.839   2.994  0.1220  0.0933  0.6834
16836SOL    HW153913   8.937   2.774   3.033 -0.6006  0.6088  0.4511
16836SOL    HW253914   8.964   2.851   2.905  2.0468 -1.4139 -0.2604
16837SOL     OW53915   4.935   3.767   6.311 -0.5997  0.2397  0.0737
16837SOL    HW153916   4.927   3.679   6.274  1.3170  0.7308 -1.5744
16837SOL    HW253917   4.915   3.756   6.404 -1.3111 -1.7537 -0.2933
16838SOL     OW53918   6.451   5.318   3.368  0.2073  0.0164 -0.4646
16838SOL    HW153919   6.371   5.316   3.315 -0.4437  0.4765  0.4672
16838SOL    HW253920   6.426   5.368   3.446  1.5025  0.4522 -0.3108
16839SOL     OW53921   2.592   7.679   9.729  0.1720 -0.1859 -0.4310
16839SOL    HW153922   2.687   7.678   9.719  0.1336  0.6267 -0.8622
16839SOL    HW253923   2.566   7.587   9.718  0.9967 -0.5634  0.6290
16840SOL     OW53924   8.823   1.071   1.789 -0.0433 -0.2298  0.7684
16840SOL    HW153925   8.878   0.993   1.792  0.4115  0.0924  0.8778
16840SOL    HW253926   8.753   1.053   1.852 -0.4292 -0.9082  0.1572
16841SOL     OW53927   7.510   4.431   2.926 -0.1586 -0.0121 -0.1281
16841SOL    HW153928   7.439   4.399   2.981 -0.6761 -0.8635 -1.2573
16841SOL    HW253929   7.482   4.408   2.837  0.6172  1.3864 -0.7443
16842SOL     OW53930   7.283   3.808  10.552 -0.3897 -0.1758 -0.8080
16842SOL    HW153931   7.250   3.786  10.639  0.0156  1.2803 -0.2742
16842SOL    HW253932   7.367   3.761  10.546 -0.4245 -0.2938 -0.4187
16843SOL     OW53933   6.065   3.006   0.502 -0.2507 -0.4150  0.3673
16843SOL    HW153934   6.115   3.080   0.537  0.9448 -0.4641 -1.1782
16843SOL    HW253935   6.043   3.031   0.413  0.0119 -1.8301 -0.1179
16844SOL     OW53936   7.532  10.213   6.087  0.0772  0.4317 -0.0573
16844SOL    HW153937   7.549  10.261   6.006  1.6110  1.5038  0.8617
16844SOL    HW253938   7.528  10.121   6.060  0.8192  0.7542 -1.3261
16845SOL     OW53939   9.884   4.564   7.373  0.5714 -0.2701 -0.7327
16845SOL    HW153940   9.796   4.526   7.376 -0.2365  1.6119  0.4006
16845SOL    HW253941   9.943   4.489   7.364 -1.0973 -1.6004 -0.7648
16846SOL     OW53942   1.463   2.015   3.357 -0.3879  0.0635 -0.6072
16846SOL    HW153943   1.485   1.941   3.414 -0.0415 -0.3837 -1.3243
16846SOL    HW253944   1.394   1.982   3.300 -1.1606  0.6963 -0.0606
16847SOL     OW53945  10.647   1.102   7.982 -0.0749 -0.2390 -0.0199
16847SOL    HW153946  10.730   1.101   7.934  0.0611 -0.9803  0.2183
16847SOL    HW253947  10.656   1.173   8.045  0.7824 -0.9514  0.6915
16848SOL     OW53948   1.466   4.791   0.046 -0.6778 -0.3807 -0.5431
16848SOL    HW153949   1.435   4.819  -0.039 -1.4504 -0.4192 -0.2813
16848SOL    HW253950   1.397   4.818   0.107 -0.7761 -1.5481 -0.1115
16849SOL     OW53951   2.227   4.304   4.873  0.1318  0.4182 -0.2547
16849SOL    HW153952   2.185   4.219   4.859 -1.5258  1.4238 -1.6090
16849SOL    HW253953   2.206   4.327   4.964  0.7618 -0.7093  0.1776
16850SOL     OW53954   9.340   2.858   0.512 -0.0473 -0.1256 -0.1114
16850SOL    HW153955   9.324   2.824   0.424 -0.9010  1.4157 -0.5774
16850SOL    HW253956   9.292   2.800   0.570 -3.1615  1.4370 -1.0529
16851SOL     OW53957   2.051  10.139   0.157 -0.1527 -0.0736 -0.4454
16851SOL    HW153958   2.112  10.166   0.226 -0.1766  2.8348 -1.4602
16851SOL    HW253959   1.972  10.112   0.205  0.8842 -1.0556  0.7571
16852SOL     OW53960   6.896   7.214   4.666  0.1945  0.3020 -0.1890
16852SOL    HW153961   6.857   7.299   4.683  0.5992  0.5861 -0.6446
16852SOL    HW253962   6.833   7.169   4.610  0.5128  0.7526 -0.9126
16853SOL     OW53963   5.075  10.281   2.219 -0.2031  0.2034  0.5441
16853SOL    HW153964   5.123  10.238   2.150 -1.9195 -1.0054  0.0739
16853SOL    HW253965   5.082  10.223   2.295  0.1854  0.6668  0.8699
16854SOL     OW53966   3.601   1.744   1.296  0.5144 -0.1374 -0.0182
16854SOL    HW153967   3.621   1.721   1.387 -0.6642 -4.4031 -0.7517
16854SOL    HW253968   3.683   1.729   1.249  0.8504  1.1396  0.1280
16855SOL     OW53969   0.149   1.290   6.918 -0.7953  0.0511 -0.3193
16855SOL    HW153970   0.155   1.362   6.855  2.3427 -0.2309 -0.3984
16855SOL    HW253971   0.221   1.232   6.895 -1.6017 -1.7295  1.5065
16856SOL     OW53972   9.812   3.810   8.227 -0.1254  0.4583  0.5691
16856SOL    HW153973   9.905   3.802   8.250 -0.0529 -0.6802 -0.1013
16856SOL    HW253974   9.803   3.901   8.198  1.1131  0.1917 -0.7527
16857SOL     OW53975   2.863   7.025   9.085  0.4494  0.0658 -0.7195
16857SOL    HW153976   2.778   7.054   9.118  1.3130  1.5124  0.3118
16857SOL    HW253977   2.848   6.935   9.057 -1.0968 -0.1726  0.7386
16858SOL     OW53978   8.401   8.062   1.827 -0.3677 -0.1220 -0.1272
16858SOL    HW153979   8.368   8.060   1.917 -1.8247  0.4309 -0.6283
16858SOL    HW253980   8.330   8.103   1.777  0.6369  0.0318 -1.4400
16859SOL     OW53981   7.440   4.254  10.129  0.1595  0.1247  0.4304
16859SOL    HW153982   7.394   4.314  10.187  0.1155  0.7559 -0.2591
16859SOL    HW253983   7.458   4.305  10.050  0.1793 -0.7394 -0.1339
16860SOL     OW53984   6.148   1.104   0.247 -0.2916  0.0860 -0.4743
16860SOL    HW153985   6.109   1.019   0.228 -0.6120  0.6860 -2.5973
16860SOL    HW253986   6.170   1.140   0.162 -0.4458  2.2716  0.3801
16861SOL     OW53987   9.334   2.984   3.585  0.0099  0.5329 -0.0214
16861SOL    HW153988   9.381   2.996   3.502  0.9996  1.2120  0.6317
16861SOL    HW253989   9.373   3.048   3.644 -1.1529  0.5073  0.7849
16862SOL     OW53990   4.881   2.112   2.678 -0.4222 -0.6565  0.2859
16862SOL    HW153991   4.909   2.021   2.688 -1.7063 -1.1457 -0.3439
16862SOL    HW253992   4.943   2.150   2.616  0.3169 -1.0117  0.8076
16863SOL     OW53993  10.044   2.860   8.490 -0.1040 -0.6371 -0.5297
16863SOL    HW153994  10.101   2.785   8.507 -0.0164 -0.7185 -1.1527
16863SOL    HW253995   9.957   2.829   8.514  0.2658 -0.0952  1.6431
16864SOL     OW53996   6.140   4.341   5.230 -0.6284  0.0682  0.8694
16864SOL    HW153997   6.108   4.259   5.268 -1.4627 -0.2418 -0.4496
16864SOL    HW253998   6.165   4.395   5.305 -1.3146 -0.8973  1.8038
16865SOL     OW53999   4.444   2.668  10.707 -0.1508  0.4187 -0.5360
16865SOL    HW154000   4.417   2.760  10.708  0.4001  0.5791 -0.4908
16865SOL    HW254001   4.365   2.620  10.680 -0.3283  0.9354 -0.9234
16866SOL     OW54002   8.870   2.358   6.241 -0.8888 -0.2658 -0.0618
16866SOL    HW154003   8.959   2.377   6.210 -1.2582 -0.4185 -1.2447
16866SOL    HW254004   8.813   2.390   6.171 -1.7939  0.3539  0.9583
16867SOL     OW54005   1.836  10.855   7.366  0.3781  0.4790  0.8404
16867SOL    HW154006   1.914  10.909   7.358  0.4392  0.4880  1.5042
16867SOL    HW254007   1.868  10.770   7.396  0.1070  0.5613  1.3669
16868SOL     OW54008   8.439   0.507  10.102  0.7480  0.2863 -0.0049
16868SOL    HW154009   8.398   0.576  10.049  1.3259  0.9071  0.3360
16868SOL    HW254010   8.450   0.434  10.041  2.4131  1.3677 -1.0692
16869SOL     OW54011   8.529   1.760   0.106  0.6421  0.4675 -0.4334
16869SOL    HW154012   8.553   1.691   0.168  0.4226  1.0302  0.2824
16869SOL    HW254013   8.600   1.759   0.041  0.1376 -1.1024 -0.9956
16870SOL     OW54014   1.277  10.298   2.052 -0.3451  0.3702 -0.1630
16870SOL    HW154015   1.351  10.353   2.079  2.2355 -1.6917 -2.8044
16870SOL    HW254016   1.243  10.341   1.974 -1.1459  0.5914  0.2995
16871SOL     OW54017   1.471   0.215   5.806  0.0591 -0.1930 -0.0116
16871SOL    HW154018   1.401   0.169   5.759 -0.6947  1.8282 -0.9160
16871SOL    HW254019   1.496   0.286   5.748 -0.3762  1.9008  2.2940
16872SOL     OW54020   8.950   6.798   1.637  0.9031  0.2186  0.3631
16872SOL    HW154021   9.005   6.807   1.559 -0.9479 -1.0161 -1.1340
16872SOL    HW254022   8.899   6.880   1.640  0.6242  0.0585 -0.0156
16873SOL     OW54023   8.282   4.287   5.578  0.0978 -0.0614 -0.2625
16873SOL    HW154024   8.341   4.250   5.644  1.0006  0.3124 -0.8371
16873SOL    HW254025   8.207   4.319   5.628  0.0183 -1.2619  0.3992
16874SOL     OW54026   5.325   6.671   3.591  0.5727 -0.0147  0.8521
16874SOL    HW154027   5.328   6.597   3.651  0.5121 -0.8145 -0.1169
16874SOL    HW254028   5.241   6.661   3.546  0.5449  0.6693  0.7525
16875SOL     OW54029   4.766   5.043   1.321  0.2523  0.0268 -0.6561
16875SOL    HW154030   4.760   5.124   1.373 -0.3931 -0.3074 -0.1973
16875SOL    HW254031   4.842   5.056   1.265  1.7239 -0.1173  1.2617
16876SOL     OW54032   7.663   2.913   3.591 -0.2549  0.6572  0.2529
16876SOL    HW154033   7.723   2.911   3.516  0.0565  0.3150  0.5063
16876SOL    HW254034   7.678   2.830   3.636  0.0651  1.1564  1.0868
16877SOL     OW54035   0.496   5.510  10.276 -0.2060 -0.5102  0.1055
16877SOL    HW154036   0.408   5.548  10.269 -0.9074 -1.6568  2.2371
16877SOL    HW254037   0.480   5.416  10.287  1.2658 -0.6232  1.3439
16878SOL     OW54038   0.732   3.991  10.740  0.2861 -0.4689  0.1264
16878SOL    HW154039   0.798   3.982  10.671  0.7810 -0.4638  0.5974
16878SOL    HW254040   0.704   3.902  10.758 -0.1329 -0.4398 -0.3550
16879SOL     OW54041   8.420   7.724   4.954 -0.1127  0.2657 -0.2182
16879SOL    HW154042   8.490   7.720   4.890  0.0918 -0.7866  0.0562
16879SOL    HW254043   8.361   7.653   4.930 -1.7941  1.9811 -1.2456
16880SOL     OW54044   9.573   7.982   4.588  0.4301  0.3917 -0.3049
16880SOL    HW154045   9.482   8.012   4.598  1.4182  3.1041  1.0547
16880SOL    HW254046   9.600   8.020   4.504 -0.3769 -2.4026 -1.8952
16881SOL     OW54047   0.596   1.920  10.035 -0.2002 -0.0439  0.4628
16881SOL    HW154048   0.537   1.871   9.978  0.2544 -0.4929  0.3689
16881SOL    HW254049   0.671   1.940   9.979  0.1139 -0.2250  0.8192
16882SOL     OW54050   5.354   3.222   9.226 -0.4882  0.4057  0.2093
16882SOL    HW154051   5.262   3.203   9.210 -0.9188  1.8150  0.8629
16882SOL    HW254052   5.379   3.164   9.298 -1.1393  0.7206  0.6855
16883SOL     OW54053   2.709   2.361   6.167  0.1443  0.1316 -0.1338
16883SOL    HW154054   2.719   2.276   6.124 -0.0467 -0.4668  0.9839
16883SOL    HW254055   2.746   2.348   6.254 -2.8123  0.2368  1.1974
16884SOL     OW54056   4.819   6.477   7.639 -0.1641  0.1278  0.2547
16884SOL    HW154057   4.870   6.400   7.613 -0.0781  0.4552 -0.5523
16884SOL    HW254058   4.732   6.443   7.658 -0.5317  0.0184 -1.4943
16885SOL     OW54059   6.405   1.913   9.732 -0.4055 -0.0432 -0.1241
16885SOL    HW154060   6.389   1.985   9.793 -0.0269  1.2245 -1.4813
16885SOL    HW254061   6.499   1.916   9.715 -0.5773 -0.0675 -1.1382
16886SOL     OW54062   9.693   2.103   2.277 -0.1089  0.5488  0.0040
16886SOL    HW154063   9.618   2.091   2.335 -0.5400  2.3750 -0.1488
16886SOL    HW254064   9.668   2.059   2.196 -0.9535  1.0147  0.0029
16887SOL     OW54065   6.020   2.937   6.190 -0.0184  0.4143 -0.1730
16887SOL    HW154066   6.107   2.932   6.150  0.6362 -0.0236  1.2800
16887SOL    HW254067   6.026   3.011   6.250 -0.1781 -0.5577  1.0463
16888SOL     OW54068   5.064   8.357   6.067  0.2255  0.1360  0.0311
16888SOL    HW154069   5.143   8.304   6.081  1.8149  2.5523  0.6215
16888SOL    HW254070   5.059   8.413   6.144 -2.0266  0.1115 -0.0737
16889SOL     OW54071   1.319   4.226   1.268 -0.2856 -0.5428 -0.3650
16889SOL    HW154072   1.236   4.263   1.238  0.1345  0.2493 -0.5524
16889SOL    HW254073   1.294   4.149   1.319 -1.2214  0.4800  0.7480
16890SOL     OW54074   5.018   2.615   7.168  0.2557 -0.4311 -1.1398
16890SOL    HW154075   5.003   2.544   7.107 -0.4902 -0.5135 -0.8667
16890SOL    HW254076   5.110   2.638   7.156  0.1655 -0.5674 -2.1559
16891SOL     OW54077   9.193   5.326   3.687 -0.4094  0.3845  0.4122
16891SOL    HW154078   9.144   5.305   3.608 -1.0736  1.8626  0.4315
16891SOL    HW254079   9.278   5.356   3.655 -0.5713  0.6958  0.2754
16892SOL     OW54080   8.971   7.639   8.744  0.4507  0.5268 -0.3407
16892SOL    HW154081   9.008   7.614   8.829 -0.9391 -0.3564  0.0158
16892SOL    HW254082   9.034   7.605   8.680  0.7376 -0.1467  0.2856
16893SOL     OW54083   7.078   8.653   2.182 -0.0240 -0.2332  0.1888
16893SOL    HW154084   7.108   8.563   2.192 -0.6133 -0.5924 -1.2006
16893SOL    HW254085   6.982   8.647   2.181 -0.1551  0.7040  2.6674
16894SOL     OW54086   7.137   8.801   5.839  0.6255  0.3639 -0.0341
16894SOL    HW154087   7.216   8.800   5.894  1.2668  0.3690 -0.9492
16894SOL    HW254088   7.116   8.894   5.829 -1.4568  0.3025  2.9599
16895SOL     OW54089   7.938   0.354  10.542  0.3158 -0.1673 -0.8048
16895SOL    HW154090   8.029   0.331  10.524  0.4375  0.1572 -0.6079
16895SOL    HW254091   7.901   0.376  10.457  0.2388 -0.9452 -0.9743
16896SOL     OW54092   0.204   1.697   8.787 -0.4968 -0.7409 -0.2126
16896SOL    HW154093   0.194   1.769   8.725 -0.2899 -1.5471 -1.1950
16896SOL    HW254094   0.133   1.636   8.765 -0.7549 -0.7713  0.6958
16897SOL     OW54095  10.570   9.617   9.657 -0.5175  0.4444  0.2485
16897SOL    HW154096  10.606   9.559   9.724 -2.4683 -1.1107 -0.0084
16897SOL    HW254097  10.477   9.594   9.652 -0.7761  1.7673 -1.7229
16898SOL     OW54098   5.631   2.296   1.621  0.0220 -0.0393 -0.4300
16898SOL    HW154099   5.549   2.324   1.660 -0.5148 -1.9118 -0.1800
16898SOL    HW254100   5.698   2.345   1.669 -0.7896 -0.4337  1.1497
16899SOL     OW54101   3.737   2.272   1.729 -0.3756 -0.2087  0.8301
16899SOL    HW154102   3.714   2.260   1.821 -0.5731  1.5548  1.0296
16899SOL    HW254103   3.832   2.259   1.726 -0.0196  1.9282  1.6984
16900SOL     OW54104   0.019   1.640   2.988  0.4039  0.4252  0.3311
16900SOL    HW154105  -0.031   1.615   3.066  0.8036 -1.6105 -0.0344
16900SOL    HW254106   0.090   1.576   2.984  1.5054  1.6752 -0.6537
16901SOL     OW54107   5.541   4.588   4.435 -0.9262 -0.5869 -0.0477
16901SOL    HW154108   5.456   4.589   4.390 -0.8784 -0.3092 -0.1343
16901SOL    HW254109   5.523   4.623   4.522 -0.9123 -0.5867 -0.0452
16902SOL     OW54110   9.537   3.489   4.383 -0.7304 -0.5175  0.3883
16902SOL    HW154111   9.623   3.520   4.411 -1.3583 -0.4404  2.3223
16902SOL    HW254112   9.553   3.443   4.300  1.1618 -0.5564  0.7601
16903SOL     OW54113   0.619   8.936   1.205 -0.2470 -0.0529 -0.3580
16903SOL    HW154114   0.668   8.858   1.182  1.8030  1.2401 -0.4680
16903SOL    HW254115   0.595   8.976   1.121  1.6426  1.2204 -0.3155
16904SOL     OW54116   3.756   6.883   9.370  0.2212  0.4162  0.1900
16904SOL    HW154117   3.724   6.973   9.381  0.3737  0.4425  0.4224
16904SOL    HW254118   3.686   6.829   9.405  0.6228  0.4931  1.1345
16905SOL     OW54119   7.689   9.445   5.203 -0.1449  0.0579 -0.6735
16905SOL    HW154120   7.629   9.513   5.233  1.1489  0.5887  0.8040
16905SOL    HW254121   7.641   9.399   5.134 -1.5699  1.5628 -0.7209
16906SOL     OW54122   0.800   6.881   8.935 -0.0122 -0.3965  0.0617
16906SOL    HW154123   0.836   6.914   8.852 -0.7603 -0.2485 -0.2124
16906SOL    HW254124   0.865   6.904   9.001  0.2423  0.1558 -0.3794
16907SOL     OW54125   6.600   0.570   9.115  0.1790 -0.2821  0.6872
16907SOL    HW154126   6.510   0.602   9.105  0.2151 -0.4471 -0.2306
16907SOL    HW254127   6.634   0.618   9.190  0.4265  2.3032 -1.0346
16908SOL     OW54128   6.817   4.752  10.819 -0.3109  0.3352 -0.0002
16908SOL    HW154129   6.825   4.792  10.732 -1.8930  1.5594  0.3902
16908SOL    HW254130   6.843   4.822  10.879  0.0593 -0.2742  0.5541
16909SOL     OW54131   7.048   7.741   6.189  0.9116 -0.0641 -0.0233
16909SOL    HW154132   7.028   7.830   6.162 -0.6048 -0.5024 -0.3776
16909SOL    HW254133   7.020   7.736   6.280  0.6007 -0.3061 -0.1324
16910SOL     OW54134   4.944   9.977   8.373  0.6226  0.3751 -0.4452
16910SOL    HW154135   5.008   9.926   8.322 -1.6951 -2.1380 -0.9559
16910SOL    HW254136   4.879  10.004   8.308 -0.4178  0.3165  0.5638
16911SOL     OW54137   4.946   0.277   4.977  0.0932 -0.2704  0.5335
16911SOL    HW154138   4.996   0.329   5.040  1.9168 -1.7497  0.3787
16911SOL    HW254139   5.004   0.271   4.900 -1.2657 -0.1710 -0.5211
16912SOL     OW54140   7.151   4.260   8.653  0.1278  0.4104 -0.0902
16912SOL    HW154141   7.185   4.348   8.640 -0.5202  0.8335  1.0091
16912SOL    HW254142   7.228   4.204   8.655  0.5605  0.9921 -0.4661
16913SOL     OW54143   5.834   0.124   0.996 -0.3091  0.4648 -0.3239
16913SOL    HW154144   5.765   0.097   0.936  0.4640 -0.5972 -0.7466
16913SOL    HW254145   5.858   0.212   0.967 -1.5609  0.8812 -0.0971
16914SOL     OW54146   9.585   9.062  10.225 -0.0313 -0.6130 -0.1877
16914SOL    HW154147   9.593   9.058  10.320 -0.0921 -3.4741 -0.2557
16914SOL    HW254148   9.497   9.097  10.210 -0.3274 -0.9063  0.8222
16915SOL     OW54149   5.159   0.967   1.493  0.6222  0.3599  0.4061
16915SOL    HW154150   5.246   1.004   1.506  1.0789 -1.0035  1.2991
16915SOL    HW254151   5.172   0.872   1.496 -0.9372  0.1474  0.8408
16916SOL     OW54152   0.533   1.101  10.628  0.5133 -0.4904  0.0435
16916SOL    HW154153   0.508   1.186  10.665 -2.8157 -1.6817  0.7020
16916SOL    HW254154   0.559   1.049  10.704 -1.6905 -1.4111  0.2022
16917SOL     OW54155   4.501   6.054   3.364  0.3681  0.1784  0.0734
16917SOL    HW154156   4.497   6.149   3.350 -0.4696  0.1922  0.4061
16917SOL    HW254157   4.591   6.039   3.393  0.2796  0.9798  0.7995
16918SOL     OW54158   9.428   9.539   1.493  0.4979 -0.1787  0.1395
16918SOL    HW154159   9.429   9.512   1.401  1.5482 -1.0643  0.4123
16918SOL    HW254160   9.426   9.635   1.489  1.2123 -0.1934 -0.8076
16919SOL     OW54161   6.227  10.725   6.664  0.7147  0.2185 -0.1102
16919SOL    HW154162   6.178  10.783   6.723  0.5138 -0.4505  0.3855
16919SOL    HW254163   6.311  10.710   6.709  1.2276  1.0496 -0.7765
16920SOL     OW54164   6.654   5.216  10.089 -0.2368  0.5430  0.2238
16920SOL    HW154165   6.637   5.155  10.161  0.6526 -0.3484 -0.3139
16920SOL    HW254166   6.731   5.181  10.045 -0.1294  1.6768 -0.5206
16921SOL     OW54167   9.340   9.222   5.112 -0.1478  0.0365  0.0924
16921SOL    HW154168   9.330   9.302   5.163 -0.5789 -0.3167  0.5671
16921SOL    HW254169   9.316   9.152   5.173  0.5103 -0.4707 -0.2312
16922SOL     OW54170   9.237   5.072  10.211 -0.5351 -0.1277  0.1211
16922SOL    HW154171   9.149   5.079  10.250 -0.7189 -3.2565  0.4314
16922SOL    HW254172   9.224   5.092  10.119 -1.4149  0.4017  0.3560
16923SOL     OW54173   6.620   7.602  10.155 -0.4301  0.0263 -0.2115
16923SOL    HW154174   6.534   7.562  10.158 -1.0882  1.5206  1.3923
16923SOL    HW254175   6.605   7.689  10.119  0.6141 -0.1607 -1.1558
16924SOL     OW54176   0.638   3.329   7.604  0.3329  0.1417  0.0699
16924SOL    HW154177   0.614   3.329   7.512 -1.6407  0.3141  0.5679
16924SOL    HW254178   0.665   3.419   7.623 -0.7420  0.4704  0.0342
16925SOL     OW54179   3.702   3.746   7.591  0.0555  0.1917  0.2481
16925SOL    HW154180   3.718   3.780   7.504 -0.2394  0.8340  0.4390
16925SOL    HW254181   3.612   3.712   7.587  0.3269 -0.4917  0.0755
16926SOL     OW54182   5.811   3.446   1.045  0.2145 -0.5454 -0.2354
16926SOL    HW154183   5.772   3.417   1.127 -0.3040 -1.6686 -0.8703
16926SOL    HW254184   5.904   3.423   1.053  0.9499  2.6768  1.5230
16927SOL     OW54185   0.410   9.903   6.835  0.6754  0.0707 -0.2413
16927SOL    HW154186   0.497   9.868   6.854 -0.0811 -1.4247  0.5221
16927SOL    HW254187   0.420   9.946   6.750  1.8930 -1.0427 -0.6822
16928SOL     OW54188   3.714   2.591   6.023 -0.8628 -0.3698 -0.7350
16928SOL    HW154189   3.691   2.521   5.961  1.6863 -1.0648 -0.9672
16928SOL    HW254190   3.783   2.552   6.078 -0.1494  1.6187 -0.1772
16929SOL     OW54191   8.568   7.226   8.025  0.1652 -0.3036  0.2435
16929SOL    HW154192   8.644   7.285   8.034  1.3926 -2.0651  1.8803
16929SOL    HW254193   8.500   7.268   8.078  0.3871  0.6567 -0.2152
16930SOL     OW54194  10.110   9.627   8.317 -0.1253 -0.0599  0.5346
16930SOL    HW154195  10.075   9.637   8.229  0.2572 -1.5931  0.1925
16930SOL    HW254196  10.039   9.586   8.367  0.0393 -0.1917  0.6636
16931SOL     OW54197   6.526   0.972   1.903  0.4756  0.1148  0.1084
16931SOL    HW154198   6.438   0.994   1.874  0.5793  3.0840  1.8881
16931SOL    HW254199   6.583   1.027   1.850  1.1614 -0.4317  0.2680
16932SOL     OW54200   9.039   3.137   5.279  0.1626 -0.2065 -0.1109
16932SOL    HW154201   8.966   3.096   5.233  0.7376 -0.1141 -1.1324
16932SOL    HW254202   9.056   3.218   5.231  0.5952  0.0374  0.4428
16933SOL     OW54203   6.560   2.154  10.488 -0.3133 -0.5770  0.2857
16933SOL    HW154204   6.558   2.066  10.451 -1.9527 -0.7608  0.7718
16933SOL    HW254205   6.640   2.193  10.453  0.3130 -2.1806 -0.1114
16934SOL     OW54206   2.113   3.786   5.799  0.1856 -0.0552 -0.1909
16934SOL    HW154207   2.175   3.802   5.870 -0.2605 -1.1501  0.4511
16934SOL    HW254208   2.129   3.696   5.773  0.3277  0.3287 -1.4687
16935SOL     OW54209   9.506   3.194   7.896 -0.0623 -0.3440  0.0199
16935SOL    HW154210   9.508   3.212   7.990 -0.2405 -1.8894  0.3224
16935SOL    HW254211   9.573   3.128   7.882  0.1113  0.0322 -0.9886
16936SOL     OW54212   2.963   6.507   9.568 -0.2509 -0.1983 -0.4488
16936SOL    HW154213   3.051   6.470   9.571 -0.8171 -1.6086 -0.6304
16936SOL    HW254214   2.906   6.432   9.584 -1.4246  0.6843 -0.4536
16937SOL     OW54215   0.911   0.566   9.051 -0.4539 -0.5424 -0.0945
16937SOL    HW154216   0.962   0.531   8.978  0.3673 -0.3635  0.3889
16937SOL    HW254217   0.929   0.507   9.124 -0.8080 -0.3872  0.1199
16938SOL     OW54218   1.907   5.312  10.180 -0.0408 -0.0185 -0.1328
16938SOL    HW154219   1.840   5.338  10.116 -0.3996  0.7005  0.5172
16938SOL    HW254220   1.858   5.268  10.249  0.6408 -3.0831 -1.5282
16939SOL     OW54221   9.071   8.592   0.638 -0.3070  0.2896 -0.3835
16939SOL    HW154222   9.023   8.648   0.699  1.5761  1.4255  0.1033
16939SOL    HW254223   9.076   8.644   0.557  1.0144  0.6469 -0.0874
16940SOL     OW54224   4.263   8.293   6.107  0.3919 -0.3237  0.2035
16940SOL    HW154225   4.171   8.281   6.128  0.5138 -0.1501  0.8414
16940SOL    HW254226   4.289   8.212   6.063  0.0268 -0.5119  0.3400
16941SOL     OW54227   2.247   8.053   6.725 -0.3431 -0.6910  0.6042
16941SOL    HW154228   2.314   8.118   6.705 -1.9114  1.2773  1.4904
16941SOL    HW254229   2.268   7.978   6.670  1.0071  0.9179 -1.1412
16942SOL     OW54230   6.375   1.353   5.536 -0.3655  0.1267 -0.2076
16942SOL    HW154231   6.344   1.438   5.506  0.5712  0.7181  0.4804
16942SOL    HW254232   6.451   1.334   5.480 -0.8838 -0.5037 -0.7087
16943SOL     OW54233   7.492   5.774   2.379  0.3561  0.0940 -0.1342
16943SOL    HW154234   7.505   5.726   2.460 -2.4998 -1.0795 -0.3298
16943SOL    HW254235   7.400   5.761   2.357  1.5401 -1.4844 -4.7484
16944SOL     OW54236   2.522   7.746   6.270 -0.2487 -0.0125 -0.0485
16944SOL    HW154237   2.583   7.719   6.201 -1.4479  0.4959 -1.3333
16944SOL    HW254238   2.505   7.666   6.320  0.6805 -0.3747 -0.3148
16945SOL     OW54239   4.733   2.004   3.274  0.1550 -0.1117  0.3229
16945SOL    HW154240   4.737   1.970   3.184 -0.0056  0.2345  0.1866
16945SOL    HW254241   4.681   1.939   3.321  0.4556 -0.4263  0.2253
16946SOL     OW54242  10.897   3.179   4.691  0.2943  0.1403  0.1635
16946SOL    HW154243  10.950   3.201   4.614 -0.9113 -0.7986 -0.9613
16946SOL    HW254244  10.853   3.261   4.714  0.1813  0.2736 -0.5290
16947SOL     OW54245   0.082   6.519   1.668  0.2843  0.4690  0.0757
16947SOL    HW154246   0.048   6.446   1.616  1.2908 -0.2997  0.4577
16947SOL    HW254247   0.176   6.521   1.647 -0.0357  2.8205 -1.3066
16948SOL     OW54248   7.611   9.418   4.873 -0.1021 -0.4740  0.7105
16948SOL    HW154249   7.565   9.371   4.803 -0.6173 -0.3208  0.9441
16948SOL    HW254250   7.544   9.475   4.911  0.2458 -0.3612  1.1517
16949SOL     OW54251   6.374   1.199  10.665 -0.5927  0.7664 -0.5006
16949SOL    HW154252   6.318   1.238  10.732 -1.3243  1.8891 -1.7460
16949SOL    HW254253   6.380   1.266  10.596  2.5598  0.8141 -0.2486
16950SOL     OW54254   4.200   5.697   0.727 -0.4802  0.1513 -0.1522
16950SOL    HW154255   4.231   5.608   0.714 -1.7662 -0.4546  0.8352
16950SOL    HW254256   4.200   5.709   0.822 -1.9601  0.6055 -0.2006
16951SOL     OW54257   9.961   9.992   9.568 -0.2064 -0.2752 -0.7482
16951SOL    HW154258   9.984  10.084   9.583  1.2148 -0.6519 -0.5601
16951SOL    HW254259  10.024   9.962   9.502  0.9340 -1.7914  0.9989
16952SOL     OW54260   2.930   6.411   1.202 -0.1063  0.6659  0.2234
16952SOL    HW154261   2.855   6.376   1.250  0.9549 -1.3852  0.4431
16952SOL    HW254262   2.893   6.443   1.119 -1.6133  2.2386  1.4580
16953SOL     OW54263   8.154   5.363  10.341  0.0039  0.1706  0.3457
16953SOL    HW154264   8.213   5.309  10.394 -0.1394  1.2882  1.6705
16953SOL    HW254265   8.207   5.388  10.266  1.5456  1.9029  1.9646
16954SOL     OW54266   7.133   2.474   6.953 -0.3187  0.0735  0.1927
16954SOL    HW154267   7.066   2.541   6.967  1.7095  1.9215  1.3122
16954SOL    HW254268   7.151   2.479   6.859 -0.1891  1.0853  0.2646
16955SOL     OW54269   6.501   3.240   8.230 -0.1804  0.7170  0.4739
16955SOL    HW154270   6.533   3.165   8.179 -0.4545  0.0697  1.2324
16955SOL    HW254271   6.503   3.314   8.169  0.1779  0.1074 -0.2613
16956SOL     OW54272   0.372   0.219   9.738 -0.1048  0.2373 -0.2353
16956SOL    HW154273   0.437   0.254   9.799  1.1063  0.3342 -1.5590
16956SOL    HW254274   0.420   0.158   9.683 -1.5522 -1.1482 -0.0119
16957SOL     OW54275   8.853   5.530   8.634 -0.0027  0.6697 -0.2245
16957SOL    HW154276   8.942   5.497   8.622 -0.3260 -0.0041 -0.8300
16957SOL    HW254277   8.845   5.544   8.729  0.4418 -0.1425 -0.0614
16958SOL     OW54278  10.472   8.583   5.551  0.1995  0.1543 -0.2661
16958SOL    HW154279  10.380   8.595   5.572  0.1460 -0.3937 -0.1690
16958SOL    HW254280  10.512   8.553   5.633  0.7224  1.6648  0.0434
16959SOL     OW54281   9.310   6.649  10.766  0.2226 -0.6993 -0.1288
16959SOL    HW154282   9.371   6.598  10.714  1.1712 -0.1605  0.4437
16959SOL    HW254283   9.287   6.723  10.710  0.4918 -0.6326 -0.1528
16960SOL     OW54284   0.838   3.384   2.404 -0.0503  0.0992  0.0320
16960SOL    HW154285   0.746   3.398   2.425  0.0188  0.2281  0.2612
16960SOL    HW254286   0.883   3.460   2.444  0.2438 -0.3632  0.5981
16961SOL     OW54287   3.116   2.096   4.301  0.0153 -0.0713 -0.2081
16961SOL    HW154288   3.197   2.063   4.340 -0.9534 -0.1650  1.8078
16961SOL    HW254289   3.047   2.063   4.358 -1.2576  2.1183 -0.4018
16962SOL     OW54290   9.232   5.971   9.353  0.4458 -0.3229 -0.4815
16962SOL    HW154291   9.218   6.014   9.268 -1.0324 -0.1572 -0.1747
16962SOL    HW254292   9.327   5.969   9.364  0.5923  1.1771 -1.3702
16963SOL     OW54293   3.038   4.115   6.943  0.5560 -0.0688 -0.3278
16963SOL    HW154294   3.104   4.049   6.966  0.9204 -0.1264 -1.5085
16963SOL    HW254295   3.086   4.199   6.948  0.3546  0.0210  0.1699
16964SOL     OW54296   8.349   1.335   6.324 -0.2604 -0.4165 -0.1968
16964SOL    HW154297   8.344   1.388   6.245 -1.6246 -1.0694 -0.5608
16964SOL    HW254298   8.354   1.245   6.293 -0.9544 -0.6865  0.4698
16965SOL     OW54299   2.914   5.766   9.833 -0.0233 -0.4617 -0.6054
16965SOL    HW154300   2.952   5.701   9.892 -1.9572 -1.9365 -0.9189
16965SOL    HW254301   2.972   5.767   9.757  0.5988 -1.0387 -0.1448
16966SOL     OW54302   3.165   6.084   8.511 -0.3523  0.3380  0.5739
16966SOL    HW154303   3.151   6.172   8.476 -1.3875 -0.0190  0.0629
16966SOL    HW254304   3.203   6.098   8.597 -0.5072  1.2903  0.4925
16967SOL     OW54305  10.828  10.798   9.156  0.5066 -0.3001 -0.4369
16967SOL    HW154306  10.803  10.706   9.159  0.8237 -0.4742 -2.4294
16967SOL    HW254307  10.761  10.842   9.208 -0.3547 -1.5226 -0.4796
16968SOL     OW54308   8.182   6.389   9.143 -0.1823  0.0119  0.1639
16968SOL    HW154309   8.233   6.438   9.078  0.7155 -0.6442  0.3666
16968SOL    HW254310   8.100   6.369   9.098 -0.4136  1.3609 -0.0577
16969SOL     OW54311   3.814   8.444   1.943  0.1383 -0.0075 -0.1438
16969SOL    HW154312   3.756   8.382   1.986 -0.9388 -0.3794 -2.1055
16969SOL    HW254313   3.756   8.500   1.892  1.4880 -0.4324 -2.2057
16970SOL     OW54314   1.293   0.123   5.619  0.4374 -0.2730 -0.3738
16970SOL    HW154315   1.244   0.041   5.607 -0.6395  0.3480 -0.3311
16970SOL    HW254316   1.324   0.145   5.531  0.3347 -0.4885 -0.4646
16971SOL     OW54317   4.323   5.319  10.244 -0.2522 -0.3800  0.1800
16971SOL    HW154318   4.307   5.355  10.332 -0.5726  1.7758 -0.7109
16971SOL    HW254319   4.418   5.318  10.236 -0.0703 -4.0432  1.8726
16972SOL     OW54320   8.644   8.345   1.372  0.3488 -0.1893  0.3923
16972SOL    HW154321   8.668   8.412   1.436  1.6405 -0.2101 -0.0553
16972SOL    HW254322   8.615   8.394   1.295 -0.4832 -0.1645  0.7092
16973SOL     OW54323   7.114   3.396   1.474 -0.5649  0.1338 -0.4104
16973SOL    HW154324   7.024   3.427   1.485 -1.3221 -2.0578 -0.2454
16973SOL    HW254325   7.148   3.390   1.563  0.0321  1.7553 -0.5205
16974SOL     OW54326   9.251   4.891   0.136  0.1031 -0.3407  0.3242
16974SOL    HW154327   9.273   4.799   0.146  1.5728  0.2036  2.5266
16974SOL    HW254328   9.162   4.898   0.170 -0.3348 -1.0780 -0.6489
16975SOL     OW54329   2.811  10.173   3.610  0.4778  0.0718 -0.4924
16975SOL    HW154330   2.861  10.162   3.691  0.2765  1.4954 -0.1618
16975SOL    HW254331   2.725  10.136   3.629  0.5037  0.1968 -0.1375
16976SOL     OW54332   5.501  10.467   5.764  0.2594  0.1172 -0.1830
16976SOL    HW154333   5.561  10.542   5.760  0.9003 -0.2302  1.9344
16976SOL    HW254334   5.418  10.500   5.729  0.6562  1.6935  0.3155
16977SOL     OW54335   1.546   1.932   9.375  0.3149 -0.6764  0.1395
16977SOL    HW154336   1.484   1.978   9.318  0.0943 -0.3249  0.6591
16977SOL    HW254337   1.511   1.945   9.463  2.0253  0.9484  0.6104
16978SOL     OW54338   7.780   4.648  10.221  0.0438 -0.5440  0.0737
16978SOL    HW154339   7.775   4.709  10.148  0.7980  0.5316  0.9145
16978SOL    HW254340   7.790   4.562  10.179  0.8982  0.1063 -1.0898
16979SOL     OW54341   6.540   3.906   0.129  0.2147  0.1420  0.2790
16979SOL    HW154342   6.622   3.858   0.115  0.4749  0.8842 -0.8193
16979SOL    HW254343   6.561   3.971   0.195  0.2816 -0.2382  0.6312
16980SOL     OW54344   7.002   8.311   9.061  0.2567 -0.0824  0.2596
16980SOL    HW154345   6.917   8.342   9.027  0.2028  0.1180  0.5708
16980SOL    HW254346   7.055   8.390   9.067  1.3620 -0.5774 -2.4517
16981SOL     OW54347  10.282   4.828   4.567 -0.0759 -0.1097  0.0682
16981SOL    HW154348  10.271   4.922   4.557  1.4775  0.1611  0.6486
16981SOL    HW254349  10.214   4.802   4.629  0.1502  0.8189  0.7171
16982SOL     OW54350   8.409   7.738   4.427  0.1041  0.1140 -0.1862
16982SOL    HW154351   8.470   7.746   4.500  1.3385 -2.0843 -0.9355
16982SOL    HW254352   8.418   7.822   4.380  1.0252  0.6214  0.8552
16983SOL     OW54353   3.389   1.826   3.267  0.3011  0.3671  0.0141
16983SOL    HW154354   3.435   1.831   3.184 -0.0917  2.4782 -0.0960
16983SOL    HW254355   3.458   1.833   3.333  0.4816 -0.0409 -0.1296
16984SOL     OW54356  10.960   7.376   4.413  0.7118  0.3471  0.1004
16984SOL    HW154357  11.018   7.428   4.467  1.2112  0.1339 -0.2198
16984SOL    HW254358  10.983   7.285   4.433  0.0276  0.2520  0.4659
16985SOL     OW54359   3.055  10.753   3.427  0.0254 -0.0491 -0.3912
16985SOL    HW154360   3.005  10.724   3.351  0.0755  2.0041 -1.2693
16985SOL    HW254361   3.007  10.830   3.459  1.7547  1.0596 -0.3531
16986SOL     OW54362   7.600   7.470   3.492 -0.3601  0.8070 -0.2176
16986SOL    HW154363   7.680   7.523   3.499 -0.3851  0.9672 -1.1216
16986SOL    HW254364   7.538   7.513   3.551  0.0592  0.9769  0.1055
16987SOL     OW54365   9.120   1.474   5.216 -0.4349  0.3412 -0.6858
16987SOL    HW154366   9.107   1.414   5.143 -0.9376 -1.7535  1.1058
16987SOL    HW254367   9.034   1.514   5.230 -1.0704 -1.4313  0.6227
16988SOL     OW54368   0.504   1.824   4.170  0.1672  0.2136  0.2098
16988SOL    HW154369   0.539   1.913   4.162  0.5168 -0.0871 -2.0569
16988SOL    HW254370   0.464   1.821   4.257 -0.2447  2.7136  0.1345
16989SOL     OW54371   4.751   0.688   5.206  0.4720  0.0287  0.0391
16989SOL    HW154372   4.700   0.754   5.252 -2.5832 -1.7456 -0.6267
16989SOL    HW254373   4.685   0.635   5.160  2.8144 -3.2146  0.2482
16990SOL     OW54374   3.173   5.636   1.157 -0.5778 -0.3215  0.1877
16990SOL    HW154375   3.102   5.640   1.092 -0.2830 -0.1744 -0.1242
16990SOL    HW254376   3.191   5.542   1.166 -0.6265 -0.3430  0.0674
16991SOL     OW54377   7.071   6.191   1.516 -0.2554  0.3134 -0.6918
16991SOL    HW154378   7.118   6.109   1.532 -0.9903 -0.2972 -1.6370
16991SOL    HW254379   7.113   6.229   1.439 -0.2837  0.5602 -0.5881
16992SOL     OW54380   2.038   3.336  10.735 -0.4749 -0.3526 -0.2944
16992SOL    HW154381   1.949   3.361  10.758 -0.9570 -1.9756 -0.3478
16992SOL    HW254382   2.042   3.242  10.751  1.7448 -0.0155  1.3811
16993SOL     OW54383   6.561  10.659   7.343  0.1469 -0.2008  0.1096
16993SOL    HW154384   6.567  10.724   7.273  1.3213 -0.8127 -0.3660
16993SOL    HW254385   6.649  10.622   7.349  0.1319  0.0437  2.1095
16994SOL     OW54386   1.792   3.497   3.332  0.5110 -0.0064 -0.5324
16994SOL    HW154387   1.761   3.482   3.422 -0.6976 -0.1707 -0.9563
16994SOL    HW254388   1.773   3.415   3.286  1.7995 -0.1793 -0.7661
16995SOL     OW54389   9.741   3.417   0.920  0.2201  0.0485 -0.4471
16995SOL    HW154390   9.756   3.343   0.979  0.6472  1.4471  1.2540
16995SOL    HW254391   9.825   3.464   0.919 -0.5132  1.3777 -0.2478
16996SOL     OW54392  10.222   4.042   4.199 -0.0679 -0.0219 -0.1994
16996SOL    HW154393  10.156   4.055   4.267 -0.3297 -2.8964  0.1438
16996SOL    HW254394  10.306   4.057   4.243 -0.2818 -0.8175  0.4781
16997SOL     OW54395  10.644   3.922   4.777 -0.0895 -0.0047  0.2439
16997SOL    HW154396  10.708   3.895   4.711 -0.9018  0.6025 -0.8261
16997SOL    HW254397  10.623   3.842   4.825 -1.5285 -1.0458 -2.0406
16998SOL     OW54398   1.692   2.429   7.318  0.0525  0.0187 -0.3495
16998SOL    HW154399   1.710   2.384   7.400 -0.7433 -0.6747 -0.5413
16998SOL    HW254400   1.722   2.369   7.250 -2.9674 -1.2276 -0.6813
16999SOL     OW54401   6.399   6.844   5.605  0.1295 -0.0425 -0.6171
16999SOL    HW154402   6.331   6.797   5.654 -2.3174  2.7056 -1.2054
16999SOL    HW254403   6.460   6.874   5.672  0.4284 -1.9333  0.0008
17000SOL     OW54404   2.630   4.139   4.768  0.2798 -0.0056 -0.0591
17000SOL    HW154405   2.562   4.100   4.713  1.9524 -0.4001 -1.9004
17000SOL    HW254406   2.709   4.135   4.715  1.4373  1.8479  1.4462
17001SOL     OW54407   6.369   7.482  10.189  0.1611  0.0343 -0.2155
17001SOL    HW154408   6.315   7.507  10.114 -1.7120 -2.4109  0.2508
17001SOL    HW254409   6.318   7.510  10.265  1.0650  0.5867  0.1936
17002SOL     OW54410   3.848   5.392  10.676  0.0942 -0.3911 -0.3002
17002SOL    HW154411   3.782   5.360  10.738  0.1748  0.7673  0.3988
17002SOL    HW254412   3.897   5.313  10.650 -2.2685 -1.4367 -1.6992
17003SOL     OW54413   6.704   9.794   9.919  0.1555 -0.5051 -0.0049
17003SOL    HW154414   6.713   9.704   9.888 -0.6326 -1.1830  1.6627
17003SOL    HW254415   6.727   9.790  10.012 -2.2265  0.5366  0.6646
17004SOL     OW54416   5.260   7.709   9.999 -0.1230  0.4392 -0.0300
17004SOL    HW154417   5.234   7.711   9.907 -0.0794  0.7954 -0.0376
17004SOL    HW254418   5.219   7.787  10.037  1.6740  1.5104 -0.2507
17005SOL     OW54419   8.276   4.407   3.667 -0.1845 -0.0576 -0.1210
17005SOL    HW154420   8.253   4.444   3.581 -0.6444  1.3517  0.5851
17005SOL    HW254421   8.213   4.447   3.727  0.3379 -0.7943  0.9185
17006SOL     OW54422   8.806   0.731   7.384  0.2071  0.4164  0.0232
17006SOL    HW154423   8.841   0.768   7.465 -0.5045 -0.7141  0.8602
17006SOL    HW254424   8.882   0.721   7.327  0.5632  2.2049  0.1446
17007SOL     OW54425   0.759   1.663   1.773 -0.1612  0.0528 -0.2301
17007SOL    HW154426   0.829   1.678   1.710  0.4829 -0.4605  0.3568
17007SOL    HW254427   0.712   1.587   1.738  0.2157 -0.2527 -0.0785
17008SOL     OW54428   3.298   8.555   4.810 -0.0335 -0.4486  0.1633
17008SOL    HW154429   3.359   8.514   4.749  0.1256  0.5690 -0.3609
17008SOL    HW254430   3.344   8.555   4.894  0.0117 -1.2284  0.1423
17009SOL     OW54431  10.489   0.133   8.297 -0.3251  0.1509  0.3854
17009SOL    HW154432  10.407   0.102   8.259 -0.5921  1.3093 -0.0126
17009SOL    HW254433  10.543   0.158   8.221 -0.1436  0.7085  0.6971
17010SOL     OW54434   4.731   6.516   6.032  0.7259  0.5185  0.0383
17010SOL    HW154435   4.716   6.426   6.061  0.1373  0.5885 -0.0395
17010SOL    HW254436   4.737   6.567   6.113 -0.3682  0.6287  0.0611
17011SOL     OW54437   7.192   6.597   1.263  0.2227 -0.1242  0.0820
17011SOL    HW154438   7.256   6.631   1.200 -1.3362 -0.1103 -1.5497
17011SOL    HW254439   7.163   6.673   1.312 -0.7375  0.3804 -1.2356
17012SOL     OW54440   6.067   1.838  10.028 -0.3742 -0.0241  0.3011
17012SOL    HW154441   6.017   1.919  10.035 -0.9813 -0.3192 -0.4785
17012SOL    HW254442   6.037   1.798   9.946  2.1721  0.4730 -0.9127
17013SOL     OW54443   0.227   7.724   6.472  0.2385 -0.0096  0.3774
17013SOL    HW154444   0.193   7.636   6.491  0.7262  0.2130  2.2893
17013SOL    HW254445   0.204   7.776   6.548  0.3292  1.4424 -0.5682
17014SOL     OW54446   0.016   1.393   1.193  0.1799  0.1503 -0.0074
17014SOL    HW154447  -0.018   1.309   1.224 -0.2019 -0.2851 -1.5915
17014SOL    HW254448   0.061   1.429   1.270  2.2507 -2.4944  0.1310
17015SOL     OW54449   2.924   0.780   5.174 -0.1737  0.0047 -0.5379
17015SOL    HW154450   2.841   0.734   5.185 -0.0258 -0.2782 -0.6224
17015SOL    HW254451   2.981   0.717   5.130  0.5941 -0.3566  0.9688
17016SOL     OW54452   4.402   2.843   9.557 -0.1245 -0.2270 -0.3719
17016SOL    HW154453   4.435   2.892   9.632  1.6478 -1.7040 -0.1388
17016SOL    HW254454   4.450   2.879   9.482 -0.8440  0.2639 -0.6050
17017SOL     OW54455   1.382   3.214   0.765 -0.4851 -0.4243 -0.1728
17017SOL    HW154456   1.443   3.166   0.820 -0.6732 -0.1619  0.2633
17017SOL    HW254457   1.344   3.280   0.822 -2.5588 -1.7724  0.0466
17018SOL     OW54458   0.343   5.315   7.670  0.4420  0.5302 -0.0399
17018SOL    HW154459   0.334   5.238   7.613 -0.7802  0.5681  0.0896
17018SOL    HW254460   0.327   5.390   7.613  0.0550  0.6132  0.1787
17019SOL     OW54461   3.244   6.896  10.697 -0.0100 -0.4485 -0.5219
17019SOL    HW154462   3.209   6.815  10.658  1.1168 -0.0882 -2.3447
17019SOL    HW254463   3.330   6.870  10.731 -1.1604 -0.8711  2.2388
17020SOL     OW54464   3.747   7.257   9.197  0.1791 -0.0457 -0.2661
17020SOL    HW154465   3.842   7.270   9.197  0.1319  0.3062  0.8775
17020SOL    HW254466   3.714   7.324   9.137  0.4613  1.3160  1.0591
17021SOL     OW54467   7.839   0.969   1.561  0.3360 -0.4656  0.5643
17021SOL    HW154468   7.794   1.035   1.508 -0.1932 -1.4213 -0.1958
17021SOL    HW254469   7.775   0.898   1.571  0.9287 -0.9115  1.2942
17022SOL     OW54470   2.238   4.764   5.974 -0.8131  0.0868 -0.2694
17022SOL    HW154471   2.252   4.853   6.006 -2.2076  0.2554 -0.0722
17022SOL    HW254472   2.213   4.775   5.883 -0.5097 -0.1388 -0.3797
17023SOL     OW54473   1.904   4.309   3.441  0.4199 -0.0615 -0.0564
17023SOL    HW154474   1.881   4.227   3.486  1.9110 -0.3980  0.1010
17023SOL    HW254475   1.973   4.284   3.379  0.2679  0.9207 -0.6351
17024SOL     OW54476   1.084   6.101   5.573 -0.2725  0.8319  0.0379
17024SOL    HW154477   1.091   6.093   5.478  0.3373  3.7135 -0.2219
17024SOL    HW254478   1.153   6.045   5.608 -0.2091  0.1097 -1.2461
17025SOL     OW54479   1.731   9.768   8.966  0.6530 -0.0642 -0.0875
17025SOL    HW154480   1.814   9.795   9.006  1.2304 -2.2511  0.2165
17025SOL    HW254481   1.686   9.719   9.035 -0.8252  0.9456 -0.3155
17026SOL     OW54482   8.027   4.291   1.020 -0.4022  0.1846 -0.1178
17026SOL    HW154483   8.100   4.304   0.959 -0.2017  1.7688  0.4318
17026SOL    HW254484   8.026   4.370   1.073 -0.0031 -1.5601  2.5585
17027SOL     OW54485   9.418   3.835   7.489  0.1043  0.2075  0.0367
17027SOL    HW154486   9.400   3.830   7.583 -1.8198  1.0621 -0.2594
17027SOL    HW254487   9.368   3.763   7.451  1.4024 -0.5364 -0.2720
17028SOL     OW54488   6.354   4.865   3.730  0.1943  0.0666  0.0374
17028SOL    HW154489   6.387   4.833   3.814 -1.0358 -0.3691  0.3699
17028SOL    HW254490   6.309   4.790   3.692 -0.7283  0.7325 -0.2240
17029SOL     OW54491   8.034   2.851   7.705  0.3208 -0.0819 -0.6889
17029SOL    HW154492   7.940   2.870   7.712  0.4878  0.4500  0.3292
17029SOL    HW254493   8.071   2.884   7.787  1.3770 -0.4341 -1.0101
17030SOL     OW54494   2.201   2.378   0.167  0.2782  0.6796  0.2592
17030SOL    HW154495   2.132   2.394   0.103  0.0199 -1.7509 -0.1193
17030SOL    HW254496   2.177   2.432   0.242 -1.9612 -0.0041  0.0565
17031SOL     OW54497   7.986   0.082   2.611  0.9331  0.6694  0.1652
17031SOL    HW154498   7.970   0.158   2.667 -0.2912  0.9452 -0.5393
17031SOL    HW254499   8.080   0.065   2.619  0.7690  0.6587  2.3527
17032SOL     OW54500   0.575   2.380   1.076  0.4205 -0.2628 -0.1330
17032SOL    HW154501   0.634   2.306   1.089  0.1717 -0.4838 -0.2657
17032SOL    HW254502   0.518   2.380   1.153 -0.0907 -0.6843 -0.5071
17033SOL     OW54503  10.526   4.782   7.649 -0.2517  0.4814 -0.2962
17033SOL    HW154504  10.599   4.843   7.640 -0.4782  0.7368 -0.4239
17033SOL    HW254505  10.448   4.837   7.646 -0.4259  0.2921  0.6165
17034SOL     OW54506   8.112   6.721   7.849 -0.1250 -0.2567  0.0523
17034SOL    HW154507   8.204   6.747   7.852  0.6721 -2.7089 -1.5895
17034SOL    HW254508   8.100   6.666   7.927 -0.3161  0.3804  0.4768
17035SOL     OW54509   6.145   1.310   9.381 -0.4749 -0.0062  0.0968
17035SOL    HW154510   6.055   1.280   9.365 -0.1525 -0.6996 -0.4323
17035SOL    HW254511   6.179   1.330   9.293  0.4019 -1.2279  0.1582
17036SOL     OW54512   3.503   2.891   5.131  0.0260 -0.3996  0.0725
17036SOL    HW154513   3.437   2.954   5.162  0.3785 -0.5265  1.0985
17036SOL    HW254514   3.452   2.814   5.107 -0.3255 -0.0315 -0.3860
17037SOL     OW54515  10.274   1.852  10.438  0.1756 -0.1598 -0.2025
17037SOL    HW154516  10.189   1.823  10.405  0.0955  0.2102 -0.3285
17037SOL    HW254517  10.253   1.898  10.520  0.3234 -0.6749  0.1271
17038SOL     OW54518   2.540  10.545   0.174 -0.0163 -0.4628  0.7520
17038SOL    HW154519   2.587  10.510   0.099  1.6527 -0.0035  1.5673
17038SOL    HW254520   2.566  10.489   0.247 -0.5484 -0.0549  1.2626
17039SOL     OW54521   6.945   1.822   9.087 -0.1167 -0.6869 -0.4317
17039SOL    HW154522   7.035   1.835   9.119 -0.2857  1.0586 -0.6592
17039SOL    HW254523   6.915   1.909   9.063 -0.8817 -1.6407 -3.0722
17040SOL     OW54524   7.972   4.528  10.829 -0.3040  0.1847  0.4324
17040SOL    HW154525   7.941   4.572  10.908 -0.4304 -2.0107  1.6574
17040SOL    HW254526   7.978   4.435  10.854 -0.5112 -0.5732 -2.1828
17041SOL     OW54527   3.401   7.507   4.047 -0.1070 -0.2517  0.2295
17041SOL    HW154528   3.371   7.525   4.136 -0.1932  0.5691  0.0345
17041SOL    HW254529   3.364   7.421   4.026  0.4174 -0.7218  1.2087
17042SOL     OW54530   3.231  10.716   9.252  0.5192  0.4784 -0.3244
17042SOL    HW154531   3.255  10.662   9.177 -0.0549 -0.0038 -0.1574
17042SOL    HW254532   3.229  10.656   9.327 -3.5873 -0.0030 -0.7324
17043SOL     OW54533   4.885   9.806   4.234 -0.2040  0.1868  0.2285
17043SOL    HW154534   4.886   9.711   4.224 -3.7411  0.3024 -2.0410
17043SOL    HW254535   4.942   9.839   4.164 -1.2255 -0.1625 -0.7686
17044SOL     OW54536   4.907   7.693   2.626 -0.0015 -0.2573 -0.2968
17044SOL    HW154537   4.865   7.682   2.540 -0.5918  0.2048 -0.0738
17044SOL    HW254538   4.867   7.626   2.681 -1.7273  1.2737  0.3760
17045SOL     OW54539   1.176   2.619   4.926 -0.7610 -0.2806  0.2010
17045SOL    HW154540   1.201   2.643   5.015 -1.1118  1.3446 -0.1235
17045SOL    HW254541   1.085   2.648   4.918 -0.6408 -0.1539 -0.7803
17046SOL     OW54542  10.326   5.583   4.764  0.4424 -0.7182 -0.0753
17046SOL    HW154543  10.373   5.609   4.684  1.2482 -1.1503  0.2454
17046SOL    HW254544  10.326   5.662   4.818  1.7070 -0.9810  0.3391
17047SOL     OW54545   4.481   4.704   1.789  1.1087 -0.5237  0.1045
17047SOL    HW154546   4.501   4.780   1.735 -1.1597  0.3986  0.5246
17047SOL    HW254547   4.520   4.725   1.874  0.4297  0.2003  0.2373
17048SOL     OW54548   5.849   4.713   2.648 -0.7265  0.6589  0.2690
17048SOL    HW154549   5.834   4.624   2.616 -3.2761  0.7852  0.9598
17048SOL    HW254550   5.793   4.719   2.726  0.1086  2.5758  0.7249
17049SOL     OW54551   6.832   7.966   3.049  0.0622  0.1269 -0.0808
17049SOL    HW154552   6.808   7.954   3.141 -1.3828  0.0944 -0.4400
17049SOL    HW254553   6.797   7.889   3.004  0.7677  0.1363 -0.6608
17050SOL     OW54554   2.098   8.658   1.330 -0.6176  0.1993  0.1940
17050SOL    HW154555   2.154   8.645   1.253  0.2013 -0.3179  0.8772
17050SOL    HW254556   2.129   8.739   1.369 -2.0244  1.2728 -0.8613
17051SOL     OW54557   3.795   4.040   5.364 -0.5360  0.0367 -0.6155
17051SOL    HW154558   3.882   4.053   5.325  0.1278 -2.3023  0.0146
17051SOL    HW254559   3.812   3.997   5.447 -2.3491 -1.5629 -1.0366
17052SOL     OW54560   3.132   9.012  10.498  0.3898 -0.1839 -0.6364
17052SOL    HW154561   3.119   8.960  10.418 -1.0747  0.0739 -0.5822
17052SOL    HW254562   3.141   9.102  10.467  3.7089 -0.5144 -0.7905
17053SOL     OW54563   3.731   4.419   0.580  0.3320  0.6983  0.0656
17053SOL    HW154564   3.664   4.457   0.523  1.5954  1.9598 -0.5970
17053SOL    HW254565   3.795   4.489   0.591  1.1578 -0.2454  1.3336
17054SOL     OW54566   3.678   2.407   0.072  1.2486  0.5220 -0.0211
17054SOL    HW154567   3.755   2.451   0.035  0.4649  0.5295 -1.6839
17054SOL    HW254568   3.637   2.474   0.127 -0.0054  1.9734 -2.6331
17055SOL     OW54569   1.789  10.096   9.882 -0.0062  0.1156 -0.0533
17055SOL    HW154570   1.819  10.005   9.883 -0.3470 -0.0084 -0.6319
17055SOL    HW254571   1.713  10.096   9.823  0.2457  0.8445 -0.3935
17056SOL     OW54572   2.014   4.555   5.884  0.7962 -0.2779  0.0766
17056SOL    HW154573   2.103   4.524   5.865  1.0928 -0.6276  1.9599
17056SOL    HW254574   2.021   4.599   5.969 -0.8799 -0.5372  0.3639
17057SOL     OW54575   0.771   9.033   2.725 -0.1864 -0.2779  0.7044
17057SOL    HW154576   0.751   8.972   2.654 -0.0593  0.0444  0.3931
17057SOL    HW254577   0.802   9.112   2.682 -0.3483  0.0094  1.1114
17058SOL     OW54578   3.053  10.490   0.640  0.3600 -0.1156  0.2991
17058SOL    HW154579   3.027  10.565   0.694 -0.1033  0.4031 -0.6236
17058SOL    HW254580   3.052  10.415   0.700  0.8742  0.6281  1.2345
17059SOL     OW54581   5.079   8.722   9.936  0.3610  0.3133 -0.2676
17059SOL    HW154582   5.117   8.639   9.908 -0.7434 -0.1269 -0.4843
17059SOL    HW254583   5.014   8.697  10.002  1.0692  1.1296  0.7582
17060SOL     OW54584   4.890   0.981   1.081 -0.1462 -0.0206 -0.8239
17060SOL    HW154585   4.806   0.956   1.044 -0.2497 -0.0981 -0.5355
17060SOL    HW254586   4.877   0.977   1.176  0.6055 -1.4440 -0.7698
17061SOL     OW54587   1.662   4.973   3.807 -0.5815 -0.4113  0.1075
17061SOL    HW154588   1.587   5.032   3.818 -0.4056 -0.4137  1.5160
17061SOL    HW254589   1.624   4.889   3.782 -1.1245 -0.5886  1.4544
17062SOL     OW54590   4.345   4.574   6.584  0.5852 -0.3809 -0.4611
17062SOL    HW154591   4.314   4.575   6.494 -3.0347 -0.9385  0.6517
17062SOL    HW254592   4.391   4.656   6.595 -0.5401  0.5376 -2.3326
17063SOL     OW54593   4.910   4.664  10.564 -0.0653  0.2523  0.4536
17063SOL    HW154594   5.001   4.678  10.589  0.4354 -3.4207  0.9900
17063SOL    HW254595   4.867   4.634  10.644 -1.2977  0.0866 -0.2445
17064SOL     OW54596   7.407   6.181   0.741  0.2643  0.3136  0.1500
17064SOL    HW154597   7.381   6.195   0.831 -0.4712 -1.9472  0.3262
17064SOL    HW254598   7.499   6.209   0.738 -0.3646  2.5766  0.9967
17065SOL     OW54599   8.965   1.974   7.117 -0.1040  0.0850  0.8027
17065SOL    HW154600   8.908   2.002   7.188 -2.9073  1.2720 -1.7880
17065SOL    HW254601   8.955   1.879   7.114  0.2249  0.0029  2.1168
17066SOL     OW54602   0.615   1.706   5.973  0.0377 -0.5059  0.0128
17066SOL    HW154603   0.615   1.653   5.893 -2.1967 -1.5027  0.6360
17066SOL    HW254604   0.691   1.674   6.022  1.0577 -0.3247 -1.4086
17067SOL     OW54605   3.506   1.830   3.035 -0.2245  0.1811 -0.0526
17067SOL    HW154606   3.528   1.741   3.008  1.1047  0.1838  0.9620
17067SOL    HW254607   3.578   1.884   3.003  1.0142  0.2856  2.7453
17068SOL     OW54608   5.857   8.418   7.392  0.7998 -0.4041 -0.2616
17068SOL    HW154609   5.814   8.335   7.411  1.6053 -0.8158 -0.1910
17068SOL    HW254610   5.863   8.462   7.477  1.6051 -0.8841 -0.0600
17069SOL     OW54611   9.364   1.600   0.458  0.2049  0.2100 -0.1534
17069SOL    HW154612   9.359   1.614   0.363  0.8119  1.8161  0.0351
17069SOL    HW254613   9.348   1.686   0.496  1.8912 -0.0222  1.1438
17070SOL     OW54614   8.471   2.494   4.989 -0.1528  0.1404  0.5209
17070SOL    HW154615   8.411   2.564   4.965  0.1963  0.6330  1.0811
17070SOL    HW254616   8.542   2.499   4.925  0.0755  0.5587  0.8062
17071SOL     OW54617   0.730   7.818   5.696  0.3196  0.5322 -0.1939
17071SOL    HW154618   0.779   7.766   5.760  0.7884  1.0161 -0.1549
17071SOL    HW254619   0.679   7.754   5.646  1.4399 -0.0373 -0.6214
17072SOL     OW54620   4.103   6.689   4.943  0.5012 -0.0336 -1.0666
17072SOL    HW154621   4.198   6.681   4.952  0.4852  1.9411  1.4349
17072SOL    HW254622   4.070   6.601   4.964  1.6425 -0.0959  0.5549
17073SOL     OW54623  10.833   6.937   7.819  0.0834 -0.1363 -0.3853
17073SOL    HW154624  10.776   6.990   7.763  2.8698  3.5249  0.0264
17073SOL    HW254625  10.807   6.961   7.908  0.3174 -0.6133 -0.1904
17074SOL     OW54626   0.117   1.188  10.575  0.3828 -0.4876 -0.0877
17074SOL    HW154627   0.138   1.116  10.516 -0.0194 -0.0721 -0.7412
17074SOL    HW254628   0.024   1.204  10.562  0.7694  1.1086 -1.0267
17075SOL     OW54629   5.431   9.027   1.530  0.5245 -0.2550 -0.8938
17075SOL    HW154630   5.455   8.986   1.447  2.5237  0.8696 -0.9050
17075SOL    HW254631   5.424   9.120   1.510 -0.7111 -0.1794 -0.1645
17076SOL     OW54632   8.936  10.757   0.479  0.4675  0.4107  1.0168
17076SOL    HW154633   8.885  10.688   0.436 -1.6549  0.3911  3.4513
17076SOL    HW254634   8.950  10.823   0.411 -0.5727 -0.8031 -0.3934
17077SOL     OW54635   0.773   7.954   9.183  0.3122 -0.3937  0.1369
17077SOL    HW154636   0.852   7.990   9.143 -0.2673 -0.4392 -1.0557
17077SOL    HW254637   0.729   8.030   9.221  0.2293 -0.1785 -0.3956
17078SOL     OW54638   5.709   9.391   6.570 -0.3431 -0.5421 -0.1842
17078SOL    HW154639   5.799   9.420   6.564  0.0736 -1.7830 -0.1154
17078SOL    HW254640   5.664   9.437   6.499  0.5967 -0.8039 -0.9610
17079SOL     OW54641   1.365   2.831   5.359 -0.3137  0.6591 -0.2213
17079SOL    HW154642   1.390   2.760   5.419 -1.0754 -0.5198 -1.2621
17079SOL    HW254643   1.431   2.898   5.372  0.2734 -0.1330  0.9896
17080SOL     OW54644   6.389   0.073   5.060 -0.2824 -0.1795 -0.2146
17080SOL    HW154645   6.466   0.100   5.109 -0.6265  1.8028 -0.7198
17080SOL    HW254646   6.324   0.053   5.127  0.9761 -2.9565  0.2460
17081SOL     OW54647   6.523   8.121   7.294  0.3239  0.1390 -0.0581
17081SOL    HW154648   6.487   8.049   7.241  0.6574  1.2866 -1.8765
17081SOL    HW254649   6.613   8.095   7.312  0.2273 -0.2212 -0.0900
17082SOL     OW54650   6.510  10.588   0.159  0.5521 -0.0426  0.1497
17082SOL    HW154651   6.461  10.644   0.219  1.4800 -0.6441  1.4738
17082SOL    HW254652   6.456  10.586   0.080 -1.3187 -0.2562  1.3849
17083SOL     OW54653  10.345   1.462   4.887  0.2639 -0.0692 -0.9419
17083SOL    HW154654  10.375   1.552   4.893  1.1932 -0.3906 -0.7046
17083SOL    HW254655  10.266   1.466   4.832  0.3614  0.8648 -1.0117
17084SOL     OW54656   4.224   8.937   1.190  0.2341  0.2880 -0.1811
17084SOL    HW154657   4.184   8.995   1.256 -0.4355  1.6883 -1.7622
17084SOL    HW254658   4.314   8.924   1.220  0.5178  2.5005  0.0249
17085SOL     OW54659   6.334   0.400   4.870  0.1199  0.3134  0.7673
17085SOL    HW154660   6.327   0.306   4.854 -0.9407  0.6025 -0.5915
17085SOL    HW254661   6.251   0.424   4.912 -0.3174  0.9243 -0.4219
17086SOL     OW54662   3.492   2.054   8.583  0.5388 -0.5127  0.4525
17086SOL    HW154663   3.448   2.025   8.503  0.5087 -0.8324  0.5835
17086SOL    HW254664   3.585   2.035   8.568  0.4791 -0.9959  0.6738
17087SOL     OW54665   7.547   4.537   7.470 -0.4326  0.5079 -0.1132
17087SOL    HW154666   7.538   4.530   7.565 -0.0774  0.4167 -0.0862
17087SOL    HW254667   7.474   4.593   7.443  0.8758  2.5605  0.4995
17088SOL     OW54668   4.755   5.056   8.794 -0.5825 -0.6229 -0.1424
17088SOL    HW154669   4.701   5.061   8.716 -0.5770  1.9703 -0.0143
17088SOL    HW254670   4.829   5.115   8.777 -0.4550 -0.2069  1.6998
17089SOL     OW54671   3.088   3.374   0.570  0.2026 -0.1281  0.0775
17089SOL    HW154672   3.006   3.393   0.616  0.1505 -0.6295  0.1912
17089SOL    HW254673   3.154   3.370   0.639  0.2372 -0.2404  0.0368
17090SOL     OW54674   3.205   8.524  10.670 -0.5209 -1.0564 -0.0603
17090SOL    HW154675   3.293   8.560  10.654 -0.9325 -0.0453 -0.1184
17090SOL    HW254676   3.168   8.582  10.736 -1.7195 -0.5133 -1.1796
17091SOL     OW54677   3.981  10.437   3.427 -0.4747 -0.8253  0.1514
17091SOL    HW154678   3.934  10.515   3.456 -0.7604 -1.5838  1.7869
17091SOL    HW254679   3.913  10.370   3.419 -0.4222 -0.6512 -2.3932
17092SOL     OW54680   4.770  10.954   9.114  0.3833 -0.2384 -0.3254
17092SOL    HW154681   4.679  10.978   9.132  0.4505 -1.1032  1.2318
17092SOL    HW254682   4.782  10.974   9.021 -0.8379  1.6497 -0.1101
17093SOL     OW54683   2.565   7.189   3.109  0.3248 -0.5375  0.5092
17093SOL    HW154684   2.552   7.116   3.169  0.2009  1.4036  2.9705
17093SOL    HW254685   2.603   7.258   3.164  2.1944  0.6354 -2.1380
17094SOL     OW54686   0.951   4.990   9.503 -0.1550  0.3828  0.1326
17094SOL    HW154687   0.866   4.989   9.548  0.5950  0.9707  1.5661
17094SOL    HW254688   0.999   4.917   9.542  0.1657  0.3308 -0.3618
17095SOL     OW54689   6.154   2.213   3.926  0.2854 -0.2158 -0.4425
17095SOL    HW154690   6.223   2.176   3.981  0.4008 -1.4134 -1.3825
17095SOL    HW254691   6.091   2.142   3.916 -1.7951  1.2760  1.5288
17096SOL     OW54692   5.117   9.986   5.119 -0.3050  0.2572  0.2204
17096SOL    HW154693   5.167  10.056   5.161  0.7750  0.8770 -2.0264
17096SOL    HW254694   5.025  10.013   5.130 -0.0210  0.6175  1.7805
17097SOL     OW54695   6.778   2.273   8.690 -0.0233  0.1862 -0.3957
17097SOL    HW154696   6.697   2.312   8.659  0.7385  1.2013 -1.1558
17097SOL    HW254697   6.800   2.207   8.625  0.3103  0.6531 -0.7653
17098SOL     OW54698   2.407   9.241   4.563  0.4994 -0.3413 -0.2723
17098SOL    HW154699   2.342   9.267   4.628 -0.1103 -0.7546 -0.7176
17098SOL    HW254700   2.414   9.146   4.572  1.6862 -0.2104  0.3699
17099SOL     OW54701  10.540   3.346   0.313 -0.3878  0.2232  0.1584
17099SOL    HW154702  10.624   3.303   0.326  0.1639  1.2174 -0.0947
17099SOL    HW254703  10.561   3.439   0.306 -1.1180  0.2066 -3.0478
17100SOL     OW54704  10.062   0.810   3.988 -0.6873  0.1061  0.0285
17100SOL    HW154705  10.147   0.843   4.017 -0.0931 -0.9473 -0.4646
17100SOL    HW254706  10.042   0.737   4.047 -0.3325 -0.8732 -1.0299
17101SOL     OW54707   3.959   1.291   1.219 -0.3336  0.4569 -0.0312
17101SOL    HW154708   4.048   1.259   1.233 -0.3502 -0.1955 -1.3123
17101SOL    HW254709   3.964   1.385   1.238  0.6771  0.4671 -0.3081
17102SOL     OW54710   4.272   0.894   5.001  0.6004  0.6699  0.0518
17102SOL    HW154711   4.330   0.895   4.925  1.0615 -2.5691  0.3104
17102SOL    HW254712   4.314   0.835   5.063 -1.5949  0.4306  1.3725
17103SOL     OW54713   0.619   8.329   7.920 -0.5052 -0.6392  0.1809
17103SOL    HW154714   0.530   8.294   7.916 -1.1845  1.0539 -0.1028
17103SOL    HW254715   0.636   8.341   8.013 -0.8841 -0.2067  0.1956
17104SOL     OW54716  10.644   2.725   2.117  0.0816 -0.5884 -0.5697
17104SOL    HW154717  10.698   2.652   2.087 -1.6700 -1.7531 -0.9665
17104SOL    HW254718  10.588   2.746   2.042  0.5853  1.1806 -0.4631
17105SOL     OW54719   3.699   6.877   7.365  0.0409 -0.5841  0.5386
17105SOL    HW154720   3.761   6.806   7.348 -1.9520 -2.0678 -0.8417
17105SOL    HW254721   3.747   6.957   7.344  1.2308 -1.7403 -1.2358
17106SOL     OW54722  10.546   2.572   2.587  0.2888  0.8248 -0.1925
17106SOL    HW154723  10.460   2.557   2.548  0.0739 -0.3715  0.7325
17106SOL    HW254724  10.606   2.519   2.534  0.0932 -0.2807  0.6855
17107SOL     OW54725   5.715   6.507   9.356 -0.0068  0.7019 -0.4486
17107SOL    HW154726   5.718   6.412   9.343 -0.2219  0.7295 -0.7082
17107SOL    HW254727   5.646   6.537   9.296 -1.6188  0.7218  1.3776
17108SOL     OW54728   6.070   8.316   4.726  0.0744  0.0897  0.0597
17108SOL    HW154729   6.043   8.254   4.658 -0.3516  0.1698  0.1549
17108SOL    HW254730   6.129   8.266   4.783 -1.1599 -0.5632  0.7872
17109SOL     OW54731   9.467   0.538   3.982 -0.1390  0.0975 -0.3783
17109SOL    HW154732   9.378   0.563   4.008  0.1133 -1.7216  2.4357
17109SOL    HW254733   9.523   0.607   4.016 -0.3421  0.6160 -1.0840
17110SOL     OW54734   4.866   8.393   5.518 -0.5789 -0.3911 -0.4334
17110SOL    HW154735   4.770   8.394   5.522 -0.5180 -0.1341  1.4547
17110SOL    HW254736   4.891   8.321   5.577  0.4486  0.9266  0.7545
17111SOL     OW54737  10.209   7.102   9.584 -0.4037  0.5607 -0.7697
17111SOL    HW154738  10.262   7.056   9.520 -0.6625 -1.4146  0.3672
17111SOL    HW254739  10.252   7.085   9.668 -2.3628 -0.4406  0.0741
17112SOL     OW54740   7.392   9.067   0.870  0.8545  0.7676 -0.1281
17112SOL    HW154741   7.369   9.101   0.784  0.3909 -0.7781 -0.6238
17112SOL    HW254742   7.310   9.064   0.918  1.2043  2.2215  0.6034
17113SOL     OW54743   7.801   3.303  10.135 -0.3380  0.4034 -0.2025
17113SOL    HW154744   7.886   3.325  10.097  0.3956 -1.4703  0.2553
17113SOL    HW254745   7.755   3.386  10.144  1.9071  1.5958  0.5983
17114SOL     OW54746   8.907   7.749   3.932  0.5771  0.2093 -0.0922
17114SOL    HW154747   8.927   7.729   4.023 -1.5804  0.6237  0.5115
17114SOL    HW254748   8.941   7.837   3.918  0.9027  0.1502  0.3120
17115SOL     OW54749   1.168   4.635   8.931 -0.1729 -0.0347 -0.4491
17115SOL    HW154750   1.087   4.584   8.926 -0.6126  0.3803  1.8699
17115SOL    HW254751   1.143   4.723   8.903 -0.6057  0.1493  0.4799
17116SOL     OW54752   5.033  10.197   8.994  0.6270  0.0978  0.0624
17116SOL    HW154753   4.989  10.223   8.913  0.4392 -2.2056 -0.6245
17116SOL    HW254754   5.045  10.278   9.042  1.2766  1.6029 -2.5405
17117SOL     OW54755   8.908   9.754   8.912  0.3012 -0.3535  0.1562
17117SOL    HW154756   8.955   9.794   8.839 -0.1646  1.0668  0.6069
17117SOL    HW254757   8.956   9.784   8.990 -0.1304 -0.5930  0.5130
17118SOL     OW54758   4.530   4.556   6.282 -0.3774  0.2921  0.1170
17118SOL    HW154759   4.544   4.517   6.195 -0.8545 -0.4089  0.3487
17118SOL    HW254760   4.564   4.645   6.274  0.7266 -0.1745 -0.4150
17119SOL     OW54761   0.624   1.704   6.606  0.2485  0.8938 -0.0358
17119SOL    HW154762   0.609   1.789   6.649  1.8954  1.2323 -0.1042
17119SOL    HW254763   0.664   1.650   6.673  0.4739  0.6080 -0.4014
17120SOL     OW54764   2.273   2.837   5.919 -0.0239 -0.3212  0.2030
17120SOL    HW154765   2.254   2.748   5.949  0.7520 -0.6868 -0.3518
17120SOL    HW254766   2.313   2.880   5.994 -0.2976 -0.4799  0.4394
17121SOL     OW54767   5.819   3.325   5.090  0.0635 -0.2319  0.3618
17121SOL    HW154768   5.745   3.320   5.150 -0.1168  1.0866  0.2589
17121SOL    HW254769   5.793   3.273   5.014 -0.7625  0.2569  0.3141
17122SOL     OW54770   2.069   7.904   4.399 -0.0638  0.4903  0.4655
17122SOL    HW154771   2.067   7.960   4.321  0.5803  0.2248  0.2584
17122SOL    HW254772   2.000   7.840   4.384 -1.0506  1.4423  0.8650
17123SOL     OW54773   9.543   4.473   7.795 -0.8649 -0.8714  0.1850
17123SOL    HW154774   9.575   4.545   7.740 -0.0664 -0.4167  1.2244
17123SOL    HW254775   9.537   4.398   7.735  2.8549 -1.1607  0.0723
17124SOL     OW54776   5.921   1.010  10.802  0.2438  0.4404 -0.0664
17124SOL    HW154777   5.981   1.082  10.781 -0.3542  0.9196 -0.1409
17124SOL    HW254778   5.931   0.999  10.897  1.4254 -0.3629 -0.2730
17125SOL     OW54779   6.205   5.064   2.054  0.1001 -0.2746 -0.1555
17125SOL    HW154780   6.251   4.994   2.007  1.4278  0.4692  0.0378
17125SOL    HW254781   6.133   5.018   2.098 -1.0330 -1.0247 -2.6838
17126SOL     OW54782   8.372   4.585   3.952  0.1565  0.1666  0.3966
17126SOL    HW154783   8.467   4.599   3.959  0.4280 -1.1981 -0.2636
17126SOL    HW254784   8.354   4.512   4.011 -0.9077  1.9679  2.3622
17127SOL     OW54785   2.901   9.420   3.358  0.5340 -0.0279 -0.6077
17127SOL    HW154786   2.980   9.470   3.339  0.7957  0.1941  0.9817
17127SOL    HW254787   2.878   9.377   3.275  0.0858  3.0080 -2.1107
17128SOL     OW54788  10.418   6.961   0.109  0.1561 -0.1768  0.3015
17128SOL    HW154789  10.503   6.918   0.107  1.0921  1.6403  0.2881
17128SOL    HW254790  10.419   7.015   0.188  0.1559  2.0842 -1.2003
17129SOL     OW54791   4.909   4.050   3.394  0.2376  0.6636 -0.0222
17129SOL    HW154792   4.837   3.992   3.419  0.3851  0.5374  0.1128
17129SOL    HW254793   4.914   4.043   3.299  0.7510 -0.1412  0.0562
17130SOL     OW54794   2.240   6.471   6.662 -0.3661 -0.1014 -0.1753
17130SOL    HW154795   2.151   6.489   6.692 -1.0282 -2.1056 -0.8452
17130SOL    HW254796   2.230   6.441   6.572  1.0111 -0.1441 -0.3271
17131SOL     OW54797   7.801   9.129   5.915  0.1059 -0.0443 -0.4489
17131SOL    HW154798   7.743   9.053   5.920  0.8996 -0.5575  1.3932
17131SOL    HW254799   7.888   9.092   5.899  0.3587  0.5311 -0.4181
17132SOL     OW54800   6.141   5.203   8.068 -0.1179  0.1095  0.0070
17132SOL    HW154801   6.077   5.259   8.111 -0.2908  1.5485 -2.0684
17132SOL    HW254802   6.214   5.198   8.130 -1.2141  0.3896  1.3597
17133SOL     OW54803   7.750   0.589   0.721  0.0982  0.1004  0.3967
17133SOL    HW154804   7.799   0.670   0.717 -1.1347  0.8114 -0.7663
17133SOL    HW254805   7.679   0.606   0.783 -0.7202  0.2353 -0.5655
17134SOL     OW54806   9.398   6.414   0.853 -0.0297 -0.0213  0.0691
17134SOL    HW154807   9.454   6.461   0.792 -1.3304  0.1632 -1.0015
17134SOL    HW254808   9.315   6.462   0.851 -1.2156 -2.0689 -0.6575
17135SOL     OW54809   2.382   4.979   3.347 -0.6578  0.0907 -0.0908
17135SOL    HW154810   2.376   5.018   3.435 -0.2717  0.4284 -0.2098
17135SOL    HW254811   2.445   4.907   3.357 -1.2424 -0.3992  0.0918
17136SOL     OW54812   2.881   3.711   0.646 -0.4715  0.3627  0.5442
17136SOL    HW154813   2.884   3.726   0.551 -0.5196 -1.0814  0.2981
17136SOL    HW254814   2.800   3.663   0.660 -0.3485  0.3696  1.2906
17137SOL     OW54815   2.141  10.698   6.284  0.2032  0.3502 -0.6259
17137SOL    HW154816   2.064  10.680   6.338 -0.2182  0.3462 -1.2167
17137SOL    HW254817   2.207  10.635   6.314  0.0455  0.4920  0.0253
17138SOL     OW54818   0.155   6.172   0.544  0.6122  0.3657 -0.4067
17138SOL    HW154819   0.188   6.199   0.629  0.8826 -0.1709 -0.3402
17138SOL    HW254820   0.178   6.079   0.537 -1.1195 -0.1008 -0.2268
17139SOL     OW54821   0.358   2.758   3.548 -0.8380 -0.1073  0.0342
17139SOL    HW154822   0.424   2.826   3.561 -1.1371 -0.3458  3.2042
17139SOL    HW254823   0.279   2.806   3.522 -0.3354  0.5179 -0.3439
17140SOL     OW54824   9.352   6.234   8.438 -0.1606 -0.1904 -0.2869
17140SOL    HW154825   9.399   6.157   8.409  1.3962  0.7929 -0.4074
17140SOL    HW254826   9.292   6.254   8.366 -2.0370 -2.4521  0.5905
17141SOL     OW54827   5.683   4.883   3.210 -0.6837  0.3222 -0.4298
17141SOL    HW154828   5.722   4.965   3.239 -0.8639  0.2172  0.1061
17141SOL    HW254829   5.709   4.818   3.275  0.5831 -0.3376 -1.5615
17142SOL     OW54830   7.402   2.604   8.153 -0.5670 -0.5916  0.1943
17142SOL    HW154831   7.342   2.678   8.142  1.6635  1.0086 -1.9177
17142SOL    HW254832   7.435   2.612   8.242  0.5113  1.6610 -0.3837
17143SOL     OW54833   6.687   1.590   6.365 -0.0106 -0.3241  0.6028
17143SOL    HW154834   6.686   1.669   6.312  0.7162 -0.9655 -0.3932
17143SOL    HW254835   6.636   1.526   6.315 -1.2049 -0.2968  1.7344
17144SOL     OW54836   5.340   9.167  10.586  0.2695  0.5824 -0.5957
17144SOL    HW154837   5.368   9.177  10.495  1.2299 -0.9708 -0.4833
17144SOL    HW254838   5.421   9.163  10.636 -0.2287  0.1350  0.1860
17145SOL     OW54839   1.340   0.380   8.007  0.3895 -0.2848 -0.7654
17145SOL    HW154840   1.265   0.363   8.064  0.8135  0.3639  0.0047
17145SOL    HW254841   1.308   0.446   7.946  0.5163  0.4706 -0.0280
17146SOL     OW54842  10.658   4.672   6.106  0.6156 -0.6410 -0.0275
17146SOL    HW154843  10.647   4.607   6.175 -1.2452 -0.0841  0.2122
17146SOL    HW254844  10.641   4.624   6.025 -0.6626 -0.4961  0.1440
17147SOL     OW54845   8.592   9.823   6.254 -0.2234 -0.2663 -0.4711
17147SOL    HW154846   8.558   9.846   6.340 -0.9090  0.6476 -0.9852
17147SOL    HW254847   8.682   9.793   6.272  1.0028  3.4975  0.1520
17148SOL     OW54848   5.505   3.442   8.319 -0.0450  0.1371  0.5596
17148SOL    HW154849   5.533   3.474   8.405 -0.0933  0.9916  0.2664
17148SOL    HW254850   5.544   3.355   8.312 -0.1447  0.0043  1.4999
17149SOL     OW54851   0.890   2.543   3.538 -0.3751  0.4338 -0.3004
17149SOL    HW154852   0.829   2.616   3.551  0.0650  1.0461 -1.5707
17149SOL    HW254853   0.964   2.563   3.596 -1.3913 -0.3705  1.3360
17150SOL     OW54854  10.236   2.666   8.475  0.0520  0.4439 -0.5457
17150SOL    HW154855  10.240   2.574   8.499  0.8927  0.6598  0.1950
17150SOL    HW254856  10.310   2.679   8.416 -1.1498  0.2443 -2.1237
17151SOL     OW54857   7.612   5.801   4.652 -0.3815 -1.2730 -0.5550
17151SOL    HW154858   7.625   5.740   4.725 -3.2732 -0.1365  0.9751
17151SOL    HW254859   7.517   5.806   4.641 -0.0984  0.9935 -2.3269
17152SOL     OW54860   8.121   2.361   7.930 -0.9311  0.2390  0.0540
17152SOL    HW154861   8.033   2.391   7.906  0.6305  4.1580 -1.2410
17152SOL    HW254862   8.145   2.416   8.005  0.0619 -1.4573  0.9955
17153SOL     OW54863   6.756   0.954   7.641  0.1622 -0.2362  0.8311
17153SOL    HW154864   6.755   1.008   7.720  0.9184 -0.3487  0.9166
17153SOL    HW254865   6.722   0.869   7.669  2.3855 -0.9247  1.5096
17154SOL     OW54866   0.232   8.357   6.591  0.0128 -0.0723  0.2875
17154SOL    HW154867   0.252   8.358   6.684 -2.1862 -0.8708  0.7920
17154SOL    HW254868   0.192   8.271   6.576 -0.4029  0.3676 -1.2044
17155SOL     OW54869   8.044   2.878   5.933 -0.0741 -0.3649 -0.0009
17155SOL    HW154870   7.991   2.934   5.876  0.0598  0.2943  0.5229
17155SOL    HW254871   8.118   2.852   5.878 -1.7597 -2.6545 -1.2891
17156SOL     OW54872   4.128   1.527   2.738  0.2044 -0.2600  0.3091
17156SOL    HW154873   4.081   1.487   2.665  0.9169 -1.7283  0.6255
17156SOL    HW254874   4.064   1.586   2.779 -0.2183  0.5052 -1.4338
17157SOL     OW54875   8.491   0.407   5.787 -0.4254  0.2565 -0.0006
17157SOL    HW154876   8.533   0.419   5.872  0.1929  1.3134 -0.4419
17157SOL    HW254877   8.397   0.415   5.806 -0.2810  0.7024  0.5518
17158SOL     OW54878   2.516   6.822   2.196 -0.1762  0.0496 -0.0899
17158SOL    HW154879   2.582   6.882   2.232  1.4434 -1.1293 -1.0125
17158SOL    HW254880   2.509   6.848   2.104  0.7627 -1.3336 -0.5740
17159SOL     OW54881   8.357   0.524   1.953  0.2014 -0.0463 -0.5384
17159SOL    HW154882   8.379   0.526   1.860 -0.2437  0.7573 -0.6312
17159SOL    HW254883   8.442   0.522   1.997  0.4075 -0.6700 -0.9654
17160SOL     OW54884   6.986   8.533   6.281 -0.4357  0.2821 -0.6281
17160SOL    HW154885   6.994   8.609   6.339 -0.5254 -1.7530  2.1622
17160SOL    HW254886   6.946   8.568   6.201 -0.5333  3.1361  0.6051
17161SOL     OW54887   0.731   1.358   3.318 -0.2312  0.3572  0.5233
17161SOL    HW154888   0.751   1.389   3.230 -1.5052 -0.1220  0.0416
17161SOL    HW254889   0.809   1.309   3.345  0.3500  0.9026 -0.1511
17162SOL     OW54890   2.307   4.585   1.112  0.2331  0.0129 -0.0898
17162SOL    HW154891   2.375   4.591   1.179  0.4818 -2.1387 -0.1144
17162SOL    HW254892   2.335   4.646   1.044  2.9940 -1.9356 -0.7899
17163SOL     OW54893  10.432   1.379  10.687 -0.2949  0.3469  0.2707
17163SOL    HW154894  10.414   1.465  10.648 -1.0786  0.8237  1.6513
17163SOL    HW254895  10.526   1.382  10.708 -0.3922  1.0056  0.6443
17164SOL     OW54896  10.670   1.749  10.924 -0.3053 -0.3547 -0.6202
17164SOL    HW154897  10.720   1.668  10.914 -1.0267 -0.7382 -1.2068
17164SOL    HW254898  10.673   1.790  10.838 -0.7480 -0.2416 -0.5858
17165SOL     OW54899   9.185   5.178   0.838  0.2382 -0.6199  0.3035
17165SOL    HW154900   9.117   5.118   0.808 -0.8715  0.6047  0.2778
17165SOL    HW254901   9.136   5.251   0.876  1.5408  0.7169 -0.5482
17166SOL     OW54902   8.479   1.127   4.337  0.5218 -0.1502  0.4153
17166SOL    HW154903   8.546   1.079   4.288  0.0603  0.4865 -0.8458
17166SOL    HW254904   8.528   1.194   4.385  0.8185  0.1720 -0.3303
17167SOL     OW54905   2.440   2.604   4.423 -0.1924  0.1452  0.6200
17167SOL    HW154906   2.386   2.585   4.347 -0.8445 -2.6920  1.7327
17167SOL    HW254907   2.515   2.652   4.388 -0.6142 -0.8823 -1.7751
17168SOL     OW54908   1.044   6.778   3.955 -0.2904  0.6506  0.8158
17168SOL    HW154909   0.984   6.838   3.998 -0.4753  0.0302  1.4313
17168SOL    HW254910   1.109   6.756   4.023 -0.1548  0.2533  0.5595
17169SOL     OW54911   2.951   8.311   2.687 -0.2562 -0.2248 -0.4117
17169SOL    HW154912   3.041   8.336   2.665 -0.4572  0.9643  0.0923
17169SOL    HW254913   2.949   8.310   2.783 -1.1971  1.3394 -0.3981
17170SOL     OW54914   8.873   5.903   0.734 -0.2317 -0.0944 -0.7073
17170SOL    HW154915   8.917   5.896   0.649  0.5578  1.8622 -0.4622
17170SOL    HW254916   8.943   5.918   0.797 -0.9363 -0.3369  0.1514
17171SOL     OW54917   8.862   0.651   9.199  0.3440  0.0713 -0.0409
17171SOL    HW154918   8.874   0.673   9.107 -1.1615  0.9405 -0.0327
17171SOL    HW254919   8.900   0.563   9.207 -1.1400 -0.7728 -1.8799
17172SOL     OW54920  10.389   3.598   5.287 -0.1994  0.3197  0.0934
17172SOL    HW154921  10.341   3.517   5.304  0.9309 -0.2278  0.8188
17172SOL    HW254922  10.440   3.612   5.367 -0.7822  2.0417  0.1742
17173SOL     OW54923   8.653   2.814   6.303  0.8498  0.1370  0.2917
17173SOL    HW154924   8.616   2.775   6.382  0.8782  0.3076  0.3902
17173SOL    HW254925   8.632   2.907   6.310 -1.7576 -0.2743 -1.3185
17174SOL     OW54926   6.620   2.816   9.423 -0.9326 -0.0128 -0.2588
17174SOL    HW154927   6.641   2.817   9.516 -0.7483  0.2057 -0.2998
17174SOL    HW254928   6.701   2.786   9.381 -0.9375  0.1258 -0.3663
17175SOL     OW54929   4.443  10.979   9.791  0.2356  0.1528 -0.4726
17175SOL    HW154930   4.428  10.973   9.886 -3.8234  0.7590 -0.9823
17175SOL    HW254931   4.491  11.060   9.779  1.0329 -0.0672  1.0924
17176SOL     OW54932   6.255   2.551   7.527  0.2671 -0.0454 -0.0252
17176SOL    HW154933   6.205   2.474   7.500  0.1636  0.4353 -1.2316
17176SOL    HW254934   6.292   2.585   7.445  0.2936  1.1953  0.5043
17177SOL     OW54935   4.075   6.058   6.550  0.2730 -0.0875  0.0479
17177SOL    HW154936   4.051   5.989   6.612  2.1466 -1.0239 -0.2353
17177SOL    HW254937   4.161   6.088   6.579 -1.6018  4.0765  1.7991
17178SOL     OW54938   8.862   9.623   4.502  0.0059 -0.2304 -0.1950
17178SOL    HW154939   8.878   9.596   4.592  0.4903 -0.8960 -0.4783
17178SOL    HW254940   8.942   9.669   4.476  0.3397 -1.0545 -0.6609
17179SOL     OW54941   5.625   5.972   0.302  0.1901  0.1850 -0.3721
17179SOL    HW154942   5.670   5.887   0.298  1.6458  0.9444 -0.2753
17179SOL    HW254943   5.624   5.993   0.395  0.8130  0.7850 -0.4970
17180SOL     OW54944   7.359   3.156   1.990  0.0911  0.2358 -0.5852
17180SOL    HW154945   7.271   3.119   2.002  0.3314 -0.3982 -0.8029
17180SOL    HW254946   7.418   3.091   2.026  0.3198  1.9807  2.3683
17181SOL     OW54947   6.933   2.020   6.887 -0.0662  0.5222  0.7368
17181SOL    HW154948   6.892   2.090   6.836 -0.2449  0.2028  0.4343
17181SOL    HW254949   6.862   1.957   6.901  0.0486  0.4886  1.1625
17182SOL     OW54950   3.862   9.647  10.942  0.1372 -0.5690 -0.0826
17182SOL    HW154951   3.834   9.739  10.940 -0.2004 -0.6930 -2.5713
17182SOL    HW254952   3.955   9.650  10.920  0.2359 -0.7769  0.3131
17183SOL     OW54953   8.105   8.957   1.208 -0.4958  0.2526 -0.5215
17183SOL    HW154954   8.013   8.962   1.184 -0.8331 -2.0968  0.0710
17183SOL    HW254955   8.133   8.870   1.177  1.9788  1.5630 -2.1846
17184SOL     OW54956   3.956   0.003   3.010  0.0749 -0.1867  0.7751
17184SOL    HW154957   4.008   0.044   2.941 -0.2491  1.7721  1.6673
17184SOL    HW254958   4.015  -0.000   3.085  0.0369 -1.2188  0.7656
17185SOL     OW54959   7.390   3.475   3.160  0.4624 -0.3927 -0.0161
17185SOL    HW154960   7.309   3.472   3.210  0.9153 -1.2132  0.6878
17185SOL    HW254961   7.370   3.430   3.078  0.0781 -0.1762 -0.0397
17186SOL     OW54962   5.558   4.484   9.712 -0.1160  0.0075  0.2762
17186SOL    HW154963   5.494   4.432   9.762 -0.4583 -1.8366 -2.0139
17186SOL    HW254964   5.505   4.528   9.645  0.7776 -0.1646 -0.5425
17187SOL     OW54965   6.531   2.921   7.447  0.0528 -0.1683 -0.6229
17187SOL    HW154966   6.452   2.969   7.421 -0.0690  1.2552  2.0920
17187SOL    HW254967   6.603   2.973   7.411 -0.1516  0.9164  0.4776
17188SOL     OW54968   2.464   0.245   1.016  0.1198 -0.1351 -0.2569
17188SOL    HW154969   2.542   0.190   1.010  1.6327  2.1441 -2.6097
17188SOL    HW254970   2.482   0.306   1.088  0.7577  0.6843 -1.0907
17189SOL     OW54971   9.603   9.579   0.445  0.5573  0.0119 -0.6268
17189SOL    HW154972   9.622   9.486   0.435 -0.3173 -0.0574 -1.8375
17189SOL    HW254973   9.596   9.593   0.539 -1.1372 -1.5282 -0.4992
17190SOL     OW54974   0.823   2.111   0.340  0.6498 -0.1320  0.1976
17190SOL    HW154975   0.790   2.177   0.278 -3.7977  0.5632  3.0833
17190SOL    HW254976   0.780   2.030   0.314 -0.8203  0.0506  1.9377
17191SOL     OW54977   8.037   0.046   1.282  0.7367  0.1262 -0.9765
17191SOL    HW154978   7.977   0.115   1.255  1.6399  1.2558 -0.1342
17191SOL    HW254979   8.115   0.092   1.312  0.3961 -1.1509  1.9944
17192SOL     OW54980   5.554   2.853   4.202  0.3557 -0.2787 -0.0511
17192SOL    HW154981   5.488   2.909   4.243  0.1826  0.2633 -1.0674
17192SOL    HW254982   5.602   2.912   4.143  1.4777 -0.7597  0.3643
17193SOL     OW54983   2.809   4.031  10.633  0.4227  0.1177 -0.6662
17193SOL    HW154984   2.832   3.942  10.610  2.5122  0.0307  1.5236
17193SOL    HW254985   2.770   4.024  10.721  0.7440  1.3670 -0.4058
17194SOL     OW54986   9.710   7.582   1.847  0.3300 -0.3238  0.3612
17194SOL    HW154987   9.760   7.661   1.825 -0.4167 -0.1528 -0.7423
17194SOL    HW254988   9.746   7.554   1.932  1.7655  0.2252 -0.0543
17195SOL     OW54989   0.784   9.438   0.573 -0.5114 -0.3526 -0.1421
17195SOL    HW154990   0.871   9.443   0.532 -0.0230 -0.8925  0.8025
17195SOL    HW254991   0.730   9.391   0.509  0.1628 -0.9433 -0.2874
17196SOL     OW54992   5.673   6.797   9.944 -0.3437 -0.0899 -0.7004
17196SOL    HW154993   5.738   6.864   9.923 -0.8157  0.0627 -1.6918
17196SOL    HW254994   5.614   6.839  10.006 -0.2332  0.1827 -0.7801
17197SOL     OW54995   7.491   7.676   9.585 -0.9931  0.3235 -0.1002
17197SOL    HW154996   7.546   7.717   9.651 -1.6985 -1.0840  1.3885
17197SOL    HW254997   7.423   7.741   9.566 -0.3978  0.9935  0.0398
17198SOL     OW54998   8.680   5.146   7.980  0.3269  0.7168 -0.2022
17198SOL    HW154999   8.682   5.065   7.928 -0.6444  0.0383  0.8094
17198SOL    HW255000   8.761   5.143   8.032 -0.9347 -0.8756  1.7212
17199SOL     OW55001   7.299   3.285   7.078 -0.2691 -0.3846 -0.4418
17199SOL    HW155002   7.317   3.245   7.163 -0.2340 -0.2965 -0.4073
17199SOL    HW255003   7.333   3.223   7.015  0.7493  0.0923 -0.3603
17200SOL     OW55004  10.785   3.718   4.993 -0.3903 -0.0331 -0.1596
17200SOL    HW155005  10.745   3.774   5.060 -0.4852  0.8828 -0.9674
17200SOL    HW255006  10.710   3.678   4.948 -0.3752  0.7004 -0.8459
17201SOL     OW55007   0.483   2.952   7.610 -0.0350  0.1152  0.0929
17201SOL    HW155008   0.541   2.878   7.594 -0.8754 -0.9793  1.9261
17201SOL    HW255009   0.403   2.931   7.561 -0.5039 -0.5178  1.1050
17202SOL     OW55010   5.001   5.190   2.648 -0.0149 -0.0133 -0.2438
17202SOL    HW155011   4.947   5.158   2.720 -2.2732  2.7746 -0.6152
17202SOL    HW255012   5.080   5.223   2.691 -0.3247 -0.4993  0.7219
17203SOL     OW55013  10.379   6.503  10.655 -0.1696 -0.2945 -0.5669
17203SOL    HW155014  10.426   6.585  10.668 -1.5732  0.2774  1.1595
17203SOL    HW255015  10.328   6.515  10.575 -0.0421  0.3703 -0.5456
17204SOL     OW55016   1.425   6.414   6.101 -0.5303  0.4284 -0.1095
17204SOL    HW155017   1.350   6.401   6.044 -0.7864 -0.9496  0.5036
17204SOL    HW255018   1.434   6.509   6.109 -1.8831  0.6069 -0.6121
17205SOL     OW55019   0.279   0.774   1.589 -0.4795  0.0534 -0.0597
17205SOL    HW155020   0.359   0.822   1.570 -0.4778 -0.1293 -0.5244
17205SOL    HW255021   0.216   0.805   1.524 -0.7369  0.0785  0.1994
17206SOL     OW55022   5.083   1.573   2.367 -0.1245  0.3066 -0.4568
17206SOL    HW155023   4.997   1.534   2.352 -0.0875 -1.7374  3.6926
17206SOL    HW255024   5.145   1.509   2.331 -0.2436 -0.6743  1.0340
17207SOL     OW55025   9.013  10.252  10.149  0.4169  0.3977 -0.0583
17207SOL    HW155026   8.992  10.255  10.055  1.4737 -0.7264 -0.3447
17207SOL    HW255027   9.104  10.282  10.154  1.3173 -2.2004  0.2582
17208SOL     OW55028   6.372   6.976   5.342  0.3871 -0.1301  0.5477
17208SOL    HW155029   6.456   7.018   5.357  1.2724 -1.5993 -0.1438
17208SOL    HW255030   6.359   6.921   5.419 -0.0983  0.3332  0.7992
17209SOL     OW55031   3.390   6.589   9.423  0.2662  0.6835  0.4116
17209SOL    HW155032   3.355   6.653   9.361  0.9866  0.0430 -0.6816
17209SOL    HW255033   3.470   6.630   9.457  0.4195  0.6056  0.1452
17210SOL     OW55034   6.434   7.643   6.636  0.1453  0.8385  0.7464
17210SOL    HW155035   6.384   7.683   6.564 -0.7411  1.5140  1.7269
17210SOL    HW255036   6.387   7.669   6.715  1.1270  0.1075  1.5795
17211SOL     OW55037   6.975   1.970   4.176 -0.3180  0.4255 -0.0374
17211SOL    HW155038   6.976   2.057   4.137 -0.6711  0.4747  0.0672
17211SOL    HW255039   7.054   1.967   4.230  0.1880  0.3474 -0.7740
17212SOL     OW55040   0.828  10.476   7.527 -0.1602 -0.6622  0.0833
17212SOL    HW155041   0.802  10.542   7.590 -0.7289  0.9226 -1.7698
17212SOL    HW255042   0.921  10.491   7.512 -0.2023 -0.5254 -0.0444
17213SOL     OW55043   9.126   2.743   0.705 -0.0880 -0.4859  0.2015
17213SOL    HW155044   9.167   2.656   0.714 -0.5829 -0.8678 -1.0976
17213SOL    HW255045   9.036   2.730   0.732 -0.1894 -0.3963 -0.0960
17214SOL     OW55046   4.406   1.236   9.126 -0.2238 -0.3084 -0.2635
17214SOL    HW155047   4.331   1.288   9.154 -1.3199 -0.6144 -2.5405
17214SOL    HW255048   4.386   1.210   9.036  1.4377 -2.5760 -0.0340
17215SOL     OW55049   4.841   8.711   7.164 -0.0344  0.3231 -0.1944
17215SOL    HW155050   4.918   8.740   7.213  0.5867  0.5164 -1.2515
17215SOL    HW255051   4.856   8.618   7.149 -0.8309 -0.0083  1.0666
17216SOL     OW55052   4.590   3.318  10.097  0.2260 -0.1895  0.1309
17216SOL    HW155053   4.529   3.363  10.154  0.4062  0.7451 -0.4093
17216SOL    HW255054   4.674   3.361  10.113  0.6842 -1.2246  0.6038
17217SOL     OW55055   6.116   2.408   2.791 -0.6129  0.5156 -0.3343
17217SOL    HW155056   6.060   2.424   2.867  0.7441 -0.1754  0.8353
17217SOL    HW255057   6.097   2.480   2.732 -2.5489  0.4325  0.1449
17218SOL     OW55058   0.626   5.977   2.304 -0.0155 -0.4828 -0.4696
17218SOL    HW155059   0.580   5.936   2.377 -0.7955  0.6400 -0.3249
17218SOL    HW255060   0.718   5.958   2.320 -0.1612 -0.0251  0.9420
17219SOL     OW55061   3.360   4.301  10.735 -0.1884 -0.0998  0.0797
17219SOL    HW155062   3.274   4.295  10.776 -0.1101 -0.8436  0.1481
17219SOL    HW255063   3.380   4.394  10.733 -0.8557  0.0490  0.3554
17220SOL     OW55064   8.591   5.897   0.819 -0.3538  0.5469  0.6885
17220SOL    HW155065   8.674   5.853   0.802 -0.5577 -0.5723  2.4549
17220SOL    HW255066   8.609   5.990   0.805  1.2914  0.3449  1.3976
17221SOL     OW55067   0.567   6.856   7.136 -0.2177 -0.4363 -0.2983
17221SOL    HW155068   0.610   6.874   7.053  1.2037 -0.2840  0.4525
17221SOL    HW255069   0.623   6.896   7.202 -0.6474 -1.6356  0.8360
17222SOL     OW55070   5.906   7.947   5.489  0.3131 -0.1680 -0.0931
17222SOL    HW155071   5.876   7.858   5.468 -0.2384  0.1337 -0.6022
17222SOL    HW255072   6.001   7.941   5.484  0.3573 -1.1536  1.6019
17223SOL     OW55073   3.498   0.146   6.498  0.0373 -0.1211  0.0098
17223SOL    HW155074   3.442   0.222   6.480  0.1308  0.2786  1.3729
17223SOL    HW255075   3.452   0.099   6.568  0.7594 -0.4896  0.2379
17224SOL     OW55076  10.452   0.967   8.248  0.1158 -0.2777  0.0787
17224SOL    HW155077  10.505   1.046   8.241 -2.4089  1.7057  2.2157
17224SOL    HW255078  10.501   0.910   8.307  1.3187  0.2343 -0.4222
17225SOL     OW55079   1.450  10.487  10.327  0.3205 -0.6222 -0.0806
17225SOL    HW155080   1.358  10.466  10.343  0.9632 -3.0559  0.6918
17225SOL    HW255081   1.474  10.545  10.400 -0.6551  0.2321 -0.4291
17226SOL     OW55082   1.402   1.112   0.260  0.1563 -0.0950 -0.1345
17226SOL    HW155083   1.364   1.040   0.210 -1.2540  0.5055  0.0524
17226SOL    HW255084   1.408   1.184   0.197  0.3982  0.0012 -0.0026
17227SOL     OW55085   2.519   1.777   8.129 -0.0332  0.3812  0.1748
17227SOL    HW155086   2.557   1.755   8.214 -2.9272  0.3539  1.5379
17227SOL    HW255087   2.425   1.759   8.140 -0.4297  0.1672 -3.1004
17228SOL     OW55088   5.011   6.577   7.845  0.1394  0.2249 -0.3233
17228SOL    HW155089   4.957   6.595   7.922  0.9438 -1.0166  0.5504
17228SOL    HW255090   4.959   6.516   7.794  0.9720 -1.5252  0.8627
17229SOL     OW55091   5.929   7.247   9.044  0.1363  0.3936 -0.7424
17229SOL    HW155092   6.013   7.231   9.088 -0.1859  0.0638 -0.2517
17229SOL    HW255093   5.944   7.328   8.994  0.9967 -0.0968 -1.3002
17230SOL     OW55094   2.209   6.668   0.202 -0.1937  0.4263 -0.2112
17230SOL    HW155095   2.288   6.719   0.220  0.0027 -0.1591  0.6400
17230SOL    HW255096   2.221   6.587   0.252 -1.4552  0.4471  0.1389
17231SOL     OW55097   3.484   2.855   3.910  0.6156 -0.1052 -0.3718
17231SOL    HW155098   3.389   2.851   3.901  0.5504 -0.5120  0.4638
17231SOL    HW255099   3.516   2.790   3.847  0.2571 -1.3212  0.6827
17232SOL     OW55100   0.754   2.330   5.579 -0.2033  0.0160 -0.5644
17232SOL    HW155101   0.708   2.365   5.503 -1.9687 -0.9623  0.0440
17232SOL    HW255102   0.689   2.277   5.625  1.5732 -1.5661  0.1996
17233SOL     OW55103   5.358   2.394   1.330 -0.1452 -0.2093  0.6128
17233SOL    HW155104   5.405   2.436   1.258  0.1929 -0.2600  0.8003
17233SOL    HW255105   5.410   2.315   1.350 -0.2515 -0.2112  0.8901
17234SOL     OW55106   4.742   5.641   5.578  0.0881  0.2039  0.0780
17234SOL    HW155107   4.811   5.629   5.643  0.6030 -1.0560 -0.6751
17234SOL    HW255108   4.714   5.552   5.556 -1.0664  0.6671 -0.3774
17235SOL     OW55109   5.963   0.003   2.974 -0.5093 -0.0766 -0.3562
17235SOL    HW155110   5.935   0.094   2.967  2.7744  1.0798  0.6234
17235SOL    HW255111   6.023  -0.010   2.901  0.6535 -0.8038  0.7051
17236SOL     OW55112   2.728   8.105   0.469 -0.1633  0.4193  0.4654
17236SOL    HW155113   2.783   8.183   0.476  1.4123 -0.6934  0.7188
17236SOL    HW255114   2.746   8.071   0.381 -0.1325 -0.1864  0.7027
17237SOL     OW55115   7.050   5.397   6.697 -0.1050  0.7844  0.0928
17237SOL    HW155116   7.076   5.411   6.788  1.6210  0.5858 -0.3528
17237SOL    HW255117   7.062   5.303   6.683  2.4704  1.2467 -1.1550
17238SOL     OW55118   9.712   2.640   1.748 -0.1081  0.5345  0.7206
17238SOL    HW155119   9.749   2.605   1.667 -0.5742 -3.0709  1.9818
17238SOL    HW255120   9.762   2.597   1.818 -1.3728  1.6887  2.3867
17239SOL     OW55121   2.786  10.973   4.110 -0.2815 -0.3713 -0.2697
17239SOL    HW155122   2.691  10.986   4.114 -0.1212  0.9212 -0.5051
17239SOL    HW255123   2.815  10.986   4.200 -0.0601  1.5014 -0.5892
17240SOL     OW55124   8.044   8.690   2.754 -0.3622 -0.1958 -0.3197
17240SOL    HW155125   8.046   8.689   2.659  0.0300  0.1115 -0.3155
17240SOL    HW255126   7.966   8.640   2.777 -0.0774 -0.8619 -0.7909
17241SOL     OW55127   1.134  10.079   2.889 -0.4015  0.3408  0.0976
17241SOL    HW155128   1.134  10.009   2.955 -0.1609  0.2854  0.0399
17241SOL    HW255129   1.050  10.123   2.901 -0.0873  0.7410  0.8698
17242SOL     OW55130   1.751   9.200   5.162 -0.4931  0.0238 -0.0057
17242SOL    HW155131   1.710   9.286   5.155  1.6693  1.0781 -0.2412
17242SOL    HW255132   1.746   9.179   5.256  0.2798  1.0998  0.2892
17243SOL     OW55133   9.469   0.010   1.826 -0.4414  0.5684  0.1769
17243SOL    HW155134   9.497  -0.046   1.754  0.3096 -0.8166  1.5297
17243SOL    HW255135   9.380  -0.017   1.845 -0.1942  0.0407  0.6096
17244SOL     OW55136   8.442   7.437   1.781  0.0444  0.1984  0.2312
17244SOL    HW155137   8.455   7.438   1.687  0.6318 -0.3154  0.3068
17244SOL    HW255138   8.409   7.349   1.800 -0.8575  0.5652  0.3997
17245SOL     OW55139   3.466   5.969   0.573  0.1531 -0.1512  0.0717
17245SOL    HW155140   3.544   5.915   0.556  1.0695  0.4430  2.1576
17245SOL    HW255141   3.502   6.056   0.591 -1.1282  0.5294 -0.6767
17246SOL     OW55142   4.120   3.593   4.715  0.1998  0.1209 -0.3071
17246SOL    HW155143   4.144   3.670   4.768  2.1493 -1.2236  0.8085
17246SOL    HW255144   4.202   3.545   4.704 -0.6825 -0.9462 -2.4344
17247SOL     OW55145   0.607   3.036   8.608  0.7501 -0.1373  0.3533
17247SOL    HW155146   0.682   3.087   8.576  0.3574  0.0093 -0.3387
17247SOL    HW255147   0.542   3.044   8.539 -0.1618  0.2886  1.2494
17248SOL     OW55148   6.452  10.795   1.591  1.3738  0.9733  0.1585
17248SOL    HW155149   6.443  10.832   1.679 -2.3341  0.3623  0.1171
17248SOL    HW255150   6.484  10.706   1.606 -0.1250  0.5471  1.0173
17249SOL     OW55151   3.864   7.742   2.636 -0.2938 -0.0643  0.2632
17249SOL    HW155152   3.945   7.793   2.633  0.7957 -1.6538  1.6237
17249SOL    HW255153   3.834   7.749   2.726  1.4896 -4.1358  1.2979
17250SOL     OW55154   3.954   5.508   6.906  0.5136  0.3008 -0.0088
17250SOL    HW155155   4.035   5.468   6.938  1.1253  0.8326 -0.8722
17250SOL    HW255156   3.887   5.481   6.970  0.9299 -1.9368 -0.4487
17251SOL     OW55157   5.053  10.750   0.271 -0.1088  0.0398 -0.0416
17251SOL    HW155158   4.992  10.678   0.255  0.1507 -0.2453  0.2399
17251SOL    HW255159   5.124  10.710   0.321  0.8473  0.1150 -1.3024
17252SOL     OW55160   0.878   1.356   8.678 -0.1237 -0.0292 -0.5403
17252SOL    HW155161   0.913   1.433   8.722  1.1111  0.2187 -1.9060
17252SOL    HW255162   0.947   1.329   8.617 -1.2562 -1.1284 -1.3834
17253SOL     OW55163   7.057   9.628   5.127  0.0352  0.4121  0.1617
17253SOL    HW155164   6.982   9.654   5.181  1.8669  1.4058  2.2685
17253SOL    HW255165   7.056   9.533   5.130 -1.7351  0.3711 -0.6898
17254SOL     OW55166   8.106   3.574   3.173  0.0504 -0.4169 -0.3480
17254SOL    HW155167   8.181   3.545   3.120 -1.1295 -1.0850 -1.6597
17254SOL    HW255168   8.037   3.511   3.153 -1.8269  1.9588 -1.4834
17255SOL     OW55169   6.294   3.459   0.678 -0.1845  0.1019  0.1646
17255SOL    HW155170   6.281   3.495   0.766 -0.8913 -1.3002  0.6555
17255SOL    HW255171   6.248   3.520   0.620  0.5283  1.1895  0.7313
17256SOL     OW55172  10.942   4.598  10.579 -0.1401  0.4785  0.1383
17256SOL    HW155173  10.899   4.597  10.494  1.0502 -1.0834 -0.4649
17256SOL    HW255174  11.005   4.670  10.574  0.6103 -0.2163 -0.6712
17257SOL     OW55175   3.220   5.358   7.743 -0.4781 -0.2258 -0.8851
17257SOL    HW155176   3.258   5.360   7.655  0.7623 -0.1892 -0.3469
17257SOL    HW255177   3.252   5.277   7.782 -1.1541 -0.3201 -0.5203
17258SOL     OW55178   1.370   5.272   6.963 -0.3313  0.1367 -0.5173
17258SOL    HW155179   1.336   5.338   7.024  0.0470 -1.4142  1.4433
17258SOL    HW255180   1.465   5.280   6.970 -0.2633 -1.2897  0.5518
17259SOL     OW55181   0.818   4.189   0.064  0.6220 -0.3157 -0.0028
17259SOL    HW155182   0.791   4.278   0.087 -0.5252 -0.4749 -0.7037
17259SOL    HW255183   0.753   4.160  -0.000  0.5556 -1.9435  0.7784
17260SOL     OW55184   4.300   6.500  10.668 -0.0718 -0.3151 -0.3246
17260SOL    HW155185   4.340   6.414  10.662  0.8659  0.1790 -1.5976
17260SOL    HW255186   4.206   6.484  10.660 -0.0449 -1.3651  1.2965
17261SOL     OW55187   7.315   4.164   0.204  0.2782  0.3443 -0.4726
17261SOL    HW155188   7.387   4.163   0.267 -0.7074  1.8829  0.7241
17261SOL    HW255189   7.321   4.250   0.162 -0.6028  0.3325 -0.6357
17262SOL     OW55190   5.430   0.602   7.974 -0.4206  0.5956 -0.3752
17262SOL    HW155191   5.432   0.586   8.068 -0.3479  1.6240 -0.1953
17262SOL    HW255192   5.386   0.525   7.938  1.1956 -0.7054  0.2992
17263SOL     OW55193   1.975   5.460   2.556 -0.9262 -0.2860 -0.0933
17263SOL    HW155194   1.910   5.496   2.495 -0.9810  0.7100  0.5438
17263SOL    HW255195   2.005   5.379   2.514 -1.1716  0.2437 -1.3082
17264SOL     OW55196   7.534   8.848   0.733 -0.0937 -0.7152 -0.1838
17264SOL    HW155197   7.519   8.942   0.738  1.7105 -0.4994  1.5637
17264SOL    HW255198   7.446   8.810   0.726 -0.7734  1.1523 -2.6064
17265SOL     OW55199   1.770   1.950   5.157 -0.1118 -0.0099  0.0437
17265SOL    HW155200   1.808   1.878   5.106 -0.3749 -0.2102  0.1300
17265SOL    HW255201   1.844   2.007   5.176 -0.1088  0.3434 -1.0197
17266SOL     OW55202   5.856   9.175   5.766 -0.0425  0.0848 -0.0252
17266SOL    HW155203   5.763   9.157   5.752 -0.3440  0.6673  1.1939
17266SOL    HW255204   5.860   9.221   5.850  1.2434  0.9293 -0.5251
17267SOL     OW55205   7.518   4.637   6.830  0.2673 -0.4497 -0.4753
17267SOL    HW155206   7.502   4.563   6.772 -1.4274 -0.4741  0.0045
17267SOL    HW255207   7.486   4.608   6.915  0.3111  0.5460 -0.1169
17268SOL     OW55208   8.590   9.546   4.075  0.4513 -0.1569  0.0850
17268SOL    HW155209   8.514   9.562   4.132  1.0913 -0.5448  1.0750
17268SOL    HW255210   8.600   9.626   4.025 -0.1929  0.1589  0.4496
17269SOL     OW55211   3.289   7.327   7.809  0.0438  0.2375 -0.2806
17269SOL    HW155212   3.360   7.281   7.854  0.4278  1.7576  0.6923
17269SOL    HW255213   3.331   7.401   7.766 -0.7507  0.3779 -0.8270
17270SOL     OW55214   2.386   8.067   0.386 -0.0348 -0.0607 -0.0241
17270SOL    HW155215   2.427   8.149   0.358  1.1888  0.1210  2.2136
17270SOL    HW255216   2.400   8.007   0.312 -0.0570  1.4276 -1.2701
17271SOL     OW55217   5.051   2.997   6.991 -0.0741  0.1094  0.2021
17271SOL    HW155218   5.091   2.913   7.016 -0.7792  0.4811  2.7036
17271SOL    HW255219   4.994   2.975   6.917  0.2964 -1.4862  0.3692
17272SOL     OW55220   4.103   1.724   8.702  0.1379 -0.4688 -0.3562
17272SOL    HW155221   4.177   1.785   8.703  0.0433 -0.3338 -1.2355
17272SOL    HW255222   4.038   1.764   8.759 -0.1835  0.5996 -1.4485
17273SOL     OW55223   0.402  10.897   5.656  0.2033 -0.4413 -0.3992
17273SOL    HW155224   0.426  10.814   5.615  2.5276  0.4339 -0.8461
17273SOL    HW255225   0.479  10.952   5.645 -1.5571  2.0205 -0.7305
17274SOL     OW55226   8.245   9.681   9.454  0.3868  0.6498  0.7657
17274SOL    HW155227   8.241   9.589   9.427 -0.9424  0.3584  1.8748
17274SOL    HW255228   8.257   9.730   9.372 -2.6095 -0.2739 -0.3036
17275SOL     OW55229   1.104   2.558   6.978 -0.3706  0.4979 -0.5065
17275SOL    HW155230   1.026   2.602   7.011 -1.1390  1.0487 -2.9578
17275SOL    HW255231   1.171   2.574   7.045 -2.3948 -0.2494  1.7796
17276SOL     OW55232  10.402   4.076  10.208 -0.0988 -0.2572 -0.2615
17276SOL    HW155233  10.423   4.130  10.284  0.9283 -0.8618 -0.1058
17276SOL    HW255234  10.446   4.119  10.134  1.4549 -1.3452  0.0086
17277SOL     OW55235   1.597   6.752   0.643  0.2142 -0.5301 -0.2372
17277SOL    HW155236   1.663   6.817   0.620 -2.5713  2.3169 -0.4394
17277SOL    HW255237   1.571   6.775   0.732  0.7886 -2.8013  0.5572
17278SOL     OW55238   8.460   6.670   4.651 -0.7467  0.2151  0.2670
17278SOL    HW155239   8.433   6.762   4.641  1.0315  0.4661 -2.7949
17278SOL    HW255240   8.442   6.630   4.566 -0.6938 -2.0896  1.3050
17279SOL     OW55241   5.908   1.989   4.715  0.3074  0.3293 -0.1712
17279SOL    HW155242   5.898   1.894   4.726 -1.2751  0.6621  1.5722
17279SOL    HW255243   5.986   1.999   4.661  2.1263 -1.8861  1.9549
17280SOL     OW55244   0.533   6.369   7.868 -0.0279 -0.0452  0.3462
17280SOL    HW155245   0.550   6.435   7.800  1.1212 -0.2290  0.4372
17280SOL    HW255246   0.442   6.383   7.893 -0.6323 -0.3249 -1.6044
17281SOL     OW55247  10.291   3.206   1.288 -0.3028  0.5320 -0.3806
17281SOL    HW155248  10.282   3.277   1.352 -2.7463  0.7638 -0.9312
17281SOL    HW255249  10.355   3.239   1.225 -2.1768  2.7498 -1.2104
17282SOL     OW55250  10.154   8.531  10.207 -0.4151  0.2185  0.3875
17282SOL    HW155251  10.204   8.522  10.288  0.9090  1.3195 -0.2878
17282SOL    HW255252  10.219   8.518  10.137 -1.1398  1.3212 -0.5011
17283SOL     OW55253  10.435   5.154   6.132  0.2607 -0.5338 -0.4348
17283SOL    HW155254  10.395   5.188   6.212  0.5084 -0.1361 -0.4839
17283SOL    HW255255  10.413   5.061   6.133 -2.5276  0.0542 -1.5346
17284SOL     OW55256   3.851   4.359   7.381  0.9902 -0.3828  0.2477
17284SOL    HW155257   3.913   4.360   7.454  0.6262 -1.1751  0.5819
17284SOL    HW255258   3.871   4.278   7.334  1.4320  0.2815 -0.7217
17285SOL     OW55259   0.505  10.769   1.926 -0.2101 -0.5317  0.0827
17285SOL    HW155260   0.476  10.699   1.984 -0.0629 -0.9869 -0.3915
17285SOL    HW255261   0.430  10.788   1.871 -0.4415  0.1001  0.6073
17286SOL     OW55262   1.821   1.380   2.717 -0.2651  0.0368  0.3305
17286SOL    HW155263   1.834   1.460   2.665  0.1670  0.4516  1.0633
17286SOL    HW255264   1.832   1.408   2.807 -1.3584 -0.6160  0.6795
17287SOL     OW55265   0.260   1.902   7.959 -0.0274  0.1098  0.2003
17287SOL    HW155266   0.172   1.930   7.983 -1.0940 -1.2660 -1.9889
17287SOL    HW255267   0.318   1.965   8.003 -2.0488  0.7433  2.0612
17288SOL     OW55268   1.477   0.258   3.034 -0.3389  0.0461  0.3040
17288SOL    HW155269   1.489   0.253   3.129 -0.7592  0.5415  0.3881
17288SOL    HW255270   1.453   0.349   3.018 -0.9864 -0.2029 -0.1870
17289SOL     OW55271  10.694   5.804   7.323  0.2468  0.2138  0.2185
17289SOL    HW155272  10.735   5.719   7.312 -0.2631 -0.3094  2.2454
17289SOL    HW255273  10.762   5.859   7.362 -0.0557  0.1778  0.7931
17290SOL     OW55274  10.294  10.090   2.150 -0.6743  0.4210  0.4186
17290SOL    HW155275  10.235  10.140   2.093 -0.4280  0.3493  0.0994
17290SOL    HW255276  10.246  10.082   2.232 -1.1024  0.3814  0.1693
17291SOL     OW55277   4.336   6.924   7.922  0.1081 -0.5915  0.0884
17291SOL    HW155278   4.272   6.853   7.917 -0.7500  0.0569  1.6607
17291SOL    HW255279   4.314   6.971   8.002  1.4948  0.6668 -0.2477
17292SOL     OW55280   9.028   9.514   9.389  0.4685 -0.5555 -0.2927
17292SOL    HW155281   8.958   9.454   9.412 -1.9202  1.4600 -2.0726
17292SOL    HW255282   9.071   9.535   9.472 -0.6776 -2.2126  0.7343
17293SOL     OW55283   9.686   3.547   2.354 -0.3441 -0.0057  0.1219
17293SOL    HW155284   9.732   3.616   2.307 -1.0456  1.0255  0.9197
17293SOL    HW255285   9.713   3.466   2.310  0.8712  0.7206 -0.5128
17294SOL     OW55286   9.623   5.532   0.272  0.4035  0.1305  0.0426
17294SOL    HW155287   9.607   5.439   0.257  1.0860 -0.1620  1.1031
17294SOL    HW255288   9.536   5.568   0.293  0.2456 -0.3978  0.3098
17295SOL     OW55289   5.699   2.505   9.194  0.5699  0.2116  0.3658
17295SOL    HW155290   5.648   2.571   9.241  0.7315  0.3950  0.2809
17295SOL    HW255291   5.635   2.438   9.172  0.4927  0.1213  0.8528
17296SOL     OW55292   4.177   9.950   0.946 -0.6150  0.1601 -0.4976
17296SOL    HW155293   4.100   9.963   0.889 -0.6048 -0.0516 -0.5613
17296SOL    HW255294   4.182  10.031   0.998  0.0906  0.8678 -1.6486
17297SOL     OW55295   1.881   8.889   8.937 -0.1241  0.1247 -0.0004
17297SOL    HW155296   1.954   8.935   8.895  0.1731 -1.5608 -1.3879
17297SOL    HW255297   1.820   8.958   8.961  1.2209  1.4205 -0.2269
17298SOL     OW55298   1.730   0.730   9.774  0.1959  0.5927  1.0210
17298SOL    HW155299   1.681   0.787   9.834 -1.6697 -0.2735  0.3751
17298SOL    HW255300   1.758   0.657   9.829 -0.8107  0.2004  1.0265
17299SOL     OW55301   5.074   9.270  10.576  0.0740  0.3898  0.5443
17299SOL    HW155302   5.164   9.241  10.562 -0.0910 -0.3135  0.8626
17299SOL    HW255303   5.078   9.326  10.653  0.3280  0.8145  0.2182
17300SOL     OW55304   9.670   9.164   9.007  0.0406  0.1568 -0.7169
17300SOL    HW155305   9.708   9.233   9.060  0.9407  0.5949 -1.9010
17300SOL    HW255306   9.578   9.161   9.032  0.2359  1.0554  0.1041
17301SOL     OW55307   4.442   4.896   3.004 -0.4366 -0.2296  0.3356
17301SOL    HW155308   4.396   4.870   2.924  1.8811 -0.9268 -0.8302
17301SOL    HW255309   4.419   4.989   3.016 -1.0630 -0.2042 -0.9634
17302SOL     OW55310   2.769   1.890   9.566  0.2869 -0.0721  0.1483
17302SOL    HW155311   2.807   1.870   9.480 -0.0041 -2.0393  0.4467
17302SOL    HW255312   2.840   1.875   9.628  0.6438  1.8370  0.2371
17303SOL     OW55313   9.257   3.855   4.593 -0.0329  1.1820 -0.1280
17303SOL    HW155314   9.278   3.789   4.659 -1.5248  0.9298  0.1113
17303SOL    HW255315   9.322   3.841   4.524 -1.3728 -1.7670 -0.9003
17304SOL     OW55316   6.707   6.293   4.180 -0.2278  0.5572  0.2840
17304SOL    HW155317   6.719   6.259   4.091 -0.3212 -2.3388  1.3364
17304SOL    HW255318   6.617   6.325   4.181 -0.8580 -1.1802 -0.0966
17305SOL     OW55319   7.392   0.391   3.892 -0.6442  0.5290 -0.4387
17305SOL    HW155320   7.343   0.443   3.955  0.3621  1.0455 -0.0760
17305SOL    HW255321   7.468   0.445   3.869  1.3313 -1.4244  1.2139
17306SOL     OW55322   6.983   9.190   4.873 -0.2517 -0.6295 -0.2508
17306SOL    HW155323   6.889   9.191   4.856 -0.4458 -2.2891  0.6631
17306SOL    HW255324   7.022   9.226   4.793 -1.5657 -1.6415 -1.3663
17307SOL     OW55325   1.211   7.747  10.959  0.0212 -0.3972  0.0511
17307SOL    HW155326   1.163   7.691  11.020  1.8341 -0.4751  1.4395
17307SOL    HW255327   1.174   7.726  10.873 -0.6131 -2.3534  0.7808
17308SOL     OW55328   5.196   6.606   8.963 -0.2709 -0.5517 -0.6327
17308SOL    HW155329   5.145   6.595   9.043  0.1604  1.5570 -0.0302
17308SOL    HW255330   5.274   6.654   8.991  0.8812 -1.6189 -1.9640
17309SOL     OW55331   8.847   6.343   8.936 -0.1945 -0.3251  0.3292
17309SOL    HW155332   8.851   6.255   8.973 -1.2653 -0.8000 -0.6571
17309SOL    HW255333   8.755   6.367   8.942 -0.3750 -0.3942 -1.9469
17310SOL     OW55334  10.483   2.769   1.863 -0.2181 -0.1994  0.0936
17310SOL    HW155335  10.500   2.753   1.770 -2.7385  2.6398 -0.9504
17310SOL    HW255336  10.388   2.780   1.868  0.3528  4.8035  2.1074
17311SOL     OW55337   9.653   8.179   9.698  0.1379  0.0367  0.2344
17311SOL    HW155338   9.678   8.149   9.785 -0.9436 -1.3184  0.0968
17311SOL    HW255339   9.717   8.248   9.677  1.4374 -0.7816  1.3928
17312SOL     OW55340   8.835   4.743   3.063  0.1670  0.3173 -0.3366
17312SOL    HW155341   8.861   4.770   2.975  0.6427 -1.5084 -0.7759
17312SOL    HW255342   8.757   4.796   3.082  0.2537  0.9629 -1.7222
17313SOL     OW55343   5.513   6.120   0.876 -0.5109  0.2357  0.6080
17313SOL    HW155344   5.418   6.116   0.885 -0.5651 -0.4733 -0.3153
17313SOL    HW255345   5.533   6.213   0.866 -1.3235  0.1965 -1.5680
17314SOL     OW55346   1.249   8.965   0.105 -0.7745  0.0233  0.5740
17314SOL    HW155347   1.260   9.056   0.133 -1.2450  0.0910  0.5540
17314SOL    HW255348   1.332   8.923   0.126 -0.2492  0.6639 -0.2064
17315SOL     OW55349   4.275   1.814   1.287 -0.0939  0.8801 -0.2647
17315SOL    HW155350   4.270   1.724   1.256 -1.5245  1.1930 -0.9879
17315SOL    HW255351   4.364   1.841   1.267  0.1432 -0.1569 -0.6494
17316SOL     OW55352  10.147  10.486   0.661  0.0196  0.8127  0.5618
17316SOL    HW155353  10.111  10.463   0.746  2.2660 -4.7175  0.2372
17316SOL    HW255354  10.093  10.439   0.598  0.7255  1.8002 -0.8288
17317SOL     OW55355   4.065   1.461   5.033  0.0912 -0.0170 -0.1049
17317SOL    HW155356   3.985   1.412   5.017 -1.3084  1.5872  1.8179
17317SOL    HW255357   4.135   1.397   5.018 -1.5857 -1.9743  0.1385
17318SOL     OW55358   7.160   5.540   1.853 -0.2874  0.5862  0.0835
17318SOL    HW155359   7.244   5.533   1.809 -0.2731 -0.6693  0.2705
17318SOL    HW255360   7.137   5.449   1.874 -0.8346  1.0562  1.6231
17319SOL     OW55361   7.128   8.458   4.393  0.7543  0.2042  0.1630
17319SOL    HW155362   7.167   8.496   4.472  1.8283  2.3421 -1.3621
17319SOL    HW255363   7.142   8.363   4.402  1.0912  0.4448  2.3825
17320SOL     OW55364   9.625   0.912   5.174  0.2184 -0.1479  0.5426
17320SOL    HW155365   9.583   0.871   5.250 -0.1427  0.5656  0.7365
17320SOL    HW255366   9.561   0.902   5.104  0.8499 -1.4398  0.1439
17321SOL     OW55367  10.436   0.939  10.760 -0.5868  0.6508 -0.3062
17321SOL    HW155368  10.451   0.926  10.853 -0.5028  0.6682 -0.3169
17321SOL    HW255369  10.380   1.017  10.755 -0.2525  0.8905 -0.2891
17322SOL     OW55370   2.678   5.490  10.216  0.6749 -0.4673 -0.1219
17322SOL    HW155371   2.612   5.429  10.183  0.0564  0.0988  0.0505
17322SOL    HW255372   2.749   5.435  10.248  0.2115 -1.0874 -0.1642
17323SOL     OW55373   9.142  10.281   6.231 -0.3717 -0.1869  0.1557
17323SOL    HW155374   9.144  10.376   6.243  0.3750 -0.2811  0.7846
17323SOL    HW255375   9.137  10.270   6.136 -0.2620  0.4740  0.0666
17324SOL     OW55376   4.409   5.932   9.872 -0.2259 -0.5919 -0.2278
17324SOL    HW155377   4.468   5.857   9.868 -0.6862 -0.9334 -0.5017
17324SOL    HW255378   4.355   5.916   9.950 -2.6910 -2.2850 -2.1974
17325SOL     OW55379   3.385   9.770   6.068  0.1499  0.1152  0.0168
17325SOL    HW155380   3.421   9.683   6.085 -0.9207  0.0311  1.9591
17325SOL    HW255381   3.438   9.829   6.122 -0.1154  0.4572 -0.0925
17326SOL     OW55382   6.743   1.186   7.468 -0.5686 -0.2710  0.1188
17326SOL    HW155383   6.824   1.226   7.501 -0.7511 -0.6900  1.1115
17326SOL    HW255384   6.726   1.114   7.528 -3.0753  1.3800  1.5138
17327SOL     OW55385   7.694   4.900   9.000 -0.3544 -0.4159  0.1216
17327SOL    HW155386   7.617   4.928   8.949 -1.2117 -2.0314  0.5059
17327SOL    HW255387   7.731   4.982   9.032 -0.6906  0.5307 -1.8169
17328SOL     OW55388   9.531   8.962   0.945  0.7834  0.1311  0.5431
17328SOL    HW155389   9.560   8.914   1.023 -0.3135 -0.9757  0.2924
17328SOL    HW255390   9.436   8.951   0.945  0.7837 -0.0021 -1.0347
17329SOL     OW55391   3.081   7.838   1.423 -0.0064  0.5568 -0.4347
17329SOL    HW155392   3.089   7.796   1.509 -1.8527 -0.4068 -0.6905
17329SOL    HW255393   2.988   7.829   1.401  0.5428  0.2245 -2.8084
17330SOL     OW55394   3.152   4.340   7.636  0.2680  0.5861  0.3161
17330SOL    HW155395   3.214   4.291   7.691  0.5518  0.5274 -0.0490
17330SOL    HW255396   3.205   4.410   7.598 -0.1319  1.1531  0.8113
17331SOL     OW55397   1.262   0.421   6.151  0.2057  0.5916  0.3884
17331SOL    HW155398   1.306   0.436   6.234  0.3980 -0.0789  0.4167
17331SOL    HW255399   1.332   0.422   6.086  0.4943 -1.9048  0.6011
17332SOL     OW55400   2.993   5.762   5.018 -0.0043  0.1174  0.2066
17332SOL    HW155401   2.952   5.837   5.061  2.2670  2.1968 -1.1644
17332SOL    HW255402   2.953   5.760   4.931 -0.4927 -0.6349  0.4463
17333SOL     OW55403   2.416   6.414   6.100 -0.3718  0.0049  0.0937
17333SOL    HW155404   2.511   6.422   6.111 -0.7407  2.6296  1.8359
17333SOL    HW255405   2.397   6.323   6.123  1.4777  0.0594  2.0403
17334SOL     OW55406   7.270   8.832   0.641 -0.1747 -0.0620  0.1326
17334SOL    HW155407   7.206   8.904   0.639 -1.1557 -0.9264 -0.0616
17334SOL    HW255408   7.300   8.824   0.551  0.0745  0.2238  0.1893
17335SOL     OW55409   5.512   0.312   9.847  0.1117  0.5571  1.0139
17335SOL    HW155410   5.576   0.288   9.780  0.2753 -0.4413  1.5216
17335SOL    HW255411   5.461   0.383   9.807  1.2057  1.0194  0.4226
17336SOL     OW55412   4.422   1.238  10.157  0.3617 -0.7755 -0.2257
17336SOL    HW155413   4.428   1.173  10.227  1.1497 -1.5513 -1.0022
17336SOL    HW255414   4.512   1.268  10.145  0.0071  0.5077  0.1467
17337SOL     OW55415   0.486   1.593  10.868  0.1154  0.0252  0.3952
17337SOL    HW155416   0.439   1.577  10.950  0.0478  0.8459  0.5199
17337SOL    HW255417   0.494   1.688  10.863 -1.4500  0.0766 -1.4531
17338SOL     OW55418   4.729  10.119   5.592 -0.5878  0.6145 -0.1707
17338SOL    HW155419   4.687  10.131   5.507 -2.6682 -0.9207  0.6063
17338SOL    HW255420   4.672  10.166   5.653 -0.0594  0.2175  0.6229
17339SOL     OW55421   6.229   2.275   4.754 -0.0449 -0.7357 -0.1681
17339SOL    HW155422   6.227   2.337   4.681 -0.7414 -0.3493  0.1710
17339SOL    HW255423   6.164   2.309   4.815  1.3947 -0.3609  1.1914
17340SOL     OW55424   6.779   4.316   2.408  0.2450 -0.6180  0.7171
17340SOL    HW155425   6.685   4.299   2.397  0.4105  0.0886 -2.0286
17340SOL    HW255426   6.818   4.288   2.326  2.0185  2.0971  0.5837
17341SOL     OW55427   0.600   7.162   6.840 -0.1604 -0.9161 -0.3386
17341SOL    HW155428   0.527   7.161   6.778 -0.0715  0.3472 -0.4850
17341SOL    HW255429   0.673   7.200   6.791  0.8079 -2.7793 -0.4039
17342SOL     OW55430   7.239   5.976   8.400  0.1471  0.4852 -0.2197
17342SOL    HW155431   7.333   5.965   8.384 -0.4358 -3.7416 -1.3409
17342SOL    HW255432   7.228   5.953   8.492 -0.0139 -0.9089 -0.5759
17343SOL     OW55433   7.806   7.877   3.295  0.1438 -0.3945  0.0848
17343SOL    HW155434   7.778   7.795   3.335  0.7813 -1.1870 -1.0777
17343SOL    HW255435   7.880   7.906   3.348  0.1619 -0.7682  0.2635
17344SOL     OW55436  10.007   8.904   1.785  0.4780 -1.0205  0.0154
17344SOL    HW155437  10.036   8.995   1.791  1.8027 -1.5073  1.4715
17344SOL    HW255438   9.912   8.908   1.792  0.6848  0.0738  2.7516
17345SOL     OW55439   4.935   3.313   4.878  0.1634 -1.1404 -0.4308
17345SOL    HW155440   4.938   3.271   4.792 -3.4276  0.3628 -1.3688
17345SOL    HW255441   5.004   3.380   4.874 -0.3169 -0.7123 -2.3791
17346SOL     OW55442   8.339   1.087   3.069 -0.3449 -0.1527 -0.3827
17346SOL    HW155443   8.251   1.087   3.032 -0.2621 -0.8852 -0.5842
17346SOL    HW255444   8.348   1.000   3.107  1.2668 -1.0434 -2.6970
17347SOL     OW55445   7.164   8.526   9.111  0.1863 -0.2807  1.1726
17347SOL    HW155446   7.139   8.618   9.119  0.6984 -0.0325 -0.0070
17347SOL    HW255447   7.252   8.528   9.074 -0.8901 -1.2886 -1.5555
17348SOL     OW55448   6.079   5.760   8.273 -0.2673 -0.1352  0.1548
17348SOL    HW155449   6.146   5.825   8.292 -1.6408  1.4939 -0.4180
17348SOL    HW255450   6.127   5.679   8.256  1.5859  1.2215 -1.1523
17349SOL     OW55451   0.288   6.215   1.744  0.8657  0.1580 -0.6047
17349SOL    HW155452   0.328   6.301   1.731 -1.5881  1.0564 -2.7021
17349SOL    HW255453   0.284   6.204   1.839  1.6399  2.1402 -0.3232
17350SOL     OW55454   5.586   6.495   5.074 -0.1453 -0.2519 -0.2307
17350SOL    HW155455   5.648   6.463   5.139 -1.2093 -0.6908  0.6023
17350SOL    HW255456   5.527   6.421   5.060  0.5648 -0.4538 -2.3386
17351SOL     OW55457   1.762   6.843   2.320 -0.8712 -0.2889  0.3475
17351SOL    HW155458   1.759   6.938   2.333 -0.6433  0.0758 -2.0666
17351SOL    HW255459   1.832   6.829   2.257 -1.1790 -2.0372  0.3596
17352SOL     OW55460   2.853   7.822   2.231  0.2402  0.2317 -0.0013
17352SOL    HW155461   2.837   7.776   2.148 -0.3485 -0.4408  0.4754
17352SOL    HW255462   2.929   7.777   2.268  0.0327  0.0258  0.1799
17353SOL     OW55463   1.009   0.070   3.913  0.1547 -0.3658 -0.0256
17353SOL    HW155464   0.955   0.139   3.951  0.1747 -0.6853  0.5916
17353SOL    HW255465   1.084   0.063   3.972  0.7921 -0.0312 -0.7900
17354SOL     OW55466   2.017   7.459   9.677 -0.0884  0.2103  0.1938
17354SOL    HW155467   2.096   7.511   9.692 -1.3537  1.3264  3.4782
17354SOL    HW255468   1.976   7.499   9.600  1.8520  0.4570 -0.7260
17355SOL     OW55469  10.097   8.029  10.420 -0.0537 -0.5217 -0.3273
17355SOL    HW155470  10.086   8.019  10.326 -1.0272  0.0981 -0.2910
17355SOL    HW255471  10.030   7.972  10.458 -0.1528 -0.2073 -0.0267
17356SOL     OW55472   8.621   2.087   9.292  0.0528  0.0454  0.0817
17356SOL    HW155473   8.693   2.031   9.321 -0.4156 -0.0660  1.0286
17356SOL    HW255474   8.544   2.030   9.293 -0.1707  0.3406 -0.2901
17357SOL     OW55475  10.368   7.044   0.785  0.3026  0.2826 -0.1495
17357SOL    HW155476  10.275   7.024   0.796  0.6874 -1.6091 -0.0757
17357SOL    HW255477  10.405   7.035   0.873  0.8271 -0.6351 -0.4485
17358SOL     OW55478   4.038   8.519   6.240 -0.0561  0.1668  0.0682
17358SOL    HW155479   3.996   8.451   6.187  1.7057 -0.8016 -0.1371
17358SOL    HW255480   3.989   8.599   6.221 -0.9690 -0.6711 -1.1389
17359SOL     OW55481   3.999   5.657   1.558  0.4029  0.0592 -0.2387
17359SOL    HW155482   3.925   5.664   1.618 -0.1229  2.1961 -1.0824
17359SOL    HW255483   4.041   5.743   1.562  0.6390  0.0864 -2.5401
17360SOL     OW55484   6.798   6.843   8.821 -0.1882  0.2492  0.0053
17360SOL    HW155485   6.711   6.879   8.841 -0.1554  0.2294  0.1890
17360SOL    HW255486   6.859   6.915   8.842 -0.1424  0.1741  0.1313
17361SOL     OW55487   4.212   3.501   1.648 -0.4102 -0.5708 -0.1155
17361SOL    HW155488   4.195   3.542   1.563  0.3571 -0.8845 -0.4209
17361SOL    HW255489   4.289   3.546   1.682  0.6941 -2.0307 -0.6424
17362SOL     OW55490   4.567   2.933   9.318  0.4768 -0.3105 -0.0992
17362SOL    HW155491   4.502   2.958   9.252  0.4055  1.0176  0.4688
17362SOL    HW255492   4.613   3.014   9.339  1.3700 -0.9743  0.5464
17363SOL     OW55493   6.273   0.702   0.854 -0.2042 -0.5262 -0.3097
17363SOL    HW155494   6.182   0.731   0.847 -0.3104 -0.3578  1.4033
17363SOL    HW255495   6.268   0.619   0.901  0.5919  0.0981  0.9352
17364SOL     OW55496   6.650   1.334   8.290  0.2960 -0.4463 -0.1773
17364SOL    HW155497   6.688   1.376   8.213  1.6300  1.2575  1.3459
17364SOL    HW255498   6.675   1.242   8.282  3.1883  0.2916 -0.1915
17365SOL     OW55499   6.305   7.539   1.187  0.3359 -0.1071  0.3166
17365SOL    HW155500   6.287   7.478   1.259  1.0998  0.6065  1.1185
17365SOL    HW255501   6.224   7.590   1.179 -0.6480 -1.8126 -0.9659
17366SOL     OW55502   6.958   0.165   9.754 -0.3999 -0.9177  0.1358
17366SOL    HW155503   6.880   0.217   9.737 -0.3787 -1.2993 -1.2010
17366SOL    HW255504   6.933   0.076   9.729  0.0529 -1.2672  0.9276
17367SOL     OW55505   9.709   7.340  10.938  0.0367 -0.0933  0.0732
17367SOL    HW155506   9.713   7.406  10.869  2.5791  0.6496  0.8846
17367SOL    HW255507   9.630   7.362  10.987  0.2451  1.6771 -0.3467
17368SOL     OW55508   7.566   0.504   5.684  0.0702 -0.3981  0.3467
17368SOL    HW155509   7.592   0.555   5.761 -2.5044  3.6392 -1.2633
17368SOL    HW255510   7.630   0.528   5.617 -1.1003  0.7135 -0.3923
17369SOL     OW55511   8.785   7.137   1.330  0.2018  0.3739 -0.2892
17369SOL    HW155512   8.700   7.093   1.329 -0.2150  1.1270  1.0263
17369SOL    HW255513   8.767   7.225   1.297  0.4891  0.5265 -0.0402
17370SOL     OW55514   5.234   3.633   9.974 -0.3671  0.0950 -0.0743
17370SOL    HW155515   5.329   3.646   9.977  0.0899 -2.1098 -2.7300
17370SOL    HW255516   5.200   3.717   9.941  0.7575  0.6046  0.0256
17371SOL     OW55517   3.187   5.860   4.694  0.1051 -0.1467 -0.4437
17371SOL    HW155518   3.260   5.818   4.739 -0.7153  0.4472  1.4744
17371SOL    HW255519   3.177   5.811   4.612  1.9013 -0.9444 -0.2011
17372SOL     OW55520   8.108   9.753   6.238 -0.2456  0.4540 -0.2427
17372SOL    HW155521   8.191   9.716   6.206 -0.0147 -0.0621  0.9362
17372SOL    HW255522   8.132   9.803   6.316 -1.2585 -1.0668  1.0715
17373SOL     OW55523   1.179   1.692   1.568 -0.1492 -0.1527  0.2842
17373SOL    HW155524   1.083   1.697   1.576 -0.2162 -1.7789  0.5849
17373SOL    HW255525   1.205   1.782   1.547 -1.8951 -0.0480 -1.5912
17374SOL     OW55526   2.465   4.453   7.250  0.0087 -0.0380  0.3843
17374SOL    HW155527   2.435   4.533   7.207 -0.6945 -0.2254  0.5077
17374SOL    HW255528   2.440   4.465   7.342 -0.8459 -0.7403  0.2566
17375SOL     OW55529  10.187   8.700   9.010 -0.1031 -0.2758 -0.2603
17375SOL    HW155530  10.184   8.757   9.087  0.2681 -0.3952 -0.1573
17375SOL    HW255531  10.190   8.760   8.935  0.3083 -0.1611 -0.1510
17376SOL     OW55532   8.461  10.166   4.647 -0.6976 -0.9055  0.1689
17376SOL    HW155533   8.410  10.088   4.625 -1.0512 -0.0186 -2.2931
17376SOL    HW255534   8.508  10.142   4.727 -2.9245 -2.6529  1.0095
17377SOL     OW55535   3.238   4.607  10.546 -0.0664  0.2461  0.2022
17377SOL    HW155536   3.188   4.622  10.627  2.5182 -1.4222  2.2156
17377SOL    HW255537   3.330   4.612  10.574  0.8737 -0.8911 -2.5317
17378SOL     OW55538   1.403   1.047   2.558  0.2385 -0.4337 -0.0562
17378SOL    HW155539   1.482   1.031   2.505  0.0573  0.2145 -0.5280
17378SOL    HW255540   1.331   1.011   2.505  0.0791  0.0428 -0.1629
17379SOL     OW55541   4.715   5.211   4.530 -0.3025  0.3785 -0.5589
17379SOL    HW155542   4.677   5.230   4.444 -0.9629 -0.6759 -0.5092
17379SOL    HW255543   4.701   5.117   4.542  0.4187  0.3898  0.3994
17380SOL     OW55544   9.307   4.576   7.864 -0.5834 -0.4264  0.2840
17380SOL    HW155545   9.286   4.578   7.957  0.0190  0.1589  0.4049
17380SOL    HW255546   9.392   4.533   7.859  0.0118  0.7663  0.1123
17381SOL     OW55547   1.366   3.292   5.876  0.1419  0.1366  0.3990
17381SOL    HW155548   1.457   3.318   5.894 -0.0835  0.3781  1.2079
17381SOL    HW255549   1.313   3.355   5.924 -0.4359 -0.8329  1.0518
17382SOL     OW55550   1.487   7.298   8.421  0.1065  0.0387  0.2699
17382SOL    HW155551   1.513   7.272   8.509 -0.6935 -4.0199 -0.5870
17382SOL    HW255552   1.569   7.314   8.375  0.5673  0.9927  1.4165
17383SOL     OW55553   0.065   7.216   1.448 -0.0190  0.1546 -0.1304
17383SOL    HW155554   0.075   7.287   1.511 -0.2878 -0.5363  0.6906
17383SOL    HW255555  -0.028   7.213   1.430 -0.1670 -0.7834  0.7617
17384SOL     OW55556   5.305   8.218   1.827 -0.1286 -0.4301  0.3225
17384SOL    HW155557   5.314   8.123   1.821  2.1412 -0.3518  1.6987
17384SOL    HW255558   5.394   8.249   1.842 -0.7970  1.9524 -0.4193
17385SOL     OW55559   2.054   9.246   0.737 -0.3403  0.2868 -0.6797
17385SOL    HW155560   2.077   9.260   0.645 -1.9118  0.9372 -0.9940
17385SOL    HW255561   2.101   9.315   0.784 -0.7807  0.9294 -1.1762
17386SOL     OW55562   1.438   5.923   7.422  0.0840  0.0113  0.2192
17386SOL    HW155563   1.385   5.929   7.502  0.7724  1.8440  0.5563
17386SOL    HW255564   1.478   6.010   7.413  0.3945 -0.3228 -1.8552
17387SOL     OW55565   6.345  10.817   6.425 -0.3825  0.3500 -0.4632
17387SOL    HW155566   6.393  10.742   6.390 -1.4795 -0.2497 -0.7224
17387SOL    HW255567   6.294  10.781   6.498 -0.8282  0.8599 -0.5167
17388SOL     OW55568   1.715   5.552   9.008 -0.3745  0.2556  0.1617
17388SOL    HW155569   1.689   5.500   9.084 -0.9239 -0.8130 -0.7495
17388SOL    HW255570   1.646   5.536   8.943 -0.1824  1.5630 -0.3843
17389SOL     OW55571   8.160   5.380   0.491  0.2472  0.6369  0.7369
17389SOL    HW155572   8.201   5.297   0.467 -2.5788 -0.6298  0.0847
17389SOL    HW255573   8.228   5.445   0.476  1.5818 -1.2044 -1.6254
17390SOL     OW55574   9.110   8.330  10.868 -0.2857 -0.6923 -0.8549
17390SOL    HW155575   9.031   8.301  10.821  0.6873 -0.8098 -2.4442
17390SOL    HW255576   9.182   8.308  10.810  1.0018 -1.2870  0.9508
17391SOL     OW55577  10.633   2.292   6.742  0.2536  0.2714 -0.1354
17391SOL    HW155578  10.713   2.241   6.728 -0.6872 -1.1770 -0.3527
17391SOL    HW255579  10.658   2.361   6.803  1.5961 -0.3455  0.0180
17392SOL     OW55580   1.366   5.754   1.917 -0.3189 -0.4096 -0.2387
17392SOL    HW155581   1.341   5.666   1.887 -1.5386 -0.0915 -0.1370
17392SOL    HW255582   1.350   5.810   1.841 -0.2097 -0.1486 -0.0687
17393SOL     OW55583   2.828   2.590   6.123 -0.0535  0.0688 -0.3196
17393SOL    HW155584   2.921   2.568   6.131  0.0168  0.7875  0.9662
17393SOL    HW255585   2.783   2.505   6.127  0.4479 -0.1568  0.7271
17394SOL     OW55586   1.029   9.750   1.310  0.2892 -0.1731  0.8183
17394SOL    HW155587   0.941   9.721   1.333 -0.1391  0.0213 -0.5300
17394SOL    HW255588   1.087   9.682   1.344 -0.5038 -1.2000  0.1340
17395SOL     OW55589  10.563   4.930  10.345  0.3341 -0.0384 -0.4813
17395SOL    HW155590  10.652   4.958  10.367 -0.6923  1.7404  1.5652
17395SOL    HW255591  10.575   4.852  10.292  3.1230  0.1095 -0.1344
17396SOL     OW55592   5.747   2.548   0.013 -0.1315  0.1184 -0.2286
17396SOL    HW155593   5.810   2.477   0.019  0.2738  0.4312 -0.7245
17396SOL    HW255594   5.664   2.509   0.041  0.0202 -0.6320 -0.8195
17397SOL     OW55595   1.572   5.333   2.824  0.3806 -0.4095 -0.2479
17397SOL    HW155596   1.548   5.397   2.758  0.1456 -1.1999 -0.9423
17397SOL    HW255597   1.559   5.248   2.781  2.3937 -0.8953  0.0569
17398SOL     OW55598  10.382   0.854   7.111  0.3764  0.6538 -0.0869
17398SOL    HW155599  10.347   0.933   7.069  0.6155  0.0348 -1.4652
17398SOL    HW255600  10.421   0.804   7.040  1.5731 -0.0101  1.0153
17399SOL     OW55601   3.719   7.514   6.542 -0.0303  0.1683  0.0987
17399SOL    HW155602   3.698   7.568   6.617 -0.0385 -1.2346  1.1249
17399SOL    HW255603   3.815   7.513   6.539 -0.0229 -0.0975  0.3459
17400SOL     OW55604  10.510   9.593   2.814 -0.1005 -0.1512 -0.0308
17400SOL    HW155605  10.433   9.574   2.760 -0.3876 -2.0614  1.0139
17400SOL    HW255606  10.560   9.512   2.813  0.1738 -0.0284  2.0899
17401SOL     OW55607  10.819   4.922   5.653  0.0934 -0.1026 -0.5119
17401SOL    HW155608  10.745   4.929   5.713  0.0326 -0.5478 -0.5340
17401SOL    HW255609  10.893   4.960   5.701  0.3315 -1.5848  0.3332
17402SOL     OW55610   9.459   0.887   3.578  0.0304 -0.1925  0.3216
17402SOL    HW155611   9.452   0.849   3.490  1.7250  2.5489 -1.0546
17402SOL    HW255612   9.392   0.955   3.581  3.0670  2.9699 -0.6526
17403SOL     OW55613  10.078   9.145   1.771 -0.2037 -0.3522  0.1348
17403SOL    HW155614  10.173   9.154   1.781 -0.5043  1.5034  1.5086
17403SOL    HW255615  10.061   9.171   1.681  0.4097  0.9149  0.3805
17404SOL     OW55616   6.741   1.801   1.069  0.2617  0.2854  0.4136
17404SOL    HW155617   6.698   1.887   1.071  0.7688  0.5634 -0.1947
17404SOL    HW255618   6.803   1.803   1.142 -1.7120 -0.6446  2.1708
17405SOL     OW55619   0.544   6.248   9.925 -0.1779 -0.5511  0.2236
17405SOL    HW155620   0.560   6.221  10.016 -0.6797 -0.9020  0.2125
17405SOL    HW255621   0.451   6.231   9.912 -0.3798  0.6778  0.0271
17406SOL     OW55622   8.977   8.133   6.483  0.2178  0.3018 -0.2258
17406SOL    HW155623   8.951   8.224   6.469  0.9279  0.2432 -1.9763
17406SOL    HW255624   8.952   8.088   6.402  0.8563 -0.8409  0.2102
17407SOL     OW55625   2.729   0.242   8.651  0.6078 -0.3579 -0.7061
17407SOL    HW155626   2.703   0.160   8.691  0.5100  0.2160  0.4185
17407SOL    HW255627   2.825   0.243   8.658  0.5374  0.1152  0.2675
17408SOL     OW55628   3.732   4.773   7.346  0.1917  0.2198  0.3218
17408SOL    HW155629   3.736   4.832   7.420  0.5209 -0.4594  0.8526
17408SOL    HW255630   3.823   4.763   7.318  0.3835 -1.5803  1.4847
17409SOL     OW55631   7.308   0.377   0.590  0.4711  0.0402 -0.4708
17409SOL    HW155632   7.349   0.361   0.675  1.6637  0.1102 -1.0342
17409SOL    HW255633   7.254   0.454   0.603  0.6841  0.0711  0.2160
17410SOL     OW55634   7.347   6.024   4.635  0.0363 -0.0780  0.3320
17410SOL    HW155635   7.373   6.101   4.584 -1.1096 -0.1701 -0.4147
17410SOL    HW255636   7.353   5.951   4.574 -0.0165 -0.4060  0.7124
17411SOL     OW55637   2.181  10.579  10.742 -0.0068 -0.0481 -0.0434
17411SOL    HW155638   2.200  10.502  10.796 -0.7379  0.2783  0.6950
17411SOL    HW255639   2.157  10.542  10.656  1.7685 -0.5363 -0.3465
17412SOL     OW55640   1.912   4.293   0.129 -0.5140  0.7537  0.0492
17412SOL    HW155641   1.985   4.290   0.191 -0.6242 -0.2000  0.1341
17412SOL    HW255642   1.924   4.376   0.082  0.8423  0.4167 -0.2020
17413SOL     OW55643   4.208  10.495   8.119 -0.0410  0.1498  0.1001
17413SOL    HW155644   4.280  10.436   8.100  0.0980  0.2957  0.1742
17413SOL    HW255645   4.172  10.517   8.033 -0.0039  0.0712  0.0641
17414SOL     OW55646   8.738   1.839   1.475 -0.5741  0.2764 -0.3791
17414SOL    HW155647   8.701   1.783   1.407 -0.8726  0.3531 -0.2840
17414SOL    HW255648   8.782   1.909   1.427 -1.0567  0.5035 -0.4963
17415SOL     OW55649   5.109   6.371   8.858  0.7646  0.5645  0.1054
17415SOL    HW155650   5.161   6.450   8.864 -0.5214  1.4765 -0.5346
17415SOL    HW255651   5.037   6.384   8.920 -0.9877  1.1163 -1.9731
17416SOL     OW55652   6.221   2.639   2.353 -0.2677 -0.5085 -0.4628
17416SOL    HW155653   6.256   2.725   2.328 -0.7006 -0.2256 -0.0899
17416SOL    HW255654   6.205   2.596   2.269  0.8584 -0.6006 -0.6477
17417SOL     OW55655  10.877   5.531   8.883 -0.4554  0.3329  0.0587
17417SOL    HW155656  10.945   5.525   8.815  0.0746  0.3459  0.5797
17417SOL    HW255657  10.802   5.484   8.846 -0.5451  1.2621 -0.9733
17418SOL     OW55658   5.378   3.547   5.781  0.0867  0.0422 -0.3671
17418SOL    HW155659   5.365   3.604   5.857 -0.3561 -2.2247  1.3107
17418SOL    HW255660   5.314   3.579   5.716  2.2019  3.6237 -0.8181
17419SOL     OW55661   8.288   8.392   1.807 -0.5728 -0.4354 -0.1509
17419SOL    HW155662   8.233   8.360   1.879 -1.3271  0.6526 -0.2429
17419SOL    HW255663   8.339   8.463   1.846 -0.8032 -0.0102 -0.6148
17420SOL     OW55664   3.971   2.335  10.634 -0.1125 -0.0046 -0.2033
17420SOL    HW155665   3.986   2.305  10.724  0.2370 -1.3452 -0.6954
17420SOL    HW255666   3.935   2.258  10.589  0.6205  0.3627 -1.4418
17421SOL     OW55667   1.826   6.277   9.413 -0.2918  0.0556  0.4930
17421SOL    HW155668   1.903   6.277   9.355 -0.3666 -1.1081  0.3860
17421SOL    HW255669   1.764   6.336   9.370 -0.2545 -0.6148 -0.5081
17422SOL     OW55670   3.698   9.214   0.844  0.1275  0.4034 -0.6054
17422SOL    HW155671   3.790   9.226   0.820  0.5995  1.4103  1.6228
17422SOL    HW255672   3.684   9.119   0.841  2.1067  0.0032  2.1014
17423SOL     OW55673   2.747   4.431  10.687 -0.1104  0.4023 -1.0642
17423SOL    HW155674   2.656   4.431  10.714 -0.1564 -0.0643 -1.2121
17423SOL    HW255675   2.793   4.388  10.759  0.3118  2.6295  0.0404
17424SOL     OW55676   7.988   3.417  10.901  0.0283  0.2600 -0.2106
17424SOL    HW155677   8.008   3.409  10.807  0.4666 -0.5108 -0.0558
17424SOL    HW255678   8.073   3.438  10.941  0.1342 -0.9530  0.1999
17425SOL     OW55679   8.603   1.271   2.027  0.2810 -0.2411 -0.1477
17425SOL    HW155680   8.622   1.178   2.044  0.1719 -0.2449 -0.0420
17425SOL    HW255681   8.617   1.282   1.933  1.2972 -0.1245  0.0156
17426SOL     OW55682   8.068   3.813   8.829  0.3965  0.6533  0.4156
17426SOL    HW155683   8.073   3.871   8.753  1.6267  0.1803  0.1259
17426SOL    HW255684   7.978   3.822   8.860 -0.8598 -1.0555 -2.5870
17427SOL     OW55685   5.552   4.132   4.304 -0.0527  0.2698 -0.7742
17427SOL    HW155686   5.600   4.160   4.382 -0.4413  1.8102 -1.0722
17427SOL    HW255687   5.466   4.105   4.338  0.5157 -1.1403 -0.4180
17428SOL     OW55688  10.909   4.943   5.141 -0.4786 -0.2228  0.0134
17428SOL    HW155689  10.965   4.877   5.101 -0.1580  0.0507  0.0057
17428SOL    HW255690  10.970   5.001   5.187 -0.8461 -0.5333  0.8939
17429SOL     OW55691   8.955   2.347  10.823  0.1403 -0.2705 -0.1695
17429SOL    HW155692   8.867   2.382  10.834  0.6215  0.6636  0.9104
17429SOL    HW255693   8.950   2.290  10.746 -1.3144  0.0430 -0.3124
17430SOL     OW55694   7.842   7.693   0.459  0.2421 -0.0274 -0.1285
17430SOL    HW155695   7.785   7.671   0.385 -0.9481  3.5638 -0.3882
17430SOL    HW255696   7.786   7.745   0.517  1.2183 -2.6009  3.2506
17431SOL     OW55697   7.011   2.515   4.015 -0.4947 -0.0425 -0.9150
17431SOL    HW155698   6.935   2.572   4.024 -1.4293 -1.2044 -1.2644
17431SOL    HW255699   7.085   2.575   4.006 -0.9611  1.1403  2.4180
17432SOL     OW55700   5.258  10.931   6.711 -0.0430  0.3778  0.0108
17432SOL    HW155701   5.192  10.872   6.675  1.1218 -0.7977 -0.1843
17432SOL    HW255702   5.280  10.990   6.638 -1.2224  1.0962  0.2166
17433SOL     OW55703   3.124   0.654   9.983  0.1254  0.3606 -0.6764
17433SOL    HW155704   3.210   0.695   9.984 -0.0857  0.7946  0.0996
17433SOL    HW255705   3.099   0.649  10.076 -0.5821  0.0344 -0.8844
17434SOL     OW55706  10.039   2.241   7.985 -0.0813  0.5466 -0.1855
17434SOL    HW155707  10.076   2.154   7.993 -1.2620  0.0718  0.2829
17434SOL    HW255708  10.012   2.263   8.075  0.2047  1.3908 -0.3024
17435SOL     OW55709   9.787   9.758  10.203 -0.0341 -0.4067 -0.5434
17435SOL    HW155710   9.693   9.738  10.199 -0.4337  1.4206 -0.5481
17435SOL    HW255711   9.827   9.696  10.142 -1.5320  0.5588 -2.5624
17436SOL     OW55712   1.127   7.381   5.503  0.2022  0.3151  0.5872
17436SOL    HW155713   1.165   7.295   5.486 -2.0867 -0.5913 -0.1474
17436SOL    HW255714   1.139   7.395   5.598  0.9293 -0.6112  0.6352
17437SOL     OW55715   6.675   4.890   1.815  0.4403 -0.2201  0.0926
17437SOL    HW155716   6.602   4.836   1.782  0.1546 -0.3626  0.9412
17437SOL    HW255717   6.653   4.905   1.907 -0.3877  2.8392 -0.5727
17438SOL     OW55718   8.071   8.993   7.437  0.0511 -0.4824 -0.6182
17438SOL    HW155719   8.078   9.054   7.363 -0.7913 -0.9190 -1.0640
17438SOL    HW255720   8.010   8.926   7.406  0.4696 -1.1973  0.1166
17439SOL     OW55721   4.063   0.582   4.206  0.1419  0.2310  0.3257
17439SOL    HW155722   4.090   0.508   4.261  0.8429 -0.1844 -0.5807
17439SOL    HW255723   4.135   0.596   4.146 -1.0666  0.0230 -1.1951
17440SOL     OW55724   5.645   0.096   9.498 -0.5360 -0.1768 -0.5467
17440SOL    HW155725   5.602   0.181   9.509 -0.3401 -0.1881  0.3726
17440SOL    HW255726   5.698   0.086   9.578  0.3534 -0.6315 -1.1875
17441SOL     OW55727   6.984   5.135   1.405 -0.0455 -0.1299  0.1230
17441SOL    HW155728   7.047   5.075   1.444  1.1244  1.2681  0.4101
17441SOL    HW255729   6.899   5.101   1.434  0.6871 -0.5172  1.9238
17442SOL     OW55730   7.201   0.231   8.324  0.1865  0.2241 -0.3268
17442SOL    HW155731   7.139   0.303   8.339  0.9776  1.1339 -1.2842
17442SOL    HW255732   7.197   0.216   8.230  2.8943  1.6986 -0.7453
17443SOL     OW55733   5.949   2.223  10.196  0.6948 -0.3085 -0.1147
17443SOL    HW155734   5.869   2.173  10.180 -0.2364  0.0281  3.1296
17443SOL    HW255735   5.982   2.189  10.280  1.8266  2.2266  0.5123
17444SOL     OW55736   6.408   8.327   9.212 -0.0782 -0.1746 -0.3017
17444SOL    HW155737   6.456   8.409   9.224 -1.0480  0.3874 -0.2178
17444SOL    HW255738   6.470   8.269   9.167  0.6668  0.5457 -0.2103
17445SOL     OW55739   3.102   8.345   5.085  0.4380 -0.4917  0.2343
17445SOL    HW155740   3.017   8.321   5.121  0.0231 -0.2165 -0.5531
17445SOL    HW255741   3.082   8.404   5.013  1.3547  0.5404  0.8054
17446SOL     OW55742   0.828   8.017   1.330  0.0304  0.1033  0.4523
17446SOL    HW155743   0.857   7.983   1.245 -0.0859  1.5991 -0.2134
17446SOL    HW255744   0.838   7.944   1.391 -0.4816 -1.1922 -0.9815
17447SOL     OW55745   2.556   1.926   4.687  0.0882 -0.1335  0.4595
17447SOL    HW155746   2.499   2.000   4.666 -0.3903 -0.7978 -0.6826
17447SOL    HW255747   2.496   1.853   4.702  0.6086 -0.7603 -0.4187
17448SOL     OW55748   1.049   9.540   1.608 -0.0502 -0.8055  0.1030
17448SOL    HW155749   1.065   9.493   1.690 -3.0619 -1.7582  0.1962
17448SOL    HW255750   1.044   9.632   1.635 -0.1901 -1.0273  0.8559
17449SOL     OW55751   3.425   2.398   6.569 -0.0703 -0.2217 -0.4048
17449SOL    HW155752   3.470   2.462   6.625 -0.1864 -1.0374  0.6372
17449SOL    HW255753   3.452   2.313   6.603 -1.1222 -0.7294 -0.8162
17450SOL     OW55754  10.815   6.832   5.121 -0.1694  0.0800  0.5018
17450SOL    HW155755  10.817   6.763   5.055 -1.2195  0.3064  0.2104
17450SOL    HW255756  10.893   6.818   5.174 -0.0454 -0.9428  0.0581
17451SOL     OW55757   0.881   8.991   4.917 -0.2049 -0.5652  0.3194
17451SOL    HW155758   0.973   9.007   4.937 -0.0937 -2.2235  1.2038
17451SOL    HW255759   0.881   8.956   4.828 -0.1582  1.1558 -0.3704
17452SOL     OW55760   8.148   5.075   9.261  0.1059 -0.4132  0.4425
17452SOL    HW155761   8.172   5.042   9.348  1.6488 -0.5750 -0.0347
17452SOL    HW255762   8.188   5.013   9.200  0.9124  0.9134 -0.4150
17453SOL     OW55763   5.321   8.699   0.224 -0.3398 -0.1293 -0.0701
17453SOL    HW155764   5.237   8.743   0.215 -0.7827 -0.9581 -0.1206
17453SOL    HW255765   5.355   8.694   0.135 -0.1959  0.2862 -0.0382
17454SOL     OW55766   9.403   4.985   3.736 -0.2483  0.6269  0.0212
17454SOL    HW155767   9.432   5.075   3.746 -0.9934  0.7294  1.3766
17454SOL    HW255768   9.479   4.932   3.761  0.0872  0.8713 -0.4718
17455SOL     OW55769   4.527   2.512   5.407  0.3803 -0.1478 -0.6535
17455SOL    HW155770   4.448   2.558   5.379  0.1674 -0.3988 -0.4618
17455SOL    HW255771   4.573   2.575   5.464 -1.2001 -1.0843  1.7400
17456SOL     OW55772  10.171   0.015   5.922 -0.3235 -0.0983 -0.6532
17456SOL    HW155773  10.156  -0.063   5.870  1.5425 -0.8939 -0.0569
17456SOL    HW255774  10.220   0.074   5.863 -0.5010  0.0560 -0.6475
17457SOL     OW55775   6.499   8.573   9.307  0.1608  0.1715  0.0241
17457SOL    HW155776   6.439   8.605   9.375 -1.2309 -1.4114 -0.4005
17457SOL    HW255777   6.536   8.651   9.268 -0.2947  1.1458  1.4929
17458SOL     OW55778   1.031   7.155   6.464  0.7579 -0.1037 -0.9273
17458SOL    HW155779   0.940   7.132   6.445 -0.0227 -2.9211  5.1529
17458SOL    HW255780   1.082   7.082   6.428  0.1833 -0.6850 -0.5785
17459SOL     OW55781   6.355   8.918   7.738 -0.4073 -0.1823 -0.3510
17459SOL    HW155782   6.435   8.952   7.698 -0.1989 -1.2645 -0.8743
17459SOL    HW255783   6.365   8.823   7.734 -0.8946 -0.3092  1.2777
17460SOL     OW55784   0.888   2.912   9.100  0.0516 -0.4577 -0.1343
17460SOL    HW155785   0.889   2.877   9.189  0.5277 -1.2408 -0.4447
17460SOL    HW255786   0.933   2.996   9.108 -1.4583  0.3088  0.6886
17461SOL     OW55787   3.814   4.711   3.437  0.1416  0.5640  0.2043
17461SOL    HW155788   3.849   4.630   3.473 -0.0889  0.4477  0.1678
17461SOL    HW255789   3.874   4.779   3.468  0.6912  0.3043 -0.2833
17462SOL     OW55790   3.743   4.474   2.384  0.1864 -0.5188  0.1323
17462SOL    HW155791   3.774   4.391   2.348  1.4681  0.1958 -0.4321
17462SOL    HW255792   3.822   4.523   2.404 -0.5618  0.5363  0.5580
17463SOL     OW55793   5.360   4.118   9.667  0.0999  0.3783  0.3266
17463SOL    HW155794   5.313   4.173   9.605  0.8589  1.4547  0.7059
17463SOL    HW255795   5.358   4.167   9.749  2.8861  0.9920  0.0722
17464SOL     OW55796   3.100   7.775   2.361  0.9009  0.9279 -0.2419
17464SOL    HW155797   3.136   7.700   2.314 -0.6122 -0.0677  0.1554
17464SOL    HW255798   3.166   7.795   2.428  1.1732 -0.2454 -0.1447
17465SOL     OW55799   4.943   7.108   3.295 -0.2482  0.2874  0.1572
17465SOL    HW155800   4.883   7.106   3.221  0.4154  0.7794 -0.4064
17465SOL    HW255801   4.909   7.042   3.356 -1.5515  0.8194  0.0140
17466SOL     OW55802   8.170   9.212   3.382 -0.4515 -0.0318 -0.0340
17466SOL    HW155803   8.208   9.130   3.415 -0.2241  0.8409  1.9464
17466SOL    HW255804   8.245   9.271   3.373 -0.8619  0.5743  0.4684
17467SOL     OW55805   9.410   4.274   3.176  0.3053  0.0653 -0.2103
17467SOL    HW155806   9.370   4.267   3.089 -0.6507 -1.4522  0.3383
17467SOL    HW255807   9.348   4.232   3.235  1.4698  0.0799  1.0600
17468SOL     OW55808   9.298   6.168   2.712  0.6007 -0.3107 -0.1858
17468SOL    HW155809   9.350   6.143   2.635  1.9107  1.4123  0.1174
17468SOL    HW255810   9.261   6.253   2.689  0.0861 -0.3011  0.6761
17469SOL     OW55811   8.048   2.823   8.727 -0.3119  0.3837 -0.5140
17469SOL    HW155812   8.066   2.917   8.731 -0.2354  0.3532 -0.1211
17469SOL    HW255813   8.112   2.789   8.664 -0.4251  0.6143 -0.7530
17470SOL     OW55814   7.712   0.605   1.738 -0.1828 -0.3512  0.4253
17470SOL    HW155815   7.674   0.528   1.696  1.0595 -1.6672  1.6650
17470SOL    HW255816   7.702   0.588   1.832 -0.3020  1.2117  0.7045
17471SOL     OW55817   7.248  10.331   4.465  0.1349  0.2488  0.0495
17471SOL    HW155818   7.251  10.282   4.382  0.5276 -0.8096  0.6750
17471SOL    HW255819   7.156  10.329   4.490 -0.1615  1.5136 -0.9063
17472SOL     OW55820   6.173   5.227   0.513  0.4497  0.2365 -0.4745
17472SOL    HW155821   6.260   5.214   0.475  0.1542 -2.3176 -0.3865
17472SOL    HW255822   6.141   5.138   0.530 -0.8056  1.2284  2.6691
17473SOL     OW55823   6.743   7.195   6.673  0.8117 -0.6024 -0.5549
17473SOL    HW155824   6.655   7.232   6.675 -0.4437 -3.5318  1.1530
17473SOL    HW255825   6.779   7.213   6.760  1.9953  0.6967 -1.2860
17474SOL     OW55826   0.317   6.237   3.682  0.2102 -0.2649 -0.7859
17474SOL    HW155827   0.346   6.210   3.769  2.6911 -0.5108 -1.6599
17474SOL    HW255828   0.230   6.196   3.672  0.4582 -1.3024  1.0378
17475SOL     OW55829  10.642   2.095  10.669 -0.5972 -0.2212  0.4281
17475SOL    HW155830  10.634   2.182  10.709 -1.1911  0.0048 -0.1500
17475SOL    HW255831  10.734   2.072  10.679 -0.3927  0.5612  0.4335
17476SOL     OW55832   9.615   1.632   4.968 -0.3401  0.5149 -0.3747
17476SOL    HW155833   9.605   1.682   5.049  2.0318 -0.0978  0.3469
17476SOL    HW255834   9.605   1.541   4.995 -1.6088  0.4212 -1.1474
17477SOL     OW55835   8.620   1.347   6.125 -0.0714  0.4056 -0.0582
17477SOL    HW155836   8.535   1.389   6.114  0.1012  0.2766 -2.1324
17477SOL    HW255837   8.654   1.382   6.207 -1.9563  0.7309  0.6123
17478SOL     OW55838   8.437   5.223   4.525 -0.6675  0.1114  0.3403
17478SOL    HW155839   8.516   5.218   4.472 -0.2084  1.4881  0.8803
17478SOL    HW255840   8.366   5.208   4.463  0.0361 -1.5684 -0.0652
17479SOL     OW55841   4.262  10.030   1.628 -0.6706 -0.1853  0.2637
17479SOL    HW155842   4.260  10.002   1.719 -0.9736  0.3399  0.4161
17479SOL    HW255843   4.272   9.948   1.578  3.9404 -0.1960  0.9524
17480SOL     OW55844   5.194   2.013   7.779 -0.0760  0.3424  0.0014
17480SOL    HW155845   5.133   2.044   7.711 -0.6405 -0.4185  0.1583
17480SOL    HW255846   5.280   2.043   7.749 -0.2945 -0.1590 -1.1564
17481SOL     OW55847   7.442   6.547   6.337  0.0996  0.0872  0.0414
17481SOL    HW155848   7.367   6.494   6.365 -1.3604  2.7452  1.4513
17481SOL    HW255849   7.404   6.633   6.317  2.4949  0.9026 -1.2450
17482SOL     OW55850   0.162   8.453   5.502 -0.4219  0.1858 -0.4916
17482SOL    HW155851   0.128   8.535   5.538  0.1042 -0.6384  1.9932
17482SOL    HW255852   0.085   8.404   5.475 -0.9038  0.5234  0.2439
17483SOL     OW55853   1.398   9.138   1.750  0.4407  0.5856  0.5752
17483SOL    HW155854   1.411   9.231   1.731 -2.0287  0.6761 -0.9364
17483SOL    HW255855   1.309   9.120   1.720  0.1049 -1.7769  2.8359
17484SOL     OW55856   5.775   7.563   2.380  0.2812 -0.5200  0.5305
17484SOL    HW155857   5.847   7.508   2.350  0.1710  0.5641 -1.8251
17484SOL    HW255858   5.719   7.573   2.303 -2.4202 -1.3935  2.3496
17485SOL     OW55859   8.685   2.609   7.283 -0.0230 -0.4115 -0.0711
17485SOL    HW155860   8.709   2.693   7.244 -1.3139 -0.0367 -0.1141
17485SOL    HW255861   8.590   2.615   7.294  0.1208 -1.1377  1.6694
17486SOL     OW55862   3.294   7.358   4.528  0.5381  0.0987  0.4530
17486SOL    HW155863   3.268   7.268   4.548 -0.0156  0.0528 -0.4364
17486SOL    HW255864   3.258   7.410   4.600  0.5058 -0.3404  0.7555
17487SOL     OW55865   8.609   0.624   5.986  0.5214 -1.3473 -0.1869
17487SOL    HW155866   8.666   0.699   5.968  0.6317 -0.8081  2.2489
17487SOL    HW255867   8.527   0.645   5.941  0.6311  0.1417  0.2747
17488SOL     OW55868  10.561   6.784   0.957  0.3899  0.3022 -0.5332
17488SOL    HW155869  10.597   6.856   1.008 -0.0619 -0.2145  0.5251
17488SOL    HW255870  10.636   6.727   0.941  0.5562  0.5243 -0.5535
17489SOL     OW55871   1.755   2.775   7.545  0.5051 -0.5072  0.3052
17489SOL    HW155872   1.781   2.800   7.634  0.5993 -3.9860  1.3456
17489SOL    HW255873   1.835   2.736   7.508  0.2120  0.1090 -0.9767
17490SOL     OW55874  10.584   2.944   6.277  0.2143 -0.2020  0.6375
17490SOL    HW155875  10.640   3.012   6.241  0.2036 -0.8251 -0.5893
17490SOL    HW255876  10.619   2.862   6.241 -1.5989 -0.5847 -0.3229
17491SOL     OW55877   8.242   3.010   6.485  0.0548  0.4650  0.2005
17491SOL    HW155878   8.193   2.954   6.546 -1.3585 -0.2591 -1.5370
17491SOL    HW255879   8.334   2.995   6.507 -0.4278  0.2339  2.1520
17492SOL     OW55880   3.387   9.701   0.127 -0.0544 -0.1277 -0.1931
17492SOL    HW155881   3.439   9.699   0.047 -0.4304 -0.2604 -0.4341
17492SOL    HW255882   3.452   9.707   0.198  0.2391  0.9634 -0.5479
17493SOL     OW55883   0.162   7.028   5.507 -0.4779  0.1457 -0.6140
17493SOL    HW155884   0.187   7.117   5.480  0.1151  0.1518 -0.0765
17493SOL    HW255885   0.237   6.997   5.557 -0.8440 -0.5186 -0.4722
17494SOL     OW55886   8.077   0.051   0.525  0.5955  0.3869  0.1369
17494SOL    HW155887   8.075   0.147   0.530 -2.1127  0.2701  2.5617
17494SOL    HW255888   7.994   0.027   0.483  0.5524 -0.9290  0.9377
17495SOL     OW55889   0.659   4.917   6.543 -0.3482 -0.5766  0.0985
17495SOL    HW155890   0.566   4.903   6.531 -0.1106 -1.3710 -0.9270
17495SOL    HW255891   0.701   4.863   6.476  0.7562  1.6924 -1.1288
17496SOL     OW55892   9.096   6.422   0.280  0.3183 -0.0943 -0.2123
17496SOL    HW155893   9.079   6.481   0.206 -1.3212 -2.0257 -1.4448
17496SOL    HW255894   9.145   6.349   0.241  1.2846 -0.1270  1.0470
17497SOL     OW55895   4.675  10.096   3.370 -0.1344 -0.0301  0.2223
17497SOL    HW155896   4.651  10.176   3.324  0.6327  0.3478  0.4699
17497SOL    HW255897   4.746  10.059   3.318  0.5750  0.2738  0.9701
17498SOL     OW55898   6.274   0.989   7.313 -0.7194  0.3361 -0.3515
17498SOL    HW155899   6.209   0.920   7.324 -1.3836  1.2955  1.8893
17498SOL    HW255900   6.334   0.955   7.246 -1.9070 -1.7392 -0.3911
17499SOL     OW55901   5.311   7.474  10.160  0.2249  0.0608  1.1121
17499SOL    HW155902   5.315   7.563  10.125  1.3677 -0.6700 -0.6989
17499SOL    HW255903   5.234   7.435  10.119  0.3698 -0.1390  1.0291
17500SOL     OW55904   7.938   3.650   9.819 -0.1574  0.4590 -0.0852
17500SOL    HW155905   7.936   3.725   9.878  0.7073 -0.2096  0.8114
17500SOL    HW255906   7.846   3.631   9.800 -0.5171 -0.1814  2.1647
17501SOL     OW55907   8.895   3.644   3.846 -0.4532 -0.4856 -0.3526
17501SOL    HW155908   8.928   3.609   3.763  0.5763  2.2916 -1.2006
17501SOL    HW255909   8.846   3.722   3.820 -2.7435 -1.2864  1.4265
17502SOL     OW55910   4.938   5.855  10.365  0.6814 -0.1759 -0.1729
17502SOL    HW155911   4.909   5.830  10.278  0.9355  1.0210 -0.6081
17502SOL    HW255912   4.963   5.772  10.407 -0.2435 -0.8416 -0.9315
17503SOL     OW55913   5.835   3.579   1.645  0.0116  0.4605 -0.7372
17503SOL    HW155914   5.863   3.652   1.699 -0.2957 -2.1308  3.1562
17503SOL    HW255915   5.912   3.557   1.592  1.0483  1.7319  0.2104
17504SOL     OW55916   7.965   9.984  10.462 -0.3849 -0.6079  0.1059
17504SOL    HW155917   7.990  10.075  10.476  0.1931 -0.7159 -0.2422
17504SOL    HW255918   8.035   9.933  10.502 -1.6658 -0.9046  2.0181
17505SOL     OW55919   7.367   4.806   4.631  0.6578 -0.3708  0.1083
17505SOL    HW155920   7.419   4.880   4.664  0.5997 -0.4345  0.3458
17505SOL    HW255921   7.279   4.842   4.622  0.1377 -1.0216  2.3984
17506SOL     OW55922   1.386   7.275   3.778 -0.4449 -0.5838  0.2922
17506SOL    HW155923   1.348   7.356   3.811 -1.2945 -0.6377 -0.5386
17506SOL    HW255924   1.480   7.287   3.788 -0.3714  1.6522 -2.3473
17507SOL     OW55925   9.171  10.026   8.204 -0.2433 -0.3413 -0.2326
17507SOL    HW155926   9.176  10.102   8.146 -0.8050 -1.0786 -1.2539
17507SOL    HW255927   9.244   9.970   8.176 -0.3635 -0.5841 -0.0581
17508SOL     OW55928  10.045   0.133   3.993  0.0643 -0.5204  0.1833
17508SOL    HW155929  10.084   0.220   3.999  1.3015 -0.9156 -1.8464
17508SOL    HW255930   9.972   0.143   3.932 -1.0528 -0.4864  1.5021
17509SOL     OW55931   1.936   2.258   8.040  0.2580 -0.7204 -0.2005
17509SOL    HW155932   2.022   2.298   8.036 -0.2756  0.3666 -0.9624
17509SOL    HW255933   1.934   2.213   8.125  1.5271 -0.6839 -0.1451
17510SOL     OW55934   2.141   4.814   3.942 -0.1522 -0.2857 -0.2613
17510SOL    HW155935   2.119   4.901   3.909 -0.8876  0.0306  1.0269
17510SOL    HW255936   2.226   4.825   3.985 -1.3156  0.3481  1.9541
17511SOL     OW55937   6.679   5.784   9.471  0.3612 -0.6659  0.0844
17511SOL    HW155938   6.767   5.821   9.463 -0.2258  0.5408 -1.0925
17511SOL    HW255939   6.621   5.861   9.476 -0.5808 -1.4391  1.3201
17512SOL     OW55940   1.940   4.481   8.969 -0.0998 -0.2034  0.4339
17512SOL    HW155941   1.916   4.514   9.056 -1.2275  1.2074 -0.3781
17512SOL    HW255942   1.869   4.511   8.913  1.2212 -0.0797 -1.1883
17513SOL     OW55943   4.071   6.257   3.025  0.4652  0.1692 -0.2364
17513SOL    HW155944   4.042   6.258   2.934  0.1071 -0.5597 -0.1302
17513SOL    HW255945   4.086   6.165   3.045 -1.6897  0.0854  1.1515
17514SOL     OW55946   5.869   9.706   7.410 -0.5005  0.0463 -0.0859
17514SOL    HW155947   5.929   9.780   7.408 -1.9026  1.1840 -1.8586
17514SOL    HW255948   5.791   9.737   7.364 -1.2868 -2.3890 -0.4787
17515SOL     OW55949   8.396   3.010   5.218 -0.4540  0.1809  0.0175
17515SOL    HW155950   8.440   3.088   5.254  0.6568  0.2062 -1.3276
17515SOL    HW255951   8.306   3.038   5.203 -0.0811  1.1987 -0.3773
17516SOL     OW55952   0.328   1.239   9.933  0.3657 -0.1801  0.2339
17516SOL    HW155953   0.266   1.297   9.977  0.1339  1.2683 -1.9520
17516SOL    HW255954   0.352   1.285   9.853  1.9556 -2.0867 -0.4320
17517SOL     OW55955   3.405   2.468   2.222  0.2745  0.3843  0.2943
17517SOL    HW155956   3.346   2.405   2.181  0.1292 -0.8163  2.2787
17517SOL    HW255957   3.348   2.540   2.250  0.2893  0.9138 -0.9783
17518SOL     OW55958   8.817   0.689   7.862 -1.1463 -0.5554 -0.1118
17518SOL    HW155959   8.804   0.658   7.772  1.9232 -1.7744 -0.1906
17518SOL    HW255960   8.762   0.632   7.915 -1.7826 -0.8513 -1.0721
17519SOL     OW55961   7.036   3.132   3.872  0.0435  0.4707  0.0384
17519SOL    HW155962   7.024   3.171   3.958 -0.1284  0.1025  0.1867
17519SOL    HW255963   6.966   3.067   3.866 -0.1724  0.7496 -0.5265
17520SOL     OW55964   8.849   2.930   7.633 -0.8143  0.0731 -0.4757
17520SOL    HW155965   8.903   2.854   7.611  0.1193  0.0174  1.8305
17520SOL    HW255966   8.911   2.996   7.665 -1.8016  1.1389 -0.7222
17521SOL     OW55967   9.937   9.556   3.157  0.4685  0.1790 -0.2788
17521SOL    HW155968   9.865   9.574   3.097 -0.3658  1.0990  0.9762
17521SOL    HW255969   9.935   9.462   3.170 -0.2157  0.1464 -0.6023
17522SOL     OW55970   8.904   8.774   0.737 -0.3286  0.3988  0.7047
17522SOL    HW155971   8.924   8.862   0.706 -0.2348  0.0635 -0.1985
17522SOL    HW255972   8.897   8.783   0.832  1.0383  1.1195  0.7555
17523SOL     OW55973   0.437   6.835   2.926  0.5484 -0.5324 -0.0223
17523SOL    HW155974   0.489   6.901   2.972 -0.9110  0.5274  0.1292
17523SOL    HW255975   0.398   6.782   2.996  0.5923 -0.6917 -0.1168
17524SOL     OW55976   4.824   2.021   0.810  0.1208 -0.2793 -0.0843
17524SOL    HW155977   4.759   2.076   0.767 -0.6619 -2.0823 -1.2902
17524SOL    HW255978   4.839   2.062   0.895 -0.8592  1.4442 -0.7276
17525SOL     OW55979   3.498   2.544   6.831  0.0281  0.1875 -0.1207
17525SOL    HW155980   3.546   2.621   6.800 -1.3988  1.6139  1.1342
17525SOL    HW255981   3.448   2.576   6.906  0.7935 -2.4093  1.5411
17526SOL     OW55982   7.330   7.666   1.226  0.5277  0.3967 -0.0377
17526SOL    HW155983   7.284   7.741   1.262 -2.5091 -1.2567 -0.2647
17526SOL    HW255984   7.315   7.671   1.132  0.1394 -0.5719 -0.0368
17527SOL     OW55985  10.595   9.584   1.506 -0.1161  0.4615  0.0113
17527SOL    HW155986  10.684   9.605   1.533  0.4226  0.3742 -1.6384
17527SOL    HW255987  10.605   9.518   1.438 -1.4803 -0.0797  0.3140
17528SOL     OW55988   4.299   3.836   3.410  0.2046  0.1786 -0.2729
17528SOL    HW155989   4.312   3.771   3.478 -2.2266 -1.2822 -1.1484
17528SOL    HW255990   4.352   3.805   3.336 -1.1941 -0.9952 -0.7949
17529SOL     OW55991   3.967   4.843   0.712  0.8109 -0.4854 -0.2789
17529SOL    HW155992   4.054   4.882   0.704  1.0936 -1.1281 -0.3849
17529SOL    HW255993   3.934   4.876   0.796  0.4566  1.1147 -1.0298
17530SOL     OW55994   2.725   4.075  10.026  0.0099 -0.3729  0.0178
17530SOL    HW155995   2.786   4.148  10.023 -0.3362 -0.0767  0.1656
17530SOL    HW255996   2.640   4.115  10.041 -0.1481 -0.8246  0.3556
17531SOL     OW55997   8.286   1.550   8.780 -0.0729 -0.0621  0.2014
17531SOL    HW155998   8.255   1.494   8.852  2.3536  1.3269  2.4223
17531SOL    HW255999   8.358   1.501   8.740  0.4891  0.4015  0.6257
17532SOL     OW56000  10.184   0.328  10.138 -0.0472  0.6944  0.2192
17532SOL    HW156001  10.175   0.311  10.044  0.8265 -1.6483  0.5261
17532SOL    HW256002  10.266   0.378  10.145 -0.9983  2.4159 -0.3869
17533SOL     OW56003   0.707   9.207   5.633 -0.2436  0.0839  0.3721
17533SOL    HW156004   0.747   9.220   5.547  1.2802 -0.4947  0.9766
17533SOL    HW256005   0.730   9.118   5.657 -0.4896  0.3086  1.4718
17534SOL     OW56006   9.610   7.026   0.917 -0.1496 -0.1884 -0.6756
17534SOL    HW156007   9.683   7.020   0.855  0.3727 -0.3577 -0.0579
17534SOL    HW256008   9.599   7.120   0.931 -1.5536 -0.0572 -2.5016
17535SOL     OW56009   5.447   6.156   6.250  0.1661 -0.3317  0.6093
17535SOL    HW156010   5.491   6.087   6.199  1.1571  0.5591  0.2311
17535SOL    HW256011   5.354   6.136   6.242  0.4697 -1.8899  0.8849
17536SOL     OW56012   6.943   7.944   6.946 -0.1814  0.0784 -0.1118
17536SOL    HW156013   7.017   7.907   6.993 -1.4141 -0.0092  1.8232
17536SOL    HW256014   6.883   7.871   6.935 -1.7022  0.9883  1.8508
17537SOL     OW56015   1.654   1.787   8.093 -0.2162  0.5028 -0.0230
17537SOL    HW156016   1.725   1.731   8.062  0.1622  0.6443  0.5624
17537SOL    HW256017   1.688   1.823   8.175 -0.2194  2.0378 -0.6832
17538SOL     OW56018   0.097   7.576  10.746  0.0835 -0.5642  0.3764
17538SOL    HW156019   0.030   7.511  10.725  1.1752 -1.0420 -1.6745
17538SOL    HW256020   0.082   7.647  10.684  0.4982  0.0432  0.9573
17539SOL     OW56021  10.386   9.717   6.415  0.1057 -0.5998  0.1596
17539SOL    HW156022  10.343   9.767   6.346 -1.3876 -0.8995  0.8394
17539SOL    HW256023  10.416   9.637   6.372 -1.8518 -1.3206  0.0646
17540SOL     OW56024   2.075   0.069  10.813  0.2248  0.7198 -0.7541
17540SOL    HW156025   2.067   0.105  10.725 -0.2414  1.2866 -0.4828
17540SOL    HW256026   2.113   0.140  10.864  0.3850  0.4310 -0.4662
17541SOL     OW56027   3.451  10.507   2.963 -0.4495 -0.1136  0.1459
17541SOL    HW156028   3.504  10.463   2.897 -0.2666  0.1853  0.0899
17541SOL    HW256029   3.362  10.475   2.949 -0.2744 -0.6593  0.2732
17542SOL     OW56030   9.500   6.863   4.914  0.4916  0.0991 -0.3647
17542SOL    HW156031   9.428   6.825   4.964 -0.1824 -0.3777 -1.6865
17542SOL    HW256032   9.579   6.839   4.963 -0.1641 -0.3048  0.5021
17543SOL     OW56033   9.713   9.715   6.544  0.1933  0.5735 -0.0063
17543SOL    HW156034   9.792   9.695   6.595  0.5339 -0.9438 -1.0770
17543SOL    HW256035   9.642   9.711   6.608  0.6080 -1.3554  0.3703
17544SOL     OW56036   7.500   0.588   6.392  0.1706 -0.4019 -0.4493
17544SOL    HW156037   7.557   0.533   6.338  0.5394  0.2551 -0.7308
17544SOL    HW256038   7.430   0.530   6.420  0.4893 -0.9833 -0.8566
17545SOL     OW56039   6.918   1.832   5.413 -0.1090 -0.0905 -0.1143
17545SOL    HW156040   6.946   1.859   5.501 -3.4985 -0.5891  1.2123
17545SOL    HW256041   6.928   1.737   5.413 -1.2963 -0.2331  0.2433
17546SOL     OW56042   4.126   7.769   0.614  0.4222 -0.1618  0.0749
17546SOL    HW156043   4.110   7.820   0.693  0.8652  0.7342 -0.4033
17546SOL    HW256044   4.079   7.687   0.628 -1.4118  0.9141  0.2756
17547SOL     OW56045   9.713   5.355   6.865  0.5790  0.3922  0.1618
17547SOL    HW156046   9.727   5.399   6.781  0.1836 -1.9026 -1.1327
17547SOL    HW256047   9.636   5.399   6.902 -1.5519 -1.0153 -2.4023
17548SOL     OW56048   9.787   6.291   1.673  0.4878  0.3729  0.1127
17548SOL    HW156049   9.828   6.319   1.755  0.7360  1.1544 -0.2740
17548SOL    HW256050   9.851   6.233   1.632  0.5890  0.4176  0.2078
17549SOL     OW56051   2.920   8.498   8.306  0.3490  0.5116  0.2865
17549SOL    HW156052   2.848   8.454   8.353  0.2664  0.9847  0.6070
17549SOL    HW256053   2.914   8.589   8.334  0.8557  0.6209  0.0336
17550SOL     OW56054   6.043   7.870   7.910  0.5264 -0.7237 -0.1404
17550SOL    HW156055   5.988   7.813   7.963  0.2583 -2.3726 -2.1523
17550SOL    HW256056   6.069   7.940   7.970 -3.5390 -0.0070  0.8954
17551SOL     OW56057   9.717   4.821   6.473 -0.1151 -0.1533  0.2353
17551SOL    HW156058   9.746   4.879   6.544 -0.2472 -1.8712  1.7188
17551SOL    HW256059   9.656   4.874   6.422  1.6048  1.8019  0.1387
17552SOL     OW56060   4.206  10.402   3.749  0.0046 -0.4821  0.8580
17552SOL    HW156061   4.290  10.448   3.750  1.4346 -2.9650  1.6525
17552SOL    HW256062   4.209  10.346   3.827 -1.6453 -1.8373 -0.0142
17553SOL     OW56063   8.794   3.542   3.460 -0.3543 -0.5301 -0.4294
17553SOL    HW156064   8.792   3.451   3.489 -0.1015 -1.0070 -1.8474
17553SOL    HW256065   8.871   3.579   3.503 -1.4862 -0.4571  1.6165
17554SOL     OW56066   4.359   4.905   5.495  0.0575 -0.0769 -0.1321
17554SOL    HW156067   4.427   4.844   5.466  0.7417  0.1911  0.8854
17554SOL    HW256068   4.285   4.849   5.518 -0.2546 -0.3415 -1.6884
17555SOL     OW56069   4.307   0.461   5.077 -0.8156 -0.0465 -0.3360
17555SOL    HW156070   4.369   0.401   5.118  1.3458  2.4941  0.2164
17555SOL    HW256071   4.329   0.547   5.112 -2.4815  1.4180 -2.6839
17556SOL     OW56072   2.678   1.407   2.485  0.3914  0.4551  0.5764
17556SOL    HW156073   2.635   1.343   2.542  1.3184 -0.5713  0.1411
17556SOL    HW256074   2.613   1.477   2.474 -0.7830 -0.5887  0.7398
17557SOL     OW56075   3.472   5.303   8.811 -0.3875  0.1970  0.5499
17557SOL    HW156076   3.510   5.387   8.837 -1.0002  0.4327  0.6837
17557SOL    HW256077   3.491   5.244   8.884 -0.7443  0.4540  0.8524
17558SOL     OW56078   8.904   5.251   2.414 -0.0910 -0.4507 -0.2335
17558SOL    HW156079   8.970   5.205   2.362 -0.9053 -0.1954 -1.5219
17558SOL    HW256080   8.954   5.321   2.458  0.3613  0.3465 -1.9529
17559SOL     OW56081   0.975   9.021   3.866 -0.0930 -0.4350 -0.2046
17559SOL    HW156082   0.908   8.955   3.849  0.1877 -0.7582 -0.0482
17559SOL    HW256083   1.005   9.002   3.955  0.1152 -0.2062 -0.2261
17560SOL     OW56084   6.145  10.608   5.266 -0.1999  0.1996 -0.1085
17560SOL    HW156085   6.118  10.516   5.263 -0.5824  0.2211  2.1329
17560SOL    HW256086   6.234  10.608   5.229  0.6145 -1.3925  1.7817
17561SOL     OW56087   6.172   6.166   4.545 -0.2001 -0.4078  0.6411
17561SOL    HW156088   6.139   6.115   4.471 -0.0038  0.5148 -0.1013
17561SOL    HW256089   6.147   6.116   4.622 -0.8761 -1.1208 -0.0288
17562SOL     OW56090   1.074   5.554   2.383 -0.3921 -0.5091 -0.3659
17562SOL    HW156091   1.132   5.603   2.326 -0.7800  1.1361  0.5990
17562SOL    HW256092   1.050   5.617   2.452 -0.0195 -2.3924  1.5318
17563SOL     OW56093   5.428   9.664   9.038 -0.5116  0.0344 -0.3266
17563SOL    HW156094   5.463   9.632   9.121 -0.1213 -0.2848 -0.6111
17563SOL    HW256095   5.449   9.595   8.975 -1.2572  0.0441 -0.5891
17564SOL     OW56096   1.950   3.488   3.796 -0.1101 -0.6986  0.0945
17564SOL    HW156097   1.887   3.491   3.724 -0.1703  0.7800  0.1959
17564SOL    HW256098   2.035   3.476   3.754 -0.2628 -0.9320 -0.1489
17565SOL     OW56099   0.462   5.780   5.138 -0.1935 -0.1119 -0.2816
17565SOL    HW156100   0.380   5.826   5.121 -1.4819 -2.0744  0.4066
17565SOL    HW256101   0.481   5.799   5.230  0.0780  0.2914 -0.4236
17566SOL     OW56102   5.450   3.292   8.625 -0.2671 -0.5576  0.0240
17566SOL    HW156103   5.387   3.294   8.553  0.9619 -2.7573 -1.1674
17566SOL    HW256104   5.403   3.253   8.698 -0.9035 -0.2619 -0.2256
17567SOL     OW56105  10.662   1.916   7.530 -0.4404  0.2912 -0.0154
17567SOL    HW156106  10.691   1.853   7.596  2.0500  0.6883 -0.6650
17567SOL    HW256107  10.674   2.001   7.572 -2.4032  0.4316  0.3247
17568SOL     OW56108   5.696   8.534   8.274 -0.1178 -0.4940  0.2348
17568SOL    HW156109   5.791   8.523   8.276 -0.2491 -1.8420 -0.4452
17568SOL    HW256110   5.668   8.488   8.195 -1.2536  0.6150 -0.0226
17569SOL     OW56111   6.879   5.177   8.418  0.6996  0.1798  0.7600
17569SOL    HW156112   6.894   5.250   8.478 -1.0849  1.8000 -0.6659
17569SOL    HW256113   6.943   5.190   8.348 -0.0477  0.7973  0.1741
17570SOL     OW56114  10.762   7.519   5.673 -0.3507  0.3325 -0.0590
17570SOL    HW156115  10.691   7.533   5.736 -0.5345 -0.9609  0.0368
17570SOL    HW256116  10.836   7.491   5.727 -0.3796 -0.3375 -0.3645
17571SOL     OW56117  10.027   1.955   1.862  0.2394  0.2129 -0.1045
17571SOL    HW156118   9.943   1.971   1.819  0.4902  0.4631 -0.5006
17571SOL    HW256119  10.068   1.886   1.811  0.1567 -0.1058  0.2540
17572SOL     OW56120   6.415   9.460   9.812  0.0554 -0.7283  0.1026
17572SOL    HW156121   6.408   9.439   9.719  0.4588 -0.5503  0.0338
17572SOL    HW256122   6.345   9.523   9.828 -2.0508 -3.0740  0.5865
17573SOL     OW56123   1.952   4.687   4.110 -0.3975  0.8414 -0.1843
17573SOL    HW156124   2.023   4.740   4.072  0.0221 -0.2920 -1.0152
17573SOL    HW256125   1.876   4.744   4.107 -0.1170  1.1569 -1.7439
17574SOL     OW56126   8.916   7.887   3.324  0.4703  0.1977  0.1206
17574SOL    HW156127   8.854   7.885   3.251 -0.9378 -1.9080  1.3246
17574SOL    HW256128   8.907   7.974   3.361 -0.9000  0.3046 -0.4518
17575SOL     OW56129   2.049   4.340   1.118  0.1456 -0.5002 -0.4153
17575SOL    HW156130   2.144   4.348   1.108  0.4676 -1.2499  1.7870
17575SOL    HW256131   2.024   4.274   1.053  1.2175 -0.7504 -0.5915
17576SOL     OW56132   0.506   4.278  10.447  0.0151 -0.7354  0.2112
17576SOL    HW156133   0.504   4.214  10.376  1.4939 -1.1401  0.5063
17576SOL    HW256134   0.536   4.359  10.406 -1.6462 -0.2708 -0.1187
17577SOL     OW56135   2.826   2.113   7.716  0.0093 -0.3139 -0.1743
17577SOL    HW156136   2.911   2.092   7.754 -0.3558 -0.1031  0.7649
17577SOL    HW256137   2.767   2.045   7.750 -0.5277  0.4557  0.4558
17578SOL     OW56138   1.528   3.418   2.627 -0.3198  0.2074  0.4195
17578SOL    HW156139   1.448   3.378   2.663  0.6423 -0.5086  1.8169
17578SOL    HW256140   1.594   3.348   2.632  0.6630  1.1079  0.2264
17579SOL     OW56141   1.704   7.893  10.517 -0.1454  0.2124 -0.0299
17579SOL    HW156142   1.800   7.898  10.517 -0.1260  0.1796  1.3931
17579SOL    HW256143   1.685   7.801  10.498  0.1047  0.2426 -0.4308
17580SOL     OW56144   4.415   4.683   2.829 -0.3544  0.1215 -0.3350
17580SOL    HW156145   4.398   4.627   2.905  2.4805 -0.0560  0.2145
17580SOL    HW256146   4.486   4.639   2.782  0.1726  1.9395 -1.2853
17581SOL     OW56147   7.948   8.820   1.667 -0.3603  0.2604 -1.1490
17581SOL    HW156148   7.955   8.750   1.602  0.8443 -0.2989 -0.4456
17581SOL    HW256149   8.039   8.843   1.687 -0.7083  0.3732  0.3768
17582SOL     OW56150   8.201   8.720   4.214  0.4647 -0.0412 -0.0329
17582SOL    HW156151   8.194   8.774   4.135  0.6059  1.4138  0.9265
17582SOL    HW256152   8.294   8.705   4.225  0.4190 -0.5912 -0.3609
17583SOL     OW56153   3.409   2.124   3.305  0.5543  0.3609  0.4677
17583SOL    HW156154   3.361   2.045   3.331 -0.4945  0.4135 -1.2495
17583SOL    HW256155   3.342   2.192   3.298  1.1926  0.9689  0.1902
17584SOL     OW56156  10.104   4.455   9.768  0.5692 -0.6992 -0.0411
17584SOL    HW156157  10.117   4.478   9.676  3.3408 -0.5119  0.3530
17584SOL    HW256158  10.029   4.395   9.768 -0.0801  0.0888 -2.2908
17585SOL     OW56159   7.798   3.767   4.808 -0.0040  0.4540  0.0962
17585SOL    HW156160   7.760   3.726   4.731 -1.2032  0.1133  0.8597
17585SOL    HW256161   7.842   3.846   4.775  2.1215 -1.2836 -1.3588
17586SOL     OW56162   9.621   2.488   0.847 -0.0500 -0.2972 -0.3559
17586SOL    HW156163   9.705   2.444   0.862 -0.4915 -2.1100 -2.9653
17586SOL    HW256164   9.643   2.581   0.845  1.9153 -0.7530 -1.0339
17587SOL     OW56165   7.434   4.442   6.604 -0.4830  0.2052  0.7414
17587SOL    HW156166   7.338   4.442   6.605 -0.5112  0.6420 -0.3700
17587SOL    HW256167   7.456   4.478   6.518  0.6748 -0.4461  0.7607
17588SOL     OW56168   3.431   6.043   3.705 -0.5686 -0.0736  0.1399
17588SOL    HW156169   3.507   6.059   3.649  0.6638 -2.3643  1.1152
17588SOL    HW256170   3.442   6.103   3.778 -0.5047  0.6687 -0.4692
17589SOL     OW56171   0.777   9.007   3.284  0.2527  0.0604  0.1514
17589SOL    HW156172   0.839   8.936   3.272 -0.6591 -0.6132 -0.6798
17589SOL    HW256173   0.764   9.013   3.378 -1.1169 -2.1480  0.1290
17590SOL     OW56174   3.061   5.194   1.549 -0.4231  0.2828  0.0027
17590SOL    HW156175   3.134   5.137   1.525 -0.4345  0.4215 -0.3610
17590SOL    HW256176   3.078   5.218   1.640  0.1887  0.6262 -0.1990
17591SOL     OW56177   5.465   0.475   3.692  0.2051  0.7707  0.5087
17591SOL    HW156178   5.466   0.489   3.597  0.7058 -1.2735  0.1782
17591SOL    HW256179   5.544   0.423   3.709 -2.0370 -2.5574  1.3829
17592SOL     OW56180   4.481   2.961   8.962  0.0176  0.1202  0.9209
17592SOL    HW156181   4.550   3.009   8.917 -0.3193  0.0430  0.3129
17592SOL    HW256182   4.526   2.912   9.031  0.3928  1.1304  1.4049
17593SOL     OW56183   0.460   6.463   8.975 -0.3320  0.0124  0.5469
17593SOL    HW156184   0.473   6.468   9.070 -0.1739 -1.1190  0.5929
17593SOL    HW256185   0.519   6.393   8.946  0.5744  1.2233 -0.5763
17594SOL     OW56186   3.824   5.662   5.873 -0.1162 -0.3389  0.3298
17594SOL    HW156187   3.855   5.578   5.838  0.2117  0.1033 -0.4420
17594SOL    HW256188   3.883   5.727   5.835 -0.9176  0.3372  0.2280
17595SOL     OW56189  10.888   5.216   4.549  0.0339 -0.3125 -0.2556
17595SOL    HW156190  10.869   5.267   4.627  0.3488 -0.2211 -0.2391
17595SOL    HW256191  10.917   5.280   4.484  2.1595 -0.6732  0.3193
17596SOL     OW56192  10.775   0.505   7.526 -0.0183 -0.4639  0.3338
17596SOL    HW156193  10.765   0.565   7.599  1.4509  1.7897 -1.2390
17596SOL    HW256194  10.836   0.438   7.557  1.0404  0.7886  0.9854
17597SOL     OW56195   8.807   9.010   9.705 -0.3114  0.0117 -0.1160
17597SOL    HW156196   8.800   9.073   9.777 -0.3177 -0.6589  0.4894
17597SOL    HW256197   8.796   8.925   9.748  1.9832 -0.5456 -0.5684
17598SOL     OW56198  10.265   2.754   6.522 -0.5513 -0.0147 -0.2687
17598SOL    HW156199  10.228   2.734   6.436  0.9405  0.1270 -0.9606
17598SOL    HW256200  10.352   2.788   6.503  0.1480 -0.8595  1.3660
17599SOL     OW56201   0.350   2.453   7.008 -0.2361 -0.2199  0.2464
17599SOL    HW156202   0.364   2.490   6.921 -0.3994  0.3385  0.4524
17599SOL    HW256203   0.298   2.375   6.992  0.3226 -0.5038 -0.2179
17600SOL     OW56204   6.677   3.105   4.050 -0.5932 -0.1672  0.4702
17600SOL    HW156205   6.660   3.198   4.031 -0.6826 -0.1832  0.4694
17600SOL    HW256206   6.763   3.104   4.092 -0.6693 -0.0647  0.6316
17601SOL     OW56207  10.921   6.130   0.327 -0.0713 -0.8827  0.4292
17601SOL    HW156208  10.991   6.171   0.378  0.1762  0.2456 -0.7940
17601SOL    HW256209  10.893   6.055   0.380 -0.0624  0.4709  2.3860
17602SOL     OW56210   4.741   4.673   1.614  0.2254 -0.5704  0.0549
17602SOL    HW156211   4.672   4.733   1.586  0.9149  0.6123  0.8509
17602SOL    HW256212   4.754   4.694   1.707  1.2592 -1.1832  0.0484
17603SOL     OW56213   6.604   3.728   6.372 -0.3730  0.0077 -0.1595
17603SOL    HW156214   6.543   3.748   6.442  0.8245  0.2606  0.8265
17603SOL    HW256215   6.596   3.801   6.310 -0.2171  0.6153  0.5392
17604SOL     OW56216   5.474  10.897  10.366 -0.1065 -0.0474  0.4146
17604SOL    HW156217   5.458  10.991  10.354 -2.6623 -0.3171  1.5429
17604SOL    HW256218   5.419  10.855  10.300  0.0216 -0.8242  0.8052
17605SOL     OW56219   2.582   1.015   7.522 -0.2769 -0.2922 -0.0630
17605SOL    HW156220   2.550   0.963   7.596  0.0381 -1.6508 -0.8672
17605SOL    HW256221   2.678   1.006   7.527 -0.2978 -1.4740 -1.3844
17606SOL     OW56222   1.971   2.161   2.213 -0.1166  0.4704 -0.0966
17606SOL    HW156223   1.914   2.231   2.179  0.6750  0.2944 -1.8805
17606SOL    HW256224   2.025   2.204   2.279 -1.3879  0.9452  0.6533
17607SOL     OW56225   0.291   0.183   8.909 -0.3903 -0.3457  0.4038
17607SOL    HW156226   0.322   0.217   8.993 -0.4147 -2.2067  1.1940
17607SOL    HW256227   0.352   0.219   8.844  0.6306 -0.2427  1.4118
17608SOL     OW56228   0.337  10.050   2.564 -0.9194  0.0548 -0.0857
17608SOL    HW156229   0.280  10.027   2.638  0.3243 -0.3430  0.7789
17608SOL    HW256230   0.425  10.049   2.602 -0.5117  2.8065 -0.8603
17609SOL     OW56231   1.438   8.917   5.779  0.4449 -0.0935 -0.0103
17609SOL    HW156232   1.413   8.844   5.723  2.9243 -0.5042 -0.6298
17609SOL    HW256233   1.365   8.979   5.771 -1.7182 -2.4820  0.5794
17610SOL     OW56234   1.477   8.457   9.345 -0.3464 -0.1670  0.6008
17610SOL    HW156235   1.485   8.525   9.278  0.2507 -0.7646  0.0571
17610SOL    HW256236   1.388   8.425   9.336  0.2618 -1.4569 -1.1018
17611SOL     OW56237   9.300   3.727   6.443 -0.0870 -0.4994 -0.7949
17611SOL    HW156238   9.269   3.760   6.358 -1.7936  1.2209  0.4467
17611SOL    HW256239   9.384   3.771   6.457 -0.7287  0.7271 -0.7222
17612SOL     OW56240   6.695   6.414   1.798 -0.2898 -0.1147  0.4765
17612SOL    HW156241   6.702   6.415   1.893  1.0752  0.1527  0.3782
17612SOL    HW256242   6.772   6.366   1.768 -0.6329 -0.0705 -0.5097
17613SOL     OW56243   0.212   5.548   6.060  0.5221 -0.1271 -0.3194
17613SOL    HW156244   0.269   5.568   6.134  1.3322 -0.6472 -0.7914
17613SOL    HW256245   0.180   5.633   6.029  2.9428  0.3803 -1.5479
17614SOL     OW56246   5.046   5.130   5.225  0.2375  0.0278  0.3140
17614SOL    HW156247   4.962   5.135   5.270 -0.5716  2.0442 -1.3200
17614SOL    HW256248   5.039   5.052   5.170 -0.6196  0.2357  0.1156
17615SOL     OW56249   3.973   6.676  10.503  0.5660 -0.1633  0.7420
17615SOL    HW156250   3.963   6.771  10.498 -0.0777 -0.1797  1.6056
17615SOL    HW256251   3.883   6.643  10.501  0.7652 -0.7157  1.0635
17616SOL     OW56252   6.124   8.395   5.340 -0.1595 -0.0999  0.1266
17616SOL    HW156253   6.049   8.423   5.287  0.4624  1.7019  0.1599
17616SOL    HW256254   6.188   8.363   5.276 -0.2278  0.1182 -0.0524
17617SOL     OW56255  10.082   6.315   4.306 -0.0256 -0.5705  0.6188
17617SOL    HW156256  10.069   6.328   4.400 -1.5041  0.1810  0.3329
17617SOL    HW256257   9.993   6.310   4.270  0.5003  0.6426 -0.9242
17618SOL     OW56258   8.362   7.948   4.088 -0.3591  0.9699  0.4249
17618SOL    HW156259   8.269   7.933   4.072  0.0707  0.5412 -1.7608
17618SOL    HW256260   8.398   7.861   4.106 -0.5063  1.2302  2.0696
17619SOL     OW56261   3.045  10.730   4.785 -0.2374  0.8543  0.1071
17619SOL    HW156262   3.058  10.672   4.710  0.5403 -0.4424  1.2281
17619SOL    HW256263   3.083  10.682   4.859  0.5873  2.8699  1.0158
17620SOL     OW56264   1.921  10.535   0.496  0.0699 -0.4310  0.6156
17620SOL    HW156265   1.926  10.590   0.418  0.7467 -1.9243 -0.4229
17620SOL    HW256266   1.928  10.596   0.569 -0.3681  0.9711 -0.4912
17621SOL     OW56267  10.665   3.012   1.858  0.6211 -0.4139 -0.2474
17621SOL    HW156268  10.658   2.917   1.848  0.4811 -0.4398  0.0953
17621SOL    HW256269  10.706   3.024   1.944 -1.6705 -0.1198  0.8268
17622SOL     OW56270   3.831   8.235   0.327  0.6449  0.0375  0.5037
17622SOL    HW156271   3.897   8.170   0.306  0.3669 -0.9320  2.4492
17622SOL    HW256272   3.870   8.287   0.398  0.4585  1.3435 -0.3273
17623SOL     OW56273   9.175   0.250   7.001 -0.4096  0.1660 -0.2735
17623SOL    HW156274   9.263   0.278   7.026 -0.2971  0.1609 -0.6592
17623SOL    HW256275   9.161   0.289   6.915 -0.6424 -0.1289 -0.3707
17624SOL     OW56276   1.769   4.270  10.761  0.2894  0.2226  0.2287
17624SOL    HW156277   1.830   4.296  10.829 -0.8361 -0.0800  1.3691
17624SOL    HW256278   1.815   4.202  10.711  1.2509  0.7061  0.4518
17625SOL     OW56279   7.109   9.572   2.895  0.0060 -0.0662 -0.2656
17625SOL    HW156280   7.086   9.540   2.808  0.2288 -1.9539  0.3526
17625SOL    HW256281   7.090   9.499   2.953 -2.8781  2.0934  1.6810
17626SOL     OW56282  10.922   3.025   9.504 -0.0185  0.1449  0.3292
17626SOL    HW156283  10.835   3.020   9.543  0.2936 -0.0033  1.0134
17626SOL    HW256284  10.966   2.944   9.532  0.6151  0.6005  0.6745
17627SOL     OW56285   0.569   7.232   1.845 -0.0321  0.1878 -0.4805
17627SOL    HW156286   0.522   7.287   1.782  1.7925  1.0072 -1.1571
17627SOL    HW256287   0.551   7.273   1.930  0.0180  0.9028 -0.8087
17628SOL     OW56288   2.893   9.251   2.278  0.2337  0.2450 -0.9279
17628SOL    HW156289   2.965   9.212   2.228  0.0068  1.3798 -2.1858
17628SOL    HW256290   2.855   9.315   2.218  0.1427  1.8764  0.8289
17629SOL     OW56291   2.665   7.803  10.485 -0.5054  0.8494 -0.2272
17629SOL    HW156292   2.614   7.830  10.561 -0.3724  0.1994  0.0950
17629SOL    HW256293   2.600   7.769  10.423 -0.3374 -1.6470  0.8832
17630SOL     OW56294   0.183   0.140   8.379 -0.1594 -0.8853  0.2818
17630SOL    HW156295   0.116   0.072   8.380 -0.1952 -1.0521 -3.3846
17630SOL    HW256296   0.138   0.219   8.349  0.8971 -0.5994 -0.6268
17631SOL     OW56297   9.234  10.851  10.855 -0.0139 -0.3491 -0.4839
17631SOL    HW156298   9.190  10.767  10.870 -0.9572  0.0889 -0.7278
17631SOL    HW256299   9.218  10.901  10.935 -1.2887  0.3697 -1.1598
17632SOL     OW56300   8.958   6.716   3.817  0.2158 -0.0805  0.0518
17632SOL    HW156301   9.041   6.714   3.770  0.1857 -1.2860  0.0473
17632SOL    HW256302   8.907   6.644   3.780 -0.4941  0.0873  0.6859
17633SOL     OW56303   1.292   8.777   3.518 -0.0998 -0.0992 -0.0180
17633SOL    HW156304   1.247   8.854   3.484  0.0428 -0.1256 -0.2613
17633SOL    HW256305   1.243   8.755   3.598 -2.0671 -1.6141 -1.5697
17634SOL     OW56306  10.160   8.117  10.052  0.4570  0.4684 -0.6446
17634SOL    HW156307  10.108   8.197  10.067 -1.5832 -1.3055  2.2078
17634SOL    HW256308  10.249   8.142  10.077 -0.3002  1.6971  0.9776
17635SOL     OW56309  10.906   4.323   6.669 -0.0897 -0.1987  0.1451
17635SOL    HW156310  10.950   4.384   6.729 -0.6989  2.1295 -1.6814
17635SOL    HW256311  10.973   4.258   6.648  1.2056  0.9322  0.6299
17636SOL     OW56312   8.950   6.686   9.494  0.5173  0.3796  0.0857
17636SOL    HW156313   9.042   6.669   9.515  0.4204  0.8858  0.9311
17636SOL    HW256314   8.953   6.726   9.407  1.2196  1.7922  0.7437
17637SOL     OW56315   1.750   2.713   9.992  0.2495 -0.4073  0.5231
17637SOL    HW156316   1.841   2.737   9.970 -0.1550  1.5487  0.8555
17637SOL    HW256317   1.744   2.620   9.970  2.0782 -0.3548 -0.3574
17638SOL     OW56318  10.874   4.406   1.425 -0.2742 -0.3045 -0.0580
17638SOL    HW156319  10.899   4.487   1.469  0.8153 -0.1745 -0.9234
17638SOL    HW256320  10.861   4.343   1.497  1.4644 -0.0862  0.4576
17639SOL     OW56321   9.620  10.462   5.786  0.6051 -0.5598  0.5352
17639SOL    HW156322   9.636  10.517   5.863 -1.9166  2.3994 -0.9756
17639SOL    HW256323   9.542  10.412   5.809  2.1178 -2.6589  1.3656
17640SOL     OW56324   4.827   5.285   6.844  0.1877  0.4190  0.2237
17640SOL    HW156325   4.783   5.277   6.760 -1.8906  0.5130  1.2737
17640SOL    HW256326   4.849   5.195   6.868 -0.2192  0.2874  0.1017
17641SOL     OW56327   2.060   1.430   9.915 -0.0721 -0.1663  0.0135
17641SOL    HW156328   2.093   1.395   9.997 -0.3055  1.2881  0.7367
17641SOL    HW256329   2.125   1.495   9.888 -0.7315  0.4114 -0.1985
17642SOL     OW56330   0.540   0.741   7.065 -0.3990 -0.5547  0.0843
17642SOL    HW156331   0.512   0.813   7.121  1.0214  0.2187 -0.1663
17642SOL    HW256332   0.459   0.709   7.024 -1.1748  0.1769  1.0284
17643SOL     OW56333   6.899   7.058   0.424 -0.0019 -0.2537 -0.4613
17643SOL    HW156334   6.876   6.993   0.490  0.5064 -0.9642 -0.9799
17643SOL    HW256335   6.848   7.033   0.347  0.6141 -0.3628 -0.8341
17644SOL     OW56336   6.058   4.082   6.121  0.0353 -0.4365  0.0218
17644SOL    HW156337   6.035   4.049   6.034 -0.3047  0.8897 -0.3908
17644SOL    HW256338   5.995   4.152   6.138  1.7439  1.0877  0.2149
17645SOL     OW56339  10.424   8.443   4.743 -0.8135 -0.0690 -0.2588
17645SOL    HW156340  10.338   8.401   4.737 -0.0863 -1.6741  0.3146
17645SOL    HW256341  10.485   8.370   4.752  0.4918  1.1309  0.6769
17646SOL     OW56342   3.121   4.861   7.542  0.5321  0.3679 -0.4683
17646SOL    HW156343   3.050   4.911   7.582  0.5221 -1.2634  1.6401
17646SOL    HW256344   3.172   4.927   7.494 -1.0182  1.9383 -0.0223
17647SOL     OW56345   5.138   9.069   2.549  0.4275  0.3090  0.3117
17647SOL    HW156346   5.216   9.075   2.493  1.7895 -1.7435  1.9374
17647SOL    HW256347   5.138   9.150   2.599  1.8963  0.0460  0.7602
17648SOL     OW56348   9.357  10.153   4.792  0.3703  0.2694  0.2357
17648SOL    HW156349   9.410  10.186   4.719  0.0839 -0.8205 -0.4741
17648SOL    HW256350   9.338  10.062   4.769 -0.9861  0.3600  0.9500
17649SOL     OW56351   0.038   4.297   2.846 -0.1854 -0.0683 -0.1977
17649SOL    HW156352   0.081   4.329   2.925 -0.5414  1.5983 -0.6725
17649SOL    HW256353   0.087   4.218   2.824  0.8349  0.2359  0.8720
17650SOL     OW56354   8.892   1.675   0.743 -0.4474  0.6574 -0.8494
17650SOL    HW156355   8.799   1.681   0.767 -0.8409 -1.0338 -1.8434
17650SOL    HW256356   8.930   1.617   0.808  0.0762  1.8841 -0.0446
17651SOL     OW56357   7.800   5.394   3.263  0.1506 -0.5376  0.1367
17651SOL    HW156358   7.738   5.394   3.190  0.2636 -1.8702  0.0224
17651SOL    HW256359   7.749   5.428   3.337 -0.4030 -0.5896 -0.2126
17652SOL     OW56360   6.801   6.458   7.168 -0.0980  0.7323 -0.0608
17652SOL    HW156361   6.783   6.364   7.165 -2.2829  1.1158 -0.2821
17652SOL    HW256362   6.756   6.493   7.091  3.7916  1.5005 -2.0621
17653SOL     OW56363   8.201   4.535   8.544 -0.6103  0.1372 -0.3414
17653SOL    HW156364   8.163   4.608   8.495 -1.0118  0.3732  0.3135
17653SOL    HW256365   8.157   4.538   8.629 -0.7294 -0.9522 -0.3583
17654SOL     OW56366   5.164   2.753   7.823  0.2430  0.8934 -0.4149
17654SOL    HW156367   5.231   2.691   7.853 -3.7672 -1.2170  5.0309
17654SOL    HW256368   5.205   2.839   7.833  2.4873 -0.3575  1.9970
17655SOL     OW56369   8.717   8.768   2.024  0.8121  0.2265 -0.0096
17655SOL    HW156370   8.680   8.698   2.078  1.3680  0.1431  0.2724
17655SOL    HW256371   8.793   8.727   1.982  0.6600  0.4312 -0.4731
17656SOL     OW56372   6.596   5.680  10.659  0.5116 -0.8220  0.4980
17656SOL    HW156373   6.655   5.669  10.585  0.1582  0.1098  0.0781
17656SOL    HW256374   6.600   5.773  10.680 -1.5393 -0.5600 -0.1685
17657SOL     OW56375   7.615   1.214  10.065 -0.7999  0.5919  0.1036
17657SOL    HW156376   7.690   1.210  10.124 -0.9006 -1.0670  0.1268
17657SOL    HW256377   7.646   1.266   9.991 -0.8849  3.2627  1.8567
17658SOL     OW56378   5.304   1.213  10.799 -0.3249 -0.1140 -0.3030
17658SOL    HW156379   5.244   1.278  10.837 -0.4424 -0.0420 -0.6091
17658SOL    HW256380   5.389   1.236  10.836 -0.6618 -0.9099  1.0207
17659SOL     OW56381   0.437   7.261   0.659 -0.4663  0.8460 -0.8306
17659SOL    HW156382   0.367   7.296   0.603 -0.7460 -0.2270 -1.1602
17659SOL    HW256383   0.466   7.182   0.614 -1.0062 -0.2906  0.7809
17660SOL     OW56384   3.407  10.936   6.662  0.0535  0.6704  0.7691
17660SOL    HW156385   3.500  10.932   6.684  0.6655  2.0324 -1.4135
17660SOL    HW256386   3.389  10.852   6.619  0.2197  0.3385  1.3365
17661SOL     OW56387  10.455   1.977   3.550  0.2102 -0.2027 -0.6705
17661SOL    HW156388  10.470   1.891   3.589  0.4072 -0.0096 -0.3107
17661SOL    HW256389  10.362   1.980   3.531 -0.3807  0.7072  2.2379
17662SOL     OW56390   5.990   1.839  10.913  0.6520 -0.5246 -0.4172
17662SOL    HW156391   5.962   1.771  10.975 -2.2091  1.6399  0.7993
17662SOL    HW256392   6.067   1.878  10.954  0.5730 -1.1289  0.3253
17663SOL     OW56393   6.537   5.953   3.709  0.1440 -0.8973  0.7464
17663SOL    HW156394   6.443   5.961   3.690  0.7128  1.2942 -1.3901
17663SOL    HW256395   6.551   6.014   3.782  0.2418  0.2636 -0.2279
17664SOL     OW56396   3.830   1.765   7.363 -0.4808  1.4358  0.2999
17664SOL    HW156397   3.827   1.674   7.332  1.0025  1.3530  0.3697
17664SOL    HW256398   3.885   1.810   7.299 -0.4480  2.0829  0.7844
17665SOL     OW56399   0.806   9.041   8.139 -0.1008 -0.4649  0.4352
17665SOL    HW156400   0.767   8.954   8.153  1.5857 -1.0639  1.5296
17665SOL    HW256401   0.815   9.047   8.044 -0.5322 -1.3512  0.3266
17666SOL     OW56402   3.978   3.804   7.921  0.1334 -0.5507  0.0686
17666SOL    HW156403   3.999   3.895   7.939 -0.8486 -0.4476  0.7496
17666SOL    HW256404   3.912   3.781   7.987 -0.4301 -1.4227 -0.7792
17667SOL     OW56405   0.061   8.870   6.724  0.2804  0.2346 -0.5929
17667SOL    HW156406   0.092   8.918   6.647  0.3525 -0.4894 -1.0149
17667SOL    HW256407  -0.018   8.824   6.694  1.0289 -1.0708 -0.5806
17668SOL     OW56408   8.785   3.631   6.399  0.5032  0.1494  0.0349
17668SOL    HW156409   8.791   3.677   6.483  0.9825 -2.6920  1.6063
17668SOL    HW256410   8.700   3.588   6.402  0.6940 -0.2730 -0.7862
17669SOL     OW56411   3.014   1.815   7.639  0.2846 -0.1096 -0.6811
17669SOL    HW156412   2.929   1.808   7.682  0.4550 -1.5633 -0.5603
17669SOL    HW256413   3.078   1.803   7.709  0.5876  0.6396 -0.8264
17670SOL     OW56414  10.130   9.025   2.902  0.0463  0.1552 -0.2001
17670SOL    HW156415  10.186   9.103   2.909 -0.3512  0.3220  1.2466
17670SOL    HW256416  10.172   8.960   2.959 -0.0945 -0.4041 -0.7311
17671SOL     OW56417   4.054   2.965  10.422  0.1989 -0.9860  0.3218
17671SOL    HW156418   4.130   2.943  10.369  0.4015  1.4858 -0.5094
17671SOL    HW256419   4.065   2.916  10.503  2.9492 -0.3001  0.4033
17672SOL     OW56420  10.664   3.885   5.181  0.1420  0.1295 -0.2092
17672SOL    HW156421  10.611   3.962   5.158 -1.4696 -0.6788  0.7008
17672SOL    HW256422  10.608   3.835   5.240  1.7729 -0.9929  0.3996
17673SOL     OW56423   7.591   6.697   8.019  0.5119 -0.0179 -0.1162
17673SOL    HW156424   7.522   6.738   7.967 -0.3847  1.5084  2.2046
17673SOL    HW256425   7.669   6.703   7.964 -0.6039  0.7326 -1.6470
17674SOL     OW56426   9.292   5.449   7.655  0.1160 -0.0212 -0.0678
17674SOL    HW156427   9.207   5.494   7.652  1.1003  2.1084  2.4667
17674SOL    HW256428   9.286   5.392   7.732  0.6967 -0.5161 -0.3898
17675SOL     OW56429   3.967   7.093   2.792  0.0398  0.4626 -0.0528
17675SOL    HW156430   4.013   7.018   2.753 -1.0104 -0.4490  0.4394
17675SOL    HW256431   4.029   7.165   2.785  0.9624 -0.3889 -0.7925
17676SOL     OW56432   6.730   6.629   9.062  0.0644 -0.3384  0.7469
17676SOL    HW156433   6.773   6.714   9.071  0.9664 -0.6105 -0.6944
17676SOL    HW256434   6.668   6.641   8.990  1.7526 -1.4529 -0.9621
17677SOL     OW56435   2.230   0.078   4.597  0.8561  0.5122 -0.1064
17677SOL    HW156436   2.202   0.046   4.512  2.9081 -0.3420 -0.4977
17677SOL    HW256437   2.156   0.130   4.629 -0.5432 -0.4503 -1.7018
17678SOL     OW56438   8.154   5.509   9.732 -0.1550 -0.1028 -0.0324
17678SOL    HW156439   8.081   5.516   9.670 -0.6391 -0.5246  0.4848
17678SOL    HW256440   8.118   5.543   9.815  1.0702  2.3302 -0.4395
17679SOL     OW56441   7.932   5.915   6.152 -0.1266  0.1066 -0.0323
17679SOL    HW156442   8.027   5.921   6.158 -0.0966 -1.0182  0.6916
17679SOL    HW256443   7.916   5.845   6.088 -0.4654 -0.3580  0.5589
17680SOL     OW56444   5.538  10.126   1.685  0.8075 -0.0563  0.3653
17680SOL    HW156445   5.525  10.215   1.716  1.8434  0.5201 -0.8483
17680SOL    HW256446   5.500  10.125   1.597  0.0958 -1.0243  0.6666
17681SOL     OW56447   3.799   7.255   0.545  0.1582  0.3150 -0.0890
17681SOL    HW156448   3.773   7.186   0.606 -1.7983 -1.1789 -2.4775
17681SOL    HW256449   3.764   7.335   0.583  1.6530 -0.1045  2.2592
17682SOL     OW56450   3.577   7.065   3.413  0.3771 -0.3123 -0.1540
17682SOL    HW156451   3.651   7.097   3.465  2.3384 -3.1035 -1.1495
17682SOL    HW256452   3.551   7.141   3.360  0.2904  1.6794  2.6120
17683SOL     OW56453   7.657  10.787   1.676 -0.2211 -0.5615 -0.2132
17683SOL    HW156454   7.741  10.762   1.637  0.7168  2.0998  0.0080
17683SOL    HW256455   7.650  10.734   1.755  3.0347  1.8374  1.7690
17684SOL     OW56456   5.846   2.148   4.469  0.4016 -0.3003 -0.3023
17684SOL    HW156457   5.859   2.193   4.552 -0.0928  0.6845 -0.7417
17684SOL    HW256458   5.934   2.131   4.436  0.6009  0.4648 -0.1801
17685SOL     OW56459   5.731   4.861   0.571  0.4329  0.0664 -0.5045
17685SOL    HW156460   5.820   4.826   0.556  0.6326  0.8312 -1.1276
17685SOL    HW256461   5.692   4.800   0.633  0.8900 -1.1044 -1.3380
17686SOL     OW56462  10.565   4.471   0.885 -0.2448 -0.2788  0.4404
17686SOL    HW156463  10.535   4.491   0.974  2.3867 -0.8962  1.5177
17686SOL    HW256464  10.575   4.375   0.885  1.0791 -0.1459 -0.0825
17687SOL     OW56465  10.129   8.163   7.330 -0.1975  0.4787  0.1348
17687SOL    HW156466  10.092   8.146   7.417  1.2034 -1.3049  0.4270
17687SOL    HW256467  10.205   8.219   7.347  0.1843 -0.0214  0.0935
17688SOL     OW56468   8.658   1.584   8.682 -0.1354  0.5824 -0.1246
17688SOL    HW156469   8.596   1.516   8.657  0.7838 -0.2429 -0.1938
17688SOL    HW256470   8.607   1.645   8.735 -1.0353 -0.0020 -0.3113
17689SOL     OW56471   8.025   8.918   4.764  0.0145 -0.7698  0.2941
17689SOL    HW156472   8.041   9.011   4.783 -0.1899 -0.5120 -0.7641
17689SOL    HW256473   8.037   8.874   4.848  0.4519  0.1745  0.7324
17690SOL     OW56474   7.447   5.244   6.343  0.1516 -0.2364 -0.4164
17690SOL    HW156475   7.378   5.208   6.288  1.1118 -1.3664 -0.8919
17690SOL    HW256476   7.431   5.208   6.430 -0.5077  0.3929 -0.2742
17691SOL     OW56477   4.203   2.298   7.376 -0.2314  0.2675  0.3788
17691SOL    HW156478   4.182   2.205   7.386 -0.1166  0.2790  0.7147
17691SOL    HW256479   4.275   2.300   7.312 -1.7642  0.2759 -1.3932
17692SOL     OW56480   2.276   7.399   5.561  0.8633 -0.5390 -0.3834
17692SOL    HW156481   2.262   7.470   5.498 -0.9038  0.9265  1.5522
17692SOL    HW256482   2.339   7.435   5.623 -0.1272 -0.5874  0.6713
17693SOL     OW56483   2.961   2.093   9.067 -0.0929 -0.0873  0.0418
17693SOL    HW156484   2.954   2.178   9.023  1.8110 -0.8151 -1.8039
17693SOL    HW256485   2.876   2.052   9.055 -0.3438  0.7060 -0.9559
17694SOL     OW56486   4.386   6.184   2.902  0.0482  0.5061  0.4256
17694SOL    HW156487   4.318   6.180   2.970 -1.3110  0.8236 -0.8878
17694SOL    HW256488   4.348   6.240   2.834 -0.0860 -2.6712 -2.2264
17695SOL     OW56489   6.024  10.929   0.927 -0.1448 -0.2172  0.5559
17695SOL    HW156490   5.981  10.846   0.907  0.7635 -0.4772 -0.2933
17695SOL    HW256491   5.952  10.993   0.928 -1.0063 -1.1754  2.3061
17696SOL     OW56492   2.067  10.859   2.629  0.1574  0.3075 -0.5982
17696SOL    HW156493   2.090  10.927   2.565 -1.2068  1.6151  0.2514
17696SOL    HW256494   2.145  10.849   2.683  0.0169  2.0371 -0.0325
17697SOL     OW56495   8.066   9.422   0.805  0.2762 -0.5661 -0.1937
17697SOL    HW156496   8.085   9.434   0.712  1.3285  0.9899  0.1957
17697SOL    HW256497   7.986   9.473   0.820  0.1765 -0.7133 -0.2270
17698SOL     OW56498   2.074  10.937   3.826 -0.5415  0.0844  0.6746
17698SOL    HW156499   2.058  10.898   3.912  0.3926 -0.5820  0.5499
17698SOL    HW256500   1.994  10.920   3.777 -0.6521 -0.5017  1.0555
17699SOL     OW56501   6.186   5.317   2.871 -0.0303  0.3500 -0.3160
17699SOL    HW156502   6.161   5.247   2.931 -1.3046 -1.2775 -2.6455
17699SOL    HW256503   6.145   5.396   2.907 -2.2678 -0.9206  0.0042
17700SOL     OW56504   4.556  10.844   5.251 -0.1197 -0.4245 -0.0924
17700SOL    HW156505   4.534  10.926   5.295  0.7969 -0.4227  0.3731
17700SOL    HW256506   4.633  10.865   5.198  1.0558 -1.3610  1.2193
17701SOL     OW56507   0.896   9.301   1.509  0.0695  0.1923  0.5003
17701SOL    HW156508   0.934   9.380   1.548 -0.3041  0.9492 -0.6607
17701SOL    HW256509   0.831   9.273   1.573  2.2778 -0.9252  2.3549
17702SOL     OW56510   5.676   8.500   5.067 -0.6341  0.0483 -0.2673
17702SOL    HW156511   5.659   8.406   5.057 -0.6584  0.1413 -1.1333
17702SOL    HW256512   5.590   8.541   5.062 -0.4282  0.3141 -2.3259
17703SOL     OW56513   5.248   3.936  10.926 -0.4695 -0.0713 -0.3790
17703SOL    HW156514   5.248   3.884  11.007  0.6818  3.4677  2.0063
17703SOL    HW256515   5.156   3.957  10.911 -0.9456 -2.6752 -1.3566
17704SOL     OW56516   2.188   9.280   9.697 -0.3802  0.0047  0.3113
17704SOL    HW156517   2.216   9.192   9.722 -1.5292 -0.3676  0.3196
17704SOL    HW256518   2.215   9.289   9.606 -1.8465 -1.0487 -0.2482
17705SOL     OW56519   6.327   2.886   7.173 -0.6447 -0.3410  0.2736
17705SOL    HW156520   6.344   2.948   7.243  0.0463  1.3970 -1.3977
17705SOL    HW256521   6.365   2.926   7.095 -0.0033 -2.9508 -0.8171
17706SOL     OW56522  10.325   5.232   1.507 -0.4576 -0.3369  0.2769
17706SOL    HW156523  10.361   5.226   1.596  0.4474 -1.5073 -0.1583
17706SOL    HW256524  10.289   5.320   1.502  1.7986  0.6494  0.9187
17707SOL     OW56525   0.511   7.404   5.945 -0.2114 -0.8166 -0.4065
17707SOL    HW156526   0.512   7.314   5.979 -2.1589 -2.3291 -4.0714
17707SOL    HW256527   0.593   7.412   5.897 -0.9333 -1.3607 -1.7541
17708SOL     OW56528   6.118   0.463   0.345  0.3544  0.1123 -0.3224
17708SOL    HW156529   6.023   0.468   0.338  0.3635 -0.6802 -1.1155
17708SOL    HW256530   6.139   0.517   0.421 -0.7001  0.5294 -0.3152
17709SOL     OW56531   8.975   2.618   9.656  0.0348 -0.0125  0.4973
17709SOL    HW156532   8.964   2.634   9.750 -1.5218  2.7105 -0.0835
17709SOL    HW256533   8.931   2.692   9.614 -1.1537 -2.2638 -2.4258
17710SOL     OW56534   2.532   0.821   9.360  0.4230 -0.2069 -0.8612
17710SOL    HW156535   2.499   0.792   9.445  0.4601 -0.2461 -0.8610
17710SOL    HW256536   2.626   0.803   9.363  1.3187  4.0425  0.8986
17711SOL     OW56537   0.836   4.661   3.692  0.0327 -0.4359  0.4652
17711SOL    HW156538   0.776   4.666   3.617  2.1793  0.8825 -1.2381
17711SOL    HW256539   0.804   4.727   3.753  0.1023  0.7229 -0.7253
17712SOL     OW56540   0.157   2.921   8.279  0.2818  0.3348  0.6854
17712SOL    HW156541   0.133   2.896   8.190  0.2399 -2.4652  1.4403
17712SOL    HW256542   0.090   2.985   8.304 -1.1631 -0.7036 -0.4111
17713SOL     OW56543   6.541   5.194   0.677 -0.0742 -0.5317  0.7307
17713SOL    HW156544   6.533   5.232   0.765 -0.5929  2.3591 -0.5343
17713SOL    HW256545   6.565   5.102   0.693 -0.9720 -0.2684  3.8979
17714SOL     OW56546   7.607   6.068   9.668 -0.0989  0.5631 -0.2853
17714SOL    HW156547   7.695   6.030   9.664 -0.7626 -0.8097 -2.0647
17714SOL    HW256548   7.549   5.993   9.683 -0.8728  1.6190  2.3609
17715SOL     OW56549   6.560   9.490   6.413 -0.0542  0.2115  0.1054
17715SOL    HW156550   6.640   9.458   6.371  0.1189 -0.1734  0.7105
17715SOL    HW256551   6.545   9.428   6.485 -0.7068  0.4798  0.2027
17716SOL     OW56552   6.885   0.185   3.134  0.3644 -0.6928  0.4778
17716SOL    HW156553   6.895   0.125   3.060 -0.9388 -0.6290  0.2369
17716SOL    HW256554   6.798   0.165   3.169 -1.0871  2.6563 -1.0446
17717SOL     OW56555   9.708   7.278   7.307 -0.2750 -0.1326  0.4053
17717SOL    HW156556   9.689   7.184   7.299 -2.5256  0.2873  0.5071
17717SOL    HW256557   9.756   7.285   7.390  1.7348 -1.4159 -0.5893
17718SOL     OW56558   9.745   6.610   7.559 -0.4214 -0.3125 -0.4148
17718SOL    HW156559   9.708   6.522   7.561  0.7958 -0.7996  1.4362
17718SOL    HW256560   9.700   6.658   7.628  0.3491 -0.0655 -0.0800
17719SOL     OW56561   6.105   8.128   8.006  0.4893 -0.0291  0.2179
17719SOL    HW156562   6.109   8.164   7.918  1.2380  1.2318  0.7449
17719SOL    HW256563   6.065   8.198   8.058 -1.5034 -1.3923  0.5694
17720SOL     OW56564   9.355   5.561   7.936 -0.3738 -0.4303  0.2647
17720SOL    HW156565   9.350   5.465   7.932  1.1126 -0.5510  0.9606
17720SOL    HW256566   9.336   5.582   8.027  2.7427 -0.3272  0.9381
17721SOL     OW56567   7.638   3.915   3.243  0.1943 -0.4526 -0.1242
17721SOL    HW156568   7.641   3.830   3.287 -0.7926 -0.2376  0.3666
17721SOL    HW256569   7.611   3.894   3.154  0.5984 -0.7205 -0.1861
17722SOL     OW56570   7.390   6.563   4.172 -0.2573 -0.0531  0.2956
17722SOL    HW156571   7.389   6.652   4.207  0.2309 -0.8420  2.3962
17722SOL    HW256572   7.357   6.509   4.244  0.2903 -1.6736 -0.6530
17723SOL     OW56573   0.796   7.293   3.689  0.1904 -0.0260  0.1579
17723SOL    HW156574   0.864   7.291   3.757  0.3906 -0.0023 -0.0423
17723SOL    HW256575   0.837   7.338   3.615  0.4577 -1.3238 -0.5026
17724SOL     OW56576   1.182  10.834   6.378  0.2274  0.1803 -0.7844
17724SOL    HW156577   1.130  10.842   6.459  0.7910  0.1680 -0.4194
17724SOL    HW256578   1.246  10.905   6.384  2.5605 -1.9195  0.4671
17725SOL     OW56579   6.081   4.123   4.963 -0.4013 -0.4407  0.1892
17725SOL    HW156580   6.111   4.213   4.972 -0.7610 -0.1991 -1.0130
17725SOL    HW256581   5.993   4.123   5.002 -0.6184 -0.1492 -0.2978
17726SOL     OW56582   3.980   1.505   9.213 -0.0397 -0.2570  0.3483
17726SOL    HW156583   3.933   1.524   9.295  0.4423 -0.4781  0.6782
17726SOL    HW256584   3.911   1.488   9.149 -0.3959 -1.8394  1.1313
17727SOL     OW56585   5.690   5.934   4.410  0.5373  0.3271  0.4758
17727SOL    HW156586   5.619   5.962   4.352 -0.2324  0.5982  1.5230
17727SOL    HW256587   5.739   5.869   4.360 -0.2930  0.3449 -0.3633
17728SOL     OW56588   8.436   2.724  10.413  0.5495 -0.5315  0.5182
17728SOL    HW156589   8.382   2.792  10.374  2.0862  0.3953 -0.0350
17728SOL    HW256590   8.479   2.682  10.338  1.9343 -0.1043  1.0646
17729SOL     OW56591   2.083   4.688  10.521 -0.3017 -0.1671  0.5071
17729SOL    HW156592   2.112   4.761  10.466 -1.3590 -0.6298 -0.6953
17729SOL    HW256593   2.159   4.667  10.575  0.6869  0.4483 -0.6314
17730SOL     OW56594   3.886  10.764  10.000 -0.1548 -0.4411 -0.3260
17730SOL    HW156595   3.868  10.678  10.038 -1.4125  1.3578  3.3744
17730SOL    HW256596   3.969  10.791  10.040 -0.4101  0.5975 -0.4793
17731SOL     OW56597   0.694   3.997   4.056 -0.1223  0.1534 -0.5687
17731SOL    HW156598   0.671   4.024   3.967  2.1924  1.3526 -0.8453
17731SOL    HW256599   0.779   4.038   4.072 -0.3606 -0.3107  2.0918
17732SOL     OW56600   5.838   3.270   8.202 -0.0781 -0.1997 -0.0699
17732SOL    HW156601   5.775   3.263   8.273 -0.1717  0.6027 -0.0785
17732SOL    HW256602   5.832   3.185   8.156 -1.3452 -0.0231 -0.2455
17733SOL     OW56603   1.084   4.378   5.569  0.2440 -0.4637 -0.2185
17733SOL    HW156604   1.057   4.331   5.490 -0.9875 -0.8236  0.4159
17733SOL    HW256605   1.081   4.471   5.544 -1.4550 -0.5106 -0.1790
17734SOL     OW56606   2.340   5.421   1.848  0.1271  0.5778  0.6143
17734SOL    HW156607   2.325   5.390   1.937 -3.2675  1.1107  0.2798
17734SOL    HW256608   2.384   5.348   1.805  0.3678 -0.2910  2.2735
17735SOL     OW56609   7.476   1.036  10.482  0.6042  0.2019  0.3114
17735SOL    HW156610   7.445   1.077  10.563 -1.4795  2.4482 -1.5740
17735SOL    HW256611   7.409   0.971  10.461  0.5720  0.4064 -0.2134
17736SOL     OW56612  10.128   7.215   0.504  0.0139 -0.4446  0.7088
17736SOL    HW156613  10.039   7.244   0.484  0.2435  0.8343  1.5227
17736SOL    HW256614  10.157   7.169   0.424 -1.1624 -0.3835  0.2436
17737SOL     OW56615   4.314   4.353   2.700  0.3214  0.6509 -0.0581
17737SOL    HW156616   4.331   4.301   2.779  3.2810  1.8503  0.1665
17737SOL    HW256617   4.241   4.409   2.723 -0.3766 -0.6545  1.0134
17738SOL     OW56618  10.631   5.085   2.310 -0.2957 -0.5910  0.2311
17738SOL    HW156619  10.726   5.092   2.319  0.0774 -2.8933 -1.3988
17738SOL    HW256620  10.597   5.163   2.353  2.3854  0.9568 -0.3439
17739SOL     OW56621   8.801   5.476   6.492  0.5854 -0.3706 -0.3065
17739SOL    HW156622   8.780   5.528   6.569  1.6254  1.3570 -1.1530
17739SOL    HW256623   8.796   5.385   6.522 -2.2061  0.1441  0.9578
17740SOL     OW56624   2.145   4.408   5.123 -0.1179 -0.7517 -0.1754
17740SOL    HW156625   2.083   4.479   5.110  0.7370  0.0219 -0.1260
17740SOL    HW256626   2.092   4.333   5.148 -1.3181 -0.9566 -3.2465
17741SOL     OW56627   3.500   8.752   1.033  0.2751 -0.1354 -0.5049
17741SOL    HW156628   3.567   8.683   1.026 -0.3414 -0.7404 -0.4970
17741SOL    HW256629   3.420   8.711   1.001 -0.3755  0.1896  0.6660
17742SOL     OW56630   6.726   4.773   2.940 -0.1068  0.0389  0.7012
17742SOL    HW156631   6.688   4.858   2.963  0.6898  0.7281 -0.4770
17742SOL    HW256632   6.814   4.794   2.909  0.2146 -1.2603  0.7048
17743SOL     OW56633   0.205   6.023   4.117  0.0597  0.1965 -0.0289
17743SOL    HW156634   0.124   5.994   4.075 -0.2181  0.8649  0.0391
17743SOL    HW256635   0.176   6.085   4.184  0.6262  0.4643 -0.0312
17744SOL     OW56636   6.824   8.239   3.630 -0.2685  0.0822 -0.2655
17744SOL    HW156637   6.820   8.144   3.617 -0.6534  0.4383 -2.9414
17744SOL    HW256638   6.917   8.260   3.628 -0.1523 -0.3095  0.9064
17745SOL     OW56639   5.613   0.445   1.942 -0.6348 -0.6456  0.1222
17745SOL    HW156640   5.663   0.364   1.930 -0.9454 -0.9764  1.0775
17745SOL    HW256641   5.538   0.436   1.883 -0.4945 -0.8976 -0.0186
17746SOL     OW56642   6.534   0.123   8.679 -0.2749 -0.0347  0.2864
17746SOL    HW156643   6.491   0.199   8.716 -1.7596 -0.7496  0.0508
17746SOL    HW256644   6.525   0.132   8.585  0.0476 -0.2156  0.2339
17747SOL     OW56645   3.159   3.316   5.409 -1.0084  0.2303  0.4632
17747SOL    HW156646   3.254   3.308   5.412 -1.1641 -2.5919 -0.6232
17747SOL    HW256647   3.143   3.376   5.336 -0.0972  0.4214  0.4058
17748SOL     OW56648   2.759   7.295   4.841 -0.4425 -0.4254  0.4342
17748SOL    HW156649   2.665   7.283   4.856 -0.4764  1.2528  1.6458
17748SOL    HW256650   2.794   7.321   4.926  0.9249  0.1237 -0.2845
17749SOL     OW56651   7.969   3.229   8.018  0.1214 -0.1321 -0.0804
17749SOL    HW156652   7.931   3.316   8.007 -1.8058 -1.0163 -0.5369
17749SOL    HW256653   7.953   3.208   8.110 -0.9300 -0.6809 -0.3752
17750SOL     OW56654   6.061  10.623   0.794  0.0033 -0.0482 -0.1888
17750SOL    HW156655   5.976  10.664   0.782  0.6163  0.8268 -1.6692
17750SOL    HW256656   6.115  10.656   0.722  0.7973 -2.7329 -0.8922
17751SOL     OW56657   8.419   4.207   3.898  0.4401  0.2824  0.2466
17751SOL    HW156658   8.407   4.279   3.836 -0.4214  0.1269  0.2301
17751SOL    HW256659   8.510   4.215   3.926  0.2828  1.5384  0.4488
17752SOL     OW56660   3.530   1.275   5.647  0.6763  0.0205 -0.0401
17752SOL    HW156661   3.479   1.281   5.566  1.6984 -0.2805 -0.7055
17752SOL    HW256662   3.614   1.315   5.627  1.3649 -1.1122  0.5170
17753SOL     OW56663   7.472   5.416   4.701  0.4223 -0.1346  0.2432
17753SOL    HW156664   7.413   5.341   4.699  1.7137 -1.1755 -0.0110
17753SOL    HW256665   7.491   5.433   4.609 -0.3034  0.8599  0.2784
17754SOL     OW56666   1.459   7.362  10.801  0.7271 -0.0218 -0.2160
17754SOL    HW156667   1.413   7.359  10.885 -0.2291  0.1176 -0.7289
17754SOL    HW256668   1.503   7.277  10.795 -1.5214 -1.1821 -0.8553
17755SOL     OW56669   9.080   5.312   1.081  0.0526  0.1131 -0.3436
17755SOL    HW156670   9.009   5.256   1.111  1.8188 -1.3080  1.2572
17755SOL    HW256671   9.086   5.381   1.147 -0.7884  1.0667 -1.2498
17756SOL     OW56672   6.307   0.869   0.397  0.0729  0.2124  0.1155
17756SOL    HW156673   6.366   0.892   0.469 -0.0041  0.4054  0.1168
17756SOL    HW256674   6.267   0.787   0.424  0.6250 -0.1100 -0.0524
17757SOL     OW56675   6.108  10.104  10.248  0.1049  0.1962  0.4905
17757SOL    HW156676   6.037  10.045  10.222  1.7680 -1.3487 -0.7245
17757SOL    HW256677   6.145  10.135  10.165  3.2117 -1.9548  0.9769
17758SOL     OW56678   6.830   0.137   7.200 -0.1465  0.1388  0.1483
17758SOL    HW156679   6.767   0.115   7.268 -0.0335 -0.6839 -0.0084
17758SOL    HW256680   6.914   0.144   7.247 -0.2904  0.8975  0.3013
17759SOL     OW56681   0.482   4.609   6.678 -0.3489  0.1285 -0.9654
17759SOL    HW156682   0.493   4.574   6.589  0.7441 -2.2739  0.0563
17759SOL    HW256683   0.533   4.549   6.733  0.9637  2.9790  1.0186
17760SOL     OW56684   5.123   2.802   8.383 -0.2104  0.4877  0.1862
17760SOL    HW156685   5.188   2.770   8.447 -0.6282 -2.1564 -0.6345
17760SOL    HW256686   5.052   2.738   8.388 -1.3680  1.6574 -1.1384
17761SOL     OW56687   8.123   9.294   8.278  0.0996  0.2143  0.2774
17761SOL    HW156688   8.035   9.256   8.268 -0.1294  1.0493 -1.0394
17761SOL    HW256689   8.107   9.386   8.297  0.6923  0.9515 -2.6169
17762SOL     OW56690   0.773   8.724   8.775 -0.4826 -0.0170  0.3130
17762SOL    HW156691   0.679   8.731   8.792 -0.2420 -0.1777  1.7754
17762SOL    HW256692   0.805   8.665   8.843  0.8882  1.0285  0.5846
17763SOL     OW56693   1.287  10.727   1.582  0.0188 -0.6314 -0.0561
17763SOL    HW156694   1.366  10.742   1.529  0.3247  0.5939  0.7261
17763SOL    HW256695   1.216  10.759   1.527  0.2905  0.1977  0.0559
17764SOL     OW56696   5.149   9.999   5.797  0.0380 -0.0012  0.7302
17764SOL    HW156697   5.128  10.079   5.846 -0.8769 -1.0988  2.1610
17764SOL    HW256698   5.202   9.948   5.858 -0.0349 -0.8366  0.0937
17765SOL     OW56699   7.557   9.983   6.317  0.3447  0.5414  0.2030
17765SOL    HW156700   7.488  10.045   6.340  0.1645  1.0021 -1.5666
17765SOL    HW256701   7.638  10.034   6.323  0.1521  1.0778 -1.7241
17766SOL     OW56702  10.354   9.131   0.436 -0.5530  0.3351  0.0798
17766SOL    HW156703  10.274   9.094   0.474  0.0010 -1.1216 -0.1716
17766SOL    HW256704  10.410   9.148   0.512 -1.1711  1.5823  0.2803
17767SOL     OW56705   8.823   7.477  10.012  0.3371 -0.1454  0.7663
17767SOL    HW156706   8.737   7.516  10.022  0.2748 -0.6794  2.4872
17767SOL    HW256707   8.838   7.430  10.095  2.6144  0.6093  0.8096
17768SOL     OW56708   7.493   2.591   5.456 -0.1942 -0.2150  0.1020
17768SOL    HW156709   7.520   2.526   5.521  1.8421  0.2843 -0.2085
17768SOL    HW256710   7.538   2.672   5.483  0.4932  0.0462 -1.7913
17769SOL     OW56711   1.319   9.621   6.628 -0.3484  0.3942  0.1323
17769SOL    HW156712   1.414   9.612   6.628 -0.4538 -0.7990 -0.8018
17769SOL    HW256713   1.300   9.680   6.555 -0.4362 -0.7166 -0.7526
17770SOL     OW56714   9.713   1.851   5.702  0.5222  0.3486 -0.1261
17770SOL    HW156715   9.629   1.888   5.674 -0.9269 -1.3048  1.8827
17770SOL    HW256716   9.759   1.925   5.743 -1.3443  0.5617  1.6948
17771SOL     OW56717   9.306   6.492   2.832 -0.2980  0.8566 -0.2543
17771SOL    HW156718   9.371   6.561   2.838 -1.5557  2.1264 -0.8823
17771SOL    HW256719   9.249   6.507   2.908 -0.6886  0.6379 -0.5036
17772SOL     OW56720   5.570   6.826   0.263  0.8511 -0.1669 -0.2721
17772SOL    HW156721   5.559   6.894   0.329  2.5227 -0.7177  0.6068
17772SOL    HW256722   5.634   6.861   0.202  0.2810 -0.1910 -0.8984
17773SOL     OW56723  10.092   6.134   5.087 -0.1163  0.3133 -0.2370
17773SOL    HW156724  10.027   6.159   5.152  0.6134 -1.2561  1.1139
17773SOL    HW256725  10.040   6.112   5.009 -1.1713 -0.4834  0.6761
17774SOL     OW56726   8.314   0.941   2.279  0.5656  0.3254 -0.5491
17774SOL    HW156727   8.335   0.970   2.190 -0.1294 -0.3883 -0.9511
17774SOL    HW256728   8.344   0.851   2.283  1.1028  0.5273  0.1261
17775SOL     OW56729   0.630   6.633   4.945  0.6136 -0.3275 -0.2195
17775SOL    HW156730   0.656   6.652   4.855  0.7078  0.5187 -0.0167
17775SOL    HW256731   0.616   6.538   4.946 -3.3706  0.1377 -2.1401
17776SOL     OW56732   3.138   5.966   7.623 -0.1960 -0.0415  0.0282
17776SOL    HW156733   3.074   6.001   7.685  0.9002 -1.3006  1.9002
17776SOL    HW256734   3.087   5.907   7.567 -0.9292  0.0833  0.5631
17777SOL     OW56735   2.819   0.453   4.639  0.1044 -0.2123 -0.6311
17777SOL    HW156736   2.751   0.464   4.706  0.5426  0.6305 -0.3225
17777SOL    HW256737   2.770   0.453   4.556 -0.7241 -3.9695 -0.1949
17778SOL     OW56738   2.305   5.856   2.049 -0.3396  0.6871 -0.6284
17778SOL    HW156739   2.271   5.902   1.972  0.2643  0.7441 -0.8649
17778SOL    HW256740   2.379   5.910   2.079 -0.4843  0.5902 -0.0941
17779SOL     OW56741   1.170   4.911   1.882 -0.2482  0.0662 -0.2800
17779SOL    HW156742   1.260   4.933   1.904 -0.0235 -0.5790 -0.5729
17779SOL    HW256743   1.119   4.947   1.955  0.1199  1.5388 -0.7286
17780SOL     OW56744   7.610   2.811   6.995 -0.5305  0.3870 -0.6404
17780SOL    HW156745   7.667   2.868   7.046 -3.0014  0.3177  2.4040
17780SOL    HW256746   7.649   2.808   6.908  2.4358  2.6254  0.5402
17781SOL     OW56747   4.775   2.806   6.566 -0.2416  0.4309 -0.1209
17781SOL    HW156748   4.741   2.873   6.507  0.4058  0.7809 -0.0902
17781SOL    HW256749   4.859   2.780   6.527 -0.1809  0.1106  0.2228
17782SOL     OW56750   4.011   6.286   3.726  0.5479  0.3013  0.4278
17782SOL    HW156751   4.066   6.258   3.798 -1.1321 -0.4038  1.4655
17782SOL    HW256752   3.952   6.212   3.710  0.8229  0.4906 -1.5830
17783SOL     OW56753   9.707   9.623   0.185 -0.3811  0.1401 -0.5719
17783SOL    HW156754   9.774   9.560   0.159  1.8942  2.0547  0.4244
17783SOL    HW256755   9.678   9.593   0.271  0.3975  0.2063 -0.2818
17784SOL     OW56756   9.032   5.131   2.951 -0.5981 -0.1578  0.0791
17784SOL    HW156757   9.097   5.079   2.904 -0.8831  0.7287 -1.3295
17784SOL    HW256758   9.036   5.099   3.041  1.3975 -0.4737 -0.1050
17785SOL     OW56759   4.072   5.749   3.296 -0.4492 -0.1757  0.0205
17785SOL    HW156760   3.984   5.765   3.330  0.3441 -0.7262  2.4166
17785SOL    HW256761   4.112   5.836   3.292 -0.2921 -0.1930  1.2293
17786SOL     OW56762   7.840   8.461   1.615 -0.4730  0.3303  0.2026
17786SOL    HW156763   7.825   8.409   1.536 -0.0507  0.1865  0.2185
17786SOL    HW256764   7.873   8.545   1.582  1.8160 -0.5060  0.3373
17787SOL     OW56765   3.922   1.886   3.097 -0.1951  0.1201  0.0622
17787SOL    HW156766   3.961   1.806   3.132  0.9452  0.7610  0.2803
17787SOL    HW256767   3.888   1.932   3.174  1.2696  0.9704  0.2169
17788SOL     OW56768  10.551   5.152   7.866 -0.0568 -0.1120  0.2694
17788SOL    HW156769  10.599   5.176   7.946 -0.4758  1.5868  0.0358
17788SOL    HW256770  10.493   5.227   7.850 -0.0908 -0.5158 -1.5372
17789SOL     OW56771   6.254   9.979   8.659 -0.3006  0.6936  0.6395
17789SOL    HW156772   6.287  10.054   8.610 -0.7852  0.6328  0.2102
17789SOL    HW256773   6.249  10.010   8.749  1.0791  0.6397  0.7342
17790SOL     OW56774   0.284   7.213   7.590 -0.4236  0.0316 -0.8512
17790SOL    HW156775   0.370   7.173   7.604 -1.5310 -1.3604  2.3867
17790SOL    HW256776   0.223   7.139   7.589 -1.9254  1.2389 -0.0398
17791SOL     OW56777   1.316   7.406   4.375 -0.3766  0.4421  0.0929
17791SOL    HW156778   1.273   7.368   4.299  0.6848 -2.0884  0.6952
17791SOL    HW256779   1.361   7.332   4.417  1.4609  2.3015  1.5509
17792SOL     OW56780   2.423  10.452   2.003 -0.1208  0.1904  0.2059
17792SOL    HW156781   2.378  10.498   1.932  0.9781  1.1155  0.0814
17792SOL    HW256782   2.491  10.514   2.032 -0.8383  0.0273  2.3681
17793SOL     OW56783  10.630   9.321   8.328 -0.2472 -0.3681  0.2371
17793SOL    HW156784  10.645   9.240   8.377  0.6635 -0.4333 -0.1453
17793SOL    HW256785  10.688   9.384   8.369  1.7888 -0.8475 -1.8211
17794SOL     OW56786   6.134   8.680   9.061 -0.0314 -0.7895  0.4990
17794SOL    HW156787   6.145   8.654   9.152 -2.0056  1.0268  1.2970
17794SOL    HW256788   6.074   8.615   9.024 -0.2320 -0.8012  0.8457
17795SOL     OW56789   2.654   2.043   3.131  0.3130  0.4921  0.3173
17795SOL    HW156790   2.641   1.952   3.107 -1.8211  0.5800  0.9965
17795SOL    HW256791   2.602   2.092   3.067 -0.5383  1.0800  1.4422
17796SOL     OW56792   3.827   8.048   3.920  0.4080 -0.4511 -0.1847
17796SOL    HW156793   3.799   8.123   3.971  2.3009  0.2434 -0.1362
17796SOL    HW256794   3.789   7.973   3.965 -0.7587  0.3973  0.2650
17797SOL     OW56795   4.538  10.047   1.578 -0.6124  0.6563  0.0367
17797SOL    HW156796   4.457  10.074   1.622 -1.3962 -0.5792 -0.6297
17797SOL    HW256797   4.518   9.961   1.541  1.2179  0.0384  0.4138
17798SOL     OW56798   7.340   6.744   6.588 -0.4637 -0.0304 -0.3678
17798SOL    HW156799   7.397   6.779   6.519 -2.5248 -0.5722 -2.3854
17798SOL    HW256800   7.256   6.729   6.545 -1.7605 -0.5311  2.2389
17799SOL     OW56801  10.706   6.759  10.205  0.1980  0.2017  0.0294
17799SOL    HW156802  10.651   6.682  10.193  0.2115  0.4241 -1.6946
17799SOL    HW256803  10.793   6.724  10.222  0.0853 -0.1742 -0.1487
17800SOL     OW56804   9.846   0.773   9.812  0.1104 -0.2435 -0.0752
17800SOL    HW156805   9.836   0.707   9.743 -0.4064  0.8012 -1.0097
17800SOL    HW256806   9.836   0.723   9.894  1.8591 -1.6891 -0.7076
17801SOL     OW56807   7.899   7.659   1.630 -0.2105  0.4891  0.0225
17801SOL    HW156808   7.978   7.687   1.585 -0.8037  1.5210 -0.3892
17801SOL    HW256809   7.930   7.619   1.712  0.8638 -1.2665 -1.2016
17802SOL     OW56810   2.528   5.404   6.110 -0.3817  0.0786  0.1033
17802SOL    HW156811   2.548   5.356   6.191 -1.0876  0.0724  0.2774
17802SOL    HW256812   2.609   5.451   6.089 -0.3668  0.5252  1.1230
17803SOL     OW56813   5.328   9.087   5.681 -0.1527  0.3235  0.1503
17803SOL    HW156814   5.358   9.113   5.768  0.1071  0.5849 -0.0169
17803SOL    HW256815   5.241   9.127   5.673 -1.3278 -1.9220  1.3371
17804SOL     OW56816   3.309   6.710   9.196 -0.0924 -0.0068 -0.0211
17804SOL    HW156817   3.226   6.709   9.148 -0.5241  1.4436  0.6655
17804SOL    HW256818   3.375   6.690   9.129 -0.7827  0.9739 -1.0245
17805SOL     OW56819   8.523   1.475   7.796  0.2876  0.1238  0.0736
17805SOL    HW156820   8.588   1.486   7.865  2.0392 -0.5342 -1.4244
17805SOL    HW256821   8.552   1.397   7.749 -1.4851 -0.0573 -0.7593
17806SOL     OW56822   1.761   0.524   8.591 -0.1606  0.2846  0.2298
17806SOL    HW156823   1.700   0.588   8.626 -1.3738 -2.5010  3.4268
17806SOL    HW256824   1.848   0.558   8.615 -0.7480  1.0254  1.3253
17807SOL     OW56825   2.245   9.315   9.426 -0.0923  0.2926  0.1883
17807SOL    HW156826   2.288   9.250   9.370  0.7531 -0.4014  1.6210
17807SOL    HW256827   2.178   9.354   9.370  2.3077  1.3245 -2.0413
17808SOL     OW56828   6.699   7.189   2.021  0.3890 -0.3410 -0.8839
17808SOL    HW156829   6.754   7.267   2.033 -0.7018  0.1926  0.8499
17808SOL    HW256830   6.702   7.172   1.926 -0.9540  3.0154 -1.6190
17809SOL     OW56831   8.072   3.624   6.872  0.3519  0.0111 -0.9530
17809SOL    HW156832   8.002   3.675   6.831  1.5111  1.1449 -1.5740
17809SOL    HW256833   8.094   3.674   6.951  0.5440 -0.2654 -0.8346
17810SOL     OW56834   8.424   8.013   4.361 -0.1913  0.2852 -0.2019
17810SOL    HW156835   8.410   7.990   4.269  1.5475  2.8763 -1.1492
17810SOL    HW256836   8.371   8.091   4.375  0.1066  0.3124  0.8309
17811SOL     OW56837   7.982  10.025   0.470  0.1076  0.2257 -0.4706
17811SOL    HW156838   7.946  10.108   0.440 -2.1701 -0.3897  0.4761
17811SOL    HW256839   7.960  10.021   0.563 -0.1985 -1.6490 -0.6007
17812SOL     OW56840   6.009   9.484   8.946  0.0174  0.0055  0.3555
17812SOL    HW156841   5.940   9.540   8.983  0.1676  0.6178 -0.2707
17812SOL    HW256842   6.032   9.527   8.864  3.0791  1.3728  1.8345
17813SOL     OW56843   9.786   9.399   4.753 -0.3603 -0.1968 -0.2473
17813SOL    HW156844   9.861   9.429   4.701 -0.8257  0.7587 -0.3842
17813SOL    HW256845   9.824   9.340   4.818  0.5428  0.4497 -0.1780
17814SOL     OW56846   4.565   7.193   2.607  0.1341 -0.0930  0.2357
17814SOL    HW156847   4.652   7.210   2.570  0.6973  0.2724  1.7085
17814SOL    HW256848   4.582   7.145   2.688 -1.0678 -0.4372  0.2953
17815SOL     OW56849   4.695   8.407   9.446  0.6490 -0.4222 -0.4182
17815SOL    HW156850   4.672   8.487   9.399  2.3254  0.6062  0.4336
17815SOL    HW256851   4.725   8.347   9.378  0.1574 -0.0301 -0.9874
17816SOL     OW56852   7.819   6.574   6.789 -0.6416  0.1913 -0.8794
17816SOL    HW156853   7.869   6.617   6.859  1.6949 -1.8191 -1.2739
17816SOL    HW256854   7.729   6.605   6.803 -0.1940  0.1017  2.8363
17817SOL     OW56855   5.822   2.074   9.989  0.0934 -0.2748  0.1016
17817SOL    HW156856   5.768   2.004   9.953 -2.1378  1.6732 -0.4594
17817SOL    HW256857   5.759   2.138  10.024  2.0042  2.2088 -0.8375
17818SOL     OW56858   1.815   0.417   4.787 -0.0425 -0.1334 -0.4115
17818SOL    HW156859   1.833   0.334   4.832 -1.5663 -0.4010 -0.2830
17818SOL    HW256860   1.723   0.435   4.805  0.3674  1.7678 -0.1801
17819SOL     OW56861   8.308   5.051   6.272  0.4216 -0.3838 -0.2782
17819SOL    HW156862   8.244   5.033   6.340  1.1611  2.5696  1.2531
17819SOL    HW256863   8.259   5.094   6.203  0.3181 -0.3066 -0.1554
17820SOL     OW56864   0.363   8.435   1.089 -0.0491  0.2867 -0.5415
17820SOL    HW156865   0.401   8.395   1.167 -2.5350  1.0511  1.1204
17820SOL    HW256866   0.368   8.366   1.022  0.2061 -1.1169  0.8879
17821SOL     OW56867   2.831   3.823   5.812 -0.2811 -0.2515  0.0947
17821SOL    HW156868   2.784   3.754   5.766 -0.0582  0.1791 -0.7785
17821SOL    HW256869   2.872   3.778   5.886 -0.0613 -1.0821 -0.5221
17822SOL     OW56870   6.664   3.455   6.291 -0.3712 -0.0763  0.6464
17822SOL    HW156871   6.622   3.541   6.288  0.6101  0.4072  0.5596
17822SOL    HW256872   6.592   3.393   6.284 -0.8481  0.7575 -2.2188
17823SOL     OW56873   0.938   7.171  10.362 -0.2674  0.0665  0.5724
17823SOL    HW156874   0.928   7.079  10.386  0.0127  0.7878  3.6678
17823SOL    HW256875   1.022   7.196  10.399 -0.6694  1.7545  0.3758
17824SOL     OW56876   5.321   1.435   9.206  0.3409  0.1017 -0.6867
17824SOL    HW156877   5.381   1.419   9.133 -1.6067 -2.6513 -1.7787
17824SOL    HW256878   5.362   1.391   9.280  0.3123 -0.6735 -1.1228
17825SOL     OW56879   3.345   6.765   8.303  0.1271 -0.1590  0.1042
17825SOL    HW156880   3.433   6.792   8.277  0.4823  0.1604  1.5862
17825SOL    HW256881   3.353   6.671   8.322  0.0904 -0.1800  0.0199
17826SOL     OW56882   1.601   0.536   4.412  0.2776 -0.3165  0.2445
17826SOL    HW156883   1.588   0.444   4.436  0.3213 -0.1214  1.0301
17826SOL    HW256884   1.516   0.578   4.429  0.3404 -0.1494  0.1543
17827SOL     OW56885  10.067   6.532   5.303  0.7769  0.1414 -0.4461
17827SOL    HW156886  10.096   6.450   5.343  0.7290 -0.0023 -0.7015
17827SOL    HW256887  10.147   6.572   5.270  0.7405 -0.0496 -0.7723
17828SOL     OW56888   7.816   4.734   1.765  0.1261  0.2343 -0.3706
17828SOL    HW156889   7.809   4.683   1.685  0.3518 -1.5022  0.6837
17828SOL    HW256890   7.909   4.754   1.773  0.2684 -0.5766  0.0453
17829SOL     OW56891   0.158   6.442   3.831  0.5504  0.0985 -0.4370
17829SOL    HW156892   0.102   6.364   3.824  1.9795 -0.8994 -1.0311
17829SOL    HW256893   0.216   6.436   3.755  1.2696  1.2845  0.0137
17830SOL     OW56894   0.964   9.724  10.458 -0.3237 -0.0180  0.4274
17830SOL    HW156895   1.005   9.796  10.505  0.2323 -1.0096  1.4746
17830SOL    HW256896   1.003   9.727  10.370 -2.1523  2.4950 -0.3593
17831SOL     OW56897   2.751   5.401   9.843 -0.7051 -0.2630  0.3098
17831SOL    HW156898   2.806   5.436   9.773 -0.9338  1.0813  0.7676
17831SOL    HW256899   2.677   5.361   9.799 -0.2167 -0.5522 -0.2518
17832SOL     OW56900   0.803   5.724   4.791  0.2356  0.3099 -0.8817
17832SOL    HW156901   0.710   5.704   4.801  0.7222 -0.6001  2.4095
17832SOL    HW256902   0.847   5.639   4.789  1.3626  0.7237  2.4176
17833SOL     OW56903   1.112   1.406   7.383 -0.3328  0.0321 -0.4258
17833SOL    HW156904   1.164   1.478   7.348 -0.6035  0.2820 -0.3153
17833SOL    HW256905   1.104   1.425   7.476 -2.6330  1.2649 -0.8360
17834SOL     OW56906   4.488   2.239   7.586  0.4523  0.0796  0.2990
17834SOL    HW156907   4.536   2.172   7.635  0.8364  0.8417  0.9909
17834SOL    HW256908   4.506   2.220   7.494  0.2353 -1.0010  0.4799
17835SOL     OW56909   8.831   9.071   2.231  0.2348 -0.8301 -0.1134
17835SOL    HW156910   8.741   9.074   2.199  0.6592  0.8151 -1.2348
17835SOL    HW256911   8.840   8.984   2.269 -1.4315 -1.4892 -1.1661
17836SOL     OW56912   5.933   6.844   5.850 -0.4132 -0.3179  0.4702
17836SOL    HW156913   5.933   6.923   5.796 -2.6960 -1.7593 -1.7628
17836SOL    HW256914   6.007   6.793   5.817  1.3000  0.9716  2.1683
17837SOL     OW56915   1.496   1.871  10.483  0.3251  0.3206 -0.6313
17837SOL    HW156916   1.453   1.864  10.568 -0.3377 -0.0886 -0.9969
17837SOL    HW256917   1.585   1.900  10.503  0.4056 -0.5182  0.2673
17838SOL     OW56918   8.380   3.977   5.945  0.1588 -0.2426  0.3359
17838SOL    HW156919   8.403   3.914   5.877 -1.2284  0.9819 -1.3050
17838SOL    HW256920   8.298   3.943   5.981  1.1237 -1.1306  1.7238
17839SOL     OW56921   5.522   4.966   2.454 -0.3474 -0.0352 -0.1389
17839SOL    HW156922   5.487   5.038   2.507  1.9487 -0.0601  1.4792
17839SOL    HW256923   5.523   4.891   2.512  0.0523 -0.6505 -0.9237
17840SOL     OW56924   8.508   6.307   0.418 -0.3682 -0.5051 -0.0284
17840SOL    HW156925   8.586   6.326   0.470  0.0927  0.9547 -1.1941
17840SOL    HW256926   8.498   6.212   0.423  0.8632 -0.5980  1.0051
17841SOL     OW56927   3.393   5.231   3.664 -0.3642 -0.1563  0.4321
17841SOL    HW156928   3.419   5.222   3.573 -1.4451  0.3030  0.0592
17841SOL    HW256929   3.475   5.243   3.712  0.1313  0.9157 -0.6497
17842SOL     OW56930   0.204   1.249   2.688 -0.1036  0.4707  0.6456
17842SOL    HW156931   0.278   1.189   2.675  0.9150  2.0423 -1.0203
17842SOL    HW256932   0.131   1.207   2.641 -0.2141 -0.9113  2.0042
17843SOL     OW56933   4.972   5.572   9.037  0.1346 -0.5705  0.0866
17843SOL    HW156934   4.915   5.583   8.961 -1.2536 -1.3088  0.9831
17843SOL    HW256935   5.004   5.482   9.030  2.5049  0.3488 -1.2664
17844SOL     OW56936  10.527  10.761   7.349 -0.2042  0.7975  0.0389
17844SOL    HW156937  10.472  10.748   7.272 -1.6491 -1.0045  1.3358
17844SOL    HW256938  10.537  10.856   7.355 -2.0910  1.0922 -0.9590
17845SOL     OW56939   6.570   3.950   6.174  0.1330  0.3253 -0.0322
17845SOL    HW156940   6.628   4.022   6.148  1.6390 -0.7050  0.4306
17845SOL    HW256941   6.518   3.933   6.095 -0.0951  1.7817 -0.2091
17846SOL     OW56942   9.874   1.402   9.580 -0.2372 -0.2014  0.4552
17846SOL    HW156943   9.780   1.404   9.563 -0.3958 -0.9613  1.1991
17846SOL    HW256944   9.909   1.345   9.511 -0.2083  0.7334 -0.3091
17847SOL     OW56945   0.980   7.056   2.961  0.2305  0.6500 -0.2984
17847SOL    HW156946   1.066   7.091   2.936  0.2728  0.7224 -0.0484
17847SOL    HW256947   0.970   6.977   2.908  1.0381 -0.1084  0.6846
17848SOL     OW56948   1.303   8.021   2.706  0.0633 -0.6339  0.1632
17848SOL    HW156949   1.233   7.958   2.725 -0.8803  0.4071  0.2081
17848SOL    HW256950   1.318   8.011   2.612 -2.4618  1.4160 -0.5195
17849SOL     OW56951   6.701   5.890   1.444 -0.4706  0.4879 -0.3562
17849SOL    HW156952   6.780   5.923   1.487  0.7976 -0.8086 -1.6038
17849SOL    HW256953   6.654   5.843   1.512  1.0486 -0.7543 -0.1393
17850SOL     OW56954   9.136   4.588   5.552 -0.3861 -0.2041 -0.3243
17850SOL    HW156955   9.051   4.562   5.586 -0.8167  1.2998 -0.2152
17850SOL    HW256956   9.170   4.650   5.617 -0.2318  0.9737 -1.5098
17851SOL     OW56957   2.313   2.919   6.152  0.4586 -0.0235  0.5376
17851SOL    HW156958   2.322   3.003   6.197 -0.9095 -0.3524  1.4470
17851SOL    HW256959   2.271   2.862   6.216  0.2560 -1.0515 -0.4960
17852SOL     OW56960   0.589   0.372   5.930  0.0995  0.1659 -0.0552
17852SOL    HW156961   0.554   0.360   5.842  0.4935 -1.2809 -0.0275
17852SOL    HW256962   0.645   0.450   5.923  0.6800 -0.3524 -1.2501
17853SOL     OW56963   1.470   9.420   9.475 -0.3974 -0.1139  0.5333
17853SOL    HW156964   1.499   9.467   9.397  1.9357 -0.9519  0.8761
17853SOL    HW256965   1.510   9.467   9.548 -2.1462  0.3472  1.2200
17854SOL     OW56966  10.789  10.401  10.188  0.4709  0.2921 -0.4451
17854SOL    HW156967  10.738  10.323  10.166 -0.1052 -0.1260  2.2098
17854SOL    HW256968  10.845  10.415  10.112 -0.6691 -1.6851 -1.6950
17855SOL     OW56969   1.526   3.001   9.647  0.3179  0.1453 -0.3778
17855SOL    HW156970   1.588   2.949   9.595 -0.7894 -2.2026  0.5710
17855SOL    HW256971   1.444   2.952   9.641 -0.7015  1.7020  0.7330
17856SOL     OW56972   0.459   4.447   9.599  0.2002 -0.0450 -0.3604
17856SOL    HW156973   0.374   4.475   9.634 -0.7580 -2.5343 -0.5587
17856SOL    HW256974   0.523   4.491   9.654 -1.2362  0.6659  0.7947
17857SOL     OW56975   6.932  10.772   9.304  0.0661 -0.4042 -0.0023
17857SOL    HW156976   6.918  10.681   9.331 -1.4152  0.5037  2.4659
17857SOL    HW256977   7.024  10.776   9.278  1.0246 -1.8829  2.9375
17858SOL     OW56978   9.398  10.103   7.950 -0.6008 -0.2291  0.2154
17858SOL    HW156979   9.329  10.168   7.961 -0.5327 -0.1780  0.3619
17858SOL    HW256980   9.479  10.155   7.944 -0.6530 -0.2493 -0.7143
17859SOL     OW56981   8.303   0.302   3.549 -0.3809  0.3554 -0.5034
17859SOL    HW156982   8.357   0.237   3.593  0.0644  0.1993 -1.2680
17859SOL    HW256983   8.237   0.327   3.614  0.6965  0.6591  0.5037
17860SOL     OW56984   3.649   6.003   5.198  0.2515 -0.1735  0.5059
17860SOL    HW156985   3.601   6.084   5.177  2.1805  0.8648 -0.0159
17860SOL    HW256986   3.692   6.022   5.281  3.1133  0.4836 -1.0385
17861SOL     OW56987   2.000  10.290   1.950 -0.7190  0.0206  0.2045
17861SOL    HW156988   2.081  10.239   1.960 -0.3965  0.0072 -2.0163
17861SOL    HW256989   1.931  10.227   1.968 -0.2534 -0.5197  0.1546
17862SOL     OW56990   8.884   7.152   0.368  0.1282 -0.3410  0.3294
17862SOL    HW156991   8.841   7.171   0.284  0.3831  1.4298  0.5802
17862SOL    HW256992   8.821   7.097   0.414 -0.2175 -0.9442 -0.8288
17863SOL     OW56993   3.547   6.818   2.014  0.3044 -0.8299  0.1464
17863SOL    HW156994   3.505   6.805   2.099  0.0135 -1.6705 -0.1144
17863SOL    HW256995   3.534   6.734   1.968 -1.1591  0.2204 -1.4317
17864SOL     OW56996   5.249   0.300   9.644  0.0424  0.2749  0.6442
17864SOL    HW156997   5.186   0.371   9.637 -0.2990 -0.2622 -1.9701
17864SOL    HW256998   5.195   0.221   9.655  0.3861  0.2428  2.2586
17865SOL     OW56999   3.192   2.345   5.321  0.2632  0.2973  0.4274
17865SOL    HW157000   3.179   2.270   5.264 -0.8008  0.5056  0.3815
17865SOL    HW257001   3.249   2.404   5.272 -0.1342  0.1940 -0.1570
17866SOL     OW57002   5.628   8.982   3.632  0.7714  0.6614 -0.5486
17866SOL    HW157003   5.659   9.033   3.557  1.7858  0.1163 -0.5043
17866SOL    HW257004   5.534   9.000   3.636  0.9568  1.8026 -1.0937
17867SOL     OW57005   7.588  10.204   9.503 -0.0935 -0.1176 -0.4437
17867SOL    HW157006   7.535  10.148   9.559  0.8224  0.8958  1.4782
17867SOL    HW257007   7.532  10.280   9.485  0.1961  0.3091  0.4430
17868SOL     OW57008   9.472   5.039   7.940 -0.0428  0.3091 -0.1891
17868SOL    HW157009   9.478   4.982   7.863 -0.3465  0.5500 -0.3962
17868SOL    HW257010   9.437   4.983   8.009  1.9801 -0.4070  0.3032
17869SOL     OW57011   0.751  10.573   0.578 -0.0546  0.1318 -0.4010
17869SOL    HW157012   0.730  10.659   0.615  0.8902  1.2140 -2.2789
17869SOL    HW257013   0.835  10.550   0.619  1.8063  2.0643 -2.9235
17870SOL     OW57014   7.605   2.085   5.023  0.3620  0.0418  0.1683
17870SOL    HW157015   7.571   1.999   5.047  1.5612  0.2419  2.7119
17870SOL    HW257016   7.699   2.071   5.010  0.1258  0.4401 -2.1698
17871SOL     OW57017   5.606   5.988   6.115  0.3823 -0.0165 -0.4207
17871SOL    HW157018   5.644   5.927   6.052  1.2876 -0.5674  0.6518
17871SOL    HW257019   5.667   5.989   6.189 -1.4424 -0.6470  1.1754
17872SOL     OW57020   7.570   9.698   6.783 -0.2899 -0.0040  0.5410
17872SOL    HW157021   7.530   9.717   6.698 -0.3630  1.5333  0.8994
17872SOL    HW257022   7.497   9.698   6.845 -0.3045 -1.5984  0.5588
17873SOL     OW57023   5.262   6.712   6.905  0.3188 -0.3786 -0.3699
17873SOL    HW157024   5.281   6.685   6.995  0.0079  2.4479  0.6019
17873SOL    HW257025   5.346   6.741   6.870 -0.4688  3.8646  0.9845
17874SOL     OW57026   6.238   7.596   9.569  0.4388 -0.0044  0.0200
17874SOL    HW157027   6.173   7.640   9.514 -0.3307 -0.2481  0.7127
17874SOL    HW257028   6.222   7.503   9.557  1.3651 -0.0857 -0.6206
17875SOL     OW57029   7.028   7.926   1.588 -0.2913 -0.2352  0.8699
17875SOL    HW157030   6.972   7.964   1.656  2.8977  2.2896  2.2400
17875SOL    HW257031   7.035   7.995   1.522  1.9315 -0.0886  1.2195
17876SOL     OW57032   8.361   6.221   5.118 -0.0820 -0.0311 -0.1452
17876SOL    HW157033   8.327   6.256   5.036  0.7505 -1.7805 -1.2840
17876SOL    HW257034   8.452   6.197   5.098 -0.4800 -2.3622  0.7048
17877SOL     OW57035   7.045  10.074   7.261 -0.1410  0.2915  0.0516
17877SOL    HW157036   7.139  10.059   7.246 -0.2154 -0.6422  0.4389
17877SOL    HW257037   7.034  10.168   7.254  1.1920  0.6109  2.0136
17878SOL     OW57038   7.403   6.656   7.645 -0.1364 -0.3261 -0.0512
17878SOL    HW157039   7.314   6.672   7.674 -0.2145 -1.4044  0.3533
17878SOL    HW257040   7.424   6.569   7.680  0.8838 -0.3014 -0.5761
17879SOL     OW57041   0.536   7.779   8.091  0.2973 -0.3389 -0.4204
17879SOL    HW157042   0.470   7.803   8.026 -2.2022 -1.2819  1.6964
17879SOL    HW257043   0.538   7.854   8.151  2.0447  0.1945 -1.1022
17880SOL     OW57044   6.471  10.568   4.451 -0.2398  0.9028  0.3053
17880SOL    HW157045   6.516  10.617   4.381  0.5016 -0.9244 -0.5222
17880SOL    HW257046   6.393  10.620   4.469 -0.2750  1.5793 -1.6636
17881SOL     OW57047   2.684   0.946   1.415 -0.2903  0.2235 -0.5724
17881SOL    HW157048   2.659   0.894   1.492 -1.2168 -1.3725 -1.9096
17881SOL    HW257049   2.702   0.881   1.348 -2.5080  1.6472 -2.6181
17882SOL     OW57050  10.141   2.907   3.134 -0.2206 -0.4997  0.3461
17882SOL    HW157051  10.059   2.859   3.128 -1.2824  1.4855 -2.5598
17882SOL    HW257052  10.198   2.864   3.070  0.7433 -1.3455  1.7513
17883SOL     OW57053   5.055   7.561   1.237 -0.0982  0.3467 -0.2140
17883SOL    HW157054   5.003   7.620   1.182 -0.1441 -0.3492 -0.9137
17883SOL    HW257055   5.108   7.511   1.176  0.5993  0.2860  0.4420
17884SOL     OW57056   5.991   5.578   7.619  0.2178  0.3052  0.3430
17884SOL    HW157057   5.970   5.601   7.529  1.5019  1.3999  0.3178
17884SOL    HW257058   5.968   5.655   7.670  0.0296 -0.1029  0.8769
17885SOL     OW57059   9.380  10.097   6.215 -0.1077  0.4018 -0.1693
17885SOL    HW157060   9.360  10.113   6.308 -0.1583  1.4232 -0.3534
17885SOL    HW257061   9.297  10.066   6.179 -0.5423  1.5836 -0.2244
17886SOL     OW57062   8.682  10.584   4.223 -0.2922 -0.1723  0.4616
17886SOL    HW157063   8.591  10.576   4.254 -0.5753 -2.2247 -0.8386
17886SOL    HW257064   8.735  10.563   4.299 -0.9637 -3.1428  0.1490
17887SOL     OW57065   8.490   3.293   9.201 -0.5609  0.0462  0.3810
17887SOL    HW157066   8.462   3.259   9.286  0.6725 -1.3982  0.2145
17887SOL    HW257067   8.435   3.247   9.138  0.9636 -1.5483  0.1705
17888SOL     OW57068   1.859   6.494   8.979  0.2368 -0.3504 -0.4682
17888SOL    HW157069   1.916   6.526   8.910 -0.6413 -1.1320 -1.5870
17888SOL    HW257070   1.907   6.511   9.060 -0.6990  4.9540 -0.8386
17889SOL     OW57071   8.132   2.701   4.788 -0.2968  0.4091  0.2950
17889SOL    HW157072   8.201   2.720   4.852 -2.0206  1.2792  1.9662
17889SOL    HW257073   8.117   2.784   4.743  0.7477 -0.1442 -1.0822
17890SOL     OW57074   8.534   5.454   0.428  0.5691  0.0541  0.2192
17890SOL    HW157075   8.454   5.499   0.455 -0.5170 -0.9102 -1.3062
17890SOL    HW257076   8.587   5.523   0.387  0.7603  0.8004  1.6843
17891SOL     OW57077   1.803   2.705   4.411 -0.4964 -0.6250 -0.5416
17891SOL    HW157078   1.841   2.668   4.491 -2.5823 -1.7076 -0.0008
17891SOL    HW257079   1.778   2.794   4.436  1.2396 -0.0578 -0.7759
17892SOL     OW57080   9.354   5.831   6.411 -0.5743 -0.3218  0.1782
17892SOL    HW157081   9.264   5.805   6.429 -0.2915 -1.4905 -0.0093
17892SOL    HW257082   9.356   5.925   6.426 -0.9060 -0.8345  3.9290
17893SOL     OW57083   6.401   9.074   2.035  0.1032 -0.5437  0.5573
17893SOL    HW157084   6.360   9.136   1.975 -0.2676 -0.1613  1.1961
17893SOL    HW257085   6.450   9.130   2.097 -0.3870 -0.8746  1.2537
17894SOL     OW57086   3.928   4.287  10.024  0.5774 -0.1237  0.1103
17894SOL    HW157087   3.931   4.261   9.932 -1.1773 -1.3677  0.3641
17894SOL    HW257088   3.894   4.376  10.023 -0.2742 -0.4497 -0.4077
17895SOL     OW57089   8.602   1.435   8.101  0.3271 -0.0660 -0.8318
17895SOL    HW157090   8.665   1.506   8.114  0.6794 -0.3883 -0.7747
17895SOL    HW257091   8.647   1.357   8.133 -0.4269 -0.1635  0.0387
17896SOL     OW57092   3.430   2.962   6.591  0.6668 -0.0019 -0.1974
17896SOL    HW157093   3.456   2.870   6.591 -1.0478 -0.4918 -0.9051
17896SOL    HW257094   3.513   3.010   6.582  1.6543 -1.4288  1.0254
17897SOL     OW57095   3.132   6.191   1.665 -0.3109  0.8063  0.4390
17897SOL    HW157096   3.092   6.132   1.729  0.9438 -2.1582 -1.3972
17897SOL    HW257097   3.063   6.208   1.602 -0.6228  1.1706  0.8740
17898SOL     OW57098   1.092   1.487   7.638 -0.8390 -0.0300 -0.1863
17898SOL    HW157099   1.090   1.581   7.659  1.2841  0.4008 -1.7599
17898SOL    HW257100   1.164   1.452   7.690  0.2596 -0.2062 -1.7951
17899SOL     OW57101   3.006   3.122   6.011  0.1834 -0.1847  0.4390
17899SOL    HW157102   2.947   3.062   6.057  0.9848 -1.2219  0.1255
17899SOL    HW257103   3.092   3.079   6.015  0.6540  0.6769 -0.2831
17900SOL     OW57104   4.381   0.909   9.016  0.3341 -0.4556 -0.3810
17900SOL    HW157105   4.421   0.970   8.954 -0.2405  0.7389  0.4017
17900SOL    HW257106   4.437   0.913   9.094 -0.0137 -0.5166 -0.1267
17901SOL     OW57107   9.996   9.074   4.783  0.1136  0.3081  0.0826
17901SOL    HW157108  10.013   8.981   4.767  0.0532  0.1877  0.6730
17901SOL    HW257109  10.082   9.116   4.776  0.3190  0.0344  0.9162
17902SOL     OW57110   1.918  10.190   3.263  0.0355  0.4427 -0.8430
17902SOL    HW157111   1.952  10.112   3.306  0.3438  1.0705  0.0855
17902SOL    HW257112   1.950  10.185   3.173  0.2037 -0.3973 -0.7351
17903SOL     OW57113  10.161   9.067   5.113  0.3077  0.1406  0.4198
17903SOL    HW157114  10.215   9.019   5.049  0.1399  1.6969 -0.9365
17903SOL    HW257115  10.201   9.154   5.116 -2.2380  1.3932 -0.7647
17904SOL     OW57116   9.570   1.931   4.669  0.1922  0.2063 -0.2933
17904SOL    HW157117   9.569   1.835   4.662  0.4831  0.2007 -0.2471
17904SOL    HW257118   9.477   1.955   4.676  0.2147 -0.2114  1.7990
17905SOL     OW57119   7.697   9.807  10.803 -0.0214 -0.5336 -0.1064
17905SOL    HW157120   7.734   9.738  10.747 -2.0875 -2.5911  0.9389
17905SOL    HW257121   7.638   9.855  10.745  0.8391 -0.1362 -0.6600
17906SOL     OW57122   2.909   4.990   6.935 -0.0671 -0.1626 -0.4623
17906SOL    HW157123   2.996   5.023   6.960 -0.5154 -0.4537  1.6065
17906SOL    HW257124   2.924   4.898   6.913  0.0160 -0.5048  0.9319
17907SOL     OW57125   6.182   5.278  10.712  0.6290  0.5410 -0.4050
17907SOL    HW157126   6.116   5.321  10.767  0.5066  0.5514 -0.5616
17907SOL    HW257127   6.263   5.285  10.762  0.2422 -0.7028  0.4277
17908SOL     OW57128   7.378   2.136   5.716 -0.3009 -0.0570  0.4254
17908SOL    HW157129   7.462   2.089   5.712 -0.8945 -0.9902 -1.5209
17908SOL    HW257130   7.318   2.072   5.755 -0.4475  0.0927  0.4418
17909SOL     OW57131   4.374   6.424   5.207  0.0220  0.7209  0.1016
17909SOL    HW157132   4.388   6.431   5.113  0.0914 -0.9494 -0.0240
17909SOL    HW257133   4.352   6.332   5.222 -0.0910  0.9854  1.7027
17910SOL     OW57134   2.728   1.675   7.303  0.0994  0.2602 -0.6207
17910SOL    HW157135   2.760   1.683   7.393 -1.4848  3.0615 -0.2294
17910SOL    HW257136   2.793   1.720   7.250  0.0878  0.2709 -0.6264
17911SOL     OW57137   7.818   2.846   8.549  0.1278  0.0031 -0.0470
17911SOL    HW157138   7.744   2.816   8.602  1.2577 -3.2582 -0.2241
17911SOL    HW257139   7.894   2.837   8.606  1.0005 -1.1606 -1.3493
17912SOL     OW57140   0.689   5.937   7.765  0.9303  0.3282  0.4061
17912SOL    HW157141   0.615   5.960   7.821 -0.8266 -0.7495 -1.3874
17912SOL    HW257142   0.766   5.963   7.815 -0.6196  0.7376  2.6767
17913SOL     OW57143   5.415   3.824   7.959 -0.1725  0.6350 -0.1980
17913SOL    HW157144   5.482   3.840   7.892  0.0871 -0.2974 -0.1611
17913SOL    HW257145   5.445   3.746   8.005 -0.5548  1.0336  0.7552
17914SOL     OW57146   0.260   2.813   3.198  0.1557 -0.8390 -0.2027
17914SOL    HW157147   0.264   2.753   3.273  0.7964 -0.0755  0.3903
17914SOL    HW257148   0.195   2.775   3.140 -0.8187 -1.1098  1.0446
17915SOL     OW57149   0.524   7.929   0.182  0.6984 -0.0961 -0.5202
17915SOL    HW157150   0.503   7.871   0.256  2.8475 -0.4065 -0.1316
17915SOL    HW257151   0.557   8.009   0.223 -1.4419  1.1158 -1.0870
17916SOL     OW57152   5.430   8.809  10.492  0.2122  0.1971 -0.1494
17916SOL    HW157153   5.515   8.836  10.528  1.1459 -0.9933 -1.3658
17916SOL    HW257154   5.416   8.868  10.418  0.6587 -0.4889 -0.7906
17917SOL     OW57155   1.063   0.164   8.004  0.3852 -0.2168 -0.3634
17917SOL    HW157156   1.137   0.106   7.986 -0.3072 -1.1768 -0.1435
17917SOL    HW257157   1.007   0.114   8.064  0.3105  1.0865  0.6783
17918SOL     OW57158   7.365  10.260   7.100 -0.5264 -0.3044 -0.5514
17918SOL    HW157159   7.423  10.290   7.030  0.9852 -0.2751  0.6814
17918SOL    HW257160   7.376  10.164   7.100  1.9141 -0.0742  1.6735
17919SOL     OW57161   0.307   3.352   7.520  0.5376 -0.1863 -0.1423
17919SOL    HW157162   0.362   3.296   7.465  0.9181  0.4965 -0.4594
17919SOL    HW257163   0.258   3.290   7.575  0.0673 -0.8812 -1.3159
17920SOL     OW57164   9.305   2.967   2.317  0.1347  0.2758  0.3162
17920SOL    HW157165   9.338   3.028   2.252 -0.1463  0.2876  0.1827
17920SOL    HW257166   9.265   3.023   2.384 -3.2460  0.1872 -1.4744
17921SOL     OW57167   6.651   8.262   7.722 -0.1516 -0.1713 -0.0273
17921SOL    HW157168   6.677   8.287   7.633 -0.2230 -0.6591 -0.1883
17921SOL    HW257169   6.576   8.205   7.709 -0.0037 -0.4478  0.3363
17922SOL     OW57170   0.957   8.240   5.239 -0.1783  0.3104 -0.8182
17922SOL    HW157171   0.917   8.246   5.326  1.5081  1.2293 -0.0603
17922SOL    HW257172   0.884   8.248   5.178 -1.0711  3.0723  0.4978
17923SOL     OW57173   1.792   4.902   9.142  0.2224 -0.8826 -0.0047
17923SOL    HW157174   1.861   4.869   9.199  0.1977 -0.1993  0.4296
17923SOL    HW257175   1.819   4.878   9.054  1.4344  0.1073  0.0828
17924SOL     OW57176   0.031   5.880   3.550  0.2293  0.0872  0.3867
17924SOL    HW157177   0.014   5.967   3.513 -0.2314  0.0278  0.4594
17924SOL    HW257178  -0.056   5.844   3.568  0.4429  0.4532  2.2888
17925SOL     OW57179   1.932   1.749   5.383 -0.2856 -0.6280 -0.4608
17925SOL    HW157180   1.847   1.706   5.393 -0.1404 -1.3735 -2.3216
17925SOL    HW257181   1.935   1.777   5.291  0.4750  1.5517  0.1846
17926SOL     OW57182   9.799   6.393   0.720 -0.4358  0.0786  0.4086
17926SOL    HW157183   9.708   6.423   0.718 -0.2037  0.7645 -0.0141
17926SOL    HW257184   9.851   6.473   0.709  0.2102 -0.3455  0.3334
17927SOL     OW57185   9.822   1.748   0.860 -0.5054  0.2530 -0.3290
17927SOL    HW157186   9.844   1.675   0.917 -0.8288  1.5453  1.4823
17927SOL    HW257187   9.766   1.805   0.913  2.7079  3.6566 -0.3591
17928SOL     OW57188   6.090   0.911   5.014  0.1476 -0.3094 -0.1862
17928SOL    HW157189   6.088   0.838   4.951  1.5412 -2.1649  1.8407
17928SOL    HW257190   6.046   0.983   4.968 -1.7359 -2.5475 -2.0840
17929SOL     OW57191   5.966   2.481   8.794 -0.9043 -0.3677 -0.3729
17929SOL    HW157192   5.883   2.516   8.826 -0.8431  0.7565 -1.4114
17929SOL    HW257193   6.032   2.519   8.853 -0.7295  2.2128 -2.1432
17930SOL     OW57194   5.508   3.482   1.859  0.3590 -0.1387 -0.4942
17930SOL    HW157195   5.600   3.463   1.844 -0.0545 -0.9222 -2.1659
17930SOL    HW257196   5.501   3.577   1.854  1.1856 -0.0326  0.3430
17931SOL     OW57197   8.594   7.467   2.638  0.3655 -0.0063 -0.0953
17931SOL    HW157198   8.585   7.556   2.606 -1.9362 -0.6617 -1.3705
17931SOL    HW257199   8.619   7.416   2.561 -0.6056 -0.8320  0.1291
17932SOL     OW57200   8.185   4.594   2.710  0.2866  0.6329 -0.1757
17932SOL    HW157201   8.154   4.644   2.785 -1.2314  1.2271 -1.1848
17932SOL    HW257202   8.148   4.507   2.722  0.8413  0.4502  0.2545
17933SOL     OW57203   6.218   2.770   3.626 -0.2553  0.6296 -0.1931
17933SOL    HW157204   6.127   2.752   3.652  0.0502 -1.2606 -0.3953
17933SOL    HW257205   6.264   2.687   3.639  1.2827  1.3620 -0.8318
17934SOL     OW57206   0.436   5.852   3.025  0.0546 -0.1395 -0.5217
17934SOL    HW157207   0.431   5.825   3.116 -1.1434 -2.7956 -1.3403
17934SOL    HW257208   0.382   5.932   3.021  1.0359  0.6448  1.2803
17935SOL     OW57209   3.140   0.185  10.891  0.3244 -0.0286 -0.3735
17935SOL    HW157210   3.193   0.135  10.829 -1.3263 -1.2454 -0.8434
17935SOL    HW257211   3.089   0.119  10.937  0.5641  0.9755  1.3873
17936SOL     OW57212   0.431   9.015   1.744  0.5400 -0.0726  0.3922
17936SOL    HW157213   0.434   9.046   1.834  0.6742  1.1094 -0.0024
17936SOL    HW257214   0.387   8.930   1.748 -0.5552  0.5376  1.4147
17937SOL     OW57215   4.226   4.305   5.499 -0.9146 -0.2951  0.0155
17937SOL    HW157216   4.174   4.286   5.421 -0.2161  0.3465 -0.6156
17937SOL    HW257217   4.165   4.351   5.558 -0.3403  3.0791 -1.8774
17938SOL     OW57218  10.619   5.911   2.401  0.2647  0.1553  0.0607
17938SOL    HW157219  10.642   6.004   2.412  0.0793  0.1286  0.6717
17938SOL    HW257220  10.668   5.884   2.324  1.4899  0.3691  0.7622
17939SOL     OW57221   1.006   1.339   4.398 -0.0547 -0.6518 -0.8109
17939SOL    HW157222   1.042   1.257   4.432 -1.7898 -1.9057 -1.9298
17939SOL    HW257223   0.957   1.377   4.471  1.3646 -0.1946 -0.0620
17940SOL     OW57224   1.872   5.415   4.687 -0.0664 -0.1970  0.0351
17940SOL    HW157225   1.899   5.439   4.598 -0.6954 -0.2897 -0.1826
17940SOL    HW257226   1.798   5.473   4.706  0.8883  0.7173  0.9959
17941SOL     OW57227  10.659   5.539   5.070  0.1950 -0.2390  0.2639
17941SOL    HW157228  10.655   5.479   5.144  1.0605  0.7097  1.0918
17941SOL    HW257229  10.752   5.558   5.060 -0.0902  1.0556  0.0831
17942SOL     OW57230   4.746  10.843   2.093  0.2278  0.6000  0.3334
17942SOL    HW157231   4.813  10.775   2.089  0.3886  0.7475  0.5023
17942SOL    HW257232   4.715  10.841   2.183 -0.9550 -0.3876 -0.0776
17943SOL     OW57233   1.836   9.016   6.802  0.4161 -0.1460 -0.7014
17943SOL    HW157234   1.834   8.921   6.809 -0.3802 -0.0130  1.0512
17943SOL    HW257235   1.762   9.037   6.745  0.3073 -0.5323 -0.7049
17944SOL     OW57236   7.870   7.062   0.400  0.5021 -0.4990 -0.2081
17944SOL    HW157237   7.836   7.112   0.473  0.8472 -1.2025  0.4383
17944SOL    HW257238   7.806   6.992   0.386  0.4607 -0.3952 -0.5468
17945SOL     OW57239   2.424   4.969   9.713  0.1104 -0.0943  0.1393
17945SOL    HW157240   2.390   4.914   9.642  0.0276  1.0935 -0.7479
17945SOL    HW257241   2.359   4.961   9.783  0.4069 -1.6112  0.2735
17946SOL     OW57242   1.101  10.620   2.943 -0.2775 -0.3194  0.2137
17946SOL    HW157243   1.094  10.529   2.972 -0.4068 -0.5939 -0.6674
17946SOL    HW257244   1.084  10.617   2.849  1.8342  0.3245 -0.2227
17947SOL     OW57245   6.220   1.761   4.342 -0.2840 -0.0651  0.2915
17947SOL    HW157246   6.155   1.799   4.282 -0.4852 -0.5005  0.2302
17947SOL    HW257247   6.264   1.694   4.290  1.2975  1.3084 -0.1433
17948SOL     OW57248   1.482   7.429   2.855  0.6086 -0.2524  0.2214
17948SOL    HW157249   1.566   7.402   2.819 -0.4442 -2.4362 -0.6618
17948SOL    HW257250   1.418   7.371   2.814 -1.5142  2.2240 -0.1407
17949SOL     OW57251   9.588   6.257   0.184 -0.1902 -0.1854 -0.3728
17949SOL    HW157252   9.681   6.244   0.164  0.0381 -0.1149  0.5962
17949SOL    HW257253   9.576   6.352   0.176  0.1585 -0.0227  0.8302
17950SOL     OW57254   4.876   1.573   2.767  0.1870 -0.4432  0.6174
17950SOL    HW157255   4.878   1.537   2.678 -1.0414 -2.0290  1.2050
17950SOL    HW257256   4.787   1.556   2.797  0.7092 -0.2674  2.3039
17951SOL     OW57257   0.470   0.997   1.268 -0.5888  0.4245  0.3022
17951SOL    HW157258   0.503   0.908   1.266  1.3579  1.1031  1.1329
17951SOL    HW257259   0.453   1.019   1.176  1.4970  0.1169 -0.1847
17952SOL     OW57260   2.376   5.223   9.196  0.4284  0.4938 -0.5875
17952SOL    HW157261   2.368   5.202   9.103  1.3712  1.1443 -0.8214
17952SOL    HW257262   2.416   5.309   9.198  1.0923  0.1728  0.4343
17953SOL     OW57263  10.107   1.208   8.215 -0.1108  0.4535  0.1481
17953SOL    HW157264  10.136   1.299   8.218 -0.2181  0.5321 -1.1970
17953SOL    HW257265  10.105   1.185   8.122  1.4196 -1.4158  0.5484
17954SOL     OW57266   2.717   7.665  10.124 -0.0988 -0.4558 -0.1555
17954SOL    HW157267   2.624   7.687  10.126  0.0832  0.2806  0.2294
17954SOL    HW257268   2.728   7.603  10.196 -0.2758 -0.4952 -0.1607
17955SOL     OW57269  10.355   5.778  10.954 -0.6649 -0.0429  0.6629
17955SOL    HW157270  10.339   5.721  11.029  0.1780  1.2930  1.8890
17955SOL    HW257271  10.280   5.837  10.953 -0.9195 -0.3750  0.1502
17956SOL     OW57272   4.488  10.456   3.399  0.0253 -0.5138 -0.3005
17956SOL    HW157273   4.410  10.405   3.423 -0.3448  0.7249  1.1923
17956SOL    HW257274   4.453  10.538   3.365  0.6577 -0.5546 -1.0511
17957SOL     OW57275   4.199   3.998   6.973 -0.2652 -0.6982  0.1519
17957SOL    HW157276   4.176   3.906   6.958 -1.9126 -0.4903  1.2228
17957SOL    HW257277   4.197   4.007   7.069 -1.6217  0.7975 -0.0001
17958SOL     OW57278   3.552   9.846   9.897 -0.6944  0.5302  0.0987
17958SOL    HW157279   3.540   9.782   9.968 -1.5452  0.2779 -0.2606
17958SOL    HW257280   3.644   9.838   9.874 -0.4933  0.3498  0.9255
17959SOL     OW57281   0.053   7.872   8.435 -0.6262 -0.0550 -0.1219
17959SOL    HW157282  -0.006   7.870   8.360 -0.8295 -1.4844  0.0452
17959SOL    HW257283   0.139   7.848   8.399 -0.7898 -1.0703  0.1436
17960SOL     OW57284   0.740   5.034   7.266  0.7848  0.6148  0.8875
17960SOL    HW157285   0.823   5.021   7.313  1.2240  2.1288  0.5642
17960SOL    HW257286   0.763   5.024   7.173  0.2351 -0.7785  0.8926
17961SOL     OW57287   9.334   7.190   0.273 -0.0932 -0.2318  0.1546
17961SOL    HW157288   9.294   7.113   0.233  1.0878 -0.7832  0.0420
17961SOL    HW257289   9.427   7.171   0.277  0.2512  1.2879 -0.1033
17962SOL     OW57290   1.803   2.063   9.472 -0.4110  0.1531  1.1448
17962SOL    HW157291   1.833   2.117   9.546 -2.2316  0.9174  1.3643
17962SOL    HW257292   1.711   2.087   9.461 -0.0257  0.5027 -1.7814
17963SOL     OW57293   4.924   1.360   1.581 -0.4144  0.3223  0.6267
17963SOL    HW157294   4.939   1.272   1.617 -0.4521  1.1271  2.6755
17963SOL    HW257295   5.006   1.381   1.536 -0.9860 -1.3883 -1.3057
17964SOL     OW57296  10.961   0.480   3.458 -0.4086  0.4994  0.0649
17964SOL    HW157297  10.895   0.451   3.395 -0.9889 -2.1131  1.7649
17964SOL    HW257298  11.033   0.419   3.447  0.4059  1.3888  0.4069
17965SOL     OW57299   6.154   4.672   4.468 -0.0087  0.6432  0.8827
17965SOL    HW157300   6.072   4.721   4.470 -0.4131 -0.0292  0.9490
17965SOL    HW257301   6.138   4.600   4.407  0.8680  1.0881  0.1097
17966SOL     OW57302   5.299   5.494   7.002 -0.3989  0.2118  0.2183
17966SOL    HW157303   5.299   5.495   7.098  0.1480  0.5883  0.2189
17966SOL    HW257304   5.380   5.538   6.978 -0.3665 -0.1911 -0.4172
17967SOL     OW57305   8.660  10.650   1.379  0.1621  0.4499  0.3558
17967SOL    HW157306   8.617  10.576   1.421  0.1695 -1.3142 -2.5985
17967SOL    HW257307   8.592  10.717   1.374 -0.9921 -0.7622 -0.4032
17968SOL     OW57308   1.569   4.483   9.899 -0.6346 -0.1282  0.3698
17968SOL    HW157309   1.487   4.464   9.945 -0.9131 -1.8238 -0.7830
17968SOL    HW257310   1.568   4.424   9.823  1.9329 -0.5755  0.6469
17969SOL     OW57311   9.558   3.867   1.764  0.0294  0.2189 -0.9592
17969SOL    HW157312   9.588   3.908   1.683 -0.5621  0.2170 -1.1847
17969SOL    HW257313   9.488   3.925   1.796 -1.0200 -0.7659 -1.4353
17970SOL     OW57314   9.983   3.831   1.515 -0.7502  0.3225  0.0004
17970SOL    HW157315   9.958   3.777   1.590 -1.8238 -0.7104 -1.0732
17970SOL    HW257316   9.912   3.895   1.508 -0.0044  1.2274  0.6375
17971SOL     OW57317   1.806   5.017   5.062 -0.3282 -0.1843  0.1444
17971SOL    HW157318   1.780   5.004   4.971 -0.1946 -2.3319  0.4082
17971SOL    HW257319   1.730   4.990   5.113 -0.6613  1.6643  0.6979
17972SOL     OW57320   9.525  10.143   9.015  0.1807 -0.0885 -0.0081
17972SOL    HW157321   9.515  10.235   8.990 -1.1242 -0.1840  0.1436
17972SOL    HW257322   9.455  10.098   8.968  0.1015 -0.8295  0.8103
17973SOL     OW57323   5.196   6.306   5.789  0.1078 -0.4564  0.1586
17973SOL    HW157324   5.206   6.212   5.773 -2.1084 -0.7614  0.3695
17973SOL    HW257325   5.206   6.316   5.883 -2.3640 -0.9104  0.5098
17974SOL     OW57326   6.558   1.756   3.098  0.3105 -0.7676 -0.0367
17974SOL    HW157327   6.468   1.730   3.078  0.5116 -0.9585 -0.7295
17974SOL    HW257328   6.588   1.801   3.018  0.7358 -0.4654  0.2898
17975SOL     OW57329   6.096   9.306   0.948  1.0711 -0.3796  0.2589
17975SOL    HW157330   6.004   9.322   0.968  0.9533 -0.3913 -0.2608
17975SOL    HW257331   6.103   9.211   0.940  1.4044 -0.4722  1.6045
17976SOL     OW57332   7.092   6.571   4.261 -0.1312  0.2891  0.5514
17976SOL    HW157333   7.068   6.506   4.195  3.5568 -0.8910  0.2646
17976SOL    HW257334   7.108   6.651   4.211 -0.8318  0.3645  0.4441
17977SOL     OW57335   1.484   0.657   6.990 -0.0979  0.1698  0.1893
17977SOL    HW157336   1.544   0.640   7.062 -1.6815 -0.2776  1.4247
17977SOL    HW257337   1.403   0.687   7.032 -1.7077 -1.9812 -1.2773
17978SOL     OW57338  10.890   3.338   3.325  1.0611  0.0616 -0.0900
17978SOL    HW157339  10.852   3.377   3.247 -0.6560  0.7514  1.0703
17978SOL    HW257340  10.906   3.247   3.300  0.7653  0.3312 -1.3167
17979SOL     OW57341   8.780  10.156   8.085  0.3152  0.2765  0.5444
17979SOL    HW157342   8.694  10.198   8.082 -0.5386 -1.4497 -0.0508
17979SOL    HW257343   8.841  10.228   8.103 -1.1746  1.6232  0.3850
17980SOL     OW57344   5.001   0.572   8.939 -0.0358 -0.7291 -0.2037
17980SOL    HW157345   5.039   0.484   8.938  0.0700 -0.6808 -0.5324
17980SOL    HW257346   4.970   0.584   9.029  1.8767 -0.2739  0.4306
17981SOL     OW57347   7.182   1.579   3.898  0.0491  0.3928 -0.1771
17981SOL    HW157348   7.204   1.649   3.837  2.8986  0.7469  1.1555
17981SOL    HW257349   7.253   1.515   3.889 -0.2134 -0.2105  1.6921
17982SOL     OW57350   9.308   0.854   3.229 -0.2195 -0.7048  0.3058
17982SOL    HW157351   9.257   0.916   3.176  0.6203 -0.9424 -0.8068
17982SOL    HW257352   9.242   0.802   3.275 -0.9306  1.0289  1.2761
17983SOL     OW57353   1.074  10.756   3.495  0.1625 -0.1548 -0.1503
17983SOL    HW157354   1.126  10.830   3.466 -0.3007  0.7453  1.2606
17983SOL    HW257355   1.077  10.694   3.422  1.8038  0.6003 -0.7500
17984SOL     OW57356   0.805   9.434   9.485 -0.3175 -0.0675  0.6385
17984SOL    HW157357   0.757   9.507   9.523 -1.2374 -0.5118  0.3294
17984SOL    HW257358   0.764   9.356   9.522 -1.2329 -0.5109 -1.2838
17985SOL     OW57359   2.404   1.780   4.064  0.1719 -0.5785 -0.4292
17985SOL    HW157360   2.499   1.791   4.063  0.2706 -1.2876 -3.1281
17985SOL    HW257361   2.381   1.774   4.157  2.7780 -0.6832  0.2401
17986SOL     OW57362   0.802   2.112   6.550  0.2448  0.2022  0.0814
17986SOL    HW157363   0.851   2.056   6.610  1.0885  0.0106 -0.7704
17986SOL    HW257364   0.715   2.121   6.589  0.2864 -1.2379  0.5034
17987SOL     OW57365  10.308   7.681   8.697  0.2605 -0.0919  0.2803
17987SOL    HW157366  10.270   7.713   8.779 -0.5919  0.8390 -0.4739
17987SOL    HW257367  10.243   7.621   8.662 -0.3012  1.1165 -0.7622
17988SOL     OW57368   4.968   0.717   5.746 -0.2886  0.6422 -0.0607
17988SOL    HW157369   4.983   0.799   5.792  0.6033  0.5692 -0.2002
17988SOL    HW257370   5.056   0.680   5.735 -0.9070 -2.0256  3.1270
17989SOL     OW57371   2.933  10.770   4.473 -0.2739  0.5099 -0.2792
17989SOL    HW157372   2.864  10.829   4.444 -1.7695 -0.7152  0.7287
17989SOL    HW257373   2.888  10.689   4.496  1.3352  0.0904  1.5740
17990SOL     OW57374   9.056   4.676   8.645  0.3021 -0.2797  0.1086
17990SOL    HW157375   9.085   4.678   8.736 -0.0338  0.5327  0.2011
17990SOL    HW257376   8.984   4.614   8.643  1.5745 -1.7864  0.0165
17991SOL     OW57377   0.839   3.190   3.063 -0.1382  0.3674 -0.2838
17991SOL    HW157378   0.851   3.274   3.108  1.1545 -1.4712  2.9195
17991SOL    HW257379   0.755   3.200   3.017 -0.1842  3.2739  0.3154
17992SOL     OW57380   3.755   0.687  10.621 -0.3779  0.2317  0.2985
17992SOL    HW157381   3.685   0.622  10.623 -0.5606  0.4299  0.2427
17992SOL    HW257382   3.764   0.717  10.711 -0.2097  0.0402  0.3482
17993SOL     OW57383   8.297   6.452   0.359  0.1151 -0.2200 -0.0295
17993SOL    HW157384   8.386   6.420   0.373 -0.4326 -1.2854  1.1432
17993SOL    HW257385   8.296   6.539   0.398 -0.3003 -1.5944  3.1640
17994SOL     OW57386   0.055   6.027   1.668 -0.5047 -0.3759 -1.2573
17994SOL    HW157387   0.087   6.103   1.715 -1.3067 -1.3920  1.0431
17994SOL    HW257388   0.126   6.003   1.609  0.9490  0.3803  0.1386
17995SOL     OW57389   3.817   2.702   8.466  0.0402 -0.0994  0.1288
17995SOL    HW157390   3.895   2.719   8.414 -1.8509  1.4048 -2.3648
17995SOL    HW257391   3.792   2.612   8.444  0.2017 -0.0478 -0.2620
17996SOL     OW57392   8.382   7.856   6.235 -0.1239 -0.3006 -0.1393
17996SOL    HW157393   8.308   7.884   6.180 -0.2519 -4.0197 -2.0227
17996SOL    HW257394   8.459   7.897   6.194 -0.6785  0.3286 -0.5798
17997SOL     OW57395   8.522   7.991   6.605  0.7250 -0.2042  0.4505
17997SOL    HW157396   8.544   8.056   6.539 -0.1960  1.2533  1.5420
17997SOL    HW257397   8.436   7.958   6.579  0.3568  0.3792  0.9265
17998SOL     OW57398   1.847   8.832   6.409 -0.2143  0.0337  0.1927
17998SOL    HW157399   1.817   8.808   6.496 -0.6543  0.2102  0.0916
17998SOL    HW257400   1.942   8.816   6.410 -0.4663 -1.5149  0.1852
17999SOL     OW57401   2.422   9.491   5.881  0.6802  0.1070 -0.1174
17999SOL    HW157402   2.481   9.566   5.886 -0.1762  0.7815  0.0828
17999SOL    HW257403   2.388   9.493   5.792  0.2846  0.2524  0.0347
18000SOL     OW57404   6.947   4.418   1.360  0.7289 -0.1742 -0.3162
18000SOL    HW157405   6.861   4.419   1.318  0.5521 -0.1478  0.0418
18000SOL    HW257406   6.930   4.386   1.449  0.7544  2.0256  0.5047
18001SOL     OW57407   2.124   7.569  10.413 -0.5138 -0.3050 -0.3396
18001SOL    HW157408   2.103   7.641  10.353  1.6430 -1.0939 -2.1197
18001SOL    HW257409   2.066   7.498  10.386  0.4634 -0.6640 -1.5411
18002SOL     OW57410  10.097  10.432   7.275  0.4216 -0.3636  0.6985
18002SOL    HW157411  10.094  10.483   7.356 -0.6030  1.2237 -0.3091
18002SOL    HW257412  10.026  10.368   7.284 -0.2933  0.4149  0.6734
18003SOL     OW57413  10.032   6.291   4.582  0.5713 -0.9280 -0.2084
18003SOL    HW157414   9.965   6.324   4.642  0.0252 -0.3107 -1.1476
18003SOL    HW257415  10.014   6.198   4.574  0.2167 -0.8794  0.0312
18004SOL     OW57416   9.597   6.536   5.766 -0.6300 -0.2449 -0.6789
18004SOL    HW157417   9.545   6.579   5.834  2.1245  0.3612  1.1040
18004SOL    HW257418   9.632   6.457   5.807  2.4198  0.9658 -0.7846
18005SOL     OW57419   3.678  10.872   6.662 -0.4870  0.5883  0.2183
18005SOL    HW157420   3.705  10.833   6.579 -1.3736  0.5852 -0.0706
18005SOL    HW257421   3.752  10.856   6.721  1.0778  2.5355 -1.1718
18006SOL     OW57422   7.062  10.639   6.911 -0.2688 -0.1683  0.4050
18006SOL    HW157423   7.084  10.706   6.846 -0.1578  0.2131  0.8307
18006SOL    HW257424   7.146  10.617   6.950 -0.4253  0.1006  0.8955
18007SOL     OW57425   7.276  10.188   3.512 -0.3030 -0.3790 -0.1660
18007SOL    HW157426   7.356  10.236   3.490  0.7187 -1.8953  0.1809
18007SOL    HW257427   7.216  10.256   3.544  0.8349  0.7763 -0.4275
18008SOL     OW57428   4.719   1.288   3.087 -0.7681 -0.2517 -0.3116
18008SOL    HW157429   4.804   1.331   3.087 -0.3081 -1.1384  0.5508
18008SOL    HW257430   4.667   1.336   3.151 -0.5432 -0.4160 -0.0050
18009SOL     OW57431   6.905  10.763   4.691 -0.0672  0.1833  0.3901
18009SOL    HW157432   6.938  10.851   4.711 -0.3766  0.2029  0.8258
18009SOL    HW257433   6.971  10.704   4.727  0.4689  0.2389 -0.4828
18010SOL     OW57434  10.641   3.411   0.965  0.2665 -0.3424 -0.6329
18010SOL    HW157435  10.733   3.436   0.956 -0.0035  1.3225  1.0119
18010SOL    HW257436  10.592   3.482   0.924 -0.4498  1.2323  2.8289
18011SOL     OW57437   2.475  10.861   1.848 -0.3305  0.4109 -0.2056
18011SOL    HW157438   2.460  10.784   1.903 -3.7876  1.4948  0.5508
18011SOL    HW257439   2.478  10.934   1.910 -0.1440  1.2039 -1.1399
18012SOL     OW57440   0.887   4.225   2.631  0.0538  0.2093  0.3752
18012SOL    HW157441   0.905   4.156   2.696 -0.7914 -0.0254  0.3643
18012SOL    HW257442   0.913   4.306   2.675  3.0424 -0.3036 -0.3842
18013SOL     OW57443  10.554   9.917   8.068  0.4915 -0.1116  0.1074
18013SOL    HW157444  10.571   9.850   8.002  0.8217  0.6594 -0.5948
18013SOL    HW257445  10.637   9.929   8.112  0.9977  1.3505 -1.1898
18014SOL     OW57446   2.295   5.928   0.595  0.3616  1.0116  0.2452
18014SOL    HW157447   2.274   5.912   0.687  1.0322  1.8176  0.5445
18014SOL    HW257448   2.210   5.921   0.549  0.2760 -1.0963  0.6584
18015SOL     OW57449   1.213  10.568   4.940 -0.2821  0.4156  0.2909
18015SOL    HW157450   1.194  10.661   4.927 -2.7319  0.2489  2.2288
18015SOL    HW257451   1.162  10.544   5.018 -0.0312 -2.6523 -0.4239
18016SOL     OW57452   7.618   3.612   3.250  0.1745 -0.1245  0.2727
18016SOL    HW157453   7.534   3.573   3.224  0.4755 -0.5683 -0.0539
18016SOL    HW257454   7.617   3.610   3.345 -0.6476  0.8653  0.2909
18017SOL     OW57455  10.625   7.131   3.723 -0.6542 -0.2441 -0.2041
18017SOL    HW157456  10.719   7.148   3.719 -0.7314  0.3953  0.5364
18017SOL    HW257457  10.618   7.046   3.767 -0.3234 -1.7008 -2.8599
18018SOL     OW57458   3.467   6.161  10.622 -0.9817  0.1276  0.6464
18018SOL    HW157459   3.445   6.230  10.559  1.7868 -0.8894 -1.5732
18018SOL    HW257460   3.404   6.091  10.605  0.9427 -0.9551 -2.4924
18019SOL     OW57461   8.871   5.090   9.112  0.3693  0.8888  0.3314
18019SOL    HW157462   8.958   5.074   9.148  0.7917 -1.7397 -1.7132
18019SOL    HW257463   8.881   5.170   9.061  1.5303  0.7369  0.2994
18020SOL     OW57464   1.020  10.577   4.704  0.1043 -0.0091  0.1250
18020SOL    HW157465   0.986  10.532   4.626  0.6630 -1.8059  0.8977
18020SOL    HW257466   1.086  10.638   4.669 -1.0386  0.6087 -0.9835
18021SOL     OW57467   7.913   5.572   6.538 -0.5966  0.4179 -0.0876
18021SOL    HW157468   7.860   5.611   6.607 -1.5175  0.0562 -0.5900
18021SOL    HW257469   7.876   5.606   6.457 -0.7888 -0.7167 -0.4901
18022SOL     OW57470   1.566   1.429  10.717 -0.3492 -0.1536  0.5280
18022SOL    HW157471   1.550   1.450  10.625  0.5522  0.9394  0.6079
18022SOL    HW257472   1.479   1.422  10.755 -0.7177  0.4231 -0.1873
18023SOL     OW57473   9.871   6.779   2.758 -0.2592  0.4464 -0.1371
18023SOL    HW157474   9.879   6.824   2.842  0.4121  0.5833 -0.2658
18023SOL    HW257475   9.918   6.696   2.770 -0.7428  0.1681 -0.1691
18024SOL     OW57476   4.503   2.152   6.502  0.1163 -0.2946 -0.4294
18024SOL    HW157477   4.552   2.140   6.583 -0.9360  0.6314  0.3694
18024SOL    HW257478   4.569   2.177   6.437  0.5445  2.3610  0.9583
18025SOL     OW57479   8.914   4.833   2.812  0.1567 -0.4254  0.1849
18025SOL    HW157480   8.924   4.754   2.759  1.4236 -1.6617  2.1862
18025SOL    HW257481   9.003   4.864   2.825 -0.2421  0.5920  0.5357
18026SOL     OW57482   4.150   9.263   7.490 -0.4282  0.2169  0.2916
18026SOL    HW157483   4.066   9.251   7.533  0.0221 -0.1705  1.0854
18026SOL    HW257484   4.206   9.301   7.558 -0.1350  1.0579 -0.4157
18027SOL     OW57485   1.916   4.013  10.546  0.2485 -0.1236 -0.2726
18027SOL    HW157486   1.962   3.944  10.498 -1.0369  0.2749 -2.1169
18027SOL    HW257487   1.896   3.974  10.631 -0.5579 -2.0712 -1.3239
18028SOL     OW57488   6.904   1.843   1.855 -0.2284  1.0498  0.4241
18028SOL    HW157489   6.886   1.896   1.932  1.2512  1.1496  0.7089
18028SOL    HW257490   6.943   1.904   1.792  0.4620  0.5393  0.3510
18029SOL     OW57491   9.374   2.885   6.940 -0.1978  0.0617 -0.0427
18029SOL    HW157492   9.304   2.846   6.991  1.3848 -2.2002  0.4896
18029SOL    HW257493   9.409   2.813   6.887  2.5277  0.8070  0.6368
18030SOL     OW57494   0.230   6.731   9.052 -0.7639 -0.1153 -0.4783
18030SOL    HW157495   0.158   6.737   9.114  0.3368 -2.7648  1.1496
18030SOL    HW257496   0.260   6.821   9.041 -1.4452  0.5144  2.3316
18031SOL     OW57497   1.837   2.138   4.837  0.2146  0.0723  0.1531
18031SOL    HW157498   1.843   2.048   4.870 -0.7492  0.2271  0.7743
18031SOL    HW257499   1.823   2.191   4.915  1.3486  0.8359 -0.1555
18032SOL     OW57500   9.259   7.059   0.994 -0.1017  0.0843 -0.0057
18032SOL    HW157501   9.293   7.104   0.918 -1.3535 -0.5356 -0.9575
18032SOL    HW257502   9.219   7.128   1.047  1.4503  0.6244  0.4933
18033SOL     OW57503   4.631   6.344   1.251 -0.1763  0.1271 -0.2419
18033SOL    HW157504   4.586   6.266   1.283  0.5400 -0.2976 -0.2369
18033SOL    HW257505   4.712   6.347   1.302  0.1340  0.4657 -0.7463
18034SOL     OW57506   5.392   9.130   8.521  0.3066 -0.1838  0.1624
18034SOL    HW157507   5.357   9.219   8.535 -0.9930 -0.8800  1.4812
18034SOL    HW257508   5.389   9.119   8.426 -1.6436  0.3790  0.1246
18035SOL     OW57509   3.961  10.089   4.205 -0.6613 -0.4355 -0.7461
18035SOL    HW157510   3.959  10.185   4.208 -1.4757 -0.5003  1.7499
18035SOL    HW257511   4.042  10.066   4.251 -1.1402 -0.9604 -0.1507
18036SOL     OW57512   8.956   8.552   0.022  0.3026  0.3375  0.2232
18036SOL    HW157513   8.988   8.482  -0.035 -1.6330 -0.4851  0.1199
18036SOL    HW257514   8.943   8.509   0.107  3.8945  1.7115  1.5853
18037SOL     OW57515   8.115   8.420   5.934 -0.3659  0.0433 -0.7686
18037SOL    HW157516   8.093   8.398   6.025  0.9082 -3.4255 -1.2109
18037SOL    HW257517   8.210   8.408   5.930 -0.3815  0.4152 -2.4890
18038SOL     OW57518   8.168  10.535   0.231  0.1902 -0.0015  0.1571
18038SOL    HW157519   8.074  10.518   0.238 -0.1126  1.1896 -0.7154
18038SOL    HW257520   8.205  10.502   0.313 -1.1313  0.4081  0.9361
18039SOL     OW57521   1.567   8.823  10.699  0.1445 -0.2076 -0.3271
18039SOL    HW157522   1.507   8.792  10.631  0.0174 -2.1730  0.6538
18039SOL    HW257523   1.546   8.769  10.776  0.6106  1.6525  1.1426
18040SOL     OW57524   7.785   8.873   5.854  0.9586  0.0888 -0.1519
18040SOL    HW157525   7.811   8.798   5.909  2.2069 -0.8820 -2.0309
18040SOL    HW257526   7.829   8.858   5.771 -2.2155  0.6554 -2.0306
18041SOL     OW57527   0.449   8.524   6.063 -0.6903 -0.5052  0.1923
18041SOL    HW157528   0.411   8.610   6.043 -0.3463 -0.8486 -2.1297
18041SOL    HW257529   0.373   8.466   6.070 -0.9200 -0.0329  1.7085
18042SOL     OW57530   8.931   7.877   9.126  0.0656 -0.1219 -0.2654
18042SOL    HW157531   9.000   7.873   9.060  0.3949 -0.2518  0.0868
18042SOL    HW257532   8.850   7.883   9.075  0.2456 -1.2328 -0.6968
18043SOL     OW57533   3.522   4.616   8.164  0.4689  0.4186  0.1512
18043SOL    HW157534   3.549   4.547   8.104 -0.5620 -0.8565  1.1313
18043SOL    HW257535   3.530   4.697   8.113 -1.8624 -0.7729 -2.2369
18044SOL     OW57536   8.017   3.344   5.859  0.1432 -0.4361 -0.2867
18044SOL    HW157537   7.984   3.426   5.897 -0.3529 -1.8803  2.5262
18044SOL    HW257538   7.940   3.304   5.818 -0.7714 -1.7722  2.5937
18045SOL     OW57539  10.745   1.708   1.151  0.2879  0.4343 -0.4168
18045SOL    HW157540  10.686   1.637   1.175 -1.0179  1.1170 -1.5375
18045SOL    HW257541  10.816   1.703   1.216 -1.0956 -0.2653  1.0956
18046SOL     OW57542   5.800   6.882   4.995  0.0571  0.2919  0.1863
18046SOL    HW157543   5.710   6.914   5.005 -0.3634 -0.1136 -1.9034
18046SOL    HW257544   5.790   6.797   4.952  1.4704  0.7620 -1.1229
18047SOL     OW57545   1.058   4.688   6.359 -0.4304 -0.3742  0.8010
18047SOL    HW157546   1.041   4.608   6.409  1.4878 -0.2716  1.6850
18047SOL    HW257547   1.113   4.741   6.417 -0.5443  0.9905 -0.3084
18048SOL     OW57548   5.299   9.910   3.574  0.6174 -0.6344 -0.2971
18048SOL    HW157549   5.272   9.915   3.482 -1.2259  0.4871  0.2858
18048SOL    HW257550   5.376   9.967   3.580 -0.1169  0.4243 -0.8548
18049SOL     OW57551   7.482  10.177   8.186  0.3026  0.0340  0.5711
18049SOL    HW157552   7.410  10.128   8.146  0.2282 -0.7143  1.6091
18049SOL    HW257553   7.554  10.113   8.191  0.6450  0.4200  0.6845
18050SOL     OW57554   3.038   1.011   5.094 -0.8660 -0.0174  0.5127
18050SOL    HW157555   2.990   0.933   5.123 -1.6264  0.0830 -0.4253
18050SOL    HW257556   3.013   1.021   5.002 -0.9725  1.4787  0.6866
18051SOL     OW57557   3.814   3.930  10.821  0.2608 -0.0503 -0.5106
18051SOL    HW157558   3.863   3.993  10.875  0.0414  0.4937 -0.9466
18051SOL    HW257559   3.879   3.864  10.797  0.8589  0.8171 -1.3140
18052SOL     OW57560   0.149   4.779  10.569  0.1350 -0.0714  0.4113
18052SOL    HW157561   0.209   4.715  10.532 -0.7515 -0.7018  0.0319
18052SOL    HW257562   0.182   4.864  10.538  1.4683 -0.3152  1.1399
18053SOL     OW57563   5.035   9.844   1.770  0.2475 -0.1462 -0.0938
18053SOL    HW157564   5.099   9.774   1.783  0.2579 -0.2327 -0.5913
18053SOL    HW257565   4.974   9.808   1.705 -0.0859  0.0836  0.0879
18054SOL     OW57566   7.489   5.911   7.615 -0.1045 -0.1299 -0.2951
18054SOL    HW157567   7.568   5.857   7.625 -0.1754 -0.1993 -0.1066
18054SOL    HW257568   7.481   5.957   7.698  0.4317  0.8173 -0.7546
18055SOL     OW57569   9.432   0.386   1.371 -0.2102 -0.2090  0.0821
18055SOL    HW157570   9.463   0.311   1.422  0.2093 -0.3430 -0.3717
18055SOL    HW257571   9.447   0.461   1.428  2.4437 -0.0616 -0.7181
18056SOL     OW57572   6.080   2.554   8.029  0.2793 -0.5970 -0.1209
18056SOL    HW157573   6.092   2.649   8.021 -0.8681 -0.4216  0.2069
18056SOL    HW257574   6.065   2.540   8.122 -1.9884 -0.8016 -0.4877
18057SOL     OW57575   7.440   3.644   6.792  0.2159  0.5975  0.2311
18057SOL    HW157576   7.363   3.588   6.797 -1.7784  3.0374 -1.7130
18057SOL    HW257577   7.466   3.656   6.883 -2.3604  0.5355  1.0290
18058SOL     OW57578   4.687   6.787   9.186 -0.1661 -0.2381 -0.1635
18058SOL    HW157579   4.685   6.744   9.101  2.0423  0.4753 -0.5870
18058SOL    HW257580   4.722   6.720   9.245 -0.6071 -0.3480 -0.0214
18059SOL     OW57581   0.146   3.708   4.136 -0.4558  0.4524  1.0334
18059SOL    HW157582   0.077   3.670   4.080  0.9252 -1.9644  0.8714
18059SOL    HW257583   0.166   3.792   4.095 -0.4612 -0.6449 -1.3177
18060SOL     OW57584   5.551   7.768   5.898 -0.4582 -0.5268  0.3773
18060SOL    HW157585   5.463   7.754   5.863 -0.6699 -1.3209  1.1938
18060SOL    HW257586   5.537   7.777   5.992  0.1522  1.1113  0.3272
18061SOL     OW57587   5.152   2.234   1.933 -0.1865 -0.0793 -0.0860
18061SOL    HW157588   5.118   2.222   1.845  1.3208 -2.1312 -0.4328
18061SOL    HW257589   5.209   2.158   1.947  0.0233  0.4970  2.4398
18062SOL     OW57590   6.575   2.391   5.469 -0.4915  0.7586 -0.3737
18062SOL    HW157591   6.621   2.316   5.431  2.8651  1.5511  1.9012
18062SOL    HW257592   6.493   2.354   5.502  1.3340 -2.1297  1.2018
18063SOL     OW57593   3.049   0.672   1.999 -0.1075  0.5820 -0.2235
18063SOL    HW157594   3.005   0.737   1.944  1.1913  1.6636 -0.0160
18063SOL    HW257595   3.078   0.721   2.076  1.3174 -0.1161 -0.2870
18064SOL     OW57596   3.724   0.148   5.544  0.3280 -0.4943  0.0119
18064SOL    HW157597   3.710   0.234   5.503  1.8571 -0.7372 -1.1059
18064SOL    HW257598   3.648   0.096   5.518  1.3443 -0.6919 -2.7511
18065SOL     OW57599   8.388   6.101   0.621  0.4848  0.5682 -0.2081
18065SOL    HW157600   8.464   6.124   0.674 -0.2640 -0.0211  1.1443
18065SOL    HW257601   8.343   6.185   0.607  0.4689  0.6770  0.4510
18066SOL     OW57602   1.612   3.587   0.424  0.4119  0.6035  0.2500
18066SOL    HW157603   1.602   3.633   0.508 -1.6208  0.4133  0.1476
18066SOL    HW257604   1.658   3.649   0.368 -1.6880  2.3219  0.3321
18067SOL     OW57605   9.843  10.163   9.152  0.2071  0.3728  0.1911
18067SOL    HW157606   9.806  10.176   9.065 -1.0058  1.0764  0.8032
18067SOL    HW257607   9.771  10.127   9.205  1.0351 -0.4139  0.8085
18068SOL     OW57608   3.525   6.608   8.122 -0.1555  0.3183  0.0585
18068SOL    HW157609   3.585   6.552   8.171 -1.1802  0.1651  1.1639
18068SOL    HW257610   3.577   6.685   8.100  1.7488 -1.6836 -2.8611
18069SOL     OW57611   8.389   8.176   8.616 -0.2517 -0.1036 -0.3488
18069SOL    HW157612   8.480   8.199   8.595 -0.1492 -0.7682 -0.6623
18069SOL    HW257613   8.366   8.235   8.688 -0.4431  1.8390 -1.9555
18070SOL     OW57614   2.050   5.208   3.160  0.2400  0.2985  0.7539
18070SOL    HW157615   1.974   5.238   3.111  1.6340 -1.2955 -2.4764
18070SOL    HW257616   2.102   5.287   3.174 -0.7092  0.9464  0.6649
18071SOL     OW57617   8.280  10.929   4.332  0.2351 -0.4456 -0.2248
18071SOL    HW157618   8.204  10.887   4.291 -0.7736  0.5772  0.5739
18071SOL    HW257619   8.300  11.004   4.276 -0.8118  0.6428  0.8346
18072SOL     OW57620   4.570   9.100   2.047  0.2142  0.0741  0.8376
18072SOL    HW157621   4.623   9.057   2.115 -0.0907 -0.9475  0.4333
18072SOL    HW257622   4.631   9.114   1.975  0.3653  0.5193  1.0479
18073SOL     OW57623   5.307   8.517   7.433 -0.4817 -0.2452  0.2005
18073SOL    HW157624   5.234   8.465   7.465 -0.6172  0.0911  0.4323
18073SOL    HW257625   5.343   8.464   7.361 -0.1538 -1.0088  0.9146
18074SOL     OW57626   0.834  10.526   9.850 -0.0800  0.4151 -0.3176
18074SOL    HW157627   0.743  10.541   9.824 -0.2743  0.9294  0.6523
18074SOL    HW257628   0.839  10.556   9.941  0.9445 -0.0554 -0.2108
18075SOL     OW57629   7.745   5.368   8.894 -0.4391 -0.7738 -0.2932
18075SOL    HW157630   7.809   5.301   8.869  0.8229  0.4056 -0.2650
18075SOL    HW257631   7.691   5.326   8.961  1.3632 -1.2426  0.8916
18076SOL     OW57632   6.423   7.972   7.785  0.1835  0.0580  0.3385
18076SOL    HW157633   6.343   8.006   7.824  1.1035  0.7773  1.6130
18076SOL    HW257634   6.483   7.959   7.858  1.2675 -0.4049 -0.6063
18077SOL     OW57635   6.073  10.427   9.649  0.3309  0.3100  0.2473
18077SOL    HW157636   6.063  10.451   9.741 -1.8552  1.1289 -0.1566
18077SOL    HW257637   5.983  10.418   9.617  0.9738  2.7539 -2.5002
18078SOL     OW57638  10.142   4.791   9.740  0.3029  0.2362 -0.7699
18078SOL    HW157639  10.211   4.857   9.750 -0.2776  0.5784  1.0282
18078SOL    HW257640  10.179   4.712   9.780  0.4577 -0.1814 -1.7050
18079SOL     OW57641   9.538   4.050   5.739  0.0225  0.2962 -0.0799
18079SOL    HW157642   9.631   4.056   5.716  0.1646  1.9928  0.8637
18079SOL    HW257643   9.492   4.048   5.656  0.9411 -1.5429 -0.5799
18080SOL     OW57644   3.687   9.543  10.631  0.2306 -0.5795 -0.2237
18080SOL    HW157645   3.772   9.575  10.659  0.7450 -2.6481  0.6821
18080SOL    HW257646   3.682   9.563  10.538  0.6806  1.7030  0.2132
18081SOL     OW57647   3.587   1.581   6.855 -0.0934 -0.6329  0.4626
18081SOL    HW157648   3.667   1.605   6.902  0.3798  0.6572 -0.9479
18081SOL    HW257649   3.616   1.518   6.789 -0.4344 -1.0202  0.6831
18082SOL     OW57650   8.988   4.486   1.807  0.0661 -0.5775  0.3371
18082SOL    HW157651   8.940   4.569   1.814  0.9318 -0.0520  0.2416
18082SOL    HW257652   8.954   4.445   1.728  1.5371  0.9704 -1.1492
18083SOL     OW57653   0.141   2.697   4.027 -0.7060  0.2043  0.1855
18083SOL    HW157654   0.162   2.774   4.080 -0.0483  1.1556 -1.4060
18083SOL    HW257655   0.159   2.725   3.937  0.5602 -2.1564 -0.3244
18084SOL     OW57656   6.320   1.373   8.348 -0.0987 -0.0120  0.4440
18084SOL    HW157657   6.404   1.326   8.351 -0.5386 -0.7041  2.8330
18084SOL    HW257658   6.257   1.306   8.322 -0.4463 -0.3685  2.1331
18085SOL     OW57659   5.078   4.011   6.285 -0.4662 -0.1067  0.1242
18085SOL    HW157660   5.056   3.920   6.306 -0.8470  0.1369  0.7666
18085SOL    HW257661   5.038   4.063   6.354 -0.0557  0.5382 -0.1142
18086SOL     OW57662   7.997   5.327   6.479 -0.3627 -0.0634 -0.0979
18086SOL    HW157663   7.966   5.415   6.502 -0.4603 -0.2755  0.5837
18086SOL    HW257664   7.945   5.303   6.402  1.0906  1.2959 -1.5348
18087SOL     OW57665   2.663   4.450   9.220 -0.3337  0.6164  0.1834
18087SOL    HW157666   2.638   4.392   9.293  0.4383  1.3526  1.0450
18087SOL    HW257667   2.749   4.484   9.245 -0.4813  1.6085 -0.6335
18088SOL     OW57668   9.400   9.463   5.307 -0.2025 -0.2769 -0.2264
18088SOL    HW157669   9.483   9.450   5.351 -1.1198  0.8505  1.8970
18088SOL    HW257670   9.334   9.435   5.370 -1.5127  0.2774 -1.2990
18089SOL     OW57671   3.010   6.103   1.024  0.0176  0.2711  0.7344
18089SOL    HW157672   3.093   6.095   1.071 -0.7320 -2.8158  1.7221
18089SOL    HW257673   3.018   6.183   0.973  3.3416  0.3834  1.3103
18090SOL     OW57674   1.768   0.978   1.506  0.5974  0.2068  0.2040
18090SOL    HW157675   1.724   1.009   1.585  0.5494 -0.2612  0.3598
18090SOL    HW257676   1.804   1.058   1.466 -0.4636  0.6171  0.0277
18091SOL     OW57677   2.818   0.773   1.238 -0.1794  0.5138  0.2517
18091SOL    HW157678   2.869   0.824   1.175  0.2024 -1.3682 -1.0052
18091SOL    HW257679   2.883   0.735   1.297 -0.3849  0.7148  0.6091
18092SOL     OW57680   4.397   8.974   2.417  0.4724  0.8668 -0.3860
18092SOL    HW157681   4.396   8.905   2.350  0.7589  0.5685 -0.0867
18092SOL    HW257682   4.454   8.939   2.485 -0.0016  1.0741  0.1171
18093SOL     OW57683   1.689   9.724   6.841  0.2742  0.1145  0.3842
18093SOL    HW157684   1.667   9.643   6.795 -0.3298  0.2236  0.4759
18093SOL    HW257685   1.652   9.794   6.785 -1.3286  0.1988  1.5183
18094SOL     OW57686  10.863   5.207   1.468 -0.2009 -0.8146  0.5499
18094SOL    HW157687  10.771   5.220   1.493 -0.0678  1.1845  0.0255
18094SOL    HW257688  10.900   5.155   1.540 -1.2184  0.1251  1.7659
18095SOL     OW57689   1.190   2.752   2.738 -0.0305  0.4586  0.3468
18095SOL    HW157690   1.218   2.662   2.726 -0.2951  0.1849  1.6519
18095SOL    HW257691   1.249   2.786   2.806  0.5911  1.5208 -0.6879
18096SOL     OW57692   5.516   4.041   4.974 -0.2277 -0.3161 -0.0191
18096SOL    HW157693   5.518   4.121   5.028  1.4627 -0.3718  0.0261
18096SOL    HW257694   5.515   4.074   4.884  0.1835 -0.2364  0.0031
18097SOL     OW57695  10.079   8.304   5.477 -0.4867 -0.2576  0.3031
18097SOL    HW157696  10.046   8.350   5.554 -1.0536  0.8701 -0.6171
18097SOL    HW257697  10.140   8.239   5.513 -0.8953  0.1254  1.7141
18098SOL     OW57698   0.143   2.445   6.271  0.1658 -0.3242  0.5779
18098SOL    HW157699   0.231   2.458   6.236 -0.3234  0.8470 -0.2566
18098SOL    HW257700   0.110   2.368   6.226 -0.2514  0.8527 -1.1918
18099SOL     OW57701   2.386   1.222   6.073  0.2988 -0.2606  0.3161
18099SOL    HW157702   2.439   1.258   6.002 -0.0169 -1.9880 -0.8448
18099SOL    HW257703   2.297   1.223   6.038  0.1589 -1.2183  0.6310
18100SOL     OW57704   6.333   9.150  10.929 -0.3193  0.4420 -0.2445
18100SOL    HW157705   6.389   9.072  10.933 -0.0356  0.6967  1.2360
18100SOL    HW257706   6.314   9.161  10.836  0.4437 -0.8233 -0.5702
18101SOL     OW57707   6.388   3.823   2.068 -0.0977 -0.2654  0.0606
18101SOL    HW157708   6.464   3.880   2.067  0.6285 -1.1486  2.0670
18101SOL    HW257709   6.328   3.863   2.130 -0.6530 -0.3331 -0.4304
18102SOL     OW57710   5.333   9.738   0.323  0.0557 -0.5807 -0.5134
18102SOL    HW157711   5.357   9.646   0.336  1.1759 -0.5328 -2.1472
18102SOL    HW257712   5.338   9.751   0.228 -2.5965  0.5013 -0.5473
18103SOL     OW57713   5.964   8.797   6.240  0.4434 -0.1624 -0.4583
18103SOL    HW157714   6.036   8.842   6.284 -0.5692  1.1668 -0.1666
18103SOL    HW257715   5.906   8.867   6.210 -1.0223 -1.2634 -0.2146
18104SOL     OW57716  10.679   6.177   1.194 -0.0833 -0.1396 -0.0995
18104SOL    HW157717  10.591   6.198   1.223  1.0218  1.2677  2.3616
18104SOL    HW257718  10.675   6.084   1.169 -2.6693  0.3768 -1.8412
18105SOL     OW57719   4.755  10.871   9.584  0.4454 -0.2748  0.2059
18105SOL    HW157720   4.683  10.927   9.554  0.5050 -1.1053 -1.5290
18105SOL    HW257721   4.765  10.893   9.676 -0.9471  1.0410  0.0673
18106SOL     OW57722   7.112  10.811   4.368  0.2678  0.2945  0.1482
18106SOL    HW157723   7.054  10.786   4.295  1.2240 -0.0685 -0.4928
18106SOL    HW257724   7.084  10.900   4.390  1.3241  1.2088 -2.0542
18107SOL     OW57725   7.259   1.941   9.886  0.1961 -0.0839 -0.6013
18107SOL    HW157726   7.190   1.912   9.945 -0.6876 -0.0689 -1.6237
18107SOL    HW257727   7.233   2.029   9.859 -1.8649 -1.7990 -4.6511
18108SOL     OW57728   9.770   4.384  10.050  0.9395  0.1338 -0.4992
18108SOL    HW157729   9.818   4.381   9.967 -1.3456  1.2202 -1.9380
18108SOL    HW257730   9.761   4.478  10.068  1.0822 -0.0978  0.7655
18109SOL     OW57731   9.977   7.352   1.883  0.4549  0.1136  0.5537
18109SOL    HW157732  10.046   7.369   1.818 -0.0913  1.3657  0.2957
18109SOL    HW257733   9.992   7.418   1.951  0.1751 -0.3186  1.0383
18110SOL     OW57734   4.362   6.632   4.786  0.4775 -0.4215  0.1589
18110SOL    HW157735   4.328   6.615   4.698  0.6177 -1.0392  0.2262
18110SOL    HW257736   4.357   6.727   4.795 -0.7274 -0.4553 -0.0430
18111SOL     OW57737   1.785   7.141  10.565 -0.0657 -0.7219  0.2355
18111SOL    HW157738   1.768   7.086  10.488 -1.0496 -1.6869  1.1310
18111SOL    HW257739   1.856   7.096  10.611 -0.5915 -1.0279  0.7531
18112SOL     OW57740   5.004   0.783   2.657 -0.6454  0.8463 -0.1299
18112SOL    HW157741   5.066   0.851   2.632 -1.0085  1.7031  1.2008
18112SOL    HW257742   4.923   0.805   2.610 -0.8148  1.4470  0.4388
18113SOL     OW57743   5.482   5.768   3.454  0.3220  0.1794 -0.0092
18113SOL    HW157744   5.538   5.713   3.399 -1.5549 -0.1679 -1.6246
18113SOL    HW257745   5.412   5.797   3.396 -0.8512  1.1137  1.8156
18114SOL     OW57746   6.862   3.771   6.465 -0.4287  0.2613 -0.6494
18114SOL    HW157747   6.774   3.770   6.425  0.7041  0.4141 -3.2640
18114SOL    HW257748   6.893   3.681   6.457  0.1830  0.4998 -1.0347
18115SOL     OW57749   8.355  10.630   6.860  0.8041  0.5436 -0.2035
18115SOL    HW157750   8.378  10.613   6.952 -0.4811  0.7663  0.1676
18115SOL    HW257751   8.416  10.698   6.833  1.2289  0.4394  0.4707
18116SOL     OW57752   6.479   0.412   2.359 -0.1903  0.7388 -0.0813
18116SOL    HW157753   6.416   0.385   2.292 -0.1171  1.7463 -0.5650
18116SOL    HW257754   6.473   0.508   2.360  1.0357  0.8208  0.1480
18117SOL     OW57755   1.429  10.164  10.124  1.2157 -0.1601 -0.3177
18117SOL    HW157756   1.421  10.222  10.048 -0.0457  0.3763  0.2096
18117SOL    HW257757   1.495  10.206  10.179  1.1008  0.1938 -0.4487
18118SOL     OW57758   1.137   1.960   6.311  0.4300 -0.0621  0.0305
18118SOL    HW157759   1.043   1.943   6.304  0.9201 -2.4071 -1.3593
18118SOL    HW257760   1.175   1.874   6.332  2.2437  0.9024  0.8218
18119SOL     OW57761   9.400   7.529   2.063 -0.4149 -0.8973 -0.5723
18119SOL    HW157762   9.322   7.507   2.115 -0.5489 -0.2990 -0.5173
18119SOL    HW257763   9.473   7.502   2.118 -0.5487  0.0683  0.0982
18120SOL     OW57764   1.553   8.808  10.148 -0.3719 -0.3293  0.4678
18120SOL    HW157765   1.521   8.754  10.219 -0.7046 -0.2623  0.3716
18120SOL    HW257766   1.642   8.776  10.131 -1.8581 -3.3658 -2.0819
18121SOL     OW57767   1.032   3.730   3.224  0.1271 -0.2815 -0.0850
18121SOL    HW157768   1.037   3.643   3.263 -0.4934  0.1815  1.0502
18121SOL    HW257769   1.028   3.790   3.299 -0.3182  0.6641 -0.8531
18122SOL     OW57770   5.468   5.480   9.651 -0.1849 -0.1603  0.2468
18122SOL    HW157771   5.530   5.540   9.693 -0.6269  0.3818  0.1290
18122SOL    HW257772   5.425   5.435   9.724 -0.2584  0.0790  0.3504
18123SOL     OW57773   9.102   9.326   8.562 -0.3430  0.4078 -0.0905
18123SOL    HW157774   9.192   9.323   8.529 -0.1295  0.0970  0.5015
18123SOL    HW257775   9.104   9.394   8.630 -0.3780 -0.0991  0.4251
18124SOL     OW57776   6.258   5.750   7.278  0.0923 -0.3397  0.2232
18124SOL    HW157777   6.279   5.716   7.191  0.5376 -0.2693  0.3031
18124SOL    HW257778   6.332   5.807   7.300  0.1021 -0.5590  0.7553
18125SOL     OW57779   2.977   5.551  10.304 -0.2102 -0.2180  0.0700
18125SOL    HW157780   2.986   5.603  10.384 -2.3635  0.9160 -0.3992
18125SOL    HW257781   2.936   5.469  10.333 -1.7789  0.5390  0.0066
18126SOL     OW57782   0.756   9.245   4.573  0.2567  0.3814 -0.0973
18126SOL    HW157783   0.754   9.251   4.478  0.4772  1.1922 -0.0630
18126SOL    HW257784   0.843   9.279   4.596 -0.7066  2.5525  0.5237
18127SOL     OW57785   2.713   5.599   2.319 -0.1924  0.0070  0.4833
18127SOL    HW157786   2.721   5.684   2.278  0.1790  0.3484  1.2505
18127SOL    HW257787   2.622   5.573   2.303 -0.0299  0.1072 -0.5860
18128SOL     OW57788   9.450   8.747   2.290 -0.2393  0.0025  0.5827
18128SOL    HW157789   9.392   8.806   2.242  0.0710 -0.9169 -0.9868
18128SOL    HW257790   9.462   8.788   2.376  1.0740  2.8883 -0.9107
18129SOL     OW57791  10.830  10.026   2.761  0.0766 -0.1384 -0.1295
18129SOL    HW157792  10.774   9.954   2.730 -1.9744  1.5467 -0.4185
18129SOL    HW257793  10.919   9.996   2.742 -0.6966 -2.7941  0.1662
18130SOL     OW57794   7.368   6.822   4.846  0.3139 -0.0797 -0.2147
18130SOL    HW157795   7.292   6.788   4.893 -0.6922  0.0083 -1.7440
18130SOL    HW257796   7.364   6.917   4.859 -0.5520  0.0441 -1.3187
18131SOL     OW57797   3.556   3.069   9.575 -0.4210  0.2236  0.5924
18131SOL    HW157798   3.572   3.138   9.639  2.9476 -0.7599  0.8974
18131SOL    HW257799   3.479   3.023   9.608 -1.2359  2.2680  1.6704
18132SOL     OW57800   2.320   7.255   0.010 -0.0254 -0.2895  0.3319
18132SOL    HW157801   2.360   7.323  -0.045  1.5320 -1.1673  0.3267
18132SOL    HW257802   2.261   7.209  -0.049 -0.1746  0.3015  0.0152
18133SOL     OW57803   5.395   2.152   6.146  0.0230  0.2560 -0.2969
18133SOL    HW157804   5.476   2.101   6.150 -0.4159 -0.6250 -1.9150
18133SOL    HW257805   5.423   2.240   6.120  0.5442  0.1741 -0.0203
18134SOL     OW57806  10.807   8.024   3.481  0.1889 -0.3049 -0.2626
18134SOL    HW157807  10.865   7.970   3.428 -0.3048 -0.4052 -0.7049
18134SOL    HW257808  10.866   8.079   3.532  0.7044 -1.6460  0.6028
18135SOL     OW57809   3.875   4.436   3.549  0.3725 -0.5324 -0.0655
18135SOL    HW157810   3.942   4.370   3.536  0.3797 -0.6272  0.4504
18135SOL    HW257811   3.793   4.393   3.525  0.5701 -0.2094 -1.3425
18136SOL     OW57812  10.460   0.532   1.722 -0.3353  0.5813 -0.8277
18136SOL    HW157813  10.369   0.560   1.714 -0.9386 -1.1164 -0.2059
18136SOL    HW257814  10.497   0.587   1.791 -1.0401  0.9450 -0.7399
18137SOL     OW57815   7.780   2.660   5.767 -0.5060  0.3828  0.2617
18137SOL    HW157816   7.811   2.711   5.693 -2.8584  3.8054  1.5392
18137SOL    HW257817   7.855   2.655   5.827  0.2767  0.7316 -0.6801
18138SOL     OW57818   9.762   8.947   1.982 -0.3600 -0.1318 -0.1780
18138SOL    HW157819   9.719   9.001   2.048 -0.8268 -0.6739 -0.0428
18138SOL    HW257820   9.691   8.906   1.934 -0.0064 -2.1255  0.9453
18139SOL     OW57821   8.939   1.464   1.648  0.4240  0.0279  0.5118
18139SOL    HW157822   8.883   1.432   1.577 -0.1589  0.6246  0.7053
18139SOL    HW257823   9.020   1.489   1.604 -0.3200  1.4017 -0.1071
18140SOL     OW57824   8.635  10.575   5.487  0.2941 -0.4955 -0.1008
18140SOL    HW157825   8.625  10.575   5.392  2.3138  1.0631 -0.3485
18140SOL    HW257826   8.661  10.665   5.509  0.4963 -1.0016  1.8482
18141SOL     OW57827   2.369   8.529   1.573  0.1004 -0.2095  0.2622
18141SOL    HW157828   2.350   8.470   1.501  0.3883  0.0797 -0.0501
18141SOL    HW257829   2.413   8.475   1.638 -1.5459 -0.8419  0.8919
18142SOL     OW57830   0.343   6.059   1.030  0.4853 -0.7854  0.0059
18142SOL    HW157831   0.351   6.054   0.935  1.1685 -0.4438  0.0448
18142SOL    HW257832   0.403   6.129   1.055 -1.8661  1.1804  0.3810
18143SOL     OW57833   1.484   9.293  10.144  0.2701  0.2764 -0.1687
18143SOL    HW157834   1.440   9.247  10.072  0.7986  1.1560 -1.0579
18143SOL    HW257835   1.430   9.370  10.161  1.5978  1.5299 -1.4728
18144SOL     OW57836   0.308   1.082   8.262  0.3878 -0.1230 -0.5638
18144SOL    HW157837   0.278   1.083   8.171  0.4810 -0.7527 -0.6090
18144SOL    HW257838   0.324   1.174   8.284 -1.0840  0.1687 -0.6961
18145SOL     OW57839   4.787   7.968   4.224 -0.0703 -0.1736 -0.0160
18145SOL    HW157840   4.817   8.054   4.193  0.8014 -0.2313  0.6520
18145SOL    HW257841   4.697   7.961   4.191  0.0599  0.7372 -0.5851
18146SOL     OW57842   6.913   6.598   5.109 -0.2031  0.2087  1.0169
18146SOL    HW157843   6.863   6.553   5.041  0.4341  1.2797 -0.1776
18146SOL    HW257844   6.849   6.655   5.151 -0.8466 -1.2488  2.0581
18147SOL     OW57845   7.608   4.484   2.203  0.3448 -0.2756  0.4827
18147SOL    HW157846   7.517   4.501   2.182  0.2475  1.0371  1.9196
18147SOL    HW257847   7.606   4.447   2.291  1.2855  1.0129  1.0599
18148SOL     OW57848   1.087   1.916   5.840  0.6235 -0.2193 -0.3634
18148SOL    HW157849   1.094   1.949   5.929  0.7288 -0.3414 -0.3280
18148SOL    HW257850   1.134   1.981   5.787 -0.8805  0.7480 -0.5405
18149SOL     OW57851   2.069   2.505   3.921  0.5158 -0.1735 -0.7602
18149SOL    HW157852   2.161   2.480   3.916  0.5262  0.0694 -2.0077
18149SOL    HW257853   2.067   2.584   3.974  1.1323  0.3706 -1.5607
18150SOL     OW57854   2.121   9.222   2.763 -0.2578 -0.6753 -0.0172
18150SOL    HW157855   2.200   9.184   2.801  0.3192 -0.2331 -0.7529
18150SOL    HW257856   2.085   9.277   2.832  1.1371  0.6446 -0.3047
18151SOL     OW57857   4.062   9.544   1.842  0.7028  0.4587 -0.6030
18151SOL    HW157858   4.092   9.458   1.811  1.3535 -0.1837  1.7608
18151SOL    HW257859   3.985   9.526   1.894  0.6551  1.3442 -0.3539
18152SOL     OW57860   6.517   5.678   0.211  0.4062 -0.4483  0.4082
18152SOL    HW157861   6.566   5.687   0.129 -1.4870 -0.9290 -0.8110
18152SOL    HW257862   6.486   5.587   0.210 -1.4577  0.1705  0.5907
18153SOL     OW57863   3.387   7.042   6.212 -0.1924 -0.3257 -0.0183
18153SOL    HW157864   3.408   7.097   6.136  0.0107  0.6517  0.7321
18153SOL    HW257865   3.297   7.014   6.197 -0.2244  0.0380 -0.5168
18154SOL     OW57866   5.943   9.050   8.449  0.1534 -0.1541  0.1075
18154SOL    HW157867   5.942   9.137   8.487 -3.2159  0.4866 -1.2541
18154SOL    HW257868   5.885   8.998   8.505  0.2341 -0.8949 -0.4789
18155SOL     OW57869   2.370   5.564   2.716 -0.0997  0.0448 -0.0933
18155SOL    HW157870   2.318   5.645   2.714  0.5003  0.5209  2.0367
18155SOL    HW257871   2.458   5.592   2.694 -0.1058 -0.2214 -0.4612
18156SOL     OW57872   1.452   3.561  10.470 -0.0282 -0.0222 -0.1835
18156SOL    HW157873   1.487   3.546  10.382  0.1840 -0.2392 -0.0629
18156SOL    HW257874   1.396   3.486  10.487 -0.8178  0.4897 -0.5048
18157SOL     OW57875   8.806   5.499   0.040  0.4655 -0.3212  0.2245
18157SOL    HW157876   8.880   5.546   0.002 -0.5699  0.1822 -1.1969
18157SOL    HW257877   8.764   5.456  -0.034 -1.4790  0.5019  0.8176
18158SOL     OW57878  10.083   8.844   0.974 -0.3077  0.0772 -0.0745
18158SOL    HW157879  10.027   8.767   0.967 -0.2128 -0.0917  1.0080
18158SOL    HW257880  10.151   8.829   0.908 -0.4716 -0.6112 -0.0972
18159SOL     OW57881   0.280   7.200   4.197  0.0009 -0.0950  0.0174
18159SOL    HW157882   0.253   7.249   4.120 -2.1237 -1.5165 -0.2026
18159SOL    HW257883   0.323   7.264   4.253  1.0413  1.0705 -2.0665
18160SOL     OW57884   8.881   1.367   7.504  0.1363  0.0173 -0.6824
18160SOL    HW157885   8.815   1.339   7.567  1.0309  2.1696  1.2847
18160SOL    HW257886   8.868   1.461   7.496  4.4520  0.9153  1.6103
18161SOL     OW57887   8.144   2.782   6.605  0.3323  0.1844 -0.0435
18161SOL    HW157888   8.213   2.778   6.671 -1.4426  0.3458  1.8663
18161SOL    HW257889   8.139   2.693   6.571  1.2756  0.1005  0.0300
18162SOL     OW57890   9.373   7.819   1.163 -0.0878  0.0355 -0.0756
18162SOL    HW157891   9.350   7.797   1.253  1.5835 -1.2541  0.0700
18162SOL    HW257892   9.296   7.797   1.112 -0.8000  0.1180  0.9489
18163SOL     OW57893   8.541  10.879   0.132 -0.2563 -0.0301  0.8154
18163SOL    HW157894   8.526  10.877   0.038  1.7595  0.9693  0.4403
18163SOL    HW257895   8.556  10.788   0.157 -0.3367 -0.2361  0.0984
18164SOL     OW57896   1.690   2.376   2.573  0.3232 -0.0242 -0.6557
18164SOL    HW157897   1.782   2.351   2.581 -0.0791 -1.0599  0.9249
18164SOL    HW257898   1.692   2.457   2.522  2.1403  0.1915 -0.2849
18165SOL     OW57899   2.004   8.501  10.864 -0.1870 -0.0400  0.3547
18165SOL    HW157900   1.930   8.550  10.828  1.4672  1.6745 -0.7944
18165SOL    HW257901   1.981   8.409  10.850 -2.3972  0.4476  0.6310
18166SOL     OW57902   4.596   8.015   1.793 -0.8619 -0.6082 -0.4778
18166SOL    HW157903   4.591   8.007   1.697 -2.8014 -0.2399 -0.4427
18166SOL    HW257904   4.689   8.009   1.813  0.0336  3.5931 -2.8005
18167SOL     OW57905   2.433   4.026   5.011  0.0221 -0.2328 -0.0673
18167SOL    HW157906   2.481   4.079   5.075 -0.5753  0.1877  0.0425
18167SOL    HW257907   2.501   3.987   4.956  0.5216 -0.3445  0.6315
18168SOL     OW57908  10.971   7.857   6.031 -0.0328  0.2042  0.7187
18168SOL    HW157909  11.000   7.783   5.978 -0.4806 -0.5483  1.5267
18168SOL    HW257910  11.051   7.908   6.047  0.2901 -0.1605  0.2640
18169SOL     OW57911   6.926   4.491   8.603 -0.8589  0.5390  0.2237
18169SOL    HW157912   6.915   4.468   8.696 -2.9697  1.4093  0.2138
18169SOL    HW257913   6.865   4.434   8.557 -1.5252  1.7320 -0.3968
18170SOL     OW57914   4.779   4.041   0.212  0.2173 -0.4832 -0.2924
18170SOL    HW157915   4.772   3.946   0.205 -0.6912 -0.3694 -1.0512
18170SOL    HW257916   4.871   4.060   0.196  0.3664 -1.2278 -0.3237
18171SOL     OW57917  10.629   1.627   6.442  0.0038  0.0004 -0.1991
18171SOL    HW157918  10.712   1.650   6.483  0.8975 -1.9249 -0.8555
18171SOL    HW257919  10.621   1.686   6.367  1.1113 -0.2344 -0.5102
18172SOL     OW57920   3.490   8.857   3.512  0.1969  0.0301  0.4030
18172SOL    HW157921   3.551   8.784   3.524 -0.8477 -0.3999  3.3596
18172SOL    HW257922   3.516   8.895   3.427  2.1318 -2.4164 -0.1841
18173SOL     OW57923   5.676   9.754   6.086  0.2458 -0.4286 -0.0559
18173SOL    HW157924   5.664   9.800   6.169  0.7437 -1.1286  0.4112
18173SOL    HW257925   5.588   9.745   6.051  0.1261  0.6754 -0.0350
18174SOL     OW57926   6.635   0.128   9.704 -0.5743 -0.0911  0.1479
18174SOL    HW157927   6.549   0.145   9.666 -0.8170 -1.6328  0.0106
18174SOL    HW257928   6.681   0.212   9.697 -2.1079  0.7767  0.3555
18175SOL     OW57929   5.859   1.624   3.127 -0.6284 -0.8124 -0.5101
18175SOL    HW157930   5.866   1.552   3.064  0.2909 -1.1809  0.0036
18175SOL    HW257931   5.795   1.593   3.191 -2.4282  0.0249 -1.8515
18176SOL     OW57932   3.083   2.474   6.114 -0.3552  0.3507  0.1225
18176SOL    HW157933   3.056   2.390   6.077 -0.5580  0.5527 -0.1958
18176SOL    HW257934   3.139   2.451   6.188  0.2048 -0.0636 -0.4256
18177SOL     OW57935   7.799   1.259   0.834  0.3400 -0.0820 -0.2422
18177SOL    HW157936   7.837   1.335   0.878  1.5574 -0.1409 -1.1740
18177SOL    HW257937   7.846   1.184   0.871 -0.7078 -0.3838  0.5164
18178SOL     OW57938  10.225   1.143  10.405  0.0669 -0.1715 -0.2137
18178SOL    HW157939  10.192   1.226  10.371 -0.7418 -0.5702 -0.4222
18178SOL    HW257940  10.198   1.078  10.340 -0.2491 -0.7421  0.4815
18179SOL     OW57941   2.994   9.964   3.776  0.1021 -0.4422  0.4476
18179SOL    HW157942   3.088   9.952   3.782 -0.0341 -1.2931  0.8271
18179SOL    HW257943   2.957   9.877   3.789 -0.7599 -0.0234  0.8329
18180SOL     OW57944   1.439  10.285  10.535  0.2820 -0.5901 -0.6424
18180SOL    HW157945   1.484  10.328  10.463  1.1931  1.2569  0.9799
18180SOL    HW257946   1.506  10.277  10.603 -1.5504  1.3423  1.4624
18181SOL     OW57947   6.926   5.617   5.815  0.5242 -0.1966 -0.1364
18181SOL    HW157948   6.909   5.683   5.882  0.9781 -0.0241 -0.1945
18181SOL    HW257949   7.003   5.570   5.847 -0.2983 -1.2542  0.3302
18182SOL     OW57950   1.165   9.318   5.398  0.1471  0.0837  0.3036
18182SOL    HW157951   1.165   9.223   5.392 -0.8787  0.1313 -0.5950
18182SOL    HW257952   1.188   9.337   5.489  0.9718 -1.0022  0.3228
18183SOL     OW57953   8.991   1.639   3.146 -0.2677 -0.5575  0.0008
18183SOL    HW157954   8.944   1.636   3.229 -1.6286 -1.6645 -0.7907
18183SOL    HW257955   9.070   1.690   3.165 -0.9179 -0.1825  1.7800
18184SOL     OW57956   9.927   4.387   5.984 -0.0192 -0.0553 -0.0512
18184SOL    HW157957   9.866   4.334   6.034 -0.7388  0.6413 -0.1810
18184SOL    HW257958   9.912   4.361   5.893 -0.2687  0.2813 -0.1020
18185SOL     OW57959   5.377   7.024   2.174 -0.2270  0.1003 -0.1267
18185SOL    HW157960   5.345   6.986   2.255  0.5237  0.8316  0.5250
18185SOL    HW257961   5.351   7.116   2.178  2.9987  1.0311  1.0239
18186SOL     OW57962   8.834   8.002   6.252 -0.3421 -0.5863  0.0124
18186SOL    HW157963   8.783   7.937   6.300  0.1349 -0.1848  1.0856
18186SOL    HW257964   8.769   8.051   6.202 -0.9506 -0.5275  0.8362
18187SOL     OW57965   2.415   5.614   7.209  0.3962  0.2601 -0.3218
18187SOL    HW157966   2.346   5.568   7.162 -0.5679  0.7939  0.5397
18187SOL    HW257967   2.412   5.577   7.298 -0.8140  2.3819  0.5654
18188SOL     OW57968   3.196   2.069   1.695 -0.2269  0.4394 -0.3126
18188SOL    HW157969   3.213   1.977   1.675  1.2727  0.6084  0.1863
18188SOL    HW257970   3.245   2.086   1.775 -1.1890  1.4521  0.0695
18189SOL     OW57971   0.504   9.103   5.237 -0.1654 -0.1730 -0.2580
18189SOL    HW157972   0.579   9.150   5.200  0.7207 -2.5266 -1.5222
18189SOL    HW257973   0.428   9.148   5.200  0.6410  1.1117 -0.3946
18190SOL     OW57974   7.179   0.662   3.813 -0.1322  0.1943 -0.3294
18190SOL    HW157975   7.215   0.644   3.900  0.3113  0.7530 -0.3958
18190SOL    HW257976   7.216   0.747   3.789 -0.9187  0.4336 -0.7085
18191SOL     OW57977  10.903   1.305   8.578  0.1238  0.0038 -0.2995
18191SOL    HW157978  10.965   1.246   8.620  0.9610  0.5853 -0.7228
18191SOL    HW257979  10.820   1.256   8.577  0.4152 -0.5215  0.8364
18192SOL     OW57980   0.235  10.943  10.859  0.5097  0.6703 -0.1236
18192SOL    HW157981   0.208  11.034  10.843  0.0651  0.5457 -0.0875
18192SOL    HW257982   0.191  10.892  10.791 -1.1404  0.1798  1.2658
18193SOL     OW57983   5.697   1.918   8.614 -0.0016 -0.0510 -0.0381
18193SOL    HW157984   5.658   1.859   8.549 -2.1088 -1.2679  2.2421
18193SOL    HW257985   5.666   2.005   8.588  0.3500 -0.3409 -1.4812
18194SOL     OW57986   9.924   3.129   4.067  0.7062  0.5128 -0.1596
18194SOL    HW157987   9.889   3.218   4.069  0.9080  0.5785  0.4736
18194SOL    HW257988  10.008   3.138   4.021  0.4320  0.5427 -0.6585
18195SOL     OW57989   2.290   8.696   6.307  0.8145 -0.3773  0.2532
18195SOL    HW157990   2.241   8.751   6.368 -0.8494  1.7532 -2.8674
18195SOL    HW257991   2.226   8.631   6.277  0.8959  0.1572 -1.1071
18196SOL     OW57992   6.196   3.434   3.401 -0.1101 -0.0091  0.0561
18196SOL    HW157993   6.232   3.440   3.489  1.2366 -1.1539 -0.4021
18196SOL    HW257994   6.272   3.427   3.344 -0.9836  0.0867 -1.1507
18197SOL     OW57995   2.645   9.904   5.127 -0.4589 -0.1658 -0.2908
18197SOL    HW157996   2.646   9.966   5.200 -1.3039  0.1172 -0.5205
18197SOL    HW257997   2.623   9.958   5.051  1.3407 -0.2881 -0.9174
18198SOL     OW57998   0.167   3.297   6.001  0.4882 -0.3073 -0.2261
18198SOL    HW157999   0.155   3.227   6.065 -0.2996  1.6069  1.7969
18198SOL    HW258000   0.225   3.360   6.045 -0.6768  1.4009 -1.0588
18199SOL     OW58001   7.639   4.698   9.174  0.1651 -0.6285  0.5086
18199SOL    HW158002   7.665   4.712   9.265  0.4887 -0.0747  0.3346
18199SOL    HW258003   7.680   4.770   9.126 -2.5253  0.8953  0.3760
18200SOL     OW58004   0.800   3.722   5.708  0.1453 -0.2245  0.4935
18200SOL    HW158005   0.725   3.774   5.678  0.5870 -0.5239 -1.1748
18200SOL    HW258006   0.778   3.632   5.684  1.3190 -0.2301 -0.6054
18201SOL     OW58007   1.182   0.506   7.312  0.2534  0.4344 -0.0451
18201SOL    HW158008   1.201   0.575   7.248  0.0159 -1.3902 -2.1519
18201SOL    HW258009   1.268   0.482   7.346  0.6079  0.0789 -1.1487
18202SOL     OW58010   4.943   3.152   1.907 -0.9929  0.2365 -0.2665
18202SOL    HW158011   4.983   3.159   1.820 -1.3940  0.1887 -0.4577
18202SOL    HW258012   4.872   3.089   1.895  0.0069 -1.0563  0.4897
18203SOL     OW58013   2.667   1.740   8.346  0.1418  0.9122  0.1785
18203SOL    HW158014   2.751   1.696   8.337  0.3438  1.3143  0.0859
18203SOL    HW258015   2.666   1.770   8.437  0.1128  0.9364  0.1701
18204SOL     OW58016   8.947   3.664   9.491  0.0987 -0.1140 -0.2578
18204SOL    HW158017   9.012   3.717   9.446  0.1982  0.3449  0.4194
18204SOL    HW258018   8.910   3.608   9.422  0.7553  0.0655 -0.7643
18205SOL     OW58019   5.716  10.578   0.623  0.1385 -0.3537  0.7709
18205SOL    HW158020   5.777  10.512   0.656 -0.2697 -1.3668 -0.4892
18205SOL    HW258021   5.694  10.550   0.534 -1.1736  0.6861  0.7368
18206SOL     OW58022   1.201   1.832   9.666  0.1018  0.3101 -0.0328
18206SOL    HW158023   1.148   1.808   9.590  0.5503 -0.1742 -0.1895
18206SOL    HW258024   1.191   1.758   9.726 -0.3306  0.7345  0.4240
18207SOL     OW58025   4.813   5.993   5.628  0.2338  0.3339 -0.5147
18207SOL    HW158026   4.907   5.997   5.645  0.3372  2.0891 -1.3531
18207SOL    HW258027   4.774   6.041   5.701  0.0598  0.4854 -0.7080
18208SOL     OW58028   6.004   5.262   0.249  0.1599 -0.1353  0.2765
18208SOL    HW158029   6.015   5.306   0.333 -1.8438 -0.9302  0.9941
18208SOL    HW258030   5.912   5.236   0.247 -0.2058  1.1146 -2.7920
18209SOL     OW58031   6.578   8.159   9.870  0.7642  0.1686  0.1468
18209SOL    HW158032   6.553   8.242   9.831 -1.4007 -0.4127  0.2350
18209SOL    HW258033   6.594   8.178   9.962 -0.4751  0.3469  0.3245
18210SOL     OW58034   1.899   1.947   2.355  0.1490 -0.5245 -0.3029
18210SOL    HW158035   1.899   2.018   2.290  1.3987  0.1267  0.3881
18210SOL    HW258036   1.860   1.985   2.433  1.4910 -0.3712  0.2994
18211SOL     OW58037   0.273   1.859   0.011  0.2042 -0.1454  0.1315
18211SOL    HW158038   0.355   1.892  -0.026  0.3567 -0.8952 -0.2232
18211SOL    HW258039   0.300   1.784   0.064 -0.2864 -0.5845 -0.2435
18212SOL     OW58040   7.461   5.005   2.445  0.3574 -0.0775  0.3651
18212SOL    HW158041   7.371   4.988   2.472 -0.0327 -0.1049 -0.9155
18212SOL    HW258042   7.508   5.022   2.526 -1.1036  1.3259  0.9493
18213SOL     OW58043   2.855   8.329  10.539 -0.4313 -0.4199  0.7667
18213SOL    HW158044   2.941   8.297  10.512  0.4724  1.1042  1.8167
18213SOL    HW258045   2.811   8.252  10.575  1.0036 -0.9247  1.4833
18214SOL     OW58046   7.076   3.805   3.005 -0.5961  0.0516  0.1890
18214SOL    HW158047   6.985   3.810   3.036 -0.1084  1.4838  1.4381
18214SOL    HW258048   7.090   3.888   2.960  0.6220  0.5650  1.4927
18215SOL     OW58049   1.540   0.665   4.961 -0.0641 -0.3093 -0.1609
18215SOL    HW158050   1.567   0.744   4.915  0.7097 -0.3086  0.2831
18215SOL    HW258051   1.539   0.597   4.894  1.7726 -0.4671 -0.0641
18216SOL     OW58052   8.059   0.952   1.383 -0.2828 -0.2144 -0.7436
18216SOL    HW158053   8.006   0.936   1.462  0.2393  0.7925 -0.1783
18216SOL    HW258054   8.097   0.867   1.362  2.5646  0.2015  2.2753
18217SOL     OW58055   3.182   3.168  10.704 -0.3342 -0.3824 -0.5154
18217SOL    HW158056   3.143   3.214  10.629  1.9081  0.0083 -1.4914
18217SOL    HW258057   3.227   3.236  10.753 -0.5032 -0.8864  0.3447
18218SOL     OW58058   4.759   7.638   6.759  0.0538 -0.9952  0.4031
18218SOL    HW158059   4.742   7.642   6.665 -0.3217 -1.0738  0.4674
18218SOL    HW258060   4.737   7.548   6.783 -1.6954 -0.4452  0.9260
18219SOL     OW58061   0.694   0.806   8.772  0.4353 -0.7269 -0.1409
18219SOL    HW158062   0.785   0.787   8.753  1.5896  0.5957  3.5424
18219SOL    HW258063   0.665   0.734   8.828 -0.1845 -0.2089  0.2280
18220SOL     OW58064   6.961   4.140   8.811 -0.5713  0.2591  0.1795
18220SOL    HW158065   7.028   4.159   8.746  0.8029  1.9497  2.0137
18220SOL    HW258066   6.880   4.175   8.773 -0.4173 -1.5746 -1.9363
18221SOL     OW58067   8.206   3.422   7.019  0.3427 -0.6911 -1.0748
18221SOL    HW158068   8.144   3.451   6.953  0.0491  2.6467  0.5876
18221SOL    HW258069   8.287   3.468   6.998  1.5726 -3.0524 -1.7070
18222SOL     OW58070   8.263   3.076   2.678 -0.5414 -0.0052  0.4929
18222SOL    HW158071   8.212   3.100   2.755 -1.3621 -1.2950  0.3601
18222SOL    HW258072   8.252   3.151   2.619  0.5801  1.2560  1.8445
18223SOL     OW58073   2.309   5.030   6.608 -0.2487 -0.1840  0.1599
18223SOL    HW158074   2.230   5.058   6.562 -0.6361 -0.0300  0.9006
18223SOL    HW258075   2.335   4.949   6.564 -0.9270 -0.3369  0.0228
18224SOL     OW58076   6.915   0.366   7.532  0.0291 -0.1105  0.2233
18224SOL    HW158077   6.861   0.397   7.604  1.0830  0.7573  0.6470
18224SOL    HW258078   6.859   0.375   7.455 -0.7631 -0.1427  0.7819
18225SOL     OW58079   1.332   8.534   7.388 -0.1761 -0.2790  0.3608
18225SOL    HW158080   1.237   8.535   7.402  0.1605 -0.0659  2.8122
18225SOL    HW258081   1.364   8.465   7.445  1.2840  0.4540  0.4510
18226SOL     OW58082   8.655   9.056   1.062  0.1936  0.3393 -0.4485
18226SOL    HW158083   8.631   9.127   1.122  0.8720  0.0776  0.1396
18226SOL    HW258084   8.601   8.982   1.089  1.1307 -0.0402  0.4162
18227SOL     OW58085   2.358   0.582  10.358  0.2282  0.2598  0.2636
18227SOL    HW158086   2.441   0.619  10.388 -0.1811  0.6729  0.8929
18227SOL    HW258087   2.297   0.598  10.430 -0.8585  1.5841 -0.9187
18228SOL     OW58088   7.343   2.501   2.273 -0.2425  0.5790  0.0650
18228SOL    HW158089   7.289   2.444   2.218  0.7290  1.2708 -1.6512
18228SOL    HW258090   7.406   2.442   2.314  0.1347  0.2469 -0.9526
18229SOL     OW58091   1.212   3.219   8.356 -0.0004  0.1267  0.1560
18229SOL    HW158092   1.132   3.241   8.308 -0.3128 -0.4924  0.3880
18229SOL    HW258093   1.220   3.125   8.346 -0.3557 -0.0868  1.7550
18230SOL     OW58094   8.340   2.267   6.713  0.6427  0.1804  0.0547
18230SOL    HW158095   8.274   2.305   6.771  0.8415  0.4232  0.1176
18230SOL    HW258096   8.301   2.184   6.684  0.2526  0.3873 -0.0130
18231SOL     OW58097   6.904   9.667  10.705 -0.3004 -0.2820  0.9867
18231SOL    HW158098   6.844   9.594  10.691  2.7092 -2.7509  0.4784
18231SOL    HW258099   6.933   9.658  10.795  0.5777 -0.1142  0.7262
18232SOL     OW58100   5.164   3.960   8.682  0.5736 -0.5422 -0.2455
18232SOL    HW158101   5.245   3.952   8.633  2.0962 -2.1906  2.4011
18232SOL    HW258102   5.188   3.936   8.772 -2.9783 -1.8971  0.4373
18233SOL     OW58103  10.651  10.850   6.782  0.3073 -0.6600  0.1622
18233SOL    HW158104  10.654  10.919   6.848  0.9543 -0.6284  0.1079
18233SOL    HW258105  10.623  10.894   6.702 -0.6572 -0.7342  0.4596
18234SOL     OW58106   2.058  10.741   4.040 -0.5863  0.9017 -0.1245
18234SOL    HW158107   2.017  10.666   4.084 -2.8990  0.8171 -2.2960
18234SOL    HW258108   2.125  10.702   3.984  2.1655  0.9879  2.9838
18235SOL     OW58109   5.504   7.124   1.343  0.7158 -0.2366 -0.2304
18235SOL    HW158110   5.456   7.101   1.264 -0.2829  0.9098  0.0204
18235SOL    HW258111   5.579   7.176   1.312  0.7676 -0.4670 -0.4860
18236SOL     OW58112   0.306   7.427   9.872 -0.5039  0.8355  0.0750
18236SOL    HW158113   0.373   7.407   9.938 -0.9461  0.0033  0.2779
18236SOL    HW258114   0.334   7.379   9.794 -0.5705  0.9355 -0.0120
18237SOL     OW58115   3.093   0.552   0.220  0.0993  0.1981 -0.2681
18237SOL    HW158116   3.062   0.629   0.268 -0.9034  0.6408 -1.6156
18237SOL    HW258117   3.181   0.577   0.190  0.4816  0.1521  0.7760
18238SOL     OW58118   8.483   2.562   1.776 -0.3175 -0.5500  0.0263
18238SOL    HW158119   8.425   2.492   1.805 -0.0037 -0.8512 -0.0715
18238SOL    HW258120   8.427   2.620   1.726 -0.5974 -0.6866  0.1793
18239SOL     OW58121   9.327  10.867   4.232  0.8468 -0.2760  0.2065
18239SOL    HW158122   9.318  10.943   4.289  1.4824 -0.2730  0.3077
18239SOL    HW258123   9.353  10.903   4.148 -0.6516 -0.2285 -0.2537
18240SOL     OW58124   2.696   1.321   7.544 -0.3423 -0.1537  0.6350
18240SOL    HW158125   2.771   1.355   7.594 -0.6767  1.1155  0.2986
18240SOL    HW258126   2.637   1.396   7.537 -0.2629 -0.2786 -1.7642
18241SOL     OW58127   2.591   0.693   8.972 -0.0402  0.0143 -0.4468
18241SOL    HW158128   2.526   0.763   8.968  1.4188  1.4194 -0.3136
18241SOL    HW258129   2.674   0.739   8.988  1.4996 -1.4269 -3.7496
18242SOL     OW58130   6.503   9.651   0.151  0.5216 -0.3662 -0.8057
18242SOL    HW158131   6.473   9.579   0.096 -1.5063 -1.7265  1.9485
18242SOL    HW258132   6.560   9.610   0.215 -1.3465  0.2614  1.3475
18243SOL     OW58133   3.468   7.890   2.393  0.4738 -0.3388  0.0824
18243SOL    HW158134   3.499   7.837   2.467  1.8918 -0.4254 -0.5635
18243SOL    HW258135   3.544   7.897   2.335  0.0314  1.6093 -0.2980
18244SOL     OW58136   1.787   4.815   7.829  0.3448 -0.0597 -0.1133
18244SOL    HW158137   1.736   4.894   7.844 -1.1878 -0.9330 -0.6388
18244SOL    HW258138   1.819   4.824   7.739  0.5073  0.1510 -0.0344
18245SOL     OW58139   9.989   0.999   9.545 -0.0279  0.0313 -0.4977
18245SOL    HW158140   9.929   1.051   9.491  1.0111  1.9780  0.1639
18245SOL    HW258141   9.959   1.013   9.634  0.4465 -0.2743 -0.2905
18246SOL     OW58142   8.483   4.103   2.723  0.3191  0.2740  0.3578
18246SOL    HW158143   8.403   4.148   2.749  0.0196 -0.2910  0.4020
18246SOL    HW258144   8.553   4.158   2.759  0.0176  1.7333 -1.1812
18247SOL     OW58145   9.755   0.871   0.586  0.0896  0.0439  0.4241
18247SOL    HW158146   9.841   0.865   0.545  0.0610  1.3394  0.1681
18247SOL    HW258147   9.728   0.962   0.573 -1.4723 -0.4277  0.1772
18248SOL     OW58148  10.408  10.327   0.981  0.3313 -0.0094 -0.1649
18248SOL    HW158149  10.370  10.262   1.040  0.1389  1.8390  1.8007
18248SOL    HW258150  10.491  10.351   1.022 -0.2468  1.9881 -0.1534
18249SOL     OW58151   8.938   0.386   9.252 -0.8858 -0.4789  0.3235
18249SOL    HW158152   9.000   0.358   9.319 -0.2401  0.6068  0.1804
18249SOL    HW258153   8.853   0.356   9.284 -0.3772 -1.4197  0.8220
18250SOL     OW58154   4.558   1.279  10.765 -0.4756  0.4824  0.0499
18250SOL    HW158155   4.588   1.248  10.679 -1.0725  1.6069 -0.5866
18250SOL    HW258156   4.603   1.223  10.828  0.2751 -0.1043 -0.9874
18251SOL     OW58157  10.404   5.947   1.085 -0.2758  0.1122  0.1337
18251SOL    HW158158  10.415   5.974   0.994 -0.5526  0.0570  0.0817
18251SOL    HW258159  10.492   5.923   1.114  0.0631  1.6164  0.3622
18252SOL     OW58160   7.763   6.826   3.546 -0.5215 -0.0713  0.0213
18252SOL    HW158161   7.768   6.865   3.459 -0.8005  1.4270  0.6591
18252SOL    HW258162   7.691   6.764   3.541 -0.4727 -0.0587 -0.8395
18253SOL     OW58163   9.327   4.543   7.568 -0.4030  0.2421  0.4800
18253SOL    HW158164   9.239   4.568   7.544 -1.2741 -3.0373  0.0178
18253SOL    HW258165   9.320   4.518   7.660  0.1183  0.2369  0.5199
18254SOL     OW58166   9.047   1.953   8.785 -0.0908 -0.2334 -0.1256
18254SOL    HW158167   9.134   1.959   8.825  0.3558 -1.1354 -0.9435
18254SOL    HW258168   8.987   1.978   8.855  0.9074  1.8736  0.0211
18255SOL     OW58169   8.719   9.747   7.228 -0.1236  0.1673  0.2341
18255SOL    HW158170   8.626   9.729   7.244 -0.7470  0.3592 -2.8951
18255SOL    HW258171   8.721   9.833   7.187  1.3654 -0.1771 -0.4730
18256SOL     OW58172   4.411   8.019   2.634  0.3544 -0.0505 -0.1936
18256SOL    HW158173   4.388   8.080   2.563 -1.0890 -0.7941 -0.3849
18256SOL    HW258174   4.411   8.073   2.713 -0.9843  0.1969 -0.3491
18257SOL     OW58175   5.546   5.946   8.668 -0.1994 -0.0492 -0.1828
18257SOL    HW158176   5.470   5.942   8.726 -0.4909  1.1395 -0.4857
18257SOL    HW258177   5.538   5.868   8.612 -0.0401 -1.0807  1.1978
18258SOL     OW58178   1.256  10.265   1.494 -0.4257  0.0880  0.2909
18258SOL    HW158179   1.223  10.200   1.432 -0.0989 -0.0742  0.2861
18258SOL    HW258180   1.207  10.247   1.575 -0.5581  0.0347  0.1982
18259SOL     OW58181   8.577   7.959   8.749 -0.0575 -0.2347 -0.3060
18259SOL    HW158182   8.598   8.043   8.789  0.4994 -1.0285  1.0566
18259SOL    HW258183   8.485   7.969   8.721 -0.0121  0.7972 -0.1044
18260SOL     OW58184   1.398   3.038   9.112  0.3685 -0.1302 -0.2325
18260SOL    HW158185   1.405   2.979   9.187 -0.1754 -1.8975 -1.5327
18260SOL    HW258186   1.486   3.039   9.074  0.9492  1.7261  1.1128
18261SOL     OW58187   8.430  10.897   4.546 -0.0478 -0.4261 -0.8019
18261SOL    HW158188   8.399  10.827   4.604 -1.9321  0.0001 -1.2582
18261SOL    HW258189   8.375  10.890   4.468 -0.9707  2.1984 -0.4320
18262SOL     OW58190  10.957   5.975   3.945 -0.2246 -0.3983 -0.8865
18262SOL    HW158191  10.916   6.042   3.999  2.2672 -0.2575  0.9025
18262SOL    HW258192  10.909   5.894   3.965 -1.0879  0.1951 -0.5694
18263SOL     OW58193   0.362   9.507   1.234 -0.1491 -0.0228  0.1168
18263SOL    HW158194   0.453   9.476   1.237 -0.7466 -1.8208  0.3704
18263SOL    HW258195   0.339   9.503   1.141 -0.2290 -0.3610  0.1503
18264SOL     OW58196   3.693   4.721   5.838 -0.1252 -0.0570 -0.0934
18264SOL    HW158197   3.629   4.736   5.907 -0.0093  4.0654 -0.8003
18264SOL    HW258198   3.641   4.684   5.766 -0.6874 -1.8972  1.2128
18265SOL     OW58199   1.613   4.771   1.962  0.4273  0.1608 -0.2134
18265SOL    HW158200   1.644   4.681   1.951 -0.4676  0.0475 -2.0022
18265SOL    HW258201   1.577   4.773   2.051  0.8118 -1.1416 -0.0190
18266SOL     OW58202   2.031   7.020   7.073 -0.3477  0.1677 -0.7455
18266SOL    HW158203   2.032   7.007   6.978  0.6755 -0.0259 -0.7146
18266SOL    HW258204   1.958   6.966   7.104 -0.6688  0.2085 -1.4161
18267SOL     OW58205   9.344   8.171   5.361  0.3348 -0.0530 -0.1509
18267SOL    HW158206   9.309   8.086   5.335 -0.0017  0.2323 -0.6414
18267SOL    HW258207   9.405   8.195   5.291 -1.1504  1.0672 -1.0999
18268SOL     OW58208   1.280   1.226   2.914 -0.1762 -0.0428 -0.1221
18268SOL    HW158209   1.284   1.275   2.996  1.0072  1.0408 -0.8102
18268SOL    HW258210   1.188   1.226   2.890 -0.6009 -0.7070  1.3932
18269SOL     OW58211  10.802   1.688   9.842 -0.0904 -0.2536 -0.1559
18269SOL    HW158212  10.787   1.741   9.920 -0.1759  0.4916 -0.6798
18269SOL    HW258213  10.733   1.713   9.782  1.0569  0.5113 -1.1782
18270SOL     OW58214  10.800   1.375   9.221 -0.5045 -0.1315 -0.1907
18270SOL    HW158215  10.887   1.386   9.181 -1.1247  1.1119 -1.2333
18270SOL    HW258216  10.764   1.297   9.178 -0.9067  0.8217 -1.6136
18271SOL     OW58217   2.862   6.169   1.871 -0.2563  0.1128 -0.4045
18271SOL    HW158218   2.834   6.166   1.963  1.2802  1.0507  0.1146
18271SOL    HW258219   2.790   6.213   1.826 -1.0943 -0.5006  0.3141
18272SOL     OW58220   1.485   7.633  10.952  0.2440 -0.3422  0.6733
18272SOL    HW158221   1.412   7.686  10.986  0.1437 -1.4862  2.3204
18272SOL    HW258222   1.442   7.563  10.903  0.3380  0.4245 -0.5214
18273SOL     OW58223   5.946   6.460   2.929  0.0383  0.0272  0.2652
18273SOL    HW158224   5.982   6.375   2.900 -1.0372 -0.2167 -0.3755
18273SOL    HW258225   6.023   6.515   2.943  0.6779 -0.5303 -0.9901
18274SOL     OW58226  10.101  10.687   0.982 -0.7060  0.4122  0.4259
18274SOL    HW158227  10.023  10.718   0.934 -0.5340 -0.0899 -0.1870
18274SOL    HW258228  10.162  10.760   0.976  0.5302 -0.7790 -2.9040
18275SOL     OW58229   4.670  10.622   5.399 -1.0598  0.3238  0.0529
18275SOL    HW158230   4.712  10.665   5.474  0.0283  0.9616 -0.9187
18275SOL    HW258231   4.646  10.694   5.341 -1.0923 -0.2401 -0.6367
18276SOL     OW58232   3.080   2.863   1.462  0.3923 -0.3511  0.3207
18276SOL    HW158233   2.993   2.833   1.434 -0.2012  3.2346 -1.9456
18276SOL    HW258234   3.061   2.928   1.530  1.3467 -0.2007  0.4419
18277SOL     OW58235   5.600   0.586   4.291  0.0387  0.4627  0.0060
18277SOL    HW158236   5.602   0.491   4.302 -1.5507  0.4400  0.2025
18277SOL    HW258237   5.670   0.618   4.348  0.3919 -0.5671  0.1644
18278SOL     OW58238  10.601  10.896   8.646 -0.3087 -0.4010  0.3540
18278SOL    HW158239  10.617  10.955   8.572 -0.5774 -0.9527 -0.1492
18278SOL    HW258240  10.510  10.911   8.669 -0.1524 -0.0489  0.7320
18279SOL     OW58241   0.591   0.526  10.905 -0.0947  0.1379  0.0973
18279SOL    HW158242   0.510   0.534  10.856  0.0972 -1.5155 -0.5269
18279SOL    HW258243   0.564   0.511  10.996 -0.4908 -0.3329 -0.0995
18280SOL     OW58244  10.057   6.585   7.232 -0.1340 -1.1328  0.3193
18280SOL    HW158245  10.069   6.498   7.193 -0.6249 -0.7904 -0.6034
18280SOL    HW258246   9.968   6.611   7.208  0.3957  0.0988 -0.3528
18281SOL     OW58247   1.713   4.739   3.416 -0.2374  0.2541 -0.1657
18281SOL    HW158248   1.772   4.798   3.463  0.2042 -2.0726  2.3229
18281SOL    HW258249   1.771   4.676   3.373 -0.7191  1.3169 -2.4406
18282SOL     OW58250   0.164   2.504   2.202  0.2075 -0.2269  0.1349
18282SOL    HW158251   0.212   2.441   2.149  0.2789 -1.5060  1.6993
18282SOL    HW258252   0.213   2.509   2.284 -1.9781 -1.0960  1.5285
18283SOL     OW58253   1.523   2.400  10.476 -0.5012 -0.3559 -0.2985
18283SOL    HW158254   1.549   2.308  10.475  0.3382 -0.1132 -2.2840
18283SOL    HW258255   1.505   2.418  10.568 -1.9127 -2.8330 -0.0481
18284SOL     OW58256   7.594   3.070   7.844 -0.1049 -0.0695 -0.0118
18284SOL    HW158257   7.682   3.081   7.809 -0.1653  0.0418 -0.1299
18284SOL    HW258258   7.550   3.153   7.825 -0.4958 -0.4271 -0.7085
18285SOL     OW58259   6.573   0.727   7.002 -0.0433 -0.6750 -0.3706
18285SOL    HW158260   6.567   0.639   6.965  1.1167 -0.0453 -2.1169
18285SOL    HW258261   6.651   0.725   7.056 -0.0468 -0.7267 -0.3671
18286SOL     OW58262   5.323   3.190  10.736 -0.0068 -0.0357  0.0693
18286SOL    HW158263   5.283   3.193  10.823  2.2772 -0.1579  1.1847
18286SOL    HW258264   5.297   3.105  10.701 -1.6325  0.3635  0.2810
18287SOL     OW58265   8.941   9.924   8.097  0.0011  0.2335 -0.5726
18287SOL    HW158266   9.006   9.954   8.160  0.4338 -0.8108 -0.5108
18287SOL    HW258267   8.900  10.004   8.064 -0.6422  0.7699  1.4739
18288SOL     OW58268   9.078   8.402   4.822  0.1176  0.4174  0.4617
18288SOL    HW158269   9.079   8.341   4.748  0.1804 -0.0718  0.8634
18288SOL    HW258270   9.149   8.464   4.804  0.4436  0.0086  0.3541
18289SOL     OW58271   2.854   7.620   5.841 -0.4388  0.0089  0.2272
18289SOL    HW158272   2.799   7.638   5.917  0.8430  0.3682  1.0753
18289SOL    HW258273   2.825   7.534   5.811  0.0324 -0.7777  1.9828
18290SOL     OW58274   0.111   1.937   2.928 -0.2203  0.0406 -0.0994
18290SOL    HW158275   0.188   1.912   2.876  0.3732 -0.4083  0.9847
18290SOL    HW258276   0.145   1.995   2.995 -0.9385  0.3632 -0.0082
18291SOL     OW58277   6.371   7.339   0.341 -0.2718  0.1599 -0.0738
18291SOL    HW158278   6.294   7.294   0.309  0.5924 -0.5004 -1.2598
18291SOL    HW258279   6.443   7.276   0.329  0.3070  0.4109  1.8544
18292SOL     OW58280   4.925   6.299   5.771  0.2183 -0.0559  0.6875
18292SOL    HW158281   5.020   6.286   5.772  0.2201 -0.0179  1.8674
18292SOL    HW258282   4.913   6.391   5.749  0.3777 -0.6175 -1.8488
18293SOL     OW58283   6.419   6.662   2.334 -0.3238  0.0232 -0.2619
18293SOL    HW158284   6.383   6.656   2.422 -0.0887 -0.6691 -0.2129
18293SOL    HW258285   6.511   6.688   2.347 -0.4443  0.4744 -0.3249
18294SOL     OW58286   6.922   3.033   8.019 -0.0070 -0.5526  0.5185
18294SOL    HW158287   6.954   2.951   8.059  3.0226 -1.1799 -2.9482
18294SOL    HW258288   6.868   3.004   7.946  0.9160  0.5375 -0.6100
18295SOL     OW58289  10.230   4.961   8.740 -0.3096 -0.9046 -0.3653
18295SOL    HW158290  10.175   4.902   8.791  1.3141 -1.1826  1.1200
18295SOL    HW258291  10.314   4.916   8.733  0.9849  1.2065  0.8482
18296SOL     OW58292   7.581   8.155   5.373  0.2624  0.5422  0.1348
18296SOL    HW158293   7.518   8.219   5.406 -0.2837 -0.2035  0.5578
18296SOL    HW258294   7.573   8.082   5.434  1.2949  0.3089 -0.0142
18297SOL     OW58295   6.820   5.340   0.700 -0.0919 -0.1188  0.1014
18297SOL    HW158296   6.757   5.268   0.709 -0.2586 -0.0805 -0.6942
18297SOL    HW258297   6.808   5.370   0.610  1.8015 -0.8026 -0.3996
18298SOL     OW58298   9.270   4.691  10.134 -0.4224  0.1615 -0.1176
18298SOL    HW158299   9.278   4.607  10.088 -1.6064 -0.4569  0.7844
18298SOL    HW258300   9.199   4.737  10.089 -1.7476 -0.5445  1.2110
18299SOL     OW58301   6.129   9.760  10.150 -0.4837  0.4430 -0.1454
18299SOL    HW158302   6.058   9.823  10.156  0.9019  1.9186  0.9044
18299SOL    HW258303   6.169   9.777  10.065  0.1107  1.2289  0.2873
18300SOL     OW58304   3.398   3.354   9.697  0.0774 -0.0551  0.1975
18300SOL    HW158305   3.361   3.396   9.775  0.4389  0.7624 -0.0605
18300SOL    HW258306   3.322   3.325   9.647 -0.1437 -2.2618  1.7394
18301SOL     OW58307   6.702   2.273   6.106  0.5601  0.0841  0.3033
18301SOL    HW158308   6.673   2.208   6.042  1.4144  0.4039 -0.4012
18301SOL    HW258309   6.674   2.357   6.070 -1.0372  0.1007  1.4750
18302SOL     OW58310   1.670   2.944   4.458 -0.3223  0.2318 -0.0218
18302SOL    HW158311   1.691   3.014   4.519  1.2017 -0.0243 -0.2386
18302SOL    HW258312   1.612   2.985   4.393 -1.5365  0.6267  1.2829
18303SOL     OW58313   2.036   9.419   2.982 -0.5272 -0.0531 -0.3084
18303SOL    HW158314   1.949   9.403   2.945 -0.6909 -2.0754  0.8868
18303SOL    HW258315   2.019   9.464   3.064 -0.5493 -1.5848  0.5524
18304SOL     OW58316   7.681  10.915   6.835 -1.1345  0.0737  0.1908
18304SOL    HW158317   7.724  10.835   6.863 -1.2060  0.0749  0.3059
18304SOL    HW258318   7.667  10.965   6.916 -1.0806  0.2056  0.1195
18305SOL     OW58319   9.890   2.951   1.231  0.0464 -0.3901 -0.4735
18305SOL    HW158320   9.889   2.971   1.325  1.2560  0.7775 -0.6991
18305SOL    HW258321   9.817   2.890   1.219 -0.7527  0.2330  1.0545
18306SOL     OW58322   3.982   9.891   9.481  0.8312 -0.2644  0.6321
18306SOL    HW158323   3.909   9.917   9.537  0.1093 -1.1494  0.1216
18306SOL    HW258324   3.968   9.798   9.465  1.5862 -0.2454 -0.1844
18307SOL     OW58325   5.054   2.932   1.476 -0.5516  0.0969 -0.3106
18307SOL    HW158326   5.105   2.936   1.394  0.0585 -1.1066 -0.0072
18307SOL    HW258327   4.964   2.920   1.447 -0.2664 -0.9460 -0.8242
18308SOL     OW58328   4.416   1.925   5.651 -0.4235 -0.5682  0.4565
18308SOL    HW158329   4.396   1.974   5.571 -0.2680  1.6209  1.7320
18308SOL    HW258330   4.421   1.833   5.622 -1.0492  0.1091 -1.9046
18309SOL     OW58331   7.024   9.358   5.151 -0.7376  0.2925  0.1093
18309SOL    HW158332   7.031   9.313   5.067 -1.0084 -1.2352  0.8827
18309SOL    HW258333   7.103   9.333   5.198 -1.1724  0.1445  0.7698
18310SOL     OW58334   4.006  10.704   6.557 -0.3876 -0.4396 -0.4658
18310SOL    HW158335   3.996  10.756   6.637 -1.4549  1.1842 -1.6213
18310SOL    HW258336   3.951  10.749   6.492 -0.8169 -2.6453 -1.6835
18311SOL     OW58337  10.261   1.052   8.041  0.1011 -0.0090  0.0477
18311SOL    HW158338  10.284   1.026   8.130 -1.1355 -1.1432  0.0521
18311SOL    HW258339  10.337   1.102   8.010  0.5868  0.2953  1.6833
18312SOL     OW58340   9.754   2.331   4.122  0.6769  0.2701  0.3933
18312SOL    HW158341   9.713   2.368   4.043  2.2507  0.1453 -0.4930
18312SOL    HW258342   9.790   2.247   4.093 -0.0456 -0.4861  1.6276
18313SOL     OW58343   4.062   2.728   2.026  0.3530  0.4054 -0.4952
18313SOL    HW158344   3.968   2.724   2.045  0.8935  0.4929  2.3810
18313SOL    HW258345   4.078   2.651   1.971 -1.0420 -0.7663  0.6826
18314SOL     OW58346   9.608  10.141   3.927  0.1401 -0.2101  0.6642
18314SOL    HW158347   9.688  10.193   3.939  0.7317 -1.0628  0.4676
18314SOL    HW258348   9.619  10.067   3.986 -1.0350  0.2626  1.4916
18315SOL     OW58349   1.187   7.570   5.035 -0.3121  0.5458 -0.2366
18315SOL    HW158350   1.118   7.630   5.008 -1.3688 -0.9639 -1.0048
18315SOL    HW258351   1.265   7.625   5.044 -1.7121  2.3483  1.1138
18316SOL     OW58352   2.383   2.769   2.257 -0.1171 -0.2806 -0.6346
18316SOL    HW158353   2.344   2.777   2.170 -0.5292 -0.2432 -0.4462
18316SOL    HW258354   2.310   2.746   2.314 -0.0411  0.7087 -0.1226
18317SOL     OW58355  10.875  10.813   4.330  0.5624 -0.0418 -0.3013
18317SOL    HW158356  10.830  10.731   4.307  1.3230 -0.2456 -1.0975
18317SOL    HW258357  10.908  10.798   4.418 -1.9230  0.5448  0.7839
18318SOL     OW58358   5.014   5.291   6.389  0.1299 -0.1630 -0.8976
18318SOL    HW158359   4.970   5.372   6.363 -3.0218 -0.9455  1.6484
18318SOL    HW258360   4.966   5.223   6.342 -0.0068 -0.8903  0.2947
18319SOL     OW58361   7.458   0.946   0.679 -0.5870  0.5984 -0.1545
18319SOL    HW158362   7.452   1.031   0.636 -0.2708  0.7852  0.1715
18319SOL    HW258363   7.420   0.960   0.766  1.4078  0.9318  0.6711
18320SOL     OW58364   4.389   2.376   6.888  0.0832 -0.4999  0.0249
18320SOL    HW158365   4.406   2.374   6.794  0.3153  1.1001  0.0160
18320SOL    HW258366   4.407   2.287   6.918 -1.8503 -1.5396 -1.7589
18321SOL     OW58367   6.592   4.086  10.909  0.1581 -0.5313 -0.0080
18321SOL    HW158368   6.563   4.031  10.982  0.0314 -3.3141 -2.0537
18321SOL    HW258369   6.513   4.134  10.883  0.7033  2.1843  2.9980
18322SOL     OW58370   7.201  10.129   9.953  0.3115 -0.3828 -0.3421
18322SOL    HW158371   7.285  10.131   9.907  0.3690 -3.7092 -0.5224
18322SOL    HW258372   7.198  10.211  10.002  2.6882  0.7525 -2.0046
18323SOL     OW58373   9.517   7.540   2.554  0.1505 -0.4824 -0.2150
18323SOL    HW158374   9.574   7.464   2.545  0.0252 -0.4844 -1.0075
18323SOL    HW258375   9.556   7.606   2.498 -1.8289 -1.1831 -2.5033
18324SOL     OW58376   9.943   3.476   3.331 -0.5064  0.3794 -0.3449
18324SOL    HW158377   9.853   3.446   3.320 -0.2975 -0.4922  0.2659
18324SOL    HW258378   9.980   3.474   3.242 -0.0622 -2.6110 -0.1279
18325SOL     OW58379   5.617   9.336   4.341  1.0830  0.0242 -0.1564
18325SOL    HW158380   5.704   9.316   4.309  1.1203  2.1371 -1.4124
18325SOL    HW258381   5.592   9.417   4.297 -2.0298 -1.2027 -0.8006
18326SOL     OW58382   7.275  10.420   2.161  0.0471 -0.4774  0.3693
18326SOL    HW158383   7.277  10.506   2.120 -1.3040 -0.6418 -0.0730
18326SOL    HW258384   7.303  10.360   2.091  0.2021 -0.4817  0.4355
18327SOL     OW58385   2.061   9.025  10.309 -0.1732 -0.0072  0.0509
18327SOL    HW158386   2.092   8.977  10.386  0.1835  0.6099  0.2975
18327SOL    HW258387   1.967   9.035  10.324 -0.3661 -1.1624 -0.3006
18328SOL     OW58388   7.714   2.586   6.130 -0.0197  0.1341  0.0039
18328SOL    HW158389   7.750   2.503   6.160 -0.3658  0.0066  0.0663
18328SOL    HW258390   7.789   2.635   6.098  0.5273  0.6578  1.9802
18329SOL     OW58391   4.399   5.712   7.583  0.3842 -0.8144  0.0636
18329SOL    HW158392   4.490   5.740   7.574 -0.5692  2.2185 -0.7899
18329SOL    HW258393   4.367   5.703   7.493 -0.7619  0.3751  0.3277
18330SOL     OW58394   2.572   8.995   2.546  0.2647  0.1936 -0.2387
18330SOL    HW158395   2.578   9.000   2.451  1.3991  1.1653 -0.1239
18330SOL    HW258396   2.491   9.042   2.567 -0.1052 -0.2189 -0.7307
18331SOL     OW58397   4.117   7.691   6.847 -0.3661 -0.2820 -0.5550
18331SOL    HW158398   4.025   7.703   6.825 -0.6326 -0.1761  0.5662
18331SOL    HW258399   4.155   7.779   6.841 -0.4894 -0.2164 -0.3786
18332SOL     OW58400   5.945   5.533   1.472 -0.0043  0.1948 -0.0577
18332SOL    HW158401   5.943   5.470   1.400  0.3332 -0.0339  0.1274
18332SOL    HW258402   5.982   5.483   1.546 -1.5870  0.0304  0.6472
18333SOL     OW58403   3.295   3.301  10.907  0.1244  0.1599  0.2271
18333SOL    HW158404   3.259   3.319  10.994 -0.4468 -2.7643  0.6621
18333SOL    HW258405   3.377   3.254  10.925 -1.5114 -3.1933 -0.7591
18334SOL     OW58406   6.405   7.596   3.949 -0.0193 -0.1435  0.1791
18334SOL    HW158407   6.469   7.613   3.880 -0.7272 -0.7860 -0.6439
18334SOL    HW258408   6.365   7.681   3.966 -0.7358 -0.2084 -1.1072
18335SOL     OW58409   8.257   1.226  10.651 -0.4538 -0.0316 -0.5456
18335SOL    HW158410   8.348   1.201  10.637  0.2784  0.9001  2.1516
18335SOL    HW258411   8.236   1.191  10.738 -1.9070  1.7979 -0.1371
18336SOL     OW58412   1.798   1.360   4.153 -0.8271  0.0122  0.5793
18336SOL    HW158413   1.869   1.386   4.211  0.9659 -0.7610 -1.2039
18336SOL    HW258414   1.777   1.439   4.103 -0.9835  0.1458  0.8561
18337SOL     OW58415   2.828   3.404   8.108  0.0125  0.1144 -0.0649
18337SOL    HW158416   2.807   3.477   8.051  3.2702 -1.0300 -2.8948
18337SOL    HW258417   2.880   3.443   8.179  1.0092  0.7039 -1.0985
18338SOL     OW58418   0.479   4.357   3.456 -0.0328  0.4695 -0.3580
18338SOL    HW158419   0.423   4.288   3.491 -0.0952  0.7975  0.1939
18338SOL    HW258420   0.420   4.432   3.443 -0.2530 -0.0004 -2.2617
18339SOL     OW58421   3.731   1.694   4.406 -0.1914  0.3892  0.0347
18339SOL    HW158422   3.705   1.759   4.471 -0.6730  0.3976 -0.1640
18339SOL    HW258423   3.725   1.610   4.452 -1.4940  0.2977 -0.2743
18340SOL     OW58424   4.195   2.609   6.728  0.5300 -0.1177  0.3843
18340SOL    HW158425   4.251   2.610   6.806  1.7382 -0.4393 -0.4571
18340SOL    HW258426   4.237   2.670   6.668  0.1273 -0.5605 -0.3590
18341SOL     OW58427   8.281   0.382   2.681 -0.1858  0.1329 -0.1851
18341SOL    HW158428   8.331   0.391   2.762 -1.0217  2.2357  0.1327
18341SOL    HW258429   8.199   0.341   2.708  0.2542 -0.8119 -0.2672
18342SOL     OW58430   8.871   6.919  10.374 -0.2173 -0.1666  0.5052
18342SOL    HW158431   8.816   6.851  10.336 -2.1634  1.5560  0.1479
18342SOL    HW258432   8.945   6.928  10.313 -1.0195 -0.5141 -0.5205
18343SOL     OW58433   8.413   7.326   8.240 -0.7720  0.3388 -0.4192
18343SOL    HW158434   8.340   7.332   8.177 -0.0148  3.8928 -1.0459
18343SOL    HW258435   8.386   7.383   8.312  0.6018  0.2202  0.1864
18344SOL     OW58436   6.165   7.872   2.873 -0.1731  0.2223  0.0593
18344SOL    HW158437   6.116   7.942   2.917  0.0794 -0.5670  1.6423
18344SOL    HW258438   6.227   7.918   2.816 -2.2528  1.2450 -1.4390
18345SOL     OW58439   7.779   3.783   8.888 -0.1264 -0.1734 -0.1027
18345SOL    HW158440   7.783   3.873   8.855  1.5024  0.3920  1.5057
18345SOL    HW258441   7.691   3.775   8.925 -0.0790  0.9767  0.2782
18346SOL     OW58442   6.359   6.472   9.144 -0.5207  0.2837 -0.2896
18346SOL    HW158443   6.415   6.434   9.076  0.6152 -1.4555  1.5696
18346SOL    HW258444   6.270   6.459   9.112  0.0010 -0.3552 -1.5172
18347SOL     OW58445   7.920   0.034   6.732  0.3495 -0.2044  0.1520
18347SOL    HW158446   7.832   0.010   6.760  0.1864 -0.3238 -0.4582
18347SOL    HW258447   7.977  -0.029   6.775  0.2282  0.4906  1.3512
18348SOL     OW58448   0.935  10.816   9.973 -0.8944 -0.0594 -0.6500
18348SOL    HW158449   1.019  10.826  10.018 -0.4503 -0.8504 -1.2955
18348SOL    HW258450   0.873  10.793  10.042 -0.8339  1.6972  0.0187
18349SOL     OW58451   8.514  10.869   6.721  0.3008 -0.5273 -0.0099
18349SOL    HW158452   8.587  10.918   6.761 -0.4565  0.2955  0.3887
18349SOL    HW258453   8.442  10.932   6.718 -0.5415 -1.4722  0.0368
18350SOL     OW58454   9.292   1.100  10.268 -0.1806  0.2661 -0.0995
18350SOL    HW158455   9.257   1.148  10.343  1.6998 -0.1506  1.0819
18350SOL    HW258456   9.232   1.121  10.196 -2.3864  0.1799  1.6395
18351SOL     OW58457   5.461   6.822   7.208 -0.0611  0.2965 -0.3793
18351SOL    HW158458   5.516   6.793   7.135 -0.9314 -0.5373 -0.7139
18351SOL    HW258459   5.493   6.910   7.229 -0.0264  0.6773 -1.9868
18352SOL     OW58460   4.423   7.555   2.877  0.4228  0.2793  0.4996
18352SOL    HW158461   4.509   7.547   2.917  0.2546 -0.2840  0.7517
18352SOL    HW258462   4.407   7.470   2.836 -0.8231 -0.2775  2.0934
18353SOL     OW58463   0.744   7.321   9.779 -0.3558 -0.0501  0.3161
18353SOL    HW158464   0.686   7.392   9.751  0.2770 -0.6698 -2.7731
18353SOL    HW258465   0.691   7.242   9.768  0.5750 -0.4879 -1.1987
18354SOL     OW58466   9.062  10.181   1.197 -0.3930 -0.5016 -0.3666
18354SOL    HW158467   9.099  10.264   1.227 -1.2411 -1.2219  2.9122
18354SOL    HW258468   8.970  10.200   1.180  0.0392 -0.1476 -2.3881
18355SOL     OW58469   3.024   1.645   5.250 -0.3162 -0.0935 -0.3911
18355SOL    HW158470   2.985   1.656   5.164 -0.5517 -0.8443 -0.3840
18355SOL    HW258471   2.977   1.706   5.307 -1.5485 -1.0662 -0.3582
18356SOL     OW58472   3.086   7.235   4.044 -0.5652 -0.4024  0.4165
18356SOL    HW158473   3.174   7.254   4.012  0.5209 -0.6962  3.1140
18356SOL    HW258474   3.063   7.151   4.005 -0.0014  0.0851 -0.9719
18357SOL     OW58475   9.199   4.937   8.665 -0.2782 -0.0732 -0.0537
18357SOL    HW158476   9.139   4.863   8.658 -0.5842  0.0790  0.7593
18357SOL    HW258477   9.150   5.002   8.717  0.5962  0.0411  0.6386
18358SOL     OW58478   8.459   7.921   5.675 -0.1108  0.2408  1.0826
18358SOL    HW158479   8.497   8.008   5.687 -0.5824  0.3614  1.6927
18358SOL    HW258480   8.514   7.864   5.728  0.5834  0.0610  0.1845
18359SOL     OW58481  10.091   6.541   2.745 -0.1551 -0.0164  0.1887
18359SOL    HW158482  10.169   6.593   2.765 -0.4450 -0.4219  2.5441
18359SOL    HW258483  10.122   6.451   2.739 -0.2029  0.0053 -0.4497
18360SOL     OW58484   2.962   5.091   0.067  0.5340 -1.2604 -0.1676
18360SOL    HW158485   3.017   5.116   0.141  2.4475 -1.8457 -1.3512
18360SOL    HW258486   2.921   5.173   0.037  2.3566 -0.4707 -0.5249
18361SOL     OW58487   1.585   3.382   3.043 -0.0195 -0.1168  0.6705
18361SOL    HW158488   1.595   3.376   2.948 -0.7445 -0.6866  0.6252
18361SOL    HW258489   1.663   3.339   3.078 -0.2798 -0.8522  0.3378
18362SOL     OW58490   1.148   8.687   3.042  0.6148  0.1605  0.1088
18362SOL    HW158491   1.075   8.652   2.992  0.6849 -0.9056  0.7371
18362SOL    HW258492   1.224   8.676   2.985  1.2870 -4.1813  1.6888
18363SOL     OW58493   3.384   1.031   4.486  0.0960 -0.0014 -0.3783
18363SOL    HW158494   3.351   0.969   4.421  0.2534  1.0303 -1.4698
18363SOL    HW258495   3.357   0.994   4.570 -1.2985 -0.6698 -1.0997
18364SOL     OW58496   1.716   3.892   4.499 -0.6174  0.7232  0.2962
18364SOL    HW158497   1.673   3.923   4.419  0.1822  0.7248 -0.1336
18364SOL    HW258498   1.651   3.907   4.568 -1.9468 -0.8292 -0.5944
18365SOL     OW58499   8.213   9.565   4.458 -0.0885  0.0815  0.4258
18365SOL    HW158500   8.124   9.579   4.426 -0.1411 -0.2641  0.4198
18365SOL    HW258501   8.237   9.478   4.427  1.4561  1.4042 -2.3765
18366SOL     OW58502   0.160   5.937   6.576  0.1762 -0.3459  0.6933
18366SOL    HW158503   0.195   6.026   6.568 -0.8508 -0.1757 -2.4202
18366SOL    HW258504   0.076   5.948   6.620 -0.9205  0.4903 -1.5714
18367SOL     OW58505   8.865   9.767   1.792  1.0517 -0.1796 -0.2245
18367SOL    HW158506   8.820   9.778   1.708  2.1003  0.6097 -0.6912
18367SOL    HW258507   8.835   9.682   1.824 -0.7263  0.3103 -0.5495
18368SOL     OW58508   9.964  10.635   6.840 -0.5085  0.6967  0.2466
18368SOL    HW158509  10.058  10.637   6.857 -0.0754  0.0228 -1.9258
18368SOL    HW258510   9.926  10.594   6.919  1.0815  0.3448  0.8388
18369SOL     OW58511   4.805   2.956   7.593 -0.0074 -0.1129 -0.0980
18369SOL    HW158512   4.785   3.008   7.515 -0.4459 -0.8568 -0.4830
18369SOL    HW258513   4.757   2.874   7.581 -0.2525 -0.1533  1.0524
18370SOL     OW58514  10.225   0.916   4.667 -0.2507  0.1209  0.3061
18370SOL    HW158515  10.151   0.871   4.627  2.3053 -2.5114 -1.6375
18370SOL    HW258516  10.257   0.855   4.733 -0.1409  1.4916  1.5409
18371SOL     OW58517   3.743   6.876   3.707  0.1233  0.1428 -0.2536
18371SOL    HW158518   3.669   6.904   3.762 -0.2903  1.6024 -1.5232
18371SOL    HW258519   3.704   6.813   3.646 -0.1978  1.3031 -1.2611
18372SOL     OW58520   9.627   8.574   1.321  0.4755 -0.0498  0.0265
18372SOL    HW158521   9.547   8.568   1.372  0.1565 -0.1430 -0.4863
18372SOL    HW258522   9.690   8.519   1.368  0.2849  0.1407  0.5054
18373SOL     OW58523   8.411   6.030  10.677 -0.4359 -0.8711 -0.2505
18373SOL    HW158524   8.394   5.981  10.758 -0.6709  2.2525  1.6544
18373SOL    HW258525   8.325   6.060  10.648 -0.2630 -1.3553 -1.3153
18374SOL     OW58526   3.205   8.419   1.214  0.3713 -0.3036 -0.3680
18374SOL    HW158527   3.174   8.450   1.299 -2.2500 -1.2896 -0.9334
18374SOL    HW258528   3.295   8.391   1.231 -0.2840 -0.9988  2.2154
18375SOL     OW58529   5.440   2.642   8.210  0.4654  0.6862  0.2356
18375SOL    HW158530   5.365   2.698   8.191  0.7428  0.8071 -0.4890
18375SOL    HW258531   5.500   2.656   8.137 -0.4431 -2.2754 -1.1361
18376SOL     OW58532   5.634   0.498   4.630  0.2208 -0.6745  0.2492
18376SOL    HW158533   5.604   0.563   4.693  2.0292 -1.6349  2.1696
18376SOL    HW258534   5.711   0.538   4.589  1.3599 -1.5408  1.4612
18377SOL     OW58535   0.152   4.553   6.566  0.0375 -0.3544  0.0115
18377SOL    HW158536   0.245   4.554   6.543  0.1427 -1.8670  0.3406
18377SOL    HW258537   0.148   4.507   6.650 -0.6338  2.7960  1.7896
18378SOL     OW58538   8.914   6.244   1.624 -0.2734  0.0452 -0.1126
18378SOL    HW158539   8.861   6.166   1.609 -0.9844  0.8640 -1.9936
18378SOL    HW258540   8.872   6.288   1.697 -0.4846 -0.7871  0.2757
18379SOL     OW58541   1.804   0.878   7.614  0.0335 -0.5661 -0.0527
18379SOL    HW158542   1.762   0.793   7.600 -0.1528 -0.5314  0.2784
18379SOL    HW258543   1.844   0.870   7.701  1.4743 -0.9143 -0.7349
18380SOL     OW58544   2.354   6.337   8.054 -0.0867 -0.6106 -0.2779
18380SOL    HW158545   2.346   6.431   8.037  0.1802 -0.5086  0.1631
18380SOL    HW258546   2.387   6.300   7.972  0.7446 -0.1868 -0.1371
18381SOL     OW58547   5.723   3.909   9.964 -0.0848 -0.1217  0.3845
18381SOL    HW158548   5.689   3.931  10.051 -0.3694  1.1396 -0.0321
18381SOL    HW258549   5.815   3.888   9.979 -0.1066  0.1964  0.9811
18382SOL     OW58550   6.673   2.013   7.121  0.0796  0.1500  0.5479
18382SOL    HW158551   6.656   1.919   7.118  4.1568 -0.6822  0.8726
18382SOL    HW258552   6.652   2.038   7.210 -1.8980 -0.2404  0.2128
18383SOL     OW58553   9.201   5.560   7.020 -0.0545 -0.5628  0.1512
18383SOL    HW158554   9.114   5.580   6.986  0.5589  0.9726 -0.5494
18383SOL    HW258555   9.242   5.505   6.953 -0.1296 -0.4582  0.0198
18384SOL     OW58556   7.241   1.642   4.211  0.0178 -0.1554 -0.1972
18384SOL    HW158557   7.156   1.615   4.177  0.5135  0.7684 -2.2479
18384SOL    HW258558   7.227   1.655   4.305 -1.7193 -1.4733 -0.2684
18385SOL     OW58559   2.657   0.946   8.590 -1.1143 -0.3774  0.7446
18385SOL    HW158560   2.683   0.965   8.680  1.0854  0.8413 -0.0962
18385SOL    HW258561   2.592   0.876   8.597 -0.9215 -0.3333  3.2546
18386SOL     OW58562   5.884   1.247   6.949  0.6044  0.4156  0.0465
18386SOL    HW158563   5.796   1.282   6.965  0.4292  0.3046 -0.6642
18386SOL    HW258564   5.943   1.321   6.967  0.4720  0.0318  2.0684
18387SOL     OW58565   4.870   2.306   2.872  0.1062  0.0604 -0.1277
18387SOL    HW158566   4.825   2.265   2.946  0.6834 -0.9710 -0.3362
18387SOL    HW258567   4.860   2.244   2.800  1.4381  0.0344 -0.3111
18388SOL     OW58568   2.720   8.125   4.726  0.4947  0.4874  0.4411
18388SOL    HW158569   2.658   8.179   4.676  1.4725  1.2831  0.0800
18388SOL    HW258570   2.690   8.131   4.816 -1.0258 -0.5934  0.0256
18389SOL     OW58571   6.597   6.418   8.347 -0.0742 -0.5240 -0.7383
18389SOL    HW158572   6.552   6.381   8.424 -0.0490  1.2550  0.1490
18389SOL    HW258573   6.527   6.431   8.283 -0.6149  0.9420  0.1389
18390SOL     OW58574   9.355   0.844   7.922 -0.5275  0.0189  0.3465
18390SOL    HW158575   9.273   0.864   7.968 -0.1770  2.5786 -0.1154
18390SOL    HW258576   9.408   0.923   7.931  1.1920 -0.9703 -0.9036
18391SOL     OW58577   6.873   0.019   5.082 -0.4287  0.0394 -0.1308
18391SOL    HW158578   6.866   0.026   5.177  0.4295 -1.0460  0.0226
18391SOL    HW258579   6.810  -0.048   5.058 -0.6201  0.2873 -0.3225
18392SOL     OW58580   7.630   2.196   8.509 -0.0171  0.0118 -0.0684
18392SOL    HW158581   7.706   2.243   8.544  0.5472 -1.4226  0.6827
18392SOL    HW258582   7.661   2.159   8.426 -0.1172  0.0358 -0.1155
18393SOL     OW58583   1.781   9.326   2.915  0.3380  0.1912  0.1322
18393SOL    HW158584   1.809   9.341   2.824 -0.7595  2.9750  0.2102
18393SOL    HW258585   1.689   9.304   2.909  0.3162  0.1600  0.5493
18394SOL     OW58586   1.305   9.155   0.319  0.2119 -0.0087  0.2037
18394SOL    HW158587   1.288   9.202   0.400 -4.4291 -0.5560 -0.3462
18394SOL    HW258588   1.275   9.213   0.249  0.3219 -1.2169 -0.8795
18395SOL     OW58589   8.722   2.431   5.985 -0.2689 -0.5208  0.8586
18395SOL    HW158590   8.764   2.409   5.902 -0.4513  0.0291  0.6191
18395SOL    HW258591   8.656   2.362   5.997  0.5085 -1.2250  1.1036
18396SOL     OW58592   0.399  10.547   8.418  0.6325 -0.3158  0.3227
18396SOL    HW158593   0.424  10.598   8.494  2.4677 -0.8178  0.0812
18396SOL    HW258594   0.452  10.467   8.423  0.3749 -0.6119 -1.1727
18397SOL     OW58595   0.027   6.388   0.012  0.4662  0.2499 -0.0630
18397SOL    HW158596  -0.064   6.391  -0.018  0.4482  1.1333  0.0507
18397SOL    HW258597   0.049   6.480   0.028  1.4683  0.0608 -0.3631
18398SOL     OW58598   7.993   2.064   4.913  0.1880  0.7236  0.7794
18398SOL    HW158599   8.079   2.105   4.910  0.6899 -0.3886 -1.0391
18398SOL    HW258600   7.932   2.135   4.891  0.7554  1.2253  0.8009
18399SOL     OW58601  10.897   6.280   7.181  0.0877 -0.3850  0.5638
18399SOL    HW158602  10.863   6.191   7.170  1.3601 -0.7896 -0.2582
18399SOL    HW258603  10.820   6.336   7.178 -1.0850 -1.6471  3.9825
18400SOL     OW58604  10.947   4.705   8.847  0.4507  0.1371 -0.4703
18400SOL    HW158605  11.002   4.654   8.788  0.3520  1.4611 -1.7271
18400SOL    HW258606  11.009   4.764   8.892  0.3503  0.0440 -0.2066
18401SOL     OW58607   1.241   8.007  10.947 -0.0044  0.0381 -0.4958
18401SOL    HW158608   1.248   7.921  10.988 -0.7132 -0.0540 -0.5625
18401SOL    HW258609   1.162   8.045  10.985 -0.4036  0.1424 -1.4307
18402SOL     OW58610   9.565   1.918   1.775  0.0497  0.3883  0.2542
18402SOL    HW158611   9.509   1.841   1.766  0.7847 -0.2188  0.7947
18402SOL    HW258612   9.505   1.993   1.768 -0.7557 -0.2388  0.3891
18403SOL     OW58613   1.643   3.850   2.607 -0.0937 -0.1962 -0.4261
18403SOL    HW158614   1.580   3.778   2.616 -0.9446  0.2277 -2.7206
18403SOL    HW258615   1.596   3.927   2.638 -0.2449 -0.1164 -0.8471
18404SOL     OW58616   2.970   4.849   5.889 -0.0107 -0.5462 -0.3292
18404SOL    HW158617   2.969   4.835   5.984 -0.0394 -2.5037 -0.5844
18404SOL    HW258618   3.063   4.861   5.869 -0.1446  1.3777  0.1252
18405SOL     OW58619   7.959   4.285   3.432 -0.1501  0.0389  0.3501
18405SOL    HW158620   7.989   4.368   3.470  0.4094  0.4965 -1.0579
18405SOL    HW258621   7.912   4.311   3.352  1.9981 -1.1353 -1.3341
18406SOL     OW58622   5.714  10.970   6.243  0.0399  0.4076 -0.1013
18406SOL    HW158623   5.715  10.976   6.147 -0.8589  2.8642 -0.0015
18406SOL    HW258624   5.805  10.985   6.269  0.5668 -1.7693 -0.6116
18407SOL     OW58625   2.569   3.638   6.561  0.2377  0.1568  0.5038
18407SOL    HW158626   2.540   3.654   6.471 -0.0971 -0.8711  0.4265
18407SOL    HW258627   2.580   3.726   6.598 -0.5280  0.5776 -0.2484
18408SOL     OW58628   5.165   9.755   0.528 -0.0260 -0.0620 -0.2087
18408SOL    HW158629   5.212   9.688   0.576  3.0973  2.2471  0.0893
18408SOL    HW258630   5.223   9.778   0.455 -1.2887  1.8539 -0.6540
18409SOL     OW58631   1.182   8.469   3.246  0.2507  0.2132 -0.2288
18409SOL    HW158632   1.227   8.473   3.330 -0.0747  1.0989 -0.0925
18409SOL    HW258633   1.129   8.549   3.243 -0.5237 -0.3158 -0.8310
18410SOL     OW58634   6.387   7.672   5.356 -0.1079 -0.3456  0.0702
18410SOL    HW158635   6.444   7.621   5.414  0.8769  0.0205 -0.5635
18410SOL    HW258636   6.428   7.664   5.270 -1.8121 -1.2537 -0.6587
18411SOL     OW58637   6.996   2.544   8.244 -0.0887  0.3358 -0.6074
18411SOL    HW158638   6.956   2.560   8.330  0.9779 -0.8002  0.1233
18411SOL    HW258639   7.024   2.452   8.248 -0.2600  0.2101 -2.2706
18412SOL     OW58640   3.306   8.641   7.664  0.0537  1.1841 -0.1774
18412SOL    HW158641   3.223   8.644   7.713  0.7547 -0.1149  1.1122
18412SOL    HW258642   3.281   8.664   7.574 -1.6154  1.4043  0.3172
18413SOL     OW58643   6.215   4.511   5.441  0.2924 -0.1792 -0.2365
18413SOL    HW158644   6.259   4.458   5.507  0.7580  0.1511 -0.2768
18413SOL    HW258645   6.140   4.549   5.488  0.0895 -0.6822 -0.1486
18414SOL     OW58646   3.948   7.352   3.984 -0.3735  0.1453  0.8252
18414SOL    HW158647   4.032   7.306   3.991 -1.1929 -1.8834 -1.7636
18414SOL    HW258648   3.970   7.437   3.947  0.6726  0.0461  1.2186
18415SOL     OW58649   2.602   6.805   4.359  0.1453  0.4786  0.1451
18415SOL    HW158650   2.637   6.772   4.276  0.9825  2.3794 -0.2870
18415SOL    HW258651   2.605   6.730   4.418  0.4748 -0.6386 -1.2469
18416SOL     OW58652   4.517   8.299   1.134  0.3609  0.1744  0.2821
18416SOL    HW158653   4.469   8.290   1.216 -0.0997 -0.5483 -0.0670
18416SOL    HW258654   4.456   8.271   1.066  0.7281  0.8012 -0.3162
18417SOL     OW58655   5.373   9.732   0.061 -0.5608  0.5123 -0.5467
18417SOL    HW158656   5.403   9.641   0.054 -1.4965  0.0019  1.6219
18417SOL    HW258657   5.308   9.741  -0.009 -0.8675 -0.6488 -0.4236
18418SOL     OW58658   6.055   7.127   6.205 -0.5064 -0.5063  0.3087
18418SOL    HW158659   6.056   7.140   6.110 -1.9809 -2.4577 -0.0199
18418SOL    HW258660   6.044   7.215   6.241 -0.9623  0.1583 -1.3821
18419SOL     OW58661   6.779   5.461   7.410  0.6559 -0.0426  0.0829
18419SOL    HW158662   6.773   5.424   7.498 -0.0147  0.2082  0.1474
18419SOL    HW258663   6.869   5.446   7.383  0.2213 -2.3222 -0.1632
18420SOL     OW58664   4.648   3.258   0.661 -0.8341  0.1910 -0.3143
18420SOL    HW158665   4.689   3.241   0.746 -1.0973 -0.2973 -0.2792
18420SOL    HW258666   4.705   3.322   0.619 -0.4290  0.0548  0.0227
18421SOL     OW58667   7.793   9.800   3.036  0.0127  0.2589  0.5101
18421SOL    HW158668   7.750   9.886   3.035  0.2424  0.3999 -2.8081
18421SOL    HW258669   7.877   9.815   2.994 -0.2805 -1.7645 -0.8318
18422SOL     OW58670  10.213   4.092   8.598 -0.2536 -0.3480  0.0156
18422SOL    HW158671  10.233   3.998   8.594  1.1618 -0.0198 -0.6198
18422SOL    HW258672  10.168   4.102   8.682  0.6206 -1.4147  0.6346
18423SOL     OW58673   2.555   3.786   5.965 -0.3722 -0.1577 -0.2234
18423SOL    HW158674   2.587   3.717   5.906  0.3649  0.5179 -0.6137
18423SOL    HW258675   2.619   3.789   6.036 -0.9000 -0.5075  0.2683
18424SOL     OW58676   0.595   3.354   2.559 -0.6017  0.2475 -0.0526
18424SOL    HW158677   0.579   3.365   2.653  0.7477 -0.3686  0.2554
18424SOL    HW258678   0.607   3.260   2.548  0.6591  0.4633 -0.6128
18425SOL     OW58679   0.654   9.077   4.015  0.3710 -0.2753 -0.0950
18425SOL    HW158680   0.617   9.164   4.001  0.5463 -0.5112 -2.1934
18425SOL    HW258681   0.748   9.090   4.005  0.1966 -1.2229 -3.5913
18426SOL     OW58682   3.622   5.602   9.496 -0.5373 -0.3173  0.0457
18426SOL    HW158683   3.597   5.649   9.417  0.9374 -1.2366 -0.9826
18426SOL    HW258684   3.546   5.548   9.518 -1.0018  0.0549 -0.6583
18427SOL     OW58685   3.937   1.908   9.406 -0.6116  0.8006  0.3551
18427SOL    HW158686   3.944   1.966   9.330  1.2429 -0.1653 -0.2422
18427SOL    HW258687   3.889   1.832   9.374 -0.2903  0.6215  0.3044
18428SOL     OW58688   5.462   4.603   6.622 -0.0183 -1.0272  0.3875
18428SOL    HW158689   5.450   4.515   6.656  0.8547 -1.1292  0.4293
18428SOL    HW258690   5.418   4.601   6.536 -2.4431 -0.6892  1.5760
18429SOL     OW58691   0.305   0.003   7.801 -0.0400  0.6428  0.1489
18429SOL    HW158692   0.322  -0.051   7.878 -1.2485 -2.0245 -1.4101
18429SOL    HW258693   0.277   0.087   7.836  0.9722 -0.0206  2.6120
18430SOL     OW58694   3.710   3.174   8.523 -0.0002  0.7518 -0.4315
18430SOL    HW158695   3.752   3.137   8.446 -0.6411 -0.3580 -0.2576
18430SOL    HW258696   3.628   3.210   8.489 -0.4069  0.0241 -0.2308
18431SOL     OW58697   2.466   2.315   0.110  0.3135  0.5376 -0.0761
18431SOL    HW158698   2.379   2.337   0.143 -0.6530  0.6899 -2.6373
18431SOL    HW258699   2.504   2.399   0.085  1.4141  0.5236  1.5013
18432SOL     OW58700   2.553   2.386   3.147  0.2490 -0.6716 -0.0581
18432SOL    HW158701   2.506   2.316   3.100  0.7573 -2.3219  1.7953
18432SOL    HW258702   2.599   2.434   3.079  1.2398 -3.2132 -1.2436
18433SOL     OW58703   3.490   4.824   6.646 -0.4729 -0.2081 -0.1106
18433SOL    HW158704   3.584   4.833   6.632 -0.6566  0.2254 -1.0753
18433SOL    HW258705   3.451   4.829   6.558 -1.4556  0.3282  0.3459
18434SOL     OW58706   2.986   7.295   8.292 -1.1422  0.0687  0.1504
18434SOL    HW158707   2.987   7.214   8.343 -1.8425 -1.0206 -1.5278
18434SOL    HW258708   3.078   7.313   8.275 -1.0326 -0.9095 -0.3029
18435SOL     OW58709   1.809   6.698   2.548  0.4272  0.4783  0.4966
18435SOL    HW158710   1.775   6.757   2.480 -1.7423 -0.1616  0.9711
18435SOL    HW258711   1.730   6.662   2.590  1.7260 -0.1184  2.5050
18436SOL     OW58712   8.477   8.145  10.752 -0.2505 -0.1769 -0.5293
18436SOL    HW158713   8.459   8.098  10.833 -0.3516  1.1401  0.2157
18436SOL    HW258714   8.571   8.165  10.756  0.0933 -1.4934 -1.4845
18437SOL     OW58715   8.593   6.187   0.065 -0.4763  0.7577  0.1234
18437SOL    HW158716   8.551   6.137   0.135 -1.1399 -1.0832 -1.5486
18437SOL    HW258717   8.580   6.279   0.090 -4.0382  0.2082  0.5217
18438SOL     OW58718   4.120   2.328   0.724 -0.0825 -0.5430  0.0953
18438SOL    HW158719   4.107   2.241   0.687  0.5053 -0.4216 -0.3903
18438SOL    HW258720   4.171   2.312   0.804  1.6173 -0.4777 -0.9505
18439SOL     OW58721   8.281   5.298   5.960 -0.3899 -0.2932  0.3682
18439SOL    HW158722   8.297   5.387   5.990 -0.7141 -0.5243  1.2285
18439SOL    HW258723   8.235   5.256   6.032 -1.2210 -0.8385 -0.4633
18440SOL     OW58724   0.061   1.093   0.606  0.1429 -0.2528 -0.3655
18440SOL    HW158725   0.127   1.036   0.644  1.1812 -0.2434 -2.0871
18440SOL    HW258726  -0.021   1.045   0.614  0.1841  0.0814  2.5386
18441SOL     OW58727  10.806   2.508   4.198 -0.0676 -0.2882  0.5555
18441SOL    HW158728  10.882   2.519   4.256 -0.5849  1.5275  0.8971
18441SOL    HW258729  10.737   2.560   4.239 -0.4371  1.0490 -1.7102
18442SOL     OW58730   0.023   6.231   3.720  0.8446  0.1063  0.4638
18442SOL    HW158731  -0.001   6.202   3.631  0.9691 -0.5176  0.6328
18442SOL    HW258732  -0.055   6.215   3.772  1.1451 -0.5788  0.7073
18443SOL     OW58733   2.300   6.115   6.109  0.2462 -0.2045  0.3406
18443SOL    HW158734   2.223   6.141   6.160 -0.1306 -2.3494  0.9316
18443SOL    HW258735   2.341   6.045   6.161  0.3204 -1.8951 -1.8923
18444SOL     OW58736   6.322   7.965  10.197 -0.7986  0.0780 -0.3282
18444SOL    HW158737   6.251   7.971  10.261 -1.6562 -0.0734 -1.2564
18444SOL    HW258738   6.308   8.041  10.140 -0.8671 -0.5684 -1.1729
18445SOL     OW58739   8.388   3.122   2.412  0.4670 -0.8493 -0.1494
18445SOL    HW158740   8.471   3.091   2.448  0.9239  0.3800 -0.1058
18445SOL    HW258741   8.388   3.090   2.322  2.2168  1.3054 -0.9730
18446SOL     OW58742   0.602   6.201   4.385 -0.2385 -0.6144  0.0960
18446SOL    HW158743   0.602   6.286   4.428  0.1912 -0.2684 -0.5895
18446SOL    HW258744   0.571   6.140   4.453 -0.4347  0.0610  0.6191
18447SOL     OW58745   6.280   7.143   5.658 -0.3895  0.2722 -0.4067
18447SOL    HW158746   6.203   7.112   5.609 -0.5674 -0.8893  0.5803
18447SOL    HW258747   6.282   7.088   5.736  0.0439  1.9412  0.7771
18448SOL     OW58748   1.135   2.711   1.792  0.1599  0.2472  0.3962
18448SOL    HW158749   1.200   2.704   1.862 -1.3451  1.0483  1.9029
18448SOL    HW258750   1.139   2.626   1.747  0.5088 -0.5981  2.0096
18449SOL     OW58751   5.130   2.294   1.264 -0.3761  0.1928 -0.3196
18449SOL    HW158752   5.204   2.354   1.276 -0.6565  0.1950  1.5363
18449SOL    HW258753   5.159   2.235   1.194  1.8034 -0.4089  1.0219
18450SOL     OW58754   0.269   7.330   0.449 -0.4116  0.5563 -0.4087
18450SOL    HW158755   0.251   7.236   0.448  2.1525 -0.0110  0.7419
18450SOL    HW258756   0.296   7.351   0.360 -0.4146  0.0675 -0.5237
18451SOL     OW58757   3.301   8.073  10.829  0.7085 -0.1784 -0.5001
18451SOL    HW158758   3.252   8.024  10.763  2.2379  1.1082 -2.6615
18451SOL    HW258759   3.258   8.158  10.833  0.5064 -0.3100  0.3203
18452SOL     OW58760   8.714   6.179   4.624 -0.3437  0.1102  0.1728
18452SOL    HW158761   8.709   6.265   4.583 -1.6564  0.0264  0.1230
18452SOL    HW258762   8.804   6.150   4.609 -0.0701  1.2075 -0.3449
18453SOL     OW58763   9.325   3.613  10.574 -0.4281 -0.2106 -0.0888
18453SOL    HW158764   9.319   3.526  10.613 -2.9374 -0.4363 -0.8741
18453SOL    HW258765   9.338   3.596  10.481 -1.3612  0.2266 -0.3052
18454SOL     OW58766   1.454   5.394   2.116 -0.1119  0.3122 -0.2243
18454SOL    HW158767   1.482   5.303   2.123 -1.2999 -0.1114 -0.9560
18454SOL    HW258768   1.380   5.393   2.056  0.7235  1.9562 -1.3409
18455SOL     OW58769   0.074   3.915   9.456  0.0567 -0.4980  0.1204
18455SOL    HW158770   0.128   3.853   9.506  0.4758  0.8443  1.3457
18455SOL    HW258771   0.034   3.971   9.523  0.3392  1.0960 -1.0228
18456SOL     OW58772   6.799   3.811   4.112 -0.0893 -0.1879 -0.1172
18456SOL    HW158773   6.783   3.820   4.018 -1.3338  2.2304  0.2762
18456SOL    HW258774   6.801   3.717   4.127 -1.3975 -0.6158 -2.3322
18457SOL     OW58775   6.388   4.428   2.601  0.1144  0.4337  0.1665
18457SOL    HW158776   6.356   4.425   2.511 -0.6857  1.6564  0.3892
18457SOL    HW258777   6.437   4.347   2.612  0.6822  0.5229 -1.5384
18458SOL     OW58778   3.935   4.899   6.793  0.3975 -0.6769  0.2045
18458SOL    HW158779   3.875   4.863   6.859 -0.2532 -0.8081 -0.4404
18458SOL    HW258780   3.903   4.988   6.778  2.0309  0.1928  1.8245
18459SOL     OW58781  10.241   7.790   1.595 -0.1277  0.0072  0.2793
18459SOL    HW158782  10.228   7.764   1.504  0.4337 -0.6187  0.3807
18459SOL    HW258783  10.164   7.757   1.640  0.0056 -0.4344  0.1873
18460SOL     OW58784   6.928   7.055   7.120 -0.0524  0.6160 -0.2125
18460SOL    HW158785   6.960   7.021   7.203  0.3914  1.4919 -0.0200
18460SOL    HW258786   6.969   6.998   7.054 -0.2614  0.0365  0.1530
18461SOL     OW58787   6.116   9.488   9.992 -0.4927  0.1008 -0.3338
18461SOL    HW158788   6.142   9.580   9.986  1.2395 -0.3418  0.3205
18461SOL    HW258789   6.187   9.445  10.039  0.5939 -2.3183 -3.9512
18462SOL     OW58790   9.379  10.609   3.434  0.3834  0.4658 -0.3206
18462SOL    HW158791   9.315  10.543   3.459 -0.0198  0.7080 -0.7116
18462SOL    HW258792   9.336  10.693   3.450  0.5522  0.6281 -0.7064
18463SOL     OW58793   1.718  10.536  10.526 -0.0210  0.3822 -0.2691
18463SOL    HW158794   1.675  10.535  10.611 -1.1768  0.5759 -0.8540
18463SOL    HW258795   1.733  10.443  10.506 -0.4808  0.2960 -0.2214
18464SOL     OW58796  10.750   0.249   9.424 -0.2156  0.2093 -0.5379
18464SOL    HW158797  10.771   0.265   9.332  0.9649  0.1522 -0.2885
18464SOL    HW258798  10.835   0.231   9.465 -0.9066 -1.2536  0.2655
18465SOL     OW58799   8.268   6.576   1.611  0.0357 -0.1603  0.4396
18465SOL    HW158800   8.342   6.531   1.652  0.9489  0.1005 -0.8878
18465SOL    HW258801   8.254   6.529   1.529 -0.9188  0.1411  0.4196
18466SOL     OW58802   2.576   3.329   2.213 -0.3746  0.0097  0.0285
18466SOL    HW158803   2.558   3.269   2.140  1.6441  1.4772 -1.7402
18466SOL    HW258804   2.502   3.390   2.213 -0.3300  0.0681 -0.8720
18467SOL     OW58805   1.376   3.813  10.071 -0.0849  0.0902  0.3526
18467SOL    HW158806   1.360   3.727  10.109 -0.7484  0.4524  0.8857
18467SOL    HW258807   1.292   3.858  10.077 -0.1445  0.2433 -1.3117
18468SOL     OW58808   5.592  10.607   1.468  0.3126  0.0555  0.1613
18468SOL    HW158809   5.617  10.692   1.433 -1.7827  1.4864  2.0013
18468SOL    HW258810   5.506  10.590   1.432  0.4982 -1.0599  0.2269
18469SOL     OW58811   9.657   2.601   7.959 -0.4941  0.0322  0.1579
18469SOL    HW158812   9.642   2.674   7.899  0.8941  0.6755  0.5639
18469SOL    HW258813   9.692   2.531   7.903 -0.5898  0.1276 -0.0216
18470SOL     OW58814   2.357   0.447   9.978  0.4321  0.0053  0.8082
18470SOL    HW158815   2.416   0.414  10.046  0.0828 -0.5363  0.8515
18470SOL    HW258816   2.343   0.539  10.001  1.7824  0.3133  0.4253
18471SOL     OW58817   4.961   4.931   6.591  0.3087  0.4930 -0.0066
18471SOL    HW158818   4.936   4.873   6.519 -0.4588  0.2730  0.4280
18471SOL    HW258819   5.051   4.957   6.571  0.5670 -0.6379 -0.3410
18472SOL     OW58820   5.455   8.218   3.474  0.1782 -0.2305 -0.1917
18472SOL    HW158821   5.549   8.205   3.461 -0.1620 -1.8594 -1.1770
18472SOL    HW258822   5.415   8.142   3.433 -1.6152  0.7755 -0.3311
18473SOL     OW58823   4.516   7.923   3.899 -0.6400 -0.1861 -0.4599
18473SOL    HW158824   4.495   8.016   3.902 -1.2409 -0.2282 -2.4822
18473SOL    HW258825   4.612   7.920   3.895 -0.6805  0.4542 -2.4332
18474SOL     OW58826   8.994   6.471   2.783  0.0291  0.2104  0.7885
18474SOL    HW158827   9.033   6.482   2.870  0.9549  0.5798  0.3409
18474SOL    HW258828   9.069   6.474   2.724 -0.7352  1.3706 -0.1370
18475SOL     OW58829   3.584   5.026   1.283 -0.0206 -0.1852 -0.2912
18475SOL    HW158830   3.521   5.060   1.220  0.5079  1.6214  0.1017
18475SOL    HW258831   3.612   5.103   1.332  0.3921 -1.3903  1.4198
18476SOL     OW58832   7.755   7.936   7.445  0.2098 -0.8032 -0.7998
18476SOL    HW158833   7.782   8.024   7.473 -0.3428 -0.7136 -0.5342
18476SOL    HW258834   7.665   7.948   7.414  0.7188 -0.9500 -2.3845
18477SOL     OW58835   7.846   9.163   0.612  0.2106 -0.0695 -0.1934
18477SOL    HW158836   7.836   9.121   0.526  0.0937  1.0555 -0.7278
18477SOL    HW258837   7.776   9.227   0.616  1.4834  1.3349 -0.1202
18478SOL     OW58838   2.960   9.223   3.537  0.1533  0.0578 -0.2777
18478SOL    HW158839   2.957   9.282   3.461 -0.1618 -1.3732 -1.4048
18478SOL    HW258840   3.046   9.237   3.575  0.4600  0.5304 -1.1355
18479SOL     OW58841  10.337   7.204   5.866  0.1470 -0.3955  0.0598
18479SOL    HW158842  10.264   7.143   5.874  0.3962 -0.9559 -1.6339
18479SOL    HW258843  10.296   7.286   5.838 -0.0576 -0.1293  1.1454
18480SOL     OW58844   7.945   9.519   4.431 -0.1718  0.0294  0.7021
18480SOL    HW158845   7.896   9.534   4.350  1.0744  2.1788  0.2958
18480SOL    HW258846   7.901   9.574   4.496  0.4847  0.4664  0.7909
18481SOL     OW58847   0.913   2.464   3.877 -0.1703 -0.3607  0.2795
18481SOL    HW158848   0.880   2.374   3.881 -0.2573 -0.4177 -1.2706
18481SOL    HW258849   0.969   2.465   3.799  1.5967  0.3553  1.5211
18482SOL     OW58850   3.595   5.529   4.092  0.1590 -0.7034  0.5799
18482SOL    HW158851   3.619   5.455   4.148  0.1511 -1.6800 -0.6932
18482SOL    HW258852   3.501   5.515   4.075  0.0202 -0.0706  0.8102
18483SOL     OW58853   0.812   2.830   2.563 -0.1743  0.5769  0.5265
18483SOL    HW158854   0.826   2.875   2.646  1.3663 -1.8678  1.6771
18483SOL    HW258855   0.760   2.752   2.587 -1.0581  0.6591 -1.0610
18484SOL     OW58856   7.948   9.654   0.201 -0.5873 -0.1082  0.1318
18484SOL    HW158857   8.024   9.605   0.232  0.6326  1.0818 -0.8969
18484SOL    HW258858   7.947   9.639   0.106 -1.0898  0.6377  0.0173
18485SOL     OW58859   4.714   2.258   0.307 -0.2960  0.5403  0.0811
18485SOL    HW158860   4.786   2.259   0.244 -0.2478  1.2094  0.1403
18485SOL    HW258861   4.686   2.349   0.313 -3.0451 -0.1129 -2.0707
18486SOL     OW58862   6.608   5.568   0.494  0.5304 -0.6218  0.2387
18486SOL    HW158863   6.621   5.655   0.456  1.4688 -1.0962 -0.5600
18486SOL    HW258864   6.690   5.521   0.475 -0.4807 -2.1157 -0.5401
18487SOL     OW58865   7.420   1.459   2.304  0.1523 -0.0779 -0.4000
18487SOL    HW158866   7.354   1.528   2.314 -0.2564 -0.7546  2.1409
18487SOL    HW258867   7.500   1.505   2.279 -0.0930  1.3580  1.3381
18488SOL     OW58868   8.567   0.924  10.093 -0.1210 -0.2775 -0.7856
18488SOL    HW158869   8.542   1.005  10.138 -0.5630 -0.9327  0.1634
18488SOL    HW258870   8.484   0.881  10.073  0.1236 -0.7496 -0.7996
18489SOL     OW58871  10.156   9.758   9.826  0.2445  0.0468  0.1508
18489SOL    HW158872  10.193   9.840   9.857  1.0726 -0.1654 -0.2482
18489SOL    HW258873  10.124   9.778   9.738 -1.2714  0.4151  0.7642
18490SOL     OW58874   9.578   1.255   1.178  0.3283  0.0007 -0.0585
18490SOL    HW158875   9.497   1.214   1.209  0.6468 -0.1257  0.6130
18490SOL    HW258876   9.629   1.183   1.141  0.7782 -0.1739  0.8911
18491SOL     OW58877   5.070   7.260   6.229  0.3253 -0.2868  0.0945
18491SOL    HW158878   4.982   7.291   6.206  0.1190 -0.5831  0.4771
18491SOL    HW258879   5.067   7.165   6.214  0.4943 -0.3376  0.3729
18492SOL     OW58880   0.401   2.528   0.072 -0.2404 -0.0956  0.2637
18492SOL    HW158881   0.319   2.575   0.081 -0.3230  0.2432 -1.9546
18492SOL    HW258882   0.458   2.565   0.139 -1.4156  0.6861  0.8416
18493SOL     OW58883   0.047   2.695   3.702  0.3122  0.4932  0.1130
18493SOL    HW158884   0.069   2.606   3.677 -0.2240  0.6062 -0.7958
18493SOL    HW258885  -0.035   2.713   3.656  0.4165  1.4529  0.2918
18494SOL     OW58886   5.894   7.937   4.868  0.1399 -0.0065  0.0664
18494SOL    HW158887   5.913   7.990   4.791 -1.7607  0.2642 -0.2284
18494SOL    HW258888   5.963   7.960   4.931  2.2575 -0.9331 -1.8592
18495SOL     OW58889   9.580   0.405  10.697 -0.4290 -0.1950  0.0120
18495SOL    HW158890   9.540   0.329  10.739 -0.3816 -0.3406 -0.2089
18495SOL    HW258891   9.540   0.409  10.610 -0.9259  0.4264  0.2596
18496SOL     OW58892   8.638   5.187  10.121  0.0219 -0.5236  0.2744
18496SOL    HW158893   8.695   5.231  10.058 -1.4478 -0.2703 -0.8917
18496SOL    HW258894   8.660   5.094  10.112  0.1588 -0.4420 -0.2772
18497SOL     OW58895   5.578   2.274   6.959  0.1162  0.5581  0.5296
18497SOL    HW158896   5.660   2.244   6.999  0.8500  2.4460  0.5082
18497SOL    HW258897   5.605   2.314   6.876 -0.8768  0.7528  0.2962
18498SOL     OW58898   2.703   8.231   0.087 -0.0989  0.4863 -0.3738
18498SOL    HW158899   2.743   8.161   0.139  0.4075  1.7193  0.9303
18498SOL    HW258900   2.633   8.188   0.038  1.1381 -1.1971 -0.6905
18499SOL     OW58901   6.443   1.245   9.115 -0.3044 -0.3841 -0.1107
18499SOL    HW158902   6.479   1.187   9.182  0.6871  2.3436  1.8061
18499SOL    HW258903   6.349   1.248   9.134  0.1266  1.3235  2.0233
18500SOL     OW58904   1.253   0.565   4.760 -0.8621  0.0892 -0.0104
18500SOL    HW158905   1.202   0.487   4.737 -0.1087 -0.8326  1.3628
18500SOL    HW258906   1.338   0.530   4.789  0.2465  1.5447 -1.4296
18501SOL     OW58907   3.983   1.489   6.532  0.5603  0.1439 -0.3246
18501SOL    HW158908   3.968   1.408   6.483 -0.3054  0.1438 -0.0800
18501SOL    HW258909   3.901   1.502   6.580  1.2787  0.3436  0.8358
18502SOL     OW58910  10.315   4.104   5.740  0.4941  0.3761  0.2774
18502SOL    HW158911  10.301   4.130   5.831 -1.0374 -2.4086  0.8877
18502SOL    HW258912  10.410   4.111   5.727  0.5328  2.3416  1.5886
18503SOL     OW58913   6.770   8.636  10.323 -0.0903 -0.1713 -0.0311
18503SOL    HW158914   6.792   8.703  10.388  0.9702 -0.7814  0.2550
18503SOL    HW258915   6.694   8.591  10.359 -0.0096  0.0326  0.3987
18504SOL     OW58916   8.415   9.748   2.966  0.2546  0.0166  0.4957
18504SOL    HW158917   8.363   9.780   2.892  0.7645  0.3146  0.2611
18504SOL    HW258918   8.442   9.660   2.941  1.0239  0.3820  0.0072
18505SOL     OW58919   1.197   8.735   5.824  0.4006 -0.9103  0.2534
18505SOL    HW158920   1.221   8.792   5.897  1.3104 -0.0518 -0.6788
18505SOL    HW258921   1.108   8.762   5.800  0.3041 -0.8325  0.7068
18506SOL     OW58922   6.210   7.050   8.830 -0.1580  1.0180  0.1509
18506SOL    HW158923   6.281   6.989   8.809 -0.2035  1.3541 -1.0451
18506SOL    HW258924   6.154   7.002   8.890 -0.4768 -0.3174 -1.1927
18507SOL     OW58925   7.625   8.431   3.624  0.1065  0.1503  0.0368
18507SOL    HW158926   7.572   8.473   3.691 -1.7394 -1.1190 -0.6001
18507SOL    HW258927   7.677   8.366   3.672 -0.4557 -0.0598  0.3552
18508SOL     OW58928   0.983   9.933   5.895  0.6106 -0.7464 -0.2903
18508SOL    HW158929   1.050   9.975   5.841 -0.4956  0.8170 -0.4670
18508SOL    HW258930   0.947  10.004   5.948  0.0260 -1.8313  0.7852
18509SOL     OW58931   2.410   6.371   7.288  1.0061  0.5710 -0.1307
18509SOL    HW158932   2.337   6.340   7.342  0.5315  0.2152 -0.9774
18509SOL    HW258933   2.392   6.464   7.275  0.6151  0.4451 -0.4843
18510SOL     OW58934   8.115   8.146   0.776 -0.1144  0.1110  0.6026
18510SOL    HW158935   8.171   8.206   0.826 -1.0669  1.8528 -0.3730
18510SOL    HW258936   8.152   8.060   0.792  0.9650  0.8945  2.4806
18511SOL     OW58937   6.149   1.956   1.542  0.2241  0.4311 -0.2578
18511SOL    HW158938   6.170   2.009   1.465 -0.2659  0.9073 -0.0620
18511SOL    HW258939   6.163   1.866   1.513 -0.0085  0.6069 -0.9287
18512SOL     OW58940  10.750   3.932   9.420  0.3976  0.1295  0.6560
18512SOL    HW158941  10.812   3.888   9.361 -0.2304 -1.2178  0.9921
18512SOL    HW258942  10.806   3.978   9.484  1.0498 -0.3967  0.4614
18513SOL     OW58943   3.776   0.366   0.598 -0.5205 -0.6547  0.3691
18513SOL    HW158944   3.782   0.367   0.502  1.4390 -0.4288  0.4723
18513SOL    HW258945   3.691   0.405   0.617 -1.3084 -1.5063 -1.3084
18514SOL     OW58946   2.205   2.097   3.504  0.0783 -0.2786  0.5014
18514SOL    HW158947   2.180   2.037   3.575 -0.7598  0.2348  0.6358
18514SOL    HW258948   2.123   2.121   3.462  0.4973  0.0933 -0.1049
18515SOL     OW58949   8.759   0.259   8.582 -0.3455  0.1884  0.0743
18515SOL    HW158950   8.690   0.201   8.614  0.1832 -1.0459 -0.9336
18515SOL    HW258951   8.830   0.199   8.556  0.3243  1.3086 -0.7353
18516SOL     OW58952   0.331   4.731   5.297  0.3573 -0.1433  0.7635
18516SOL    HW158953   0.274   4.800   5.263  0.5415 -0.0861  0.5704
18516SOL    HW258954   0.405   4.777   5.335  0.1688 -0.2094  1.2118
18517SOL     OW58955   1.987   7.649   3.783  0.2389 -0.0028 -0.4169
18517SOL    HW158956   2.041   7.661   3.705 -0.0105  0.3475 -0.5388
18517SOL    HW258957   1.973   7.554   3.788  0.7266 -0.0798 -0.4732
18518SOL     OW58958   7.085   5.648   2.904  0.1326  0.4502  0.2276
18518SOL    HW158959   7.077   5.570   2.959 -1.2420  1.0406  0.8783
18518SOL    HW258960   7.103   5.614   2.816 -0.9347 -0.6291  0.4139
18519SOL     OW58961   8.166   1.111   3.310  0.0772  0.0485 -0.2525
18519SOL    HW158962   8.195   1.093   3.220 -0.4795 -2.2692  0.0125
18519SOL    HW258963   8.078   1.076   3.314  0.2832 -0.2930  1.3500
18520SOL     OW58964   4.651   2.291   5.739 -0.0391 -0.9502  0.3935
18520SOL    HW158965   4.678   2.200   5.726 -0.4135 -1.0343  0.1896
18520SOL    HW258966   4.575   2.301   5.682  0.2755 -0.3821  0.0702
18521SOL     OW58967   3.014   8.020   5.348 -0.3501 -0.2853  0.1848
18521SOL    HW158968   3.039   8.112   5.341 -0.1989 -0.3579 -0.2003
18521SOL    HW258969   2.919   8.020   5.340 -0.3765 -0.1318  0.4863
18522SOL     OW58970   9.787   0.217   4.171 -0.0429 -0.3340 -0.1260
18522SOL    HW158971   9.878   0.189   4.167  0.3085  0.7672 -0.0091
18522SOL    HW258972   9.758   0.218   4.080 -0.5056 -2.4510 -0.0304
18523SOL     OW58973  10.640   4.605   7.808 -0.6069  0.3557  0.0703
18523SOL    HW158974  10.694   4.563   7.741 -2.2458 -2.1950  0.2968
18523SOL    HW258975  10.580   4.661   7.758 -1.9525 -1.6819 -0.6551
18524SOL     OW58976   4.808   0.523   7.447 -0.1994  0.4492 -0.2838
18524SOL    HW158977   4.871   0.587   7.414  0.9311 -0.8666 -0.7210
18524SOL    HW258978   4.859   0.464   7.502 -1.2905  0.1028  0.3875
18525SOL     OW58979   9.695   1.166   5.133 -0.2967  0.6080  0.1419
18525SOL    HW158980   9.613   1.216   5.123 -1.0967 -0.6104  0.4353
18525SOL    HW258981   9.666   1.081   5.167  1.3466  1.0540  2.7566
18526SOL     OW58982   6.669   1.511   1.881  0.4953 -0.1141 -0.0332
18526SOL    HW158983   6.621   1.594   1.871  0.3589 -0.3462 -1.3622
18526SOL    HW258984   6.601   1.448   1.907  0.2900 -0.1787 -0.7175
18527SOL     OW58985   4.217   3.661   8.187 -0.5111 -0.3032 -0.3346
18527SOL    HW158986   4.271   3.582   8.184  0.0102  0.0197  0.4466
18527SOL    HW258987   4.137   3.637   8.141 -0.8814 -1.6922  1.0170
18528SOL     OW58988   0.961   3.947   0.610  0.1072  0.3925 -0.4670
18528SOL    HW158989   0.927   3.990   0.688 -0.6716  2.1937 -1.7541
18528SOL    HW258990   1.056   3.940   0.626  0.1558  2.0271  0.0551
18529SOL     OW58991   9.839  10.062   5.356  0.0676 -0.0370  0.1946
18529SOL    HW158992   9.860   9.977   5.396 -0.0008 -0.0814  0.1379
18529SOL    HW258993   9.785  10.106   5.422  0.4524  0.1314  0.3980
18530SOL     OW58994   8.129   8.647   4.620 -0.2739  0.9359  0.0971
18530SOL    HW158995   8.088   8.666   4.536 -0.3319  2.5129  0.4525
18530SOL    HW258996   8.141   8.733   4.661  2.8893  0.5111  0.2294
18531SOL     OW58997   5.448   5.687   8.174 -0.0274  0.4501  0.1873
18531SOL    HW158998   5.501   5.767   8.175 -0.6913  0.8885  1.2674
18531SOL    HW258999   5.465   5.648   8.088 -2.0869  3.3343 -1.6166
18532SOL     OW59000   4.356   4.619   3.903  0.3491 -0.4173  0.7495
18532SOL    HW159001   4.335   4.546   3.845  1.3641  0.2885 -0.5344
18532SOL    HW259002   4.275   4.669   3.909 -0.2480 -1.4363  1.3333
18533SOL     OW59003   7.271   4.354   1.572  0.4274  0.5413 -0.0817
18533SOL    HW159004   7.264   4.263   1.543  0.9810  0.6870 -0.6717
18533SOL    HW259005   7.218   4.358   1.652  0.0013 -0.1780 -0.3263
18534SOL     OW59006   4.712   5.529   6.669 -0.2637  0.5006 -0.4952
18534SOL    HW159007   4.732   5.607   6.618 -1.4293  0.6018 -0.8213
18534SOL    HW259008   4.700   5.460   6.603  0.0960  0.1977 -0.2484
18535SOL     OW59009   3.723   7.891   4.769  0.2015  0.2317  0.6137
18535SOL    HW159010   3.719   7.945   4.847  0.3783 -1.0531  1.5171
18535SOL    HW259011   3.704   7.951   4.697  2.3776  1.9138  1.4190
18536SOL     OW59012   1.193   0.543  10.132 -0.0189 -0.8278  0.2122
18536SOL    HW159013   1.223   0.455  10.108 -0.2884 -0.8603 -0.0042
18536SOL    HW259014   1.098   0.540  10.121  0.1934  0.2339 -2.2118
18537SOL     OW59015   9.320   0.710   5.168 -0.5586 -0.8267 -0.3267
18537SOL    HW159016   9.273   0.766   5.230  2.0093  0.2769  0.7253
18537SOL    HW259017   9.278   0.726   5.084 -1.4019  0.8832  0.3949
18538SOL     OW59018   1.710   3.256   1.896 -0.4868 -0.3518 -0.5674
18538SOL    HW159019   1.665   3.230   1.816 -0.3114 -1.6328 -0.2568
18538SOL    HW259020   1.791   3.205   1.896 -0.7902 -0.8502  0.7467
18539SOL     OW59021   4.939   8.774   4.856 -0.2340 -0.2541  0.1432
18539SOL    HW159022   4.902   8.702   4.907  0.4181 -0.8019 -0.1374
18539SOL    HW259023   4.895   8.767   4.771 -1.0357  0.4149  0.5023
18540SOL     OW59024   3.362   1.827   0.577  0.3163 -0.5017  0.4324
18540SOL    HW159025   3.336   1.744   0.537  1.0806 -0.0375 -1.0802
18540SOL    HW259026   3.457   1.832   0.563 -0.1417  2.0268 -2.2892
18541SOL     OW59027   4.187   4.691   0.986  0.3120  0.8902  0.0565
18541SOL    HW159028   4.256   4.641   1.030 -1.5764 -1.5469  0.3539
18541SOL    HW259029   4.190   4.662   0.895  0.3684  1.5656 -0.1600
18542SOL     OW59030   5.713   9.725   2.636  0.1569 -0.2476  0.1484
18542SOL    HW159031   5.626   9.740   2.671  0.0935  0.4193 -0.2885
18542SOL    HW259032   5.769   9.718   2.713 -0.3296 -0.9728  0.4348
18543SOL     OW59033   8.762   7.319   9.181 -0.2271  0.1560  0.1936
18543SOL    HW159034   8.782   7.408   9.154  0.3199  0.0218  0.1465
18543SOL    HW259035   8.679   7.299   9.138 -0.1790  0.5217 -0.0717
18544SOL     OW59036   1.857   8.889   0.780  0.5555 -0.0724 -0.2361
18544SOL    HW159037   1.798   8.902   0.706 -0.7232  1.0827  0.9658
18544SOL    HW259038   1.832   8.805   0.817 -0.2772  0.3771  0.2184
18545SOL     OW59039   4.908   1.471   5.133  0.1326 -0.0443  0.1589
18545SOL    HW159040   4.950   1.557   5.131  2.1696 -1.0230 -0.5439
18545SOL    HW259041   4.922   1.439   5.222  0.7106 -0.2746 -0.0112
18546SOL     OW59042   4.725   7.011   0.752 -0.6895  0.8149  0.3920
18546SOL    HW159043   4.729   6.978   0.841  0.5928 -1.0552 -0.3260
18546SOL    HW259044   4.678   6.944   0.703 -1.6030  1.9391 -0.3021
18547SOL     OW59045   1.992   8.642   6.146  0.0898  0.3605  0.6149
18547SOL    HW159046   2.038   8.725   6.130  0.0885 -0.0858 -1.9407
18547SOL    HW259047   1.900   8.668   6.156  0.2901  0.8125  1.3087
18548SOL     OW59048   8.098   1.293   1.863 -0.3550  0.2028  0.2484
18548SOL    HW159049   8.056   1.209   1.843 -0.4331  0.5950 -1.3193
18548SOL    HW259050   8.171   1.298   1.802 -0.1120  1.0959  0.6081
18549SOL     OW59051   7.679   6.122   1.212 -0.3999 -0.1086 -0.2688
18549SOL    HW159052   7.682   6.058   1.283 -0.8333 -1.0659 -1.1017
18549SOL    HW259053   7.628   6.079   1.143  0.7449  0.4658 -1.4984
18550SOL     OW59054   1.556   1.183   5.888  0.0047  0.2797  0.0499
18550SOL    HW159055   1.631   1.241   5.876  0.6308 -0.6221 -0.4614
18550SOL    HW259056   1.480   1.241   5.881  0.5240  0.7015 -2.7025
18551SOL     OW59057  10.156   1.931   8.663 -0.3720 -0.2609  0.5224
18551SOL    HW159058  10.093   1.998   8.636 -0.3090  0.2545  1.6517
18551SOL    HW259059  10.198   1.967   8.740 -0.2191 -1.5268  1.0421
18552SOL     OW59060   8.263   2.442   6.494 -0.7227 -0.2623  0.0266
18552SOL    HW159061   8.288   2.461   6.585 -1.3307  0.6968  0.0047
18552SOL    HW259062   8.169   2.456   6.491 -0.5578  0.7894 -0.9978
18553SOL     OW59063   5.486   6.489   2.427 -0.2445  0.1352 -0.1446
18553SOL    HW159064   5.450   6.449   2.347 -1.3717  0.1012  0.3759
18553SOL    HW259065   5.544   6.421   2.463  0.5732  0.2896 -1.1224
18554SOL     OW59066   8.172   7.276   6.373  0.6254 -0.1436  0.0051
18554SOL    HW159067   8.170   7.276   6.277  0.0325 -1.0586  0.0121
18554SOL    HW259068   8.080   7.283   6.400  0.6676 -1.1869  0.4861
18555SOL     OW59069   6.982   9.537   7.981  0.0673  0.2389 -0.5048
18555SOL    HW159070   6.925   9.565   8.053  2.0789  1.4739  0.6302
18555SOL    HW259071   7.010   9.618   7.940  0.5470 -0.3950 -1.4377
18556SOL     OW59072   0.274   1.154   0.830 -0.4387 -0.3233  0.0446
18556SOL    HW159073   0.333   1.117   0.896 -0.6933  0.7116  0.8612
18556SOL    HW259074   0.216   1.081   0.806 -1.0142 -0.4487  1.7255
18557SOL     OW59075   2.155   4.366   9.889  0.2167 -0.9432  0.1616
18557SOL    HW159076   2.209   4.295   9.924  0.3593 -1.4191 -1.0094
18557SOL    HW259077   2.171   4.364   9.795 -0.0452  0.4331  0.0869
18558SOL     OW59078   9.735   6.427  10.435 -0.1411 -0.1546  0.1721
18558SOL    HW159079   9.700   6.358  10.491 -1.5948 -1.4109 -2.1987
18558SOL    HW259080   9.771   6.381  10.359  1.1285  1.5470 -0.3048
18559SOL     OW59081   2.602   0.357   8.104 -0.2735  0.0676  0.2637
18559SOL    HW159082   2.613   0.411   8.025  0.0439 -2.1534 -1.2455
18559SOL    HW259083   2.512   0.374   8.132 -0.4220  0.8021 -0.6196
18560SOL     OW59084   4.941   5.985   7.405 -0.1586 -0.4811 -0.4716
18560SOL    HW159085   4.867   5.990   7.344 -0.1127 -0.2558 -0.5083
18560SOL    HW259086   5.010   6.037   7.364 -0.4539  0.4808  0.2411
18561SOL     OW59087   5.154   9.411   1.321  0.2882  0.4575  0.0253
18561SOL    HW159088   5.072   9.363   1.306  1.5673 -1.1972 -1.8653
18561SOL    HW259089   5.141   9.452   1.407 -2.5008  0.2025 -0.2116
18562SOL     OW59090   2.905   8.193   9.038  0.6739 -0.1436  0.1756
18562SOL    HW159091   2.987   8.162   9.075  0.9474  0.9614  0.5282
18562SOL    HW259092   2.856   8.228   9.112  0.1434 -0.2249 -0.1250
18563SOL     OW59093   9.489   5.539   4.427 -0.3253 -0.2303  0.3863
18563SOL    HW159094   9.428   5.506   4.492 -0.2342  1.0917  1.1675
18563SOL    HW259095   9.438   5.602   4.376  0.0736  0.0320  0.3054
18564SOL     OW59096  10.290   8.549   1.544 -0.3236 -0.8127 -0.2122
18564SOL    HW159097  10.260   8.583   1.628  0.8822 -0.4349  0.0642
18564SOL    HW259098  10.372   8.595   1.526 -0.4787 -1.0145 -1.5115
18565SOL     OW59099   7.220   0.827   6.845  0.1711 -0.5752 -0.1284
18565SOL    HW159100   7.285   0.786   6.788  0.3541 -0.6652  0.1430
18565SOL    HW259101   7.272   0.872   6.912 -0.0693 -2.5724  1.4457
18566SOL     OW59102   2.068   4.709   7.888 -0.2521  0.1189 -0.6269
18566SOL    HW159103   2.081   4.778   7.953 -1.3378  0.2572 -0.5317
18566SOL    HW259104   1.981   4.727   7.852 -0.9242 -1.6924  0.0092
18567SOL     OW59105   2.321   5.324   5.973 -0.5416 -0.0233  0.1792
18567SOL    HW159106   2.390   5.353   6.033 -0.6851 -0.5808  0.6177
18567SOL    HW259107   2.254   5.391   5.978 -0.4491  0.0475  0.4619
18568SOL     OW59108   6.473   3.729   7.750  0.9168  0.0945  0.2438
18568SOL    HW159109   6.551   3.712   7.697  1.5984  1.2988  0.8350
18568SOL    HW259110   6.501   3.718   7.840  0.4468  0.6837  0.4707
18569SOL     OW59111   0.269   1.639   2.834  0.2304 -0.9501  0.1082
18569SOL    HW159112   0.186   1.665   2.795 -0.6593 -2.3633  1.0355
18569SOL    HW259113   0.327   1.714   2.819 -2.3470  1.7730  3.0023
18570SOL     OW59114   1.991  10.781  10.071  0.1451  0.2825  0.5885
18570SOL    HW159115   2.068  10.748  10.117  1.1373  0.9258 -0.5850
18570SOL    HW259116   1.924  10.713  10.084  0.4699  0.3735  2.7793
18571SOL     OW59117   0.501   3.344   9.830 -0.4538  0.1162 -0.1389
18571SOL    HW159118   0.544   3.322   9.748 -1.3761  0.6593 -0.7865
18571SOL    HW259119   0.518   3.438   9.841 -0.6912  0.1362  0.0668
18572SOL     OW59120   4.058   7.445   0.138  0.3961 -0.0263 -0.9489
18572SOL    HW159121   4.052   7.383   0.211 -0.2722 -0.7264 -1.5845
18572SOL    HW259122   4.036   7.530   0.176  2.6118  0.0720  0.2226
18573SOL     OW59123   7.565   9.676   4.464 -0.7170  0.3014 -0.5051
18573SOL    HW159124   7.499   9.606   4.464  2.0531 -2.4195 -0.4822
18573SOL    HW259125   7.550   9.723   4.546 -3.5935  0.7383 -1.2131
18574SOL     OW59126  10.461   7.803  10.842 -0.1461  0.1677 -0.0531
18574SOL    HW159127  10.420   7.880  10.882  0.4587 -0.6574  2.2306
18574SOL    HW259128  10.434   7.730  10.898 -0.3156 -1.2258 -1.9055
18575SOL     OW59129   0.751   6.684   3.580  0.3517 -0.0368  0.3346
18575SOL    HW159130   0.825   6.734   3.615  0.0076  0.2482  0.6654
18575SOL    HW259131   0.786   6.596   3.566  0.8294  0.1687  0.2154
18576SOL     OW59132   0.092   2.287   5.151 -0.2120 -0.6808 -0.2820
18576SOL    HW159133   0.001   2.285   5.124 -1.3335 -0.6360  3.3299
18576SOL    HW259134   0.108   2.201   5.190  1.2234 -0.5650 -0.5573
18577SOL     OW59135   6.989   7.430   9.603  0.1803 -0.4590  0.4585
18577SOL    HW159136   6.985   7.525   9.596  1.9111 -0.5300 -2.5202
18577SOL    HW259137   7.033   7.413   9.686 -0.9793  1.2950  1.4537
18578SOL     OW59138   9.615   3.359   9.487 -0.4999 -0.7390  0.9592
18578SOL    HW159139   9.600   3.283   9.430 -0.3696 -0.1867  0.1956
18578SOL    HW259140   9.709   3.359   9.502 -0.0189  1.2921 -1.8543
18579SOL     OW59141   0.223   2.580   7.916  0.3834  0.3880  0.1740
18579SOL    HW159142   0.302   2.627   7.944  0.9799 -1.4036  1.6337
18579SOL    HW259143   0.230   2.575   7.821  1.1815  1.7159  0.1508
18580SOL     OW59144   9.217   6.524   9.825  0.0421  0.3245 -0.2655
18580SOL    HW159145   9.154   6.591   9.854 -0.3128 -0.4013  0.6871
18580SOL    HW259146   9.168   6.442   9.828  0.2506  0.1191 -2.1955
18581SOL     OW59147   5.674   8.456  10.917  0.2701 -0.4751  0.0911
18581SOL    HW159148   5.667   8.424  11.007 -2.5017 -1.9576 -0.5889
18581SOL    HW259149   5.620   8.395  10.866  0.4818  1.2894 -2.3303
18582SOL     OW59150   0.725   7.436   4.701  0.1273 -0.0152 -0.1364
18582SOL    HW159151   0.719   7.381   4.623 -2.0441  0.9056 -0.6560
18582SOL    HW259152   0.636   7.437   4.736  0.4745  1.8958  0.7370
18583SOL     OW59153  10.535   0.308   0.171 -0.1036 -0.1385  0.3037
18583SOL    HW159154  10.610   0.301   0.230 -1.2062  1.2969  1.9047
18583SOL    HW259155  10.467   0.253   0.210 -0.8345  0.8049  0.3955
18584SOL     OW59156  10.263   2.422   9.314 -0.1589 -0.1907 -0.4848
18584SOL    HW159157  10.228   2.441   9.401  0.9223 -0.9928  0.1462
18584SOL    HW259158  10.219   2.341   9.288 -1.0589  0.4623 -1.0302
18585SOL     OW59159   0.520   0.354   0.829  0.1573 -0.1299  0.4467
18585SOL    HW159160   0.545   0.376   0.919 -0.9307 -1.0180  0.9833
18585SOL    HW259161   0.437   0.401   0.815  0.5536  0.3749 -0.2591
18586SOL     OW59162   0.485   9.554   7.789 -0.0452 -0.5430 -0.4504
18586SOL    HW159163   0.490   9.481   7.851 -0.6627 -0.5164 -0.3663
18586SOL    HW259164   0.441   9.624   7.837  0.6386 -0.0761 -0.4981
18587SOL     OW59165   7.544   7.305   9.863 -0.0083  0.7500  0.4467
18587SOL    HW159166   7.503   7.343   9.786 -2.6070 -1.1640  0.8183
18587SOL    HW259167   7.565   7.380   9.918  1.3299  2.0884 -1.8167
18588SOL     OW59168   5.748   2.450   4.106  0.0782 -0.0527  0.2934
18588SOL    HW159169   5.749   2.355   4.096 -1.7705 -0.1066  0.4469
18588SOL    HW259170   5.726   2.464   4.198 -2.4422  0.4948 -0.3427
18589SOL     OW59171   2.235   6.911   1.441 -0.3026  0.6913 -0.2914
18589SOL    HW159172   2.257   6.981   1.379 -0.0016 -1.5234 -2.7873
18589SOL    HW259173   2.173   6.856   1.394  0.9731 -1.8150  0.8405
18590SOL     OW59174   2.044   4.180   6.591  0.5416  0.3191 -0.0001
18590SOL    HW159175   2.075   4.201   6.503  1.7969 -2.0178 -0.1569
18590SOL    HW259176   1.949   4.188   6.587  0.4105 -1.8231 -2.1840
18591SOL     OW59177   2.475   6.561   2.316  0.1059  0.4142 -0.3813
18591SOL    HW159178   2.461   6.623   2.245 -1.8754  1.0425  0.5195
18591SOL    HW259179   2.505   6.615   2.389 -1.8797  0.3617  0.4852
18592SOL     OW59180   1.133   7.058   7.529 -0.2164  0.6291  0.0300
18592SOL    HW159181   1.175   7.126   7.583  0.5672 -0.3880  0.7079
18592SOL    HW259182   1.194   7.045   7.457  0.2136 -0.2025  0.5364
18593SOL     OW59183   9.548   2.226   1.424 -0.2724  0.2004  0.4603
18593SOL    HW159184   9.603   2.265   1.356 -2.0649 -1.6447 -2.1382
18593SOL    HW259185   9.517   2.301   1.475 -1.4369  1.9828 -2.7286
18594SOL     OW59186   1.615   6.034   3.078  0.4101  0.5627  0.2471
18594SOL    HW159187   1.575   5.967   3.133  1.4605  1.3178  1.9806
18594SOL    HW259188   1.705   6.041   3.111  1.2063  0.7036 -1.8840
18595SOL     OW59189   3.421   2.358   2.866  0.0448  0.5669  0.3795
18595SOL    HW159190   3.433   2.272   2.906 -1.1934  1.0745  1.9057
18595SOL    HW259191   3.376   2.340   2.784  1.2128 -0.3672 -0.0654
18596SOL     OW59192   9.025   1.079   8.796 -0.2473 -0.2308 -0.5336
18596SOL    HW159193   9.027   1.102   8.704 -1.7132  0.1621 -0.4773
18596SOL    HW259194   9.024   1.163   8.842  2.6984 -0.4116 -0.0810
18597SOL     OW59195   6.347  10.428  10.745  0.0820  0.6345  0.4103
18597SOL    HW159196   6.378  10.517  10.760  1.0577  0.0138  2.1364
18597SOL    HW259197   6.408  10.391  10.682  0.3916  0.7713  0.6335
18598SOL     OW59198   3.277   3.397   8.930  0.3669 -0.4614 -0.1310
18598SOL    HW159199   3.331   3.399   9.009  1.1350 -0.2160 -0.6550
18598SOL    HW259200   3.318   3.461   8.871  0.9115 -1.9712 -1.4393
18599SOL     OW59201   4.802  10.404   1.804 -0.1523  0.5590 -0.3387
18599SOL    HW159202   4.829  10.312   1.804  0.7424  0.8052  1.0759
18599SOL    HW259203   4.884  10.453   1.805 -0.6313  1.3534  0.4228
18600SOL     OW59204   4.522   7.142   4.463 -0.2535  0.2755  0.1518
18600SOL    HW159205   4.434   7.172   4.487 -0.4343 -0.5747  0.5599
18600SOL    HW259206   4.576   7.221   4.466 -0.9909  0.7972 -0.0603
18601SOL     OW59207   0.544  10.198   7.487 -0.4833 -0.1524 -0.7112
18601SOL    HW159208   0.450  10.206   7.468 -0.8382 -0.6227  0.7115
18601SOL    HW259209   0.565  10.108   7.462 -0.7326 -0.4707  0.1859
18602SOL     OW59210   6.366   7.222   8.689  0.4576  0.7059  0.2812
18602SOL    HW159211   6.399   7.165   8.620 -0.1074  1.1930 -0.4044
18602SOL    HW259212   6.328   7.163   8.754  1.3364  0.2230  0.3622
18603SOL     OW59213  10.748   4.113   1.353  0.1999 -0.1082  0.0663
18603SOL    HW159214  10.825   4.143   1.304  1.5034 -2.7821  0.3748
18603SOL    HW259215  10.770   4.130   1.444 -1.2499  2.6858 -0.0399
18604SOL     OW59216   0.201   5.428   1.825 -0.5502  0.1798 -0.7087
18604SOL    HW159217   0.153   5.350   1.853  1.2720 -1.0470 -0.9503
18604SOL    HW259218   0.144   5.468   1.759 -1.1462 -1.3720 -1.1697
18605SOL     OW59219   5.405   4.232   6.686 -0.2258 -0.4017  0.7059
18605SOL    HW159220   5.411   4.243   6.592  1.4451  0.4897  0.9022
18605SOL    HW259221   5.474   4.169   6.708  1.0626  1.2912  1.6242
18606SOL     OW59222   1.186   8.272  10.258 -0.7105 -0.0373 -0.2749
18606SOL    HW159223   1.239   8.217  10.200  0.9394  0.0587  1.1155
18606SOL    HW259224   1.163   8.215  10.331 -0.0126  0.7618  0.5777
18607SOL     OW59225   5.241   8.513   9.884  0.0735  0.5107  0.0590
18607SOL    HW159226   5.330   8.535   9.857  0.3737 -1.0862 -0.2952
18607SOL    HW259227   5.246   8.509   9.980  0.6473 -0.6717 -0.0172
18608SOL     OW59228   0.037   9.903   6.854  0.4970 -0.2262 -0.4752
18608SOL    HW159229   0.055   9.934   6.765  0.9930  0.4549 -0.1411
18608SOL    HW259230  -0.035   9.958   6.885 -0.0771 -0.8643 -0.6697
18609SOL     OW59231   8.004   4.087   3.245  0.3672 -0.3335  0.0258
18609SOL    HW159232   8.017   4.017   3.309 -0.7966 -1.0501 -0.4996
18609SOL    HW259233   7.986   4.165   3.297  1.8171 -0.3792  0.6228
18610SOL     OW59234   4.413   7.873  10.911 -0.1273 -0.1479 -0.4489
18610SOL    HW159235   4.431   7.966  10.899  0.0591 -0.0572  0.4515
18610SOL    HW259236   4.447   7.853  10.999  1.3985 -1.4464 -1.3013
18611SOL     OW59237   2.061   1.387   9.151 -0.0417  0.0711  1.0673
18611SOL    HW159238   2.132   1.357   9.208  0.4276 -0.9649 -0.0450
18611SOL    HW259239   2.031   1.468   9.192  1.4005  0.2243  1.8731
18612SOL     OW59240   2.149   6.750   5.485  0.2248 -0.1749 -0.0327
18612SOL    HW159241   2.089   6.779   5.553  0.0187  0.3528 -0.4400
18612SOL    HW259242   2.177   6.831   5.441  0.3429 -0.5162 -0.5875
18613SOL     OW59243   3.950   2.789   6.436 -0.6436  0.6311  0.1221
18613SOL    HW159244   3.973   2.842   6.360 -0.7125  0.3626 -0.0870
18613SOL    HW259245   3.966   2.699   6.409  1.3016  0.6494  1.1178
18614SOL     OW59246   5.007   0.519   0.906 -0.2173 -0.5798  0.6783
18614SOL    HW159247   5.074   0.485   0.966 -0.4553  0.0271  1.2916
18614SOL    HW259248   4.925   0.505   0.952 -0.4946 -1.0852  0.0341
18615SOL     OW59249   5.331  10.444  10.568  0.2101 -0.3023 -0.4225
18615SOL    HW159250   5.289  10.503  10.631 -2.6454 -2.8542  0.1848
18615SOL    HW259251   5.303  10.476  10.483  0.1986  0.3375 -0.1823
18616SOL     OW59252   6.596   4.957   0.797 -0.4679 -0.7711 -0.1827
18616SOL    HW159253   6.584   4.974   0.890  0.2333 -0.4441 -0.1469
18616SOL    HW259254   6.670   4.896   0.794 -1.5554 -2.0847 -0.4332
18617SOL     OW59255   3.560   3.940   8.709  0.3292 -0.3043 -0.3624
18617SOL    HW159256   3.562   3.895   8.625 -0.2943 -1.9066  0.4581
18617SOL    HW259257   3.649   3.933   8.743  0.1540 -1.2462 -0.0810
18618SOL     OW59258   4.927   4.482   1.813  0.0137 -0.1625  0.0737
18618SOL    HW159259   4.900   4.574   1.806  0.0852 -0.1994 -0.8687
18618SOL    HW259260   4.969   4.475   1.898 -0.9686  0.4276  0.6156
18619SOL     OW59261   4.920   5.347   0.626  0.3716  0.1614 -1.1662
18619SOL    HW159262   5.002   5.382   0.662 -0.6257  1.6907 -0.3192
18619SOL    HW259263   4.863   5.423   0.621 -0.8863 -0.8382 -2.0849
18620SOL     OW59264  10.593   5.995   3.114  0.5422  0.0398 -0.0619
18620SOL    HW159265  10.614   6.085   3.138  2.2227 -0.1381 -0.8251
18620SOL    HW259266  10.497   5.993   3.109  0.4383  1.4413  1.2360
18621SOL     OW59267   7.857  10.147   5.765  0.0212  0.4365  0.2189
18621SOL    HW159268   7.820  10.104   5.688  0.8665  1.0094 -0.5124
18621SOL    HW259269   7.793  10.215   5.787 -1.0302 -0.7816  1.0253
18622SOL     OW59270   2.477   6.570   9.304  0.1327 -0.9370 -0.2126
18622SOL    HW159271   2.520   6.570   9.390 -1.7652 -0.7303  0.7686
18622SOL    HW259272   2.488   6.660   9.273  0.9081 -1.0343 -0.2368
18623SOL     OW59273  10.218   5.481  10.740  0.1723 -0.0559 -0.4932
18623SOL    HW159274  10.290   5.450  10.795 -0.0371  0.0701 -0.1460
18623SOL    HW259275  10.205   5.412  10.675 -0.9456 -1.1598  0.8788
18624SOL     OW59276  10.073   9.782   6.353  0.0366 -0.1008  0.2507
18624SOL    HW159277   9.987   9.812   6.324 -1.1092 -1.1260  2.3975
18624SOL    HW259278  10.072   9.687   6.336  0.0090 -0.4198  1.8876
18625SOL     OW59279   8.952   7.993   9.532  0.2857 -0.4212 -0.7736
18625SOL    HW159280   8.978   8.083   9.550  0.5129 -0.2641 -1.8546
18625SOL    HW259281   8.960   7.948   9.616 -2.4870  1.1836  0.4104
18626SOL     OW59282   8.498   7.726   3.797  0.1803  0.0486 -0.6007
18626SOL    HW159283   8.548   7.669   3.855 -1.0583  0.0925  0.5335
18626SOL    HW259284   8.478   7.803   3.851 -0.8415  0.1673 -1.1428
18627SOL     OW59285   5.315   3.998   4.062 -0.0641 -0.2513 -0.2557
18627SOL    HW159286   5.281   3.966   3.978  0.2992 -1.4398  0.0403
18627SOL    HW259287   5.291   4.090   4.064  0.2074 -0.1309 -1.8159
18628SOL     OW59288   3.601   2.231   3.469 -0.4080  0.0373 -0.0755
18628SOL    HW159289   3.521   2.197   3.430 -0.5582 -0.1163  0.3597
18628SOL    HW259290   3.592   2.326   3.462 -0.5014  0.0148 -0.2749
18629SOL     OW59291   8.231   9.521   2.804  0.2073  0.5417 -0.0948
18629SOL    HW159292   8.226   9.457   2.733  0.1560  0.8214 -0.3468
18629SOL    HW259293   8.283   9.478   2.872 -0.6665 -0.1461  0.1469
18630SOL     OW59294   1.874   6.365   4.114  0.2053  0.0773 -0.2561
18630SOL    HW159295   1.956   6.366   4.163 -0.7094 -0.6749  1.3208
18630SOL    HW259296   1.884   6.436   4.050  1.5041  0.9266  0.8593
18631SOL     OW59297  10.677   7.861   0.852  0.1219  0.0370  0.3333
18631SOL    HW159298  10.638   7.776   0.872  0.2423 -0.1416 -0.1894
18631SOL    HW259299  10.732   7.844   0.776 -0.8236  0.8637 -0.5314
18632SOL     OW59300   1.195   9.375   4.430 -0.4172  0.0934  0.1824
18632SOL    HW159301   1.173   9.359   4.338 -1.6648  1.0215  0.2992
18632SOL    HW259302   1.286   9.405   4.429  0.2041 -1.7338 -0.5472
18633SOL     OW59303   3.201   1.736   9.899 -0.0664 -0.0159 -0.6236
18633SOL    HW159304   3.229   1.695   9.980 -0.3085 -0.5358 -0.8026
18633SOL    HW259305   3.210   1.830   9.915 -1.9612 -0.0340  0.6871
18634SOL     OW59306   5.985   9.438   6.686 -0.0095  0.9286 -0.3251
18634SOL    HW159307   5.993   9.411   6.777  2.1370  0.7583 -0.5367
18634SOL    HW259308   6.055   9.502   6.674  0.9721 -0.4716 -2.3473
18635SOL     OW59309   9.561   9.073   2.127 -0.4865 -0.1639 -0.1493
18635SOL    HW159310   9.509   9.009   2.174 -0.7158 -0.5907 -0.9728
18635SOL    HW259311   9.498   9.119   2.071 -0.0683 -0.2908 -0.7251
18636SOL     OW59312   5.104   3.148   6.373  0.0598  0.5237 -0.5177
18636SOL    HW159313   5.099   3.212   6.444 -1.1669  0.9468 -0.9704
18636SOL    HW259314   5.072   3.196   6.296 -2.4062 -1.0817 -0.5531
18637SOL     OW59315   2.749   8.377   5.911 -0.2178 -0.2756  0.0705
18637SOL    HW159316   2.708   8.395   5.827  1.1092  0.8088 -0.3548
18637SOL    HW259317   2.843   8.372   5.892 -0.0920 -2.4944  1.0681
18638SOL     OW59318   5.331   8.542   0.901  0.6949  0.3308 -0.5737
18638SOL    HW159319   5.351   8.490   0.823  0.0861 -0.5945 -0.1098
18638SOL    HW259320   5.355   8.632   0.876  0.8798 -0.0190 -1.6850
18639SOL     OW59321  10.478   6.288   5.376  0.2027 -0.2575  0.0396
18639SOL    HW159322  10.384   6.302   5.369  0.6651  2.3025 -1.9456
18639SOL    HW259323  10.490   6.194   5.362 -1.8368 -0.2360 -2.0980
18640SOL     OW59324   4.550   3.698   1.030 -0.3344 -0.1843 -0.0679
18640SOL    HW159325   4.523   3.702   0.939 -0.7021  0.4522  0.0654
18640SOL    HW259326   4.493   3.761   1.075 -1.4469 -1.8263  0.9168
18641SOL     OW59327   0.402   9.462   4.874  0.0275 -0.4651 -0.0458
18641SOL    HW159328   0.407   9.527   4.945 -1.0871 -3.0442  2.5139
18641SOL    HW259329   0.482   9.475   4.824  0.5764  1.8314  1.3310
18642SOL     OW59330  10.039   9.198   0.304  0.3690 -0.1399 -0.1334
18642SOL    HW159331  10.076   9.166   0.222  1.1010 -0.9230  0.5033
18642SOL    HW259332  10.044   9.123   0.364  0.4923  0.6444  0.8442
18643SOL     OW59333   4.434   8.848   0.329  0.2420  0.1602 -0.1338
18643SOL    HW159334   4.410   8.883   0.243 -2.4412  1.6963  1.1868
18643SOL    HW259335   4.393   8.762   0.332  1.2399 -0.3412 -0.8010
18644SOL     OW59336  10.048   6.799   2.346  0.0119  0.5568 -0.3738
18644SOL    HW159337  10.091   6.779   2.263 -0.1145 -2.6598  0.2724
18644SOL    HW259338  10.119   6.819   2.406  0.3100 -0.0502 -0.5191
18645SOL     OW59339   4.503   2.673   3.083  0.3448  0.3211  0.1217
18645SOL    HW159340   4.420   2.688   3.127 -0.1398 -1.6074 -0.0910
18645SOL    HW259341   4.568   2.713   3.140 -0.6809  1.3802  0.5511
18646SOL     OW59342   8.865   7.609   7.779 -0.1537  0.6996  0.1878
18646SOL    HW159343   8.941   7.605   7.837  0.6244 -0.9159 -0.9065
18646SOL    HW259344   8.826   7.522   7.785  0.4553  0.2113 -2.3859
18647SOL     OW59345   8.789   8.106   5.987 -0.2355 -0.2059 -0.8498
18647SOL    HW159346   8.786   8.202   5.989  1.4785 -0.1182 -1.2593
18647SOL    HW259347   8.779   8.084   5.895  1.8653 -0.2780 -1.0886
18648SOL     OW59348   1.782   7.619   5.145 -0.9050  0.1339  0.5038
18648SOL    HW159349   1.712   7.643   5.206 -0.2285 -0.0771  1.3673
18648SOL    HW259350   1.804   7.529   5.169 -2.1582 -0.7296 -1.5053
18649SOL     OW59351   3.263   1.103  10.643  0.1416 -0.6628  1.1530
18649SOL    HW159352   3.316   1.052  10.583  0.8525  1.1677  0.2043
18649SOL    HW259353   3.174   1.096  10.608  0.4694 -0.0249  0.1959
18650SOL     OW59354  10.961   0.549   0.802  0.5946 -0.8561  0.3471
18650SOL    HW159355  11.052   0.537   0.774  1.2922  2.2180  1.1435
18650SOL    HW259356  10.946   0.477   0.864  2.6423 -1.1233  0.5777
18651SOL     OW59357   0.458   0.688   3.217  0.1453 -0.4629 -0.1378
18651SOL    HW159358   0.507   0.741   3.281  2.2597 -2.7826  0.2541
18651SOL    HW259359   0.379   0.661   3.264  1.3592 -1.5970  1.3247
18652SOL     OW59360   4.538   9.131  10.013  0.1228  0.2789  0.1553
18652SOL    HW159361   4.563   9.143  10.104 -0.1731 -0.4091  0.3257
18652SOL    HW259362   4.575   9.207   9.968  0.8784  0.2634  0.7327
18653SOL     OW59363   4.150   6.459   9.324  0.0198 -0.1207 -0.4082
18653SOL    HW159364   4.074   6.477   9.269 -0.4714 -0.2225  0.2307
18653SOL    HW259365   4.113   6.429   9.407  0.7407  0.6216  0.1890
18654SOL     OW59366   9.813   8.841   4.560 -0.1451 -0.1694  0.1773
18654SOL    HW159367   9.779   8.754   4.538 -0.6507 -0.4622  1.9952
18654SOL    HW259368   9.897   8.846   4.515 -0.0695 -1.6399  0.1253
18655SOL     OW59369   2.377   7.958  10.590  0.3988  0.5221 -0.2651
18655SOL    HW159370   2.334   7.876  10.615  0.0456  0.2039 -1.8346
18655SOL    HW259371   2.318   8.027  10.621  1.2937  0.2497  2.1624
18656SOL     OW59372   9.741   9.272   3.733 -0.2932 -0.1870  0.0168
18656SOL    HW159373   9.832   9.291   3.710 -0.3361 -1.1664 -0.9895
18656SOL    HW259374   9.723   9.329   3.808  1.3714 -0.4997  0.6766
18657SOL     OW59375   8.642   9.208   0.375 -0.5492  0.6920  0.4250
18657SOL    HW159376   8.598   9.125   0.393 -0.5613  0.4813 -0.5413
18657SOL    HW259377   8.576   9.262   0.331 -0.3430  0.9764  0.4607
18658SOL     OW59378   0.995   4.885   6.127 -0.1354 -0.3909  0.5625
18658SOL    HW159379   1.018   4.816   6.189  1.9328 -0.9766 -0.8039
18658SOL    HW259380   1.031   4.965   6.165  3.1266 -1.0978 -0.9047
18659SOL     OW59381  10.571   6.375   5.144  0.0722 -0.1525  0.1427
18659SOL    HW159382  10.549   6.332   5.062 -0.7717  0.9278 -0.2094
18659SOL    HW259383  10.524   6.326   5.211 -2.2602  1.2201 -0.4399
18660SOL     OW59384   4.668   3.793   7.194 -0.1256 -0.3469  0.1894
18660SOL    HW159385   4.599   3.835   7.142 -0.2403  0.8743  1.2928
18660SOL    HW259386   4.666   3.840   7.278  4.6868  2.4759 -1.0627
18661SOL     OW59387   8.534   9.934   7.577 -0.1204  0.2076 -0.2218
18661SOL    HW159388   8.628   9.925   7.562  0.2374  1.1388  1.3776
18661SOL    HW259389   8.521   9.900   7.666 -1.1444  0.8663 -0.1154
18662SOL     OW59390   5.654   7.157   3.103  0.7653 -0.6028 -0.2088
18662SOL    HW159391   5.644   7.223   3.172 -1.0950 -0.9540 -0.1316
18662SOL    HW259392   5.740   7.118   3.120  0.8656  0.1878  1.1550
18663SOL     OW59393   7.467   7.439  10.397 -1.1939 -0.6494  0.3972
18663SOL    HW159394   7.398   7.445  10.462  1.4481 -1.9446  3.4339
18663SOL    HW259395   7.477   7.346  10.381 -0.9352 -0.4052 -0.9260
18664SOL     OW59396   0.170   2.598  10.419  0.0610 -0.1172 -0.0736
18664SOL    HW159397   0.206   2.514  10.446  2.1064  0.1583 -1.8362
18664SOL    HW259398   0.184   2.656  10.495  1.6360 -0.5056 -0.0629
18665SOL     OW59399   2.670   2.923   0.607  0.2386 -0.0590  0.2676
18665SOL    HW159400   2.600   2.876   0.651 -0.8448  0.1296 -1.2302
18665SOL    HW259401   2.729   2.854   0.576 -0.4724 -0.3485 -0.4570
18666SOL     OW59402   5.896   2.356   9.767  0.7788  0.1532  0.6265
18666SOL    HW159403   5.893   2.360   9.863 -1.8890 -0.7705  0.6374
18666SOL    HW259404   5.961   2.289   9.748 -1.6563 -2.7483  1.9711
18667SOL     OW59405   1.810   4.137   0.824  0.0224 -0.2308  0.2732
18667SOL    HW159406   1.755   4.064   0.794  1.9354 -1.9867  0.9601
18667SOL    HW259407   1.781   4.153   0.914 -1.6686  1.1347 -0.4764
18668SOL     OW59408   5.960   3.105   7.060 -0.3971  0.3347  0.6676
18668SOL    HW159409   6.043   3.123   7.103 -1.0159 -0.3361  2.1705
18668SOL    HW259410   5.982   3.095   6.967  1.2100  0.0504  1.0749
18669SOL     OW59411  10.038   2.317   3.644  0.1605 -0.4930 -0.3460
18669SOL    HW159412  10.099   2.336   3.572 -1.4941  0.7247 -1.4616
18669SOL    HW259413  10.090   2.267   3.707  2.1431 -0.0065 -1.5555
18670SOL     OW59414   1.649   8.494   6.728  0.6561  0.1400 -0.1330
18670SOL    HW159415   1.704   8.426   6.767  0.8207  0.0449 -0.5246
18670SOL    HW259416   1.623   8.549   6.802 -3.0978 -2.8660  0.9612
18671SOL     OW59417  10.792   9.266   6.808 -0.3640  0.1061 -0.5546
18671SOL    HW159418  10.813   9.209   6.734 -0.0479 -0.4934 -0.0099
18671SOL    HW259419  10.751   9.343   6.768  1.0258  0.4001 -1.4784
18672SOL     OW59420  10.141   1.924   0.466  0.4339  0.2160 -0.0170
18672SOL    HW159421  10.109   1.862   0.532  0.2532  1.1158  0.7392
18672SOL    HW259422  10.073   1.923   0.398 -0.0128  0.2735  0.4268
18673SOL     OW59423   0.013   3.974   1.722 -0.2108 -0.6515 -0.0520
18673SOL    HW159424   0.109   3.977   1.722 -0.2550  1.4413  0.3080
18673SOL    HW259425  -0.008   3.893   1.677  1.7435 -1.4501  0.4092
18674SOL     OW59426  10.950   0.322   8.671 -0.4103  0.0956  0.1017
18674SOL    HW159427  10.934   0.236   8.709 -1.3985 -0.5886 -1.8026
18674SOL    HW259428  10.962   0.380   8.746 -3.3209 -1.0107  1.4650
18675SOL     OW59429   0.682   3.762   6.481 -0.0628  0.2720 -0.8039
18675SOL    HW159430   0.600   3.764   6.431  0.2230 -0.3961 -1.3026
18675SOL    HW259431   0.677   3.838   6.538 -2.2729 -1.3119  1.1590
18676SOL     OW59432   0.770   1.320   7.386  0.3857 -0.0510  0.5340
18676SOL    HW159433   0.751   1.385   7.318  1.3258  0.3172  0.6080
18676SOL    HW259434   0.772   1.236   7.339  1.9037  0.3003 -0.0751
18677SOL     OW59435  10.035   0.081   2.818  0.2416 -0.3240  0.2216
18677SOL    HW159436  10.110   0.034   2.856  0.1135 -0.7908 -0.0999
18677SOL    HW259437  10.042   0.065   2.724 -0.7086 -1.0232  0.2682
18678SOL     OW59438   7.643   3.701   0.117 -0.5493  0.4179  0.0962
18678SOL    HW159439   7.655   3.707   0.022 -1.1330  0.2999  0.0150
18678SOL    HW259440   7.549   3.712   0.131 -0.7585 -1.6019  0.4879
18679SOL     OW59441   6.582  10.357   5.485  0.2230  0.4426 -0.0336
18679SOL    HW159442   6.584  10.441   5.440  0.4212  0.8360  0.7025
18679SOL    HW259443   6.549  10.295   5.419  0.3181  1.0461 -0.6490
18680SOL     OW59444  10.279  10.780  10.516 -0.1527 -0.1792  0.0473
18680SOL    HW159445  10.193  10.800  10.553  0.6387  0.3958  1.6589
18680SOL    HW259446  10.318  10.866  10.498  0.9045 -0.3716  1.3256
18681SOL     OW59447   9.174   7.884   1.885  0.2279 -0.0955  0.6052
18681SOL    HW159448   9.146   7.799   1.852  0.6557 -0.0238  0.0632
18681SOL    HW259449   9.093   7.926   1.915  0.1386 -1.1325  1.9076
18682SOL     OW59450   7.579   1.819   8.431  0.3183 -0.2463  0.0107
18682SOL    HW159451   7.667   1.853   8.411 -0.6399  1.6775 -1.1442
18682SOL    HW259452   7.520   1.879   8.386 -1.6209 -1.2873  1.1057
18683SOL     OW59453   2.855   3.168   3.891  0.4513 -0.5326 -0.2002
18683SOL    HW159454   2.937   3.208   3.920  0.2584 -0.0199 -0.3630
18683SOL    HW259455   2.839   3.204   3.804 -0.0446 -0.4911 -0.0967
18684SOL     OW59456   0.963   0.924   9.820  0.2993  0.0510  0.1675
18684SOL    HW159457   0.917   1.004   9.794 -0.7141  0.1217  2.1121
18684SOL    HW259458   1.056   0.948   9.816 -0.0315  1.7993  2.1236
18685SOL     OW59459   0.571   3.364   1.681 -0.5809  0.0576  0.2778
18685SOL    HW159460   0.518   3.429   1.728 -0.0583  1.0671 -0.5021
18685SOL    HW259461   0.645   3.348   1.739  0.5001  1.9381 -0.5471
18686SOL     OW59462   3.208   7.020   1.862 -0.6885  0.0845 -0.5848
18686SOL    HW159463   3.153   7.054   1.792 -0.9025  0.8136 -0.0700
18686SOL    HW259464   3.172   6.933   1.881  0.6062 -0.9640 -2.7237
18687SOL     OW59465   8.740   4.734   4.337  0.0608  0.6991 -0.4112
18687SOL    HW159466   8.731   4.766   4.247 -0.8427  0.2216 -0.4936
18687SOL    HW259467   8.733   4.813   4.391 -0.2682  0.8848 -0.7179
18688SOL     OW59468   7.719   0.926   7.016 -0.0880 -0.1157  0.9260
18688SOL    HW159469   7.684   0.987   6.950 -0.2487  0.2769  1.3699
18688SOL    HW259470   7.747   0.982   7.088  2.5388 -0.3365  0.1164
18689SOL     OW59471   2.845   2.551   7.866 -0.0484 -0.5081 -0.1523
18689SOL    HW159472   2.825   2.465   7.902  1.3019 -0.8858 -0.2925
18689SOL    HW259473   2.911   2.588   7.925  0.3176 -0.0945 -0.8077
18690SOL     OW59474   3.026   6.339   0.886  0.1202 -0.3945  0.7409
18690SOL    HW159475   2.958   6.327   0.819 -0.0585 -0.5941  0.9595
18690SOL    HW259476   3.103   6.297   0.848  0.7242  1.7033 -0.4504
18691SOL     OW59477   7.802   0.630   1.464 -0.1398 -0.5306  0.0414
18691SOL    HW159478   7.782   0.537   1.452  1.1625 -1.1034  1.9623
18691SOL    HW259479   7.787   0.645   1.558 -1.6494  1.5513 -0.4934
18692SOL     OW59480   4.969   6.834   1.309  0.1629  1.0237  0.0920
18692SOL    HW159481   5.033   6.772   1.345 -2.6092  0.5157  4.6337
18692SOL    HW259482   5.012   6.919   1.315  1.6362  0.3098 -0.1027
18693SOL     OW59483   6.367   2.084   0.844  0.3845 -0.5485 -0.1379
18693SOL    HW159484   6.305   2.050   0.780  2.5414 -1.8254 -1.6058
18693SOL    HW259485   6.407   2.159   0.801 -0.8709  0.9267  1.2175
18694SOL     OW59486   8.142   7.269   4.246  0.1095  0.2958  0.1447
18694SOL    HW159487   8.154   7.185   4.291 -0.2241 -0.4710 -1.1780
18694SOL    HW259488   8.060   7.260   4.200 -0.8639  2.0481  1.4630
18695SOL     OW59489   4.726   5.434   8.618  0.0337 -0.1491  0.1379
18695SOL    HW159490   4.638   5.402   8.597 -0.2048  1.6729 -1.8202
18695SOL    HW259491   4.723   5.452   8.711 -1.2667 -1.3296  0.3504
18696SOL     OW59492   4.175   1.087   9.028  0.4870 -0.6232  0.3784
18696SOL    HW159493   4.232   1.012   9.044  2.2720  0.6623  0.2578
18696SOL    HW259494   4.153   1.120   9.116 -1.3857 -2.0441  0.4715
18697SOL     OW59495   1.373   3.360   1.200 -0.1535 -0.0444  0.3772
18697SOL    HW159496   1.415   3.446   1.200 -0.5512  0.1502  0.1264
18697SOL    HW259497   1.304   3.367   1.134 -0.0553 -0.6195  0.2116
18698SOL     OW59498   3.057   4.404   8.247 -0.4261  0.1185 -0.1145
18698SOL    HW159499   3.105   4.447   8.177 -0.6340  0.9798  0.2729
18698SOL    HW259500   3.052   4.469   8.317 -3.1330  0.4741 -0.5774
18699SOL     OW59501   3.168   3.312   9.602 -0.3546  0.0842  0.6032
18699SOL    HW159502   3.175   3.407   9.592  0.4597  0.0925  1.2490
18699SOL    HW259503   3.079   3.292   9.571 -0.9262  1.1965  1.4573
18700SOL     OW59504  10.469   3.254  10.403  0.0700 -0.4997 -0.5645
18700SOL    HW159505  10.538   3.188  10.408 -0.4591 -1.0726 -0.7409
18700SOL    HW259506  10.413   3.236  10.479 -0.5935 -0.8452 -1.1282
18701SOL     OW59507  10.320   1.090   4.497  0.0744 -0.2229  0.9082
18701SOL    HW159508  10.277   1.032   4.560 -2.9915  2.4111  1.3562
18701SOL    HW259509  10.266   1.085   4.419  0.4867  1.0391  0.5248
18702SOL     OW59510   0.425   5.676   2.832  0.3498 -0.1060 -0.0900
18702SOL    HW159511   0.503   5.628   2.859  1.2726  1.0677 -0.5741
18702SOL    HW259512   0.422   5.751   2.891  1.3288  1.4808 -1.9707
18703SOL     OW59513   3.706   2.642   5.459  0.2022 -0.2819 -0.7235
18703SOL    HW159514   3.793   2.638   5.420 -0.3246 -0.9534 -1.8851
18703SOL    HW259515   3.659   2.569   5.420 -0.8071 -0.0842  0.0838
18704SOL     OW59516   3.582   1.276   2.743 -0.2374 -0.2955  0.1782
18704SOL    HW159517   3.637   1.327   2.803  1.3087 -2.4182  0.6640
18704SOL    HW259518   3.639   1.257   2.669 -0.8377 -1.1587 -0.0704
18705SOL     OW59519   7.475   1.750   4.096  0.4383 -0.0484  0.0858
18705SOL    HW159520   7.394   1.707   4.125  1.0774 -0.2152  1.6635
18705SOL    HW259521   7.519   1.684   4.041  1.0127 -1.1281  1.8115
18706SOL     OW59522   7.705   5.845   0.755  0.3150 -0.7851 -0.5476
18706SOL    HW159523   7.691   5.772   0.695 -0.4686 -1.1409  0.0727
18706SOL    HW259524   7.621   5.858   0.798  0.9795 -0.7956  0.7856
18707SOL     OW59525   4.480   7.854   7.970  0.2196 -0.5631  0.3844
18707SOL    HW159526   4.538   7.824   7.900  1.6051 -0.2841  1.4140
18707SOL    HW259527   4.399   7.879   7.924  2.1629  2.5430 -1.5416
18708SOL     OW59528   6.056   0.616   5.229 -0.0838  0.2993 -0.4930
18708SOL    HW159529   6.145   0.616   5.192 -0.4903 -0.5169 -1.4961
18708SOL    HW259530   6.000   0.640   5.155 -0.9074 -1.2505 -0.3939
18709SOL     OW59531   7.251   6.027   8.108 -0.5929  0.4896 -0.3515
18709SOL    HW159532   7.213   5.969   8.043 -0.4689  0.3038 -0.2582
18709SOL    HW259533   7.191   6.021   8.183 -1.0113  1.0874 -0.6242
18710SOL     OW59534   7.775   2.399   7.430 -0.5036 -0.2762  0.5205
18710SOL    HW159535   7.822   2.440   7.503 -1.5153  0.2876  0.8715
18710SOL    HW259536   7.685   2.431   7.439 -1.0294 -1.6134  0.0704
18711SOL     OW59537   2.025   9.572   0.542  0.0460 -0.1177 -0.1114
18711SOL    HW159538   2.084   9.497   0.542 -0.4066 -0.5109  2.6526
18711SOL    HW259539   2.067   9.636   0.600  0.0877  1.5280 -1.8866
18712SOL     OW59540   6.574  10.889   7.745  0.4220  1.1183 -0.4118
18712SOL    HW159541   6.650  10.834   7.761 -1.1492 -0.4498  2.0221
18712SOL    HW259542   6.581  10.960   7.809 -1.1966 -0.1595  1.2093
18713SOL     OW59543  10.111   5.080   5.399 -0.2268 -0.0244 -0.0570
18713SOL    HW159544  10.152   4.994   5.411  1.7641  0.7297 -1.1389
18713SOL    HW259545  10.124   5.125   5.483 -1.0152 -0.6805  0.4124
18714SOL     OW59546   1.356   4.612   7.597 -0.2621 -0.0801 -0.2361
18714SOL    HW159547   1.359   4.584   7.506 -2.3021 -1.5578  0.1223
18714SOL    HW259548   1.434   4.571   7.636  0.7670  0.7742 -1.3374
18715SOL     OW59549   5.880   6.435   3.733  0.8427 -0.1372 -0.2956
18715SOL    HW159550   5.878   6.415   3.827  0.6050  0.6587 -0.1258
18715SOL    HW259551   5.903   6.528   3.729  0.9866 -0.2031 -1.0316
18716SOL     OW59552   8.649   4.780   1.823  0.6019 -0.3952 -0.0307
18716SOL    HW159553   8.599   4.699   1.834  0.1372 -0.0293  0.5366
18716SOL    HW259554   8.601   4.845   1.873  1.3812  0.0730  0.1168
18717SOL     OW59555  10.148   4.766   5.853  0.1962 -0.2269 -1.3394
18717SOL    HW159556  10.208   4.709   5.902 -0.3851 -0.7118 -1.1736
18717SOL    HW259557  10.169   4.750   5.761  1.8460  1.2984 -1.2573
18718SOL     OW59558   0.171   5.802   4.779 -0.1264 -0.4523 -0.5296
18718SOL    HW159559   0.219   5.726   4.812  0.9702 -0.1101 -1.3177
18718SOL    HW259560   0.084   5.795   4.820  1.1651 -0.0457  2.3858
18719SOL     OW59561   0.792   3.688   9.244 -0.2903 -0.0130 -0.2730
18719SOL    HW159562   0.833   3.768   9.277  1.5062 -0.6638 -0.9018
18719SOL    HW259563   0.737   3.657   9.316 -0.1442  1.1850  0.3607
18720SOL     OW59564   4.205  10.739   6.358 -0.3153  0.4260  0.3834
18720SOL    HW159565   4.163  10.678   6.419  0.9597 -0.3613  0.4884
18720SOL    HW259566   4.168  10.716   6.273 -1.6313  1.1106  0.7543
18721SOL     OW59567   4.192   5.382  10.669 -0.2433 -0.0092  0.4742
18721SOL    HW159568   4.172   5.463  10.716  0.2608 -0.6243  1.7951
18721SOL    HW259569   4.229   5.410  10.586 -1.6389  1.1071  0.2211
18722SOL     OW59570   6.102  10.288  10.454  0.2015  0.6074  0.2458
18722SOL    HW159571   6.075  10.227  10.385  0.8893  1.5156 -0.8300
18722SOL    HW259572   6.020  10.312  10.498 -0.1637 -0.4708  0.1728
18723SOL     OW59573  10.458   1.320   8.894  0.5513  0.0685  0.3660
18723SOL    HW159574  10.387   1.374   8.929  1.2980  0.5596  1.1538
18723SOL    HW259575  10.535   1.346   8.945  1.3241 -0.3542 -0.5765
18724SOL     OW59576   8.742  10.650   7.961  0.1473 -0.2177 -0.2341
18724SOL    HW159577   8.692  10.614   8.034 -0.3890  0.4111 -0.2913
18724SOL    HW259578   8.826  10.676   8.000 -0.3068  0.5307  0.2495
18725SOL     OW59579   5.606  10.487   4.363  0.0238  0.3092 -0.5598
18725SOL    HW159580   5.633  10.400   4.391  1.0616  0.3306 -1.4697
18725SOL    HW259581   5.558  10.523   4.438 -0.9251 -1.2637 -0.4005
18726SOL     OW59582   5.759   8.438  10.648  0.4326 -0.4693 -0.2818
18726SOL    HW159583   5.670   8.444  10.615  0.7007  0.1339 -0.9148
18726SOL    HW259584   5.750   8.430  10.743 -0.2404  1.1128 -0.2118
18727SOL     OW59585   1.172   8.108  10.516  0.4275  0.1167 -0.0471
18727SOL    HW159586   1.239   8.076  10.576  1.5683 -0.3873 -1.5590
18727SOL    HW259587   1.117   8.032  10.499 -0.1193  0.3524  0.6266
18728SOL     OW59588   9.206   2.193   2.129  0.2826 -0.2987 -0.5916
18728SOL    HW159589   9.128   2.149   2.164  0.4731 -0.6108 -0.5563
18728SOL    HW259590   9.273   2.125   2.128  1.0030  0.3505  0.8688
18729SOL     OW59591   7.393   2.614   7.306  0.1598 -0.4239  0.3233
18729SOL    HW159592   7.357   2.525   7.306 -2.7371  0.6516  2.0270
18729SOL    HW259593   7.362   2.652   7.223 -0.7452 -0.2243  0.7460
18730SOL     OW59594   6.825   1.346   1.216  0.6376 -0.1309 -0.1035
18730SOL    HW159595   6.913   1.312   1.207  0.2015 -1.3524  0.1017
18730SOL    HW259596   6.827   1.431   1.172  1.9301 -0.1066 -0.0139
18731SOL     OW59597   6.415  10.125   5.329  0.5192 -0.0795  0.1883
18731SOL    HW159598   6.386  10.099   5.416 -0.5807  2.3725  0.5996
18731SOL    HW259599   6.357  10.079   5.269 -0.0007 -0.2420  0.8111
18732SOL     OW59600   5.513   8.352   9.259  0.2851  0.1667 -0.1267
18732SOL    HW159601   5.429   8.398   9.263  0.9265  1.4999 -1.2942
18732SOL    HW259602   5.561   8.396   9.187  1.7046 -1.0022  0.0811
18733SOL     OW59603   7.705   2.247   3.034  0.1855 -0.0588 -0.3495
18733SOL    HW159604   7.698   2.340   3.053 -1.7899 -0.3900  0.6678
18733SOL    HW259605   7.645   2.232   2.961 -0.0992 -0.6672  0.0066
18734SOL     OW59606   6.353  10.953   8.502 -0.4349  0.0679 -0.2248
18734SOL    HW159607   6.345  11.041   8.537 -0.4746  0.7053 -1.8007
18734SOL    HW259608   6.402  10.964   8.420 -0.4589 -1.3608 -0.4465
18735SOL     OW59609   3.218  10.459   3.709 -0.0868  0.3398  0.3206
18735SOL    HW159610   3.236  10.366   3.696 -0.4183  0.5736 -1.8577
18735SOL    HW259611   3.191  10.465   3.801 -1.2346 -1.8856  0.1615
18736SOL     OW59612   2.661   3.067   6.057  0.2102 -0.4109  0.1720
18736SOL    HW159613   2.696   3.103   5.976 -1.8616 -0.4565 -0.7609
18736SOL    HW259614   2.698   2.979   6.063  0.5684 -0.3104 -0.5864
18737SOL     OW59615   6.918   4.218   5.793  0.2613 -0.0756 -0.3930
18737SOL    HW159616   6.953   4.212   5.704  0.2935 -0.6766 -0.3443
18737SOL    HW259617   6.952   4.140   5.837 -0.9109 -0.5200 -0.2630
18738SOL     OW59618   4.936   5.046  10.378  0.4259  0.1039 -0.2059
18738SOL    HW159619   4.865   5.100  10.413  0.0441 -0.5836  0.1062
18738SOL    HW259620   4.892   4.973  10.335  0.8968  1.1119 -2.4221
18739SOL     OW59621   4.472   9.418   6.837  0.1606  0.4269 -0.4472
18739SOL    HW159622   4.382   9.441   6.813 -0.4950 -0.8112  0.7990
18739SOL    HW259623   4.493   9.343   6.781  0.1229  0.1942 -0.1489
18740SOL     OW59624   1.093   7.061   3.227  0.0515 -0.1691 -0.0323
18740SOL    HW159625   1.038   7.032   3.299  0.9626  0.6653  1.0264
18740SOL    HW259626   1.036   7.059   3.150 -0.9615 -0.9545  0.7277
18741SOL     OW59627   6.062   1.808   0.949 -0.2637  0.1136  0.0048
18741SOL    HW159628   6.078   1.735   0.888  0.0851 -0.4040  0.7047
18741SOL    HW259629   5.968   1.803   0.968  0.5159 -3.1523  3.7303
18742SOL     OW59630   8.366   3.861   8.611 -0.4360  0.1569 -0.8880
18742SOL    HW159631   8.389   3.887   8.522 -1.5300  1.5314 -0.7951
18742SOL    HW259632   8.309   3.785   8.601 -2.8094  1.9623 -1.5170
18743SOL     OW59633   8.089   3.087  10.087 -0.1804  0.2617 -0.3739
18743SOL    HW159634   8.016   3.059  10.142 -0.8186  1.6455 -0.4985
18743SOL    HW259635   8.077   3.182  10.078  1.3574  0.4202 -0.8036
18744SOL     OW59636   8.172   0.285  10.416  0.2126  0.1176  0.0554
18744SOL    HW159637   8.167   0.324  10.329  1.0623 -0.1277 -0.1090
18744SOL    HW259638   8.265   0.270  10.430  0.1695  0.9796  1.3744
18745SOL     OW59639  10.665   6.822   9.217  0.3281 -0.1730  0.0513
18745SOL    HW159640  10.706   6.855   9.297  2.0012 -0.5998 -0.6103
18745SOL    HW259641  10.681   6.728   9.219  0.7346 -0.1331 -0.9731
18746SOL     OW59642   3.677   7.979   3.370 -0.5147  0.0308 -0.5051
18746SOL    HW159643   3.681   7.979   3.466  0.1617  0.4884 -0.5328
18746SOL    HW259644   3.583   7.990   3.351 -0.7024 -0.5094  0.1019
18747SOL     OW59645   2.466   4.670   5.303 -0.6748  0.1349 -0.2995
18747SOL    HW159646   2.421   4.589   5.327 -0.6257  0.2430  0.1659
18747SOL    HW259647   2.502   4.652   5.217  1.4872 -1.2345  0.8499
18748SOL     OW59648   7.157   1.190   4.988 -0.2745 -0.6926  0.0848
18748SOL    HW159649   7.235   1.136   4.978 -0.2503 -0.6241 -0.0878
18748SOL    HW259650   7.086   1.139   4.949 -0.3183 -0.7592  0.2495
18749SOL     OW59651   6.377  10.964   3.712  0.1707 -0.3651  0.1110
18749SOL    HW159652   6.287  10.994   3.718  0.4689  0.5779 -0.0782
18749SOL    HW259653   6.384  10.926   3.624  0.5862  1.6855 -0.7658
18750SOL     OW59654   1.477   7.161   4.401  0.0655 -0.0697 -0.3320
18750SOL    HW159655   1.509   7.162   4.491 -2.7375 -0.6348  0.6984
18750SOL    HW259656   1.489   7.070   4.372  0.3080 -0.0503 -0.2947
18751SOL     OW59657   0.212   2.682  10.770 -0.3968 -0.3892 -0.2311
18751SOL    HW159658   0.255   2.695  10.855  0.0460  1.1955 -0.6667
18751SOL    HW259659   0.137   2.627  10.789 -1.7699  2.0168  1.6511
18752SOL     OW59660   2.439   2.166   2.989 -0.3631  0.0543  0.7134
18752SOL    HW159661   2.471   2.119   2.912  0.0388 -0.2805  1.0792
18752SOL    HW259662   2.367   2.219   2.956 -0.6897 -0.6669  0.2488
18753SOL     OW59663  10.052   8.762   3.919 -0.3692  0.8142  0.1661
18753SOL    HW159664   9.985   8.703   3.885  0.6854 -0.1150 -0.3568
18753SOL    HW259665  10.042   8.758   4.014 -0.0726 -0.5071  0.1536
18754SOL     OW59666   6.403   4.907   6.491 -0.2123  0.1901 -0.0069
18754SOL    HW159667   6.325   4.852   6.489 -1.0557  1.3797 -0.5120
18754SOL    HW259668   6.473   4.850   6.458 -0.2279 -1.8083  3.1859
18755SOL     OW59669   1.998  10.975   5.767  0.1385  0.6651  0.3783
18755SOL    HW159670   1.985  10.882   5.783  0.2388  0.7030  0.6863
18755SOL    HW259671   2.073  10.979   5.707 -0.6931  0.4887 -0.6747
18756SOL     OW59672  10.819  10.752   6.227 -0.0292 -0.0008 -0.2003
18756SOL    HW159673  10.796  10.691   6.297  1.4032 -0.1794  0.1158
18756SOL    HW259674  10.846  10.696   6.155 -0.2936  0.2230 -0.4737
18757SOL     OW59675   7.262   2.782   0.123 -0.3928  0.2469 -0.4881
18757SOL    HW159676   7.188   2.833   0.092 -2.9942 -1.0795  3.1869
18757SOL    HW259677   7.228   2.692   0.129  1.8363 -0.5793  0.2611
18758SOL     OW59678   4.498   1.013   2.478 -0.1791  0.5135 -0.3978
18758SOL    HW159679   4.552   1.041   2.404  0.4474  0.7070  0.1292
18758SOL    HW259680   4.556   1.020   2.554 -0.3264 -1.2035 -0.1082
18759SOL     OW59681   0.336   1.682   2.518  0.4042 -0.3969  0.2076
18759SOL    HW159682   0.362   1.591   2.504 -0.7098 -0.9496  1.6807
18759SOL    HW259683   0.414   1.724   2.555  1.5126 -0.2812 -2.1160
18760SOL     OW59684   2.878   1.417   9.336  0.1258  0.9029  0.3760
18760SOL    HW159685   2.817   1.454   9.399 -0.6523  0.3267 -0.0274
18760SOL    HW259686   2.852   1.325   9.329 -1.6712  1.5747 -2.9189
18761SOL     OW59687   6.034   9.822  10.536 -0.4321 -0.0368  0.1468
18761SOL    HW159688   6.127   9.800  10.534 -0.5400 -0.5992  1.0790
18761SOL    HW259689   6.031   9.918  10.536  0.0849  0.0135 -2.0019
18762SOL     OW59690   0.734   8.660   9.667 -0.3863  0.1728  0.4357
18762SOL    HW159691   0.759   8.586   9.722 -2.7370  0.1081  1.4658
18762SOL    HW259692   0.704   8.619   9.585  0.5927  0.1315  0.0913
18763SOL     OW59693   2.568   8.161   9.779 -0.2445 -0.1523 -0.3059
18763SOL    HW159694   2.568   8.077   9.824 -2.1870  0.2969  0.5988
18763SOL    HW259695   2.616   8.220   9.838 -0.5943 -0.1613 -0.0105
18764SOL     OW59696   8.792   0.795   2.030 -0.1568  0.8751  0.9771
18764SOL    HW159697   8.849   0.854   2.079  2.3726  0.4109 -1.2872
18764SOL    HW259698   8.828   0.708   2.047 -0.6404  0.5046  0.1433
18765SOL     OW59699   5.819   2.572   3.877  0.5578  0.7339 -0.1755
18765SOL    HW159700   5.812   2.541   3.967 -2.0271 -0.9760 -0.9034
18765SOL    HW259701   5.737   2.544   3.836  1.2043  2.4876 -2.7531
18766SOL     OW59702   0.288   8.845   0.767 -0.3407 -0.7437 -0.2279
18766SOL    HW159703   0.365   8.807   0.725 -0.5636 -0.4414 -0.9285
18766SOL    HW259704   0.249   8.773   0.816  1.6436 -0.3426  1.9823
18767SOL     OW59705   9.970   9.182   2.012 -0.5215 -0.1230 -0.0958
18767SOL    HW159706  10.001   9.167   1.923  0.3454  0.4806  0.0881
18767SOL    HW259707   9.918   9.105   2.033 -1.2520  0.0281 -1.3455
18768SOL     OW59708   2.565  10.725   8.989 -0.4549  0.3601 -0.3810
18768SOL    HW159709   2.623  10.801   8.996 -3.1234  2.3621  1.0187
18768SOL    HW259710   2.534  10.726   8.898  0.0033  0.5593 -0.5357
18769SOL     OW59711   0.703   1.167   1.268  0.2407  0.1472  0.5355
18769SOL    HW159712   0.793   1.136   1.256  0.4626  0.3296  1.6761
18769SOL    HW259713   0.650   1.087   1.268  0.7649 -0.2266  3.0320
18770SOL     OW59714  10.639  10.460   9.828  0.0308 -0.0470 -0.0665
18770SOL    HW159715  10.545  10.442   9.838  0.0866 -0.9809 -1.0983
18770SOL    HW259716  10.646  10.501   9.742  0.0914  3.7382  1.6376
18771SOL     OW59717   2.117   5.052   6.804  0.2134  0.0538  0.0782
18771SOL    HW159718   2.060   4.976   6.796  1.1921 -0.7019  0.1145
18771SOL    HW259719   2.190   5.033   6.744  0.1094  1.2993 -0.4640
18772SOL     OW59720   1.344   1.958   0.882  0.2989 -0.4453  0.0207
18772SOL    HW159721   1.283   1.897   0.841 -0.5413 -1.1901  2.3000
18772SOL    HW259722   1.315   1.963   0.974  1.4940  1.9354  0.3147
18773SOL     OW59723   4.323   6.774   0.793  0.0765  0.2520 -0.3884
18773SOL    HW159724   4.238   6.752   0.755 -0.2068  0.7971 -0.0687
18773SOL    HW259725   4.385   6.718   0.746 -0.5428 -0.6943 -0.1048
18774SOL     OW59726  10.344   8.964   0.224  0.0042 -0.0482  0.2648
18774SOL    HW159727  10.373   9.035   0.282 -2.4027  2.6408 -1.6788
18774SOL    HW259728  10.423   8.941   0.174  0.6132  1.9773  0.2251
18775SOL     OW59729   3.226   6.625  10.383  0.2199  0.7876  0.0226
18775SOL    HW159730   3.264   6.550  10.428 -1.3623  0.0392  0.1432
18775SOL    HW259731   3.215   6.595  10.292  1.6473  1.6442 -0.4503
18776SOL     OW59732   3.020   7.091   0.212 -0.1328 -0.2340 -0.2978
18776SOL    HW159733   2.925   7.092   0.212 -0.1679 -0.1402  1.6310
18776SOL    HW259734   3.044   7.017   0.157 -1.2899  0.1891 -1.3974
18777SOL     OW59735   1.140   8.018   8.184 -0.1469  0.0975 -0.3144
18777SOL    HW159736   1.132   7.950   8.117  0.1765 -0.0414 -0.2103
18777SOL    HW259737   1.103   8.096   8.142  0.8709  0.2342 -0.9826
18778SOL     OW59738   3.071   4.118   5.629  0.9048  0.0474 -0.7884
18778SOL    HW159739   3.161   4.148   5.618  0.6054  0.2518 -2.9410
18778SOL    HW259740   3.036   4.113   5.540 -0.6185 -1.8990 -0.1347
18779SOL     OW59741   2.608   6.833  10.073  0.2923 -0.0539 -0.0916
18779SOL    HW159742   2.621   6.877   9.989  0.1132  1.9099  0.8889
18779SOL    HW259743   2.605   6.904  10.137  1.0738 -1.5784  1.6621
18780SOL     OW59744   9.966   7.412   3.122  0.3392 -0.0258 -0.0139
18780SOL    HW159745  10.040   7.395   3.180  0.1924 -1.6128 -0.2842
18780SOL    HW259746   9.999   7.394   3.034 -0.8031 -2.3316 -0.0091
18781SOL     OW59747  10.386   3.839  10.643  0.0706  0.4751 -0.1371
18781SOL    HW159748  10.478   3.864  10.644  0.1358  0.2227  1.5559
18781SOL    HW259749  10.382   3.764  10.584  1.0259  0.2348  0.0938
18782SOL     OW59750  10.574  10.242   0.243  0.2607  0.0698 -0.1281
18782SOL    HW159751  10.596  10.269   0.154  0.9447 -0.9579 -0.2784
18782SOL    HW259752  10.497  10.186   0.232  0.7072 -0.5378 -0.1282
18783SOL     OW59753   0.819   1.027   2.783  0.8589  0.3320 -0.2445
18783SOL    HW159754   0.897   1.024   2.728  1.2358  0.4820  0.2783
18783SOL    HW259755   0.748   1.048   2.722  0.8809 -1.8613 -1.0530
18784SOL     OW59756   4.252   5.962   6.130 -0.6020 -0.1301  0.1422
18784SOL    HW159757   4.285   5.897   6.068  0.0543  2.0091 -1.8206
18784SOL    HW259758   4.235   6.039   6.076 -2.0383  1.0964  2.3146
18785SOL     OW59759   7.965   1.910   6.719 -0.9862  0.1512 -1.0503
18785SOL    HW159760   8.031   1.926   6.787 -3.0576  3.4531  0.3204
18785SOL    HW259761   7.973   1.985   6.660 -3.0459  0.2543 -1.2383
18786SOL     OW59762   3.602   0.868   3.417  0.1434  0.4437  0.4545
18786SOL    HW159763   3.542   0.910   3.479  0.6414  2.0499 -0.1256
18786SOL    HW259764   3.675   0.930   3.408 -0.1143  0.4476 -2.0412
18787SOL     OW59765   8.620   3.704   1.816 -0.2552 -0.0747 -0.4955
18787SOL    HW159766   8.703   3.688   1.862 -1.0950 -2.2399  0.3029
18787SOL    HW259767   8.557   3.722   1.886 -0.4341  1.8100 -1.1132
18788SOL     OW59768   8.874   8.205   7.089 -0.2146 -0.1329 -0.3361
18788SOL    HW159769   8.934   8.139   7.124  0.1601  0.4914  0.1983
18788SOL    HW259770   8.901   8.216   6.997 -1.2206 -1.7944 -0.8531
18789SOL     OW59771   7.452   4.943   3.675 -0.4814 -0.5354 -0.1166
18789SOL    HW159772   7.495   4.866   3.711  1.2961 -0.0286 -1.1036
18789SOL    HW259773   7.413   4.913   3.594  0.1756 -0.4278 -0.4798
18790SOL     OW59774   7.268   5.171   3.719 -0.2068  0.0569 -0.3121
18790SOL    HW159775   7.326   5.095   3.717 -0.7057 -0.3007 -1.2139
18790SOL    HW259776   7.198   5.146   3.779 -1.1664 -0.7700 -1.7766
18791SOL     OW59777   8.678   4.147   2.927  0.0269 -0.1872  0.8516
18791SOL    HW159778   8.764   4.176   2.895 -0.3051 -0.1540 -0.0353
18791SOL    HW259779   8.688   4.053   2.940 -0.1744 -0.4110 -0.5141
18792SOL     OW59780   8.418   9.515  10.394 -0.0109 -0.6061  0.3296
18792SOL    HW159781   8.507   9.504  10.428 -0.2461  0.0543  1.1895
18792SOL    HW259782   8.401   9.435  10.345  0.5958 -1.3031  1.2325
18793SOL     OW59783   8.816  10.467   4.752  0.6730  0.2318  0.6100
18793SOL    HW159784   8.722  10.462   4.771 -0.0099  1.7959 -2.1545
18793SOL    HW259785   8.827  10.418   4.671  1.7993  2.2026 -0.4619
18794SOL     OW59786   3.903   9.570   4.775 -0.3658  0.2194 -0.1904
18794SOL    HW159787   3.882   9.488   4.819 -0.5087  0.1337 -0.4171
18794SOL    HW259788   3.853   9.567   4.694 -0.1118  0.3842 -0.3529
18795SOL     OW59789   3.445   7.784   4.505  0.2802 -0.0998  0.0038
18795SOL    HW159790   3.496   7.860   4.478  0.6224  0.5236  2.2929
18795SOL    HW259791   3.366   7.787   4.450  1.4376  0.4623 -1.6560
18796SOL     OW59792   1.680   4.532  10.159  0.0973  0.4709  0.6193
18796SOL    HW159793   1.656   4.445  10.128 -0.0334  0.1904  1.4913
18796SOL    HW259794   1.767   4.521  10.197  0.7492  1.0587 -0.7075
18797SOL     OW59795   5.195   6.654   8.393  0.0706 -0.0694 -0.3318
18797SOL    HW159796   5.151   6.578   8.430 -0.9969 -0.3013 -2.0317
18797SOL    HW259797   5.259   6.618   8.332 -1.0800  0.3839 -1.8512
18798SOL     OW59798   7.212   8.402   2.502 -0.1270 -0.2112 -0.0966
18798SOL    HW159799   7.198   8.404   2.407  1.2229 -0.8421 -0.3186
18798SOL    HW259800   7.215   8.308   2.524  4.3179 -0.1981 -0.1826
18799SOL     OW59801   6.714   6.336   8.040  0.5261 -0.8649  0.1139
18799SOL    HW159802   6.627   6.315   8.073  0.9738 -0.6701  1.4445
18799SOL    HW259803   6.772   6.324   8.116  1.4451  0.5036 -0.3565
18800SOL     OW59804   0.208  10.442   4.671  0.0055  0.8631 -0.7769
18800SOL    HW159805   0.272  10.377   4.640  0.3731  1.0431 -0.4031
18800SOL    HW259806   0.172  10.403   4.751 -1.8602 -0.1752 -2.0905
18801SOL     OW59807  10.159   1.243   5.097  0.1374  0.0339  1.1145
18801SOL    HW159808  10.140   1.297   5.021  2.2906 -0.8199 -0.0662
18801SOL    HW259809  10.175   1.306   5.168 -0.3883  0.8563  0.5139
18802SOL     OW59810   0.850   2.193   4.047 -0.2667 -0.3495  0.4240
18802SOL    HW159811   0.854   2.101   4.075  0.5935 -0.7158 -0.8411
18802SOL    HW259812   0.861   2.189   3.952 -0.1379  1.0693  0.3726
18803SOL     OW59813   4.980   0.831   4.292  0.2413 -0.1850 -0.4290
18803SOL    HW159814   5.028   0.838   4.210 -0.0602  3.6186 -0.3552
18803SOL    HW259815   5.040   0.785   4.351  2.6215  1.7591 -1.2305
18804SOL     OW59816   7.437   0.820   3.760 -0.1206 -0.5850 -0.6095
18804SOL    HW159817   7.417   0.849   3.849 -0.7869 -2.5328 -0.0985
18804SOL    HW259818   7.481   0.894   3.719 -1.5815  1.0424  0.7093
18805SOL     OW59819   0.121   3.554   8.755 -0.1570  0.1151 -0.1647
18805SOL    HW159820   0.062   3.494   8.800 -0.2609  1.5597  1.6749
18805SOL    HW259821   0.184   3.497   8.711 -0.5885 -1.3545  1.0726
18806SOL     OW59822   8.527   4.545   1.853 -0.1336 -0.1862  0.6919
18806SOL    HW159823   8.562   4.458   1.873 -1.4200 -0.8343  0.2204
18806SOL    HW259824   8.435   4.540   1.880 -0.0796  1.1923  1.1217
18807SOL     OW59825  10.503   1.189  10.421  0.1773 -0.0277  0.7038
18807SOL    HW159826  10.409   1.202  10.434 -0.0856 -2.2193  1.1668
18807SOL    HW259827  10.544   1.220  10.501 -0.2629 -0.2314  1.0056
18808SOL     OW59828   6.970   4.448   7.390 -0.1716 -0.0912  0.2637
18808SOL    HW159829   6.951   4.534   7.350 -0.2948 -0.2238  0.0324
18808SOL    HW259830   7.000   4.395   7.316 -1.6242 -0.7211  0.1011
18809SOL     OW59831   9.616   9.771   1.587 -0.0222 -0.2612  0.5550
18809SOL    HW159832   9.684   9.810   1.642  0.5722 -2.3006  1.3339
18809SOL    HW259833   9.535   9.787   1.634 -0.1009  2.2101 -0.3902
18810SOL     OW59834   5.823   5.734   2.535 -0.2016 -0.3701 -0.0859
18810SOL    HW159835   5.845   5.665   2.597 -0.3773 -0.8142 -0.5108
18810SOL    HW259836   5.904   5.748   2.486  0.3232  0.9109  1.1190
18811SOL     OW59837   2.289   2.679   1.724 -0.1720 -0.1761 -0.4710
18811SOL    HW159838   2.267   2.587   1.711 -1.2716 -0.1393  1.0754
18811SOL    HW259839   2.273   2.696   1.816 -1.9593  2.0848 -1.1367
18812SOL     OW59840   7.145   4.653   1.567  0.1321  0.7239 -0.4633
18812SOL    HW159841   7.194   4.673   1.646 -0.6693 -0.6744  0.4058
18812SOL    HW259842   7.192   4.579   1.528  0.6404  1.5323 -1.4102
18813SOL     OW59843   3.344   1.319   3.367  0.1158 -0.6077  0.0450
18813SOL    HW159844   3.364   1.367   3.448  0.0090  0.9311 -0.8298
18813SOL    HW259845   3.248   1.316   3.365  0.0623  1.4020 -1.1952
18814SOL     OW59846   0.384  10.268  10.019  0.4681 -0.0769 -0.0999
18814SOL    HW159847   0.367  10.269   9.924 -0.7907  0.6179  0.1247
18814SOL    HW259848   0.372  10.176  10.044  0.4185 -0.1911 -0.5393
18815SOL     OW59849   0.812   5.579  10.279  0.0062  0.5668 -0.3683
18815SOL    HW159850   0.851   5.559  10.364  1.2274 -0.4560 -1.1423
18815SOL    HW259851   0.738   5.519  10.272  0.4739 -0.0155 -0.4133
18816SOL     OW59852   8.799   3.342   4.453  0.1835  0.0162 -0.3084
18816SOL    HW159853   8.710   3.319   4.478  0.2651  1.7554  1.7153
18816SOL    HW259854   8.843   3.257   4.443 -1.2884 -0.8269  0.1425
18817SOL     OW59855   0.952   8.272   0.056 -0.1618 -0.1457  0.3279
18817SOL    HW159856   0.943   8.180   0.033  2.3840 -0.1442 -0.8532
18817SOL    HW259857   0.913   8.319  -0.018  0.3560 -0.2628 -0.0248
18818SOL     OW59858   1.426   5.861   8.597  0.1907 -0.0113 -0.1152
18818SOL    HW159859   1.359   5.920   8.631  1.8726  1.6286  0.4026
18818SOL    HW259860   1.434   5.793   8.664 -2.6798 -1.6503 -1.3035
18819SOL     OW59861  10.243   4.522   9.497  0.0158 -0.7113  0.1669
18819SOL    HW159862  10.289   4.490   9.419  0.8792 -0.5914  0.6329
18819SOL    HW259863  10.186   4.591   9.463 -1.2147 -2.1206 -0.7040
18820SOL     OW59864   2.998  10.470   5.872  0.1550  0.5499 -0.2482
18820SOL    HW159865   2.951  10.478   5.956  1.2239  0.7834  0.3305
18820SOL    HW259866   2.930  10.481   5.806 -1.0715 -1.7139  0.5919
18821SOL     OW59867   7.433  10.526   5.175  0.0794 -0.4529 -0.5039
18821SOL    HW159868   7.464  10.437   5.194  1.4574  0.4625  1.7892
18821SOL    HW259869   7.384  10.550   5.254 -2.4306 -0.0578 -2.1116
18822SOL     OW59870   7.887   1.582   3.597 -0.0393  0.0001 -0.3801
18822SOL    HW159871   7.914   1.581   3.505  0.0343 -2.7064 -0.3683
18822SOL    HW259872   7.799   1.619   3.595  0.8731  2.2938 -1.2129
18823SOL     OW59873   8.110   1.334   9.765 -0.3749 -0.2838 -0.2725
18823SOL    HW159874   8.086   1.275   9.837 -2.2221  0.1935 -0.4807
18823SOL    HW259875   8.103   1.422   9.802  1.3039 -0.1360 -0.2817
18824SOL     OW59876  10.037   1.379   4.447  0.8973  0.1257 -0.1858
18824SOL    HW159877  10.024   1.329   4.366  1.0147 -1.5872  0.8311
18824SOL    HW259878  10.077   1.461   4.418  2.2219 -1.0319 -1.7418
18825SOL     OW59879   7.249   2.535  10.500  0.5170  0.1402  0.1909
18825SOL    HW159880   7.247   2.443  10.527  0.8264 -0.1074 -0.6306
18825SOL    HW259881   7.163   2.549  10.460  0.3064  0.3299  0.7057
18826SOL     OW59882   0.521   9.655   2.694 -0.3144 -0.1273 -0.3053
18826SOL    HW159883   0.608   9.681   2.663 -1.1938  2.3553 -0.8104
18826SOL    HW259884   0.538   9.611   2.778  1.5254 -0.9234 -1.0630
18827SOL     OW59885   3.857   5.256   9.627  0.2681 -0.1965 -0.0182
18827SOL    HW159886   3.899   5.206   9.696  0.1450 -0.5527 -0.1992
18827SOL    HW259887   3.922   5.322   9.602  0.4543 -0.3037  0.1780
18828SOL     OW59888   9.047   6.412   9.129 -0.3794 -0.0511 -0.2832
18828SOL    HW159889   9.003   6.427   9.046 -0.8339  0.5701  0.0597
18828SOL    HW259890   8.975   6.404   9.193 -0.0502 -1.0150 -0.0364
18829SOL     OW59891   5.134   7.073   1.307 -0.3791 -0.5996 -0.0398
18829SOL    HW159892   5.181   7.038   1.231  1.3230 -1.4317  1.3663
18829SOL    HW259893   5.140   7.168   1.297  0.8410 -0.6992 -0.3535
18830SOL     OW59894  10.128  10.284   2.054  0.1015  0.0453  0.3016
18830SOL    HW159895  10.035  10.293   2.073 -0.1137 -0.4030 -0.5042
18830SOL    HW259896  10.160  10.373   2.042  0.1821  0.3150  2.4247
18831SOL     OW59897   5.390   2.906   6.676  0.4171 -0.3591  0.0833
18831SOL    HW159898   5.347   2.950   6.750  2.4886  2.1233 -0.1508
18831SOL    HW259899   5.335   2.926   6.601  0.5984  0.6365  0.2182
18832SOL     OW59900  10.605   5.847   0.011  0.3272  0.2253 -0.3440
18832SOL    HW159901  10.514   5.816   0.005 -0.7181  2.8243  1.1171
18832SOL    HW259902  10.646   5.788   0.074 -0.2019 -1.2370 -1.3342
18833SOL     OW59903   1.470  10.604   0.854  0.7267  0.1278  0.4487
18833SOL    HW159904   1.469  10.686   0.902  2.6592 -0.1838  1.0528
18833SOL    HW259905   1.453  10.629   0.763  0.4934  1.0905  0.7521
18834SOL     OW59906   9.445   4.571   3.783  0.1909  0.1943 -0.1613
18834SOL    HW159907   9.366   4.625   3.773  0.7231  0.5788 -2.4299
18834SOL    HW259908   9.427   4.517   3.860 -1.3566  1.8692  0.6900
18835SOL     OW59909   6.556   2.119   4.259  0.6685  0.2335 -0.4041
18835SOL    HW159910   6.534   2.025   4.263  1.6704  0.0792  1.8968
18835SOL    HW259911   6.622   2.124   4.189 -0.0371 -0.6249 -1.1598
18836SOL     OW59912   8.366   8.869   2.535  0.2618 -0.5022 -0.2080
18836SOL    HW159913   8.428   8.927   2.579 -1.3054 -0.5813  2.2208
18836SOL    HW259914   8.283   8.918   2.536 -0.4731 -1.7339 -0.4538
18837SOL     OW59915   8.360   1.968   8.690  0.5306 -0.3635 -0.5784
18837SOL    HW159916   8.372   1.898   8.754 -0.9889 -0.8301 -0.7827
18837SOL    HW259917   8.434   1.958   8.629 -0.5767 -2.8715 -1.5844
18838SOL     OW59918   9.604   5.682   9.231 -0.7320  0.2994  0.1866
18838SOL    HW159919   9.526   5.672   9.176 -0.9738  0.7730  0.4373
18838SOL    HW259920   9.594   5.618   9.301 -2.2654  2.2468  1.7833
18839SOL     OW59921   2.723  10.037   7.906 -0.4232 -0.1804 -0.2829
18839SOL    HW159922   2.746   9.960   7.855  1.4238  0.1791 -0.0353
18839SOL    HW259923   2.774  10.108   7.867 -2.4035  1.0210 -0.7642
18840SOL     OW59924   9.338   9.551   0.895 -0.0891  0.2701 -0.2785
18840SOL    HW159925   9.270   9.525   0.957  0.3164 -0.6017 -0.1946
18840SOL    HW259926   9.376   9.630   0.933 -0.3607  0.1774  0.1905
18841SOL     OW59927   9.757  10.364   3.994 -0.4730  0.2953 -0.3779
18841SOL    HW159928   9.834  10.400   3.948 -0.3900  1.3901  0.5951
18841SOL    HW259929   9.793  10.299   4.054 -0.1654  1.5658  0.8523
18842SOL     OW59930  10.728   9.438   3.716  0.1581  0.1459  0.1579
18842SOL    HW159931  10.664   9.430   3.645  0.7464  1.1168 -0.4756
18842SOL    HW259932  10.702   9.369   3.778 -1.9005  0.9060  0.2103
18843SOL     OW59933   0.635   8.702   2.061  0.3047 -0.6397 -0.1347
18843SOL    HW159934   0.652   8.610   2.079 -0.5106 -0.9501 -0.9167
18843SOL    HW259935   0.649   8.711   1.967 -1.7423 -0.4517 -0.4436
18844SOL     OW59936   8.588   0.758   8.291  0.4868 -0.0827  0.2866
18844SOL    HW159937   8.612   0.666   8.288 -2.3007 -0.8231 -0.5536
18844SOL    HW259938   8.525   0.764   8.362  1.5791  1.4387  1.1636
18845SOL     OW59939   9.169   2.015   0.896  0.2759  0.1292 -0.3425
18845SOL    HW159940   9.142   1.925   0.917 -0.8525  0.4898 -0.2182
18845SOL    HW259941   9.184   2.056   0.982 -1.7183  0.8111 -0.3023
18846SOL     OW59942   6.888   8.361   1.534 -0.2884  0.2189  0.1055
18846SOL    HW159943   6.887   8.443   1.584 -2.0007  0.0328  0.4018
18846SOL    HW259944   6.965   8.315   1.565  2.4433  3.0156 -2.1966
18847SOL     OW59945  10.495  10.423   2.927  0.9017 -0.7746 -0.1044
18847SOL    HW159946  10.423  10.367   2.900 -0.5830  0.5577  1.0084
18847SOL    HW259947  10.573  10.381   2.890 -0.5671 -1.4215 -2.5915
18848SOL     OW59948   3.327   1.851   3.676 -0.0121 -0.3622  0.0098
18848SOL    HW159949   3.401   1.881   3.624 -0.5711  0.1290 -0.5073
18848SOL    HW259950   3.337   1.895   3.761 -0.5007  0.8239 -0.5419
18849SOL     OW59951   7.381   2.746   8.572  0.4980  0.0761  0.2467
18849SOL    HW159952   7.334   2.665   8.592 -2.0952  1.6216  0.6818
18849SOL    HW259953   7.416   2.775   8.656 -2.0297  1.4741  0.8537
18850SOL     OW59954   0.344   1.314   2.265 -0.4208 -0.0135 -0.0145
18850SOL    HW159955   0.363   1.244   2.202 -0.7094 -2.7272  2.7784
18850SOL    HW259956   0.248   1.318   2.268 -0.4079  0.1009  0.2499
18851SOL     OW59957   5.277   4.948   8.787 -0.4147  0.8940 -0.3614
18851SOL    HW159958   5.196   4.910   8.820 -0.1224  0.7512  0.1946
18851SOL    HW259959   5.249   5.024   8.737 -0.6981  2.6384  2.3675
18852SOL     OW59960   5.945   1.815   2.251 -0.2726  0.5601  0.2509
18852SOL    HW159961   6.027   1.767   2.240 -0.1978  0.9738 -1.1139
18852SOL    HW259962   5.969   1.893   2.302 -0.0472  0.0941  0.8644
18853SOL     OW59963   6.689   8.320   2.379  0.6053 -0.4612  0.0003
18853SOL    HW159964   6.740   8.340   2.457  0.6625  0.1221 -0.1844
18853SOL    HW259965   6.726   8.376   2.311 -1.8610  1.8015  0.4434
18854SOL     OW59966   4.845   0.542   5.897  0.0276  0.0727  0.7575
18854SOL    HW159967   4.892   0.594   5.832  0.7137 -0.8570  0.4920
18854SOL    HW259968   4.764   0.590   5.913 -0.0004  0.4684 -0.5417
18855SOL     OW59969   8.006   9.842   3.744  0.2724 -0.6200 -0.4783
18855SOL    HW159970   7.939   9.874   3.683  1.3615 -0.8496 -1.8065
18855SOL    HW259971   8.079   9.903   3.734  1.0262 -1.5094 -0.4748
18856SOL     OW59972   6.347   5.881   0.096  0.4297 -0.6850  0.1547
18856SOL    HW159973   6.397   5.813   0.140  0.1641  0.1867  1.8408
18856SOL    HW259974   6.411   5.951   0.079 -0.0214  0.0968  1.5929
18857SOL     OW59975   3.751   6.463   0.695 -0.2519 -0.2543  0.6033
18857SOL    HW159976   3.730   6.556   0.699 -1.3049 -0.4814  0.5140
18857SOL    HW259977   3.802   6.445   0.774 -1.4129  0.0563  1.4178
18858SOL     OW59978   2.151   8.226   8.062 -0.3124 -0.1215 -0.2179
18858SOL    HW159979   2.186   8.163   7.999  2.2635  0.2174  0.7960
18858SOL    HW259980   2.124   8.174   8.137  1.4857 -0.0717  0.4783
18859SOL     OW59981   0.191   6.672   7.337 -0.3787 -0.2166  0.0092
18859SOL    HW159982   0.185   6.754   7.385  1.2508  0.0707 -0.2780
18859SOL    HW259983   0.226   6.696   7.251 -0.7441 -1.0893 -0.3929
18860SOL     OW59984   0.199   8.253   7.346  0.2258 -0.0886 -0.2882
18860SOL    HW159985   0.213   8.293   7.432  0.4390  3.5757 -1.9247
18860SOL    HW259986   0.288   8.237   7.313  0.1787  0.1593 -0.5363
18861SOL     OW59987   9.923   5.503  10.794 -0.3234  0.0255  0.0953
18861SOL    HW159988   9.914   5.536  10.884 -2.4334  0.7079 -0.3361
18861SOL    HW259989  10.016   5.484  10.785 -0.0658  0.0191  2.4101
18862SOL     OW59990   5.606   3.521   9.508  0.5446  0.0732 -0.2005
18862SOL    HW159991   5.603   3.500   9.601  0.2673  0.6859 -0.0663
18862SOL    HW259992   5.568   3.609   9.502  1.0731  0.2664 -0.8201
18863SOL     OW59993   5.179   3.492   9.396 -0.1157  0.0096  0.3521
18863SOL    HW159994   5.097   3.450   9.422 -1.2861  0.8239 -1.8678
18863SOL    HW259995   5.243   3.461   9.459 -2.1816 -0.4638  2.2957
18864SOL     OW59996   9.740   6.038   9.723  0.2205  0.0892  0.4729
18864SOL    HW159997   9.739   5.943   9.710  2.7983 -0.0337  0.7634
18864SOL    HW259998   9.720   6.049   9.816 -0.4864 -0.1428  0.3513
18865SOL     OW59999   9.057   0.427   7.332 -0.3970  0.2889  0.1226
18865SOL    HW160000   9.043   0.490   7.262  0.2238 -0.2459 -0.4861
18865SOL    HW260001   9.120   0.470   7.391 -0.4473  0.4868  0.0319
18866SOL     OW60002   5.036   3.719   7.498 -0.5430  0.0446  0.6317
18866SOL    HW160003   5.079   3.715   7.583 -1.5555 -0.4375  1.1230
18866SOL    HW260004   5.091   3.665   7.441 -0.1158  0.0011  1.0848
18867SOL     OW60005   8.887   3.411   7.059 -0.5097  0.1608  0.3181
18867SOL    HW160006   8.891   3.441   6.969 -0.7768 -0.7143  0.0121
18867SOL    HW260007   8.877   3.316   7.053 -1.5270  0.1960  1.2540
18868SOL     OW60008   5.001   1.181   4.210 -0.5984  0.3479 -0.0739
18868SOL    HW160009   5.058   1.191   4.286 -0.5212 -1.1482  0.0743
18868SOL    HW260010   5.060   1.157   4.139 -0.8812  0.0208 -0.2016
18869SOL     OW60011  10.542   1.155   7.110  0.1208  0.0017  0.3149
18869SOL    HW160012  10.612   1.182   7.169  1.1927  0.5423 -1.1661
18869SOL    HW260013  10.538   1.225   7.044 -0.0468 -1.3076 -1.0860
18870SOL     OW60014   7.485   7.042   7.197  0.4473 -0.4870  0.2497
18870SOL    HW160015   7.483   7.105   7.125 -0.9421  0.6482  1.2607
18870SOL    HW260016   7.577   7.035   7.221  0.8678 -0.5818 -1.3759
18871SOL     OW60017   5.689   7.575   1.637  0.7073  0.2411  0.3616
18871SOL    HW160018   5.667   7.489   1.673  1.0534 -0.1576 -0.3649
18871SOL    HW260019   5.774   7.563   1.595  0.9899  1.0648  0.6873
18872SOL     OW60020   1.659   7.305   1.344  0.1735  0.6700 -0.5900
18872SOL    HW160021   1.727   7.346   1.289  0.7248  0.1519 -0.2975
18872SOL    HW260022   1.708   7.253   1.407 -0.5288 -0.4107 -0.9318
18873SOL     OW60023   2.346   0.320   6.997  0.2479  0.1537 -0.1825
18873SOL    HW160024   2.348   0.228   6.970 -1.2397  0.3831 -1.1613
18873SOL    HW260025   2.313   0.318   7.086 -3.6629 -0.0563 -1.5248
18874SOL     OW60026   2.202   4.486   2.732  0.2174  0.1052 -0.9093
18874SOL    HW160027   2.244   4.513   2.814 -2.6876  2.1063  0.0138
18874SOL    HW260028   2.274   4.474   2.670  2.3746 -0.2543  1.5997
18875SOL     OW60029   5.757   9.607   0.643 -0.0457 -0.2336 -0.0033
18875SOL    HW160030   5.696   9.602   0.717 -0.9342  0.0636 -0.7137
18875SOL    HW260031   5.759   9.518   0.608 -0.0430 -0.2531  0.0452
18876SOL     OW60032   4.325   9.730   1.407  0.0302 -0.3293 -0.6844
18876SOL    HW160033   4.378   9.764   1.335 -1.2753  0.4482 -1.2940
18876SOL    HW260034   4.237   9.764   1.390 -0.1914  0.3198  1.5620
18877SOL     OW60035   6.046  10.365   1.093 -0.5210  0.2393  0.3113
18877SOL    HW160036   6.020  10.435   1.153  0.4085  0.6329  0.2661
18877SOL    HW260037   6.045  10.405   1.007 -1.3267 -0.1810  0.1195
18878SOL     OW60038   7.393   9.989   6.975  0.1346  0.3500 -0.2769
18878SOL    HW160039   7.427   9.978   6.887  3.2780  1.5241  0.7196
18878SOL    HW260040   7.468   9.971   7.032 -2.5121 -3.2128  2.3246
18879SOL     OW60041   0.331   2.911   4.390 -0.6230 -0.4854  0.8655
18879SOL    HW160042   0.410   2.955   4.422 -1.0994  0.3444  0.9190
18879SOL    HW260043   0.329   2.829   4.439  1.9817 -2.0711 -1.4931
18880SOL     OW60044   7.137   0.905   2.538  0.2583 -0.1543  0.7646
18880SOL    HW160045   7.206   0.872   2.480 -1.9176  0.0093 -2.0121
18880SOL    HW260046   7.171   0.988   2.571  1.5239 -0.2431 -0.2920
18881SOL     OW60047   9.082   4.653   3.115  0.2893 -0.2052  0.1907
18881SOL    HW160048   8.999   4.699   3.107 -0.7801 -2.2492 -0.5942
18881SOL    HW260049   9.103   4.657   3.209 -0.4497  0.7044  0.3219
18882SOL     OW60050   5.193   7.451   5.800 -0.3391  0.6586  0.4225
18882SOL    HW160051   5.266   7.389   5.797  0.3002  1.4596 -1.6270
18882SOL    HW260052   5.115   7.396   5.802  0.1618 -0.3252 -2.8682
18883SOL     OW60053   4.261   3.119   0.872  0.0472 -0.0411  0.1218
18883SOL    HW160054   4.213   3.192   0.911  1.3341  3.1008 -3.8196
18883SOL    HW260055   4.346   3.121   0.917 -0.3351  0.1517  0.8485
18884SOL     OW60056   9.011   2.912   6.900 -1.3287  0.3013 -0.0834
18884SOL    HW160057   8.985   2.841   6.842 -0.3808 -0.0941 -0.0270
18884SOL    HW260058   9.051   2.868   6.976  2.2283  0.9626 -1.4932
18885SOL     OW60059   3.038   5.111   4.175 -0.2822 -0.0039  0.0513
18885SOL    HW160060   2.985   5.174   4.224 -0.6690  1.0508 -1.6927
18885SOL    HW260061   2.998   5.026   4.195 -1.2905  0.5557  0.4503
18886SOL     OW60062   9.282   2.813   9.241  0.2987 -0.1401 -0.0725
18886SOL    HW160063   9.220   2.752   9.280  1.1456 -0.6600  0.4710
18886SOL    HW260064   9.250   2.825   9.151 -1.2033  0.4607  0.5112
18887SOL     OW60065   0.369  10.492   6.379  0.6756 -0.5004  0.3500
18887SOL    HW160066   0.348  10.470   6.470  1.8177  0.4015  0.8364
18887SOL    HW260067   0.295  10.544   6.350  1.0687  0.5997  1.2877
18888SOL     OW60068  10.060   8.622  10.523  0.0972  0.1191 -0.1767
18888SOL    HW160069   9.997   8.647  10.456 -0.2284 -0.4865 -0.1036
18888SOL    HW260070  10.053   8.526  10.528  1.9063 -0.0711 -1.0517
18889SOL     OW60071  10.714   0.883   7.474 -0.0479 -0.3537  1.1707
18889SOL    HW160072  10.748   0.864   7.386  0.7414 -1.0447  1.6248
18889SOL    HW260073  10.644   0.946   7.458 -0.3001 -0.9102 -0.0108
18890SOL     OW60074   9.743  10.170   6.390 -0.2516 -0.2341  0.6914
18890SOL    HW160075   9.697  10.253   6.381 -0.5339 -0.4259  0.3706
18890SOL    HW260076   9.815  10.189   6.451 -1.8488 -0.3946  2.6963
18891SOL     OW60077   6.079   9.309   0.622 -0.0654 -0.5627  0.2058
18891SOL    HW160078   6.020   9.383   0.610  0.8135  0.4388  1.9396
18891SOL    HW260079   6.084   9.296   0.716  1.7352 -1.2334  0.0510
18892SOL     OW60080   2.188   4.616   9.442 -0.4926  0.4413  0.6394
18892SOL    HW160081   2.192   4.531   9.398  0.5075  0.7074  0.2198
18892SOL    HW260082   2.143   4.597   9.525 -0.1799 -0.5146  0.5928
18893SOL     OW60083  10.827   8.489   8.617  0.1510  0.0519  0.1423
18893SOL    HW160084  10.883   8.532   8.552 -0.9015  1.3308  0.0726
18893SOL    HW260085  10.779   8.423   8.566  0.7152 -0.2480 -0.0144
18894SOL     OW60086   9.388  10.301   5.880  0.5445 -0.2118  0.0769
18894SOL    HW160087   9.310  10.264   5.839  0.6461  0.1013 -0.3928
18894SOL    HW260088   9.444  10.226   5.898  0.9935 -0.2394 -1.3812
18895SOL     OW60089   3.213   0.402   4.167 -0.0684  0.1278  0.0984
18895SOL    HW160090   3.237   0.314   4.139 -3.1821 -0.4886 -0.7985
18895SOL    HW260091   3.271   0.459   4.116  1.9379 -1.3528  0.6357
18896SOL     OW60092  10.268   7.306   7.085 -0.4954  0.2475 -0.2784
18896SOL    HW160093  10.196   7.355   7.044  0.8208 -0.0570 -3.0573
18896SOL    HW260094  10.345   7.361   7.070  0.2324 -0.5131  0.6734
18897SOL     OW60095   5.201   8.981   1.681 -0.1658  0.0071  0.5561
18897SOL    HW160096   5.287   9.018   1.660 -0.2007  0.3323  0.9859
18897SOL    HW260097   5.177   8.931   1.603 -1.1402  2.7303 -0.9630
18898SOL     OW60098   4.573   0.682  10.430  0.2126 -0.6960  0.1478
18898SOL    HW160099   4.487   0.709  10.397 -0.4821 -0.5522  2.0114
18898SOL    HW260100   4.598   0.608  10.375 -1.6727 -1.5293  0.3680
18899SOL     OW60101   4.034   9.371  10.829  0.1713 -0.8401 -0.1200
18899SOL    HW160102   3.974   9.378  10.754 -0.2765  0.5376  0.3406
18899SOL    HW260103   3.994   9.427  10.896  2.2622  0.5994 -0.0141
18900SOL     OW60104   3.476   7.495   8.535  0.4387 -0.3258  0.0104
18900SOL    HW160105   3.472   7.471   8.628 -1.6143 -1.7600 -0.4179
18900SOL    HW260106   3.491   7.412   8.490  3.1667  0.5845 -0.8742
18901SOL     OW60107   9.040   2.498  10.454  0.2127  0.9595  0.2115
18901SOL    HW160108   9.037   2.405  10.474  0.6491  0.7134 -0.8032
18901SOL    HW260109   8.981   2.508  10.379  1.8435  1.0900 -1.1092
18902SOL     OW60110  10.949   9.028   6.491 -0.0424  0.2557 -0.1761
18902SOL    HW160111  11.015   9.091   6.520 -1.3656  1.0470  1.2072
18902SOL    HW260112  10.869   9.080   6.480 -0.4988 -0.7242 -1.5805
18903SOL     OW60113   9.692   7.608  10.102 -0.2679 -0.0854  0.2954
18903SOL    HW160114   9.653   7.684  10.146  0.3731  0.7882 -0.6190
18903SOL    HW260115   9.637   7.594  10.024 -0.9019 -1.1163  0.9051
18904SOL     OW60116  10.433   8.597   4.973 -0.2008 -0.4141  0.1556
18904SOL    HW160117  10.418   8.538   4.899 -0.3537 -0.3197  0.1108
18904SOL    HW260118  10.523   8.580   5.000  0.5852  1.1342 -1.4509
18905SOL     OW60119  10.338   5.836  10.031  0.1595  0.3577  0.3456
18905SOL    HW160120  10.327   5.810  10.123 -1.8459  0.5759  0.1883
18905SOL    HW260121  10.271   5.904  10.018 -0.1237 -0.2653 -1.5085
18906SOL     OW60122   0.991   3.542   7.887 -0.2076  0.0976 -0.3335
18906SOL    HW160123   1.073   3.532   7.838 -0.6417  0.6034 -1.1843
18906SOL    HW260124   0.964   3.452   7.907  2.1237 -0.0053  2.6476
18907SOL     OW60125   2.475   8.997   0.043 -0.0490  0.5481  0.1014
18907SOL    HW160126   2.569   8.981   0.034  0.0382  0.8455  0.4415
18907SOL    HW260127   2.453   9.053  -0.031 -0.3499 -1.0708 -1.0673
18908SOL     OW60128   5.581   6.303  10.748  0.3772  0.0965  0.1694
18908SOL    HW160129   5.629   6.220  10.742 -0.1842 -0.2194  0.0275
18908SOL    HW260130   5.528   6.295  10.828  1.3635  0.8721  0.9163
18909SOL     OW60131   7.057   4.325   8.995  0.2627 -0.1236 -0.1496
18909SOL    HW160132   7.006   4.398   8.959 -1.1299 -0.4129  1.1834
18909SOL    HW260133   7.032   4.249   8.942 -1.0683 -0.3610  0.8075
18910SOL     OW60134   9.714   4.011   9.091  0.1047 -0.0059 -0.2303
18910SOL    HW160135   9.718   3.923   9.129 -0.6825  0.0591  0.0160
18910SOL    HW260136   9.653   4.058   9.148  1.5453  1.1031  0.4627
18911SOL     OW60137   2.369   6.003   4.261 -0.2539 -0.0812  0.0432
18911SOL    HW160138   2.342   6.092   4.284  0.1392  0.3313 -1.0610
18911SOL    HW260139   2.292   5.965   4.220 -0.1045  0.0967 -0.4075
18912SOL     OW60140   1.065   9.406   9.438 -0.1516  0.3738  0.4083
18912SOL    HW160141   1.096   9.495   9.453  0.2347  0.5824 -1.4359
18912SOL    HW260142   0.971   9.411   9.455 -0.6520  1.8547 -2.3837
18913SOL     OW60143   2.536  10.103   9.460  0.5045  0.1159 -0.1522
18913SOL    HW160144   2.627  10.080   9.444  0.3261  0.2345 -1.4701
18913SOL    HW260145   2.534  10.199   9.457  0.1099  0.0810 -1.6138
18914SOL     OW60146   9.739   9.047   5.909  0.1758 -0.3475  0.0980
18914SOL    HW160147   9.754   9.141   5.916 -0.7652 -0.2750  1.1390
18914SOL    HW260148   9.803   9.018   5.843  1.7888  0.6891  1.1715
18915SOL     OW60149   5.280   8.565   1.566 -0.0938 -0.2546 -0.4397
18915SOL    HW160150   5.308   8.601   1.650  1.5428  0.7746 -1.4146
18915SOL    HW260151   5.184   8.571   1.568  0.0501  2.5057  0.1636
18916SOL     OW60152  10.208  10.607   8.044 -0.0448  0.4936 -0.1610
18916SOL    HW160153  10.290  10.562   8.065  0.4219  2.0244  1.4267
18916SOL    HW260154  10.210  10.686   8.097 -2.5250  0.6141 -0.1874
18917SOL     OW60155   4.928   5.944   4.632 -0.7456  0.0063 -0.1820
18917SOL    HW160156   5.016   5.927   4.598 -0.4219  0.2013  0.5426
18917SOL    HW260157   4.930   5.911   4.721 -0.8785  1.5584  0.4095
18918SOL     OW60158   0.896   4.261   8.914 -0.2661  0.8102 -0.0769
18918SOL    HW160159   0.813   4.255   8.866  1.0097 -0.9147 -2.1907
18918SOL    HW260160   0.894   4.187   8.975 -0.9344  1.6961  0.9922
18919SOL     OW60161  10.643   9.902   5.369 -0.6219  0.0629  0.9668
18919SOL    HW160162  10.729   9.904   5.325 -1.2243  1.0025 -0.1997
18919SOL    HW260163  10.663   9.873   5.458  0.5386 -2.5994 -0.0958
18920SOL     OW60164   7.814   4.071   8.676  0.6052 -0.1158  0.5000
18920SOL    HW160165   7.897   4.113   8.699 -0.1298  0.4170  2.2949
18920SOL    HW260166   7.802   4.089   8.583  2.3130  0.1133  0.3076
18921SOL     OW60167   2.500   6.968  10.837 -0.4423 -0.1017  0.2744
18921SOL    HW160168   2.571   7.008  10.887 -0.9713 -0.5161  1.3912
18921SOL    HW260169   2.484   6.885  10.882 -0.7395 -0.6178 -0.7684
18922SOL     OW60170   9.362   9.087   7.425 -0.6243 -0.3556 -0.0701
18922SOL    HW160171   9.354   8.997   7.455 -0.1333  0.4872  2.7301
18922SOL    HW260172   9.275   9.125   7.435 -0.0338  0.4833  2.3104
18923SOL     OW60173  10.035   7.924   8.744 -0.0738 -0.5975 -0.3631
18923SOL    HW160174  10.031   7.915   8.840 -1.0601 -0.1842 -0.3562
18923SOL    HW260175  10.064   7.838   8.713  0.1294 -0.7705  0.3014
18924SOL     OW60176   9.028   5.694  10.609 -0.1773  0.0286 -0.0379
18924SOL    HW160177   9.071   5.655  10.533  0.3167  0.1190  0.1912
18924SOL    HW260178   8.986   5.621  10.654  0.4830 -0.1996  0.2183
18925SOL     OW60179   4.499   0.950   6.837  0.0922  0.5214 -0.4815
18925SOL    HW160180   4.501   1.005   6.915 -1.2419  1.1470 -0.8658
18925SOL    HW260181   4.589   0.917   6.828  0.3888  0.9141  0.9684
18926SOL     OW60182  10.758   4.805   1.232 -0.1119 -0.0258 -0.1231
18926SOL    HW160183  10.729   4.724   1.191 -0.9931 -0.0314  0.5208
18926SOL    HW260184  10.849   4.815   1.202 -0.4468 -0.5140 -1.3217
18927SOL     OW60185   7.380   5.824   7.013 -0.3551  0.3360 -0.5684
18927SOL    HW160186   7.454   5.857   6.962 -0.2616 -0.5013 -0.9892
18927SOL    HW260187   7.363   5.892   7.078 -1.6029  2.1969 -2.8016
18928SOL     OW60188   9.906   4.690  10.804  0.1454  0.0478 -0.1691
18928SOL    HW160189   9.832   4.652  10.851  0.8247 -0.9106  0.1271
18928SOL    HW260190   9.928   4.625  10.737 -0.4550  1.1507 -1.4507
18929SOL     OW60191  10.625   9.362   2.723  0.6418  0.1855 -0.1624
18929SOL    HW160192  10.694   9.386   2.661  2.4437  0.4390  1.8591
18929SOL    HW260193  10.569   9.301   2.676  2.8297 -0.7895 -1.5462
18930SOL     OW60194   0.347   4.222  10.067 -0.2463 -0.1554  0.5598
18930SOL    HW160195   0.392   4.304  10.088  1.3208 -1.4163  2.1597
18930SOL    HW260196   0.278   4.216  10.133 -0.8388  0.2317 -0.0160
18931SOL     OW60197   6.665   8.194   4.265  0.0839 -0.0295 -0.1225
18931SOL    HW160198   6.702   8.272   4.222 -0.3084  1.1885  1.6648
18931SOL    HW260199   6.701   8.197   4.354 -1.2053 -1.0182  0.4429
18932SOL     OW60200   9.708   6.943   3.197  0.2280  0.3914  0.2488
18932SOL    HW160201   9.712   6.963   3.291  0.2434 -0.6421  0.4740
18932SOL    HW260202   9.616   6.919   3.182  0.6820 -1.4961  0.4323
18933SOL     OW60203   5.086   5.085   9.332 -0.2246 -0.0503  0.3826
18933SOL    HW160204   5.119   5.046   9.413 -0.1639  1.2248  0.9746
18933SOL    HW260205   5.022   5.021   9.300  0.9704 -1.3516  0.5363
18934SOL     OW60206   0.081   6.771   2.926 -0.1167 -0.1900  0.5772
18934SOL    HW160207   0.061   6.858   2.890 -0.3596 -0.2194  0.6381
18934SOL    HW260208  -0.000   6.722   2.915  0.1115 -0.4972  0.2897
18935SOL     OW60209   7.493   4.972   6.027  0.3298 -0.1556 -0.3504
18935SOL    HW160210   7.569   4.939   6.075 -0.1282  0.2451  0.6612
18935SOL    HW260211   7.456   4.894   5.985 -0.4194 -0.8722  1.5803
18936SOL     OW60212   9.520  10.481   9.524  0.0400  0.2259 -0.3741
18936SOL    HW160213   9.589  10.544   9.545 -0.5574  0.6937  0.2162
18936SOL    HW260214   9.532  10.411   9.588 -0.2476  0.4797 -0.0347
18937SOL     OW60215  10.843   4.177   1.596 -0.3085  0.3751  0.1017
18937SOL    HW160216  10.759   4.136   1.616  0.3269 -1.2782 -0.4705
18937SOL    HW260217  10.905   4.133   1.655  0.5462 -0.1812 -1.1871
18938SOL     OW60218   2.290   7.670   8.008 -0.2867  0.1925  0.0772
18938SOL    HW160219   2.364   7.619   8.039 -1.5759 -1.3108  0.7481
18938SOL    HW260220   2.317   7.761   8.018  1.6968 -0.3423 -0.2917
18939SOL     OW60221   1.300  10.956   3.649 -0.2571  0.1015  0.3387
18939SOL    HW160222   1.249  10.969   3.569 -0.8728 -0.8382  0.5768
18939SOL    HW260223   1.275  11.030   3.705 -0.5199  0.2500  0.0261
18940SOL     OW60224   4.593   8.645   0.607 -0.0444  0.5131  0.3192
18940SOL    HW160225   4.552   8.631   0.693  2.5496  0.2247  1.5343
18940SOL    HW260226   4.642   8.726   0.617  3.0474 -1.2868  0.2034
18941SOL     OW60227   2.236   9.405   8.166 -0.2851  0.2128 -0.0732
18941SOL    HW160228   2.258   9.481   8.220  1.8402  0.3132 -1.0036
18941SOL    HW260229   2.157   9.369   8.205 -0.3843  1.9437  1.3723
18942SOL     OW60230   9.516   6.215  10.614  0.6918 -0.2782  0.2061
18942SOL    HW160231   9.542   6.133  10.656  1.7169  0.9414  2.0016
18942SOL    HW260232   9.420   6.213  10.614  0.6977 -0.7408  1.7091
18943SOL     OW60233   8.132  10.801   7.903 -0.7729 -0.2745 -0.3586
18943SOL    HW160234   8.215  10.754   7.909 -0.0146  1.2191  1.3466
18943SOL    HW260235   8.065  10.733   7.910  0.2797 -1.4219 -1.1014
18944SOL     OW60236   9.130   2.107   8.424 -0.4789 -0.2625 -0.0988
18944SOL    HW160237   9.112   2.184   8.479 -1.7406  0.2790 -1.2421
18944SOL    HW260238   9.045   2.065   8.414 -0.1920 -0.5697 -1.3098
18945SOL     OW60239   4.861   1.502   5.628  0.0881  0.5882 -0.4412
18945SOL    HW160240   4.770   1.500   5.657 -0.1748 -0.2988 -1.3071
18945SOL    HW260241   4.912   1.508   5.709 -0.6618 -1.1657  0.1885
18946SOL     OW60242   9.760   3.206   6.929  0.1266 -0.2534  0.1393
18946SOL    HW160243   9.799   3.132   6.883 -2.5936 -1.1100 -0.9542
18946SOL    HW260244   9.680   3.170   6.969 -1.3268  2.0986 -0.5233
18947SOL     OW60245   5.588   9.729   4.403 -0.1846  0.1048 -0.4786
18947SOL    HW160246   5.598   9.818   4.435  1.8769  0.4806 -2.0561
18947SOL    HW260247   5.626   9.674   4.472  0.1172  0.5756 -0.2705
18948SOL     OW60248   0.495   1.561  10.268 -0.5268 -0.0266  0.0665
18948SOL    HW160249   0.439   1.607  10.205  1.6980  1.7615 -0.6767
18948SOL    HW260250   0.475   1.602  10.352  0.6354  1.5858 -0.4187
18949SOL     OW60251  10.060   1.507   3.314 -0.3379  0.4214  0.0257
18949SOL    HW160252  10.021   1.513   3.227  1.1694  2.0098 -0.5587
18949SOL    HW260253   9.985   1.503   3.374 -1.3804 -0.4656 -1.3133
18950SOL     OW60254   7.679   0.491   4.596 -0.2222  0.1941 -0.2513
18950SOL    HW160255   7.739   0.559   4.629  1.2415 -0.5927 -1.2424
18950SOL    HW260256   7.655   0.521   4.509  0.0139 -0.2847 -0.4847
18951SOL     OW60257   5.014   6.521   5.017 -0.6218 -0.0723  0.6045
18951SOL    HW160258   4.991   6.445   5.071 -0.0899 -0.6378  0.0449
18951SOL    HW260259   4.993   6.493   4.928  0.5632  0.0579  0.2832
18952SOL     OW60260   4.267   9.935   4.694 -0.3082 -0.3218 -0.1765
18952SOL    HW160261   4.218   9.975   4.622  0.6535 -2.4827 -2.0932
18952SOL    HW260262   4.205   9.875   4.734 -0.6131  0.3281  0.3347
18953SOL     OW60263   5.074   6.408   0.061  0.3871  0.1523 -0.6660
18953SOL    HW160264   5.158   6.361   0.057  1.0086  1.0754  1.1018
18953SOL    HW260265   5.021   6.367  -0.007 -0.1476 -5.1296  2.7164
18954SOL     OW60266   5.053   1.123   5.458  0.0081  0.5490 -0.7573
18954SOL    HW160267   5.137   1.154   5.495 -0.9994  2.1157  0.3146
18954SOL    HW260268   5.009   1.203   5.430 -2.4216  0.0712  1.4873
18955SOL     OW60269   3.152   4.663   5.325 -0.0904  0.0200 -0.1812
18955SOL    HW160270   3.230   4.676   5.271  0.8109 -0.6067  0.9616
18955SOL    HW260271   3.164   4.722   5.399 -0.3193 -0.6730  0.4057
18956SOL     OW60272   8.892   0.766   8.451 -0.2706 -0.3010 -0.2555
18956SOL    HW160273   8.843   0.684   8.453 -1.7653  0.5966  1.6176
18956SOL    HW260274   8.830   0.830   8.419  0.0491  0.5972  0.8753
18957SOL     OW60275   6.832   7.184   9.596  0.2219 -0.0275  0.2138
18957SOL    HW160276   6.863   7.275   9.605  0.5461  0.1008 -1.8349
18957SOL    HW260277   6.739   7.188   9.618 -0.2353  1.2163 -1.8047
18958SOL     OW60278   5.331   6.115   2.564  0.6171 -0.7185 -0.2696
18958SOL    HW160279   5.243   6.135   2.597  0.3572 -2.5463  0.1802
18958SOL    HW260280   5.318   6.106   2.469  0.2270 -1.4536 -0.1498
18959SOL     OW60281   4.849   0.312  10.859 -0.0527 -0.3429 -0.3279
18959SOL    HW160282   4.810   0.338  10.776  1.0676  2.3241 -0.0737
18959SOL    HW260283   4.893   0.229  10.841  0.8876  0.6132 -2.6137
18960SOL     OW60284   2.789   8.330   9.236 -0.2670 -0.2037 -0.2817
18960SOL    HW160285   2.762   8.412   9.195 -2.7546 -0.4606  0.7361
18960SOL    HW260286   2.708   8.293   9.270  0.9223 -2.7491 -0.0936
18961SOL     OW60287   5.413   9.493   4.719  0.7466  0.4114 -0.2334
18961SOL    HW160288   5.320   9.492   4.745  0.8548  0.8925  0.1869
18961SOL    HW260289   5.416   9.443   4.638  0.2762 -0.4472  0.2785
18962SOL     OW60290  10.911   3.136   1.016  0.1176 -0.5683  0.5622
18962SOL    HW160291  10.931   3.103   0.929  2.6055  1.5663  0.2444
18962SOL    HW260292  10.816   3.146   1.017 -0.0501 -1.6638 -1.4891
18963SOL     OW60293   7.737   0.231   4.491 -0.2455  0.2646 -0.0260
18963SOL    HW160294   7.666   0.173   4.517  0.2398 -0.6139 -0.6232
18963SOL    HW260295   7.724   0.311   4.543  0.0697 -1.0230  2.0709
18964SOL     OW60296   7.455   5.806   0.069 -0.3379 -0.2933 -0.3867
18964SOL    HW160297   7.505   5.729   0.098 -0.4484 -0.7908 -1.4815
18964SOL    HW260298   7.509   5.881   0.096  0.3007 -0.7836 -0.2798
18965SOL     OW60299   0.582  10.542   4.183  0.5297 -0.6136 -0.0010
18965SOL    HW160300   0.509  10.532   4.122  1.4363 -1.9907 -0.9089
18965SOL    HW260301   0.542  10.547   4.269 -0.6042 -1.6296 -0.4602
18966SOL     OW60302  10.041   8.370   0.051  0.6617 -0.1013 -0.8598
18966SOL    HW160303   9.970   8.390  -0.009 -0.4494  2.0091  1.0860
18966SOL    HW260304  10.075   8.285   0.021 -1.9502 -0.6269 -2.4574
18967SOL     OW60305   1.973   4.171   9.560  0.6873  0.8286  0.2037
18967SOL    HW160306   2.049   4.118   9.585  0.4465  0.0531 -0.7206
18967SOL    HW260307   1.948   4.140   9.474 -1.9216 -0.3001  1.3269
18968SOL     OW60308   8.881   6.187   2.223 -0.3044 -0.2531 -0.3439
18968SOL    HW160309   8.921   6.258   2.173  1.4433 -1.7069 -1.0607
18968SOL    HW260310   8.941   6.171   2.295 -1.4611  0.0049  0.6984
18969SOL     OW60311   6.913  10.020   4.046  0.1150  0.3911  0.1028
18969SOL    HW160312   6.859   9.963   3.991  1.4607 -0.6416 -0.2041
18969SOL    HW260313   7.003   9.999   4.020  0.7499  0.4922  2.1186
18970SOL     OW60314   4.660  10.833   2.382  0.0693 -0.1913 -0.2524
18970SOL    HW160315   4.598  10.771   2.419 -1.0826  1.2131  0.2393
18970SOL    HW260316   4.731  10.838   2.447  0.0565 -0.8075 -0.1901
18971SOL     OW60317   8.274   7.844   8.199  0.4303 -0.1184 -0.2163
18971SOL    HW160318   8.231   7.781   8.256  3.3188 -1.8510  0.1320
18971SOL    HW260319   8.329   7.896   8.258 -0.0572  1.1032 -0.8257
18972SOL     OW60320   5.395   8.369   4.485  0.3748  0.8635  0.1404
18972SOL    HW160321   5.377   8.360   4.391  1.4039  0.5260 -0.0315
18972SOL    HW260322   5.327   8.317   4.527  1.9267 -1.8305 -0.5652
18973SOL     OW60323   5.965   6.710   0.256 -0.0118 -0.6103 -0.2128
18973SOL    HW160324   5.921   6.761   0.324 -0.0576 -1.2349  0.2256
18973SOL    HW260325   6.053   6.749   0.250 -0.2149 -0.1501 -0.2409
18974SOL     OW60326   9.822   0.032  10.251 -0.1036 -0.0428 -0.3059
18974SOL    HW160327   9.727   0.039  10.264  0.1464  2.7646  0.3039
18974SOL    HW260328   9.834   0.038  10.156 -0.3808  2.0012 -0.2225
18975SOL     OW60329   5.206   2.658  10.105 -0.1683  0.0835  0.2253
18975SOL    HW160330   5.129   2.618  10.145  0.6044 -1.3693  0.3175
18975SOL    HW260331   5.210   2.621  10.017 -0.0158  0.7596 -0.0585
18976SOL     OW60332  10.369  10.271   2.733  0.2449 -0.3276  0.2066
18976SOL    HW160333  10.408  10.184   2.724  0.9808  0.2338 -2.6299
18976SOL    HW260334  10.290  10.267   2.679 -0.3574  0.4097  1.0185
18977SOL     OW60335   2.754   2.888   7.493  0.1004  0.1977 -0.4102
18977SOL    HW160336   2.698   2.868   7.419 -0.5001  0.4706 -0.0308
18977SOL    HW260337   2.711   2.846   7.568  1.7368 -1.7691 -0.5412
18978SOL     OW60338   7.573   8.448   0.584 -0.1866  0.2381  0.7668
18978SOL    HW160339   7.636   8.380   0.563  0.6944  1.5062 -0.8715
18978SOL    HW260340   7.625   8.529   0.587 -1.7861  1.3955 -1.2121
18979SOL     OW60341   7.399   5.986   3.904 -0.3444 -0.1923 -0.6159
18979SOL    HW160342   7.490   5.991   3.933 -0.6060  0.0762  0.1832
18979SOL    HW260343   7.370   5.900   3.934 -0.3899 -0.2284 -0.7642
18980SOL     OW60344  10.161   3.486   7.331 -0.0646 -0.3883  0.2181
18980SOL    HW160345  10.126   3.575   7.333  0.6755 -0.1145  0.9491
18980SOL    HW260346  10.084   3.430   7.324 -0.4621  0.3746 -1.8704
18981SOL     OW60347   3.663   2.130   0.142  0.3486  0.1202 -0.0252
18981SOL    HW160348   3.696   2.220   0.139  1.4852 -0.2411  1.1284
18981SOL    HW260349   3.623   2.122   0.229 -0.3067 -0.3087 -0.3558
18982SOL     OW60350   4.532   8.890   3.145 -0.1485  0.1264 -0.3127
18982SOL    HW160351   4.483   8.942   3.082 -0.4951  1.4033  0.9877
18982SOL    HW260352   4.468   8.830   3.182 -0.5790  1.2712  0.8274
18983SOL     OW60353   3.656   6.672   6.155 -0.2581 -0.3046  0.3335
18983SOL    HW160354   3.612   6.741   6.205  1.6061  0.7432  0.5544
18983SOL    HW260355   3.723   6.639   6.214  1.0041 -0.0543 -0.9576
18984SOL     OW60356   8.163  10.801   4.073 -0.6724  0.4102 -0.2239
18984SOL    HW160357   8.229  10.732   4.083  0.6951  1.6105 -0.7135
18984SOL    HW260358   8.082  10.754   4.053  0.4569 -1.0241 -1.6149
18985SOL     OW60359   4.979   2.455   5.947 -0.1719  0.1445  0.8103
18985SOL    HW160360   4.947   2.471   5.858 -1.0044  0.6651  1.1940
18985SOL    HW260361   5.057   2.511   5.955 -0.3571  0.4426  0.5585
18986SOL     OW60362   8.877   9.910   5.564 -0.0310  0.2505 -0.8007
18986SOL    HW160363   8.947   9.958   5.518  0.3778 -0.4542 -0.9097
18986SOL    HW260364   8.862   9.961   5.644  1.1442 -0.0302 -0.4029
18987SOL     OW60365   7.546   0.406   3.053  0.1046 -0.1443 -0.1974
18987SOL    HW160366   7.467   0.368   3.093  1.0270  0.0977  1.9240
18987SOL    HW260367   7.515   0.485   3.010 -0.8394 -0.0742  0.5856
18988SOL     OW60368   2.307   8.610  10.377 -0.0975  0.0030 -0.3026
18988SOL    HW160369   2.253   8.640  10.450 -2.0864 -0.3740 -1.5864
18988SOL    HW260370   2.369   8.682  10.363 -2.6265  2.1124 -1.1324
18989SOL     OW60371   8.212   9.422   1.071  0.4433 -0.4682  0.1115
18989SOL    HW160372   8.154   9.497   1.075  0.2595 -0.6239  0.3963
18989SOL    HW260373   8.224   9.405   0.978 -0.0968 -0.5336  0.0511
18990SOL     OW60374   1.649   7.544   1.760  0.0761  0.4311  0.4846
18990SOL    HW160375   1.578   7.566   1.699  1.0948 -0.1475 -0.9473
18990SOL    HW260376   1.706   7.620   1.758 -0.1609  0.6269  1.1311
18991SOL     OW60377   4.984   9.042   9.985  0.0121  0.1274 -0.2096
18991SOL    HW160378   4.984   9.065   9.892  0.0548 -1.1353 -0.5433
18991SOL    HW260379   4.899   9.070  10.017 -0.5319 -0.6309 -0.9584
18992SOL     OW60380  10.628   5.862   3.854 -0.1460  0.1298 -0.2292
18992SOL    HW160381  10.569   5.931   3.884  1.2656 -0.0485  3.1334
18992SOL    HW260382  10.677   5.836   3.932  0.7127 -3.3650 -1.8427
18993SOL     OW60383   0.675   9.845   1.075  0.2816  0.6230  0.1708
18993SOL    HW160384   0.613   9.917   1.086 -0.7018 -0.2887  0.7614
18993SOL    HW260385   0.761   9.884   1.089 -0.1730  1.8824 -0.5539
18994SOL     OW60386   6.939   6.653   6.144  0.5581 -0.4655 -0.2057
18994SOL    HW160387   6.896   6.726   6.188  0.6382 -0.5475  0.0080
18994SOL    HW260388   6.919   6.666   6.051  0.2484 -0.3923 -0.1265
18995SOL     OW60389   4.402   1.844   4.460 -0.2486  0.3476 -0.2964
18995SOL    HW160390   4.494   1.834   4.484 -0.6972 -1.0351  0.9325
18995SOL    HW260391   4.354   1.798   4.530 -1.8736  1.2707 -0.7869
18996SOL     OW60392  10.390   4.340   4.127  0.0602  0.2167 -0.3833
18996SOL    HW160393  10.335   4.299   4.193 -0.2166 -0.6398 -1.1316
18996SOL    HW260394  10.471   4.361   4.172  0.1672 -1.0803  0.0306
18997SOL     OW60395   9.363   2.192   4.061 -0.3098  0.0487  0.1036
18997SOL    HW160396   9.395   2.127   4.123  1.1930  0.6064 -0.0695
18997SOL    HW260397   9.274   2.163   4.040  0.5924 -2.3867 -0.5613
18998SOL     OW60398   8.177   3.673   2.015  0.7668  0.1049 -0.2705
18998SOL    HW160399   8.137   3.645   2.098 -1.0888  1.6815 -0.5894
18998SOL    HW260400   8.271   3.673   2.033  0.4401 -0.3214  1.6053
18999SOL     OW60401   4.366   0.997   2.963 -0.6881  0.2645 -0.1066
18999SOL    HW160402   4.272   0.988   2.951 -0.7402 -1.0876  1.1166
18999SOL    HW260403   4.403   0.920   2.920 -0.3973 -0.8813  2.0735
19000SOL     OW60404   3.920   3.043   7.842  0.0021  0.3096  0.1237
19000SOL    HW160405   3.971   2.986   7.784 -0.3499 -1.0786  1.1452
19000SOL    HW260406   3.984   3.101   7.881  0.5359 -0.1478 -0.0666
19001SOL     OW60407   7.049   0.057   3.927  0.5705  0.1811  0.0724
19001SOL    HW160408   7.082   0.037   3.840 -0.8687 -0.2610 -0.3811
19001SOL    HW260409   7.127   0.083   3.977  1.3594  0.6689 -1.3951
19002SOL     OW60410   9.585   7.657   2.978  0.0770 -0.0937  0.6190
19002SOL    HW160411   9.502   7.612   2.963  0.2059 -0.3221  0.6090
19002SOL    HW260412   9.586   7.675   3.072 -0.0812  0.1023  0.5855
19003SOL     OW60413   0.147   0.197   9.345  0.0150  0.5060 -0.0959
19003SOL    HW160414   0.121   0.289   9.348  1.6099  0.9225  1.5749
19003SOL    HW260415   0.214   0.193   9.277 -0.3649  0.4919 -0.4716
19004SOL     OW60416  10.838   4.219   7.164 -0.4035 -0.3543  0.0688
19004SOL    HW160417  10.923   4.238   7.123 -1.0784 -0.1872 -1.2631
19004SOL    HW260418  10.775   4.222   7.092 -1.7105  0.5891  1.2269
19005SOL     OW60419   0.162   9.010  10.726  0.2257  0.3197  0.0201
19005SOL    HW160420   0.158   9.103  10.704  1.2546  0.1968 -0.7632
19005SOL    HW260421   0.254   8.995  10.748  0.1017 -0.5469 -0.0520
19006SOL     OW60422   2.833   2.534   7.564 -0.2180  0.2196  0.6040
19006SOL    HW160423   2.738   2.528   7.554 -0.1748  1.2420 -0.5181
19006SOL    HW260424   2.846   2.551   7.657 -1.0312 -1.8684  1.1175
19007SOL     OW60425   0.640   1.792   2.294 -0.8006 -0.0722 -0.2352
19007SOL    HW160426   0.663   1.750   2.211  0.1360  1.5502 -0.8171
19007SOL    HW260427   0.581   1.863   2.269  0.4200  1.1693  0.3456
19008SOL     OW60428   6.423   5.059   6.691 -0.0247 -0.3189  0.0888
19008SOL    HW160429   6.475   5.139   6.696 -2.4346  1.3503 -0.3902
19008SOL    HW260430   6.446   5.020   6.606  0.6011  0.2718 -0.0093
19009SOL     OW60431   9.684   8.428   0.182 -0.1638  0.0192 -0.2749
19009SOL    HW160432   9.634   8.456   0.105  0.1889  1.2642 -0.0666
19009SOL    HW260433   9.633   8.356   0.219 -0.8538  0.0678 -1.1105
19010SOL     OW60434   6.297  10.444  10.204  0.2075 -0.0173  0.5582
19010SOL    HW160435   6.245  10.470  10.280 -0.8752  1.7439 -0.7324
19010SOL    HW260436   6.241  10.385  10.155  0.4484 -0.2269  0.5348
19011SOL     OW60437   3.603   3.002   5.514  0.1594 -0.1304 -0.3982
19011SOL    HW160438   3.668   2.993   5.444  0.0546 -0.8295 -0.4020
19011SOL    HW260439   3.541   2.931   5.500  1.1062 -1.3656  1.4288
19012SOL     OW60440   5.448   0.535   6.875  0.4164  0.4934  0.5733
19012SOL    HW160441   5.402   0.507   6.796  0.0447  1.2655  0.5120
19012SOL    HW260442   5.487   0.455   6.909 -1.4325 -0.2730  0.9375
19013SOL     OW60443   0.005   4.433   2.060  0.3043 -0.7045 -0.5007
19013SOL    HW160444   0.060   4.408   1.987 -0.4268 -1.2196 -0.8821
19013SOL    HW260445  -0.084   4.407   2.034  0.2407 -2.2488  1.1720
19014SOL     OW60446   3.045   5.547   5.391  0.1373 -0.4384 -0.1492
19014SOL    HW160447   3.072   5.620   5.336  1.4227 -0.5487  0.3217
19014SOL    HW260448   2.978   5.501   5.340 -0.5541  0.9498 -0.5275
19015SOL     OW60449  10.801   0.855   6.509  0.5586  0.3988 -0.1275
19015SOL    HW160450  10.779   0.777   6.459 -0.9638  1.1315 -0.6311
19015SOL    HW260451  10.748   0.849   6.588 -0.2599  1.3737 -0.5923
19016SOL     OW60452   6.501   5.287   7.327  0.0966  0.6820  0.9557
19016SOL    HW160453   6.526   5.380   7.332 -0.9451  0.9648  1.1512
19016SOL    HW260454   6.412   5.289   7.292  0.2742 -0.2848  0.4500
19017SOL     OW60455   9.769   3.843   6.678 -0.0799 -0.2911  0.0489
19017SOL    HW160456   9.801   3.847   6.768 -0.4749  0.0712  0.1740
19017SOL    HW260457   9.681   3.805   6.686 -0.1013 -0.2900 -0.1886
19018SOL     OW60458   4.569   6.875   7.179 -0.4233 -0.6943 -0.7116
19018SOL    HW160459   4.503   6.851   7.114 -0.7379 -2.3620  0.1792
19018SOL    HW260460   4.613   6.793   7.199 -0.0455 -0.1354  0.8525
19019SOL     OW60461   5.473   2.969   0.041 -0.3187  0.0033  0.0174
19019SOL    HW160462   5.473   3.055  -0.002 -1.2994  1.0029  1.9734
19019SOL    HW260463   5.448   2.908  -0.028  0.7976  1.2223 -1.5052
19020SOL     OW60464   3.364   5.378   8.123 -0.0787  0.0420 -0.1928
19020SOL    HW160465   3.320   5.461   8.140 -1.8207 -1.2330  1.7114
19020SOL    HW260466   3.333   5.319   8.192  0.3840 -2.4655 -2.0509
19021SOL     OW60467   4.916   0.290   6.529  0.6160  0.4952 -0.0780
19021SOL    HW160468   4.999   0.263   6.490  1.2012  2.8320 -0.5248
19021SOL    HW260469   4.850   0.238   6.483  1.4193  2.0891 -3.2215
19022SOL     OW60470  10.402   4.641   4.880  0.6326  0.3416  0.4786
19022SOL    HW160471  10.477   4.698   4.899 -0.5574  2.0585  0.2221
19022SOL    HW260472  10.332   4.674   4.936 -0.4546 -0.0392 -0.6272
19023SOL     OW60473   9.054   3.019   1.752  0.2789  0.3908 -0.0808
19023SOL    HW160474   9.020   2.930   1.755  1.4801 -0.1749 -2.1591
19023SOL    HW260475   9.135   3.016   1.803  1.3399 -0.2150 -1.7503
19024SOL     OW60476   2.624   3.179   9.245  0.4354 -0.1323 -0.4339
19024SOL    HW160477   2.590   3.264   9.220  0.2073  0.2491  1.1150
19024SOL    HW260478   2.554   3.140   9.297  0.7684 -1.0275 -0.6474
19025SOL     OW60479   2.806  10.518   4.462 -0.0347  0.1243  0.2051
19025SOL    HW160480   2.821  10.431   4.498 -0.2292 -0.7403 -1.7356
19025SOL    HW260481   2.717  10.540   4.489 -0.4898 -0.8716 -0.4505
19026SOL     OW60482   6.152   6.315   1.119 -0.0142 -0.2362 -0.4531
19026SOL    HW160483   6.209   6.307   1.195  0.6913  0.2025 -0.9260
19026SOL    HW260484   6.088   6.382   1.143 -0.3060 -0.6911  0.0585
19027SOL     OW60485   6.879   8.554   9.923  0.3269  0.1977  0.0294
19027SOL    HW160486   6.897   8.472   9.968 -0.0648 -0.0152 -0.1891
19027SOL    HW260487   6.808   8.595   9.973 -2.5719 -1.7118 -2.3384
19028SOL     OW60488   3.204   3.083   6.710  0.1149  0.3962 -0.0831
19028SOL    HW160489   3.290   3.070   6.670  0.1760 -1.2280  0.5131
19028SOL    HW260490   3.196   3.178   6.720  2.4201  0.5114  1.1028
19029SOL     OW60491  10.423   4.410   5.009 -0.0978  1.0753 -0.0773
19029SOL    HW160492  10.507   4.373   4.984 -0.4864  0.4388 -0.4354
19029SOL    HW260493  10.417   4.491   4.959  0.2600  1.0785 -0.1195
19030SOL     OW60494   3.575   2.924   8.108 -0.4082 -0.5649 -0.1550
19030SOL    HW160495   3.486   2.890   8.107 -1.0469  1.0145  0.6808
19030SOL    HW260496   3.602   2.917   8.200  0.0142 -0.2494 -0.2548
19031SOL     OW60497   0.379   3.683   7.709 -0.2509 -0.3883  0.0672
19031SOL    HW160498   0.432   3.757   7.741  0.3560 -1.6447  2.0783
19031SOL    HW260499   0.351   3.710   7.622  1.3313  1.5297  0.1034
19032SOL     OW60500   5.544   9.408  10.517 -0.7622 -0.5702  0.2270
19032SOL    HW160501   5.509   9.347  10.453 -0.2378 -0.7341  0.0936
19032SOL    HW260502   5.547   9.358  10.599  1.6133 -1.4082 -0.3236
19033SOL     OW60503   2.322   7.506  10.628 -0.4202 -0.6480  0.0318
19033SOL    HW160504   2.255   7.514  10.560 -2.2234  0.7190  1.9188
19033SOL    HW260505   2.365   7.423  10.609 -1.1913 -0.5178 -2.5035
19034SOL     OW60506   5.667   4.932  10.803 -0.4534  0.3097  0.1125
19034SOL    HW160507   5.650   4.858  10.861 -1.1819  0.5681  0.2400
19034SOL    HW260508   5.687   5.005  10.862 -0.7517  0.4637  0.0228
19035SOL     OW60509   5.098   0.942   0.860 -0.3031  0.2446  0.0806
19035SOL    HW160510   5.038   0.923   0.932 -1.2351  0.9594 -0.4883
19035SOL    HW260511   5.095   0.863   0.805  0.7327 -0.4697  1.0293
19036SOL     OW60512   2.946   3.814   8.111  0.1269  0.0025  0.0945
19036SOL    HW160513   2.913   3.844   8.026 -1.4412 -0.4216  0.5491
19036SOL    HW260514   2.887   3.743   8.136  0.2374  0.5105  1.8131
19037SOL     OW60515  10.964   7.914   9.501 -0.1752  0.0666  0.0372
19037SOL    HW160516  10.879   7.887   9.466  0.0517  0.3148 -0.7097
19037SOL    HW260517  10.967   8.009   9.486  0.0800  0.1148  0.3946
19038SOL     OW60518   8.677   3.867   2.884  0.4484  0.0312 -0.2883
19038SOL    HW160519   8.602   3.818   2.917 -1.0456  2.8372  0.6991
19038SOL    HW260520   8.681   3.846   2.791 -0.6947 -1.2417 -0.0604
19039SOL     OW60521   0.295   7.917   9.550  0.4324 -0.5469  0.0299
19039SOL    HW160522   0.291   7.999   9.600  0.8904  0.7906 -2.0478
19039SOL    HW260523   0.204   7.885   9.549  0.1103  0.3418  0.2275
19040SOL     OW60524  10.468   2.372   6.466 -0.4342  0.0577  0.6360
19040SOL    HW160525  10.480   2.316   6.542 -1.0381 -0.1824  0.5592
19040SOL    HW260526  10.429   2.452   6.501  0.6029  0.5117  0.7720
19041SOL     OW60527   7.669   2.647   9.674  0.2543  0.0784  0.0419
19041SOL    HW160528   7.598   2.659   9.611  0.2166  0.6913  0.1987
19041SOL    HW260529   7.712   2.565   9.647 -1.9346 -1.5316  1.3085
19042SOL     OW60530   7.647   4.197   3.799 -0.5017  0.4203  0.0785
19042SOL    HW160531   7.640   4.218   3.706  0.4955  0.3782 -0.0135
19042SOL    HW260532   7.729   4.238   3.826 -0.6431  0.1765  0.8701
19043SOL     OW60533   7.944   8.986  10.254  0.1807 -0.5452  0.2665
19043SOL    HW160534   7.925   9.080  10.253 -1.8559 -0.9239  1.2717
19043SOL    HW260535   7.892   8.951  10.182 -2.3557 -1.4642  2.4688
19044SOL     OW60536   5.873   5.719  10.063 -0.0843  0.6024 -0.1620
19044SOL    HW160537   5.953   5.722  10.115 -0.7524  0.7995  0.8697
19044SOL    HW260538   5.903   5.697   9.975  0.8062 -2.6305  0.8571
19045SOL     OW60539   9.629  10.701   1.274  0.3527 -0.3568 -0.3739
19045SOL    HW160540   9.534  10.707   1.290  0.1299  1.0880 -2.0834
19045SOL    HW260541   9.650  10.779   1.224  2.0680 -1.7281 -1.8576
19046SOL     OW60542   7.406   3.559   5.642  0.3121  0.3910  0.2155
19046SOL    HW160543   7.327   3.613   5.648  0.6252  0.7839  0.9301
19046SOL    HW260544   7.394   3.506   5.564 -0.6554  0.4534  0.3258
19047SOL     OW60545   5.988   5.237   6.399  0.0868  0.0096 -0.3218
19047SOL    HW160546   6.021   5.318   6.359  1.6535 -1.8635 -3.0584
19047SOL    HW260547   6.057   5.211   6.460 -0.3907  0.7040  0.5166
19048SOL     OW60548  10.734   4.747   8.626 -0.2139 -0.2923 -0.3737
19048SOL    HW160549  10.799   4.747   8.696  0.0816  0.4872 -0.6439
19048SOL    HW260550  10.651   4.732   8.671  0.3869 -3.6383 -0.2623
19049SOL     OW60551   0.293   5.402   7.220 -0.2408 -0.0639 -0.2717
19049SOL    HW160552   0.317   5.466   7.288  0.0571  1.0872 -1.4395
19049SOL    HW260553   0.371   5.346   7.212  0.6697  1.3119 -1.3666
19050SOL     OW60554   6.918   4.656   7.103  0.8233  0.2023 -0.1539
19050SOL    HW160555   6.924   4.590   7.034  0.1141 -1.4984  1.3690
19050SOL    HW260556   6.859   4.722   7.068  0.2959 -0.7437 -1.0865
19051SOL     OW60557   8.358   5.719   3.381 -0.2536  0.7839 -0.0524
19051SOL    HW160558   8.309   5.651   3.426 -0.4185  0.9698  0.0474
19051SOL    HW260559   8.305   5.742   3.305  0.6785 -0.5281 -1.1462
19052SOL     OW60560   4.653   4.857   7.730 -0.2293 -0.2019  0.0731
19052SOL    HW160561   4.723   4.865   7.794 -0.5314 -0.9503  0.4994
19052SOL    HW260562   4.664   4.769   7.694 -0.1359  0.1690 -0.8143
19053SOL     OW60563   7.648   3.855   6.363  0.2554 -0.0312 -0.4155
19053SOL    HW160564   7.716   3.790   6.377  0.0011 -0.3641 -0.6992
19053SOL    HW260565   7.567   3.805   6.362 -0.4980  0.8323  4.3627
19054SOL     OW60566   5.306   6.874   0.730 -0.2276  0.6773 -0.2620
19054SOL    HW160567   5.316   6.968   0.713 -0.0370  0.6389 -0.3728
19054SOL    HW260568   5.214   6.856   0.714 -0.4919  1.0519  0.8131
19055SOL     OW60569   9.000   7.008   1.246  0.3214 -0.0482 -0.0338
19055SOL    HW160570   8.931   7.063   1.282  1.3755  0.8486  0.6437
19055SOL    HW260571   9.049   7.066   1.188  0.9985 -0.4710  0.1113
19056SOL     OW60572   3.487  10.191   9.268 -0.0708  0.1730 -0.8023
19056SOL    HW160573   3.407  10.143   9.290  1.1409 -1.7609 -0.4536
19056SOL    HW260574   3.524  10.143   9.193  1.4168  0.2620 -0.1499
19057SOL     OW60575   4.092   3.737   7.029  0.2071  0.9339  0.4686
19057SOL    HW160576   4.171   3.690   7.054  0.4647  0.9088 -0.3899
19057SOL    HW260577   4.032   3.670   6.996 -0.0463  0.9952  0.7996
19058SOL     OW60578   0.838   5.886   4.331 -0.0198 -0.0378  0.3873
19058SOL    HW160579   0.769   5.841   4.380 -1.0169  1.2425  0.1772
19058SOL    HW260580   0.885   5.816   4.285 -1.2909 -0.8964  0.3895
19059SOL     OW60581   9.956   0.945   8.729  0.2890  0.4770  0.3170
19059SOL    HW160582  10.045   0.948   8.695  0.2021  0.3515  0.0814
19059SOL    HW260583   9.966   0.966   8.822  0.8177 -1.7053  0.7688
19060SOL     OW60584   0.842   5.698   8.971  0.1643 -0.4056 -0.9295
19060SOL    HW160585   0.838   5.647   8.890 -0.2534  0.2115 -1.2984
19060SOL    HW260586   0.883   5.780   8.946  0.5825 -0.4475 -0.3873
19061SOL     OW60587   1.814   8.150  10.146 -0.1971  0.4816  0.3705
19061SOL    HW160588   1.778   8.083  10.205 -1.3696  1.9566  1.3753
19061SOL    HW260589   1.739   8.205  10.125  0.7827  1.5641 -0.3274
19062SOL     OW60590   2.919   8.826   6.859  0.5387 -0.1093 -0.1088
19062SOL    HW160591   2.843   8.772   6.837 -0.8576  1.7409  0.0710
19062SOL    HW260592   2.924   8.823   6.955  1.1815 -0.8699 -0.1609
19063SOL     OW60593   5.594   0.005  10.756  0.2731  0.1299  0.4770
19063SOL    HW160594   5.583   0.039  10.845  1.2034 -1.1347  1.0793
19063SOL    HW260595   5.672   0.049  10.723 -0.4691  1.1335  0.0068
19064SOL     OW60596   8.867   7.868   2.429 -0.2331 -0.7047  0.2049
19064SOL    HW160597   8.815   7.851   2.351 -0.3775 -2.2096  0.6223
19064SOL    HW260598   8.893   7.782   2.460  0.9015 -0.0530  1.0935
19065SOL     OW60599   7.434   0.987   2.294 -0.2825  0.3393  0.0303
19065SOL    HW160600   7.505   1.002   2.356 -0.1041 -1.3812  0.2627
19065SOL    HW260601   7.394   1.073   2.282  0.5694  0.9468  1.4472
19066SOL     OW60602   1.308   1.395  10.829  0.3979  0.2346 -0.4064
19066SOL    HW160603   1.259   1.319  10.796  0.7156 -0.7428  1.3213
19066SOL    HW260604   1.247   1.468  10.820 -1.3110 -0.9251  1.4968
19067SOL     OW60605  10.105   7.826   7.983  0.1632  0.2068 -0.2005
19067SOL    HW160606  10.067   7.838   7.896 -1.5040 -1.1918  0.2954
19067SOL    HW260607  10.104   7.731   7.997  0.8697  0.3878  1.1461
19068SOL     OW60608   7.387   1.000   1.844 -0.1879  0.4416 -0.4973
19068SOL    HW160609   7.343   0.976   1.762 -2.0638  0.9438  0.3213
19068SOL    HW260610   7.405   1.094   1.834  0.7262  0.2379 -0.8279
19069SOL     OW60611   1.406   1.603   2.104  0.0174 -0.0993 -0.2738
19069SOL    HW160612   1.397   1.680   2.047  1.6130  0.1793 -0.1552
19069SOL    HW260613   1.499   1.583   2.103  0.0602 -0.1700  2.1467
19070SOL     OW60614   9.233   3.977   6.249  0.2730 -0.0028 -0.2514
19070SOL    HW160615   9.157   3.971   6.190  0.0322 -1.1671  0.1638
19070SOL    HW260616   9.301   3.926   6.205 -0.6228 -2.8595  1.5450
19071SOL     OW60617   1.446   5.033   8.910 -0.3034  0.2546  0.4309
19071SOL    HW160618   1.488   5.031   8.824 -0.2154 -2.2797  0.5019
19071SOL    HW260619   1.353   5.039   8.891 -0.2024  1.2346  0.2040
19072SOL     OW60620   2.989   1.936  10.275 -0.0821  0.2803  0.1363
19072SOL    HW160621   3.001   1.850  10.236  1.2416  1.1480 -1.4347
19072SOL    HW260622   3.024   1.929  10.364  1.0523 -0.4930 -0.3706
19073SOL     OW60623  10.402   8.341   4.359 -0.1210  0.1203  0.2063
19073SOL    HW160624  10.398   8.250   4.387 -1.7834  0.0411 -0.2138
19073SOL    HW260625  10.327   8.352   4.301  0.6205  1.5044 -0.5328
19074SOL     OW60626   9.744   4.182   5.345  0.3717  0.3601 -0.1313
19074SOL    HW160627   9.725   4.100   5.299 -0.0356 -0.5338  1.5696
19074SOL    HW260628   9.833   4.204   5.319  0.1737 -0.1613 -1.2863
19075SOL     OW60629   9.844  10.688   3.354  0.1186  0.2251 -0.2516
19075SOL    HW160630   9.834  10.623   3.284  1.7315  0.6459 -0.8896
19075SOL    HW260631   9.756  10.698   3.390 -0.6414 -0.3449 -1.9059
19076SOL     OW60632   2.925   2.785   1.072  0.0495 -0.5669  0.3785
19076SOL    HW160633   2.962   2.725   1.136  1.4099 -1.2379 -1.0157
19076SOL    HW260634   2.996   2.847   1.053  0.1792 -1.2655 -1.5583
19077SOL     OW60635   6.267   2.063   2.225  0.5351  0.4317  0.3068
19077SOL    HW160636   6.276   2.077   2.319  1.6909  1.9998  0.0022
19077SOL    HW260637   6.174   2.051   2.210  0.5441 -1.7244  1.8857
19078SOL     OW60638   9.138   8.109   0.262  0.8412  0.1993  0.0981
19078SOL    HW160639   9.105   8.183   0.211  0.7555 -0.2343 -0.4752
19078SOL    HW260640   9.175   8.049   0.197  1.8558  0.2121  0.6434
19079SOL     OW60641   4.857   3.267   0.147 -0.3557  0.2815  0.5870
19079SOL    HW160642   4.827   3.250   0.058 -1.6616  0.8410  0.9029
19079SOL    HW260643   4.837   3.359   0.162  3.1024  1.1285  0.2540
19080SOL     OW60644   9.266   1.954   9.547  0.0539 -1.0062 -0.6782
19080SOL    HW160645   9.354   1.989   9.540 -0.4359  0.2473 -0.7584
19080SOL    HW260646   9.276   1.871   9.593  1.1799 -0.5109 -0.0190
19081SOL     OW60647   2.302   4.594  10.635  0.0658  0.3532  0.3119
19081SOL    HW160648   2.349   4.521  10.675  0.6771  1.3682  1.4867
19081SOL    HW260649   2.371   4.653  10.606 -0.4250  0.4081 -0.7537
19082SOL     OW60650   2.654   6.861   4.677  0.2622 -0.1795 -0.3796
19082SOL    HW160651   2.579   6.905   4.718  0.5563 -1.0701  1.1829
19082SOL    HW260652   2.705   6.932   4.638  0.3380  0.8024  1.4331
19083SOL     OW60653   9.108  10.256   5.978 -0.1034  0.2471 -0.0774
19083SOL    HW160654   9.151  10.182   5.937  2.2607  0.9945  0.9598
19083SOL    HW260655   9.124  10.329   5.919 -1.6810  0.1431 -0.6628
19084SOL     OW60656   2.524   6.758  10.596  0.3360 -0.3167 -0.0253
19084SOL    HW160657   2.607   6.725  10.562  0.8811 -0.3128  1.2610
19084SOL    HW260658   2.544   6.847  10.625 -0.6869  0.5210 -1.8035
19085SOL     OW60659   6.712   4.191   4.331  0.0657 -0.6155 -0.3882
19085SOL    HW160660   6.696   4.209   4.239 -0.6803  0.9768  0.0301
19085SOL    HW260661   6.630   4.215   4.375  1.0716  0.5393  0.9046
19086SOL     OW60662   0.500   2.280   8.913 -0.1344 -0.4802 -0.1632
19086SOL    HW160663   0.478   2.223   8.986 -1.9050 -1.1957 -1.2292
19086SOL    HW260664   0.501   2.223   8.836  0.1731  0.5337 -0.9347
19087SOL     OW60665   5.028   4.568   7.490 -0.1186 -0.5898  1.0098
19087SOL    HW160666   4.968   4.618   7.545 -1.3823 -1.0352  0.0739
19087SOL    HW260667   5.018   4.477   7.519 -1.2135 -0.9045 -0.3014
19088SOL     OW60668   9.947   7.799   4.614  0.2822 -0.2172  0.2533
19088SOL    HW160669   9.930   7.792   4.520 -0.3153  1.1334  0.2480
19088SOL    HW260670   9.860   7.793   4.654  0.5947 -1.4202  0.7707
19089SOL     OW60671   9.300   1.492   9.163  0.2941 -0.0457  0.0107
19089SOL    HW160672   9.285   1.400   9.187  1.4296 -0.5389 -1.1611
19089SOL    HW260673   9.372   1.520   9.219  2.5879 -1.0430 -2.3396
19090SOL     OW60674   3.299   5.513   4.032  0.0193 -0.2520  0.3335
19090SOL    HW160675   3.278   5.509   3.938 -0.2781 -1.3133  0.4398
19090SOL    HW260676   3.214   5.517   4.075  0.1761  3.2202  0.4619
19091SOL     OW60677  10.418   6.048   0.831 -0.1376  0.4185 -0.5922
19091SOL    HW160678  10.387   6.109   0.764  0.3133 -0.3627 -1.5222
19091SOL    HW260679  10.507   6.024   0.803  0.5704  1.1406  1.0139
19092SOL     OW60680   7.172   6.127   7.002 -0.1331 -0.6150  0.4935
19092SOL    HW160681   7.092   6.082   7.032 -0.7081 -0.0814 -0.2054
19092SOL    HW260682   7.226   6.057   6.965 -0.3402 -0.9585  0.8331
19093SOL     OW60683   2.798   5.128   3.930  0.4384 -0.3590 -0.4928
19093SOL    HW160684   2.786   5.060   3.996  1.2731 -0.6454 -0.6334
19093SOL    HW260685   2.774   5.087   3.847 -0.2566 -0.1068 -0.4223
19094SOL     OW60686   2.865   5.280   6.473  0.5611  0.0345  0.4521
19094SOL    HW160687   2.781   5.324   6.458  0.9759 -0.2526 -3.3365
19094SOL    HW260688   2.852   5.227   6.551 -3.1690 -0.8858 -0.7095
19095SOL     OW60689   6.186   1.972   0.110 -0.4475  0.4152  0.0347
19095SOL    HW160690   6.207   2.041   0.173  1.4167  0.0655 -0.1977
19095SOL    HW260691   6.219   2.005   0.026  0.6332 -0.8377 -0.0387
19096SOL     OW60692   5.715   6.139  10.457  0.5145  0.0842 -0.1519
19096SOL    HW160693   5.645   6.182  10.407  0.7448  0.4573 -0.1544
19096SOL    HW260694   5.748   6.071  10.398  1.6184  1.3215 -1.0087
19097SOL     OW60695   9.260   4.330   5.529 -0.1372 -0.0396  0.1513
19097SOL    HW160696   9.188   4.293   5.581 -1.1759  0.7493 -0.7064
19097SOL    HW260697   9.231   4.419   5.507  0.7556  0.0071 -0.8862
19098SOL     OW60698   7.500   7.194   0.248  0.1560  0.1623 -0.0457
19098SOL    HW160699   7.503   7.182   0.343  3.1154  0.8394 -0.0009
19098SOL    HW260700   7.533   7.112   0.212 -1.0219 -0.1185 -0.5096
19099SOL     OW60701  10.089   6.665   4.622  0.1426  0.2915  0.2443
19099SOL    HW160702  10.115   6.723   4.693  1.2538  2.0757 -1.5707
19099SOL    HW260703  10.160   6.602   4.615 -0.0787 -0.0347  0.8330
19100SOL     OW60704   4.372   6.285   4.326 -0.3444  0.1755  0.2029
19100SOL    HW160705   4.325   6.312   4.247 -0.3044 -1.5316 -0.4354
19100SOL    HW260706   4.345   6.347   4.393 -1.4126  0.8450 -0.8379
19101SOL     OW60707   4.647   6.350   2.028  0.3497 -0.2457 -0.0521
19101SOL    HW160708   4.692   6.426   2.064 -1.3166  0.0009  1.5951
19101SOL    HW260709   4.556   6.361   2.056 -1.1590  0.1397 -4.5957
19102SOL     OW60710   5.689   5.741  10.361 -0.2706  0.3637 -0.0061
19102SOL    HW160711   5.684   5.652  10.395  2.1499 -0.4223 -1.5457
19102SOL    HW260712   5.651   5.735  10.273  0.7065  0.6169 -0.4605
19103SOL     OW60713   1.992   3.942   1.957  0.2168  0.0142  0.2887
19103SOL    HW160714   1.954   3.935   2.044  1.4417 -0.6305  0.7884
19103SOL    HW260715   1.921   3.915   1.898 -0.5925  0.3824  1.0767
19104SOL     OW60716   2.827   0.330   1.202 -0.1837  0.7047  0.4670
19104SOL    HW160717   2.735   0.346   1.220  0.0673  1.4803  1.0960
19104SOL    HW260718   2.847   0.385   1.126 -0.8567 -1.3951 -1.2875
19105SOL     OW60719   6.635   6.314   9.729 -0.4175  0.0232 -0.1190
19105SOL    HW160720   6.571   6.367   9.681  0.9983 -0.3608 -2.5463
19105SOL    HW260721   6.583   6.251   9.778 -1.9342 -0.2648 -2.0285
19106SOL     OW60722   4.491   0.605   0.536 -0.1672  0.0771  0.3664
19106SOL    HW160723   4.534   0.521   0.520  0.4689  0.2737  0.9848
19106SOL    HW260724   4.473   0.606   0.630  1.0155  1.1701  0.5995
19107SOL     OW60725   2.367   1.410   4.598 -0.1244 -0.2445 -0.0912
19107SOL    HW160726   2.314   1.471   4.547 -1.2463 -0.7398  0.4782
19107SOL    HW260727   2.305   1.345   4.630  0.9603 -1.3155 -0.1266
19108SOL     OW60728   3.327   4.910   8.050 -0.1470 -0.3462 -0.0309
19108SOL    HW160729   3.326   4.995   8.005  1.5822 -0.1382  0.2939
19108SOL    HW260730   3.418   4.881   8.044 -0.0768 -0.7229  2.5826
19109SOL     OW60731   9.889   7.917   4.279 -0.6331  0.0368  0.0645
19109SOL    HW160732   9.962   7.892   4.222  0.5627  2.1307  0.6511
19109SOL    HW260733   9.822   7.851   4.262  1.4908 -2.0952 -0.2701
19110SOL     OW60734   2.357   1.747   4.819  0.1096  0.2329 -0.2326
19110SOL    HW160735   2.445   1.712   4.823 -0.4234 -0.9296  1.9439
19110SOL    HW260736   2.312   1.694   4.753  0.2175 -1.0992  0.7515
19111SOL     OW60737   0.666   5.076   2.317 -0.2236  0.2689  0.3379
19111SOL    HW160738   0.633   5.075   2.227 -0.3726 -0.7685  0.3961
19111SOL    HW260739   0.623   5.151   2.357 -2.1138 -0.7493  0.2534
19112SOL     OW60740   3.579   1.727   0.788 -0.3007  0.2507  0.0817
19112SOL    HW160741   3.518   1.760   0.854 -1.3137  0.0736 -0.7648
19112SOL    HW260742   3.665   1.734   0.830 -0.8258  1.0988  1.0401
19113SOL     OW60743   5.060   2.341   7.854  0.2314 -0.5764  0.3873
19113SOL    HW160744   4.983   2.396   7.865 -0.8900 -2.0400  0.0255
19113SOL    HW260745   5.065   2.324   7.760  1.2257 -0.1844  0.3551
19114SOL     OW60746   8.362   9.033   2.781 -0.1633 -0.2450 -0.1660
19114SOL    HW160747   8.408   9.086   2.846 -0.2106 -1.3225  0.7592
19114SOL    HW260748   8.280   9.080   2.765 -0.5109 -0.3641  1.1587
19115SOL     OW60749   4.001   5.440   1.878 -0.0238 -0.1449  0.1738
19115SOL    HW160750   3.989   5.399   1.963  0.9522  3.0936  1.9684
19115SOL    HW260751   4.094   5.460   1.873  0.1920 -1.5387 -2.3032
19116SOL     OW60752   0.870   5.120   7.905  0.1411  0.0475 -0.4027
19116SOL    HW160753   0.866   5.029   7.876  1.4341 -0.4556  0.9441
19116SOL    HW260754   0.938   5.121   7.972 -1.3107  1.5897  1.0978
19117SOL     OW60755   1.783   4.711   5.803  0.4807 -0.4072  0.7893
19117SOL    HW160756   1.871   4.674   5.792  1.0017  0.9235  0.4596
19117SOL    HW260757   1.787   4.755   5.888 -0.3188 -1.5649  1.4501
19118SOL     OW60758   3.789   4.761   9.457 -0.0800  0.7655  0.2979
19118SOL    HW160759   3.803   4.798   9.545  0.6865  0.7471  0.1928
19118SOL    HW260760   3.695   4.750   9.450 -0.1236  0.4940  1.2389
19119SOL     OW60761   1.991   0.623  10.073 -0.4855  0.2187  0.3040
19119SOL    HW160762   1.970   0.702  10.123  0.8200  0.5846  0.2919
19119SOL    HW260763   2.080   0.637  10.042 -0.4552 -1.0090 -0.1975
19120SOL     OW60764  10.748   1.378   6.084 -0.6112 -0.1110 -0.3688
19120SOL    HW160765  10.739   1.384   6.179 -1.7870  0.2533 -0.4934
19120SOL    HW260766  10.730   1.286   6.064  3.4190 -1.1046  0.1181
19121SOL     OW60767   1.244   8.516  10.657  1.3051  0.4017  0.0322
19121SOL    HW160768   1.207   8.464  10.728 -2.8923  0.5873 -1.8900
19121SOL    HW260769   1.316   8.463  10.623  0.0819 -2.0193  1.0893
19122SOL     OW60770   3.220   9.327   0.786  0.0380  0.2333 -0.0438
19122SOL    HW160771   3.255   9.358   0.702 -1.7520  1.4596 -0.3777
19122SOL    HW260772   3.216   9.406   0.840 -1.2701 -0.0769  0.3184
19123SOL     OW60773   2.248   8.310   1.855  0.7919  0.0411  0.0215
19123SOL    HW160774   2.343   8.304   1.841  1.0689  0.0826  1.7587
19123SOL    HW260775   2.240   8.359   1.937 -0.6786 -2.0418  1.1325
19124SOL     OW60776   2.250   7.431   0.910 -0.2344  0.4316  0.4814
19124SOL    HW160777   2.308   7.355   0.907 -0.5543  0.2086 -0.1385
19124SOL    HW260778   2.213   7.430   0.998 -1.8491 -1.3459 -0.1914
19125SOL     OW60779   9.928   7.111   3.702  0.5669  0.2028  0.1998
19125SOL    HW160780   9.938   7.139   3.793 -0.7226 -0.4211  0.5481
19125SOL    HW260781  10.014   7.074   3.679 -0.1968 -3.2894  2.4870
19126SOL     OW60782   7.779   2.479   8.207 -0.2920 -0.0435  0.6883
19126SOL    HW160783   7.740   2.515   8.127  1.1432  0.4430  0.1901
19126SOL    HW260784   7.734   2.524   8.278 -0.6496  0.5086  0.1176
19127SOL     OW60785   2.589   5.609  10.491  0.1255  0.0769 -0.3976
19127SOL    HW160786   2.525   5.548  10.529  0.8162 -0.1114  0.4751
19127SOL    HW260787   2.605   5.575  10.403 -1.0333  0.1663 -0.6540
19128SOL     OW60788   0.337   7.020   6.046 -0.4193 -0.1012 -0.8023
19128SOL    HW160789   0.349   7.077   6.122  0.4755  0.0427 -1.0410
19128SOL    HW260790   0.243   7.001   6.045 -0.6359  0.9026 -0.3913
19129SOL     OW60791   6.216   4.311   0.706  0.2000  0.3895  0.2221
19129SOL    HW160792   6.189   4.364   0.781  0.9004  0.8710  0.1314
19129SOL    HW260793   6.203   4.366   0.630 -0.9841 -0.2760 -0.0678
19130SOL     OW60794  10.339   0.875   3.995  0.3801 -0.3612  0.0658
19130SOL    HW160795  10.391   0.814   4.048  0.9677 -0.2489 -0.3774
19130SOL    HW260796  10.372   0.962   4.021  0.1873 -0.2758  0.0202
19131SOL     OW60797   8.559   1.886   1.092  0.2058 -0.0814  0.2131
19131SOL    HW160798   8.616   1.837   1.150  0.2090 -1.4709 -0.9307
19131SOL    HW260799   8.599   1.876   1.005  0.0285  1.6801 -0.0938
19132SOL     OW60800   7.176   3.630   8.086  0.0033 -0.0559 -0.5180
19132SOL    HW160801   7.187   3.538   8.064  1.3184 -0.2540  0.9135
19132SOL    HW260802   7.174   3.632   8.182 -0.6072  1.3369 -0.5457
19133SOL     OW60803   8.775   5.406   7.173 -0.1111 -0.0933 -0.3285
19133SOL    HW160804   8.751   5.378   7.261 -0.6328  0.0141 -0.4332
19133SOL    HW260805   8.838   5.477   7.186 -1.0126  0.6664 -0.0227
19134SOL     OW60806   2.550   0.478   4.046  0.2510  0.0047 -0.1979
19134SOL    HW160807   2.541   0.560   4.094  0.3700  0.2286 -0.5554
19134SOL    HW260808   2.462   0.457   4.016  0.3403  0.3875 -0.7344
19135SOL     OW60809   6.757   7.393   3.774  0.1724 -0.3022 -0.2963
19135SOL    HW160810   6.827   7.427   3.829 -1.0718  0.9583  0.5522
19135SOL    HW260811   6.757   7.449   3.697  0.1665 -0.3642 -0.3416
19136SOL     OW60812   2.985   4.911   3.770  0.2517 -0.0190 -0.3210
19136SOL    HW160813   3.001   4.916   3.676  0.8694 -0.4019 -0.2380
19136SOL    HW260814   2.987   4.817   3.789 -0.4471  0.0205 -0.0202
19137SOL     OW60815   6.997   2.089   8.286  0.2165  0.2929 -0.2919
19137SOL    HW160816   6.947   2.125   8.359  1.1208  1.0067 -0.0083
19137SOL    HW260817   6.984   1.995   8.292 -1.1727  0.4782 -0.2920
19138SOL     OW60818   6.223   5.759   3.295 -0.7778  0.5198  0.4295
19138SOL    HW160819   6.316   5.756   3.316 -0.9889  1.4312  1.5541
19138SOL    HW260820   6.214   5.837   3.240 -0.6804 -0.2744 -0.7162
19139SOL     OW60821   8.342  10.451   0.497 -0.0327 -0.3517  0.3289
19139SOL    HW160822   8.313  10.363   0.471 -1.9711  0.4207 -0.1941
19139SOL    HW260823   8.289  10.472   0.574  1.5925 -0.2832  1.4630
19140SOL     OW60824   3.836   2.913   1.265  0.5983 -0.2375 -0.4264
19140SOL    HW160825   3.919   2.917   1.217  0.8993 -0.3621  0.0788
19140SOL    HW260826   3.860   2.882   1.352 -0.2782 -2.5792 -0.9711
19141SOL     OW60827   6.484   9.741   5.317  0.0373  0.6673 -0.5675
19141SOL    HW160828   6.450   9.823   5.280 -1.1876  1.2236  1.6745
19141SOL    HW260829   6.412   9.708   5.370  1.1455 -0.9737 -0.0680
19142SOL     OW60830   7.954   8.020   4.047  0.0768 -0.1318 -0.2968
19142SOL    HW160831   7.995   7.989   4.128 -0.0133 -0.6886 -0.4617
19142SOL    HW260832   8.016   7.997   3.978  1.3980  2.7248 -0.1352
19143SOL     OW60833   4.522   5.968   4.157 -0.1661  0.0297  0.1641
19143SOL    HW160834   4.551   6.022   4.084 -0.8529 -0.0224 -0.1503
19143SOL    HW260835   4.537   6.022   4.234 -0.6451  0.5820 -0.1307
19144SOL     OW60836   7.433  10.760   1.917  0.6154  0.1047  0.1157
19144SOL    HW160837   7.403  10.848   1.939  0.6499 -0.1162  1.0832
19144SOL    HW260838   7.488  10.734   1.992 -1.5485 -1.7548  1.1285
19145SOL     OW60839   0.628   4.861   7.844  0.3504 -0.1290 -0.0931
19145SOL    HW160840   0.553   4.818   7.803 -0.3058 -0.1416  1.0705
19145SOL    HW260841   0.589   4.919   7.909  1.2216  2.4396 -1.8228
19146SOL     OW60842   0.257   9.992   0.431  0.8128 -0.2175 -0.0396
19146SOL    HW160843   0.168  10.012   0.403 -0.4057 -0.4252  3.4227
19146SOL    HW260844   0.268   9.899   0.413 -0.6836 -0.8142  1.9933
19147SOL     OW60845   9.302   2.864   2.989 -0.0367  0.3369 -0.0644
19147SOL    HW160846   9.294   2.796   3.055  0.9209 -0.2179 -0.5096
19147SOL    HW260847   9.281   2.945   3.035  0.8423 -0.0188  0.9742
19148SOL     OW60848   7.178   7.439   4.731  0.0800  0.7993  0.1314
19148SOL    HW160849   7.084   7.434   4.715  0.1025 -0.1841  0.2798
19148SOL    HW260850   7.187   7.507   4.797 -0.7055 -0.3106  1.4238
19149SOL     OW60851   4.877   8.817   2.683 -0.5931  0.3670 -0.1830
19149SOL    HW160852   4.894   8.866   2.764 -1.5964  0.4499 -0.0163
19149SOL    HW260853   4.906   8.728   2.703  0.5531  0.7180 -0.2398
19150SOL     OW60854   7.298   9.713   7.501  0.1052  0.3481 -0.8924
19150SOL    HW160855   7.283   9.773   7.574  0.5945  1.8002 -1.9594
19150SOL    HW260856   7.257   9.630   7.529  0.1795  0.9113  0.9535
19151SOL     OW60857   5.763   1.032   3.818 -0.1221 -0.4209 -0.0562
19151SOL    HW160858   5.730   0.943   3.803 -0.0706 -0.2794 -1.0004
19151SOL    HW260859   5.746   1.079   3.737  1.7873 -0.1612 -0.3437
19152SOL     OW60860   0.517   2.181   0.770 -0.1853 -0.1314 -0.3433
19152SOL    HW160861   0.494   2.193   0.863 -0.9206  0.7947 -0.6439
19152SOL    HW260862   0.556   2.093   0.767 -0.3250 -0.2491  0.8083
19153SOL     OW60863   4.550   0.300   0.679  0.0309  0.2927 -0.4012
19153SOL    HW160864   4.577   0.210   0.699  0.1130  0.4246  0.0813
19153SOL    HW260865   4.584   0.316   0.591  1.9547  0.6301  0.3925
19154SOL     OW60866   5.257   0.465   3.006  0.2448  0.3819 -0.8105
19154SOL    HW160867   5.165   0.446   2.987  0.6153 -1.5399 -0.7648
19154SOL    HW260868   5.288   0.390   3.057  1.3617  1.8642  0.7847
19155SOL     OW60869   3.045   4.028   0.560  0.2736  0.4082  0.2327
19155SOL    HW160870   3.010   3.939   0.556 -0.2573  0.5517  1.5719
19155SOL    HW260871   3.140   4.018   0.548  0.0649 -0.2022 -0.9599
19156SOL     OW60872   8.883   1.726   7.409 -0.6374 -0.4829  0.0813
19156SOL    HW160873   8.949   1.733   7.478 -1.1567 -3.4823  0.9452
19156SOL    HW260874   8.934   1.711   7.329 -0.0683  2.3553 -0.1496
19157SOL     OW60875   7.380   7.847   3.559 -0.0750  0.5863 -0.2004
19157SOL    HW160876   7.297   7.845   3.608 -0.1096  1.0600 -0.2312
19157SOL    HW260877   7.354   7.831   3.468  0.1959 -2.1522  0.1686
19158SOL     OW60878   1.430   8.938   7.485 -0.6298  0.3037 -0.2136
19158SOL    HW160879   1.337   8.916   7.474 -0.9209  0.8812  1.0002
19158SOL    HW260880   1.472   8.856   7.510 -1.0630  0.3271  0.6175
19159SOL     OW60881   5.639   3.452   6.803  0.6112 -0.2994  0.7309
19159SOL    HW160882   5.730   3.466   6.778  0.8080  1.7078  2.4489
19159SOL    HW260883   5.644   3.400   6.883  0.3440  1.3265  1.8318
19160SOL     OW60884   7.136   6.450  10.177 -0.6467 -0.2251  0.2589
19160SOL    HW160885   7.061   6.487  10.131 -0.2959  0.0408 -0.1051
19160SOL    HW260886   7.099   6.385  10.236 -1.0727 -0.7472 -0.5848
19161SOL     OW60887  10.101   9.114   9.528  0.9384 -0.3779  0.4467
19161SOL    HW160888  10.113   9.200   9.487  0.5280 -0.1640  0.7710
19161SOL    HW260889  10.130   9.126   9.619  0.5813 -0.4966  0.5781
19162SOL     OW60890   7.722   0.476   1.059 -0.7784 -0.3794 -0.3138
19162SOL    HW160891   7.807   0.475   1.016 -0.3441 -1.0304  0.5518
19162SOL    HW260892   7.674   0.546   1.016  0.9303  1.3963  0.6287
19163SOL     OW60893   3.666   2.033   7.080  0.0492 -0.0329  0.0375
19163SOL    HW160894   3.641   2.125   7.094  1.7008  0.6436 -1.2846
19163SOL    HW260895   3.644   2.016   6.989 -2.2704 -1.6494  0.8545
19164SOL     OW60896   1.865   7.448   6.395 -0.4303 -0.3406  0.0258
19164SOL    HW160897   1.890   7.362   6.362  1.6318 -0.0101  0.6423
19164SOL    HW260898   1.843   7.499   6.317  2.9464 -0.0084 -0.7987
19165SOL     OW60899   3.367   5.822   7.743  0.0864 -0.1119 -0.2928
19165SOL    HW160900   3.356   5.765   7.667  0.6403 -0.6994  0.0614
19165SOL    HW260901   3.288   5.876   7.745  1.0559  1.4622 -2.5606
19166SOL     OW60902   9.026   9.677   7.619 -0.2214 -0.0226 -0.2122
19166SOL    HW160903   9.055   9.645   7.534 -0.7331 -0.6582 -0.1555
19166SOL    HW260904   9.075   9.624   7.682 -2.8198 -2.4369 -0.0999
19167SOL     OW60905   1.096   2.049   8.940 -0.5067  0.4064 -0.0393
19167SOL    HW160906   1.096   2.102   9.019 -0.3232 -0.5027  0.5792
19167SOL    HW260907   1.099   2.112   8.868 -3.1814  1.3366  0.5942
19168SOL     OW60908   4.328   6.807   3.740 -0.4396  0.6033  0.7913
19168SOL    HW160909   4.315   6.840   3.829  0.4051  3.1455  0.0144
19168SOL    HW260910   4.301   6.880   3.684  0.6904 -0.3406 -1.0018
19169SOL     OW60911   9.404   4.384   3.571 -0.0792  0.2177  0.9196
19169SOL    HW160912   9.350   4.311   3.600  0.9180  0.4754  3.5078
19169SOL    HW260913   9.398   4.449   3.641  0.4906  1.8811 -0.5143
19170SOL     OW60914   2.745   0.728   0.050  0.0836  0.1972 -0.4973
19170SOL    HW160915   2.810   0.797   0.062  0.3118  0.5131 -3.1594
19170SOL    HW260916   2.720   0.735  -0.042 -0.7510 -2.5137 -0.5209
19171SOL     OW60917   3.285   2.164   5.837 -0.5339  0.5617 -0.0787
19171SOL    HW160918   3.246   2.078   5.855 -1.3998  0.5977 -1.7267
19171SOL    HW260919   3.238   2.196   5.760  1.7160  1.2846 -1.1925
19172SOL     OW60920   1.606   4.083   5.907  0.0044  0.2624 -0.2288
19172SOL    HW160921   1.626   4.129   5.825  0.9147 -1.1314 -0.7987
19172SOL    HW260922   1.535   4.023   5.884 -0.0113  0.1509  0.1075
19173SOL     OW60923   6.188   7.049   3.305 -0.5580  0.2892 -0.0214
19173SOL    HW160924   6.275   7.067   3.269 -0.7975  0.4948 -0.5005
19173SOL    HW260925   6.205   7.018   3.394  0.2988 -3.9848 -1.5493
19174SOL     OW60926   9.055   5.024   7.341 -0.2141  0.2405 -0.3230
19174SOL    HW160927   9.098   4.981   7.415  1.7331 -0.0899 -1.6202
19174SOL    HW260928   8.962   5.011   7.358  0.2279 -0.8260  1.4850
19175SOL     OW60929  10.785   6.645   9.661 -0.5158  0.1831  0.5919
19175SOL    HW160930  10.806   6.557   9.629 -1.0193  0.6002 -0.9366
19175SOL    HW260931  10.772   6.634   9.755  2.1931 -0.8754  0.9077
19176SOL     OW60932   2.734   3.814   1.201  0.9541  0.1298  0.1637
19176SOL    HW160933   2.779   3.743   1.154  0.4577 -0.3527  0.4195
19176SOL    HW260934   2.782   3.822   1.283  1.0150  0.0958  0.1318
19177SOL     OW60935   6.313   7.409   0.756 -0.0754  0.3844  0.1992
19177SOL    HW160936   6.406   7.401   0.775  0.5766  1.9031 -2.1031
19177SOL    HW260937   6.287   7.493   0.795 -0.8795 -0.7264  2.1503
19178SOL     OW60938   4.255   1.425   0.561  0.2427 -0.1042 -0.3830
19178SOL    HW160939   4.230   1.348   0.510 -0.6800 -0.8624  1.1785
19178SOL    HW260940   4.196   1.424   0.637  2.2912  0.3907  1.2573
19179SOL     OW60941   5.196   1.744   9.389 -0.4378  0.5845  0.1853
19179SOL    HW160942   5.282   1.706   9.409  0.0039  1.1289 -0.6718
19179SOL    HW260943   5.179   1.803   9.463 -0.7745 -0.6669  1.1266
19180SOL     OW60944  10.677   3.198   0.595 -0.0141  0.1638  0.2142
19180SOL    HW160945  10.752   3.190   0.535  0.3100  0.1110  0.6214
19180SOL    HW260946  10.639   3.110   0.598  0.1965  0.0769  0.3737
19181SOL     OW60947   7.617   9.094   1.709  0.2324 -0.3609  0.1388
19181SOL    HW160948   7.667   9.052   1.639 -0.2647  0.1360 -0.5192
19181SOL    HW260949   7.648   9.051   1.789  1.1225 -0.6238 -0.3381
19182SOL     OW60950   2.757   3.653   7.955 -0.2788 -0.0131  0.5750
19182SOL    HW160951   2.790   3.662   7.865 -0.4601  0.7288  0.5803
19182SOL    HW260952   2.675   3.702   7.955 -0.9819 -1.1937  0.7782
19183SOL     OW60953   2.761   4.259   2.625 -0.4208 -0.2214 -0.1543
19183SOL    HW160954   2.714   4.254   2.709 -2.6931 -0.3787 -1.3812
19183SOL    HW260955   2.853   4.251   2.649 -1.0018 -0.0736  2.3493
19184SOL     OW60956   8.043   2.152   7.177  0.0388 -0.5158 -0.3846
19184SOL    HW160957   8.049   2.137   7.271 -0.3353  0.0223 -0.2677
19184SOL    HW260958   7.949   2.166   7.161  0.0175 -1.2791 -0.9412
19185SOL     OW60959   7.526   8.273   2.488  0.5822  0.9186 -0.4782
19185SOL    HW160960   7.596   8.234   2.539 -0.0161  2.0485  1.2839
19185SOL    HW260961   7.484   8.335   2.548  0.5832  3.1738 -2.6831
19186SOL     OW60962   1.742   1.533   5.287  0.1324 -0.1864 -0.1570
19186SOL    HW160963   1.671   1.595   5.271  0.4373  0.5151  1.1176
19186SOL    HW260964   1.713   1.484   5.364  1.3160  0.5542  0.7791
19187SOL     OW60965   5.622   4.936   0.305  0.5023 -0.2417  0.5643
19187SOL    HW160966   5.637   4.921   0.398  0.4097  0.0712  0.6285
19187SOL    HW260967   5.544   4.884   0.285 -1.0919  1.8111  1.2680
19188SOL     OW60968   3.922   2.600   9.391  0.1930 -0.0539  0.1406
19188SOL    HW160969   3.964   2.676   9.431  1.3827 -1.1805  1.0726
19188SOL    HW260970   3.873   2.636   9.318  1.9809  1.4451 -0.3701
19189SOL     OW60971   2.218   1.474   5.015 -0.0593  0.2402 -0.0376
19189SOL    HW160972   2.202   1.420   5.092  1.2780 -1.0506 -0.6364
19189SOL    HW260973   2.145   1.455   4.957  1.2747 -2.2792 -0.9546
19190SOL     OW60974   8.130   3.872   6.030  0.0229 -0.2941  0.7659
19190SOL    HW160975   8.146   3.869   6.124  2.3388 -1.6318  0.3679
19190SOL    HW260976   8.052   3.817   6.017  0.5546 -1.2918  1.7351
19191SOL     OW60977   7.279   9.858   4.302  0.1320  0.3657 -0.2607
19191SOL    HW160978   7.269   9.763   4.302 -0.9578  0.4768 -0.0591
19191SOL    HW260979   7.195   9.891   4.333  0.4868  1.4012 -0.3856
19192SOL     OW60980   4.481   2.562   8.393 -0.3214 -0.2046  0.1706
19192SOL    HW160981   4.441   2.500   8.332 -0.8925  0.8144 -0.5076
19192SOL    HW260982   4.556   2.598   8.344 -1.1088  1.0246 -0.1477
19193SOL     OW60983   2.982   3.402   5.601  0.1244 -0.0703 -0.2748
19193SOL    HW160984   3.038   3.398   5.678 -0.6658 -1.0025  0.2584
19193SOL    HW260985   3.031   3.356   5.533  0.5747  0.2680 -0.1821
19194SOL     OW60986  10.964   4.520   7.193  0.4521 -0.2952 -0.1321
19194SOL    HW160987  10.981   4.437   7.149  1.3850  1.0366 -2.3544
19194SOL    HW260988  10.869   4.523   7.203  0.4156 -1.6203 -0.0647
19195SOL     OW60989   7.223   4.081   1.562 -0.0101  0.1941  0.3844
19195SOL    HW160990   7.247   3.990   1.545 -2.0619 -0.8962  2.9473
19195SOL    HW260991   7.149   4.098   1.505  2.8077  1.6105 -3.0278
19196SOL     OW60992   9.164   1.175   7.720  0.0759 -0.5916 -0.1908
19196SOL    HW160993   9.087   1.221   7.754 -0.2821 -0.1312 -1.6114
19196SOL    HW260994   9.166   1.093   7.769 -1.8521 -1.0115 -0.7946
19197SOL     OW60995   5.516   9.239   2.772  0.0284 -0.2115  0.4202
19197SOL    HW160996   5.520   9.146   2.749  1.1803 -0.2145  0.6157
19197SOL    HW260997   5.583   9.281   2.717  0.0971  0.3748  0.9444
19198SOL     OW60998   6.023   2.121   1.733 -0.0108 -0.0666  0.0392
19198SOL    HW160999   5.947   2.081   1.775  0.2425 -0.4827  0.1012
19198SOL    HW261000   6.054   2.055   1.672 -0.2405  0.4470 -0.6458
19199SOL     OW61001   4.267   3.386   7.325 -0.4501 -0.1703  0.0962
19199SOL    HW161002   4.270   3.292   7.339 -1.7427 -0.2963 -0.4695
19199SOL    HW261003   4.317   3.423   7.398  2.2423 -1.4192 -1.0606
19200SOL     OW61004   5.511   6.856   1.465  0.0258  0.3463 -0.1564
19200SOL    HW161005   5.418   6.842   1.485 -0.0990  1.1278 -0.1689
19200SOL    HW261006   5.514   6.942   1.423  0.5292 -0.4911 -1.8802
19201SOL     OW61007   5.986   8.744  10.492 -0.0692  0.1030  0.6419
19201SOL    HW161008   5.940   8.750  10.576  0.3348  1.1028  0.7918
19201SOL    HW261009   6.078   8.738  10.516 -0.0072 -0.3130  0.2911
19202SOL     OW61010   7.103   4.395   6.287 -0.3350  0.0381  0.8538
19202SOL    HW161011   7.014   4.427   6.280  0.1424  1.1175 -0.5473
19202SOL    HW261012   7.141   4.409   6.200  1.9206  1.7637  2.0616
19203SOL     OW61013   6.679   9.016   4.795 -0.1397  0.3446  0.0134
19203SOL    HW161014   6.677   9.111   4.809  0.4965  0.8230 -2.8437
19203SOL    HW261015   6.596   8.996   4.752  0.9028  0.0891 -1.9515
19204SOL     OW61016   6.730   8.321  10.760 -0.3888  0.5371  0.5250
19204SOL    HW161017   6.662   8.381  10.792 -0.2507  0.8899  0.1524
19204SOL    HW261018   6.685   8.237  10.751 -1.0150  0.9807 -0.6235
19205SOL     OW61019   0.145   6.946   7.401 -0.3832  0.4498 -0.2596
19205SOL    HW161020   0.114   6.972   7.488  1.6089 -1.8080  1.2142
19205SOL    HW261021   0.220   7.003   7.385 -1.7625  1.9999 -1.2575
19206SOL     OW61022   8.158   7.704   0.848  0.1671  0.4401  0.1306
19206SOL    HW161023   8.218   7.748   0.908  2.0196  0.8727 -1.9812
19206SOL    HW261024   8.162   7.755   0.767 -1.1181 -0.9806 -0.8729
19207SOL     OW61025   9.004   4.247   3.017 -0.1400  0.0516 -0.8128
19207SOL    HW161026   8.939   4.315   3.030  0.4509  0.0698  2.4416
19207SOL    HW261027   9.081   4.293   2.984  1.5109  1.7501  4.7449
19208SOL     OW61028   4.665   5.274   9.505  0.1997 -0.2173 -0.1248
19208SOL    HW161029   4.680   5.271   9.410  0.5868 -0.9780 -0.0377
19208SOL    HW261030   4.752   5.268   9.543 -0.2016 -3.3208  0.3587
19209SOL     OW61031   4.423   4.620   7.418 -0.7174  0.2546 -0.0453
19209SOL    HW161032   4.416   4.696   7.361  0.6673  2.1727  2.2575
19209SOL    HW261033   4.405   4.654   7.506  0.0805 -2.0434  1.0519
19210SOL     OW61034   9.056  10.586   5.862  0.5129 -0.9062  0.2310
19210SOL    HW161035   9.011  10.563   5.943 -0.4831  0.9614  0.2340
19210SOL    HW261036   9.129  10.640   5.889 -0.1978  0.2669 -0.1376
19211SOL     OW61037   5.990   6.365   5.438  0.2680 -0.3040 -0.6100
19211SOL    HW161038   6.016   6.458   5.438  0.7155 -0.4212 -1.2835
19211SOL    HW261039   5.979   6.344   5.345 -0.9734 -0.6115 -0.3921
19212SOL     OW61040   5.389   7.106   8.552  0.3080  0.3054  0.0990
19212SOL    HW161041   5.361   7.147   8.633  0.4674  0.8246 -0.1064
19212SOL    HW261042   5.360   7.015   8.559 -0.9716  0.7124  0.0964
19213SOL     OW61043   1.064   8.805  10.385 -0.3762  0.8156 -0.5364
19213SOL    HW161044   1.087   8.782  10.295 -1.2329  0.1807 -0.5978
19213SOL    HW261045   1.140   8.853  10.417  0.4533 -0.0249 -1.1924
19214SOL     OW61046   9.573   7.970   0.536  0.0746  0.0333 -0.3598
19214SOL    HW161047   9.559   7.884   0.578 -3.1087  0.5385 -0.2546
19214SOL    HW261048   9.609   8.025   0.606 -1.5162 -0.1921  0.6598
19215SOL     OW61049  10.542   5.025   7.008  0.0428  0.1807 -0.5148
19215SOL    HW161050  10.542   4.967   7.084  0.0277  0.4903 -0.2757
19215SOL    HW261051  10.450   5.037   6.987 -0.0774  1.9877  0.8877
19216SOL     OW61052   6.075   4.764   2.090 -0.3816 -0.1418  0.1043
19216SOL    HW161053   6.058   4.741   2.181 -2.2335  1.0084  0.0726
19216SOL    HW261054   5.988   4.768   2.049  0.4985 -2.8479 -2.2945
19217SOL     OW61055   1.664   3.548   5.747 -0.4320  0.8385  0.4748
19217SOL    HW161056   1.738   3.601   5.780 -1.0100  1.3776  0.9214
19217SOL    HW261057   1.600   3.613   5.718  0.0699  0.3692 -1.7860
19218SOL     OW61058   2.585   6.190   1.581  0.2896 -0.8372 -0.0889
19218SOL    HW161059   2.630   6.245   1.645 -0.2362 -1.2643  0.6495
19218SOL    HW261060   2.495   6.222   1.580  0.0393 -1.5262  0.1678
19219SOL     OW61061   9.329   1.389   6.574 -0.3254 -0.3342 -0.0367
19219SOL    HW161062   9.256   1.366   6.632 -0.3914  1.8135  0.7721
19219SOL    HW261063   9.324   1.484   6.565  0.4791 -0.4810 -2.5492
19220SOL     OW61064   8.461   8.634   4.200 -0.3298  0.5057  0.2280
19220SOL    HW161065   8.536   8.693   4.196 -1.5941  2.3003  1.8226
19220SOL    HW261066   8.490   8.562   4.255 -0.8683  2.9819  3.9627
19221SOL     OW61067   0.167   1.993   0.276 -0.0048 -0.0785 -0.0548
19221SOL    HW161068   0.116   2.072   0.259  0.6265  0.0961 -1.2575
19221SOL    HW261069   0.186   1.958   0.188 -1.1977 -2.1550  0.4796
19222SOL     OW61070   7.274   5.401   6.490 -0.1165  0.0765  0.0977
19222SOL    HW161071   7.314   5.322   6.528 -0.5051 -0.8800 -1.4334
19222SOL    HW261072   7.220   5.436   6.560 -0.8553 -1.6888  0.4369
19223SOL     OW61073   6.555  10.248   8.440 -0.2612  0.2858  0.1054
19223SOL    HW161074   6.604  10.262   8.521 -1.2477  0.0395  0.7392
19223SOL    HW261075   6.498  10.324   8.433 -0.8542 -0.1507  0.1338
19224SOL     OW61076   2.464   6.872   5.277 -0.2723 -0.6727 -0.0716
19224SOL    HW161077   2.370   6.865   5.295 -0.1742 -1.4469  0.1693
19224SOL    HW261078   2.472   6.856   5.183 -0.2059 -2.5561  0.2217
19225SOL     OW61079   1.812   6.570   8.586 -0.2135  0.5021 -0.1981
19225SOL    HW161080   1.768   6.638   8.637 -0.7428 -0.2040  0.3121
19225SOL    HW261081   1.855   6.616   8.515 -1.1317  1.2897 -0.2445
19226SOL     OW61082  10.846   6.128   4.137  0.3990 -0.0694  0.5343
19226SOL    HW161083  10.806   6.085   4.213  0.3506  2.0590  1.7442
19226SOL    HW261084  10.824   6.220   4.147  2.4714  0.6038 -0.7566
19227SOL     OW61085   8.097   4.097  10.512 -0.6402 -0.5004 -0.2373
19227SOL    HW161086   8.179   4.106  10.463  0.1308 -0.0477  1.1374
19227SOL    HW261087   8.102   4.009  10.550 -0.3017 -0.0603  0.7406
19228SOL     OW61088   8.189   4.095   7.138  0.1414  0.3027  0.2019
19228SOL    HW161089   8.119   4.077   7.076 -0.4727 -0.8863  1.2269
19228SOL    HW261090   8.269   4.093   7.085 -0.5723  1.6030 -0.9545
19229SOL     OW61091   0.770   2.221   3.010 -0.0899 -0.2512 -0.0378
19229SOL    HW161092   0.860   2.253   3.002 -0.4852  0.6701 -0.8506
19229SOL    HW261093   0.775   2.156   3.080  1.0300  0.4476  0.5604
19230SOL     OW61094   9.485   0.764   0.175  0.2662 -0.3767 -0.2485
19230SOL    HW161095   9.450   0.687   0.129  0.5931  0.0031 -1.1566
19230SOL    HW261096   9.575   0.739   0.198  0.3292 -0.3203 -0.4294
19231SOL     OW61097   1.047   4.364   5.287 -0.3289 -0.7205 -0.0131
19231SOL    HW161098   1.047   4.460   5.290  0.7957 -0.7159 -0.1208
19231SOL    HW261099   0.980   4.342   5.222 -1.4981 -0.0457  0.9324
19232SOL     OW61100   9.409   8.593   3.839 -0.0988  0.3917 -0.6411
19232SOL    HW161101   9.393   8.654   3.767 -3.2051 -2.0749 -2.1674
19232SOL    HW261102   9.473   8.531   3.804 -0.9169 -0.2730 -0.9734
19233SOL     OW61103   7.305   7.498   0.397  0.2463 -0.0027  0.2639
19233SOL    HW161104   7.321   7.508   0.303 -1.6875  1.3881  0.0609
19233SOL    HW261105   7.233   7.558   0.416  0.6666 -0.2035  2.6624
19234SOL     OW61106   4.754   6.841   2.912 -0.3548 -0.1550 -0.2361
19234SOL    HW161107   4.808   6.820   2.988 -0.6173  0.0529  0.0103
19234SOL    HW261108   4.803   6.807   2.837  0.7382  1.1784 -0.1392
19235SOL     OW61109   2.433   7.625   0.123  0.0893 -0.1970 -0.7487
19235SOL    HW161110   2.445   7.665   0.037 -0.8499  3.7197  0.8013
19235SOL    HW261111   2.339   7.604   0.127  0.5498 -2.5587 -1.4947
19236SOL     OW61112   5.285   7.303   2.155 -0.4563  0.1904 -0.0682
19236SOL    HW161113   5.299   7.384   2.204  1.1183 -0.5850  0.8140
19236SOL    HW261114   5.232   7.329   2.080 -0.7330  1.8671  0.6909
19237SOL     OW61115   8.442   6.571   4.107 -0.4715 -0.3782  0.4400
19237SOL    HW161116   8.464   6.513   4.181  1.8554  2.1060  1.7889
19237SOL    HW261117   8.348   6.584   4.114 -0.5629 -1.6656  1.8538
19238SOL     OW61118   7.215   6.541   3.321 -0.3456  0.5631 -0.1010
19238SOL    HW161119   7.211   6.493   3.239 -0.6053 -0.2582  0.3887
19238SOL    HW261120   7.126   6.539   3.355  0.4967 -2.7344  2.2458
19239SOL     OW61121   7.563   9.878   2.429  0.6924  0.2583  0.0118
19239SOL    HW161122   7.582   9.966   2.462  1.1644  0.2588 -0.2643
19239SOL    HW261123   7.648   9.834   2.428  0.7088  0.3091 -1.3604
19240SOL     OW61124   7.324   9.660   5.614  0.2638 -0.2933  0.8318
19240SOL    HW161125   7.255   9.604   5.580 -0.5825  1.4492 -0.4100
19240SOL    HW261126   7.322   9.645   5.709 -2.6006  0.5206  0.9647
19241SOL     OW61127   8.623   8.991   1.537 -0.2783 -0.5180  0.3858
19241SOL    HW161128   8.685   9.043   1.589  0.0493 -1.4222  0.9057
19241SOL    HW261129   8.537   9.022   1.567 -0.0892 -0.7565  1.1945
19242SOL     OW61130  10.657   8.069   3.944 -0.1948 -0.4627  0.4907
19242SOL    HW161131  10.603   8.130   3.893  1.1777  1.5279  1.3482
19242SOL    HW261132  10.597   8.036   4.012 -0.9929 -0.1781 -0.0591
19243SOL     OW61133   5.765  10.067   9.056 -0.7135  0.0163 -0.0418
19243SOL    HW161134   5.839  10.048   9.114 -1.1735 -1.3820  0.1168
19243SOL    HW261135   5.769   9.999   8.989 -2.8669 -1.1725  0.9710
19244SOL     OW61136  10.364   3.250   2.449  0.6324  0.2443  0.5212
19244SOL    HW161137  10.359   3.335   2.404  0.9844  0.1826  0.3703
19244SOL    HW261138  10.381   3.273   2.540 -0.9010  0.4084  0.7936
19245SOL     OW61139   6.929   1.630  10.959  0.5941  0.3717  0.2869
19245SOL    HW161140   6.899   1.646  10.869 -0.0414  0.5166  0.5222
19245SOL    HW261141   6.868   1.679  11.014 -0.0813 -1.1108  0.8888
19246SOL     OW61142   7.593   3.967  10.039 -0.2340  0.6628  0.0151
19246SOL    HW161143   7.686   3.985  10.028  0.1835 -1.4722 -0.0285
19246SOL    HW261144   7.568   3.915   9.963 -1.1553  0.0651  0.7093
19247SOL     OW61145   6.284   9.162   6.715  0.1949  0.0616  0.3556
19247SOL    HW161146   6.310   9.119   6.634  3.6748  1.3665  0.6668
19247SOL    HW261147   6.246   9.093   6.768  1.2654 -1.6131 -1.0097
19248SOL     OW61148   1.531   4.435   6.013 -0.2361  0.0979  0.3071
19248SOL    HW161149   1.609   4.440   5.957 -1.7150  2.5896 -1.6320
19248SOL    HW261150   1.473   4.375   5.968 -0.7510  0.7971  0.0336
19249SOL     OW61151   8.192   6.605   4.772 -0.4185  0.0977 -0.4467
19249SOL    HW161152   8.143   6.526   4.747  0.6725 -0.8414  0.3002
19249SOL    HW261153   8.221   6.643   4.690  1.2339 -1.7196 -0.7401
19250SOL     OW61154   2.058   9.873   2.320 -0.1244 -0.4190 -0.3617
19250SOL    HW161155   2.048   9.912   2.233 -0.2344 -0.9863 -0.6036
19250SOL    HW261156   2.085   9.783   2.303  0.0324 -0.4751  0.1963
19251SOL     OW61157   5.054   6.283   6.896 -0.3617  0.3489  0.3101
19251SOL    HW161158   5.080   6.238   6.977  0.5236  0.0908 -0.1072
19251SOL    HW261159   5.132   6.331   6.870 -0.0396 -1.0223 -1.3628
19252SOL     OW61160   7.629   9.338   9.370  0.3169 -0.0202  0.2224
19252SOL    HW161161   7.685   9.283   9.425 -0.2237  0.0662  0.8730
19252SOL    HW261162   7.617   9.287   9.290 -1.0445 -1.3400  1.2428
19253SOL     OW61163   6.889   5.237   2.020 -0.0774  0.5086 -0.0383
19253SOL    HW161164   6.810   5.197   2.054  0.1130  0.3869  0.2669
19253SOL    HW261165   6.946   5.247   2.097 -0.0658  1.2287 -0.1316
19254SOL     OW61166   9.583   0.965   3.809 -0.0557 -0.1875  0.0987
19254SOL    HW161167   9.636   0.885   3.816 -1.2947 -1.1544 -1.2635
19254SOL    HW261168   9.542   0.959   3.723 -1.7281  0.9417  0.7948
19255SOL     OW61169   4.192   2.085   0.633 -0.1565  1.1910 -0.3112
19255SOL    HW161170   4.212   2.004   0.680 -1.9279  0.7865 -0.2258
19255SOL    HW261171   4.186   2.058   0.541 -1.6130  1.0657 -0.1769
19256SOL     OW61172   1.255   2.487   2.808  0.0715  0.5634  0.2272
19256SOL    HW161173   1.296   2.420   2.753 -0.2342  0.2405  0.3959
19256SOL    HW261174   1.317   2.499   2.881  0.9695  1.7218 -0.7069
19257SOL     OW61175   7.069   0.544   0.614  0.0066  0.0349 -0.0453
19257SOL    HW161176   7.005   0.546   0.684  2.3281 -1.3167  2.1934
19257SOL    HW261177   7.032   0.484   0.549 -0.5533 -1.5013  1.6693
19258SOL     OW61178   1.520   2.738   3.020  0.1031  0.4462 -0.3005
19258SOL    HW161179   1.591   2.755   3.082  0.0357  0.2932 -0.1816
19258SOL    HW261180   1.456   2.808   3.038 -0.1564  0.0911  0.1640
19259SOL     OW61181   2.919   7.591   4.264 -0.2461 -0.1365 -0.0284
19259SOL    HW161182   2.830   7.561   4.280 -0.3839  1.1119  1.5887
19259SOL    HW261183   2.914   7.634   4.178 -0.8306 -1.4809 -0.6825
19260SOL     OW61184  10.868   0.259   5.945  0.0932  0.0870 -0.3623
19260SOL    HW161185  10.782   0.265   5.905 -1.0161  1.8250  2.1722
19260SOL    HW261186  10.869   0.173   5.988 -1.7572  1.4136  2.5069
19261SOL     OW61187   4.315   9.341   4.654  0.2228  0.3475  0.3087
19261SOL    HW161188   4.302   9.435   4.663 -2.6377  0.1677 -1.4560
19261SOL    HW261189   4.270   9.302   4.729 -0.0566  0.3041  0.1202
19262SOL     OW61190   0.062   0.032   3.497  0.2837  0.6224 -0.9008
19262SOL    HW161191   0.027   0.057   3.412 -0.8894 -0.7363 -0.8361
19262SOL    HW261192   0.001   0.070   3.560  0.6116  0.8043 -0.6923
19263SOL     OW61193   4.945   8.947   0.546 -0.3534  0.1155  0.3114
19263SOL    HW161194   5.019   8.962   0.605 -0.6549 -1.4867  1.1193
19263SOL    HW261195   4.983   8.897   0.473  0.0007  2.0207 -0.8463
19264SOL     OW61196   3.496   6.923   0.626  0.1815 -0.1181  0.1183
19264SOL    HW161197   3.493   6.930   0.530 -0.0450  1.8446  0.2431
19264SOL    HW261198   3.409   6.951   0.654  0.5478  0.2155  0.9331
19265SOL     OW61199   0.355   4.870   9.916 -0.4678 -0.4369  0.3785
19265SOL    HW161200   0.293   4.895   9.847 -0.3185 -0.6989  0.1505
19265SOL    HW261201   0.350   4.775   9.920 -0.1254 -0.4554  0.4028
19266SOL     OW61202   8.353   1.384   2.086 -0.1202 -0.1263 -0.1738
19266SOL    HW161203   8.320   1.362   1.999  0.7581  0.0790 -0.5592
19266SOL    HW261204   8.444   1.357   2.086  0.5244  1.9289 -0.0989
19267SOL     OW61205   1.139   0.392   3.136 -0.1126  0.0038 -0.4086
19267SOL    HW161206   1.173   0.473   3.175  0.2233 -0.0333 -0.6198
19267SOL    HW261207   1.045   0.407   3.129  0.0623  0.7265 -1.2721
19268SOL     OW61208   4.982   8.442   0.116 -0.3523  0.3340  0.2058
19268SOL    HW161209   4.959   8.352   0.139  0.3404  0.1909  0.3694
19268SOL    HW261210   5.025   8.476   0.194  0.0553  0.5591 -0.1113
19269SOL     OW61211   4.006   9.742   2.511  0.5529  0.0322 -0.2000
19269SOL    HW161212   4.096   9.758   2.481  0.2806 -0.3544 -1.2380
19269SOL    HW261213   4.015   9.674   2.578  1.3553  2.1081  1.8695
19270SOL     OW61214  10.683   1.351   9.625  0.0651  0.0022  0.1119
19270SOL    HW161215  10.643   1.264   9.626 -0.3978  0.2211  1.3154
19270SOL    HW261216  10.686   1.378   9.717  0.7972  0.9914 -0.1870
19271SOL     OW61217   0.736   4.105   6.168 -0.2367 -0.9799  0.1021
19271SOL    HW161218   0.741   4.108   6.263 -2.6316 -2.3008  0.3023
19271SOL    HW261219   0.798   4.172   6.139  0.8882 -0.9049  2.5597
19272SOL     OW61220   9.483   8.931   2.540 -0.5387  0.1446  0.1741
19272SOL    HW161221   9.413   8.915   2.603 -0.1163  2.9976  1.4765
19272SOL    HW261222   9.512   9.020   2.559  3.6592 -1.0373 -0.1206
19273SOL     OW61223   3.094   4.446   4.936  0.5199 -0.0916 -0.3456
19273SOL    HW161224   3.175   4.496   4.931  0.7199 -0.2969  0.6888
19273SOL    HW261225   3.027   4.502   4.897  0.9480  0.5429 -0.1667
19274SOL     OW61226   3.752   3.208   5.104 -0.6496 -0.4527 -0.1979
19274SOL    HW161227   3.766   3.185   5.012 -2.1005  0.7456 -0.7317
19274SOL    HW261228   3.759   3.124   5.150  2.7647 -0.6992 -1.0326
19275SOL     OW61229   2.992   3.957   0.053 -0.5753  0.5585  0.6803
19275SOL    HW161230   3.035   3.905   0.121 -0.8013  0.9866  1.1487
19275SOL    HW261231   2.980   4.043   0.092 -0.1974  0.9717 -0.1020
19276SOL     OW61232   4.337   1.690   5.531 -0.2081 -0.2625  0.2722
19276SOL    HW161233   4.274   1.637   5.580 -0.4257 -0.7737 -0.5512
19276SOL    HW261234   4.376   1.630   5.468  4.1897 -1.0115  3.4923
19277SOL     OW61235   5.069   0.086   6.362 -0.2020 -0.1242 -0.2703
19277SOL    HW161236   5.121   0.047   6.432 -0.1279  1.2771  0.4741
19277SOL    HW261237   5.126   0.080   6.285  0.1341 -0.7219  0.0163
19278SOL     OW61238   2.233   3.054   4.391 -0.0172 -0.2854  0.1247
19278SOL    HW161239   2.194   2.981   4.439 -0.8497  0.8028  1.1042
19278SOL    HW261240   2.185   3.131   4.420  0.5182  0.5975 -1.2927
19279SOL     OW61241   5.557   1.569   1.167 -0.1602 -0.1096  0.1631
19279SOL    HW161242   5.502   1.586   1.091 -3.2850 -0.8575  2.1629
19279SOL    HW261243   5.509   1.607   1.241  2.7701  0.5787  1.7977
19280SOL     OW61244   4.271   7.436  10.038 -0.3904 -0.2014 -0.2565
19280SOL    HW161245   4.246   7.390   9.958 -2.2283  0.1276  0.1014
19280SOL    HW261246   4.357   7.401  10.060 -1.3104 -2.7771 -0.5359
19281SOL     OW61247   2.045   5.116   9.024  0.6148  0.0074 -0.2083
19281SOL    HW161248   2.104   5.187   8.996 -1.1943  0.7856 -2.1730
19281SOL    HW261249   1.962   5.159   9.040  0.1585 -1.3221  1.0792
19282SOL     OW61250   4.123   2.009   0.387 -0.3005 -0.3616 -0.1748
19282SOL    HW161251   4.133   1.914   0.383  0.3759 -0.2640 -1.0410
19282SOL    HW261252   4.066   2.030   0.314 -1.8086 -0.2578  1.0091
19283SOL     OW61253   7.667   1.680   8.651 -0.0727 -0.4155  0.2459
19283SOL    HW161254   7.646   1.720   8.567 -0.3972  0.0707  0.5562
19283SOL    HW261255   7.595   1.620   8.668 -1.6228  1.7315  1.6197
19284SOL     OW61256   4.213   6.459   5.457  0.2852  0.3364  0.0918
19284SOL    HW161257   4.254   6.396   5.517  0.1655  0.6498  0.5058
19284SOL    HW261258   4.277   6.472   5.388 -0.0926 -1.0153 -0.5370
19285SOL     OW61259   3.799   4.047   1.225 -0.7209 -0.4737 -0.4541
19285SOL    HW161260   3.766   3.993   1.298  1.2001 -1.3032 -0.1852
19285SOL    HW261261   3.725   4.052   1.164 -2.4605  0.4440  1.6359
19286SOL     OW61262   4.559   0.641   1.517  0.2565  0.0944  0.2296
19286SOL    HW161263   4.619   0.578   1.556 -0.1640 -0.3818  0.1179
19286SOL    HW261264   4.542   0.607   1.429 -0.2659  0.1596  0.3038
19287SOL     OW61265   5.905   3.772   9.386  0.0535 -0.2620 -0.4023
19287SOL    HW161266   5.922   3.710   9.315 -1.8176  0.2866 -1.3865
19287SOL    HW261267   5.890   3.855   9.341 -2.4446 -0.1706  0.5231
19288SOL     OW61268   5.984   2.449   8.300 -0.1354  0.1798 -0.3978
19288SOL    HW161269   5.945   2.461   8.387  1.0050 -0.8376  0.2808
19288SOL    HW261270   6.064   2.398   8.317  1.4212  2.1107 -1.7449
19289SOL     OW61271   7.582   8.674   1.940  0.7317 -0.2492 -0.0102
19289SOL    HW161272   7.574   8.638   1.851  0.2855  1.8763 -0.8756
19289SOL    HW261273   7.584   8.769   1.927  1.3002  0.0748  2.2229
19290SOL     OW61274   6.589   8.579   6.623 -0.6925  0.0984 -0.3451
19290SOL    HW161275   6.579   8.674   6.626  0.2579  0.1619  1.8364
19290SOL    HW261276   6.564   8.549   6.711 -0.5152 -1.6221 -0.8520
19291SOL     OW61277   4.465  10.366   2.272 -0.1965 -0.5878  0.2037
19291SOL    HW161278   4.483  10.290   2.217 -0.0404 -1.0521  0.8932
19291SOL    HW261279   4.452  10.438   2.210  1.5035 -0.7686 -0.3982
19292SOL     OW61280   2.165   7.952   3.336 -0.2672 -0.1443 -0.7321
19292SOL    HW161281   2.082   7.937   3.291 -0.3319  0.4404 -0.8037
19292SOL    HW261282   2.206   8.024   3.288  0.1344 -0.2162 -0.4977
19293SOL     OW61283   1.206   3.098   5.485  0.6356 -0.4418  0.0958
19293SOL    HW161284   1.144   3.085   5.557 -1.7566  0.4319 -1.7821
19293SOL    HW261285   1.267   3.163   5.518 -0.9912  0.6566  1.0000
19294SOL     OW61286   8.545   4.409   9.908 -0.3321  0.3926 -0.0162
19294SOL    HW161287   8.565   4.390   9.999 -0.9810 -0.9976 -0.1390
19294SOL    HW261288   8.534   4.504   9.904  0.5033  0.5461  1.1752
19295SOL     OW61289   7.077   8.613   2.618  0.0031 -0.4337  0.2865
19295SOL    HW161290   7.093   8.670   2.543 -0.0420 -0.0213  0.5822
19295SOL    HW261291   7.121   8.531   2.597  0.7253 -0.0188  0.1925
19296SOL     OW61292  10.215   5.583   9.015 -0.2331  0.1462 -0.5613
19296SOL    HW161293  10.191   5.675   9.024  0.1081  0.1475  0.4141
19296SOL    HW261294  10.241   5.573   8.924 -4.0420  0.1287 -1.7306
19297SOL     OW61295   1.543   9.958   1.318 -0.7864 -0.1427  0.1903
19297SOL    HW161296   1.537   9.923   1.229  1.2182  0.4154 -0.2083
19297SOL    HW261297   1.479   9.908   1.368 -2.7922  0.3535 -1.8117
19298SOL     OW61298  10.523  10.147   4.903 -0.4125  0.1399 -0.6111
19298SOL    HW161299  10.528  10.069   4.958 -1.0233  0.9400  0.6046
19298SOL    HW261300  10.455  10.126   4.838 -0.0696 -0.6035 -0.7371
19299SOL     OW61301   7.990   3.796   4.499 -0.3757  0.3819 -0.0433
19299SOL    HW161302   7.994   3.865   4.565  0.6974 -0.4495  0.7842
19299SOL    HW261303   8.077   3.794   4.460 -0.2315 -0.8391  0.3055
19300SOL     OW61304   8.085  10.552   4.251 -0.3571  0.1136  0.1438
19300SOL    HW161305   8.012  10.584   4.199 -1.3833 -2.1583  0.1183
19300SOL    HW261306   8.067  10.581   4.340 -0.5232  0.8107 -0.1168
19301SOL     OW61307   9.226   0.168  10.322  0.3205 -0.2038 -0.0408
19301SOL    HW161308   9.320   0.183  10.321  0.7378 -2.7656 -1.9546
19301SOL    HW261309   9.215   0.084  10.366 -0.9481 -0.6898 -1.2621
19302SOL     OW61310   5.504   3.788   2.345 -0.0370 -0.2850  0.3532
19302SOL    HW161311   5.472   3.878   2.334 -2.3068 -1.1556 -0.5862
19302SOL    HW261312   5.504   3.774   2.440  0.2491  0.6691  0.5010
19303SOL     OW61313   7.772   8.128   3.590  0.0935 -0.1164  0.5182
19303SOL    HW161314   7.727   8.052   3.628 -0.9981  0.7746  1.0171
19303SOL    HW261315   7.794   8.183   3.665 -0.3223  0.7138  0.0374
19304SOL     OW61316   8.358   2.379   8.226 -0.1168  0.1401  0.3647
19304SOL    HW161317   8.270   2.414   8.215 -0.1154  0.1640  0.4299
19304SOL    HW261318   8.414   2.437   8.175 -0.1265  0.1819  0.4006
19305SOL     OW61319   5.366   5.410   8.250 -0.1940  0.1204 -0.1913
19305SOL    HW161320   5.357   5.500   8.219 -0.3192  0.3201  0.4199
19305SOL    HW261321   5.278   5.385   8.279  0.2825  0.5931  1.7711
19306SOL     OW61322   5.579   3.318   6.540  0.2450 -0.1655 -0.4434
19306SOL    HW161323   5.583   3.314   6.635  1.4970 -0.1428 -0.4754
19306SOL    HW261324   5.496   3.361   6.520  0.8366  1.5356  0.6721
19307SOL     OW61325   5.172   1.903   1.399 -0.6551 -0.1769  0.1629
19307SOL    HW161326   5.222   1.976   1.433 -0.8535  0.7446 -1.4998
19307SOL    HW261327   5.215   1.879   1.317 -2.3987  0.0732 -0.8544
19308SOL     OW61328   1.474   2.341   7.768 -0.1067 -0.1760 -0.3184
19308SOL    HW161329   1.489   2.416   7.711 -2.1392  0.6658  0.2066
19308SOL    HW261330   1.542   2.347   7.835  1.2510 -0.2154 -1.6709
19309SOL     OW61331   1.006  10.554   3.942  0.1687 -0.1103 -0.4268
19309SOL    HW161332   0.921  10.521   3.969 -1.0966  2.5471 -1.0105
19309SOL    HW261333   1.006  10.646   3.968  1.7716  0.6435 -2.8794
19310SOL     OW61334   6.894   8.221   9.988  0.0504  0.0168 -0.0732
19310SOL    HW161335   6.864   8.144   9.940  1.3080 -1.7532  1.8799
19310SOL    HW261336   6.816   8.253  10.033 -0.1570 -1.1395  0.4210
19311SOL     OW61337   5.790   6.778   3.884 -0.2761  0.4859 -0.3411
19311SOL    HW161338   5.864   6.763   3.825  0.1943  1.3624  0.0066
19311SOL    HW261339   5.802   6.714   3.954 -1.4741 -1.3270 -1.7643
19312SOL     OW61340   8.383   2.982   1.463  0.1398 -0.3921 -0.1019
19312SOL    HW161341   8.440   3.032   1.522 -0.2641 -0.5971  0.4641
19312SOL    HW261342   8.360   3.044   1.394  0.1865  0.0029  0.2368
19313SOL     OW61343   4.691   6.092   8.356 -0.2890  0.3196  0.7851
19313SOL    HW161344   4.717   6.000   8.356 -0.5622  0.2334 -0.1755
19313SOL    HW261345   4.736   6.129   8.280  0.0142  1.0330  1.3107
19314SOL     OW61346   9.996   1.258   3.497 -0.2265  0.1018  0.5985
19314SOL    HW161347   9.931   1.314   3.455 -0.1457  0.2488  0.6703
19314SOL    HW261348  10.031   1.204   3.426  1.9484  2.2952 -0.0629
19315SOL     OW61349   5.067   7.359   3.410  0.1101 -0.1162  0.1724
19315SOL    HW161350   5.063   7.324   3.321 -0.6649  1.9934 -0.6539
19315SOL    HW261351   5.064   7.281   3.466  2.2433 -1.5735 -1.6385
19316SOL     OW61352   0.377   3.364  10.660 -0.1258  0.4013 -0.0616
19316SOL    HW161353   0.319   3.316  10.601 -0.9935 -0.4257  1.4579
19316SOL    HW261354   0.343   3.347  10.747  0.7518  2.1652  0.6546
19317SOL     OW61355   7.644   6.715   1.235  0.3768  0.1240  0.1071
19317SOL    HW161356   7.567   6.761   1.268  0.1688 -0.4740  0.4666
19317SOL    HW261357   7.654   6.639   1.293  1.0483  0.0247 -0.1295
19318SOL     OW61358   5.501   7.712   9.479 -0.3495 -0.2441 -0.4493
19318SOL    HW161359   5.477   7.657   9.404 -1.1416  0.4464 -0.7001
19318SOL    HW261360   5.597   7.708   9.480 -0.2473  0.8924 -2.3808
19319SOL     OW61361   8.564   9.518   7.964  0.1882 -0.1983  0.0657
19319SOL    HW161362   8.598   9.495   7.877 -0.0753 -1.0114  0.1757
19319SOL    HW261363   8.588   9.610   7.975 -0.1526  0.0356 -1.0510
19320SOL     OW61364   8.719   1.799   6.626  0.3187  0.4478  0.1260
19320SOL    HW161365   8.657   1.871   6.611  1.2880  0.7284 -2.8508
19320SOL    HW261366   8.804   1.843   6.636  0.7240 -0.2028 -0.4458
19321SOL     OW61367   6.269  10.244   8.071 -0.2359 -0.2765  0.3779
19321SOL    HW161368   6.291  10.323   8.021 -1.1384 -0.6004 -0.5711
19321SOL    HW261369   6.211  10.275   8.140 -1.0358 -0.1759 -0.3279
19322SOL     OW61370   9.842  10.204  10.796 -0.7979  0.3748  0.8355
19322SOL    HW161371   9.929  10.238  10.776 -0.8138  0.6154  1.1743
19322SOL    HW261372   9.787  10.282  10.802 -1.0754  0.2129  0.4412
19323SOL     OW61373   7.044   3.414   4.885 -0.9491 -0.5542 -0.5306
19323SOL    HW161374   7.035   3.343   4.949 -1.1913 -1.0341 -1.1003
19323SOL    HW261375   7.030   3.494   4.936 -1.3033 -0.9452 -0.0154
19324SOL     OW61376   6.699   5.161   6.048  0.1651  0.6804 -0.0265
19324SOL    HW161377   6.775   5.198   6.003  1.3088 -0.6107  0.8084
19324SOL    HW261378   6.721   5.167   6.141 -0.6406  0.0761  0.2104
19325SOL     OW61379   1.238   1.063   8.062 -0.1091 -0.2563  0.2750
19325SOL    HW161380   1.320   1.071   8.111  0.1779 -1.7469  0.0517
19325SOL    HW261381   1.190   1.143   8.084  2.2575  1.6374 -1.2359
19326SOL     OW61382   0.146   8.813   7.283  0.0953  0.1021  0.0200
19326SOL    HW161383   0.138   8.802   7.188  0.4012  3.0070 -0.4115
19326SOL    HW261384   0.216   8.754   7.309  0.8957  0.2137 -1.7924
19327SOL     OW61385   2.508   2.665   1.531 -0.2300 -0.2134  0.2103
19327SOL    HW161386   2.456   2.686   1.609 -0.6052  0.0450 -0.1066
19327SOL    HW261387   2.507   2.569   1.526 -0.2162 -0.2287  0.5154
19328SOL     OW61388   2.637   9.854  10.170  0.2297 -0.1525 -0.0619
19328SOL    HW161389   2.651   9.769  10.128  2.6723  0.2860 -0.2317
19328SOL    HW261390   2.587   9.904  10.106  0.4059 -0.8503 -0.7556
19329SOL     OW61391   0.243   2.488   4.181  0.7507 -0.0476 -0.2371
19329SOL    HW161392   0.186   2.547   4.131  0.3518  1.4985  1.9499
19329SOL    HW261393   0.193   2.406   4.186 -0.0013  0.3623 -0.8048
19330SOL     OW61394   7.998   8.948   3.875  0.7595 -1.1706 -0.1774
19330SOL    HW161395   8.023   8.967   3.966  0.6435 -0.3946 -0.2989
19330SOL    HW261396   8.073   8.976   3.823  0.0475  0.2707 -0.4659
19331SOL     OW61397   5.547   0.828   7.819  0.8200  0.3724  0.3373
19331SOL    HW161398   5.588   0.893   7.876  0.8601 -0.4291  1.2391
19331SOL    HW261399   5.496   0.773   7.878 -0.8669  0.8294 -0.6683
19332SOL     OW61400   2.126   9.315   7.103 -0.2797  0.3236 -0.0345
19332SOL    HW161401   2.068   9.247   7.070  0.2610 -0.3739  0.4217
19332SOL    HW261402   2.068   9.377   7.147 -0.5844 -1.0601  1.5967
19333SOL     OW61403   4.192   4.044   8.989  0.1929  0.3684 -0.6600
19333SOL    HW161404   4.264   3.998   8.946  0.1212 -1.6984  1.3088
19333SOL    HW261405   4.136   4.074   8.918  2.1743  0.6373 -2.1435
19334SOL     OW61406   6.324   9.468   4.071  0.1853  0.0341 -0.0170
19334SOL    HW161407   6.280   9.547   4.041  0.5795  0.0008 -0.7021
19334SOL    HW261408   6.308   9.465   4.165 -0.0551  0.7874 -0.0342
19335SOL     OW61409   5.483   4.088   7.002  0.3332 -0.1155 -0.1320
19335SOL    HW161410   5.564   4.137   6.988  1.2200 -0.6920  2.7997
19335SOL    HW261411   5.432   4.141   7.063  0.3241 -1.7016  1.2955
19336SOL     OW61412   0.315   8.329   8.922  0.2453 -0.0472 -0.7605
19336SOL    HW161413   0.370   8.289   8.990 -0.6007  0.5509  0.3025
19336SOL    HW261414   0.377   8.371   8.863  0.9991 -0.5182 -0.3192
19337SOL     OW61415   6.567   8.563   4.073  0.4958 -0.0576  0.4347
19337SOL    HW161416   6.628   8.630   4.043  1.0490 -1.5384 -1.8787
19337SOL    HW261417   6.615   8.514   4.140  0.9687  0.3267  0.3773
19338SOL     OW61418   8.220   2.467   8.703  0.5227  0.2938  0.8475
19338SOL    HW161419   8.209   2.434   8.792 -0.9093 -0.3114  0.4488
19338SOL    HW261420   8.227   2.389   8.649  1.7049  0.6579  0.4523
19339SOL     OW61421   2.891   9.294   2.558 -0.4107 -0.4122 -0.2968
19339SOL    HW161422   2.964   9.354   2.544 -1.3987  0.7848 -0.3765
19339SOL    HW261423   2.875   9.256   2.472 -0.8732  0.4793 -0.6110
19340SOL     OW61424   7.327   9.383   6.593  0.0046 -0.7065 -0.5125
19340SOL    HW161425   7.282   9.363   6.675 -2.4989  3.0459 -0.8311
19340SOL    HW261426   7.409   9.424   6.620 -1.2294  1.3946  0.2369
19341SOL     OW61427   3.997   1.922   5.894 -0.1737  0.1546  0.3050
19341SOL    HW161428   3.954   1.866   5.829  0.5360 -0.3559  0.2572
19341SOL    HW261429   3.991   1.873   5.976  1.0689 -0.3362  0.1233
19342SOL     OW61430   0.037   8.414   5.190 -0.1433  0.3539 -0.1956
19342SOL    HW161431   0.089   8.490   5.163 -0.8507  1.5866  1.8264
19342SOL    HW261432   0.007   8.376   5.108 -0.3366  2.6665 -1.2390
19343SOL     OW61433   7.641   3.843   7.999  0.1034  0.2979 -0.3929
19343SOL    HW161434   7.721   3.829   8.048 -0.2649 -2.1094 -0.4561
19343SOL    HW261435   7.663   3.913   7.937  2.7683 -1.7595 -1.8413
19344SOL     OW61436   9.799   2.224   2.023 -0.1562  0.2358 -0.2946
19344SOL    HW161437   9.815   2.129   2.027  2.1469  0.6112  0.1658
19344SOL    HW261438   9.768   2.239   1.934  2.6234 -0.5461 -1.4612
19345SOL     OW61439  10.311   4.499  10.213  0.9016  0.0191  0.0329
19345SOL    HW161440  10.282   4.568  10.273  0.6925  0.8051 -0.9516
19345SOL    HW261441  10.387   4.461  10.256  0.9060  0.7408  0.6855
19346SOL     OW61442   1.744   2.787   3.141 -0.2146 -0.2020  0.2338
19346SOL    HW161443   1.797   2.836   3.204 -0.6008  1.8362 -1.0114
19346SOL    HW261444   1.806   2.724   3.103  0.7301  0.5247  0.5299
19347SOL     OW61445   0.074   5.383   2.916  0.3383 -0.2835  0.1430
19347SOL    HW161446   0.058   5.337   2.998 -0.2205  0.4879  0.4655
19347SOL    HW261447   0.020   5.462   2.921 -2.5128 -1.9678 -2.5135
19348SOL     OW61448   8.548   8.861  10.066  0.7281 -0.1687 -0.0166
19348SOL    HW161449   8.553   8.827  10.155  0.1059 -0.8700 -0.2451
19348SOL    HW261450   8.456   8.885  10.055  0.1642 -2.9056 -1.5073
19349SOL     OW61451   9.005  10.396   2.044 -0.0356 -0.0092  0.1175
19349SOL    HW161452   9.032  10.480   2.006 -1.7837  0.9122  0.8498
19349SOL    HW261453   8.912  10.391   2.026 -0.3134 -0.9213  1.7126
19350SOL     OW61454   3.936   6.454  10.813 -0.3722  0.2543  0.0353
19350SOL    HW161455   3.883   6.532  10.796 -1.9213 -0.4689  1.4151
19350SOL    HW261456   3.968   6.427  10.727 -1.9949  0.8922 -0.7836
19351SOL     OW61457   5.790   9.210   9.443  0.0886  0.2610 -0.1133
19351SOL    HW161458   5.751   9.256   9.517  1.6254  1.6914 -0.1544
19351SOL    HW261459   5.881   9.195   9.469 -0.0512 -1.6221 -0.6408
19352SOL     OW61460   7.992   4.737   6.936  0.2546  0.1401  0.4457
19352SOL    HW161461   7.930   4.684   6.987  0.6050 -0.7924 -0.0880
19352SOL    HW261462   8.066   4.750   6.994  0.7869 -1.1863  0.0861
19353SOL     OW61463   4.179   3.853   5.289  0.1366  0.3100 -0.4219
19353SOL    HW161464   4.126   3.812   5.221  2.9190 -2.0537 -1.2994
19353SOL    HW261465   4.202   3.781   5.349  2.0377  1.2841  0.0914
19354SOL     OW61466   2.085  10.868   6.752 -0.2301  0.0816  0.2871
19354SOL    HW161467   2.030  10.796   6.724  0.5738  0.1077 -1.3911
19354SOL    HW261468   2.175  10.839   6.735  0.1044  1.4662 -0.4535
19355SOL     OW61469   3.411   5.786   9.390  0.2156 -0.0807 -0.3950
19355SOL    HW161470   3.368   5.723   9.448  1.2342 -0.2196  0.2297
19355SOL    HW261471   3.350   5.860   9.386 -1.9764 -1.9442 -2.8479
19356SOL     OW61472  10.669   3.637   0.825 -0.3743  0.1646  0.1149
19356SOL    HW161473  10.747   3.584   0.841  0.8715  1.7848 -0.3387
19356SOL    HW261474  10.618   3.586   0.762  0.0936 -1.1292  0.7694
19357SOL     OW61475   8.196   4.169   0.327  0.2733  0.0601  0.3207
19357SOL    HW161476   8.212   4.119   0.247  0.7281 -0.6346  0.8443
19357SOL    HW261477   8.168   4.104   0.391 -4.1333  1.1149 -0.3761
19358SOL     OW61478  10.507   5.020   5.539  0.1772  0.0960  0.0636
19358SOL    HW161479  10.485   5.026   5.632 -1.1289  0.4196 -0.2598
19358SOL    HW261480  10.435   4.971   5.500 -0.0476  1.2663 -1.0365
19359SOL     OW61481   0.294   8.016  10.691  0.2263 -0.5025 -0.3642
19359SOL    HW161482   0.350   8.074  10.640 -1.4305  1.8715  0.4235
19359SOL    HW261483   0.221   7.994  10.633  0.2791 -0.9074 -0.2847
19360SOL     OW61484   3.699   6.390  10.282  0.4672  0.2297 -0.0042
19360SOL    HW161485   3.682   6.439  10.363  0.2138 -2.4600  1.6346
19360SOL    HW261486   3.787   6.355  10.294  0.2829 -0.4857 -0.7016
19361SOL     OW61487   0.249   5.276   8.212  0.3039 -0.2791 -0.2817
19361SOL    HW161488   0.217   5.342   8.273 -1.2377 -2.2029  1.0545
19361SOL    HW261489   0.170   5.241   8.171  1.0116 -2.0359 -0.1735
19362SOL     OW61490   8.217   4.917   2.881 -0.5135  0.1151 -0.0173
19362SOL    HW161491   8.262   4.893   2.800  0.3417  1.9091 -0.0945
19362SOL    HW261492   8.166   4.994   2.859 -2.8030 -1.2226  0.3695
19363SOL     OW61493   5.647   8.733   3.705 -0.0941  0.0671 -0.0072
19363SOL    HW161494   5.734   8.726   3.744 -0.6408 -0.1733  1.1813
19363SOL    HW261495   5.643   8.822   3.671  0.5979  0.0956 -0.0084
19364SOL     OW61496   8.337   9.146   3.044  0.2636  0.4236  0.1676
19364SOL    HW161497   8.242   9.141   3.047  0.1593  2.1666  0.4439
19364SOL    HW261498   8.367   9.070   3.094 -1.0152  1.1505  2.1005
19365SOL     OW61499   2.214   8.363   1.287  0.6972 -0.1940 -0.4994
19365SOL    HW161500   2.166   8.445   1.285 -0.2034 -0.7098 -0.2118
19365SOL    HW261501   2.305   8.388   1.268  0.4035  0.8363 -0.5771
19366SOL     OW61502  10.338  10.528   0.156  0.6162  0.3096  0.1219
19366SOL    HW161503  10.277  10.574   0.098 -0.0367 -0.0389  0.5231
19366SOL    HW261504  10.289  10.451   0.185  1.0751  0.2832  0.8324
19367SOL     OW61505   7.797   8.117   8.194  0.5949 -0.1263  0.2026
19367SOL    HW161506   7.804   8.122   8.099 -1.0238  1.4464  0.1461
19367SOL    HW261507   7.887   8.106   8.224  1.3671  1.6019 -1.3865
19368SOL     OW61508   6.777  10.388   5.898 -0.4111 -0.1743  0.5592
19368SOL    HW161509   6.798  10.304   5.856  1.1063  0.2149  0.5112
19368SOL    HW261510   6.689  10.375   5.934 -1.3251 -0.8904 -1.7872
19369SOL     OW61511   4.941   5.627   7.554  0.4960  0.5074  0.6589
19369SOL    HW161512   4.891   5.560   7.601 -0.1169  1.0179  0.7411
19369SOL    HW261513   5.005   5.578   7.503 -0.1962 -0.1660  0.4305
19370SOL     OW61514   4.092   4.939   9.955  0.0430 -0.4883 -0.2861
19370SOL    HW161515   4.173   4.987   9.977  0.3427 -0.7611 -0.7982
19370SOL    HW261516   4.050   4.925  10.040 -0.4552  1.3842 -0.1943
19371SOL     OW61517   4.417   1.548   4.586 -0.5515 -0.4728 -0.5524
19371SOL    HW161518   4.504   1.573   4.556 -0.2979 -1.1663 -0.4091
19371SOL    HW261519   4.361   1.557   4.509 -0.3426 -0.1015 -0.6632
19372SOL     OW61520   8.554   8.580   3.786  0.0150 -0.0317  0.0507
19372SOL    HW161521   8.563   8.485   3.780  0.2174 -0.1597  2.0293
19372SOL    HW261522   8.644   8.613   3.794 -0.0844  0.2629 -0.0275
19373SOL     OW61523   1.424   0.693   8.087 -0.1955 -0.7427  0.6189
19373SOL    HW161524   1.376   0.741   8.019 -1.8999 -1.3860  1.3399
19373SOL    HW261525   1.356   0.653   8.141  1.1121  0.2927  3.1205
19374SOL     OW61526   2.263   2.597   6.096 -0.1279  0.5417 -0.1094
19374SOL    HW161527   2.251   2.650   6.175  1.6548 -0.7857  1.0972
19374SOL    HW261528   2.339   2.636   6.053  1.4834 -1.2785  1.0281
19375SOL     OW61529   1.323   4.689   8.632  0.5487  0.7977 -0.0058
19375SOL    HW161530   1.337   4.641   8.714  1.7653 -0.2480 -0.8062
19375SOL    HW261531   1.230   4.674   8.613  1.2248 -2.6379 -1.0445
19376SOL     OW61532   3.565   5.552   2.632  0.5107 -0.6315  0.0242
19376SOL    HW161533   3.512   5.534   2.555 -1.1998  1.6184  0.6447
19376SOL    HW261534   3.634   5.610   2.600  0.2673 -0.3319  0.0502
19377SOL     OW61535   9.236   7.963  10.509  0.1277 -0.3592 -0.6072
19377SOL    HW161536   9.196   7.927  10.429  2.5042 -2.8634 -0.7724
19377SOL    HW261537   9.162   7.986  10.564 -1.5741  0.6141 -3.1839
19378SOL     OW61538   1.364   8.418   2.337  0.2481 -0.7517 -0.7496
19378SOL    HW161539   1.381   8.389   2.247 -0.0739 -3.7149  0.0929
19378SOL    HW261540   1.438   8.384   2.387  0.0498  0.2567  0.2342
19379SOL     OW61541   0.696  10.162   0.929  0.8350 -0.6236  0.7146
19379SOL    HW161542   0.761  10.232   0.934  0.1371  0.1687 -1.0095
19379SOL    HW261543   0.718  10.115   0.849 -0.3842 -0.6883  0.4155
19380SOL     OW61544   6.588   1.804   5.895  0.2025  0.1487 -0.1392
19380SOL    HW161545   6.530   1.729   5.888  0.0283  0.4417 -1.9560
19380SOL    HW261546   6.589   1.843   5.808  1.4261  1.4176  0.4110
19381SOL     OW61547   3.909   1.933   1.437 -0.3970 -0.0929  0.5526
19381SOL    HW161548   3.882   1.871   1.369  2.3303  1.1150 -1.7078
19381SOL    HW261549   3.963   1.881   1.496  0.1415 -0.3594 -0.1694
19382SOL     OW61550   3.064   6.038   0.484 -0.1668  0.2039 -0.7114
19382SOL    HW161551   3.134   6.063   0.424  0.3820 -2.9669 -1.4985
19382SOL    HW261552   3.111   6.001   0.560 -0.8964  2.6168  0.9626
19383SOL     OW61553   5.156   0.434   6.160  0.5549  0.1432 -0.1944
19383SOL    HW161554   5.232   0.474   6.117  1.6527  0.4246  1.9278
19383SOL    HW261555   5.092   0.505   6.166 -0.3203 -0.3674 -2.9301
19384SOL     OW61556   9.412   7.782   5.093  0.0061 -0.3483 -0.4241
19384SOL    HW161557   9.341   7.845   5.086 -1.7091 -2.2888 -0.8443
19384SOL    HW261558   9.436   7.784   5.185 -0.2804  0.6192 -0.3564
19385SOL     OW61559   6.099   1.161   3.022 -0.0039  0.1187  0.5798
19385SOL    HW161560   6.031   1.100   3.052 -0.4341  0.9586  1.3544
19385SOL    HW261561   6.163   1.162   3.093  0.0239  0.5320  0.5507
19386SOL     OW61562   7.818   8.040   5.536 -0.0729 -0.0740  0.6252
19386SOL    HW161563   7.867   7.961   5.514  0.0975  0.3246 -0.4749
19386SOL    HW261564   7.728   8.010   5.550  0.2194 -0.6192  1.2946
19387SOL     OW61565  10.505   4.241   1.343  0.4854 -0.1027  0.0394
19387SOL    HW161566  10.592   4.201   1.339  0.7695  0.5793 -0.5832
19387SOL    HW261567  10.455   4.183   1.401  1.8617  0.4679  1.8238
19388SOL     OW61568   6.793  10.320   2.248  0.3646 -0.6065 -0.2020
19388SOL    HW161569   6.886  10.308   2.268  0.1771 -1.0786  0.4079
19388SOL    HW261570   6.789  10.332   2.153  1.2953  1.6972  0.0141
19389SOL     OW61571   8.983   3.803   8.432  0.3697  0.3151 -0.3425
19389SOL    HW161572   9.054   3.740   8.425 -0.6692 -0.7266 -1.7131
19389SOL    HW261573   8.977   3.843   8.345  0.7692  2.0656  0.3972
19390SOL     OW61574   8.531  10.005   0.068 -0.0694 -0.3873 -0.5379
19390SOL    HW161575   8.586   9.927   0.070  3.1674  1.7821 -0.3332
19390SOL    HW261576   8.505  10.014  -0.024 -0.7342 -1.8290 -0.5052
19391SOL     OW61577  10.345  10.453   0.446  0.0680  0.1580 -0.7549
19391SOL    HW161578  10.365  10.494   0.361 -1.3335  1.3061 -0.5545
19391SOL    HW261579  10.253  10.472   0.460  0.7773  1.7588  2.0154
19392SOL     OW61580   6.388   8.257   9.525 -0.2315 -0.1622  0.0458
19392SOL    HW161581   6.420   8.315   9.456 -0.5902 -0.4051 -0.3192
19392SOL    HW261582   6.430   8.291   9.605  0.4394 -0.0897 -0.3368
19393SOL     OW61583   3.946   3.074   1.609  0.1367 -0.3913 -0.1848
19393SOL    HW161584   3.998   3.079   1.689  0.0415 -0.9425 -0.0842
19393SOL    HW261585   3.930   3.165   1.585 -0.6606 -0.2201  0.9639
19394SOL     OW61586   1.185  10.712   8.390 -0.1066 -0.3506 -0.4823
19394SOL    HW161587   1.192  10.618   8.404 -0.8088 -0.4297 -0.6442
19394SOL    HW261588   1.198  10.724   8.296  0.5938 -0.2203 -0.3717
19395SOL     OW61589   2.880   6.585   6.326 -0.1013 -0.0257  0.3484
19395SOL    HW161590   2.896   6.678   6.305  2.2938 -1.0892 -2.9568
19395SOL    HW261591   2.966   6.544   6.316 -1.5179 -2.9433 -0.1208
19396SOL     OW61592   6.235   5.461   7.362  0.1417  0.4107  0.3864
19396SOL    HW161593   6.232   5.555   7.343 -0.3169  0.6141  1.4400
19396SOL    HW261594   6.183   5.421   7.293  1.7061  0.7624 -1.0384
19397SOL     OW61595   9.869  10.162   4.142  0.1434 -0.2771 -0.2446
19397SOL    HW161596   9.803  10.167   4.210 -1.4952 -1.3321 -1.7153
19397SOL    HW261597   9.883  10.069   4.129  0.8462 -0.0760 -0.9762
19398SOL     OW61598  10.173   2.724   9.665 -0.0730  0.2065 -0.0140
19398SOL    HW161599  10.203   2.814   9.656 -0.5120  0.5156  1.4018
19398SOL    HW261600  10.225   2.688   9.737 -0.9669 -0.1755  0.4547
19399SOL     OW61601   2.543   1.189   9.364 -0.0238  0.0327  0.2970
19399SOL    HW161602   2.630   1.182   9.324 -0.0897  0.6607  0.0371
19399SOL    HW261603   2.496   1.111   9.335 -0.5052  1.1305 -1.9199
19400SOL     OW61604   0.420   0.240   3.246  0.0988  0.2049 -0.4334
19400SOL    HW161605   0.510   0.248   3.213  1.1482 -1.4756  1.8196
19400SOL    HW261606   0.420   0.156   3.293 -3.1111 -0.5644 -1.7064
19401SOL     OW61607   0.918   6.932   9.209 -0.3458 -0.0214  0.1048
19401SOL    HW161608   0.973   6.956   9.285 -0.4880  1.1169 -0.1409
19401SOL    HW261609   0.870   7.012   9.188 -1.6619 -0.8404 -0.0713
19402SOL     OW61610   5.942   8.867   1.749 -0.1251  0.1646  0.1650
19402SOL    HW161611   5.982   8.791   1.791  2.5159 -0.3066 -3.0063
19402SOL    HW261612   5.886   8.830   1.680 -0.8992  1.0400  0.3039
19403SOL     OW61613   4.405   9.579  10.254  0.3914  0.4832 -0.1421
19403SOL    HW161614   4.382   9.660  10.299  0.8698  0.8711 -0.5878
19403SOL    HW261615   4.433   9.608  10.167 -0.9744 -0.2915 -0.8554
19404SOL     OW61616  10.651   1.277  10.185 -0.5224  0.1176 -0.3832
19404SOL    HW161617  10.614   1.235  10.262  0.1127  0.1313 -0.0686
19404SOL    HW261618  10.576   1.293  10.128 -1.2301  1.6044  0.9262
19405SOL     OW61619   7.907   9.613   9.578 -0.3207 -0.0028  0.5875
19405SOL    HW161620   7.909   9.517   9.582 -1.3189 -0.0535  0.2266
19405SOL    HW261621   7.964   9.635   9.504  1.8361 -0.1739  2.1795
19406SOL     OW61622   8.698   3.202   6.104  0.5516 -0.4174  0.3422
19406SOL    HW161623   8.673   3.133   6.043  0.5454 -1.1291  1.1415
19406SOL    HW261624   8.637   3.192   6.177 -0.7001  1.6348 -0.3778
19407SOL     OW61625   2.232   3.623   1.645  0.3700 -0.1985  1.0011
19407SOL    HW161626   2.227   3.563   1.571  1.8829  0.7409  0.1242
19407SOL    HW261627   2.305   3.590   1.698  0.9741  0.6503  0.7042
19408SOL     OW61628   3.480   4.432   0.878  0.5922 -0.4254 -0.1534
19408SOL    HW161629   3.498   4.358   0.821 -2.2581 -0.4041 -1.1602
19408SOL    HW261630   3.458   4.504   0.818 -4.1581 -0.8555  0.8263
19409SOL     OW61631   6.915   5.924   9.462  0.3752  0.0799 -0.5035
19409SOL    HW161632   6.954   5.974   9.390 -0.9633  1.3580 -0.3623
19409SOL    HW261633   6.871   5.989   9.515 -0.0518 -1.0748  0.5706
19410SOL     OW61634   6.061   7.738   3.887  0.1568 -0.0257 -0.1213
19410SOL    HW161635   6.049   7.738   3.793 -1.0230 -1.9108  0.0040
19410SOL    HW261636   5.972   7.748   3.923  0.5641  0.4051  0.7948
19411SOL     OW61637   1.077   2.017   4.304  0.0195 -0.4192  0.0648
19411SOL    HW161638   1.167   2.001   4.273  0.2871 -0.1277  0.6873
19411SOL    HW261639   1.057   2.105   4.273  0.6019  0.2103  1.4381
19412SOL     OW61640   3.059   7.499   0.122 -0.0648 -0.0845 -0.3445
19412SOL    HW161641   2.969   7.528   0.134 -0.6198 -1.4851 -0.9863
19412SOL    HW261642   3.110   7.554   0.181 -1.2019  1.4235 -0.7289
19413SOL     OW61643   5.257   4.331   8.542  0.5622  0.5650  0.4717
19413SOL    HW161644   5.249   4.381   8.623 -0.6926  1.2000 -0.0314
19413SOL    HW261645   5.311   4.386   8.485 -0.0066  0.9083  0.2634
19414SOL     OW61646   9.182   3.369   0.713 -0.1310  0.3223 -0.0455
19414SOL    HW161647   9.156   3.375   0.805 -2.4154 -0.6472 -0.5996
19414SOL    HW261648   9.186   3.276   0.695  0.2143  0.5082 -0.9631
19415SOL     OW61649   9.344   3.097   4.311  0.5604  0.2363  0.2832
19415SOL    HW161650   9.271   3.112   4.250 -0.4215 -1.0574  1.1084
19415SOL    HW261651   9.319   3.145   4.390  0.9023  0.2912  0.3588
19416SOL     OW61652   3.422   8.913   4.571  0.1723  0.0400  0.3028
19416SOL    HW161653   3.510   8.884   4.596 -0.7766 -2.8555  0.4349
19416SOL    HW261654   3.423   9.008   4.586  3.2836  0.0692  0.2355
19417SOL     OW61655  10.383   3.642   1.031  0.2711 -0.0316  0.2064
19417SOL    HW161656  10.440   3.718   1.044  1.5578 -0.8093 -0.8031
19417SOL    HW261657  10.328   3.666   0.957  0.6406 -0.0679 -0.0799
19418SOL     OW61658   4.450   1.455   5.397 -0.2412  0.2776 -0.1496
19418SOL    HW161659   4.377   1.416   5.348 -1.1370  1.8371 -0.0983
19418SOL    HW261660   4.516   1.473   5.330  0.0361 -0.9820 -0.2247
19419SOL     OW61661   2.362   0.848   1.851 -0.8352  0.2757  0.0581
19419SOL    HW161662   2.418   0.920   1.822  0.0817 -0.5336 -0.2257
19419SOL    HW261663   2.295   0.840   1.783  0.3776 -0.5831 -1.0829
19420SOL     OW61664   2.756   5.555   7.473 -0.0097  0.7520  0.0672
19420SOL    HW161665   2.789   5.493   7.537 -0.2825 -0.0151 -0.5210
19420SOL    HW261666   2.834   5.594   7.434  0.2302 -1.0213 -1.2930
19421SOL     OW61667   2.092   2.465   3.321  0.0902  0.5694 -0.2725
19421SOL    HW161668   2.078   2.470   3.415  2.3485 -0.1305  0.1392
19421SOL    HW261669   2.175   2.511   3.306  0.7086 -0.9304 -1.6365
19422SOL     OW61670   1.973   6.996   0.099  0.5227 -0.4962  0.1826
19422SOL    HW161671   2.062   7.027   0.082 -0.0440  1.9965  1.5656
19422SOL    HW261672   1.985   6.915   0.149  2.0269 -2.7176 -3.5108
19423SOL     OW61673   2.742   4.052   9.093 -0.3972 -0.4905 -0.1160
19423SOL    HW161674   2.780   3.964   9.088  1.1922 -0.0021  2.0461
19423SOL    HW261675   2.785   4.101   9.023 -2.7145 -1.9070 -2.5677
19424SOL     OW61676   3.479   8.582   3.754  0.4571  0.5427 -0.7224
19424SOL    HW161677   3.390   8.546   3.752  0.6339  0.0844 -0.3252
19424SOL    HW261678   3.501   8.595   3.662  0.4932 -0.6253 -0.8799
19425SOL     OW61679   7.575   1.153   1.102 -0.1441 -0.2151  0.4646
19425SOL    HW161680   7.488   1.168   1.140 -0.1933 -0.6330  0.5218
19425SOL    HW261681   7.587   1.226   1.041  0.1000  0.6873  1.5804
19426SOL     OW61682   7.863   4.223   9.890 -0.1912 -0.1432  0.1155
19426SOL    HW161683   7.864   4.238   9.795  1.8391  0.6007  0.2242
19426SOL    HW261684   7.895   4.134   9.901  0.6994  0.1803  0.1585
19427SOL     OW61685   7.767   5.159   7.262  0.4545 -0.0481  0.4260
19427SOL    HW161686   7.743   5.249   7.240 -1.1841 -0.6377 -0.3446
19427SOL    HW261687   7.854   5.147   7.225  0.0847  0.7844 -0.7539
19428SOL     OW61688   6.781   9.635   7.600 -1.1643 -0.0358  0.4229
19428SOL    HW161689   6.822   9.551   7.578 -0.5018 -0.1123  1.8981
19428SOL    HW261690   6.689   9.613   7.616 -1.1825 -0.3357 -0.0947
19429SOL     OW61691   2.201   7.368   4.022 -0.2134  0.2601  0.2850
19429SOL    HW161692   2.183   7.427   4.095  0.1443  1.6647 -0.7251
19429SOL    HW261693   2.238   7.425   3.954 -0.6464 -0.9887 -1.0294
19430SOL     OW61694   8.022   5.888   1.024  0.0748  0.3574  0.3772
19430SOL    HW161695   7.985   5.961   0.974  0.2100  0.2694  0.1485
19430SOL    HW261696   8.008   5.912   1.116 -2.5761 -0.7081  0.2872
19431SOL     OW61697   8.854   5.011   9.865 -0.7464 -0.2703  0.1810
19431SOL    HW161698   8.770   4.978   9.835 -1.6116  0.8691  1.2917
19431SOL    HW261699   8.852   5.105   9.846  0.7819 -0.4308 -0.9022
19432SOL     OW61700   7.733   5.954   1.680  0.3332  0.6510 -0.0161
19432SOL    HW161701   7.733   5.903   1.762  2.3244 -1.1208 -1.0828
19432SOL    HW261702   7.773   6.038   1.704  1.8954 -0.2544  0.6133
19433SOL     OW61703   8.891   7.293  10.228 -0.3526  0.1860  0.2478
19433SOL    HW161704   8.958   7.250  10.176 -0.5085  0.1947  0.0418
19433SOL    HW261705   8.929   7.297  10.316 -0.5810 -0.9064  0.3992
19434SOL     OW61706   0.650   2.365   4.126 -0.0597 -0.3613  0.4353
19434SOL    HW161707   0.643   2.442   4.069 -0.2873 -0.0873  0.8312
19434SOL    HW261708   0.741   2.336   4.115 -0.0611 -0.2210  0.0450
19435SOL     OW61709   1.728   8.233   9.043 -0.0076  0.1154  0.1584
19435SOL    HW161710   1.777   8.197   9.116  0.9649  1.5289  0.2226
19435SOL    HW261711   1.794   8.251   8.976 -0.5566  1.1379 -0.1150
19436SOL     OW61712   8.546   5.599   1.838  0.1772  0.7262  0.2781
19436SOL    HW161713   8.543   5.691   1.867 -1.2718  1.1139 -0.9910
19436SOL    HW261714   8.542   5.605   1.742  2.7305 -0.5899  0.0537
19437SOL     OW61715   3.337   7.040   1.041  0.2002 -0.6397  0.6982
19437SOL    HW161716   3.254   6.993   1.032  0.5605 -1.1022 -0.2527
19437SOL    HW261717   3.396   6.976   1.082  0.6332 -0.9567 -0.4096
19438SOL     OW61718  10.587   3.554   9.937 -0.2979 -0.5669  0.0587
19438SOL    HW161719  10.594   3.459   9.932  2.6598 -0.4853  1.1986
19438SOL    HW261720  10.672   3.586   9.905 -0.4825  1.5809  1.5768
19439SOL     OW61721   7.647   2.064   6.038 -0.2527  0.0268 -0.4715
19439SOL    HW161722   7.616   2.046   6.126 -1.0007 -1.1735 -0.9645
19439SOL    HW261723   7.636   2.158   6.027 -1.7446 -0.0612  0.1364
19440SOL     OW61724   2.235   2.681   4.588 -0.1196 -0.2210 -0.4796
19440SOL    HW161725   2.192   2.597   4.575  0.3365 -0.1361 -2.6369
19440SOL    HW261726   2.317   2.674   4.540  0.5481  0.9780  0.4502
19441SOL     OW61727   1.664   1.610   5.956  0.1995 -0.5636 -0.1506
19441SOL    HW161728   1.624   1.664   6.024  1.0762  2.0117 -1.5987
19441SOL    HW261729   1.616   1.631   5.876  0.7977 -1.6560 -0.8164
19442SOL     OW61730   6.287   4.932   6.885 -0.4123  0.5074 -0.1889
19442SOL    HW161731   6.353   4.967   6.825  0.8666  1.0732  1.5046
19442SOL    HW261732   6.233   4.876   6.830  1.6891 -0.2586 -1.5639
19443SOL     OW61733   6.428  10.843   3.481  0.4431 -0.3164  0.1430
19443SOL    HW161734   6.504  10.795   3.448  0.0574 -0.7715 -0.0876
19443SOL    HW261735   6.448  10.935   3.462  0.9997 -0.4221  0.2138
19444SOL     OW61736   0.681   8.818   6.337  0.2083 -0.3544 -0.1755
19444SOL    HW161737   0.642   8.733   6.356  0.0332 -0.2330  0.0096
19444SOL    HW261738   0.678   8.865   6.421 -2.1934  0.8510 -0.9163
19445SOL     OW61739   9.204   3.623   8.371 -0.0952 -0.0463  0.2747
19445SOL    HW161740   9.193   3.532   8.397  1.9073 -0.7128 -1.1319
19445SOL    HW261741   9.299   3.639   8.378 -0.0967  1.1469 -1.9624
19446SOL     OW61742   9.465   5.460   3.639  0.6388 -0.4901 -0.0572
19446SOL    HW161743   9.527   5.520   3.682  0.3483 -0.8017  0.7997
19446SOL    HW261744   9.516   5.421   3.567  0.7571  0.9601 -0.7849
19447SOL     OW61745   8.140   3.108   2.919 -0.6111 -0.1396 -0.6040
19447SOL    HW161746   8.152   3.118   3.013  0.9353 -1.6408 -0.6183
19447SOL    HW261747   8.071   3.043   2.911 -1.7623  1.0448 -0.5300
19448SOL     OW61748   0.483   6.024   7.281  0.4497 -0.2572 -0.0221
19448SOL    HW161749   0.410   6.083   7.265  1.2607  0.8312  0.2184
19448SOL    HW261750   0.548   6.048   7.214  1.5788  0.4572  1.3216
19449SOL     OW61751   2.137   6.002   2.527 -0.5192  0.2097 -0.0442
19449SOL    HW161752   2.054   5.957   2.515 -0.6299 -0.1080  1.7703
19449SOL    HW261753   2.183   5.951   2.594  0.7281  0.9235 -0.3393
19450SOL     OW61754   8.709   9.778   6.675  0.2619 -0.3054 -0.8692
19450SOL    HW161755   8.697   9.763   6.769 -3.3854 -0.9694 -1.3881
19450SOL    HW261756   8.725   9.691   6.639 -2.7248 -0.6604 -1.4188
19451SOL     OW61757   9.518  10.051   5.880  0.5485  0.3383  0.0965
19451SOL    HW161758   9.558  10.102   5.950  2.1742  1.2074 -1.4227
19451SOL    HW261759   9.554   9.962   5.891  1.1039  0.5642  0.1507
19452SOL     OW61760   6.572   5.042   4.332  0.8532 -0.0626  1.0914
19452SOL    HW161761   6.600   5.049   4.241  1.5744  0.6385  1.3554
19452SOL    HW261762   6.578   4.949   4.352 -0.0026 -0.3128  0.2119
19453SOL     OW61763   6.607   6.438   6.114 -0.7641  0.0122 -0.2769
19453SOL    HW161764   6.589   6.531   6.123  0.8297  0.2133  0.9998
19453SOL    HW261765   6.592   6.402   6.202  1.5751 -0.3999 -0.0240
19454SOL     OW61766  10.881   1.610   1.694  0.2155 -0.0452  0.2368
19454SOL    HW161767  10.793   1.631   1.662 -0.1142 -0.6367  0.7419
19454SOL    HW261768  10.893   1.665   1.771  0.1905 -0.1530  0.3175
19455SOL     OW61769   8.547   3.304   3.143  0.0067  0.1092  0.3436
19455SOL    HW161770   8.566   3.218   3.179 -0.6799  0.3854  1.3833
19455SOL    HW261771   8.633   3.343   3.126  0.3180 -0.7080  0.0332
19456SOL     OW61772   8.670   0.090   7.944  0.5131 -0.4135 -0.1580
19456SOL    HW161773   8.690   0.067   8.035  1.3107 -1.5282 -0.6057
19456SOL    HW261774   8.701   0.015   7.893  1.7076  0.9498 -1.4981
19457SOL     OW61775   9.966   3.344   4.962 -0.7658 -0.4314 -0.3580
19457SOL    HW161776   9.921   3.421   4.929 -0.5419  0.4489  1.3090
19457SOL    HW261777  10.014   3.310   4.886  0.2732  1.9017 -0.8246
19458SOL     OW61778   9.099   7.807   4.520  0.1891  0.2438 -0.2867
19458SOL    HW161779   9.063   7.718   4.514  0.9135 -0.1244  0.6606
19458SOL    HW261780   9.071   7.850   4.439 -0.5007 -0.7219 -0.5731
19459SOL     OW61781   1.744   6.229   1.618  0.0559  0.1413  1.0975
19459SOL    HW161782   1.748   6.146   1.666 -0.2302 -0.3119  0.3407
19459SOL    HW261783   1.833   6.264   1.624  0.0365  0.0591  1.9034
19460SOL     OW61784   9.416   3.330   1.015  0.4002  0.3519 -0.0612
19460SOL    HW161785   9.460   3.272   0.952  0.2324  1.0771 -0.8585
19460SOL    HW261786   9.399   3.274   1.091  1.3024 -0.3363 -0.3527
19461SOL     OW61787   0.793   4.869  10.771 -0.5832 -0.3927  0.1379
19461SOL    HW161788   0.867   4.859  10.711  0.5678  0.7973  1.3465
19461SOL    HW261789   0.765   4.779  10.790 -0.0659 -0.8175 -1.0673
19462SOL     OW61790   2.494  10.672  10.562  0.4798  0.1674 -0.3468
19462SOL    HW161791   2.422  10.613  10.584  2.2222 -2.0787 -0.5866
19462SOL    HW261792   2.510  10.656  10.469  1.4136  0.5544 -0.2533
19463SOL     OW61793   2.548   2.754   1.068 -0.1811 -0.0004 -0.2903
19463SOL    HW161794   2.500   2.817   1.122  0.6965 -0.2782  0.8347
19463SOL    HW261795   2.600   2.704   1.131  2.1642  0.7853 -1.5586
19464SOL     OW61796   9.077   1.813   5.284  0.0140 -0.0617  0.3977
19464SOL    HW161797   9.015   1.792   5.214  0.7988  1.8632 -0.9219
19464SOL    HW261798   9.163   1.797   5.245  0.4076 -0.8383  1.5754
19465SOL     OW61799   2.730   8.477   3.312  0.0524 -0.3960  0.2698
19465SOL    HW161800   2.810   8.530   3.319 -0.2221 -0.2501  2.7032
19465SOL    HW261801   2.757   8.390   3.342 -0.9912  0.0006  2.4674
19466SOL     OW61802   6.591   9.189   2.939  0.0209 -0.2281 -0.7131
19466SOL    HW161803   6.655   9.134   2.984 -0.5110  0.4563  0.9507
19466SOL    HW261804   6.637   9.272   2.925  0.0464 -0.2976 -1.0476
19467SOL     OW61805   2.366   1.857   5.741 -0.3244  0.5835  0.1089
19467SOL    HW161806   2.305   1.916   5.785 -1.4896  0.6132 -1.4709
19467SOL    HW261807   2.408   1.808   5.811 -2.1981  0.5523  1.2374
19468SOL     OW61808   5.168   9.699   7.833  0.2746  0.3737 -0.2617
19468SOL    HW161809   5.216   9.703   7.750 -0.1977  0.7605 -0.5199
19468SOL    HW261810   5.150   9.790   7.855  1.0630  0.3119  0.6671
19469SOL     OW61811  10.459   7.329   3.798 -0.8698  0.2109  0.2369
19469SOL    HW161812  10.425   7.370   3.719  1.3037 -0.0204 -0.8398
19469SOL    HW261813  10.526   7.268   3.767  1.2654  1.4037  2.3495
19470SOL     OW61814   8.509   8.432   0.808 -0.4241  0.5820  0.0913
19470SOL    HW161815   8.471   8.364   0.862 -0.7086 -1.0580 -2.1009
19470SOL    HW261816   8.509   8.510   0.864 -0.7223 -1.0176  2.4029
19471SOL     OW61817   3.316   2.743   1.107 -0.0487 -0.1058  0.0493
19471SOL    HW161818   3.395   2.750   1.161  0.4721 -0.8432 -0.5947
19471SOL    HW261819   3.342   2.779   1.022  1.0329 -4.3668 -1.5998
19472SOL     OW61820   9.111   6.063   4.249  0.7489 -0.3896  0.1623
19472SOL    HW161821   9.142   6.141   4.203 -0.8712 -1.3356 -2.6313
19472SOL    HW261822   9.049   6.023   4.189 -1.3468 -1.7890  3.1354
19473SOL     OW61823   0.282   0.053   1.275  0.0626 -0.0632 -0.5575
19473SOL    HW161824   0.234   0.028   1.354  3.6638 -1.2765  1.3273
19473SOL    HW261825   0.224   0.028   1.203 -2.6411 -0.3203  1.6206
19474SOL     OW61826   6.848   6.869   8.173 -0.8951 -0.0091 -0.0916
19474SOL    HW161827   6.851   6.779   8.139  0.1248 -0.1444  0.3187
19474SOL    HW261828   6.889   6.862   8.260  1.1880  1.2231 -0.9447
19475SOL     OW61829   3.091   3.074   4.815  0.3041 -0.2988  0.4676
19475SOL    HW161830   3.148   3.102   4.744 -0.2875 -0.8826 -0.2396
19475SOL    HW261831   3.089   3.149   4.875  1.4170 -0.1001  0.2579
19476SOL     OW61832   5.656   5.065   9.222 -0.2482 -0.7651 -0.4973
19476SOL    HW161833   5.751   5.068   9.211 -0.1463 -1.4722  0.1077
19476SOL    HW261834   5.642   4.998   9.289 -1.1580 -0.4762 -0.3873
19477SOL     OW61835   4.869   3.849  10.224 -1.2994 -0.1386 -0.3387
19477SOL    HW161836   4.959   3.880  10.224 -0.2722 -2.9678 -0.2231
19477SOL    HW261837   4.864   3.792  10.147 -3.1924  0.5111 -0.7193
19478SOL     OW61838  10.211   9.121  10.499  0.6944  0.2089  0.3871
19478SOL    HW161839  10.201   9.070  10.579  0.3332  0.5339  0.5541
19478SOL    HW261840  10.233   9.209  10.529  0.8920  0.2514  0.1176
19479SOL     OW61841   7.755   7.448   2.213 -0.1527 -0.2604  0.0708
19479SOL    HW161842   7.665   7.451   2.246 -0.2632 -1.3416 -0.1272
19479SOL    HW261843   7.759   7.368   2.161  0.6281  0.3164 -0.7878
19480SOL     OW61844   0.377   8.460   8.090 -0.0889 -0.0968  0.1814
19480SOL    HW161845   0.390   8.540   8.039 -1.2358 -0.3153 -0.4593
19480SOL    HW261846   0.460   8.448   8.137 -0.4839  2.4056  1.6282
19481SOL     OW61847   4.883   2.853   8.159 -0.2954 -0.3268 -0.1122
19481SOL    HW161848   4.874   2.810   8.074  0.9960 -0.4868 -0.1825
19481SOL    HW261849   4.953   2.918   8.146  0.6281 -1.0584  1.0889
19482SOL     OW61850  10.638   7.956   8.613  0.4313 -0.1453  0.3011
19482SOL    HW161851  10.589   7.875   8.625  0.8752 -0.3693  0.5887
19482SOL    HW261852  10.689   7.941   8.533 -0.5894  0.3941 -0.4530
19483SOL     OW61853   1.043   2.582   5.248  0.1742 -0.3733 -0.0779
19483SOL    HW161854   1.015   2.518   5.314  0.5762  2.4973  3.0171
19483SOL    HW261855   0.962   2.614   5.210 -0.2145 -0.0668  0.9872
19484SOL     OW61856   1.649   4.939   8.140  0.6239 -0.5119  0.1267
19484SOL    HW161857   1.654   4.843   8.139  0.0626 -0.5448  0.0808
19484SOL    HW261858   1.614   4.960   8.227  1.2885 -0.3181  0.3464
19485SOL     OW61859  10.642   9.922   9.926 -0.6365  0.4165 -0.7086
19485SOL    HW161860  10.735   9.898   9.924 -0.1342  2.3339 -0.9021
19485SOL    HW261861  10.597   9.840   9.944  1.1827 -0.3134  0.6725
19486SOL     OW61862  10.772   5.305   8.481  0.7262  0.4466  1.1917
19486SOL    HW161863  10.727   5.342   8.406  1.7613  0.3287  0.5088
19486SOL    HW261864  10.803   5.219   8.451 -0.5167 -0.4285  2.3430
19487SOL     OW61865   2.452   8.459   5.033 -0.0223  0.3907  0.0764
19487SOL    HW161866   2.538   8.500   5.037  0.1148  0.0767  0.4166
19487SOL    HW261867   2.453   8.394   5.104 -1.6063  2.4677  2.1048
19488SOL     OW61868   7.514   6.257   4.246  0.4961 -0.1375 -0.3284
19488SOL    HW161869   7.433   6.307   4.244 -0.1888 -1.2621 -2.0010
19488SOL    HW261870   7.540   6.258   4.338 -0.5292  1.6095 -0.0257
19489SOL     OW61871   0.801   9.077   0.280 -0.3792  0.3906  0.5542
19489SOL    HW161872   0.780   9.076   0.187  0.2639 -2.9263  0.3760
19489SOL    HW261873   0.808   9.170   0.302  1.3412  1.2356 -3.1254
19490SOL     OW61874   4.908   5.708   8.558  0.0064  0.1630  0.2072
19490SOL    HW161875   4.886   5.635   8.500  0.2894 -0.5140  0.9415
19490SOL    HW261876   4.968   5.762   8.507 -1.1799  0.5551 -0.7991
19491SOL     OW61877   5.843   1.880   7.034 -0.0774  0.3161 -0.4665
19491SOL    HW161878   5.936   1.857   7.031  0.2484  1.2111  1.7267
19491SOL    HW261879   5.798   1.796   7.026  0.8249  0.0949 -3.8764
19492SOL     OW61880   1.213  10.889  10.375  0.0885  0.4302  0.1481
19492SOL    HW161881   1.232  10.975  10.338  1.2200  0.3783  0.5935
19492SOL    HW261882   1.167  10.908  10.457 -1.6028  0.5606 -0.8068
19493SOL     OW61883   3.205   9.348   1.297  0.5743 -0.1134 -0.5346
19493SOL    HW161884   3.157   9.376   1.374  0.4559  2.1363 -1.3722
19493SOL    HW261885   3.215   9.254   1.307  1.3017  0.2472  2.6357
19494SOL     OW61886  10.897   9.923   0.192 -0.2334 -0.0781 -0.2382
19494SOL    HW161887  10.986   9.905   0.162  0.5626  0.7836  1.5396
19494SOL    HW261888  10.906   9.994   0.256 -1.8827 -1.5518  1.7305
19495SOL     OW61889   8.938   5.860   1.887 -0.2526 -0.3161  0.3360
19495SOL    HW161890   9.023   5.903   1.879 -0.7984  0.9205  0.9433
19495SOL    HW261891   8.951   5.792   1.954  0.1362  0.2060  0.7970
19496SOL     OW61892   7.351   2.053   5.350  0.1258 -0.4220  0.2693
19496SOL    HW161893   7.267   2.098   5.340 -0.7710 -2.2420 -0.6198
19496SOL    HW261894   7.416   2.123   5.346 -1.4559  1.3313  3.6414
19497SOL     OW61895   8.447   8.138   1.322  0.1171  0.0736 -0.1726
19497SOL    HW161896   8.511   8.205   1.299 -1.6712  1.6266 -0.7630
19497SOL    HW261897   8.467   8.115   1.413  0.0022  2.3165  0.4584
19498SOL     OW61898   8.781   6.696   2.701 -0.2183 -0.3481 -0.1582
19498SOL    HW161899   8.833   6.692   2.781 -1.7466 -0.0626  0.8571
19498SOL    HW261900   8.724   6.771   2.713  0.4982  0.5457 -2.1161
19499SOL     OW61901   8.168   7.874   4.967  0.3040 -0.5037  0.1628
19499SOL    HW161902   8.115   7.837   5.037 -0.0945  0.3654  0.3288
19499SOL    HW261903   8.256   7.840   4.983 -0.1758 -1.8837 -0.0712
19500SOL     OW61904   4.863   3.257   8.818 -0.1334  0.3658 -0.3331
19500SOL    HW161905   4.850   3.173   8.863  1.8562 -0.2380 -0.8045
19500SOL    HW261906   4.819   3.246   8.733  0.9878 -0.5914 -0.8026
19501SOL     OW61907   6.547   3.511   7.414 -0.0698  0.3862 -0.8192
19501SOL    HW161908   6.488   3.570   7.366 -0.5328 -1.3838 -2.4770
19501SOL    HW261909   6.511   3.424   7.398  1.2805 -0.4574  0.6650
19502SOL     OW61910  10.847   5.974   6.677 -0.3065 -0.0869  0.1105
19502SOL    HW161911  10.848   6.055   6.626  1.1142 -0.3589 -0.3457
19502SOL    HW261912  10.797   5.994   6.756 -0.2405  1.1285 -0.1556
19503SOL     OW61913  10.399  10.729   9.281 -0.2111  0.2699  0.1839
19503SOL    HW161914  10.378  10.644   9.321 -0.6374 -0.7793 -2.1650
19503SOL    HW261915  10.314  10.770   9.267 -0.1869 -0.1675 -1.2910
19504SOL     OW61916   5.117   3.974   6.651  0.6641  0.0138  0.0782
19504SOL    HW161917   5.062   4.023   6.591  0.1307 -0.0378  0.5256
19504SOL    HW261918   5.056   3.928   6.709  1.0514 -3.6047 -2.2206
19505SOL     OW61919   1.186   0.241   7.595 -0.5414  0.5078 -0.5935
19505SOL    HW161920   1.226   0.166   7.550 -0.1609  1.2475 -1.5029
19505SOL    HW261921   1.101   0.209   7.624 -0.6675 -0.0789 -1.5859
19506SOL     OW61922   1.519   3.506   9.146 -0.2807 -0.0923 -0.0360
19506SOL    HW161923   1.488   3.465   9.227  1.8324 -2.6539 -0.4794
19506SOL    HW261924   1.445   3.498   9.085 -1.1854  0.1112  1.0115
19507SOL     OW61925   0.842   6.851   2.138 -0.5639  0.1887 -0.1050
19507SOL    HW161926   0.890   6.890   2.212 -1.1101 -0.3819  0.5507
19507SOL    HW261927   0.755   6.832   2.173  0.0226 -2.6602 -0.0666
19508SOL     OW61928   0.849   3.358   9.358 -0.2553 -0.3334  0.0902
19508SOL    HW161929   0.852   3.428   9.423  0.1469 -0.4455  0.1950
19508SOL    HW261930   0.931   3.366   9.309 -0.8850  0.2168 -0.9017
19509SOL     OW61931   6.187   1.079   6.518 -0.3560  0.1461 -0.2953
19509SOL    HW161932   6.213   1.058   6.428 -0.1362 -2.7428  0.3797
19509SOL    HW261933   6.237   1.157   6.540  0.5075  0.1746 -2.2713
19510SOL     OW61934   0.998   7.268   8.974  0.6727 -0.0003 -0.4061
19510SOL    HW161935   0.943   7.227   9.040  0.7589 -0.7492 -0.7845
19510SOL    HW261936   0.982   7.217   8.895 -0.2426  1.5477 -1.2472
19511SOL     OW61937   5.607   0.562   0.809 -0.1248  0.6960 -0.5004
19511SOL    HW161938   5.646   0.635   0.760  1.1751  1.2262  1.3066
19511SOL    HW261939   5.650   0.564   0.894 -0.4755 -1.8587 -0.2290
19512SOL     OW61940   5.173   9.405   5.209  0.2488  0.4030  0.1337
19512SOL    HW161941   5.157   9.454   5.290  0.2774  1.8514 -0.7200
19512SOL    HW261942   5.155   9.468   5.139  2.1486 -0.2494 -0.9706
19513SOL     OW61943   4.874   0.177   0.338 -0.8848  0.0061  0.0677
19513SOL    HW161944   4.893   0.270   0.328 -2.3932  0.3248  0.0178
19513SOL    HW261945   4.934   0.147   0.406 -0.0525  0.9034 -0.2571
19514SOL     OW61946   4.570   5.634   6.923 -0.1812 -0.2853 -0.0928
19514SOL    HW161947   4.582   5.582   6.844  0.5831  0.8989 -0.7831
19514SOL    HW261948   4.588   5.724   6.895 -1.2074  0.3184  1.1304
19515SOL     OW61949   2.293   0.652   7.256 -0.2697 -0.3357 -0.3811
19515SOL    HW161950   2.327   0.616   7.338 -1.2422 -1.2410 -0.3565
19515SOL    HW261951   2.229   0.587   7.227  0.0709 -0.0112 -1.8616
19516SOL     OW61952   6.291   2.344   3.157 -0.4904 -0.1168  0.0168
19516SOL    HW161953   6.302   2.314   3.247 -1.9267  1.8426  0.8636
19516SOL    HW261954   6.358   2.412   3.145 -1.5940  1.0138  0.2441
19517SOL     OW61955   5.390   3.504   3.309  0.4384  0.0540 -0.0726
19517SOL    HW161956   5.390   3.469   3.398 -0.5018  0.4515  0.0865
19517SOL    HW261957   5.302   3.541   3.297  0.8746  0.8642 -0.8268
19518SOL     OW61958  10.481   5.631   5.326 -0.3658 -0.0769 -0.1290
19518SOL    HW161959  10.484   5.687   5.249 -0.2662  1.4592  0.9599
19518SOL    HW261960  10.559   5.655   5.377 -0.5024 -0.9609  0.5217
19519SOL     OW61961   9.113   5.840   8.176  0.2219  0.0412 -0.5073
19519SOL    HW161962   9.065   5.899   8.236 -0.4658 -1.0993  0.0895
19519SOL    HW261963   9.139   5.896   8.104 -0.8336  0.9968 -0.1746
19520SOL     OW61964   7.381   1.515   1.729 -0.7509  0.1928 -0.6863
19520SOL    HW161965   7.339   1.555   1.805  1.5548 -2.1270  1.9255
19520SOL    HW261966   7.313   1.461   1.688 -1.1441 -1.1995  1.7461
19521SOL     OW61967   2.168   7.334  10.107  0.3020  0.3051  0.6558
19521SOL    HW161968   2.097   7.357  10.167 -0.4270  2.7047 -1.0188
19521SOL    HW261969   2.172   7.408  10.046  2.7854 -0.8245 -0.6201
19522SOL     OW61970   8.879   6.693   5.125 -0.0189 -0.0286 -0.3995
19522SOL    HW161971   8.856   6.635   5.198  1.4561 -1.4858 -1.0802
19522SOL    HW261972   8.836   6.653   5.049  0.5349  0.0743 -0.7682
19523SOL     OW61973   5.563   3.019   3.663 -0.2080 -0.3614  0.6590
19523SOL    HW161974   5.584   3.108   3.692  0.7159  0.0045 -1.1059
19523SOL    HW261975   5.620   2.963   3.715 -0.5294  0.0801  1.5148
19524SOL     OW61976   0.669   9.440   6.499 -0.1664  0.0692 -0.1405
19524SOL    HW161977   0.617   9.375   6.452  1.9750 -0.9053 -1.2352
19524SOL    HW261978   0.698   9.396   6.578  0.1484  0.1492 -0.2113
19525SOL     OW61979   6.799   9.908   7.192  0.1754  0.0792  0.2093
19525SOL    HW161980   6.847   9.828   7.214  0.6871  0.1388 -0.6654
19525SOL    HW261981   6.844   9.977   7.240  0.7638  0.0847 -0.3451
19526SOL     OW61982   6.915   9.257   5.764  0.4114  0.1606 -0.3629
19526SOL    HW161983   6.847   9.305   5.715  1.1267  0.0059 -1.5129
19526SOL    HW261984   6.885   9.262   5.855 -2.2660 -1.7184 -1.0668
19527SOL     OW61985   4.884   7.078   6.783 -0.6001 -0.6657 -0.0111
19527SOL    HW161986   4.904   7.097   6.874  1.6303  0.3655 -0.6637
19527SOL    HW261987   4.928   6.995   6.765  0.8018  0.1912 -0.6860
19528SOL     OW61988   4.987   4.077   0.503  0.7782  0.1759 -0.4782
19528SOL    HW161989   4.940   4.026   0.436  0.7497 -0.7922  0.2571
19528SOL    HW261990   4.977   4.025   0.582 -0.6126  2.1237  0.6771
19529SOL     OW61991   7.760   3.986   5.180 -0.2623 -0.3013  0.1651
19529SOL    HW161992   7.732   4.006   5.091 -1.2844 -2.3394  0.0008
19529SOL    HW261993   7.840   4.038   5.192  1.6101 -2.2756 -2.9927
19530SOL     OW61994   0.920  10.674  10.368 -0.1365  0.6799 -0.0222
19530SOL    HW161995   0.982  10.673  10.441  0.4055 -0.3898 -0.4794
19530SOL    HW261996   0.835  10.687  10.409  0.1727  0.1708  0.8015
19531SOL     OW61997   7.527   0.893   3.408 -0.0203 -0.1423  0.2940
19531SOL    HW161998   7.466   0.937   3.467 -0.5767  1.3284 -1.3408
19531SOL    HW261999   7.518   0.800   3.428  0.1632  0.3603  2.8535
19532SOL     OW62000   1.562   3.718   2.922  0.4591  0.3081  0.2334
19532SOL    HW162001   1.499   3.678   2.981  0.4083  2.2161  1.5121
19532SOL    HW262002   1.622   3.765   2.979 -0.0133  2.8083 -1.2386
19533SOL     OW62003   7.604  10.595   1.327 -0.0391 -0.5218 -0.0592
19533SOL    HW162004   7.635  10.533   1.392 -1.6189 -0.1777  1.0604
19533SOL    HW262005   7.603  10.679   1.372 -0.6606 -0.1907 -0.6805
19534SOL     OW62006   3.191   1.179   8.405 -0.2904 -0.1681  0.0734
19534SOL    HW162007   3.122   1.224   8.356  1.1352  1.4530 -0.4977
19534SOL    HW262008   3.230   1.247   8.460  1.9259 -0.6577 -0.8265
19535SOL     OW62009   9.571   2.813   5.177 -0.1403  0.2549  0.1340
19535SOL    HW162010   9.640   2.872   5.208  1.7982 -1.4586 -0.8157
19535SOL    HW262011   9.547   2.761   5.254  0.4709  0.0344  0.1756
19536SOL     OW62012   3.167   8.815  10.199  0.0968 -0.1649 -0.3976
19536SOL    HW162013   3.193   8.773  10.116  0.7499  2.1558 -1.4159
19536SOL    HW262014   3.248   8.817  10.250  0.3514  0.8888 -0.8278
19537SOL     OW62015   3.489   6.246   5.975 -0.3232  0.3630  0.1688
19537SOL    HW162016   3.531   6.215   5.895 -0.6905  0.3534 -0.0228
19537SOL    HW262017   3.441   6.325   5.948 -2.1173 -0.7752 -0.0753
19538SOL     OW62018  10.065   4.072   9.611  0.1469  0.9096  0.0072
19538SOL    HW162019  10.122   4.020   9.666  0.9284  1.8103  0.0681
19538SOL    HW262020  10.000   4.010   9.576 -0.1507  0.2849  1.6613
19539SOL     OW62021   8.243   1.398   7.882 -0.6122 -0.1032 -0.3038
19539SOL    HW162022   8.327   1.438   7.858  0.3785 -2.3035 -0.6512
19539SOL    HW262023   8.180   1.437   7.821  0.2744  1.0440 -0.5135
19540SOL     OW62024   0.655   0.123   3.146 -0.4742 -0.0906 -0.2488
19540SOL    HW162025   0.741   0.124   3.188 -0.5470 -0.2018 -0.0979
19540SOL    HW262026   0.617   0.039   3.170 -0.4265 -0.2456 -0.7170
19541SOL     OW62027   0.378   1.808   4.817  0.4823 -0.4064 -0.0558
19541SOL    HW162028   0.444   1.741   4.836  0.9573  0.1365  0.2308
19541SOL    HW262029   0.419   1.863   4.750  0.8379  0.7036  1.0658
19542SOL     OW62030   0.431   7.210  10.811 -0.0828  0.1520  0.3146
19542SOL    HW162031   0.436   7.304  10.797  1.4544 -0.3771 -3.1814
19542SOL    HW262032   0.522   7.180  10.803 -0.8043 -1.8619 -0.6059
19543SOL     OW62033   3.816  10.197   7.005  0.1170 -0.1143 -0.1790
19543SOL    HW162034   3.783  10.201   7.095  0.5808 -1.2644  0.0560
19543SOL    HW262035   3.740  10.171   6.952  0.0245 -0.1905 -0.0078
19544SOL     OW62036   3.534   3.757  10.104 -0.3943  0.7297  0.1273
19544SOL    HW162037   3.565   3.717  10.022  2.0991  1.1999  0.8015
19544SOL    HW262038   3.563   3.697  10.172 -2.5643  0.2841  0.7146
19545SOL     OW62039   3.879   5.302   4.115  0.1277 -0.5274 -0.0218
19545SOL    HW162040   3.833   5.383   4.093  2.4392  0.4646 -1.3732
19545SOL    HW262041   3.893   5.259   4.030  1.4704 -0.9114  0.3898
19546SOL     OW62042   5.296   1.485   3.773 -0.7836  0.3488 -0.3248
19546SOL    HW162043   5.319   1.418   3.837 -0.8380 -0.3597 -1.0397
19546SOL    HW262044   5.205   1.508   3.794 -0.7497  0.2411 -0.0504
19547SOL     OW62045   6.999  10.402   6.078  0.0195 -0.1419  0.2546
19547SOL    HW162046   6.925  10.377   6.023  0.9299 -0.6078 -0.7676
19547SOL    HW262047   7.067  10.338   6.058  0.8096  0.4552  0.9789
19548SOL     OW62048  10.723   3.422   6.897 -0.1808 -0.2650 -0.0879
19548SOL    HW162049  10.776   3.466   6.963  1.1168  1.4839 -2.2349
19548SOL    HW262050  10.666   3.490   6.863  1.2811 -0.3875 -2.8790
19549SOL     OW62051   2.153   3.022   8.798  0.9326  0.3938 -0.4259
19549SOL    HW162052   2.068   3.067   8.795 -0.2500 -1.7587  0.1750
19549SOL    HW262053   2.158   2.975   8.716  0.3711 -1.5180  0.6011
19550SOL     OW62054   5.881   0.886   1.859  0.1505 -0.8162 -0.3961
19550SOL    HW162055   5.950   0.903   1.795  1.9078 -0.3407  1.5552
19550SOL    HW262056   5.914   0.813   1.912 -1.9871 -2.2888 -1.0024
19551SOL     OW62057   3.688   2.141   2.089  0.0679  0.3148  0.1204
19551SOL    HW162058   3.654   2.120   2.002  0.3699 -0.0676  0.0920
19551SOL    HW262059   3.730   2.060   2.118  2.4670  1.2728 -0.5472
19552SOL     OW62060   3.495   1.990   3.848  0.0358  0.1043 -0.4152
19552SOL    HW162061   3.471   2.072   3.891  2.0926  0.5153  0.0110
19552SOL    HW262062   3.569   2.013   3.793  2.6774 -2.0472  2.0945
19553SOL     OW62063   0.025   7.751   2.149 -0.3796 -0.1103 -0.1386
19553SOL    HW162064   0.072   7.739   2.231 -1.1383  0.3657  0.3727
19553SOL    HW262065   0.019   7.664   2.111  0.7950 -0.1917 -0.1433
19554SOL     OW62066   0.856   7.164   2.383  0.0490 -0.1571 -0.0582
19554SOL    HW162067   0.888   7.222   2.315  1.3725 -0.0034  0.6763
19554SOL    HW262068   0.926   7.099   2.394 -0.5727 -0.7423  0.4719
19555SOL     OW62069   8.006   2.770   2.410  0.0287  0.6653 -0.1346
19555SOL    HW162070   7.939   2.805   2.468  0.7834  0.3001  0.9766
19555SOL    HW262071   8.043   2.696   2.457 -0.6308 -0.8298 -1.8893
19556SOL     OW62072   0.121   6.663   0.046  0.6343 -0.0475  0.2585
19556SOL    HW162073   0.055   6.731   0.062  0.2622 -0.7329  1.6143
19556SOL    HW262074   0.203   6.712   0.037  0.2622  0.6437  0.5570
19557SOL     OW62075   1.582   2.989   7.501 -0.7028 -0.1242 -0.4330
19557SOL    HW162076   1.637   2.911   7.498  0.4327  0.6949 -1.3281
19557SOL    HW262077   1.606   3.032   7.583  0.6734  0.7034 -1.2514
19558SOL     OW62078   1.499   5.003  10.785 -0.2504  0.4936 -0.3424
19558SOL    HW162079   1.539   4.916  10.778  1.5914  1.3680 -1.0714
19558SOL    HW262080   1.572   5.063  10.776 -1.5020  2.1334  0.2442
19559SOL     OW62081   4.502   3.208   4.266  0.0138 -0.3008  0.4421
19559SOL    HW162082   4.499   3.290   4.315 -2.3851 -0.2961  0.3446
19559SOL    HW262083   4.470   3.231   4.179 -0.0036 -1.2072  0.2061
19560SOL     OW62084   0.827   2.484   8.890 -0.2750  0.0284 -0.1781
19560SOL    HW162085   0.814   2.420   8.961  0.2019  0.6876  0.5119
19560SOL    HW262086   0.740   2.496   8.853 -0.3697 -1.0195 -0.3053
19561SOL     OW62087  10.021   1.785  10.386  0.5878 -0.3444  0.3396
19561SOL    HW162088  10.009   1.719  10.454  2.8248 -2.3936 -1.1746
19561SOL    HW262089   9.946   1.773  10.327  0.5474 -0.9693  0.5166
19562SOL     OW62090   8.562   5.351   8.917  0.2241 -0.3491  0.4492
19562SOL    HW162091   8.582   5.269   8.961  1.6882  0.9460  2.2172
19562SOL    HW262092   8.596   5.420   8.974 -0.9128  1.5169 -1.0212
19563SOL     OW62093   4.102   3.470  10.559 -0.3504  0.1523  0.1322
19563SOL    HW162094   4.098   3.554  10.512 -0.0460  0.6389  0.9729
19563SOL    HW262095   4.070   3.406  10.495 -1.5609  1.0510 -0.1739
19564SOL     OW62096  10.733   8.679   8.823 -0.1586  0.0327  0.4110
19564SOL    HW162097  10.638   8.674   8.829 -0.2895  0.3342 -1.1740
19564SOL    HW262098  10.756   8.616   8.754  0.8855 -0.8188  1.5037
19565SOL     OW62099   2.633   2.258   7.581  0.0609  0.5176  0.1045
19565SOL    HW162100   2.686   2.271   7.503 -0.3778 -2.2959 -0.7243
19565SOL    HW262101   2.694   2.223   7.646  0.0595  1.1605  0.4518
19566SOL     OW62102   6.104   4.617   3.517 -0.0200 -0.0773  0.4352
19566SOL    HW162103   6.190   4.575   3.524  0.3936  0.8863  1.3941
19566SOL    HW262104   6.041   4.546   3.530  0.6489 -0.5261  1.2408
19567SOL     OW62105   3.590   1.813   3.436 -0.0968 -0.3411 -0.3079
19567SOL    HW162106   3.595   1.757   3.514 -1.1122 -1.3660 -0.9580
19567SOL    HW262107   3.666   1.871   3.443 -1.2920  0.9440  2.4684
19568SOL     OW62108   4.557   3.524  10.517  0.3496 -0.3275 -0.3946
19568SOL    HW162109   4.624   3.513  10.449  0.8910  1.4329 -0.1787
19568SOL    HW262110   4.562   3.617  10.540 -2.2270 -0.1568 -0.4238
19569SOL     OW62111   1.561   1.159   1.301  0.3375 -0.0258 -0.4080
19569SOL    HW162112   1.582   1.068   1.282  0.2013 -0.3420  0.9032
19569SOL    HW262113   1.536   1.196   1.216 -2.5083 -1.9651 -0.4907
19570SOL     OW62114   5.195   1.903   2.141  0.1900  0.5700 -0.1492
19570SOL    HW162115   5.253   1.828   2.152  2.5171  2.4476  0.9575
19570SOL    HW262116   5.153   1.889   2.056  0.9069 -1.7425 -0.1481
19571SOL     OW62117   5.089   4.332   3.616 -0.6855 -0.1551  0.3992
19571SOL    HW162118   5.125   4.254   3.658  0.3933  0.1508  0.0643
19571SOL    HW262119   5.047   4.380   3.688  1.7335  0.7029  1.2995
19572SOL     OW62120   8.096   8.021   6.692  0.3951 -0.1465  0.2396
19572SOL    HW162121   8.010   7.999   6.657  0.3607 -1.6479  1.2202
19572SOL    HW262122   8.156   7.965   6.643  0.6935  0.0822  0.3454
19573SOL     OW62123   4.640   1.209   0.613  0.5161 -0.1720 -0.1692
19573SOL    HW162124   4.685   1.232   0.694 -1.3929 -1.3603  1.2642
19573SOL    HW262125   4.606   1.121   0.628 -0.6259 -0.0561 -1.9135
19574SOL     OW62126   7.652   1.486   9.002  0.1293 -0.3320  0.7308
19574SOL    HW162127   7.599   1.513   8.927 -0.3118  1.1141  1.5401
19574SOL    HW262128   7.742   1.490   8.970 -0.1618 -1.7109 -0.3183
19575SOL     OW62129   7.317   6.834   7.294  0.3009 -0.2276  0.1638
19575SOL    HW162130   7.301   6.758   7.237 -2.5604  2.2559 -2.4978
19575SOL    HW262131   7.376   6.889   7.244 -0.8288  1.1453  0.3169
19576SOL     OW62132   6.760   6.754   5.910  0.1422  0.0898 -0.2996
19576SOL    HW162133   6.675   6.739   5.950 -0.6434 -0.1179 -2.0128
19576SOL    HW262134   6.781   6.845   5.932 -0.8115  0.3364 -0.4205
19577SOL     OW62135   8.588   1.335   9.820 -0.0923  0.2996  0.4143
19577SOL    HW162136   8.671   1.346   9.866 -1.2267  0.8716  2.3950
19577SOL    HW262137   8.573   1.241   9.820 -0.3533  0.3192  1.8032
19578SOL     OW62138   4.463   5.494   4.535  0.2573 -0.3768 -0.0762
19578SOL    HW162139   4.487   5.431   4.603 -0.5109 -0.6145 -0.0294
19578SOL    HW262140   4.487   5.579   4.573  0.1507 -0.5361  0.3565
19579SOL     OW62141   1.440   3.389  10.029  0.9934  0.1708  0.0646
19579SOL    HW162142   1.493   3.309  10.028  0.2310 -0.3408 -0.4037
19579SOL    HW262143   1.366   3.368  10.087  0.7752  0.5228 -0.0836
19580SOL     OW62144   6.608   1.169   7.211  0.5296  0.0110  0.0793
19580SOL    HW162145   6.633   1.205   7.296 -0.1826  0.1911  0.2140
19580SOL    HW262146   6.518   1.198   7.198  0.7158  0.1840 -0.8459
19581SOL     OW62147   2.602   6.825   7.071  0.0196 -0.2311 -0.4764
19581SOL    HW162148   2.658   6.751   7.045  1.6576  0.3181  1.3438
19581SOL    HW262149   2.536   6.831   7.002  1.2677 -1.9169 -1.8577
19582SOL     OW62150   8.296   0.486   9.421 -0.6666  0.4600 -0.3282
19582SOL    HW162151   8.277   0.397   9.393 -0.1742 -0.6165  2.5601
19582SOL    HW262152   8.213   0.519   9.456 -0.3743  0.4127  0.4233
19583SOL     OW62153   3.902   4.428   4.920  0.5667 -0.4965 -0.0284
19583SOL    HW162154   3.963   4.468   4.858  0.3362 -0.8865 -0.5090
19583SOL    HW262155   3.914   4.334   4.908 -0.8631 -0.5872 -0.8736
19584SOL     OW62156   3.371   1.908   9.623  0.4066  0.1097 -0.5595
19584SOL    HW162157   3.448   1.861   9.654  0.1269 -1.1426 -1.7054
19584SOL    HW262158   3.368   1.889   9.529 -0.2072  1.7297 -0.8834
19585SOL     OW62159   2.566   9.085   9.036 -0.0124 -1.2915  0.3051
19585SOL    HW162160   2.506   9.054   8.967  1.0212 -0.9629 -0.7569
19585SOL    HW262161   2.644   9.031   9.026  0.4436 -0.7194  0.7170
19586SOL     OW62162   5.015   5.998   2.392 -0.7128 -0.0220 -0.5360
19586SOL    HW162163   5.035   5.918   2.343  0.1415 -0.4228  0.4503
19586SOL    HW262164   4.928   5.982   2.428  0.1477 -1.2371  1.0790
19587SOL     OW62165  10.957  10.961   2.922 -0.3239 -0.0535 -0.2159
19587SOL    HW162166  10.980  11.006   3.004  1.1116 -0.6779 -0.2592
19587SOL    HW262167  11.029  10.983   2.863 -0.7099 -0.6676 -0.9103
19588SOL     OW62168   5.561   0.929   7.566  0.2931  0.2947  0.7111
19588SOL    HW162169   5.481   0.980   7.557  0.3470  0.6689  2.1889
19588SOL    HW262170   5.567   0.911   7.660  1.3577 -0.6796  0.4663
19589SOL     OW62171   2.415   3.092   6.385 -0.2320 -0.1152 -0.0824
19589SOL    HW162172   2.488   3.154   6.391  0.5353 -0.8611 -1.3786
19589SOL    HW262173   2.455   3.007   6.402 -0.9514 -0.4422 -0.0227
19590SOL     OW62174   3.647   3.609   1.813 -0.4225 -0.1331 -0.0290
19590SOL    HW162175   3.645   3.514   1.829  0.8821 -0.0766  0.5128
19590SOL    HW262176   3.740   3.630   1.801 -0.5701  1.2884  1.1516
19591SOL     OW62177   1.960   6.985  10.747 -0.0578  0.2330  0.5366
19591SOL    HW162178   2.015   6.920  10.704 -1.2312 -1.1626  1.1304
19591SOL    HW262179   2.023   7.046  10.787  1.1328 -2.2407  2.5640
19592SOL     OW62180   1.745   3.186   7.098  0.0822  0.0796 -0.3064
19592SOL    HW162181   1.699   3.207   7.180  1.4443  1.2910  0.1677
19592SOL    HW262182   1.727   3.093   7.084 -1.3706  0.2058  0.5977
19593SOL     OW62183   4.520   3.443   0.045 -0.6171 -0.8434  0.3455
19593SOL    HW162184   4.588   3.475   0.105 -1.0262 -0.5012  0.6270
19593SOL    HW262185   4.468   3.520   0.025 -0.2278 -0.8632 -0.8008
19594SOL     OW62186   9.225   9.521   3.874  0.0497 -0.6902 -0.2964
19594SOL    HW162187   9.250   9.483   3.958 -1.3493  0.3013  0.5879
19594SOL    HW262188   9.300   9.505   3.817  1.0163 -1.3636  1.1477
19595SOL     OW62189   0.797   9.132   0.695  0.5698  0.3210  0.5060
19595SOL    HW162190   0.847   9.092   0.766 -0.2954 -2.6431 -0.4711
19595SOL    HW262191   0.734   9.189   0.740  0.9345 -0.4624  2.0637
19596SOL     OW62192   6.529   9.036   2.754 -0.0631  0.1767  0.0935
19596SOL    HW162193   6.477   9.095   2.699 -1.3795 -1.3018 -0.2852
19596SOL    HW262194   6.552   9.088   2.830 -2.5488  0.7250  0.4971
19597SOL     OW62195   2.003   3.097   8.414 -0.1186  0.5571 -0.4962
19597SOL    HW162196   2.070   3.136   8.471 -0.5416 -0.2569  0.5895
19597SOL    HW262197   1.953   3.171   8.381  0.1666  1.0498  0.1629
19598SOL     OW62198   6.767   8.312   3.392  0.5181  0.4924  0.2806
19598SOL    HW162199   6.706   8.244   3.367 -0.0821  0.4864  1.6882
19598SOL    HW262200   6.803   8.283   3.476  1.3611  1.1927  0.1764
19599SOL     OW62201   5.194   1.024   9.916 -0.0330 -0.4661  0.0621
19599SOL    HW162202   5.175   1.112   9.883 -0.0056 -0.8253 -0.9332
19599SOL    HW262203   5.162   1.025  10.007 -1.5991  0.0396 -0.4743
19600SOL     OW62204   8.382   5.076   2.167  0.1168 -0.5418  0.4372
19600SOL    HW162205   8.422   5.139   2.227  1.8144  0.3880 -1.6182
19600SOL    HW262206   8.420   4.992   2.192 -0.2305 -0.3896  1.5317
19601SOL     OW62207   0.493   8.055   3.934  0.3803  0.0948 -0.1097
19601SOL    HW162208   0.533   7.978   3.894  0.7735  0.8405 -1.1699
19601SOL    HW262209   0.486   8.033   4.027 -0.6314 -1.7021 -0.5860
19602SOL     OW62210   6.822  10.280   0.815  0.0797  0.2003 -0.1101
19602SOL    HW162211   6.751  10.228   0.777  0.1534 -1.2793  1.7063
19602SOL    HW262212   6.777  10.345   0.869  0.0928 -0.8685  1.2047
19603SOL     OW62213   3.413   5.769   3.454  0.1123 -0.4023 -0.2098
19603SOL    HW162214   3.416   5.677   3.479 -1.0714 -0.4006 -0.0221
19603SOL    HW262215   3.339   5.804   3.503  1.8534  1.1595  1.3917
19604SOL     OW62216   1.606   8.101   0.896 -0.3387 -0.1159  0.2105
19604SOL    HW162217   1.623   8.179   0.948 -0.5604 -0.3083  0.5806
19604SOL    HW262218   1.583   8.134   0.809 -2.4389  0.3197  0.9048
19605SOL     OW62219   4.270   1.996   7.398  0.4266 -0.3619  0.2349
19605SOL    HW162220   4.236   2.002   7.487  3.2533  0.1361  1.3169
19605SOL    HW262221   4.343   1.935   7.404 -0.1336 -1.3228 -2.0196
19606SOL     OW62222   3.854   2.567   0.410  0.1574  0.7196  0.0727
19606SOL    HW162223   3.772   2.520   0.400  0.0711  0.7395  0.6594
19606SOL    HW262224   3.918   2.514   0.364 -0.3810  1.2526 -1.2999
19607SOL     OW62225   3.372   1.929   8.862 -0.4403  0.4526 -0.3069
19607SOL    HW162226   3.308   1.997   8.839 -1.1625  0.4046  1.4748
19607SOL    HW262227   3.375   1.872   8.785 -0.7261  1.8217 -1.3526
19608SOL     OW62228   9.734   8.209   7.241 -0.3432 -0.1262  0.6492
19608SOL    HW162229   9.754   8.140   7.304 -1.0119 -0.4843  0.4680
19608SOL    HW262230   9.680   8.166   7.175  0.2683  0.2726 -0.1143
19609SOL     OW62231   7.390   1.437  10.055  0.2305 -0.7779  0.3893
19609SOL    HW162232   7.311   1.388  10.033 -0.0213 -0.6344  0.9782
19609SOL    HW262233   7.416   1.478   9.972 -1.1207  0.3324  0.4975
19610SOL     OW62234   2.078  10.978   8.453 -0.2559  0.0757  0.1459
19610SOL    HW162235   2.020  10.960   8.379  0.1121  1.2129 -0.4244
19610SOL    HW262236   2.136  11.047   8.422  1.0388 -0.6478  0.9083
19611SOL     OW62237   1.916   1.402   7.832  0.4846  0.5940  0.3052
19611SOL    HW162238   1.839   1.459   7.842  0.4985  0.6297  0.2043
19611SOL    HW262239   1.955   1.429   7.749  0.8871  0.9142  0.5958
19612SOL     OW62240   0.305  10.194   1.360 -0.7415 -0.0344 -0.2251
19612SOL    HW162241   0.238  10.247   1.405 -1.1392  0.6181 -1.5622
19612SOL    HW262242   0.369  10.258   1.330 -0.7906 -0.4058 -1.1116
19613SOL     OW62243   1.335   3.273   6.324 -0.0400  0.3074 -0.0341
19613SOL    HW162244   1.383   3.355   6.338 -2.5682  2.4491 -3.2389
19613SOL    HW262245   1.255   3.283   6.375 -0.7104  0.1496 -1.0518
19614SOL     OW62246   5.877   5.084   5.807 -0.2093 -0.4126 -0.4008
19614SOL    HW162247   5.835   5.163   5.842 -0.0134 -1.2401  1.7127
19614SOL    HW262248   5.964   5.114   5.780 -0.1776  0.1182  0.2756
19615SOL     OW62249   9.975   8.263   3.630 -0.3733  0.3758  0.4571
19615SOL    HW162250   9.926   8.334   3.670  0.0332  1.0664 -0.2651
19615SOL    HW262251  10.064   8.298   3.618 -0.2089 -0.1956 -0.0275
19616SOL     OW62252   8.318   5.297   7.003 -0.5336  0.0805 -0.2816
19616SOL    HW162253   8.259   5.328   6.934 -0.3448 -1.6705 -1.2424
19616SOL    HW262254   8.353   5.214   6.970 -0.6902 -0.9507  2.0642
19617SOL     OW62255   9.704   7.168  10.632  0.5955 -0.4165 -0.2932
19617SOL    HW162256   9.674   7.172  10.541 -0.0676 -2.4568 -0.1842
19617SOL    HW262257   9.704   7.259  10.661 -3.2827 -0.1021 -1.0368
19618SOL     OW62258   1.082   1.716   5.223 -0.3507  0.3691 -0.3528
19618SOL    HW162259   1.153   1.766   5.262  0.5196 -1.1706  0.0813
19618SOL    HW262260   1.006   1.735   5.278  0.2434  0.3247  0.4916
19619SOL     OW62261   2.290   3.840   9.138 -0.1804 -0.7401  0.1655
19619SOL    HW162262   2.196   3.824   9.128 -0.2523  0.1555 -0.6415
19619SOL    HW262263   2.317   3.874   9.053  0.5833  0.4352  0.8695
19620SOL     OW62264   6.687   1.521   0.154 -0.3900  0.4402 -0.1502
19620SOL    HW162265   6.637   1.441   0.142  0.7465 -0.5837  1.6263
19620SOL    HW262266   6.750   1.499   0.223 -0.4822  3.0513  0.8040
19621SOL     OW62267   0.432   2.946   5.212 -0.2988 -0.4151  0.1728
19621SOL    HW162268   0.447   2.945   5.118 -0.7133 -1.5874  0.1136
19621SOL    HW262269   0.345   2.983   5.222 -0.2793 -0.3456  0.0839
19622SOL     OW62270   3.989   0.089   0.737  0.5212 -0.0130  0.0128
19622SOL    HW162271   3.911   0.119   0.783  0.9758  1.6490 -0.2787
19622SOL    HW262272   3.969   0.105   0.644  0.6231 -0.9680 -0.1796
19623SOL     OW62273   3.062   5.125   8.693  0.0987  0.9156  0.4522
19623SOL    HW162274   2.972   5.120   8.724  0.0640  1.9295  0.5169
19623SOL    HW262275   3.055   5.159   8.604  0.5257  2.6019  1.0520
19624SOL     OW62276   6.682   5.179   5.716  0.3739 -0.4917 -0.1198
19624SOL    HW162277   6.698   5.163   5.809 -0.8745 -0.0518  0.1807
19624SOL    HW262278   6.741   5.251   5.694  0.9074 -0.8106  0.2499
19625SOL     OW62279   4.767  10.120   2.167 -0.1127 -0.5500 -0.1775
19625SOL    HW162280   4.759  10.042   2.112 -0.3193 -0.7184  0.0879
19625SOL    HW262281   4.827  10.093   2.237  1.6874  0.2694 -1.3811
19626SOL     OW62282   3.930   5.620  10.857  0.1950  0.1404 -0.1602
19626SOL    HW162283   3.875   5.593  10.784  1.9592  0.9584 -1.8275
19626SOL    HW262284   3.957   5.538  10.899 -1.2057 -0.3088 -0.1148
19627SOL     OW62285   7.142   3.738   7.413 -0.5310  0.3377  0.0857
19627SOL    HW162286   7.101   3.709   7.332  0.0381 -0.8681  0.2082
19627SOL    HW262287   7.091   3.697   7.482  0.4714 -0.6470  0.2573
19628SOL     OW62288   4.237  10.651   1.139 -0.3061  0.7391 -0.5785
19628SOL    HW162289   4.197  10.661   1.053 -1.0171 -0.5003 -0.4080
19628SOL    HW262290   4.163  10.655   1.200  0.2239  1.9035  0.0066
19629SOL     OW62291   6.973   5.730   8.610  0.0251 -0.0440 -0.1097
19629SOL    HW162292   7.040   5.792   8.639  0.3885 -0.3866 -0.2208
19629SOL    HW262293   6.990   5.717   8.517 -0.8978  0.7467 -0.4003
19630SOL     OW62294   5.801   3.723   8.981 -0.2961 -0.1765  0.2046
19630SOL    HW162295   5.819   3.812   8.953  1.6973  0.1108  2.2276
19630SOL    HW262296   5.847   3.668   8.918  0.8792  0.3460  0.5796
19631SOL     OW62297   6.524   0.010   6.785 -0.3956  0.2005 -0.2016
19631SOL    HW162298   6.525   0.099   6.819 -0.2314  0.5278 -1.0572
19631SOL    HW262299   6.438  -0.000   6.745 -1.1553 -0.6841  1.5873
19632SOL     OW62300   2.623   9.777   3.296  0.2958 -0.0160 -0.3257
19632SOL    HW162301   2.615   9.684   3.276  2.3913 -0.6469  1.4737
19632SOL    HW262302   2.715   9.787   3.322 -0.3810  2.1733  1.3325
19633SOL     OW62303   7.409   7.288   4.726 -0.0704 -0.6079  0.0895
19633SOL    HW162304   7.453   7.335   4.655  0.4006 -0.4234  0.5000
19633SOL    HW262305   7.318   7.315   4.720  0.1477  0.1336  0.1421
19634SOL     OW62306   2.827  10.473   6.100 -0.2029 -0.0678  0.0416
19634SOL    HW162307   2.746  10.429   6.074 -0.6361  0.5647  0.2861
19634SOL    HW262308   2.868  10.414   6.163 -1.2910  0.3275  1.1492
19635SOL     OW62309   6.492  10.793   4.621 -0.1133  0.5865  0.1245
19635SOL    HW162310   6.530  10.871   4.662 -2.3098  2.4166 -1.2729
19635SOL    HW262311   6.567  10.749   4.581  0.9652  2.6701 -0.2162
19636SOL     OW62312   4.566   9.751   9.314 -0.6098  0.1207  0.2585
19636SOL    HW162313   4.569   9.667   9.269  1.9406  0.4762 -0.3093
19636SOL    HW262314   4.648   9.794   9.290 -1.1122  2.0613  1.8923
19637SOL     OW62315   8.767   2.691   5.054 -0.2859 -0.4168 -0.2307
19637SOL    HW162316   8.707   2.765   5.045  0.2725 -0.0179 -0.7383
19637SOL    HW262317   8.721   2.629   5.111 -1.0215  0.0418 -0.3229
19638SOL     OW62318   2.602   7.212   8.167 -0.4984 -0.1623 -0.1411
19638SOL    HW162319   2.610   7.265   8.087 -2.0172 -0.0008 -0.1975
19638SOL    HW262320   2.654   7.134   8.149 -1.0254 -0.2401 -1.4005
19639SOL     OW62321   0.911   6.555   2.965 -0.4704 -0.1154 -0.3705
19639SOL    HW162322   0.987   6.508   2.999 -0.7698 -0.9289 -0.8100
19639SOL    HW262323   0.859   6.576   3.043 -0.3478 -0.5500 -0.1688
19640SOL     OW62324   4.867   4.000   3.117  0.0103  0.4865 -0.5710
19640SOL    HW162325   4.882   4.054   3.040 -1.0693  0.0940 -1.0661
19640SOL    HW262326   4.778   3.966   3.107 -0.7896  1.7780  1.6973
19641SOL     OW62327   1.045   1.371   8.459  0.0007 -0.3915  0.3562
19641SOL    HW162328   1.091   1.451   8.434  1.7130 -1.5832 -0.4525
19641SOL    HW262329   1.099   1.301   8.423 -0.6247 -1.9687  2.3758
19642SOL     OW62330   9.161   0.744   3.888  0.3346  0.0193  0.4637
19642SOL    HW162331   9.179   0.678   3.955  1.5198 -0.4558 -0.2966
19642SOL    HW262332   9.193   0.826   3.925 -0.3737  0.0193  1.0742
19643SOL     OW62333  10.887   9.410   7.879  0.6817  0.5341 -0.3133
19643SOL    HW162334  10.853   9.495   7.851 -0.6756 -0.6936 -2.4563
19643SOL    HW262335  10.982   9.422   7.878  0.5087  2.0828 -0.3558
19644SOL     OW62336   6.165   1.007   5.723  0.0850 -0.2387  0.4313
19644SOL    HW162337   6.102   1.074   5.750  1.1589  1.1063 -0.3409
19644SOL    HW262338   6.119   0.924   5.738 -1.5109  0.6773  0.7723
19645SOL     OW62339   7.025   5.721   0.764 -0.0234 -0.2245  0.2960
19645SOL    HW162340   6.943   5.673   0.777 -0.0339  0.0576  1.2790
19645SOL    HW262341   7.010   5.806   0.804  0.8759 -0.2979  0.7985
19646SOL     OW62342   1.618   6.132   9.184  0.0047 -0.4316 -0.1785
19646SOL    HW162343   1.712   6.145   9.171  0.5241 -1.9331  1.8059
19646SOL    HW262344   1.585   6.108   9.097  1.7315 -1.4478 -0.5836
19647SOL     OW62345   5.877   1.610   8.499  0.3832  0.0085 -0.0376
19647SOL    HW162346   5.888   1.538   8.437 -0.6354 -0.5121  0.3754
19647SOL    HW262347   5.894   1.689   8.448 -1.3221 -0.3594 -1.2173
19648SOL     OW62348   0.733  10.850   0.667 -0.5258  0.2447  0.2906
19648SOL    HW162349   0.686  10.885   0.742 -0.6070 -0.0881  0.3955
19648SOL    HW262350   0.807  10.910   0.655  0.0770 -0.2909  1.2866
19649SOL     OW62351   4.342   1.855   8.674 -0.4735 -0.6369 -0.8542
19649SOL    HW162352   4.392   1.848   8.755  0.1198  0.4015 -1.1201
19649SOL    HW262353   4.388   1.799   8.612 -0.2418 -0.5014 -0.8060
19650SOL     OW62354   6.428   2.524   2.505  0.0661 -0.5843 -0.4239
19650SOL    HW162355   6.381   2.569   2.434  0.1125 -0.9614 -0.6983
19650SOL    HW262356   6.518   2.556   2.498  0.2170 -1.1035 -0.9513
19651SOL     OW62357   5.818   0.279   4.974 -0.1275 -0.3433 -0.2103
19651SOL    HW162358   5.759   0.353   4.962  0.8510  0.2590 -1.3646
19651SOL    HW262359   5.767   0.215   5.024  0.4362  2.8347  4.8415
19652SOL     OW62360   0.263   5.526   6.563  0.4593 -0.0919 -0.2004
19652SOL    HW162361   0.250   5.582   6.487  0.6970 -1.3303 -1.1744
19652SOL    HW262362   0.356   5.535   6.585  0.1452  1.1575  0.6752
19653SOL     OW62363   7.761   3.853   0.687  0.3571 -0.2164 -0.0489
19653SOL    HW162364   7.845   3.823   0.720  0.4072 -0.1842 -0.1471
19653SOL    HW262365   7.697   3.823   0.752  0.3256 -1.1476 -0.5012
19654SOL     OW62366   3.993   3.149   2.318 -0.6397 -0.0072  0.5523
19654SOL    HW162367   4.063   3.136   2.382 -0.4076 -0.1164  0.2766
19654SOL    HW262368   4.038   3.174   2.238 -1.0510  2.0034  0.9303
19655SOL     OW62369   8.966  10.334   9.907 -0.0516 -0.3772  0.3694
19655SOL    HW162370   8.994  10.297   9.824 -2.5467 -0.3687 -0.5257
19655SOL    HW262371   8.872  10.349   9.896 -0.1662  0.8966  2.7147
19656SOL     OW62372   5.553   6.749   2.978  0.2085 -0.2260 -0.5299
19656SOL    HW162373   5.603   6.819   2.936 -1.2050  0.5846 -0.9011
19656SOL    HW262374   5.469   6.748   2.932 -0.4043 -1.0642  0.5708
19657SOL     OW62375   6.536   4.436   4.956 -0.0051  0.1411 -0.7693
19657SOL    HW162376   6.615   4.420   5.008 -0.1746  0.5766 -0.3844
19657SOL    HW262377   6.544   4.527   4.928 -1.4921  0.8920  1.1710
19658SOL     OW62378   9.920   3.653   1.718 -0.6193  0.1216 -0.2530
19658SOL    HW162379   9.825   3.647   1.711 -0.4903 -2.6793 -0.3900
19658SOL    HW262380   9.944   3.579   1.775  1.6154 -0.4512 -1.8854
19659SOL     OW62381   9.551   2.018   1.184 -0.4592 -0.1111  0.2990
19659SOL    HW162382   9.502   2.030   1.265  1.0081 -1.1695  1.3722
19659SOL    HW262383   9.643   2.021   1.211  0.1755  3.4201 -1.8929
19660SOL     OW62384   4.891   6.892   3.458 -0.4665 -0.0647 -1.1737
19660SOL    HW162385   4.877   6.820   3.396  1.0793 -0.0517 -1.5590
19660SOL    HW262386   4.833   6.872   3.531 -0.1015 -1.6770 -1.3117
19661SOL     OW62387   6.871   4.206   7.801 -0.1606  0.0062 -0.3198
19661SOL    HW162388   6.873   4.111   7.788 -0.1927  0.2507 -2.3757
19661SOL    HW262389   6.782   4.231   7.778 -0.2621  0.4995  0.5918
19662SOL     OW62390   8.297   1.668  10.969  0.8032 -0.1130  0.6212
19662SOL    HW162391   8.364   1.703  11.029 -0.0081  1.4119  0.6439
19662SOL    HW262392   8.219   1.658  11.024  0.7684 -1.1358  0.4018
19663SOL     OW62393   3.546   3.790   1.023  0.0435  0.1039 -0.2830
19663SOL    HW162394   3.475   3.818   0.966 -0.7829 -0.5060  0.4470
19663SOL    HW262395   3.583   3.713   0.978 -0.3202 -0.1091 -0.2178
19664SOL     OW62396   9.060   2.654   0.413  0.0028 -0.1361 -0.1690
19664SOL    HW162397   8.990   2.713   0.385  0.7043  1.4624  1.3963
19664SOL    HW262398   9.043   2.638   0.506  0.4294 -1.5847 -0.3196
19665SOL     OW62399   7.663   8.677   4.839 -0.0504  0.3102  0.2785
19665SOL    HW162400   7.681   8.766   4.809 -0.4666 -0.3783 -2.1516
19665SOL    HW262401   7.722   8.622   4.787 -0.3035 -0.9060  1.2416
19666SOL     OW62402   3.997   2.538   3.636 -0.6149  0.2831  0.2680
19666SOL    HW162403   3.972   2.454   3.596  1.4588 -0.2454  0.0109
19666SOL    HW262404   4.067   2.515   3.698  0.0603  1.8330  0.1093
19667SOL     OW62405   2.364   5.471   4.681  0.5091 -0.1462 -0.8536
19667SOL    HW162406   2.291   5.460   4.742  0.4439 -1.9642 -1.2565
19667SOL    HW262407   2.342   5.550   4.632 -0.7620 -0.1918 -0.3782
19668SOL     OW62408   3.653   6.241   6.508 -0.3619  0.2335 -0.3070
19668SOL    HW162409   3.729   6.259   6.564  0.3165  0.2911 -1.2421
19668SOL    HW262410   3.606   6.324   6.503 -0.5580  0.1643  0.3823
19669SOL     OW62411   7.241   3.332   1.203 -0.0802 -0.8949 -0.0457
19669SOL    HW162412   7.334   3.325   1.224  0.3748  2.7428 -0.5822
19669SOL    HW262413   7.196   3.297   1.280  1.6922  1.4138  2.0694
19670SOL     OW62414   2.082   4.264  10.851  0.0997  0.4676 -0.2697
19670SOL    HW162415   2.030   4.204  10.904 -0.4277  1.2592  0.1109
19670SOL    HW262416   2.065   4.237  10.761  0.6963 -0.6289 -0.0640
19671SOL     OW62417   2.263   4.153  10.016 -0.1747  0.1681 -0.4003
19671SOL    HW162418   2.222   4.161  10.103 -1.4655 -0.5027 -0.9396
19671SOL    HW262419   2.241   4.065   9.987  0.9669  0.0965 -1.0647
19672SOL     OW62420   3.626   9.464   4.259  0.3254  0.0988 -0.0915
19672SOL    HW162421   3.551   9.443   4.204 -1.1538  0.3844  1.7635
19672SOL    HW262422   3.671   9.535   4.213 -1.7468  1.3889 -0.1725
19673SOL     OW62423   6.085   8.158   4.011  0.3931 -0.3922 -0.3508
19673SOL    HW162424   6.155   8.129   4.068 -0.2164 -1.3528 -0.0847
19673SOL    HW262425   6.018   8.192   4.070  0.6328  0.5213 -0.6038
19674SOL     OW62426   2.970   0.297  10.353  0.4885  0.4971 -0.0579
19674SOL    HW162427   3.018   0.341  10.282 -0.2909 -0.2655 -1.0859
19674SOL    HW262428   3.028   0.302  10.428  0.6724  2.7267 -0.3181
19675SOL     OW62429   2.195   0.296   3.989 -0.3421 -0.2826 -0.1676
19675SOL    HW162430   2.247   0.234   4.041 -0.1990 -0.2792 -0.3045
19675SOL    HW262431   2.214   0.273   3.898  1.0903  1.0796 -0.2462
19676SOL     OW62432   5.220   6.846   4.808 -0.3706 -0.0238  0.0123
19676SOL    HW162433   5.298   6.900   4.792 -0.4961  0.3817  0.7268
19676SOL    HW262434   5.214   6.788   4.732  1.8418 -1.5200  0.9203
19677SOL     OW62435   4.682   4.922  10.837 -0.0046 -0.5037  0.2281
19677SOL    HW162436   4.603   4.874  10.810 -0.1467 -1.1504  1.7113
19677SOL    HW262437   4.655   5.013  10.838 -0.6500 -0.6911  0.3878
19678SOL     OW62438   2.693   2.001   8.987 -0.1344  0.0145  0.1666
19678SOL    HW162439   2.662   2.041   9.068 -1.4978 -1.1243  0.2304
19678SOL    HW262440   2.686   1.907   9.002 -0.6562 -0.2060 -1.3646
19679SOL     OW62441   2.678   8.914   6.604 -0.5297 -0.7422 -0.1147
19679SOL    HW162442   2.756   8.951   6.563 -0.6509 -0.4626 -0.0925
19679SOL    HW262443   2.711   8.871   6.683 -0.3911 -0.6809 -0.1394
19680SOL     OW62444   2.377   4.938   9.256 -0.4256 -0.3279 -0.4607
19680SOL    HW162445   2.434   4.866   9.228 -0.8522 -0.9050  0.1363
19680SOL    HW262446   2.405   5.013   9.204  0.5435 -0.7369 -0.5253
19681SOL     OW62447   8.889   8.171   0.470  0.7075  0.1304 -0.2157
19681SOL    HW162448   8.957   8.121   0.516  0.9520  1.0362  0.4430
19681SOL    HW262449   8.906   8.262   0.495 -1.4945  0.2580  0.9380
19682SOL     OW62450   5.747   4.122   6.872  0.4726  0.2493  0.0244
19682SOL    HW162451   5.744   4.159   6.784  1.0605  0.4393  0.0825
19682SOL    HW262452   5.801   4.183   6.922 -0.2562  0.3966  0.6399
19683SOL     OW62453   7.578   6.027  10.335 -0.9683 -0.2607 -0.0035
19683SOL    HW162454   7.495   6.008  10.379 -1.0076 -0.3722 -0.1257
19683SOL    HW262455   7.555   6.029  10.242 -0.6023 -1.4867 -0.1168
19684SOL     OW62456  10.643   2.594   6.400  0.3498 -0.7243 -0.1200
19684SOL    HW162457  10.634   2.499   6.402  0.3140 -0.7273 -0.4275
19684SOL    HW262458  10.696   2.612   6.322  1.3666 -0.5782  0.5870
19685SOL     OW62459   0.264   0.548   6.242 -0.4899 -0.5715  0.1414
19685SOL    HW162460   0.254   0.559   6.148 -1.1097 -0.5050  0.2136
19685SOL    HW262461   0.331   0.479   6.251  1.8101  1.5254 -0.3127
19686SOL     OW62462   4.605   8.680   6.000 -0.1642 -0.5157  0.0466
19686SOL    HW162463   4.536   8.738   5.967  0.3515 -0.3116 -0.6631
19686SOL    HW262464   4.685   8.732   5.994  0.0910 -0.8302  0.6766
19687SOL     OW62465   1.793   7.916   0.969  0.3241  0.5562  0.1108
19687SOL    HW162466   1.719   7.975   0.954  0.2280 -0.0865 -2.1784
19687SOL    HW262467   1.870   7.971   0.955  0.3069  1.2031  2.4020
19688SOL     OW62468   6.617   5.677   4.133  0.0047  0.1801 -0.4548
19688SOL    HW162469   6.668   5.605   4.170 -1.2979  0.2619  1.5749
19688SOL    HW262470   6.528   5.662   4.164 -0.4596  2.1682 -0.7577
19689SOL     OW62471   1.054   5.654   9.226  0.2110  0.0912 -0.1908
19689SOL    HW162472   1.097   5.734   9.257  0.6815 -0.1428 -0.2308
19689SOL    HW262473   1.126   5.594   9.207 -0.1395 -0.3550 -0.1286
19690SOL     OW62474   5.734   9.446   1.436 -0.8631 -0.0070  0.6359
19690SOL    HW162475   5.820   9.479   1.408  0.2460 -1.3239  2.4310
19690SOL    HW262476   5.704   9.510   1.501 -1.4024  0.6049 -0.1931
19691SOL     OW62477   8.396   6.971   2.001  0.0312 -0.2639  0.5870
19691SOL    HW162478   8.346   6.902   2.044 -1.8791 -0.1973 -1.4037
19691SOL    HW262479   8.452   6.925   1.938 -0.4815 -0.0872 -0.0081
19692SOL     OW62480   3.135   8.920   3.990  0.2507  0.5506  0.1807
19692SOL    HW162481   3.054   8.966   4.013  0.0928  0.3152  0.1048
19692SOL    HW262482   3.197   8.943   4.059 -1.3542 -3.2706  3.0865
19693SOL     OW62483   2.993   7.414   9.755  0.4116  0.7731 -0.1558
19693SOL    HW162484   2.959   7.482   9.696 -0.0704  0.3101 -0.4106
19693SOL    HW262485   2.985   7.333   9.705  1.8733  0.6489 -0.2247
19694SOL     OW62486   4.204   4.449   7.388 -0.7553 -0.4755  0.2962
19694SOL    HW162487   4.223   4.401   7.308 -1.4083 -0.3040  0.0286
19694SOL    HW262488   4.267   4.521   7.389 -0.5177 -0.6848  0.1148
19695SOL     OW62489   0.510   0.834   4.016  0.3242  0.0132 -0.0506
19695SOL    HW162490   0.468   0.910   4.056  2.7774  1.3012  0.1529
19695SOL    HW262491   0.437   0.776   3.994 -1.6623  2.5899 -0.6081
19696SOL     OW62492   0.414   7.922   5.834 -0.0611  0.2376 -0.1099
19696SOL    HW162493   0.325   7.957   5.836  0.0191  0.3744  1.4508
19696SOL    HW262494   0.405   7.835   5.796 -0.8625  0.2233  0.1124
19697SOL     OW62495   7.621   5.522   8.557 -0.2854 -0.6468  0.0738
19697SOL    HW162496   7.554   5.456   8.538  0.6044 -1.9723  1.4463
19697SOL    HW262497   7.701   5.472   8.573  0.7398  0.8414 -0.2300
19698SOL     OW62498   8.276   1.624   0.383  0.7478  0.1656  0.0885
19698SOL    HW162499   8.304   1.627   0.475  3.9477 -0.9582 -0.7880
19698SOL    HW262500   8.268   1.531   0.363 -0.9512  0.4182 -0.5247
19699SOL     OW62501   8.611   8.826   6.091  0.0881 -0.0619 -0.0404
19699SOL    HW162502   8.651   8.857   6.010  1.5691  1.8026  1.3477
19699SOL    HW262503   8.517   8.844   6.080  0.4954  1.7944 -0.6438
19700SOL     OW62504   8.684   1.786   1.722  0.3995 -0.2085  0.6379
19700SOL    HW162505   8.679   1.876   1.754 -0.7453 -0.1475  0.2921
19700SOL    HW262506   8.711   1.794   1.631 -2.0641 -0.0819 -0.1009
19701SOL     OW62507  10.085   9.419   9.750 -0.0113  0.6436 -0.7201
19701SOL    HW162508  10.124   9.331   9.751  0.9624  1.0780 -0.5793
19701SOL    HW262509  10.058   9.431   9.659 -0.4991  0.0455 -0.6601
19702SOL     OW62510   5.608   8.177   9.025  0.1798 -0.0167 -0.2191
19702SOL    HW162511   5.634   8.100   8.975  0.2714 -0.4172  0.4440
19702SOL    HW262512   5.612   8.149   9.116 -1.1868  0.3411 -0.0331
19703SOL     OW62513  10.214   5.370   0.079 -0.0351  0.1790 -0.6501
19703SOL    HW162514  10.139   5.310   0.070 -0.7595  0.8700  0.7271
19703SOL    HW262515  10.175   5.456   0.087  0.8636  0.4500  1.0607
19704SOL     OW62516  10.674  10.826   7.601  0.0762 -0.0272 -0.0376
19704SOL    HW162517  10.619  10.747   7.602 -1.2705  0.9246  1.4638
19704SOL    HW262518  10.654  10.867   7.517 -0.2336 -0.5748 -0.2376
19705SOL     OW62519  10.455   1.322   9.977  0.2768 -0.1812 -0.2352
19705SOL    HW162520  10.400   1.396  10.001 -0.0506 -0.3607 -0.4176
19705SOL    HW262521  10.474   1.335   9.884  2.0439  0.8347  0.2572
19706SOL     OW62522   4.442   1.979   3.266  0.0118  0.0172  0.3142
19706SOL    HW162523   4.377   2.022   3.320  1.4069  0.2131  1.8904
19706SOL    HW262524   4.498   1.932   3.328  2.4267  1.2925 -0.8073
19707SOL     OW62525   7.955   2.947   3.055  0.1990  0.1905 -0.0916
19707SOL    HW162526   7.945   2.988   3.141 -0.2958 -1.3041  0.5916
19707SOL    HW262527   7.906   2.865   3.062  0.2958 -0.0328 -1.7514
19708SOL     OW62528   9.513  10.722   0.091 -0.2808 -0.5262 -0.3107
19708SOL    HW162529   9.444  10.659   0.070 -0.6322 -0.3175  0.1781
19708SOL    HW262530   9.534  10.763   0.008 -1.9665  0.6114 -0.2058
19709SOL     OW62531   5.001   9.459   8.191 -0.1825 -0.0913  0.1370
19709SOL    HW162532   4.972   9.541   8.149 -1.3101 -0.4123  0.2712
19709SOL    HW262533   4.920   9.411   8.208  0.5417 -1.6998 -0.8606
19710SOL     OW62534  10.799   9.501   8.473  0.4283 -0.5017  0.1754
19710SOL    HW162535  10.804   9.564   8.545 -2.4855 -1.3992  1.2399
19710SOL    HW262536  10.832   9.548   8.397 -0.4599  1.8879  1.2200
19711SOL     OW62537   7.814   4.293   4.423 -0.2651  1.0455 -0.1131
19711SOL    HW162538   7.854   4.340   4.350  1.7848 -0.8094 -0.2243
19711SOL    HW262539   7.866   4.317   4.499  1.8260 -2.2347 -0.4458
19712SOL     OW62540   5.128  10.563   6.381  0.7423  0.4173 -0.7264
19712SOL    HW162541   5.053  10.521   6.339  0.6213 -0.9348  0.8068
19712SOL    HW262542   5.182  10.490   6.411  0.8707  1.3580  1.3872
19713SOL     OW62543   8.197   1.060   8.535  0.4812 -0.2892  0.0913
19713SOL    HW162544   8.240   0.974   8.528  0.1237 -0.7421  2.8812
19713SOL    HW262545   8.112   1.047   8.493  0.9205 -0.9257 -0.6279
19714SOL     OW62546  10.063   2.327   3.936 -0.1177  0.1942 -0.7067
19714SOL    HW162547  10.144   2.360   3.977 -0.1691  0.5674 -0.9046
19714SOL    HW262548  10.001   2.399   3.945 -0.2078  0.1797 -1.2073
19715SOL     OW62549  10.434   4.558   8.275 -0.1446 -0.5700 -0.7341
19715SOL    HW162550  10.524   4.529   8.260  0.0697 -0.3556  0.0868
19715SOL    HW262551  10.416   4.619   8.204  0.7577  0.2596 -0.2599
19716SOL     OW62552   9.839   6.824   5.985  0.0516 -0.0959  0.4557
19716SOL    HW162553   9.913   6.778   6.025  0.9767  1.3594  0.4541
19716SOL    HW262554   9.876   6.868   5.909 -1.1975 -0.8140 -0.5743
19717SOL     OW62555   2.464   0.396   3.792  0.1326 -0.0012  0.3350
19717SOL    HW162556   2.470   0.330   3.722 -1.5379 -0.7278  0.8478
19717SOL    HW262557   2.555   0.412   3.818  0.8634  0.9510 -2.6032
19718SOL     OW62558   4.859   8.687   1.235  0.6715 -0.5303 -0.1070
19718SOL    HW162559   4.795   8.674   1.306  0.5945 -1.0887 -0.2764
19718SOL    HW262560   4.844   8.614   1.176  2.7277 -1.7312  0.7936
19719SOL     OW62561   1.176   1.438   2.378  0.3090  0.4613 -0.3038
19719SOL    HW162562   1.085   1.467   2.381 -0.8354 -3.0872  1.7594
19719SOL    HW262563   1.188   1.387   2.457  3.3263 -1.4359 -1.8765
19720SOL     OW62564   7.584   9.875   8.619 -0.0123  0.1176  0.2985
19720SOL    HW162565   7.503   9.926   8.621  0.0956  0.3665 -1.3411
19720SOL    HW262566   7.572   9.808   8.687 -0.9771  1.0702  1.0780
19721SOL     OW62567  10.287   9.229   2.951  0.5943 -0.1962  0.1400
19721SOL    HW162568  10.324   9.272   3.028  0.5493 -1.0504  0.6406
19721SOL    HW262569  10.354   9.238   2.884  0.0089  1.9341 -0.2170
19722SOL     OW62570   4.441   0.083   5.399 -0.4125 -0.3767 -0.3782
19722SOL    HW162571   4.359   0.035   5.413 -1.1723  0.8596 -0.4903
19722SOL    HW262572   4.489   0.073   5.481 -1.2943  0.0337  0.2107
19723SOL     OW62573   0.961   7.314   0.875 -0.2419 -0.1448 -0.0526
19723SOL    HW162574   1.034   7.353   0.827  0.8986 -1.5255  0.5100
19723SOL    HW262575   0.994   7.304   0.964 -1.9505  1.3585  0.7715
19724SOL     OW62576   8.976   9.432   7.883  0.1177  0.2527 -0.1052
19724SOL    HW162577   9.046   9.482   7.924 -0.7547  0.7143  0.8394
19724SOL    HW262578   9.021   9.366   7.831  1.2537  0.4253  0.6422
19725SOL     OW62579   3.698   7.822   2.261  0.0567 -0.2220  0.5459
19725SOL    HW162580   3.737   7.737   2.281 -0.5002 -1.1277 -2.1253
19725SOL    HW262581   3.768   7.871   2.219  0.0218  0.2472  1.0209
19726SOL     OW62582   6.892  10.364   7.465  0.2791 -0.0225 -0.4110
19726SOL    HW162583   6.901  10.410   7.549  0.3972  2.2121 -1.6177
19726SOL    HW262584   6.952  10.409   7.406  1.3351 -2.5545 -1.3321
19727SOL     OW62585   0.061  10.551  10.326 -0.1808 -0.5014 -0.0308
19727SOL    HW162586   0.015  10.529  10.408 -0.9084 -0.1234 -0.3371
19727SOL    HW262587   0.040  10.478  10.267 -0.2084 -0.4336 -0.1047
19728SOL     OW62588   1.438   4.794   2.840  0.6328  0.7733 -0.2293
19728SOL    HW162589   1.422   4.804   2.934  0.1645 -1.0292 -0.0985
19728SOL    HW262590   1.533   4.782   2.833  0.3120 -3.1880  0.4878
19729SOL     OW62591  10.239   7.001   4.014  0.1462  0.4485  0.7107
19729SOL    HW162592  10.258   6.936   3.947 -0.5246  1.6860 -0.7225
19729SOL    HW262593  10.204   6.951   4.087  1.1571 -0.9621  0.2541
19730SOL     OW62594   8.584   0.593  10.513  0.0419 -0.7661  0.2715
19730SOL    HW162595   8.552   0.664  10.568 -1.7828 -1.1868 -0.1972
19730SOL    HW262596   8.559   0.513  10.559 -0.5101 -1.1089 -0.6006
19731SOL     OW62597   5.669   1.287   0.183  0.6804 -0.0452  0.1276
19731SOL    HW162598   5.672   1.218   0.250  1.8848 -0.3050 -0.1934
19731SOL    HW262599   5.753   1.281   0.138  0.4291  1.0464 -0.5029
19732SOL     OW62600   1.686   1.140   9.410  0.4928  0.6508  0.2241
19732SOL    HW162601   1.610   1.131   9.353  0.3879 -0.1749  0.4862
19732SOL    HW262602   1.655   1.113   9.496  0.7693  1.4574  0.5827
19733SOL     OW62603   0.896  10.505   8.298 -0.5095  0.1378  0.1369
19733SOL    HW162604   0.857  10.568   8.358 -0.8993 -0.0237  0.0564
19733SOL    HW262605   0.893  10.421   8.345  0.4358  0.2623  0.4284
19734SOL     OW62606   4.620   8.566   4.688 -0.2376  0.3108  0.1775
19734SOL    HW162607   4.684   8.610   4.633  0.5427 -1.0162  0.0108
19734SOL    HW262608   4.658   8.569   4.776  1.3116 -2.7182 -0.3211
19735SOL     OW62609  10.463  10.823   6.003 -0.2050 -0.0521 -0.0547
19735SOL    HW162610  10.385  10.805   5.950 -0.0598 -0.2572 -0.2006
19735SOL    HW262611  10.429  10.868   6.081 -0.5577 -0.8921  0.2789
19736SOL     OW62612   5.087   8.744   1.900  0.0456 -0.2330  0.4955
19736SOL    HW162613   5.092   8.716   1.991  0.7457 -2.1839 -0.1131
19736SOL    HW262614   5.169   8.713   1.861 -0.9554 -0.8524 -1.1724
19737SOL     OW62615   7.523   0.257   6.017 -0.3142 -0.0887 -0.3578
19737SOL    HW162616   7.586   0.229   5.951 -0.8718 -1.0992 -0.4750
19737SOL    HW262617   7.529   0.191   6.085  1.3350  1.7500  1.3298
19738SOL     OW62618   9.003   9.812   0.617 -0.5365 -0.1403  0.3299
19738SOL    HW162619   9.073   9.790   0.555 -0.4854  0.6403  0.1111
19738SOL    HW262620   8.977   9.727   0.654  0.6620 -0.4345  0.5560
19739SOL     OW62621   3.617   2.435   9.582  0.1300 -0.2043  0.3753
19739SOL    HW162622   3.570   2.352   9.588 -1.5698  0.8780  2.7610
19739SOL    HW262623   3.678   2.433   9.655  2.1213 -0.5408 -1.2622
19740SOL     OW62624   4.242   9.036   5.091  0.8890 -0.5738 -0.3952
19740SOL    HW162625   4.335   9.056   5.093  0.7300  0.1276  2.8194
19740SOL    HW262626   4.232   8.959   5.147 -0.6252  0.3064  0.5950
19741SOL     OW62627   5.379   7.648   2.307  0.0902 -0.2329  0.6333
19741SOL    HW162628   5.422   7.583   2.363  0.5315 -0.4127  0.0845
19741SOL    HW262629   5.288   7.619   2.303  0.1641 -0.4993  0.8509
19742SOL     OW62630   3.056  10.320   2.207  0.2327 -0.0328  0.4712
19742SOL    HW162631   3.134  10.358   2.246  2.3399  0.3798 -3.9019
19742SOL    HW262632   2.994  10.393   2.202  0.6331  0.3616  1.1287
19743SOL     OW62633   8.547   0.498   0.884 -0.6084 -0.0990  0.0875
19743SOL    HW162634   8.626   0.551   0.872 -1.3669  1.1339  0.4921
19743SOL    HW262635   8.496   0.545   0.951 -1.0653 -1.5907  0.8112
19744SOL     OW62636   1.153  10.027   2.107  0.4247  0.0629 -0.9650
19744SOL    HW162637   1.166   9.990   2.020 -0.3509 -1.6601 -0.3801
19744SOL    HW262638   1.058  10.031   2.117  0.4576 -1.8566  0.6150
19745SOL     OW62639   0.341   0.581   9.125  0.2556 -0.1483 -0.5780
19745SOL    HW162640   0.411   0.595   9.189 -0.7032  0.2048  0.4166
19745SOL    HW262641   0.386   0.559   9.044  1.5548  0.9484 -0.1723
19746SOL     OW62642   4.405   0.690   5.904 -0.4102  0.6312 -0.3227
19746SOL    HW162643   4.440   0.737   5.828  1.4756  0.2347  0.2518
19746SOL    HW262644   4.483   0.672   5.958 -1.6927  0.8133  1.6361
19747SOL     OW62645   8.554   8.955   2.298  0.3699 -0.2593  0.4886
19747SOL    HW162646   8.491   8.904   2.350  0.5060 -1.2332 -0.2895
19747SOL    HW262647   8.632   8.900   2.295  0.5644  0.0557 -0.2436
19748SOL     OW62648   9.702   7.531   0.977 -0.1574  0.7505  0.4043
19748SOL    HW162649   9.703   7.448   1.025 -0.9874  0.4636 -0.0618
19748SOL    HW262650   9.770   7.584   1.019  1.1081 -0.5407  0.0093
19749SOL     OW62651   2.897   8.100   6.528 -0.1848  0.1074 -0.0804
19749SOL    HW162652   2.881   8.097   6.433  0.2365  0.7737 -0.1788
19749SOL    HW262653   2.924   8.011   6.551  1.3848  0.3571 -0.8937
19750SOL     OW62654   8.193   9.245   9.081  0.1833 -0.0029  0.5428
19750SOL    HW162655   8.218   9.321   9.132 -0.9256  1.0080 -0.3881
19750SOL    HW262656   8.275   9.208   9.049  0.6029  2.5516 -1.4870
19751SOL     OW62657   5.447   7.155   7.542  0.0091 -0.2701  0.4796
19751SOL    HW162658   5.429   7.234   7.594 -1.3874  0.7350 -1.4545
19751SOL    HW262659   5.385   7.090   7.574  0.2598 -0.1698  1.1750
19752SOL     OW62660   2.552   2.080   0.010  0.1315  0.0557 -0.1182
19752SOL    HW162661   2.531   2.160   0.057  1.1330  0.8461 -0.9914
19752SOL    HW262662   2.639   2.056   0.041 -0.7094 -1.4673  1.1533
19753SOL     OW62663   9.327   3.973   2.994 -0.2157 -0.2516  0.5352
19753SOL    HW162664   9.252   3.941   3.043  0.5941 -1.3771  1.0692
19753SOL    HW262665   9.307   4.065   2.975 -2.4324 -0.9632 -0.7353
19754SOL     OW62666   1.690   9.143   9.883  0.2709  0.1691 -0.4677
19754SOL    HW162667   1.619   9.086   9.910  2.9571 -2.1213  2.1333
19754SOL    HW262668   1.702   9.124   9.789 -1.9338 -0.0203 -0.7266
19755SOL     OW62669  10.014   2.607   6.667  0.1532  0.3134  0.2078
19755SOL    HW162670   9.961   2.632   6.742 -1.4654  0.9723 -1.1181
19755SOL    HW262671  10.047   2.689   6.631 -2.1237  0.3392 -1.9544
19756SOL     OW62672   4.377   9.521   9.025  0.1055  0.1309 -0.6817
19756SOL    HW162673   4.427   9.556   8.952  0.2853 -3.0146 -2.1046
19756SOL    HW262674   4.441   9.512   9.096  0.5033  0.5514 -0.9837
19757SOL     OW62675   6.422   4.133   5.821 -0.2819 -0.1754 -0.0744
19757SOL    HW162676   6.440   4.067   5.754 -1.8868  0.7866 -1.4931
19757SOL    HW262677   6.326   4.139   5.823 -0.1652  2.1648 -0.0401
19758SOL     OW62678   9.189   1.198   3.321 -0.0076  0.3349 -0.0500
19758SOL    HW162679   9.262   1.156   3.367 -0.5978  0.6354  1.1896
19758SOL    HW262680   9.116   1.195   3.384 -1.1339 -0.1493 -1.3377
19759SOL     OW62681  10.294   9.481   1.397 -0.2670 -0.4168  0.0235
19759SOL    HW162682  10.342   9.419   1.341 -0.0634  0.0115 -0.2842
19759SOL    HW262683  10.231   9.522   1.338  0.5573  0.6865 -0.1061
19760SOL     OW62684   5.198   0.422   1.062 -0.1831  0.0526  0.3968
19760SOL    HW162685   5.260   0.374   1.007 -1.3280 -0.5845 -0.3787
19760SOL    HW262686   5.252   0.462   1.130  1.0864 -0.3667 -0.3370
19761SOL     OW62687   8.551   8.158   8.936 -0.3659 -0.3346 -0.0335
19761SOL    HW162688   8.584   8.248   8.944  1.0682 -0.7926 -0.5193
19761SOL    HW262689   8.498   8.145   9.014  0.4556  0.5251  0.6869
19762SOL     OW62690   1.168   4.218   9.075  0.2541 -0.3906  1.1313
19762SOL    HW162691   1.101   4.243   9.012  0.5010  1.6032  1.6431
19762SOL    HW262692   1.126   4.151   9.129 -0.3530 -1.2594 -0.3735
19763SOL     OW62693   0.844   0.334   4.939 -0.0483 -0.3972 -0.3250
19763SOL    HW162694   0.809   0.253   4.976  0.6690 -1.4820 -1.9552
19763SOL    HW262695   0.834   0.324   4.844 -1.1543  2.0012 -0.4943
19764SOL     OW62696   5.460   3.464   9.144  0.4553 -0.5981 -0.0481
19764SOL    HW162697   5.379   3.506   9.115  1.0644 -0.3676 -1.4307
19764SOL    HW262698   5.431   3.383   9.185 -0.4592 -0.7351 -0.9329
19765SOL     OW62699   3.582   4.652   5.570  0.1627 -0.4330 -0.1774
19765SOL    HW162700   3.626   4.585   5.517  0.0863  0.0452 -0.8592
19765SOL    HW262701   3.530   4.701   5.507  0.7476  0.6892  0.2104
19766SOL     OW62702   8.920   9.049   0.719  0.4011  0.2008 -0.0195
19766SOL    HW162703   8.825   9.037   0.719  0.4134 -0.0083 -1.6472
19766SOL    HW262704   8.940   9.084   0.632  1.9654 -1.0520 -0.1987
19767SOL     OW62705  10.168   6.441   8.592  0.0576 -0.2052 -0.0562
19767SOL    HW162706  10.134   6.499   8.525  0.7953  0.5118  0.1769
19767SOL    HW262707  10.153   6.488   8.674 -0.7863 -1.0469  0.2738
19768SOL     OW62708   1.705   6.647  10.946 -0.8305 -0.1109 -0.2936
19768SOL    HW162709   1.704   6.719  10.882 -1.8449 -1.0205 -1.3099
19768SOL    HW262710   1.756   6.578  10.904 -1.4089 -0.6750 -0.0745
19769SOL     OW62711   5.394   3.875   3.338 -0.2079 -0.4297  0.0932
19769SOL    HW162712   5.473   3.823   3.321  0.3193 -0.5798  2.8277
19769SOL    HW262713   5.322   3.819   3.310  0.5069 -1.5265  0.4033
19770SOL     OW62714   4.249   6.942   0.227 -0.1243  0.4349 -0.2005
19770SOL    HW162715   4.162   6.977   0.208 -0.4393 -0.1542  0.1193
19770SOL    HW262716   4.245   6.919   0.320 -0.8773 -3.0753 -1.0212
19771SOL     OW62717   4.052   5.419   9.552  0.1387  0.7986 -0.1056
19771SOL    HW162718   4.142   5.449   9.562  0.1406  0.6708  0.2923
19771SOL    HW262719   4.007   5.490   9.507  0.7460  0.3281 -1.5025
19772SOL     OW62720   3.747   3.685   8.932  0.5941 -0.5631  0.5870
19772SOL    HW162721   3.813   3.635   8.885  0.6776  0.8655 -0.8638
19772SOL    HW262722   3.768   3.777   8.912 -1.0942 -0.0536  1.1009
19773SOL     OW62723   7.887   2.474   3.334 -0.6325  0.6560 -0.1837
19773SOL    HW162724   7.916   2.556   3.294 -0.2050  1.3288  1.4842
19773SOL    HW262725   7.870   2.496   3.425 -1.1905 -0.9574  0.1168
19774SOL     OW62726   3.528   2.109   0.715 -0.3571  0.1249 -0.0918
19774SOL    HW162727   3.593   2.178   0.722  0.0335 -0.3372  0.9604
19774SOL    HW262728   3.563   2.049   0.649 -1.3640  1.6244 -2.0488
19775SOL     OW62729   3.274   3.059   0.563  0.0514 -0.0025  0.2423
19775SOL    HW162730   3.255   3.089   0.474  0.5635  1.1327  0.5034
19775SOL    HW262731   3.275   3.140   0.616  0.6723 -0.5658  1.1052
19776SOL     OW62732   6.074   9.914   9.752  0.1833  0.3822  0.1226
19776SOL    HW162733   6.021   9.990   9.775 -1.2865 -0.7690  0.6670
19776SOL    HW262734   6.034   9.880   9.672  1.2790  0.6006 -0.5217
19777SOL     OW62735   2.930   2.757   8.984  0.2519  0.5846 -0.1997
19777SOL    HW162736   2.946   2.825   9.049  0.2040  1.6822 -1.3295
19777SOL    HW262737   3.000   2.767   8.920 -0.4091  0.3084 -0.9759
19778SOL     OW62738   5.560  10.220   0.016 -0.1839 -0.2629  0.2901
19778SOL    HW162739   5.596  10.164   0.085 -0.3215 -0.0557  0.5311
19778SOL    HW262740   5.470  10.237   0.043 -0.1466  0.0671  0.2137
19779SOL     OW62741   7.836   3.274   1.418 -0.1380  0.6541  0.4485
19779SOL    HW162742   7.854   3.266   1.324 -0.7697 -0.8783  0.4289
19779SOL    HW262743   7.844   3.367   1.437 -0.6589  1.0691 -1.2775
19780SOL     OW62744   1.390   4.018   5.114  0.4092 -0.3436 -0.3283
19780SOL    HW162745   1.448   4.077   5.065 -0.3953 -1.1879 -2.3464
19780SOL    HW262746   1.351   4.074   5.181 -0.1413  1.3876 -2.0525
19781SOL     OW62747   6.847  10.811   7.975  0.0499  0.5380  0.0927
19781SOL    HW162748   6.925  10.837   8.025 -0.7397  1.0351  1.0938
19781SOL    HW262749   6.854  10.715   7.968  0.9565  0.6180 -0.1872
19782SOL     OW62750   5.775   7.160   7.678  0.2755  0.4946 -0.3476
19782SOL    HW162751   5.810   7.102   7.611  0.7254  1.0855 -0.6285
19782SOL    HW262752   5.853   7.190   7.726  0.0068  0.5253  0.0693
19783SOL     OW62753  10.072   7.250   6.142  0.1753 -0.2355 -0.5427
19783SOL    HW162754  10.053   7.217   6.054  0.3502  1.1676 -1.1134
19783SOL    HW262755   9.990   7.237   6.190  0.0123 -0.8054 -0.9691
19784SOL     OW62756   5.523   6.302   7.223  1.2322  0.2591 -0.5694
19784SOL    HW162757   5.578   6.238   7.177 -0.2166  0.5190 -2.7977
19784SOL    HW262758   5.441   6.254   7.239  0.8357  0.9503 -0.5227
19785SOL     OW62759   4.199   7.261   3.964 -0.0368 -0.2496  0.0870
19785SOL    HW162760   4.203   7.250   4.059 -0.9963  3.5748  0.6756
19785SOL    HW262761   4.290   7.276   3.938  0.0212  0.4566  0.6870
19786SOL     OW62762   3.017  10.058   2.138  0.3546  0.2555 -0.1024
19786SOL    HW162763   3.035  10.152   2.142  0.3241  0.2296  0.6921
19786SOL    HW262764   2.924  10.052   2.116  0.2188  0.4089  0.4438
19787SOL     OW62765   3.432  10.630   6.093  0.0031  0.0696 -0.5401
19787SOL    HW162766   3.341  10.618   6.118  0.4335 -1.4015  0.3774
19787SOL    HW262767   3.431  10.705   6.033 -1.7762  0.1268 -0.4552
19788SOL     OW62768  10.828   5.365   0.083 -0.1991  0.2403  0.0704
19788SOL    HW162769  10.812   5.295   0.020 -1.2738  0.7652 -0.2543
19788SOL    HW262770  10.778   5.340   0.160 -0.8757  0.8224 -0.1745
19789SOL     OW62771   3.675   4.931   5.289 -0.4533  0.2015  0.3253
19789SOL    HW162772   3.610   4.972   5.346  1.3741  3.2540  0.2585
19789SOL    HW262773   3.748   4.911   5.347 -0.3868 -0.8465 -0.1119
19790SOL     OW62774   2.247   7.951   1.154 -0.1749 -0.3833 -0.2365
19790SOL    HW162775   2.303   7.919   1.224 -0.9218  0.8729  0.9565
19790SOL    HW262776   2.263   7.891   1.081  0.5920 -1.7222  1.0071
19791SOL     OW62777   8.555   0.294   0.124  0.4960  0.0606  0.4591
19791SOL    HW162778   8.486   0.329   0.067  1.9355  1.7390 -0.3075
19791SOL    HW262779   8.508   0.237   0.186 -1.3202 -0.3765 -1.2559
19792SOL     OW62780   5.454   5.022   1.081  0.1140 -0.5868 -0.6106
19792SOL    HW162781   5.468   5.088   1.013 -0.2538  0.1212 -0.0110
19792SOL    HW262782   5.426   5.073   1.157  2.0662 -1.2033  0.5510
19793SOL     OW62783   8.315   7.619   4.672  0.5003  0.1074  0.4258
19793SOL    HW162784   8.393   7.673   4.668  0.7321 -0.3311 -1.3936
19793SOL    HW262785   8.243   7.678   4.648  0.7177 -0.2971 -1.2821
19794SOL     OW62786   9.321   2.822   5.508 -0.5194  0.7631  0.4210
19794SOL    HW162787   9.242   2.779   5.475 -1.2541  0.4523  2.5101
19794SOL    HW262788   9.393   2.769   5.473 -1.1692  1.2599 -1.8061
19795SOL     OW62789   2.641   3.606   2.955 -0.0347 -0.1885  0.0908
19795SOL    HW162790   2.618   3.516   2.933  1.5528 -0.2634 -1.4032
19795SOL    HW262791   2.613   3.617   3.046 -1.2694 -1.8211 -0.0770
19796SOL     OW62792   5.272   5.817   2.073  0.1048  0.6722 -1.1170
19796SOL    HW162793   5.247   5.909   2.081  0.8962  0.7688  0.4368
19796SOL    HW262794   5.352   5.809   2.125 -1.7343 -1.5905  1.5176
19797SOL     OW62795   4.032   7.538   2.882  0.1592 -0.0628 -0.8732
19797SOL    HW162796   3.951   7.584   2.902 -0.4610 -0.8886 -1.4461
19797SOL    HW262797   4.070   7.518   2.967 -0.3649  0.1200 -0.5962
19798SOL     OW62798   3.784   6.327   3.443  0.4514 -0.5600  0.0181
19798SOL    HW162799   3.789   6.327   3.347 -2.5011  1.4553 -0.2053
19798SOL    HW262800   3.818   6.412   3.469  0.3700 -0.7244  0.6770
19799SOL     OW62801   0.778   4.261   4.867  0.1801 -0.3393  0.5053
19799SOL    HW162802   0.746   4.172   4.853 -0.5288 -0.0865  0.5041
19799SOL    HW262803   0.807   4.289   4.781 -0.4183 -0.2515  0.3301
19800SOL     OW62804   7.051  10.689   0.876  0.0415  0.3128 -0.0186
19800SOL    HW162805   6.957  10.670   0.882 -0.5470  2.8569 -0.5012
19800SOL    HW262806   7.056  10.764   0.817  2.5001 -0.4984 -0.8726
19801SOL     OW62807   6.883  10.227   1.973 -0.5045  0.3110  0.0206
19801SOL    HW162808   6.873  10.134   1.996 -1.6700  0.8471  1.7824
19801SOL    HW262809   6.948  10.260   2.035 -1.5655  1.1272  0.7018
19802SOL     OW62810   8.433   9.200   5.167 -0.3933 -0.0890  0.7536
19802SOL    HW162811   8.405   9.292   5.176 -1.4773 -0.1575 -1.4812
19802SOL    HW262812   8.527   9.202   5.183 -0.1581  1.6635 -0.6593
19803SOL     OW62813   1.735  10.882   8.617  0.1566  0.0186  0.0668
19803SOL    HW162814   1.794  10.953   8.591  0.0539 -0.1123 -0.5478
19803SOL    HW262815   1.648  10.916   8.599 -0.0945  1.0135  2.9501
19804SOL     OW62816   2.335  10.390   9.870  0.0513  0.2308 -0.5427
19804SOL    HW162817   2.348  10.371   9.963 -1.2072 -1.3297 -0.6679
19804SOL    HW262818   2.405  10.342   9.826 -0.0181  0.0836 -0.4913
19805SOL     OW62819   2.949   1.520   1.281 -0.2728 -0.0981  0.1267
19805SOL    HW162820   3.014   1.496   1.216 -2.5901 -0.7024 -2.0528
19805SOL    HW262821   2.955   1.451   1.348  1.0254 -0.3469 -0.2331
19806SOL     OW62822   8.846   6.748  10.599 -0.9000  0.5876  0.4421
19806SOL    HW162823   8.926   6.721  10.644 -1.1025 -3.3614 -1.3087
19806SOL    HW262824   8.876   6.796  10.522 -0.1656 -0.4987  0.0261
19807SOL     OW62825   3.204   5.751   4.462 -0.1758 -0.8396  0.5011
19807SOL    HW162826   3.187   5.830   4.410  0.4861 -0.9454  0.1164
19807SOL    HW262827   3.294   5.728   4.441 -0.4569 -1.8642  0.3917
19808SOL     OW62828   4.409   9.999   4.173 -0.1466 -0.3590  0.3445
19808SOL    HW162829   4.499   9.966   4.176 -0.5207 -1.2240  2.9733
19808SOL    HW262830   4.418  10.094   4.170  0.8483 -0.3483  2.8455
19809SOL     OW62831   2.189   9.075  10.657 -0.3701  0.0633 -0.0392
19809SOL    HW162832   2.143   9.149  10.616  0.8735  0.9065  0.0725
19809SOL    HW262833   2.122   9.007  10.664 -0.9605  0.3869 -2.2040
19810SOL     OW62834  10.384   8.066   7.661  0.1257  0.4697  1.1207
19810SOL    HW162835  10.398   7.983   7.616  1.3347  0.4325  1.5398
19810SOL    HW262836  10.335   8.043   7.740 -1.6737  0.4874  0.0355
19811SOL     OW62837   0.805   3.814   0.070 -0.0442 -0.3617 -0.0249
19811SOL    HW162838   0.729   3.814   0.013  1.9035  0.9608 -2.7340
19811SOL    HW262839   0.773   3.776   0.152 -3.5025 -0.1278 -1.1708
19812SOL     OW62840   0.256   6.220   6.543  0.1874 -0.0681  0.1850
19812SOL    HW162841   0.287   6.255   6.460  1.1320 -2.0000 -0.3148
19812SOL    HW262842   0.254   6.295   6.602  0.7468  1.0755 -1.2213
19813SOL     OW62843   1.655   2.766   4.922 -0.3536  0.5803 -0.2943
19813SOL    HW162844   1.627   2.800   4.837 -1.3163 -0.9673 -0.5963
19813SOL    HW262845   1.743   2.733   4.905  0.0523  1.6306 -0.3196
19814SOL     OW62846   3.064   7.825   2.960  0.2768  0.3786 -0.0754
19814SOL    HW162847   3.107   7.753   2.914 -0.5431 -0.0822 -0.1286
19814SOL    HW262848   3.080   7.902   2.906 -0.1497 -0.0439 -0.8012
19815SOL     OW62849   6.530   2.271   2.459  0.6038 -0.0144 -0.5361
19815SOL    HW162850   6.462   2.208   2.435 -0.2172  0.5998  0.1730
19815SOL    HW262851   6.487   2.332   2.518  2.3621 -0.9834  1.8168
19816SOL     OW62852   2.611   7.767   3.910 -0.0460  0.2657 -0.0729
19816SOL    HW162853   2.585   7.740   3.822 -0.1002 -0.2046  0.0851
19816SOL    HW262854   2.672   7.840   3.895 -0.9505  0.9445 -0.4526
19817SOL     OW62855  10.936  10.617   3.529  0.3244  0.4855  0.8781
19817SOL    HW162856  10.876  10.665   3.472 -0.0672  0.5584  1.3427
19817SOL    HW262857  10.885  10.598   3.607 -0.3526 -3.0315 -0.3376
19818SOL     OW62858   1.734  10.527   7.818 -0.6675 -0.0269  0.1070
19818SOL    HW162859   1.735  10.436   7.844 -1.9092 -0.7619 -2.2378
19818SOL    HW262860   1.790  10.530   7.741 -3.6672  0.3703 -2.1670
19819SOL     OW62861   6.958   8.410  10.853 -0.1879  0.7359 -0.0914
19819SOL    HW162862   6.867   8.396  10.828  0.0705 -0.2433 -0.5158
19819SOL    HW262863   6.967   8.363  10.936  0.4238 -0.8537 -1.0271
19820SOL     OW62864   3.918   1.939   7.161 -0.5270 -0.1440  0.2260
19820SOL    HW162865   3.834   1.931   7.116 -0.5955 -0.3049  0.3789
19820SOL    HW262866   3.918   2.028   7.196 -0.6022 -0.1189  0.1619
19821SOL     OW62867   8.246   4.801   0.633  0.5650 -0.6789 -0.0117
19821SOL    HW162868   8.200   4.721   0.607  0.4087 -0.3560 -0.7397
19821SOL    HW262869   8.182   4.871   0.618  0.6542 -0.4320  0.7548
19822SOL     OW62870   0.562   9.984   4.543 -0.3910  0.7408 -0.2064
19822SOL    HW162871   0.603   9.899   4.524 -0.8643 -0.0556  2.1287
19822SOL    HW262872   0.468   9.967   4.541 -0.5358  1.5970 -1.3015
19823SOL     OW62873   1.952   4.719   9.298 -0.6142 -0.3532 -0.1201
19823SOL    HW162874   2.042   4.688   9.307 -0.3305  0.1328 -1.1363
19823SOL    HW262875   1.928   4.751   9.385  0.5333  0.3822 -0.0586
19824SOL     OW62876   1.596   3.229   9.506  0.4032  0.8671  0.3040
19824SOL    HW162877   1.689   3.248   9.498  0.3532  1.8348  1.6839
19824SOL    HW262878   1.591   3.152   9.562  0.3698  1.1952  0.7617
19825SOL     OW62879   3.901   7.315   5.784  0.2342  0.4165 -0.0745
19825SOL    HW162880   3.918   7.269   5.702  1.1745 -1.5393  1.2149
19825SOL    HW262881   3.895   7.247   5.850  1.3129  2.0995  1.8214
19826SOL     OW62882   9.741   4.204   2.826  0.1868 -0.1554 -0.2717
19826SOL    HW162883   9.738   4.273   2.893  2.3793  0.7189 -1.0111
19826SOL    HW262884   9.714   4.125   2.872 -3.9990  1.4245  0.2026
19827SOL     OW62885   6.409   1.119   3.456 -0.3135  0.1570  0.5614
19827SOL    HW162886   6.387   1.203   3.496 -1.1509 -0.4713  1.4368
19827SOL    HW262887   6.501   1.105   3.477  0.1450  1.3873 -0.5638
19828SOL     OW62888   7.525   4.385   8.433  0.5258 -0.2258  0.0432
19828SOL    HW162889   7.478   4.466   8.412  0.1933 -0.8633 -1.7948
19828SOL    HW262890   7.587   4.374   8.361 -1.3463 -3.0373 -1.2155
19829SOL     OW62891  10.648   6.057  10.806  0.5402 -0.2628 -0.1762
19829SOL    HW162892  10.622   6.014  10.887  1.1948 -1.5445 -0.6342
19829SOL    HW262893  10.576   6.039  10.745  0.1508  0.5126  0.0438
19830SOL     OW62894  10.292   4.699   1.279 -0.3838  0.3876 -0.6422
19830SOL    HW162895  10.360   4.760   1.308  0.7979 -1.4908  0.6626
19830SOL    HW262896  10.209   4.744   1.298  0.4557  1.5449  0.3452
19831SOL     OW62897   1.746   8.811   4.510 -0.5055  0.3885  0.6297
19831SOL    HW162898   1.769   8.854   4.428 -0.2406  0.7991  0.9189
19831SOL    HW262899   1.750   8.880   4.576 -0.2526 -0.0417  1.0706
19832SOL     OW62900   0.070   1.635  10.473 -0.0573  0.0194  0.4284
19832SOL    HW162901   0.120   1.560  10.441  0.5003  0.6956 -0.3083
19832SOL    HW262902   0.082   1.632  10.568  0.1427 -0.6933  0.3832
19833SOL     OW62903   6.787  10.656   0.925 -0.3331  0.0100  0.3764
19833SOL    HW162904   6.709  10.671   0.978  0.1054  3.2143  0.2410
19833SOL    HW262905   6.758  10.669   0.835 -0.3796 -2.3336  0.0135
19834SOL     OW62906   4.794   7.881   3.887  0.1111 -0.0532 -0.1337
19834SOL    HW162907   4.774   7.800   3.934 -0.5349 -0.7072 -1.5064
19834SOL    HW262908   4.889   7.890   3.895  0.3871 -1.7376 -1.1992
19835SOL     OW62909   8.818   3.021   7.252 -0.2104  0.2617  0.0028
19835SOL    HW162910   8.879   3.015   7.325 -0.6656  0.4968  0.4044
19835SOL    HW262911   8.742   2.971   7.280  0.5243 -1.6654 -1.2516
19836SOL     OW62912   7.029   1.468   8.095 -0.5947 -0.6392 -0.1939
19836SOL    HW162913   7.049   1.497   8.006 -0.2610  0.5315  0.2620
19836SOL    HW262914   6.934   1.472   8.101 -0.6900 -1.5746 -0.7726
19837SOL     OW62915   5.448   3.653  10.271 -0.3231  0.3179  0.2125
19837SOL    HW162916   5.388   3.725  10.289  1.7834  2.5924 -1.6171
19837SOL    HW262917   5.441   3.638  10.177  0.8298 -0.4688  0.2398
19838SOL     OW62918   2.489   2.054   2.765 -0.1145  0.5401 -0.0227
19838SOL    HW162919   2.501   1.987   2.698 -0.7726 -1.4233  1.7798
19838SOL    HW262920   2.578   2.077   2.793  0.0582 -1.3314  1.0244
19839SOL     OW62921  10.243   5.552   9.795  0.1727  0.8272  0.4331
19839SOL    HW162922  10.240   5.457   9.779 -0.9074  0.6261  1.7507
19839SOL    HW262923  10.336   5.574   9.792  0.4232 -0.2658  0.0312
19840SOL     OW62924   2.902   4.901   0.269 -0.4070  0.1909  0.4464
19840SOL    HW162925   2.981   4.939   0.307  0.5434 -1.5761  0.2707
19840SOL    HW262926   2.897   4.937   0.181  0.0575  0.4888  0.5425
19841SOL     OW62927  10.947   2.079   5.657  0.0345  0.4736 -0.0565
19841SOL    HW162928  10.859   2.047   5.638  1.3376 -2.3359 -1.6988
19841SOL    HW262929  10.942   2.111   5.747 -1.8717 -2.6909  1.0203
19842SOL     OW62930   5.868   2.851   5.097 -0.2664 -0.1515 -0.0976
19842SOL    HW162931   5.879   2.939   5.061  0.3723 -0.6295 -1.0939
19842SOL    HW262932   5.912   2.853   5.182  1.7320 -0.1338 -1.0966
19843SOL     OW62933   6.159   3.492   1.654 -0.2646 -0.0250 -0.0568
19843SOL    HW162934   6.203   3.415   1.619 -2.9817 -1.2131 -0.9906
19843SOL    HW262935   6.136   3.467   1.744 -1.2763 -0.3737 -0.4080
19844SOL     OW62936   1.453   9.739   5.103  0.5199  0.0238 -0.0352
19844SOL    HW162937   1.402   9.693   5.169 -1.0630  2.1367  0.2565
19844SOL    HW262938   1.485   9.670   5.045  0.3862 -1.6751  1.8469
19845SOL     OW62939   5.788   5.984  10.232 -0.0436  0.2521  0.0360
19845SOL    HW162940   5.770   6.042  10.158  1.4830  0.2801 -0.3258
19845SOL    HW262941   5.737   5.905  10.214 -1.0451  0.9369 -0.1638
19846SOL     OW62942   0.544   7.020   0.593 -0.0484 -0.1864 -0.0004
19846SOL    HW162943   0.637   7.006   0.612 -0.2341  0.0346  1.0504
19846SOL    HW262944   0.536   7.000   0.499  1.2846  0.9314 -0.3646
19847SOL     OW62945   8.147   9.832  10.620 -0.8815  0.6419  0.0914
19847SOL    HW162946   8.217   9.882  10.663 -0.2514 -2.0526  2.3303
19847SOL    HW262947   8.192   9.784  10.550 -0.6010 -0.5015  1.0440
19848SOL     OW62948   2.085   5.135   6.449 -0.1014  0.0872  0.2519
19848SOL    HW162949   2.104   5.179   6.366 -1.0580 -0.5859 -0.3257
19848SOL    HW262950   2.000   5.171   6.477  0.0095 -0.0087  0.7250
19849SOL     OW62951   4.503   4.572   6.918  0.2631 -0.8612  0.5229
19849SOL    HW162952   4.549   4.517   6.855  0.8421 -0.7937  0.8794
19849SOL    HW262953   4.414   4.538   6.919  0.5886 -1.7244  0.6529
19850SOL     OW62954   6.383   0.143   4.259  0.1230 -0.3494  0.0009
19850SOL    HW162955   6.294   0.107   4.260 -0.2601  0.6109  1.1873
19850SOL    HW262956   6.394   0.183   4.345  0.5174  2.3633 -1.2222
19851SOL     OW62957   6.263   7.845   4.018 -0.1693  0.5240  0.4787
19851SOL    HW162958   6.239   7.863   4.109 -0.5849  0.3088  0.4110
19851SOL    HW262959   6.182   7.813   3.977 -0.5251  2.6238 -0.5162
19852SOL     OW62960   0.548   3.311   9.539  0.0275 -0.0428 -0.1193
19852SOL    HW162961   0.533   3.216   9.538 -0.9865  0.1148 -1.4756
19852SOL    HW262962   0.642   3.320   9.526  0.2081 -0.8727  0.5316
19853SOL     OW62963  10.163  10.780   2.821 -0.0642  0.2176  0.0035
19853SOL    HW162964  10.234  10.774   2.756 -0.8345 -0.6490 -0.7757
19853SOL    HW262965  10.208  10.779   2.905  0.8923  0.2809 -0.4933
19854SOL     OW62966   1.932  10.766   2.223 -0.1714  0.4635 -0.0966
19854SOL    HW162967   2.006  10.826   2.219  0.4466 -0.1397  1.8089
19854SOL    HW262968   1.954  10.696   2.161 -0.2793  1.4842 -1.3164
19855SOL     OW62969   5.083   0.170   4.752 -0.2799 -0.1805 -0.1678
19855SOL    HW162970   5.021   0.201   4.686 -0.7824  1.2669  0.9462
19855SOL    HW262971   5.164   0.155   4.705 -1.1520 -0.9492 -1.4378
19856SOL     OW62972   4.834   7.110   5.163 -0.3180  0.0072 -0.2502
19856SOL    HW162973   4.924   7.111   5.195 -0.3528 -1.8278 -0.0520
19856SOL    HW262974   4.829   7.032   5.107 -2.4720 -1.4348  1.8185
19857SOL     OW62975   0.729   2.027   4.479  0.4280  1.3533  0.3128
19857SOL    HW162976   0.796   2.045   4.412 -1.0142 -0.0774 -1.5897
19857SOL    HW262977   0.653   2.077   4.450 -1.0641 -1.3735 -0.6567
19858SOL     OW62978   4.287   7.822   3.806 -0.4936 -0.1133 -0.5960
19858SOL    HW162979   4.268   7.861   3.721 -1.4633  0.2028 -0.2367
19858SOL    HW262980   4.347   7.885   3.847 -1.1083  0.4071 -0.4961
19859SOL     OW62981  10.361   8.579   6.207 -0.0163 -0.7912  0.1184
19859SOL    HW162982  10.274   8.548   6.182  0.3170 -1.1782 -0.5734
19859SOL    HW262983  10.392   8.628   6.131  1.1887 -2.3475 -0.4308
19860SOL     OW62984   9.944   1.475   5.009  0.1374 -0.2368  0.4251
19860SOL    HW162985   9.937   1.525   5.090  0.4934 -0.5311  0.6394
19860SOL    HW262986   9.998   1.530   4.952 -1.4142  0.6908 -0.1835
19861SOL     OW62987  10.087   8.284   4.000  0.4834 -0.3071 -0.0496
19861SOL    HW162988  10.026   8.352   3.972 -0.2950 -0.8457  0.3114
19861SOL    HW262989  10.074   8.213   3.937  0.6445 -0.4754  0.1078
19862SOL     OW62990   6.950   1.927   4.666  0.0838  0.5661  0.0818
19862SOL    HW162991   6.919   1.970   4.586 -1.6449 -1.6763 -0.4818
19862SOL    HW262992   6.990   1.846   4.637  0.5787  0.3147  1.4000
19863SOL     OW62993   3.319   1.347   3.689 -0.0684 -0.4554  0.0097
19863SOL    HW162994   3.324   1.438   3.718 -1.3307 -0.3088 -0.2239
19863SOL    HW262995   3.407   1.328   3.656 -0.2981  1.2859 -1.7155
19864SOL     OW62996   2.076   8.895   6.169  0.0936 -0.2079  0.4156
19864SOL    HW162997   2.066   8.990   6.170 -0.5344 -0.2658 -0.4982
19864SOL    HW262998   2.154   8.879   6.221  0.8621  0.8818 -0.3938
19865SOL     OW62999   5.906   2.373   7.233  0.0778  0.2633  0.1495
19865SOL    HW163000   5.832   2.421   7.270 -0.6664 -1.0472  0.3882
19865SOL    HW263001   5.869   2.326   7.158  0.9683  0.6519 -0.5462
19866SOL     OW63002   6.434   4.627   2.791 -0.6934 -0.8560  0.1296
19866SOL    HW163003   6.419   4.564   2.721 -0.6789  0.3180 -0.9539
19866SOL    HW263004   6.515   4.597   2.833  0.8444 -0.0665 -2.1131
19867SOL     OW63005   3.243   2.817   3.340 -0.1737 -0.3337 -0.2212
19867SOL    HW163006   3.260   2.871   3.263 -2.0748 -1.2830 -1.3471
19867SOL    HW263007   3.198   2.875   3.401  2.5503  0.8005  0.7698
19868SOL     OW63008  10.802   9.775   4.968  0.0886  0.5129  0.6261
19868SOL    HW163009  10.711   9.752   4.949  0.0892  1.6305 -0.8941
19868SOL    HW263010  10.818   9.852   4.914  1.9333  0.3541  0.9264
19869SOL     OW63011   4.505   3.101   0.988  0.2009  0.0354 -0.6343
19869SOL    HW163012   4.485   3.149   1.069 -0.0355 -0.3697 -0.4510
19869SOL    HW263013   4.597   3.121   0.971 -0.0226  0.9453 -0.8238
19870SOL     OW63014   7.836   0.746   1.211  0.4015  0.2581  0.6396
19870SOL    HW163015   7.796   0.711   1.290 -0.7260 -1.3105 -0.6021
19870SOL    HW263016   7.774   0.812   1.180 -0.0853 -0.4840  0.0229
19871SOL     OW63017   8.759   8.397   5.973 -0.6010  0.2584  0.1177
19871SOL    HW163018   8.705   8.450   6.031 -1.4409 -0.6399  0.1640
19871SOL    HW263019   8.780   8.455   5.900 -2.3479  0.3526 -0.3290
19872SOL     OW63020   4.136  10.406   4.080  0.0641  0.2770  0.0049
19872SOL    HW163021   4.097  10.376   4.162 -1.9794  0.6954 -0.7785
19872SOL    HW263022   4.061  10.426   4.024  1.4292 -1.0113 -2.3454
19873SOL     OW63023   2.822   8.097   6.270  0.2081 -0.4048 -0.0277
19873SOL    HW163024   2.906   8.054   6.252  1.9864  1.7436  2.7341
19873SOL    HW263025   2.836   8.189   6.246 -0.5083  0.4695  2.6657
19874SOL     OW63026   4.359   5.107   7.355  0.2177  0.4359  0.5589
19874SOL    HW163027   4.431   5.074   7.302 -0.6397 -0.4305 -0.0846
19874SOL    HW263028   4.335   5.190   7.313 -1.4359 -0.9516 -1.3572
19875SOL     OW63029  10.063   8.748   5.918  0.3990 -0.0041 -0.5254
19875SOL    HW163030   9.993   8.691   5.950 -0.4807 -0.1185 -2.5840
19875SOL    HW263031  10.078   8.809   5.990 -0.9479 -0.7550  0.4300
19876SOL     OW63032   6.949   9.092   7.237 -0.2542 -0.5720  0.3049
19876SOL    HW163033   6.998   9.013   7.259  1.2349 -0.0907 -1.2137
19876SOL    HW263034   6.919   9.077   7.147 -2.8127 -0.7943  1.1510
19877SOL     OW63035   2.609   5.724   9.754  0.1162  0.3167 -0.1881
19877SOL    HW163036   2.596   5.701   9.661  0.5006  0.4769 -0.2824
19877SOL    HW263037   2.703   5.714   9.768 -0.2723 -2.3140  0.8795
19878SOL     OW63038  10.210   6.771   8.580  0.1034  0.2972  0.5072
19878SOL    HW163039  10.155   6.809   8.512  0.3999  0.3585  0.2974
19878SOL    HW263040  10.280   6.727   8.532 -0.6035 -1.0931  0.7345
19879SOL     OW63041   5.233   1.569   0.655 -0.0777  0.8956 -0.0120
19879SOL    HW163042   5.322   1.544   0.631  0.1770  1.5091  0.2890
19879SOL    HW263043   5.178   1.500   0.618  0.6459 -0.3712  1.2261
19880SOL     OW63044  10.508   7.764   5.108 -0.4520 -0.8144  0.5345
19880SOL    HW163045  10.440   7.785   5.044 -0.8957 -1.5384  0.7479
19880SOL    HW263046  10.462   7.768   5.192  0.5538  1.9433  0.9992
19881SOL     OW63047   1.701   4.420   1.405  0.2506  0.4853 -0.2929
19881SOL    HW163048   1.726   4.491   1.463  1.6782  0.5139 -0.9319
19881SOL    HW263049   1.782   4.373   1.387 -0.7920 -1.8849  0.8571
19882SOL     OW63050   5.678  10.231   4.458  0.0179 -0.2833 -0.2455
19882SOL    HW163051   5.618  10.161   4.482 -1.7208  1.2943  0.1227
19882SOL    HW263052   5.734  10.243   4.535  0.3243 -1.2423 -0.3117
19883SOL     OW63053   9.536   9.273   8.119  0.2295 -0.3761 -0.0397
19883SOL    HW163054   9.608   9.220   8.154  1.6433  2.4225  1.4153
19883SOL    HW263055   9.463   9.255   8.178  0.0878 -2.1429 -0.6964
19884SOL     OW63056   1.248   2.544   4.662 -0.3841 -0.2904  0.1635
19884SOL    HW163057   1.248   2.449   4.649 -1.7951 -0.3598  0.6531
19884SOL    HW263058   1.246   2.556   4.757  0.2281  0.2311  0.1140
19885SOL     OW63059   2.356   4.485   7.518 -0.3260  0.4795  0.0829
19885SOL    HW163060   2.281   4.539   7.542 -1.1387 -0.4575 -0.3110
19885SOL    HW263061   2.347   4.406   7.571  0.8970  0.7484  0.7151
19886SOL     OW63062   7.787   2.043  10.322  0.1306 -0.3228  0.4551
19886SOL    HW163063   7.728   1.970  10.344 -0.2740  0.3598  1.7099
19886SOL    HW263064   7.731   2.121  10.325  0.2548 -0.1055 -2.2928
19887SOL     OW63065   2.929  10.606   8.881 -0.3004 -0.0883  0.0781
19887SOL    HW163066   2.917  10.562   8.965  1.7873 -1.4179 -0.2601
19887SOL    HW263067   2.998  10.670   8.898  1.5632 -1.7424 -1.0563
19888SOL     OW63068   9.435   3.347   5.928  0.2848  0.2868 -0.4318
19888SOL    HW163069   9.369   3.296   5.881  0.7054 -0.5876 -0.0773
19888SOL    HW263070   9.514   3.338   5.875  0.7041 -0.5265  0.3217
19889SOL     OW63071   4.735   3.188   3.941  0.2692 -0.6387 -0.1624
19889SOL    HW163072   4.775   3.185   4.028  1.1230 -0.0634 -0.5313
19889SOL    HW263073   4.679   3.110   3.938  3.2295 -2.8167 -0.5260
19890SOL     OW63074   8.200   5.205   4.075 -0.1454  0.3839  0.1142
19890SOL    HW163075   8.176   5.279   4.131 -1.5854  0.3251 -0.3949
19890SOL    HW263076   8.132   5.140   4.090  0.0623 -0.0702 -0.8696
19891SOL     OW63077   7.347   7.136   5.997 -0.4176 -0.3572 -0.0150
19891SOL    HW163078   7.278   7.185   6.042 -0.2423  1.7199 -1.9142
19891SOL    HW263079   7.315   7.126   5.908  1.4206 -0.0051 -0.7295
19892SOL     OW63080   3.459   9.274   8.953 -0.1798 -0.3840 -0.2955
19892SOL    HW163081   3.538   9.327   8.940 -1.5226  1.5242 -0.9241
19892SOL    HW263082   3.476   9.193   8.906  2.0482 -0.6699  0.9278
19893SOL     OW63083   7.708   7.049   2.282 -0.0310  0.0055 -0.4097
19893SOL    HW163084   7.746   6.969   2.318  0.5611  0.5539  0.2001
19893SOL    HW263085   7.623   7.021   2.247  0.3075 -0.9456 -0.4910
19894SOL     OW63086  10.288   6.757   2.680  0.5178 -0.6464 -0.0928
19894SOL    HW163087  10.310   6.795   2.765 -0.3362 -0.2050 -0.0684
19894SOL    HW263088  10.252   6.830   2.629  2.8307 -0.4490 -1.5160
19895SOL     OW63089   2.344   6.251   2.017  0.2064  0.3287 -0.4177
19895SOL    HW163090   2.391   6.313   1.961  0.7562 -0.3375 -0.7046
19895SOL    HW263091   2.299   6.306   2.081 -0.4593  1.0945 -1.5268
19896SOL     OW63092   5.479   5.977   1.543  0.0416 -0.0533  0.2091
19896SOL    HW163093   5.487   5.882   1.529  0.0000 -0.0195 -0.0632
19896SOL    HW263094   5.466   5.987   1.637 -0.9555 -0.3854  0.1120
19897SOL     OW63095   3.592   9.412   0.688  0.9065 -0.1185 -0.1952
19897SOL    HW163096   3.637   9.366   0.758 -2.7528 -1.7838  1.1637
19897SOL    HW263097   3.631   9.377   0.608  2.9675 -0.4560  0.9046
19898SOL     OW63098   2.536   1.184   6.641 -0.6452 -0.4080 -0.0369
19898SOL    HW163099   2.620   1.148   6.672 -0.1873 -0.0481 -0.8360
19898SOL    HW263100   2.470   1.135   6.689 -0.0048 -1.8398 -0.5771
19899SOL     OW63101   5.417  10.903   8.316 -0.4061 -0.0834  0.2994
19899SOL    HW163102   5.509  10.905   8.345 -0.2560 -0.1623 -0.1649
19899SOL    HW263103   5.419  10.852   8.235 -0.7201  0.7405 -0.2315
19900SOL     OW63104   3.235   5.369   5.587  0.0919  0.6779 -0.6910
19900SOL    HW163105   3.166   5.435   5.573 -0.1462  1.0031  1.7050
19900SOL    HW263106   3.314   5.420   5.604 -0.2836  0.4108  2.0895
19901SOL     OW63107   2.619   7.309   9.253  0.0864 -0.0262  0.0069
19901SOL    HW163108   2.668   7.352   9.183 -1.5874  2.8215  0.4682
19901SOL    HW263109   2.659   7.341   9.334 -0.7101  0.1005  0.3615
19902SOL     OW63110   0.957   2.494   4.312  0.2190  0.5734  0.0761
19902SOL    HW163111   0.963   2.534   4.399  0.9032  1.4983 -0.3945
19902SOL    HW263112   0.878   2.441   4.316  0.0399  0.9151  1.1510
19903SOL     OW63113   0.202   9.580   5.944 -0.2301 -0.8845 -0.0903
19903SOL    HW163114   0.224   9.502   5.892 -0.0513 -0.7131 -0.2737
19903SOL    HW263115   0.217   9.553   6.035 -0.8011 -1.2716 -0.1062
19904SOL     OW63116   7.717   2.797  10.512 -0.5660  0.3276  0.0243
19904SOL    HW163117   7.631   2.837  10.500 -0.0867  1.0891 -1.0563
19904SOL    HW263118   7.704   2.727  10.576 -2.2507 -0.4519 -1.1539
19905SOL     OW63119  10.623   0.611   7.135  0.3785 -0.5067 -0.2344
19905SOL    HW163120  10.609   0.562   7.217 -2.0958  1.4143  0.5724
19905SOL    HW263121  10.672   0.688   7.162 -1.1479  0.5398 -0.3873
19906SOL     OW63122  10.205   5.051   2.076  0.0408  0.5733 -0.0373
19906SOL    HW163123  10.261   5.110   2.126  1.0040  0.7520 -1.2941
19906SOL    HW263124  10.130   5.034   2.133  0.3422  2.0455  0.8133
19907SOL     OW63125   1.661   5.913   5.429 -0.5905 -0.0910  0.5107
19907SOL    HW163126   1.719   5.988   5.443  1.9053 -1.4792 -1.8576
19907SOL    HW263127   1.578   5.952   5.401  0.7346  1.8218 -0.9139
19908SOL     OW63128   6.090   3.134   9.426 -0.9364 -0.1095  0.4376
19908SOL    HW163129   6.043   3.080   9.361  0.4569  1.1649 -1.6922
19908SOL    HW263130   6.048   3.220   9.419 -2.3586 -0.5546  2.9782
19909SOL     OW63131   0.255   1.207   8.909  0.2389  0.5677 -0.4796
19909SOL    HW163132   0.314   1.135   8.884 -0.0668  0.0927  0.1586
19909SOL    HW263133   0.314   1.278   8.935  0.5369  0.3490 -0.5504
19910SOL     OW63134   3.932   4.913  10.450 -0.6208 -0.7396  0.1436
19910SOL    HW163135   3.840   4.891  10.466 -0.3068 -1.7042  0.6699
19910SOL    HW263136   3.958   4.965  10.526 -0.8417 -0.0968 -0.2118
19911SOL     OW63137   6.476  10.657   3.186 -0.7130  0.1684 -0.2973
19911SOL    HW163138   6.514  10.610   3.112 -0.8210 -0.1619 -0.1433
19911SOL    HW263139   6.546  10.662   3.250  0.1335  2.5554 -1.3586
19912SOL     OW63140   6.063   2.572   7.005  0.5042  0.0383  0.5875
19912SOL    HW163141   5.980   2.597   7.046  1.4497  3.6195  0.4440
19912SOL    HW263142   6.112   2.653   6.997  3.1086 -1.6328 -1.4921
19913SOL     OW63143   5.778   5.965   9.353 -0.0377 -0.1958 -0.0943
19913SOL    HW163144   5.768   5.871   9.366  0.0290 -0.1177  0.5205
19913SOL    HW263145   5.859   5.974   9.303  0.5033 -0.4090  0.7259
19914SOL     OW63146  10.035   6.158   6.767  0.1365  0.7577  0.5955
19914SOL    HW163147  10.111   6.191   6.815  0.5899 -0.4200  0.7016
19914SOL    HW263148  10.053   6.065   6.755 -0.7908  0.6895 -0.3232
19915SOL     OW63149  10.921   4.042   4.904 -0.4273 -0.5001  0.1092
19915SOL    HW163150  10.856   3.999   4.847 -1.6892 -0.6203  1.6068
19915SOL    HW263151  11.005   4.023   4.863 -1.1114 -2.8325 -0.2859
19916SOL     OW63152   1.448   4.154   5.472 -0.0798 -0.2844  0.0363
19916SOL    HW163153   1.392   4.129   5.546 -0.5514  1.0815  0.1543
19916SOL    HW263154   1.388   4.157   5.397  0.3496 -1.4237 -0.3676
19917SOL     OW63155   5.812   9.011   1.465 -0.2572 -0.4224  0.3069
19917SOL    HW163156   5.824   9.064   1.387 -0.7565 -1.4954 -0.5117
19917SOL    HW263157   5.815   8.921   1.433 -0.8216 -0.8628  1.4748
19918SOL     OW63158   8.494   2.251   7.163  0.3594  0.4689  0.1620
19918SOL    HW163159   8.431   2.321   7.149 -0.2232  0.2943  1.8498
19918SOL    HW263160   8.444   2.170   7.151  0.7441  0.3291 -0.5437
19919SOL     OW63161  10.200  10.624   4.267  0.6405 -0.9254 -0.7550
19919SOL    HW163162  10.225  10.550   4.213 -2.3324 -1.7598 -1.0877
19919SOL    HW263163  10.147  10.679   4.209  3.4540  1.9053 -0.7574
19920SOL     OW63164   7.734   2.559   4.941  0.3318  0.2092 -0.0847
19920SOL    HW163165   7.664   2.567   5.007  0.0431 -1.1843 -0.2232
19920SOL    HW263166   7.798   2.625   4.967 -0.4011  0.5761  0.8305
19921SOL     OW63167   4.582   7.322   2.933 -0.3697 -0.3950 -0.2120
19921SOL    HW163168   4.533   7.239   2.932  0.3431 -0.8192 -1.2457
19921SOL    HW263169   4.578   7.351   3.024 -1.9560 -0.7625 -0.1359
19922SOL     OW63170   1.960   6.001   7.613 -0.1100 -0.2571 -0.4453
19922SOL    HW163171   1.917   6.079   7.646  0.7279 -0.1860  0.5046
19922SOL    HW263172   1.983   5.951   7.691 -0.0964 -1.1619 -1.0172
19923SOL     OW63173   7.019   5.955   2.249  0.0289  0.6175 -0.3251
19923SOL    HW163174   7.059   5.889   2.193  0.3669  0.0846  0.5344
19923SOL    HW263175   6.926   5.954   2.227 -0.2816 -1.4399  0.9666
19924SOL     OW63176  10.427   6.856   2.249  0.2203 -0.4987 -0.1213
19924SOL    HW163177  10.360   6.801   2.208  1.9243 -1.5787 -1.4796
19924SOL    HW263178  10.487   6.878   2.178  0.3737  1.9216  0.7222
19925SOL     OW63179   0.460   8.063   1.577  0.4332  0.1445 -0.0754
19925SOL    HW163180   0.457   7.968   1.564  2.7954 -0.3685  2.5643
19925SOL    HW263181   0.370   8.087   1.600 -0.7228 -1.0123 -3.1875
19926SOL     OW63182   0.273   0.464   0.807  0.3741  0.0962  0.3274
19926SOL    HW163183   0.239   0.462   0.718 -0.5188  1.0843  0.6439
19926SOL    HW263184   0.223   0.397   0.854  0.3819  0.0454  0.2640
19927SOL     OW63185   8.140  10.752   9.903  0.9184 -0.1850 -0.0090
19927SOL    HW163186   8.123  10.841   9.932  0.2959  1.0997 -3.9858
19927SOL    HW263187   8.071  10.699   9.942  0.1433  1.4135  0.7897
19928SOL     OW63188   2.577   2.270   3.784  0.4260  0.3090 -0.2750
19928SOL    HW163189   2.580   2.342   3.721  0.6670  0.5415 -0.0021
19928SOL    HW263190   2.647   2.211   3.756  0.8107  0.6228  0.0255
19929SOL     OW63191   8.449   5.253   3.626 -0.0312 -0.1102  0.8047
19929SOL    HW163192   8.422   5.165   3.651  0.3996 -0.7100 -0.7562
19929SOL    HW263193   8.402   5.271   3.545  2.4182 -0.2557 -0.7149
19930SOL     OW63194   2.834   9.478   2.106 -0.4157  0.4106 -0.4642
19930SOL    HW163195   2.885   9.559   2.114  0.2540  0.1931 -2.4460
19930SOL    HW263196   2.744   9.505   2.126 -0.1792  1.6188 -1.0027
19931SOL     OW63197   9.386  10.519   4.577 -0.5881 -0.1530  0.6030
19931SOL    HW163198   9.435  10.599   4.596 -0.1030 -0.2276 -0.2995
19931SOL    HW263199   9.322  10.545   4.510 -0.6051 -0.4512  0.5026
19932SOL     OW63200   5.502   8.039   5.744 -0.3345  0.1876  0.5446
19932SOL    HW163201   5.493   8.113   5.803 -1.2397  0.9208 -0.4918
19932SOL    HW263202   5.539   7.969   5.798 -0.0217  1.2102  1.6660
19933SOL     OW63203  10.846   0.210  10.913 -0.0685  0.0073  0.0889
19933SOL    HW163204  10.765   0.254  10.889  0.0026  0.4041  0.5720
19933SOL    HW263205  10.837   0.190  11.006  0.3640  0.0124  0.1370
19934SOL     OW63206   5.795   7.163   8.177  0.4358  0.3552 -0.0731
19934SOL    HW163207   5.740   7.139   8.103 -0.7460 -1.9050  1.4918
19934SOL    HW263208   5.843   7.083   8.199 -0.6498  0.4027  2.7748
19935SOL     OW63209   3.891   8.450   3.144 -0.2646  0.4040 -0.0268
19935SOL    HW163210   3.864   8.376   3.197 -0.1547  0.3829  0.0019
19935SOL    HW263211   3.849   8.436   3.059  0.3936 -0.1041 -0.2711
19936SOL     OW63212   9.593   4.802   6.029 -0.5252 -0.5281 -1.1865
19936SOL    HW163213   9.531   4.746   5.983  0.2816 -2.0302 -0.4699
19936SOL    HW263214   9.635   4.745   6.093 -0.2246  1.0626  0.0955
19937SOL     OW63215   4.849   9.751   2.296 -0.0310  0.3025  1.0048
19937SOL    HW163216   4.846   9.761   2.201 -0.4492  1.8280  1.1617
19937SOL    HW263217   4.817   9.663   2.313 -0.0651  0.0699 -0.2677
19938SOL     OW63218  10.946   8.413  10.193  0.4470  0.1262 -0.0694
19938SOL    HW163219  10.950   8.438  10.285  0.1180 -0.5243  0.1253
19938SOL    HW263220  10.853   8.402  10.174  0.6233 -1.8586  0.1120
19939SOL     OW63221   4.860   5.460   8.376  0.2877  0.4129 -0.0127
19939SOL    HW163222   4.822   5.452   8.464  1.3515  0.8011  0.4883
19939SOL    HW263223   4.784   5.463   8.318 -0.3906 -1.5783  0.7395
19940SOL     OW63224   6.230   8.651   3.485 -0.5641 -0.0274 -0.1883
19940SOL    HW163225   6.279   8.696   3.415 -0.9709  1.1035  0.2417
19940SOL    HW263226   6.142   8.689   3.481 -0.7340 -0.3366  0.5985
19941SOL     OW63227   0.907  10.330   8.803  0.1043 -0.3714  0.1900
19941SOL    HW163228   0.924  10.246   8.846  0.0491 -0.2421  0.4671
19941SOL    HW263229   0.839  10.371   8.857 -0.4717 -0.5190 -0.4217
19942SOL     OW63230   6.261   0.094   0.964  0.0047 -0.2326  0.0439
19942SOL    HW163231   6.171   0.060   0.966  0.1849 -0.8162 -1.4529
19942SOL    HW263232   6.287   0.087   0.872  0.7749  2.0493  0.0564
19943SOL     OW63233   3.604   2.941   0.621 -0.1634  0.0627  0.1556
19943SOL    HW163234   3.690   2.942   0.662  0.3187  1.2417 -0.8268
19943SOL    HW263235   3.573   2.850   0.629  0.9222 -0.2280  1.0107
19944SOL     OW63236   2.736   1.932   0.866  0.1572 -0.0569 -0.0275
19944SOL    HW163237   2.822   1.891   0.864  0.7262  1.0523  1.2813
19944SOL    HW263238   2.727   1.965   0.955 -0.2826  2.6391 -1.0213
19945SOL     OW63239   8.247  10.874   0.017  0.3447 -0.2782  0.0884
19945SOL    HW163240   8.328  10.878  -0.034  0.5646 -0.2051  0.4435
19945SOL    HW263241   8.276  10.859   0.107 -0.0380 -0.3194  0.2061
19946SOL     OW63242   7.711   6.971   0.964 -0.2806 -0.0923  0.1400
19946SOL    HW163243   7.688   6.981   0.872  1.8555 -0.9528 -0.5235
19946SOL    HW263244   7.724   6.877   0.976 -0.4871  0.0183  1.3037
19947SOL     OW63245  10.629   7.990   2.744  0.1714  0.0675 -0.4192
19947SOL    HW163246  10.635   7.906   2.698 -0.6920 -0.0803 -0.2839
19947SOL    HW263247  10.564   8.039   2.694 -0.1586  0.2231  0.1576
19948SOL     OW63248   7.953   6.843   5.716  0.2340 -0.4464  0.5588
19948SOL    HW163249   7.996   6.803   5.640  1.0857  1.3486  0.0714
19948SOL    HW263250   7.904   6.917   5.679 -1.9417 -1.4378  1.3384
19949SOL     OW63251   1.463   0.044   0.722 -0.0530  0.1941  0.2848
19949SOL    HW163252   1.412   0.123   0.737 -0.7085  0.2399 -2.0143
19949SOL    HW263253   1.511   0.061   0.641 -0.6285 -1.9477 -0.5515
19950SOL     OW63254   3.051   7.850   3.600 -0.4816 -0.5176  0.2286
19950SOL    HW163255   3.104   7.775   3.574 -2.1008 -1.1414 -1.3666
19950SOL    HW263256   3.079   7.920   3.540  0.5683 -0.0073  1.2918
19951SOL     OW63257   3.359   3.669   2.574  0.2727  0.0486 -0.6102
19951SOL    HW163258   3.326   3.667   2.484 -0.8169  0.1240 -0.2160
19951SOL    HW263259   3.395   3.757   2.585 -2.9728  1.3434  0.2082
19952SOL     OW63260   7.524   6.254   5.412  0.8712  0.4493  0.3320
19952SOL    HW163261   7.599   6.228   5.359  0.0961  0.8373 -0.9871
19952SOL    HW263262   7.448   6.231   5.357 -0.0127 -0.9237  2.0747
19953SOL     OW63263   0.910   0.058   1.364 -0.0313 -0.0520 -0.1658
19953SOL    HW163264   0.916   0.066   1.459 -0.7081  0.7592 -0.1879
19953SOL    HW263265   0.820   0.028   1.348 -0.2011  0.6800 -0.5975
19954SOL     OW63266   4.423   3.155   7.174 -0.3271  0.6645 -0.2680
19954SOL    HW163267   4.333   3.185   7.181  0.5469  3.4184 -0.1433
19954SOL    HW263268   4.428   3.112   7.089 -1.6941  0.6770 -0.3570
19955SOL     OW63269   9.722   2.201   0.123  0.0793 -0.5337  0.1463
19955SOL    HW163270   9.754   2.240   0.042  0.7317 -1.1413  0.1024
19955SOL    HW263271   9.663   2.131   0.094  1.8539 -2.0782  0.1266
19956SOL     OW63272   9.131   8.439   5.802  0.7142  0.0529  0.2862
19956SOL    HW163273   9.188   8.444   5.724  0.3903  0.9309  0.1001
19956SOL    HW263274   9.097   8.350   5.800 -0.4601  0.5085 -1.4172
19957SOL     OW63275   8.072   5.028   0.628 -0.5865 -0.2487 -0.6626
19957SOL    HW163276   8.101   5.081   0.554  0.2500  0.0705 -0.1123
19957SOL    HW263277   8.049   5.092   0.695 -2.3939 -0.5110 -1.0295
19958SOL     OW63278   8.458   1.567   9.714  0.2857 -0.4059  0.6757
19958SOL    HW163279   8.491   1.483   9.747 -0.8186 -1.3874 -0.6653
19958SOL    HW263280   8.526   1.630   9.737  2.1010 -2.0203 -0.1237
19959SOL     OW63281   2.922   3.874  10.168 -0.0311  0.5030 -0.0021
19959SOL    HW163282   2.895   3.964  10.148 -0.6151  0.1303 -0.8990
19959SOL    HW263283   2.887   3.822  10.096  1.1349 -0.3111  0.0203
19960SOL     OW63284   5.137   2.176   2.885 -0.2723  0.1750 -0.2618
19960SOL    HW163285   5.045   2.202   2.891 -0.7398 -1.3622 -0.5415
19960SOL    HW263286   5.155   2.170   2.791  0.4579  1.6428 -0.2209
19961SOL     OW63287   7.405  10.972   8.047 -0.0663  0.6155  0.1193
19961SOL    HW163288   7.325  11.016   8.020 -0.0219  0.3601 -0.4428
19961SOL    HW263289   7.446  11.032   8.109 -0.4078  1.0046 -0.0295
19962SOL     OW63290  10.326   9.525   2.236  0.1039  0.2679 -0.4903
19962SOL    HW163291  10.254   9.464   2.221  0.2370 -0.6931  2.3901
19962SOL    HW263292  10.285   9.611   2.235 -0.9555 -0.2122  0.1817
19963SOL     OW63293   3.789   7.306   7.862  0.0197  0.2347  0.2361
19963SOL    HW163294   3.823   7.374   7.804  0.9596  0.1018  0.6263
19963SOL    HW263295   3.799   7.341   7.950 -0.3451 -0.0348  0.3866
19964SOL     OW63296   6.121   6.722  10.870  0.2114  0.0157 -0.4129
19964SOL    HW163297   6.088   6.812  10.872  0.9909  0.2897  0.1274
19964SOL    HW263298   6.045   6.668  10.893 -0.6587  0.4146 -2.2686
19965SOL     OW63299   6.426   9.361   5.556  0.2349  0.2672  0.2368
19965SOL    HW163300   6.401   9.413   5.480  1.6479 -0.8681 -1.0528
19965SOL    HW263301   6.414   9.270   5.528  2.3838 -0.2105  0.7419
19966SOL     OW63302   2.078   0.428   3.749  0.0711 -0.3027  0.6104
19966SOL    HW163303   2.138   0.358   3.725  0.2568  0.0935 -0.1183
19966SOL    HW263304   2.002   0.383   3.786  1.3712 -0.7446  2.8310
19967SOL     OW63305   4.817   6.096   8.076  0.0788  0.7067  0.4997
19967SOL    HW163306   4.724   6.088   8.054  0.1700 -0.4754  0.4864
19967SOL    HW263307   4.860   6.027   8.025  0.9058  0.9824  0.8146
19968SOL     OW63308   6.220   6.379   3.182 -0.0506 -0.1943 -0.1571
19968SOL    HW163309   6.175   6.415   3.105 -1.8344 -0.2608  0.8129
19968SOL    HW263310   6.242   6.289   3.157 -1.1741 -0.4155 -0.3849
19969SOL     OW63311   6.468   7.391   7.144 -0.1739 -0.0025  0.4130
19969SOL    HW163312   6.477   7.486   7.149  2.0324 -0.2660  2.4356
19969SOL    HW263313   6.512   7.366   7.063 -2.4391  0.8336 -1.1289
19970SOL     OW63314   7.974   3.890   4.008  0.0225 -0.2782 -0.1094
19970SOL    HW163315   7.885   3.895   4.041 -0.1283 -0.0341 -0.5405
19970SOL    HW263316   8.005   3.804   4.034 -1.2039 -1.3541 -2.0950
19971SOL     OW63317   0.028   1.843   8.355  0.6076  0.0959  0.5214
19971SOL    HW163318  -0.001   1.776   8.294  0.2171  2.0657 -1.5106
19971SOL    HW263319   0.123   1.848   8.343  0.6749 -0.2829  0.8803
19972SOL     OW63320   1.446   3.092   6.702  0.0038 -0.4330  0.0906
19972SOL    HW163321   1.426   3.184   6.685  0.5746 -0.4559 -0.7230
19972SOL    HW263322   1.360   3.050   6.709 -0.2668 -0.5037 -3.2099
19973SOL     OW63323   3.524   3.473   4.870 -0.3938 -0.4645 -0.5927
19973SOL    HW163324   3.605   3.446   4.828  0.2184  1.1304 -0.4766
19973SOL    HW263325   3.537   3.452   4.963  0.6384  1.4577 -0.2785
19974SOL     OW63326  10.361   9.257   5.145  0.3672 -0.2923  0.2487
19974SOL    HW163327  10.400   9.341   5.120 -3.3328  0.5794 -3.1059
19974SOL    HW263328  10.425   9.191   5.117  1.1010  1.2297 -1.7580
19975SOL     OW63329  10.700   3.150   8.870 -0.3371 -0.3053  0.4165
19975SOL    HW163330  10.656   3.065   8.865  0.2810 -0.6405  0.6083
19975SOL    HW263331  10.758   3.142   8.945 -0.1908  0.2499  0.3624
19976SOL     OW63332   7.851   1.944  10.008  0.1328  0.2823  0.1484
19976SOL    HW163333   7.794   1.868  10.017  1.0543 -0.5189 -0.6133
19976SOL    HW263334   7.910   1.940  10.083  0.4871 -0.0305 -0.1429
19977SOL     OW63335   1.719   3.880   7.232  0.0744  0.6552  0.0034
19977SOL    HW163336   1.628   3.859   7.213  0.5219  0.6103 -2.2358
19977SOL    HW263337   1.742   3.825   7.307 -1.4154 -0.1365 -0.1149
19978SOL     OW63338   2.145   2.218   8.883  0.1560 -0.3763  0.2268
19978SOL    HW163339   2.059   2.232   8.923 -0.2998 -1.5500 -0.3317
19978SOL    HW263340   2.177   2.137   8.923  0.2063 -0.9229 -0.9061
19979SOL     OW63341   7.507   9.616   0.402 -0.3304 -0.0240 -0.0164
19979SOL    HW163342   7.598   9.589   0.395 -0.1584  0.4711  0.3306
19979SOL    HW263343   7.485   9.604   0.494 -0.1394  1.3791  0.2235
19980SOL     OW63344   7.991   6.702   3.932 -0.4592  0.0489  0.3330
19980SOL    HW163345   8.085   6.715   3.948 -0.3677  0.3295 -0.4345
19980SOL    HW263346   7.976   6.610   3.954 -0.1103  0.1385  0.9641
19981SOL     OW63347   1.642   3.074   8.291  0.1590  0.2924 -0.1328
19981SOL    HW163348   1.582   3.014   8.334  0.7628 -0.4696 -0.3372
19981SOL    HW263349   1.602   3.092   8.206  1.6062 -2.5002 -1.4519
19982SOL     OW63350  10.079  10.029  10.177 -0.1022  0.1896  0.0267
19982SOL    HW163351  10.002  10.080  10.205 -0.8217 -1.7869  1.7824
19982SOL    HW263352  10.055   9.994  10.092 -0.8825  0.1821  0.2405
19983SOL     OW63353  10.642   4.772   2.793  0.0336  0.0227  0.4204
19983SOL    HW163354  10.708   4.784   2.861  1.1063 -0.9509 -0.4338
19983SOL    HW263355  10.589   4.852   2.797  2.3220  1.6022 -0.0312
19984SOL     OW63356   1.720   4.886   2.238 -0.7234  0.5400 -0.1164
19984SOL    HW163357   1.805   4.874   2.280  0.6303  2.6480 -2.1206
19984SOL    HW263358   1.668   4.810   2.265  1.5596 -0.4227  1.6797
19985SOL     OW63359   7.614   9.722   6.258 -0.2379  0.3568  0.1237
19985SOL    HW163360   7.596   9.814   6.275  0.9836  0.5753  0.2464
19985SOL    HW263361   7.700   9.706   6.297 -0.6289 -0.9470  0.5014
19986SOL     OW63362   9.508   2.873  10.163  0.1327 -0.5152 -0.2004
19986SOL    HW163363   9.530   2.907  10.076  0.5389 -1.2296 -0.3804
19986SOL    HW263364   9.563   2.923  10.223 -0.2586  0.0871 -0.3339
19987SOL     OW63365   8.600   8.366   5.093 -0.0491  0.3628  0.5861
19987SOL    HW163366   8.670   8.383   5.029 -1.1260 -1.8933 -1.2601
19987SOL    HW263367   8.519   8.376   5.042 -1.0744  1.8987  2.4493
19988SOL     OW63368   6.108  10.599   5.648 -0.1008  0.1940 -0.0009
19988SOL    HW163369   6.184  10.650   5.676  0.7496  1.0332 -3.6106
19988SOL    HW263370   6.086  10.547   5.724  2.4886  1.8423  1.9905
19989SOL     OW63371   6.431   4.010   5.373  0.2194 -0.1967  0.6647
19989SOL    HW163372   6.461   3.919   5.374  0.3232 -0.1638  0.1851
19989SOL    HW263373   6.335   4.004   5.381  0.1325 -0.3821 -0.5638
19990SOL     OW63374   2.693   1.114   9.061 -1.0014  0.7773  0.4601
19990SOL    HW163375   2.608   1.072   9.048 -0.2875 -1.0831  1.5070
19990SOL    HW263376   2.750   1.072   8.997 -1.2136  3.1890 -1.3602
19991SOL     OW63377   2.255   4.881   6.246  0.2123  0.5593 -0.2897
19991SOL    HW163378   2.323   4.843   6.303  0.0411  2.0619  0.9457
19991SOL    HW263379   2.301   4.946   6.194  0.2049 -0.2388 -1.3158
19992SOL     OW63380   3.068   1.302   0.646 -0.1156  0.6746  0.3806
19992SOL    HW163381   2.985   1.259   0.668 -0.9659  1.3371 -1.4536
19992SOL    HW263382   3.087   1.274   0.557  1.3197  1.0222  0.5678
19993SOL     OW63383   8.830   2.598   2.447 -0.2683 -0.0071 -0.0651
19993SOL    HW163384   8.840   2.514   2.492  0.0606 -1.1436 -2.2001
19993SOL    HW263385   8.916   2.616   2.410 -0.9144  0.1104 -1.5626
19994SOL     OW63386   3.290  10.964   6.307 -0.5000  0.1378  0.1188
19994SOL    HW163387   3.205  11.005   6.324  1.1121  3.7895  0.0137
19994SOL    HW263388   3.339  10.978   6.388  1.0387  0.9816 -0.9312
19995SOL     OW63389   8.354   9.003   1.350 -0.2597  0.1621 -0.1562
19995SOL    HW163390   8.333   9.066   1.420  1.5337  0.9396 -0.2870
19995SOL    HW263391   8.279   9.008   1.291 -1.0634  0.7004  0.8748
19996SOL     OW63392   8.915   3.450   0.294  0.3362 -0.5556 -0.2721
19996SOL    HW163393   8.959   3.379   0.248 -0.8519 -1.0654 -0.6441
19996SOL    HW263394   8.933   3.434   0.387  0.7814 -0.8515 -0.4078
19997SOL     OW63395   3.376   3.696   9.038  0.6740  0.3667 -0.6124
19997SOL    HW163396   3.438   3.741   9.095 -0.6733  0.5766  0.7435
19997SOL    HW263397   3.412   3.607   9.030  1.2192  0.5163  0.0551
19998SOL     OW63398   8.654   0.100   4.511 -0.1852 -0.1318 -0.7439
19998SOL    HW163399   8.599   0.126   4.437  1.6968  1.0119 -1.7797
19998SOL    HW263400   8.593   0.091   4.584 -1.4531  3.8024 -1.1781
19999SOL     OW63401   7.546   0.733   0.068  0.0890  0.3324 -0.3218
19999SOL    HW163402   7.629   0.685   0.064  0.5080  1.0454 -0.4024
19999SOL    HW263403   7.549   0.779   0.152  0.2158  1.1292 -0.7589
20000SOL     OW63404   3.586   3.341   2.704  0.2600 -0.5349 -0.6382
20000SOL    HW163405   3.670   3.389   2.704  0.5588 -1.0544 -0.8673
20000SOL    HW263406   3.552   3.355   2.616 -0.9504  1.4979  0.1201
20001SOL     OW63407   3.031   5.214   3.161  0.5084  0.4222  0.1859
20001SOL    HW163408   2.980   5.219   3.242 -0.1590 -1.4420 -0.0856
20001SOL    HW263409   2.968   5.236   3.092  0.9443  1.4770  0.1036
20002SOL     OW63410   8.351   5.681   7.108 -0.5240  0.1122  0.6033
20002SOL    HW163411   8.417   5.612   7.110 -0.6381  0.0422  2.8400
20002SOL    HW263412   8.337   5.698   7.015  0.2370 -2.1723  0.0457
20003SOL     OW63413   9.620   5.063   1.656  0.5433 -0.2566  0.1191
20003SOL    HW163414   9.655   5.028   1.574  1.7628 -0.7839  0.8496
20003SOL    HW263415   9.614   4.987   1.714 -0.9849 -0.0115  0.3017
20004SOL     OW63416   0.927   9.926   0.393  0.5843 -0.2801 -0.2570
20004SOL    HW163417   0.908   9.846   0.443 -0.6111  0.2274  0.1229
20004SOL    HW263418   0.842   9.969   0.385  0.5173 -0.9991 -3.9228
20005SOL     OW63419   0.832   1.022   4.219  0.1331  0.4588  0.1130
20005SOL    HW163420   0.880   1.016   4.301  1.0655 -0.5850 -0.4855
20005SOL    HW263421   0.860   1.105   4.180  0.7659  0.2841  0.1972
20006SOL     OW63422   5.661   8.263   8.708 -0.1455 -0.0671  0.3149
20006SOL    HW163423   5.639   8.283   8.617  0.4133 -1.2515 -0.0906
20006SOL    HW263424   5.576   8.263   8.754 -0.4885 -0.0058 -0.3186
20007SOL     OW63425   7.016   1.977   4.958  0.3743  0.0955  0.1137
20007SOL    HW163426   7.103   1.982   4.998 -0.3385  0.5994  1.6485
20007SOL    HW263427   7.025   2.024   4.875  1.1938  1.4479  0.9559
20008SOL     OW63428   7.150   9.426   7.120  0.3231 -0.0618 -0.2667
20008SOL    HW163429   7.124   9.460   7.206  0.3901 -0.7695  0.0464
20008SOL    HW263430   7.207   9.352   7.141 -0.7475 -1.0931 -0.9008
20009SOL     OW63431   4.853   4.079   2.855 -0.2918  0.0652 -0.0746
20009SOL    HW163432   4.800   4.107   2.781 -0.0335 -1.1255 -0.7236
20009SOL    HW263433   4.942   4.075   2.821 -0.0318  0.4168  0.5517
20010SOL     OW63434   9.083   8.746   7.298  0.2896 -0.0283 -0.0606
20010SOL    HW163435   9.096   8.658   7.261  0.7668  0.3572 -0.8229
20010SOL    HW263436   9.161   8.762   7.350 -0.3932 -0.5810  1.1681
20011SOL     OW63437   8.263   2.873   1.012  0.0674 -0.0338  0.3177
20011SOL    HW163438   8.286   2.871   1.104 -1.7804  1.0808  0.8189
20011SOL    HW263439   8.289   2.960   0.982  1.5095 -0.7070 -0.4680
20012SOL     OW63440   5.733   3.855   4.992 -0.5416  0.2153 -0.0844
20012SOL    HW163441   5.667   3.912   4.952  0.1111  0.6798 -0.5022
20012SOL    HW263442   5.813   3.871   4.942  0.2049  0.5421  1.1766
20013SOL     OW63443   8.413   5.104   7.878 -0.0579  0.1141  0.1249
20013SOL    HW163444   8.493   5.061   7.848 -1.3415 -1.7583 -0.7295
20013SOL    HW263445   8.443   5.188   7.912  2.1451 -0.1007 -1.1270
20014SOL     OW63446   1.909   7.794   5.506  0.3439  0.9098  0.2593
20014SOL    HW163447   1.992   7.837   5.523 -0.3611  2.2904  0.2544
20014SOL    HW263448   1.890   7.814   5.414  0.4406 -0.1523  0.0021
20015SOL     OW63449   9.195   8.279   6.893  0.1056 -0.3843  0.3319
20015SOL    HW163450   9.191   8.347   6.961  1.6883  0.3777 -0.3045
20015SOL    HW263451   9.227   8.325   6.815  0.5164 -1.7135 -0.2986
20016SOL     OW63452   3.734   3.227   2.265  0.8824 -0.1995  0.2428
20016SOL    HW163453   3.820   3.191   2.288  0.9805 -1.2899 -1.7099
20016SOL    HW263454   3.700   3.167   2.198  0.1101  2.1354 -1.5157
20017SOL     OW63455   9.565   9.955   6.480 -0.4153  0.1556  0.1965
20017SOL    HW163456   9.614   9.946   6.562 -0.8326  3.9809  0.9675
20017SOL    HW263457   9.614  10.020   6.430 -1.6663 -0.1173 -1.4211
20018SOL     OW63458   9.660   5.347   9.089 -0.5602 -0.0265 -0.0654
20018SOL    HW163459   9.724   5.276   9.091 -1.3629 -0.7794  3.0611
20018SOL    HW263460   9.713   5.427   9.093  0.2876 -0.5029 -1.4830
20019SOL     OW63461   3.779   1.585   8.758  0.4412  0.2194  0.3034
20019SOL    HW163462   3.792   1.680   8.751 -0.8218  0.3148 -0.9989
20019SOL    HW263463   3.847   1.548   8.702  1.2984  0.3287  1.2643
20020SOL     OW63464   0.521   9.698   8.940 -0.3298 -0.6067 -0.1778
20020SOL    HW163465   0.593   9.656   8.894  1.9996  1.4195  1.4672
20020SOL    HW263466   0.476   9.749   8.873  0.3327 -1.1278 -1.0338
20021SOL     OW63467   8.604   8.188   4.518 -0.0322  0.5421  0.3714
20021SOL    HW163468   8.567   8.138   4.591 -1.6478  0.7341 -0.3142
20021SOL    HW263469   8.606   8.125   4.446 -1.8220  1.3703 -0.4195
20022SOL     OW63470   5.016   6.242   0.637 -0.2400  0.5408  0.4371
20022SOL    HW163471   5.093   6.222   0.691  1.2987  0.1913 -1.8551
20022SOL    HW263472   4.943   6.243   0.700  0.9722 -3.1860  2.0716
20023SOL     OW63473   1.312   8.144  10.067 -0.0055 -0.4047  0.0751
20023SOL    HW163474   1.397   8.183  10.083  0.5608 -0.6590 -2.2112
20023SOL    HW263475   1.323   8.051  10.090 -0.0624 -0.1724  1.0687
20024SOL     OW63476   0.837   2.701   2.916  0.2388 -0.3213  0.0434
20024SOL    HW163477   0.804   2.671   3.001 -0.4977 -1.4709 -0.6363
20024SOL    HW263478   0.774   2.767   2.888 -0.2146 -0.8407 -0.1759
20025SOL     OW63479   9.145   3.775   7.879 -0.5141  0.7347  0.2558
20025SOL    HW163480   9.160   3.742   7.967  2.1625  1.3311  0.0680
20025SOL    HW263481   9.144   3.697   7.824 -1.3799  0.4270  0.7022
20026SOL     OW63482   9.887   4.268   3.792 -0.3884  0.5850  0.2841
20026SOL    HW163483   9.798   4.292   3.767 -0.7575  0.5060  1.4784
20026SOL    HW263484   9.875   4.209   3.867  0.6507  0.2615  0.1996
20027SOL     OW63485   7.155   3.568   6.760  0.9072 -0.0616  0.6567
20027SOL    HW163486   7.071   3.552   6.803  0.7410  0.3634  0.5005
20027SOL    HW263487   7.161   3.664   6.754  1.5536 -0.0809  0.9606
20028SOL     OW63488   2.438   3.267   0.401  0.3236  0.2434  0.3402
20028SOL    HW163489   2.507   3.229   0.346  0.2627 -0.5693  0.8113
20028SOL    HW263490   2.418   3.351   0.360  0.9125  0.0484 -0.3606
20029SOL     OW63491   7.833   5.694   5.988 -0.5305 -0.4726  0.2645
20029SOL    HW163492   7.909   5.714   5.933  0.0054  0.1901  1.2218
20029SOL    HW263493   7.771   5.653   5.929 -0.5036  1.4599 -1.1563
20030SOL     OW63494   1.490   9.742   0.904  0.3988 -0.2302 -0.3200
20030SOL    HW163495   1.583   9.749   0.924  0.6230 -0.0625 -1.3875
20030SOL    HW263496   1.465   9.829   0.872 -0.5455  0.2414  1.6479
20031SOL     OW63497   4.999   9.439   0.874  0.1729  0.3816  0.5552
20031SOL    HW163498   4.925   9.388   0.907 -0.5317  1.3169  0.4229
20031SOL    HW263499   5.016   9.405   0.787  0.8112 -0.7967  1.1320
20032SOL     OW63500   0.366   0.989   9.530  0.0702  0.3131 -0.0683
20032SOL    HW163501   0.294   0.938   9.493 -1.4230 -0.1890  3.3501
20032SOL    HW263502   0.337   1.080   9.526  0.5312  0.4142 -1.3890
20033SOL     OW63503   8.556   4.298   4.165 -0.4693  0.0247  0.8457
20033SOL    HW163504   8.493   4.335   4.226 -0.1392 -0.8513  1.7374
20033SOL    HW263505   8.619   4.252   4.220 -1.3290 -2.5675 -0.2203
20034SOL     OW63506   6.941   7.203   2.507  0.2181  0.7177  0.5377
20034SOL    HW163507   6.906   7.256   2.579  1.3208  1.0040  0.8658
20034SOL    HW263508   7.030   7.181   2.534  0.0535 -0.6257  0.0373
20035SOL     OW63509   4.272  10.934   3.578 -0.3798 -0.9137 -0.5512
20035SOL    HW163510   4.250  11.027   3.585 -1.5257 -1.2799  0.9509
20035SOL    HW263511   4.365  10.933   3.558  0.6237  0.5204  3.5521
20036SOL     OW63512  10.565   2.851   9.399 -0.4072  0.6109 -0.1664
20036SOL    HW163513  10.646   2.835   9.350 -0.8923  0.5706 -0.9742
20036SOL    HW263514  10.495   2.821   9.340 -1.1175  2.3367 -0.2314
20037SOL     OW63515   1.933  10.405   5.942  0.6658 -0.1838  0.3199
20037SOL    HW163516   1.999  10.396   5.873  0.0603  0.6907 -0.3804
20037SOL    HW263517   1.950  10.491   5.980  0.0017 -0.0096  0.2176
20038SOL     OW63518   7.920  10.918   8.066  0.5142  0.0072 -0.0012
20038SOL    HW163519   7.827  10.903   8.083 -0.1095  2.3217 -1.1017
20038SOL    HW263520   7.927  10.923   7.971  1.5922  0.7665  0.1013
20039SOL     OW63521   7.904  10.089   6.465 -0.0110 -0.8684 -0.9311
20039SOL    HW163522   7.931  10.029   6.396 -0.8334  0.6826 -2.6468
20039SOL    HW263523   7.831  10.139   6.427  0.8924  1.4665  0.2809
20040SOL     OW63524   2.467   5.902   5.528 -0.2382  0.1689  0.1421
20040SOL    HW163525   2.484   5.983   5.576  0.6752  0.0622  0.0152
20040SOL    HW263526   2.377   5.880   5.550  0.0041  0.3871  1.4253
20041SOL     OW63527   1.863   9.646   6.518 -0.0835  0.5817  0.3841
20041SOL    HW163528   1.857   9.585   6.592 -0.1129 -0.4324 -0.4368
20041SOL    HW263529   1.956   9.644   6.493 -0.2495  0.1997 -0.2025
20042SOL     OW63530   0.497   7.510   8.748 -0.2645 -0.0335 -0.7081
20042SOL    HW163531   0.555   7.583   8.725  0.8004 -0.5710  0.2075
20042SOL    HW263532   0.421   7.521   8.691 -0.7853  2.6540  0.4176
20043SOL     OW63533   1.207   7.796   9.018 -0.0378 -0.1096 -0.3990
20043SOL    HW163534   1.235   7.883   9.046  0.1564 -0.2507 -0.1527
20043SOL    HW263535   1.259   7.778   8.940 -0.9371  0.4900 -1.1451
20044SOL     OW63536   7.130   5.398   3.799 -0.0343 -0.0914 -0.1598
20044SOL    HW163537   7.085   5.383   3.882  0.1942 -1.1413 -0.2189
20044SOL    HW263538   7.194   5.327   3.794  0.5235  0.4510 -0.8422
20045SOL     OW63539   3.173   6.695   6.274 -0.5903  0.2909 -0.6058
20045SOL    HW163540   3.246   6.664   6.220  0.8802  0.3342  1.2784
20045SOL    HW263541   3.144   6.776   6.232  0.8814  0.6132 -1.0375
20046SOL     OW63542  10.459   7.187   8.241  0.0061 -0.3239 -0.9543
20046SOL    HW163543  10.394   7.216   8.177  0.9247  0.4675 -1.5492
20046SOL    HW263544  10.523   7.258   8.243  0.0145 -0.3741  0.8179
20047SOL     OW63545   4.330   2.407  10.880  0.0139 -0.4861  0.1706
20047SOL    HW163546   4.296   2.331  10.928 -1.6791  0.4826  0.5130
20047SOL    HW263547   4.343   2.474  10.947  0.6620 -0.1608 -0.2719
20048SOL     OW63548   4.876   0.242   3.841 -0.1091  0.0800 -0.2691
20048SOL    HW163549   4.884   0.302   3.768 -0.2893 -1.5855 -1.6788
20048SOL    HW263550   4.898   0.156   3.805 -1.0341 -0.8970  1.4026
20049SOL     OW63551   8.546   9.390   7.226  0.0278 -0.3530  0.6502
20049SOL    HW163552   8.602   9.408   7.151 -0.5096 -3.2554 -0.5179
20049SOL    HW263553   8.604   9.401   7.302  0.8668  1.4558 -0.2270
20050SOL     OW63554   6.177   7.677   4.557  0.2433 -0.1078  0.3782
20050SOL    HW163555   6.173   7.593   4.604  0.4028 -0.9207 -1.0421
20050SOL    HW263556   6.087   7.694   4.530  0.3720 -0.3108 -0.1807
20051SOL     OW63557   8.748   2.947   1.662  0.3920 -0.1070 -0.4287
20051SOL    HW163558   8.725   3.000   1.739  3.5969 -0.6184  0.9662
20051SOL    HW263559   8.784   3.010   1.600  2.9194 -0.3810  0.6941
20052SOL     OW63560   4.485   5.402   8.085 -0.3139 -0.1081  0.5393
20052SOL    HW163561   4.400   5.436   8.057 -0.1488 -0.6436 -0.6112
20052SOL    HW263562   4.505   5.332   8.023  1.9653  1.4331 -0.5308
20053SOL     OW63563   2.582   6.225   2.327  0.1814  0.2366  0.3921
20053SOL    HW163564   2.538   6.192   2.249 -0.7162  0.4409  0.8080
20053SOL    HW263565   2.547   6.313   2.340 -0.7699 -0.3393  1.8527
20054SOL     OW63566   3.000   5.613   6.810  0.4931 -0.6647 -0.0091
20054SOL    HW163567   2.936   5.552   6.848  0.6071 -0.8185 -0.0623
20054SOL    HW263568   2.989   5.603   6.715 -1.3592  1.3477 -0.0482
20055SOL     OW63569   1.196   2.981   4.686 -0.1295  0.3349  1.4273
20055SOL    HW163570   1.219   2.994   4.594  2.0138  2.2625  2.1882
20055SOL    HW263571   1.100   2.979   4.687 -0.1719 -0.2969 -0.8889
20056SOL     OW63572   7.034   4.994   9.554  0.1201 -0.0063  0.3344
20056SOL    HW163573   7.081   4.969   9.634  0.4789 -1.4562 -0.3176
20056SOL    HW263574   7.077   4.944   9.484 -1.8382 -0.7312 -0.3956
20057SOL     OW63575   6.772   3.262   1.643  0.0369 -0.2806 -0.0472
20057SOL    HW163576   6.799   3.313   1.567  2.5889  1.5134  2.0185
20057SOL    HW263577   6.678   3.247   1.628 -0.0816  2.1997 -2.2965
20058SOL     OW63578   9.796   0.241   6.815  0.0489 -0.1369  0.4101
20058SOL    HW163579   9.850   0.210   6.742 -2.0636 -0.8903 -0.8824
20058SOL    HW263580   9.829   0.330   6.833  0.4061  0.1863 -1.6724
20059SOL     OW63581   6.480   5.996   0.949  0.5266  0.6987 -0.4250
20059SOL    HW163582   6.536   6.067   0.918 -0.1251  1.9592  1.2138
20059SOL    HW263583   6.519   5.968   1.032 -0.8748  1.1472  0.4086
20060SOL     OW63584   9.413   0.359   8.549  0.5904 -0.2196 -0.0179
20060SOL    HW163585   9.324   0.374   8.515 -0.7722 -1.5346  2.7715
20060SOL    HW263586   9.459   0.318   8.476 -1.4940 -0.7028 -1.1263
20061SOL     OW63587  10.540   7.896   4.160 -0.0531  0.1465  0.7026
20061SOL    HW163588  10.562   7.814   4.205 -0.4937 -1.3811 -1.8031
20061SOL    HW263589  10.446   7.905   4.175 -0.0940 -0.0490  0.5684
20062SOL     OW63590   4.469   0.014   9.218 -0.3596 -0.0247 -0.2478
20062SOL    HW163591   4.455   0.100   9.178 -1.9844  0.7416  1.8961
20062SOL    HW263592   4.388  -0.034   9.200 -0.9849  0.2210  1.7838
20063SOL     OW63593   1.786   4.387   5.915 -0.0694  0.0225 -0.2230
20063SOL    HW163594   1.773   4.314   5.854 -0.9300  0.5625 -0.6888
20063SOL    HW263595   1.865   4.431   5.883 -0.4947  0.2812 -0.9357
20064SOL     OW63596   5.708   8.122  10.257  0.1276 -0.0880  0.3307
20064SOL    HW163597   5.777   8.159  10.201  0.2344  2.2737  1.9571
20064SOL    HW263598   5.740   8.035  10.281  1.4711  0.0779 -0.7696
20065SOL     OW63599  10.004   3.006   9.271 -0.1624 -0.3301  0.0716
20065SOL    HW163600  10.061   2.940   9.233  1.7910  1.3507 -0.0449
20065SOL    HW263601   9.964   3.049   9.195  2.9791  2.3680 -0.1808
20066SOL     OW63602  10.280   5.325   3.396 -0.0239 -0.4963 -0.4835
20066SOL    HW163603  10.245   5.307   3.309  1.4282 -0.3387 -1.1214
20066SOL    HW263604  10.252   5.414   3.415 -1.2564 -0.9060 -0.3219
20067SOL     OW63605   8.236   8.997   3.783 -0.7208  0.0902  0.3386
20067SOL    HW163606   8.296   8.934   3.822  0.1297  0.9657  0.4320
20067SOL    HW263607   8.260   9.081   3.822  0.1529  0.9770 -2.0871
20068SOL     OW63608   6.668   6.437   0.340  0.4981 -0.2321 -0.2991
20068SOL    HW163609   6.697   6.518   0.381 -0.9126 -0.0590  0.3834
20068SOL    HW263610   6.717   6.433   0.258  1.7365  0.5110  0.3874
20069SOL     OW63611   0.563   5.290   7.230  0.3680  0.0646 -0.2598
20069SOL    HW163612   0.588   5.208   7.273  0.2637  1.3648  2.3201
20069SOL    HW263613   0.647   5.331   7.206  0.4362 -0.3971 -0.8251
20070SOL     OW63614   2.021   1.430   8.694  1.1483 -0.3278  0.9200
20070SOL    HW163615   1.963   1.406   8.621  2.3592  0.9291 -0.4784
20070SOL    HW263616   2.005   1.362   8.760 -1.8038 -0.0760  0.5098
20071SOL     OW63617   5.778   5.359   3.426 -0.4774 -0.4587  0.2917
20071SOL    HW163618   5.749   5.435   3.375  0.7892  0.0966  0.3838
20071SOL    HW263619   5.708   5.345   3.490 -0.9521  0.3249 -0.0486
20072SOL     OW63620  10.477   3.673   2.349  0.2002  0.3935  0.6805
20072SOL    HW163621  10.387   3.642   2.343  0.6893 -0.7388 -1.8157
20072SOL    HW263622  10.496   3.677   2.442 -1.1873 -3.0858  1.1728
20073SOL     OW63623   6.890  10.041   6.401 -0.0843 -0.2450  0.3282
20073SOL    HW163624   6.977  10.009   6.425  0.7789  1.0983 -0.9456
20073SOL    HW263625   6.851  10.069   6.484  1.3871  0.8308  0.6740
20074SOL     OW63626   7.348   5.403   1.032 -0.3830  0.1612  0.0448
20074SOL    HW163627   7.297   5.483   1.041 -2.8618 -1.4255  0.7656
20074SOL    HW263628   7.416   5.409   1.099 -0.7283  1.5253  0.2756
20075SOL     OW63629   1.040   3.424   7.012  0.1518 -0.7713 -0.3124
20075SOL    HW163630   1.105   3.378   6.959 -1.0300 -0.5215 -2.0272
20075SOL    HW263631   0.993   3.480   6.950  0.3593  1.3998  1.4381
20076SOL     OW63632   6.203   8.804   0.135  0.0915 -0.2824 -0.3544
20076SOL    HW163633   6.204   8.899   0.140 -0.2060 -0.2789 -0.3160
20076SOL    HW263634   6.115   8.783   0.104  0.4504 -0.5053 -1.2346
20077SOL     OW63635   7.091   0.432   9.730  0.2181 -0.0665 -0.2966
20077SOL    HW163636   7.015   0.384   9.763  1.6278 -2.6426 -0.6447
20077SOL    HW263637   7.059   0.474   9.650 -1.1812  0.0082  0.2827
20078SOL     OW63638   1.595  10.838   1.712  0.4491 -0.3464 -0.3506
20078SOL    HW163639   1.579  10.778   1.784  1.2556 -0.0752  0.0551
20078SOL    HW263640   1.590  10.784   1.633  3.0508 -1.3129  0.1178
20079SOL     OW63641   7.224   5.489   0.260 -0.4282 -0.0784  0.1320
20079SOL    HW163642   7.175   5.558   0.216 -2.9343 -1.2985  0.9121
20079SOL    HW263643   7.222   5.513   0.353 -1.4692 -1.2649  0.4332
20080SOL     OW63644   1.461   1.008   8.200  0.1417 -0.2232  0.1248
20080SOL    HW163645   1.409   0.943   8.246  2.6518 -1.1206  1.7700
20080SOL    HW263646   1.519   0.958   8.143  0.8180  0.6728  0.0099
20081SOL     OW63647   5.351  10.336   8.883 -0.3022 -0.0565  0.4092
20081SOL    HW163648   5.416  10.290   8.936  0.2108  1.0112  0.7087
20081SOL    HW263649   5.273  10.280   8.888 -0.1758 -0.1202  2.0544
20082SOL     OW63650  10.482   2.612   4.734 -0.4302  0.7660  0.0320
20082SOL    HW163651  10.500   2.541   4.796 -0.3169 -0.1890 -1.0717
20082SOL    HW263652  10.394   2.593   4.700  0.3248  0.1206 -1.6196
20083SOL     OW63653   6.047   0.498   1.799  0.1187 -0.3059  0.0914
20083SOL    HW163654   5.962   0.486   1.758  0.9537  0.1321 -1.8502
20083SOL    HW263655   6.109   0.457   1.739  1.3972  0.4267  0.8749
20084SOL     OW63656   0.411   1.220   5.850  0.4072  0.4167 -0.0952
20084SOL    HW163657   0.490   1.175   5.821 -0.2649 -0.4096 -0.6456
20084SOL    HW263658   0.341   1.184   5.796 -0.7732 -0.7576  2.1360
20085SOL     OW63659   6.387   6.128   2.678 -0.4519 -0.3763 -0.0176
20085SOL    HW163660   6.471   6.085   2.661 -0.2637 -0.2756  0.6455
20085SOL    HW263661   6.325   6.083   2.620 -0.0374 -0.7864 -0.1455
20086SOL     OW63662   0.185   6.308   1.334 -0.0177  0.1888 -0.1238
20086SOL    HW163663   0.215   6.398   1.328  0.2127  0.0878 -0.4701
20086SOL    HW263664   0.113   6.311   1.398  1.4936  0.2350  1.6253
20087SOL     OW63665   1.120   3.222   4.308  0.0681  0.1613 -0.0280
20087SOL    HW163666   1.152   3.140   4.345  1.0058 -0.1301 -1.4547
20087SOL    HW263667   1.172   3.235   4.229 -0.9609  1.4661 -0.5135
20088SOL     OW63668   6.876   1.209   9.656  0.3075  0.5835 -0.2382
20088SOL    HW163669   6.801   1.217   9.596  1.7268  2.9871 -1.7848
20088SOL    HW263670   6.846   1.249   9.737 -0.3633  0.8117 -0.5903
20089SOL     OW63671   2.334   6.218   0.538 -0.0979 -0.4730 -0.1588
20089SOL    HW163672   2.326   6.129   0.573  0.1916 -0.8759 -1.1033
20089SOL    HW263673   2.252   6.260   0.563 -0.1873 -0.9677  0.3995
20090SOL     OW63674   7.156   8.314   7.078  0.6676 -0.3408 -0.1003
20090SOL    HW163675   7.219   8.385   7.081 -0.5872  0.8080 -0.2574
20090SOL    HW263676   7.080   8.351   7.033 -0.7706 -1.1532  1.5929
20091SOL     OW63677   4.353  10.495   2.845  0.1826 -0.1120 -0.4067
20091SOL    HW163678   4.386  10.407   2.863 -2.5638 -0.9957  0.6504
20091SOL    HW263679   4.296  10.484   2.769  0.0326  0.8048 -0.4386
20092SOL     OW63680   7.136   6.216   6.551  0.3449 -0.0947 -0.3301
20092SOL    HW163681   7.142   6.274   6.627  0.9836  0.5372 -0.8539
20092SOL    HW263682   7.150   6.128   6.586 -0.5680  0.0710  0.4592
20093SOL     OW63683   6.363   2.109   7.101 -0.6549 -0.8515  0.3598
20093SOL    HW163684   6.314   2.115   7.019  0.3797 -0.7376 -0.2563
20093SOL    HW263685   6.404   2.194   7.111 -0.9088 -0.8112  1.0887
20094SOL     OW63686   7.089   7.094   9.334 -0.1780  0.2139  0.3094
20094SOL    HW163687   7.132   7.150   9.269  1.8986 -2.1505 -0.4490
20094SOL    HW263688   7.158   7.033   9.362 -2.6692 -2.9134 -0.0413
20095SOL     OW63689   4.101   2.461   4.635  0.2770 -0.1976 -0.2188
20095SOL    HW163690   4.027   2.406   4.608 -1.1307  1.4096  0.2686
20095SOL    HW263691   4.124   2.429   4.722  0.8042 -1.3348 -0.7609
20096SOL     OW63692   3.456   4.833   3.829 -0.3988  0.4853  0.4888
20096SOL    HW163693   3.476   4.909   3.884 -0.2112  0.2719  0.7194
20096SOL    HW263694   3.394   4.865   3.764  0.6129  1.1462 -0.1746
20097SOL     OW63695   3.887   6.526   8.827  0.3956 -0.3016  0.1106
20097SOL    HW163696   3.819   6.491   8.884  1.1117 -1.3725  0.3176
20097SOL    HW263697   3.848   6.605   8.789 -0.3663 -0.0141  1.4607
20098SOL     OW63698  10.951  10.819  10.322  0.2612 -0.1945  0.3196
20098SOL    HW163699  10.885  10.796  10.257 -1.7133 -0.4719  2.3400
20098SOL    HW263700  10.987  10.735  10.351  1.3889 -0.0538 -0.6335
20099SOL     OW63701   9.142   5.379   2.905  0.0723 -0.3278 -0.2211
20099SOL    HW163702   9.102   5.293   2.906  0.2641 -0.4456 -1.3825
20099SOL    HW263703   9.074   5.437   2.870 -0.8312  0.4235  2.6633
20100SOL     OW63704   1.988   0.971   1.916  0.7061 -0.1215  0.5171
20100SOL    HW163705   2.002   0.978   2.010  1.3447 -0.2457  0.4363
20100SOL    HW263706   1.902   0.930   1.907  1.2767 -1.4734  1.0625
20101SOL     OW63707  10.773   6.240   3.852  0.5446 -0.8585 -0.4613
20101SOL    HW163708  10.698   6.194   3.815  1.4462 -3.4052  0.7996
20101SOL    HW263709  10.789   6.197   3.936  2.0604  1.0871  0.2890
20102SOL     OW63710   6.180   3.214   0.644 -0.3078 -0.0138  0.4671
20102SOL    HW163711   6.092   3.239   0.616  0.0336 -0.6282 -1.2780
20102SOL    HW263712   6.230   3.295   0.642 -0.7343  0.2615  1.0351
20103SOL     OW63713   8.244   4.844   9.779 -0.0655 -0.0643  0.1303
20103SOL    HW163714   8.250   4.910   9.847 -0.1791 -0.4371  0.5072
20103SOL    HW263715   8.255   4.761   9.825 -2.4491 -0.4487  0.0461
20104SOL     OW63716  10.093   3.287   9.179 -0.1319  0.0552  0.2024
20104SOL    HW163717   9.998   3.303   9.174 -0.2497 -1.0830 -1.4531
20104SOL    HW263718  10.100   3.194   9.204  0.5658  0.4999  1.7553
20105SOL     OW63719   5.754   1.372   8.636  0.1286 -0.1406  0.4859
20105SOL    HW163720   5.675   1.425   8.621  0.6520  0.3704 -0.5378
20105SOL    HW263721   5.826   1.434   8.627  0.8653 -1.3311 -2.5982
20106SOL     OW63722   9.812   5.548   2.462  0.0976  0.0912  0.2208
20106SOL    HW163723   9.758   5.515   2.390 -0.7882 -1.0961  1.4117
20106SOL    HW263724   9.877   5.603   2.419 -1.7885  1.1966 -1.2823
20107SOL     OW63725   8.959   1.255   6.425 -0.3186 -0.0192 -0.6907
20107SOL    HW163726   8.896   1.271   6.495 -0.8946 -2.2797 -0.6525
20107SOL    HW263727   8.948   1.329   6.365 -1.7189  0.5372  0.2322
20108SOL     OW63728   5.318   1.689   1.977  0.2387 -0.3766 -0.0260
20108SOL    HW163729   5.265   1.610   1.989  2.0971 -1.4144  1.6758
20108SOL    HW263730   5.383   1.664   1.911 -0.6993  0.5607 -1.3380
20109SOL     OW63731   8.252   6.563   9.943 -0.2013  0.4765  1.1697
20109SOL    HW163732   8.238   6.474   9.976 -2.5697  0.4734  0.2467
20109SOL    HW263733   8.347   6.575   9.947  0.1254 -1.9455  1.6830
20110SOL     OW63734   8.454   1.176   7.486  0.9572  0.1639 -0.3388
20110SOL    HW163735   8.422   1.204   7.572  3.6405  1.1502  0.3624
20110SOL    HW263736   8.436   1.082   7.484 -2.0279  0.6524 -0.0357
20111SOL     OW63737   1.195  10.503   1.808  0.1366  0.5483  0.1794
20111SOL    HW163738   1.159  10.422   1.771  1.1294  0.1184  0.1357
20111SOL    HW263739   1.282  10.510   1.768 -0.5029  2.4191 -0.9592
20112SOL     OW63740   0.382   8.064   6.779 -0.4789  0.0020 -0.7886
20112SOL    HW163741   0.367   7.976   6.816 -1.6078  0.2789 -0.5772
20112SOL    HW263742   0.397   8.119   6.856  3.3214 -0.5479 -1.0421
20113SOL     OW63743   0.814   9.954   2.245  0.9777  0.5615  0.2068
20113SOL    HW163744   0.746   9.899   2.206 -0.0691  1.0252  1.3161
20113SOL    HW263745   0.791   9.956   2.338  1.8473  1.6768  0.3965
20114SOL     OW63746  10.577  10.516   7.503  0.5215 -0.5254  0.6690
20114SOL    HW163747  10.534  10.578   7.443 -0.9014  0.2324  2.3941
20114SOL    HW263748  10.608  10.445   7.447 -0.0811  0.5361 -1.0499
20115SOL     OW63749   3.302   8.355   3.513  0.0336 -0.0667  0.5201
20115SOL    HW163750   3.255   8.378   3.433  0.0780 -0.0570  0.4969
20115SOL    HW263751   3.265   8.412   3.580 -0.6563 -0.7182  0.6979
20116SOL     OW63752   9.390   2.043   0.342  0.0636  0.1928 -0.1741
20116SOL    HW163753   9.329   2.069   0.273  0.4287 -0.1817 -0.6335
20116SOL    HW263754   9.394   2.120   0.400  0.9190  1.0752 -1.3780
20117SOL     OW63755   7.251   9.719   3.299  0.8675  0.1774  0.2239
20117SOL    HW163756   7.255   9.711   3.395 -2.6221 -1.0668  0.3302
20117SOL    HW263757   7.209   9.804   3.285  0.5285 -0.0580 -0.1826
20118SOL     OW63758   2.253  10.535   4.991 -0.3426 -0.0429  0.2181
20118SOL    HW163759   2.176  10.486   5.020  0.7589 -2.8919 -1.5533
20118SOL    HW263760   2.307  10.543   5.070 -0.0974 -2.5496  0.3390
20119SOL     OW63761   1.035   2.855   7.529  0.1593 -0.4410 -0.0114
20119SOL    HW163762   0.982   2.869   7.608 -0.0438 -2.6250  0.2740
20119SOL    HW263763   1.122   2.885   7.553  0.2500 -1.6752  1.2761
20120SOL     OW63764   6.932   9.100   8.217  0.8690  0.8347  0.3745
20120SOL    HW163765   6.884   9.173   8.255  0.4900  0.7547  0.0463
20120SOL    HW263766   6.917   9.028   8.279  0.6250  0.8272  0.3076
20121SOL     OW63767   9.544   2.827   4.201 -0.0863  0.4905  0.5666
20121SOL    HW163768   9.533   2.799   4.110  0.7486 -1.1955  0.9583
20121SOL    HW263769   9.580   2.915   4.196 -0.1430  0.4389 -0.7417
20122SOL     OW63770   6.654   1.551  10.512 -0.4890 -0.1480  0.5632
20122SOL    HW163771   6.621   1.625  10.460  0.9261  1.3328  1.7097
20122SOL    HW263772   6.707   1.500  10.451 -1.0900  0.0270 -0.1182
20123SOL     OW63773   2.208   4.788   9.083 -0.2410  0.1873  0.2130
20123SOL    HW163774   2.276   4.726   9.057 -0.3549  0.8953 -1.8552
20123SOL    HW263775   2.247   4.838   9.155  0.5463 -0.9548  0.6014
20124SOL     OW63776   7.027   4.121   9.696  0.3574  0.3207 -0.0654
20124SOL    HW163777   6.931   4.126   9.694  0.2392 -0.2011  2.3655
20124SOL    HW263778   7.046   4.033   9.664 -0.0391  0.1175  0.2431
20125SOL     OW63779   0.224  10.203   2.903 -0.3333  0.0053  0.7575
20125SOL    HW163780   0.222  10.298   2.892  3.5317  0.0316 -0.5863
20125SOL    HW263781   0.263  10.190   2.989 -0.0226 -0.3716  0.5608
20126SOL     OW63782   1.399   5.108   9.919 -0.5808 -0.2818  0.8390
20126SOL    HW163783   1.467   5.043   9.902 -1.3377 -0.7429 -0.4645
20126SOL    HW263784   1.367   5.087  10.006  0.2161 -0.7102  1.0330
20127SOL     OW63785   8.632   9.185   8.933  0.1438 -0.3764  0.1100
20127SOL    HW163786   8.575   9.122   8.891  0.2394 -0.9335  0.7930
20127SOL    HW263787   8.695   9.210   8.866 -2.3645  2.1467 -1.4172
20128SOL     OW63788  10.166   1.657   0.776 -0.5566 -0.1200 -0.1041
20128SOL    HW163789  10.224   1.721   0.735 -0.5764 -0.3198 -0.4462
20128SOL    HW263790  10.121   1.615   0.703 -0.8207 -0.2623  0.1391
20129SOL     OW63791   4.077  10.343   9.994  0.7985 -0.2777  0.4723
20129SOL    HW163792   4.123  10.327  10.076  1.3562  0.4887  0.3098
20129SOL    HW263793   4.083  10.260   9.946  0.4457 -0.7357  1.2094
20130SOL     OW63794   6.505   2.218   6.579  0.0088  0.1943  0.3946
20130SOL    HW163795   6.543   2.218   6.491 -0.3582 -0.3096  0.2351
20130SOL    HW263796   6.576   2.189   6.635  0.5168  1.3902  0.3856
20131SOL     OW63797   2.158   7.443   8.363  0.5204  0.4710  0.2066
20131SOL    HW163798   2.139   7.465   8.454  1.7605  2.0820  0.0921
20131SOL    HW263799   2.247   7.406   8.366  0.7257  0.9151 -0.3917
20132SOL     OW63800   1.102  10.383   3.098 -0.6013  0.8512  0.3133
20132SOL    HW163801   1.181  10.330   3.116 -0.2858  1.2414  0.0779
20132SOL    HW263802   1.033  10.318   3.086 -0.3858  0.5172  0.8697
20133SOL     OW63803   8.635   4.794   8.578  0.3729 -0.5262  0.1363
20133SOL    HW163804   8.707   4.783   8.516  0.0835  0.4602 -0.3763
20133SOL    HW263805   8.556   4.794   8.525  0.1794  1.1630  0.4114
20134SOL     OW63806   6.289   5.438   2.314 -0.2449 -0.3618  0.0074
20134SOL    HW163807   6.374   5.408   2.347  0.2416 -1.1979 -1.9346
20134SOL    HW263808   6.300   5.533   2.303  0.5856 -0.5217 -0.6239
20135SOL     OW63809   9.161   3.967   9.827 -0.4358 -0.0410  0.0832
20135SOL    HW163810   9.114   3.982   9.909 -1.3045  1.5662 -0.6875
20135SOL    HW263811   9.104   3.910   9.777 -1.8614  2.3349 -1.0654
20136SOL     OW63812  10.773   2.927   0.885  0.5076 -0.1508 -0.2102
20136SOL    HW163813  10.767   2.887   0.971  0.8309  1.0756  0.3895
20136SOL    HW263814  10.692   2.976   0.875  0.0318 -1.0886 -1.0185
20137SOL     OW63815   8.718  10.502   9.937  0.0999 -0.5799  0.6986
20137SOL    HW163816   8.636  10.454   9.950 -1.1632  1.2796 -0.2363
20137SOL    HW263817   8.753  10.515  10.025 -2.0993  1.1359  1.3450
20138SOL     OW63818   3.499   4.779   9.514 -0.3330  0.3479  0.0715
20138SOL    HW163819   3.443   4.772   9.437  0.9837 -1.0335 -0.7891
20138SOL    HW263820   3.441   4.762   9.588 -1.2525 -0.0791 -0.7424
20139SOL     OW63821   9.472   9.179   0.811  0.1450 -0.2731  0.2755
20139SOL    HW163822   9.402   9.201   0.872  0.9926  0.7001  0.9196
20139SOL    HW263823   9.494   9.088   0.831 -2.5048 -1.4055 -1.5185
20140SOL     OW63824   9.701   1.778   1.463 -0.0790 -0.1032  0.1206
20140SOL    HW163825   9.651   1.701   1.490 -0.2084 -0.5569 -1.3867
20140SOL    HW263826   9.637   1.850   1.465 -0.5618 -0.5071 -0.9082
20141SOL     OW63827   6.558   1.753   7.440  0.0581  0.0122 -0.6288
20141SOL    HW163828   6.494   1.697   7.485  0.1043  0.0117 -0.5641
20141SOL    HW263829   6.508   1.792   7.368 -0.2295  0.6447 -0.0950
20142SOL     OW63830   0.647   4.466   3.825  0.0024 -0.4546 -0.3716
20142SOL    HW163831   0.695   4.545   3.800 -1.0431 -0.0521 -1.1510
20142SOL    HW263832   0.697   4.394   3.786 -0.7717  0.0604 -2.3840
20143SOL     OW63833   7.723   7.492   4.844  0.0128  0.0684  0.5123
20143SOL    HW163834   7.701   7.506   4.935 -0.1391 -0.7017  0.5962
20143SOL    HW263835   7.814   7.521   4.837 -0.0366  0.3113  0.8585
20144SOL     OW63836   5.794   5.134   3.232 -1.2503  0.3644  0.3581
20144SOL    HW163837   5.886   5.108   3.238 -1.4085 -0.1694  0.5749
20144SOL    HW263838   5.779   5.186   3.311 -1.5306 -0.8561  1.1320
20145SOL     OW63839   2.712   0.606   5.214  0.5947 -0.0937  0.1112
20145SOL    HW163840   2.743   0.558   5.291 -0.7173 -0.7204  0.2590
20145SOL    HW263841   2.618   0.589   5.211  0.6921 -0.4827 -1.8886
20146SOL     OW63842   7.321  10.865   1.211 -0.6364 -0.2314 -0.3324
20146SOL    HW163843   7.256  10.795   1.198  0.4985 -1.3523 -0.0359
20146SOL    HW263844   7.383  10.854   1.138  0.7005 -0.8544  0.8786
20147SOL     OW63845   2.467  10.733   8.746 -0.6923  0.2533  0.0838
20147SOL    HW163846   2.456  10.639   8.734 -2.2181  0.3088  0.8989
20147SOL    HW263847   2.379  10.769   8.735 -0.1801  1.5527  0.1223
20148SOL     OW63848   0.521  10.194   2.129  0.3895 -0.5882  1.5141
20148SOL    HW163849   0.484  10.137   2.197 -0.5191  0.7662  2.1656
20148SOL    HW263850   0.445  10.236   2.089  1.0154 -0.3197  0.6011
20149SOL     OW63851   3.504   4.565   2.323 -0.2487 -0.1059 -0.1584
20149SOL    HW163852   3.593   4.536   2.340 -0.8107 -0.6508  1.9328
20149SOL    HW263853   3.503   4.657   2.352 -0.4255 -0.1650  0.0229
20150SOL     OW63854   4.579   7.485   7.889 -0.0879  0.8025  0.1733
20150SOL    HW163855   4.651   7.444   7.840 -0.3329  2.2302 -1.3958
20150SOL    HW263856   4.521   7.412   7.911  0.5250  0.0100 -0.7848
20151SOL     OW63857  10.106   5.286   1.853 -0.9929  0.4124 -0.2737
20151SOL    HW163858  10.061   5.371   1.844  0.8249  1.2505 -1.7287
20151SOL    HW263859  10.125   5.279   1.946 -2.8258  0.7286  0.1369
20152SOL     OW63860   4.047   4.312   7.574 -0.5932 -0.3686  0.5155
20152SOL    HW163861   4.090   4.227   7.584 -1.4694 -0.6018  2.3521
20152SOL    HW263862   4.103   4.359   7.511  0.0150 -2.2020 -0.3585
20153SOL     OW63863   1.817   4.998   5.675  0.0090  0.3632  0.1447
20153SOL    HW163864   1.867   4.934   5.726  0.1225 -0.1312 -0.5798
20153SOL    HW263865   1.767   4.945   5.613  1.2856  1.0570 -1.5090
20154SOL     OW63866  10.261   5.203   4.022 -0.8315  0.5654 -0.2167
20154SOL    HW163867  10.281   5.252   3.942 -0.6664  1.4002  0.3284
20154SOL    HW263868  10.169   5.178   4.014 -1.1335  1.6550 -0.1383
20155SOL     OW63869   1.633   2.360   3.112  0.1346 -0.5258 -0.0419
20155SOL    HW163870   1.541   2.389   3.111  1.2346  3.3115 -0.6775
20155SOL    HW263871   1.640   2.301   3.038 -1.1765  1.5132 -1.8542
20156SOL     OW63872   7.447   4.739   7.790 -0.0639 -0.2899  0.1200
20156SOL    HW163873   7.432   4.817   7.736  3.4113 -1.1179 -2.2548
20156SOL    HW263874   7.371   4.683   7.773 -1.2379  1.3959 -0.3105
20157SOL     OW63875   6.679   7.283   1.085 -0.1435 -0.1221 -0.4742
20157SOL    HW163876   6.713   7.194   1.099  1.0974  0.3679 -0.3187
20157SOL    HW263877   6.743   7.324   1.027 -0.7357  0.6628 -0.5806
20158SOL     OW63878   5.522   0.935   5.252  0.0022  0.0825  0.6137
20158SOL    HW163879   5.506   1.029   5.244  0.6607  0.2309  1.0593
20158SOL    HW263880   5.613   0.928   5.280  1.2347 -0.8325 -3.2879
20159SOL     OW63881   7.085   2.299   4.342  0.4972 -0.1985 -0.5514
20159SOL    HW163882   7.008   2.301   4.284  0.3114 -0.0414 -0.2980
20159SOL    HW263883   7.063   2.357   4.414  0.5942 -0.6611 -0.1487
20160SOL     OW63884   3.048   5.342   7.366  0.0922  0.0141  0.1258
20160SOL    HW163885   2.977   5.337   7.429  0.1579 -2.6199  0.0443
20160SOL    HW263886   3.080   5.432   7.373 -2.4903  0.9162  0.9588
20161SOL     OW63887   3.747   4.090   0.144 -0.1719  1.0266  0.2515
20161SOL    HW163888   3.802   4.137   0.081  1.6389  1.8343  2.3625
20161SOL    HW263889   3.691   4.158   0.182  1.1454  1.2084  1.9538
20162SOL     OW63890   4.914   5.921   9.024 -0.3775  0.2134 -0.0202
20162SOL    HW163891   4.953   5.919   8.937  1.7013 -0.1623  0.9015
20162SOL    HW263892   4.928   5.833   9.058  0.5895  0.9287  1.4576
20163SOL     OW63893   7.316   6.592   8.561  0.4830 -0.3975  0.0170
20163SOL    HW163894   7.320   6.627   8.472 -0.1776  1.3430  0.6577
20163SOL    HW263895   7.259   6.652   8.608 -0.0652 -1.9170  1.3483
20164SOL     OW63896   3.387   4.544   6.766  0.2399 -0.1837  0.3131
20164SOL    HW163897   3.396   4.623   6.713  2.1280  0.2292  1.2068
20164SOL    HW263898   3.351   4.479   6.707 -1.1466  1.2731 -0.4983
20165SOL     OW63899  10.084   0.765   7.069  0.3861 -0.0018  0.0452
20165SOL    HW163900  10.151   0.728   7.126  0.8619  1.4422  0.4533
20165SOL    HW263901  10.126   0.773   6.984  1.2178  2.1503  0.6122
20166SOL     OW63902   0.584   9.463   5.377 -0.3127 -0.4901 -0.1504
20166SOL    HW163903   0.582   9.377   5.417  0.1583 -0.4684 -0.0788
20166SOL    HW263904   0.677   9.482   5.365 -0.3555  0.5893  1.0950
20167SOL     OW63905   7.706   0.219   5.828 -0.3955  0.6385 -0.0970
20167SOL    HW163906   7.786   0.168   5.817  0.6386  1.7596  1.8319
20167SOL    HW263907   7.717   0.295   5.771 -0.8090 -0.0238 -1.0579
20168SOL     OW63908   7.439   1.490   6.569 -0.9996 -0.5912 -0.2663
20168SOL    HW163909   7.382   1.532   6.505 -0.4767  3.4266  1.7776
20168SOL    HW263910   7.399   1.510   6.654  1.6380 -0.4920  1.0084
20169SOL     OW63911   8.613   3.972   9.374  0.7485 -0.0675 -0.1282
20169SOL    HW163912   8.599   4.045   9.435  1.8286 -0.4020  0.5397
20169SOL    HW263913   8.576   3.896   9.419  0.5260 -0.1159 -0.3896
20170SOL     OW63914   3.495   9.105   3.898 -0.0331  0.2385  0.6914
20170SOL    HW163915   3.512   9.128   3.807 -1.8185 -1.9668 -0.2811
20170SOL    HW263916   3.399   9.107   3.906 -0.0746 -2.4706  1.6472
20171SOL     OW63917   9.824   5.279   6.022 -0.0895 -0.1113 -0.2045
20171SOL    HW163918   9.874   5.358   6.003 -2.9576  1.8399 -0.0053
20171SOL    HW263919   9.759   5.306   6.087 -2.0396 -2.2544 -1.1461
20172SOL     OW63920   2.597   8.534   2.297  0.1353  0.6195 -0.1382
20172SOL    HW163921   2.548   8.610   2.267  0.9611  1.0671 -0.3720
20172SOL    HW263922   2.569   8.521   2.387 -2.3384 -0.7044 -1.0648
20173SOL     OW63923   2.682   5.460   6.619 -0.3564 -0.0517  0.1357
20173SOL    HW163924   2.638   5.483   6.701 -3.2686 -2.3603 -0.6816
20173SOL    HW263925   2.693   5.543   6.573 -1.5874  0.8698  1.4846
20174SOL     OW63926   4.099   2.414   8.341 -0.0485 -0.2365  0.5689
20174SOL    HW163927   4.123   2.406   8.433 -0.8741  1.2877  0.9261
20174SOL    HW263928   4.008   2.386   8.337 -0.6636  1.7332  0.5816
20175SOL     OW63929  10.945  10.674   2.901 -0.0775 -0.4023 -0.9218
20175SOL    HW163930  10.931  10.767   2.919  2.1386 -0.4202  1.1576
20175SOL    HW263931  10.891  10.629   2.965  0.6311 -0.5174 -0.3993
20176SOL     OW63932   8.171   7.583   8.322 -0.1615 -0.3073  0.1557
20176SOL    HW163933   8.083   7.574   8.358 -0.5604 -2.7000 -1.3438
20176SOL    HW263934   8.227   7.536   8.383 -0.0123  0.5927  0.7217
20177SOL     OW63935   0.706   2.709   1.887 -0.5753  0.7297 -0.0612
20177SOL    HW163936   0.660   2.625   1.893  3.4304 -1.4815  3.4914
20177SOL    HW263937   0.781   2.691   1.830 -0.5070  2.3019 -0.4775
20178SOL     OW63938   5.522   1.280   9.391  0.1352 -0.0308 -0.2471
20178SOL    HW163939   5.536   1.206   9.331  0.2705 -0.0777 -0.1571
20178SOL    HW263940   5.526   1.241   9.478 -2.3869 -0.3610 -0.2556
20179SOL     OW63941   4.652   2.305   6.097  0.5205  0.2555 -0.6088
20179SOL    HW163942   4.683   2.275   6.011  0.6706  1.7971 -1.0983
20179SOL    HW263943   4.574   2.251   6.114 -1.0275  1.6998 -2.8990
20180SOL     OW63944   0.654   1.247   5.668  0.3318  0.2824  0.6679
20180SOL    HW163945   0.704   1.316   5.624  0.1013  0.4243  0.6240
20180SOL    HW263946   0.607   1.203   5.597 -0.3273  0.7492  0.8042
20181SOL     OW63947  10.030   0.608   2.750  0.0452  0.1109 -0.0054
20181SOL    HW163948  10.054   0.624   2.841  1.4305  0.0479 -0.3522
20181SOL    HW263949  10.019   0.513   2.745 -0.6974  0.1847  0.2581
20182SOL     OW63950  10.528   7.651   9.271  1.0517 -0.0227 -0.4162
20182SOL    HW163951  10.440   7.623   9.295  0.6108  0.5885 -1.3258
20182SOL    HW263952  10.546   7.607   9.188  1.8740 -0.6874  0.1031
20183SOL     OW63953   8.919  10.618   6.455  0.0423  0.4747 -0.3137
20183SOL    HW163954   8.958  10.644   6.371  1.0405  0.2000  0.0678
20183SOL    HW263955   8.981  10.648   6.521  0.1630 -0.9922  0.2472
20184SOL     OW63956  10.751   9.047   6.074 -0.2130 -0.2033 -0.7129
20184SOL    HW163957  10.799   9.108   6.130 -0.7837  0.2924 -0.7556
20184SOL    HW263958  10.687   9.006   6.133 -1.4566  1.0211 -1.2021
20185SOL     OW63959   6.096   0.193   0.257 -0.1103 -0.4629 -0.3589
20185SOL    HW163960   6.119   0.273   0.305 -0.6259 -0.3132 -0.3585
20185SOL    HW263961   6.048   0.223   0.180 -0.9413 -0.7984  0.0096
20186SOL     OW63962   4.127   0.324   3.159  0.1741  0.6903  0.6007
20186SOL    HW163963   4.094   0.354   3.244  1.1378  0.1243  1.1801
20186SOL    HW263964   4.171   0.400   3.122  1.2675  0.4551  1.3856
20187SOL     OW63965   9.769   4.446   0.344  0.4513 -0.3486 -0.7805
20187SOL    HW163966   9.695   4.477   0.397  0.7427 -0.1128 -0.5085
20187SOL    HW263967   9.847   4.477   0.391  0.7397 -1.1311 -0.7371
20188SOL     OW63968   6.360   9.156   9.976 -0.2356  0.6328 -0.2238
20188SOL    HW163969   6.281   9.178   9.927 -0.8871 -1.4537 -0.1862
20188SOL    HW263970   6.418   9.115   9.911 -0.5947 -0.9762  0.4269
20189SOL     OW63971   0.971   4.520   0.026  0.2909 -0.3028  0.1430
20189SOL    HW163972   0.979   4.530   0.121  1.5330 -1.8234  0.2262
20189SOL    HW263973   1.060   4.531  -0.007 -0.1039  0.0240 -0.8289
20190SOL     OW63974   4.949   7.305   2.293  0.0604 -0.0291  0.4074
20190SOL    HW163975   4.987   7.236   2.238  1.5806  0.0316  1.3506
20190SOL    HW263976   4.930   7.377   2.233 -0.2350 -0.7572 -0.3655
20191SOL     OW63977   5.943   5.081   2.227 -0.4876 -0.1965  0.2969
20191SOL    HW163978   5.937   5.094   2.321 -2.2979  0.8799  0.0587
20191SOL    HW263979   5.853   5.078   2.197  0.0592  1.1638 -1.6187
20192SOL     OW63980   2.988   6.077   3.270  0.6427 -0.8802 -0.0830
20192SOL    HW163981   2.982   6.132   3.192  0.7521 -0.8662 -0.0814
20192SOL    HW263982   2.980   5.988   3.237  0.3045 -0.8564 -0.0676
20193SOL     OW63983   2.719   1.938   7.985 -0.6805  0.2697 -0.5376
20193SOL    HW163984   2.663   1.874   8.029 -0.2961 -0.5843 -1.2714
20193SOL    HW263985   2.669   2.020   7.988 -1.1165 -0.0327  0.5247
20194SOL     OW63986   3.279   6.486   7.522 -0.0959 -0.1823 -0.4076
20194SOL    HW163987   3.338   6.535   7.579 -0.5333 -0.7397  0.5312
20194SOL    HW263988   3.266   6.544   7.446  1.2301  0.1575 -0.3835
20195SOL     OW63989   1.706  10.062   8.144 -0.5906 -0.3047  1.0429
20195SOL    HW163990   1.613  10.041   8.143 -0.2948 -1.6532 -0.8717
20195SOL    HW263991   1.750   9.978   8.135  0.7910  0.4078  1.0050
20196SOL     OW63992  10.692   2.996   9.615 -0.1641  0.4460 -0.2368
20196SOL    HW163993  10.648   2.948   9.545 -0.1155  2.1848 -1.4832
20196SOL    HW263994  10.714   2.929   9.680  1.4954 -1.5122 -2.7130
20197SOL     OW63995   8.885   7.984  10.277 -0.3091  0.4897 -0.3055
20197SOL    HW163996   8.817   8.027  10.226 -0.1554  0.9641 -0.1126
20197SOL    HW263997   8.876   7.891  10.256 -1.2822  0.4984  0.0381
20198SOL     OW63998   2.346   7.020   6.173  0.0302 -0.0879  0.2864
20198SOL    HW163999   2.252   7.024   6.194  0.3860 -1.3157  2.3106
20198SOL    HW264000   2.380   7.105   6.200 -0.4463  0.2490 -0.1653
20199SOL     OW64001   5.143  10.963   4.940 -0.2282 -0.1900  0.0994
20199SOL    HW164002   5.216  11.011   4.978  1.5143 -2.8927  0.3412
20199SOL    HW264003   5.105  11.023   4.876  2.4206  1.1568 -0.2820
20200SOL     OW64004   5.955   9.572   4.009 -0.2261  0.0450  0.2546
20200SOL    HW164005   5.903   9.594   3.932  1.2383  1.3746 -0.3885
20200SOL    HW264006   5.919   9.489   4.040 -1.2447 -0.1813 -1.4919
20201SOL     OW64007   0.224   8.185   4.228  0.1012 -0.3440 -0.1246
20201SOL    HW164008   0.143   8.234   4.215  0.2469 -0.2700 -0.7515
20201SOL    HW264009   0.197   8.107   4.277 -0.3291 -0.2766 -0.2537
20202SOL     OW64010   5.773   5.658  10.741  0.0340 -0.1421  0.2115
20202SOL    HW164011   5.863   5.685  10.720  0.8128 -1.2345  2.0333
20202SOL    HW264012   5.768   5.663  10.836 -1.2689 -1.8111  0.2429
20203SOL     OW64013   6.915   7.348   5.799 -0.4012  0.0578 -0.0159
20203SOL    HW164014   6.928   7.271   5.853 -0.8328 -1.0886 -1.4976
20203SOL    HW264015   7.003   7.374   5.772 -0.3788 -1.2960 -1.3442
20204SOL     OW64016   5.480   7.995   4.725 -0.0001  0.3616 -0.2010
20204SOL    HW164017   5.523   7.924   4.773  1.3730  0.0301 -1.8521
20204SOL    HW264018   5.451   8.056   4.793 -1.3488 -1.8427  1.2460
20205SOL     OW64019   4.374   6.238   6.714 -0.0180 -0.5155  0.2990
20205SOL    HW164020   4.339   6.162   6.760 -0.0966 -0.4873  0.2844
20205SOL    HW264021   4.380   6.306   6.781 -2.3110  0.2447 -0.2212
20206SOL     OW64022   1.008   8.789   2.010 -0.2676 -0.3717  0.4527
20206SOL    HW164023   1.040   8.870   2.049 -0.2558  0.2481 -0.8380
20206SOL    HW264024   0.958   8.817   1.933  1.7802 -1.7222 -1.4114
20207SOL     OW64025   9.573  10.552   1.878  0.4699  0.2768  0.0906
20207SOL    HW164026   9.582  10.638   1.919 -0.4852 -0.0266  0.9598
20207SOL    HW264027   9.565  10.491   1.951 -0.2869 -0.3803 -0.5352
20208SOL     OW64028   3.047   6.272   4.675  0.5891 -0.1965 -0.0100
20208SOL    HW164029   3.096   6.222   4.742 -0.4919 -0.1591  0.8205
20208SOL    HW264030   2.967   6.222   4.663  0.4606  0.1958 -0.7614
20209SOL     OW64031   8.482   6.018   4.800  0.6793 -0.0570  0.1203
20209SOL    HW164032   8.536   6.063   4.735  0.5923 -0.0855  0.0288
20209SOL    HW264033   8.406   6.075   4.812 -0.4443 -1.2052 -1.5479
20210SOL     OW64034   4.183   4.166   2.489 -0.2665  0.8941  0.2516
20210SOL    HW164035   4.217   4.219   2.561 -1.0426  1.2887  0.3326
20210SOL    HW264036   4.151   4.086   2.532  3.4519 -0.9240 -0.1663
20211SOL     OW64037   6.200   1.711   2.169  0.5804  0.8184  0.6825
20211SOL    HW164038   6.284   1.720   2.124 -0.5011 -2.7643 -2.3261
20211SOL    HW264039   6.214   1.643   2.235 -0.2496 -0.7705 -0.7435
20212SOL     OW64040   7.922   0.943   9.080 -0.2234  0.5052 -0.0815
20212SOL    HW164041   7.898   0.857   9.045  0.7555 -0.0212  0.4982
20212SOL    HW264042   7.876   1.006   9.024 -1.2832 -0.4026 -0.2501
20213SOL     OW64043   9.488   8.915   8.420 -0.5730  0.2096  0.4105
20213SOL    HW164044   9.462   8.970   8.494 -0.3234  1.2157 -0.2427
20213SOL    HW264045   9.407   8.871   8.393 -0.7032 -0.0099  1.1431
20214SOL     OW64046   6.027   4.774   5.547 -0.0228  0.0827 -0.2456
20214SOL    HW164047   5.954   4.810   5.597  0.8902 -1.5415  2.4041
20214SOL    HW264048   5.991   4.697   5.502 -0.1938 -0.1502  0.2821
20215SOL     OW64049   3.925   2.397   0.917  0.3785  0.0701  0.3619
20215SOL    HW164050   3.986   2.376   0.847  0.1283  1.0691 -0.1640
20215SOL    HW264051   3.885   2.313   0.940  2.0029 -0.6156  0.7870
20216SOL     OW64052  10.801  10.849   3.762 -0.0189  0.0139 -0.3986
20216SOL    HW164053  10.834  10.885   3.845 -0.7283  1.1422 -0.5957
20216SOL    HW264054  10.707  10.843   3.775  0.0063 -1.0848 -0.6523
20217SOL     OW64055   2.264   3.136  10.223 -0.2768 -0.0284 -0.0072
20217SOL    HW164056   2.326   3.109  10.156  0.1062 -1.3981  0.8783
20217SOL    HW264057   2.305   3.109  10.306 -1.2520  0.6245  0.7001
20218SOL     OW64058   0.742   7.922   5.413  0.9668 -0.7819  0.2419
20218SOL    HW164059   0.813   7.870   5.374  0.5707 -2.0702  1.1920
20218SOL    HW264060   0.760   7.920   5.507 -0.2255 -0.9949  0.4769
20219SOL     OW64061   0.265   7.363  10.536 -0.2038  0.7346  0.1742
20219SOL    HW164062   0.218   7.435  10.493 -1.3530  1.1714  2.0866
20219SOL    HW264063   0.324   7.406  10.597 -1.8672  0.0823  2.3188
20220SOL     OW64064   6.577   1.676   5.343 -0.7178  0.5917  0.4662
20220SOL    HW164065   6.575   1.581   5.347 -1.5421  0.6007  0.3096
20220SOL    HW264066   6.520   1.705   5.414 -0.0146  0.9763  0.8789
20221SOL     OW64067   3.303   7.507  10.744  0.1159  0.8579 -0.4183
20221SOL    HW164068   3.212   7.538  10.747  0.2405  1.4486 -1.9693
20221SOL    HW264069   3.297   7.412  10.753 -0.5827  0.9902  0.4968
20222SOL     OW64070   3.368  10.132  10.616  0.1204 -0.4806 -0.3118
20222SOL    HW164071   3.279  10.165  10.605  0.6152  1.0492  0.1088
20222SOL    HW264072   3.396  10.108  10.528 -0.0523  0.7831 -0.7138
20223SOL     OW64073   7.461   9.125   6.399  0.1266 -0.1653 -0.1788
20223SOL    HW164074   7.552   9.096   6.401 -0.0497 -0.6518  0.8668
20223SOL    HW264075   7.455   9.188   6.471  0.2156  1.6408 -1.6979
20224SOL     OW64076   6.796   6.141   8.235  0.0777  0.1975  0.4897
20224SOL    HW164077   6.876   6.188   8.258 -0.4282  1.5713 -0.5131
20224SOL    HW264078   6.806   6.121   8.142  1.0171 -3.1727  1.2258
20225SOL     OW64079   6.962   3.344   9.473 -0.2025  0.0618 -0.1808
20225SOL    HW164080   6.880   3.305   9.441  0.7722 -3.4729  1.4899
20225SOL    HW264081   6.936   3.395   9.550 -1.1210  0.8709 -1.0002
20226SOL     OW64082   5.710   3.948   3.028  0.0028  0.3816  0.4172
20226SOL    HW164083   5.755   3.898   2.961  0.9102  0.8907  0.6299
20226SOL    HW264084   5.741   4.038   3.016 -0.9794  0.7495  0.5534
20227SOL     OW64085   9.359   1.121   1.373  0.2673  0.3779 -0.7576
20227SOL    HW164086   9.324   1.097   1.288  1.2572  0.8174 -1.3012
20227SOL    HW264087   9.364   1.039   1.422 -2.1204  0.4127 -0.4332
20228SOL     OW64088  10.257   8.022   1.501 -0.2455  0.3309  0.2654
20228SOL    HW164089  10.246   7.942   1.552 -1.1428  1.5671  2.0554
20228SOL    HW264090  10.232   7.998   1.412  0.5497 -1.6459  0.5613
20229SOL     OW64091   6.283   1.699  10.463  0.2134 -0.6545 -0.3581
20229SOL    HW164092   6.246   1.735  10.382  0.2729 -0.0857 -0.1305
20229SOL    HW264093   6.355   1.758  10.485 -0.1433 -0.5016  0.4057
20230SOL     OW64094   8.968   0.977   4.135  0.1202 -0.0154  0.3605
20230SOL    HW164095   9.054   0.936   4.147  0.2697 -0.0736 -0.8206
20230SOL    HW264096   8.950   1.019   4.219  0.7359 -1.0534  1.0421
20231SOL     OW64097   2.587   8.000   6.366  0.0270  0.3280 -0.5883
20231SOL    HW164098   2.568   7.910   6.339  1.8260 -0.1776 -0.2310
20231SOL    HW264099   2.671   8.020   6.325 -0.4307  1.9151 -0.7831
20232SOL     OW64100   2.705   4.473   2.907 -0.3363 -0.4547 -0.2583
20232SOL    HW164101   2.788   4.519   2.897 -0.3091 -0.7608 -1.4785
20232SOL    HW264102   2.713   4.429   2.992 -0.0825  1.1706  0.5843
20233SOL     OW64103  10.307   6.562   5.798 -0.5175 -0.1462  0.2369
20233SOL    HW164104  10.389   6.520   5.821 -0.8174  0.1348  1.8668
20233SOL    HW264105  10.242   6.523   5.857 -1.3928  0.2753 -0.4214
20234SOL     OW64106   2.867  10.733   1.098 -0.0444 -0.5783 -0.3514
20234SOL    HW164107   2.868  10.814   1.149  1.2134 -1.4671  1.0948
20234SOL    HW264108   2.959  10.716   1.079 -0.0026 -3.1448  1.8378
20235SOL     OW64109   5.560   0.428   8.731  0.4855  0.3095  0.4804
20235SOL    HW164110   5.519   0.395   8.811 -0.9701  1.0463  0.0665
20235SOL    HW264111   5.571   0.522   8.747  0.2856  0.4404 -0.1299
20236SOL     OW64112   6.863   0.404   5.146 -0.2371  0.3356  0.1137
20236SOL    HW164113   6.768   0.393   5.139 -0.1141  0.7286 -2.5198
20236SOL    HW264114   6.882   0.484   5.096  1.3333  1.0166  1.7342
20237SOL     OW64115   0.445  10.834  10.104  0.1802  0.7745  0.0166
20237SOL    HW164116   0.392  10.768  10.149  1.7471  0.1948  1.0494
20237SOL    HW264117   0.381  10.894  10.066 -1.2727 -1.0119 -0.4765
20238SOL     OW64118   2.469   9.980   1.330  0.1611 -0.0571  0.0089
20238SOL    HW164119   2.532   9.974   1.402  0.5147  2.4703 -0.0449
20238SOL    HW264120   2.428  10.066   1.342 -0.5915 -0.1005 -2.1556
20239SOL     OW64121   3.862   5.863   0.919 -0.2277 -0.1881  0.2952
20239SOL    HW164122   3.895   5.791   0.973 -1.0845  0.5071  1.7592
20239SOL    HW264123   3.775   5.832   0.890  0.1214 -0.4517 -0.5015
20240SOL     OW64124   1.446   0.251   3.601 -0.0029  0.4118 -0.4939
20240SOL    HW164125   1.470   0.320   3.663 -1.6176  0.8327 -0.3084
20240SOL    HW264126   1.351   0.240   3.613 -0.3781  0.5978 -2.9734
20241SOL     OW64127   0.037   5.367   2.139  0.3449 -0.0484  0.4002
20241SOL    HW164128   0.008   5.451   2.175 -0.4441  0.3663 -1.1739
20241SOL    HW264129   0.133   5.376   2.135  0.3212  0.5040  0.8671
20242SOL     OW64130   1.477   1.008   8.656 -0.4751  0.0038 -0.3705
20242SOL    HW164131   1.428   0.927   8.669  0.7359 -0.5203  1.1473
20242SOL    HW264132   1.475   1.052   8.741  3.6489 -1.1970  0.4907
20243SOL     OW64133   6.393   3.320  10.944 -0.1964  0.0613  0.1564
20243SOL    HW164134   6.441   3.395  10.980  0.4856 -0.1337 -0.3500
20243SOL    HW264135   6.306   3.328  10.982 -0.3318  1.5073 -0.4267
20244SOL     OW64136   4.490   6.565   2.514  0.2048  0.3148 -0.3207
20244SOL    HW164137   4.543   6.577   2.435  1.9843 -0.2892  0.7562
20244SOL    HW264138   4.404   6.538   2.481  0.6517  0.9358 -2.0760
20245SOL     OW64139   3.243   3.462   4.999  0.1687 -0.0839 -0.2135
20245SOL    HW164140   3.176   3.517   4.959 -1.4119 -0.9911  1.1352
20245SOL    HW264141   3.323   3.484   4.951 -0.4672  3.1715  0.1019
20246SOL     OW64142   1.091   8.752  10.737 -0.0643  0.2513  0.1651
20246SOL    HW164143   1.164   8.691  10.728 -0.9359 -1.1382  2.2078
20246SOL    HW264144   1.019   8.710  10.690  0.2456  1.3263 -1.3141
20247SOL     OW64145   1.033   4.972   9.805  0.5514  0.1941  0.1009
20247SOL    HW164146   1.008   4.886   9.770  1.5179 -1.0120  2.2703
20247SOL    HW264147   1.119   4.988   9.769  0.7939 -0.2294  0.4778
20248SOL     OW64148   8.326   6.469   8.922  0.0044  0.0293  0.5311
20248SOL    HW164149   8.340   6.397   8.861  0.8484 -0.5185  1.3617
20248SOL    HW264150   8.284   6.537   8.869 -1.1085 -1.1858 -0.1665
20249SOL     OW64151   2.796   1.040  10.397 -0.1584  0.0022 -0.2575
20249SOL    HW164152   2.801   1.089  10.315 -1.0526  1.1118  0.3406
20249SOL    HW264153   2.795   0.948  10.370  2.4976  0.2482 -1.3498
20250SOL     OW64154   1.949   7.127   8.481  0.3245  0.1719 -0.3476
20250SOL    HW164155   1.968   7.215   8.515 -0.2811  0.8506 -1.6928
20250SOL    HW264156   2.004   7.119   8.403  0.3770 -0.6446 -0.2288
20251SOL     OW64157   0.235   2.834   2.626  0.2830  0.0671 -0.5869
20251SOL    HW164158   0.323   2.852   2.593 -0.1765 -0.6031 -2.2087
20251SOL    HW264159   0.227   2.739   2.621 -0.1011  0.0252  0.7081
20252SOL     OW64160   2.226   7.640   7.344  0.4124  0.0328 -0.3922
20252SOL    HW164161   2.170   7.611   7.272  1.0033 -1.0886 -0.4083
20252SOL    HW264162   2.201   7.586   7.418  1.9524 -0.9925 -0.5889
20253SOL     OW64163   3.465   5.853   8.606 -0.0840 -0.0010  0.1101
20253SOL    HW164164   3.445   5.802   8.528 -0.3666  1.6491 -0.9349
20253SOL    HW264165   3.397   5.828   8.669 -1.1125  0.1902 -0.9019
20254SOL     OW64166   5.518   2.970   8.818  0.2608  0.6134 -0.3404
20254SOL    HW164167   5.490   3.051   8.861 -0.9064  0.7005 -1.2204
20254SOL    HW264168   5.559   2.919   8.887  1.7316  2.2747  0.0679
20255SOL     OW64169   6.147   6.373   9.459 -0.5112  0.0409  0.5175
20255SOL    HW164170   6.233   6.335   9.440 -0.3372  1.0222 -0.7288
20255SOL    HW264171   6.106   6.311   9.520 -0.1640 -2.0494 -1.3142
20256SOL     OW64172   3.657   4.294   6.258  0.1574 -0.2484 -0.4284
20256SOL    HW164173   3.639   4.243   6.337 -1.2348  1.2726  0.2605
20256SOL    HW264174   3.576   4.342   6.241  0.5652 -0.2593 -2.5718
20257SOL     OW64175   0.191   6.658   6.278  0.3808 -0.7840  0.0279
20257SOL    HW164176   0.121   6.699   6.227  0.2822 -0.3235  0.5355
20257SOL    HW264177   0.203   6.573   6.236 -1.0125 -1.1849  0.3913
20258SOL     OW64178   0.102   2.430   8.684 -0.3787  0.2698  0.5220
20258SOL    HW164179   0.141   2.477   8.758 -0.7119  2.3829 -0.6123
20258SOL    HW264180   0.119   2.338   8.703 -2.0500  0.6209  4.1521
20259SOL     OW64181  10.777   6.749   2.863  0.7396  0.0346 -0.0731
20259SOL    HW164182  10.729   6.791   2.934  0.0106 -0.0473 -0.5087
20259SOL    HW264183  10.742   6.789   2.783 -0.5426 -1.9149 -0.5491
20260SOL     OW64184   7.543   7.757   2.139 -0.3264 -0.3244 -0.0161
20260SOL    HW164185   7.539   7.773   2.233 -1.6073 -1.3025  0.1124
20260SOL    HW264186   7.488   7.680   2.125  0.6580 -0.8001 -1.4322
20261SOL     OW64187   4.500   9.606   3.829  0.6641  0.3110 -0.0856
20261SOL    HW164188   4.427   9.628   3.888 -1.2105  0.1696 -2.2502
20261SOL    HW264189   4.548   9.688   3.819  0.2294  0.6575  0.6324
20262SOL     OW64190   2.660  10.107   0.448 -0.4025 -0.2660  0.1667
20262SOL    HW164191   2.745  10.148   0.466 -0.1134  0.9662 -3.6529
20262SOL    HW264192   2.666  10.021   0.490  2.4188  0.1279  0.6762
20263SOL     OW64193   0.327   5.452   5.258 -0.2542 -0.4307  0.1536
20263SOL    HW164194   0.389   5.429   5.189  1.8198  0.0818  1.7744
20263SOL    HW264195   0.259   5.502   5.213  0.2752 -1.3459 -1.7437
20264SOL     OW64196   2.891   2.550   6.636  0.1009 -0.5965  0.0493
20264SOL    HW164197   2.985   2.568   6.638 -0.4094  2.1871  1.3213
20264SOL    HW264198   2.873   2.506   6.719 -0.3674  2.6182  1.7075
20265SOL     OW64199   3.258   3.602   5.870 -0.6244 -0.6206  0.1833
20265SOL    HW164200   3.205   3.526   5.847  2.2570 -2.1359 -1.7981
20265SOL    HW264201   3.283   3.641   5.786  1.9465 -0.3786  1.0083
20266SOL     OW64202   5.111   0.644   3.742  0.3062  0.2492 -1.1271
20266SOL    HW164203   5.089   0.635   3.649  0.6444 -1.3377 -1.0642
20266SOL    HW264204   5.031   0.619   3.788  0.9579 -1.6500 -0.9664
20267SOL     OW64205  10.498   1.455   0.547 -0.6885  0.4941  0.5281
20267SOL    HW164206  10.459   1.388   0.603  0.4649  1.5614  2.6824
20267SOL    HW264207  10.546   1.405   0.480 -0.2833 -0.8244  1.7824
20268SOL     OW64208   7.265   6.292   7.976 -0.2663  0.0655  0.9841
20268SOL    HW164209   7.360   6.306   7.986 -0.0044 -0.7600 -0.2635
20268SOL    HW264210   7.248   6.209   8.020  0.3795 -2.0382 -2.4927
20269SOL     OW64211   2.279   7.751   3.168 -0.0749 -0.3469 -0.3188
20269SOL    HW164212   2.245   7.827   3.214 -1.4032 -0.6943 -0.7075
20269SOL    HW264213   2.309   7.786   3.083  0.1820 -0.1090 -0.1313
20270SOL     OW64214   2.669   2.690   8.971 -0.1330  0.5236  0.2179
20270SOL    HW164215   2.671   2.603   9.010  0.8558  0.1868 -0.5824
20270SOL    HW264216   2.760   2.718   8.969 -0.4047  1.4141  0.1156
20271SOL     OW64217   3.850   6.122   1.708  0.0183 -0.4621  0.1378
20271SOL    HW164218   3.767   6.169   1.714  0.5110  0.7499 -1.8682
20271SOL    HW264219   3.916   6.192   1.700  1.1449 -1.4233  0.8304
20272SOL     OW64220   7.987   8.088   4.961  0.0087  0.4784  0.2262
20272SOL    HW164221   8.059   8.026   4.953 -0.4345  0.1080 -0.8710
20272SOL    HW264222   7.963   8.084   5.054  0.5954 -0.2938  0.3501
20273SOL     OW64223  10.247   5.165   5.632  0.6766 -0.2533 -0.4526
20273SOL    HW164224  10.219   5.250   5.666 -0.8862 -1.2643  0.8969
20273SOL    HW264225  10.277   5.117   5.709  0.1034 -1.4513 -0.9588
20274SOL     OW64226   0.283   2.448   0.382  0.5574  0.5536  0.2445
20274SOL    HW164227   0.312   2.442   0.473  0.2695  1.8451  0.4325
20274SOL    HW264228   0.320   2.531   0.350 -0.4322  0.7538 -0.4046
20275SOL     OW64229   7.530   9.176   7.846  0.4134  0.1169  0.0162
20275SOL    HW164230   7.536   9.272   7.842 -2.3629  0.2984 -1.9080
20275SOL    HW264231   7.575   9.147   7.767  0.8713 -0.1325  0.3723
20276SOL     OW64232   2.430   8.262   9.569 -0.0606  0.5857 -0.6583
20276SOL    HW164233   2.483   8.207   9.626  1.0428 -0.2148 -2.4483
20276SOL    HW264234   2.449   8.352   9.598 -2.3535  0.0969  2.6942
20277SOL     OW64235   4.494   2.741   6.464 -0.3811 -0.4206  0.0815
20277SOL    HW164236   4.524   2.819   6.512 -0.5012 -0.0763 -0.4037
20277SOL    HW264237   4.398   2.744   6.471 -0.3615 -0.8652  0.5944
20278SOL     OW64238  10.143   3.648   4.343  0.0435  0.3785  0.0612
20278SOL    HW164239  10.147   3.669   4.436  0.0577  3.4376 -0.5810
20278SOL    HW264240  10.103   3.725   4.302 -0.0237 -0.9293 -2.4641
20279SOL     OW64241   6.361   7.045   9.483 -0.2999  0.3958 -0.2491
20279SOL    HW164242   6.392   6.990   9.555 -0.6819  1.2312  0.5604
20279SOL    HW264243   6.421   7.026   9.411  1.4178  1.1308  0.9293
20280SOL     OW64244   6.625   6.586   7.443 -0.1959  0.7425  0.6021
20280SOL    HW164245   6.583   6.622   7.521 -0.0817  0.3836  0.8295
20280SOL    HW264246   6.567   6.609   7.371 -0.6879  0.4069  0.8932
20281SOL     OW64247   1.600   9.045   8.862 -0.2927 -0.4313  0.5735
20281SOL    HW164248   1.623   9.016   8.774 -3.2634  3.5682 -1.6786
20281SOL    HW264249   1.679   9.089   8.894  0.5593 -1.2150 -0.4238
20282SOL     OW64250   2.417   4.487   3.163  0.2837  0.6048 -0.1086
20282SOL    HW164251   2.500   4.514   3.204  0.5616  1.8496 -1.4316
20282SOL    HW264252   2.365   4.453   3.235  2.8710 -2.5865  0.4015
20283SOL     OW64253   5.304   1.023   7.503 -0.3220 -0.2614  0.0166
20283SOL    HW164254   5.299   0.972   7.423  1.6267  1.2615 -1.1311
20283SOL    HW264255   5.304   1.115   7.474  2.5523  0.2892  1.5453
20284SOL     OW64256   1.065  10.432   0.106  0.0853 -0.0289  0.2789
20284SOL    HW164257   1.021  10.386   0.177  1.8080 -0.0883  1.3356
20284SOL    HW264258   1.043  10.381   0.027 -0.9347 -0.5942  0.9191
20285SOL     OW64259   2.469   3.343   4.904 -0.1976 -0.1486 -0.0433
20285SOL    HW164260   2.496   3.370   4.816 -0.0170 -0.9932 -0.2566
20285SOL    HW264261   2.420   3.262   4.890 -0.2505 -0.2367  0.6258
20286SOL     OW64262   3.233  10.524   3.169 -0.3220 -0.1867 -0.1125
20286SOL    HW164263   3.150  10.477   3.176  0.8707 -2.1795  1.0260
20286SOL    HW264264   3.267  10.528   3.258 -0.0546  2.3038 -0.2679
20287SOL     OW64265   1.905   7.459   4.091 -0.1677  0.0070 -0.4391
20287SOL    HW164266   1.820   7.422   4.116  0.8836 -2.5666 -0.4955
20287SOL    HW264267   1.890   7.554   4.089 -2.8817 -0.3552  0.0881
20288SOL     OW64268   8.779  10.361   9.005 -0.1001  0.9239  0.6054
20288SOL    HW164269   8.761  10.452   9.030  1.2212  1.0996  0.9674
20288SOL    HW264270   8.866  10.363   8.966 -0.5529 -0.0026 -0.4824
20289SOL     OW64271   2.920   7.803   6.834  0.1115  0.7429 -0.4062
20289SOL    HW164272   2.855   7.840   6.893 -0.3304 -0.0365 -0.3947
20289SOL    HW264273   2.873   7.736   6.785  1.6513 -2.2689  2.0150
20290SOL     OW64274   9.674   0.845   6.968 -0.0896  0.2337 -0.2011
20290SOL    HW164275   9.691   0.896   6.888  1.8772  1.5965  1.0407
20290SOL    HW264276   9.627   0.768   6.937 -0.4012  1.3057 -2.5386
20291SOL     OW64277   6.031   3.528   0.816 -0.7994 -0.6419  0.8809
20291SOL    HW164278   6.013   3.484   0.733  1.3800  2.0487 -1.1017
20291SOL    HW264279   5.979   3.608   0.812  1.5539  0.9129  0.7825
20292SOL     OW64280   2.675   1.096   2.908  0.2595  0.6086 -0.6220
20292SOL    HW164281   2.695   1.082   3.001 -0.4205 -0.8573 -0.6732
20292SOL    HW264282   2.733   1.035   2.863  2.9750  3.6532 -1.3833
20293SOL     OW64283   9.821  10.570   8.050 -0.0077 -0.2610  0.5480
20293SOL    HW164284   9.796  10.662   8.041 -1.7076 -0.6844  0.8183
20293SOL    HW264285   9.853  10.546   7.963  0.1462  0.4991  0.3919
20294SOL     OW64286   0.209   7.753   3.952  0.3749 -0.2225 -0.5135
20294SOL    HW164287   0.165   7.825   3.997 -0.3774 -1.1978  0.3379
20294SOL    HW264288   0.137   7.703   3.912  0.7605 -1.4892  0.3708
20295SOL     OW64289   9.849   1.816   4.014 -0.0269 -0.0753 -0.3221
20295SOL    HW164290   9.938   1.783   3.997 -0.4540 -1.5813  0.2257
20295SOL    HW264291   9.861   1.883   4.081  0.5301 -1.4221  0.9477
20296SOL     OW64292   0.109   8.911   8.591 -0.2022 -0.0540  0.2297
20296SOL    HW164293   0.108   8.859   8.512 -1.5648  0.6872 -0.2622
20296SOL    HW264294   0.024   8.895   8.632 -0.1689  0.8526  0.6752
20297SOL     OW64295   9.262   6.115   8.673 -0.0332  0.3148  0.2429
20297SOL    HW164296   9.194   6.161   8.722 -0.1219 -0.1709  0.5744
20297SOL    HW264297   9.257   6.152   8.585  0.4194  1.5087  0.7085
20298SOL     OW64298   0.083   4.298   7.014  0.2135 -0.4126 -0.0516
20298SOL    HW164299   0.073   4.210   6.976  0.0820  0.4849 -2.1403
20298SOL    HW264300   0.105   4.354   6.940  0.9110  1.2319  1.3619
20299SOL     OW64301   4.469  10.597   9.071 -0.2601 -0.0271  0.5670
20299SOL    HW164302   4.398  10.649   9.033 -1.1681 -1.0937  0.7517
20299SOL    HW264303   4.424  10.522   9.110  1.1171 -1.5803 -0.7697
20300SOL     OW64304   6.028   6.240   6.234  0.5083 -0.0098 -0.0997
20300SOL    HW164305   6.111   6.199   6.207  0.5122 -0.3971  0.4930
20300SOL    HW264306   6.041   6.260   6.327  0.0587  0.2464 -0.0931
20301SOL     OW64307   0.543  10.042   6.585 -0.0265 -0.4972 -0.5917
20301SOL    HW164308   0.626   9.999   6.607 -0.3519 -0.0491  1.6494
20301SOL    HW264309   0.568  10.129   6.555  0.3316 -0.4203 -0.0730
20302SOL     OW64310   0.584   2.480   9.759 -0.1118 -0.1631 -0.1663
20302SOL    HW164311   0.592   2.401   9.705 -0.5430 -0.4558  0.1879
20302SOL    HW264312   0.671   2.493   9.796  0.5402  0.8049 -1.9679
20303SOL     OW64313   6.474   7.929   5.437  0.2475 -0.2520  0.3220
20303SOL    HW164314   6.447   7.838   5.424 -0.8411  0.2547 -0.9997
20303SOL    HW264315   6.426   7.958   5.515  0.3072 -0.6979  0.5226
20304SOL     OW64316   6.078   1.107   7.091  0.8641  0.1968  0.0186
20304SOL    HW164317   6.015   1.152   7.034  0.4254  1.3589  1.3864
20304SOL    HW264318   6.148   1.170   7.103  1.1689 -0.2158  0.4054
20305SOL     OW64319   4.901   2.177   1.007 -0.1785  0.2710  0.6577
20305SOL    HW164320   4.968   2.140   1.065  2.6157  1.0254 -2.0352
20305SOL    HW264321   4.887   2.266   1.040 -0.8104 -0.2765  1.9520
20306SOL     OW64322   9.278   7.960   9.746  0.4200 -0.2441  0.3978
20306SOL    HW164323   9.189   7.958   9.782  0.8300 -2.7044  1.3625
20306SOL    HW264324   9.321   8.033   9.792 -0.7036  0.1293  0.8740
20307SOL     OW64325   2.265   6.737   6.520  0.0998  0.2315 -0.1930
20307SOL    HW164326   2.331   6.688   6.568 -0.0702 -0.4817 -0.6836
20307SOL    HW264327   2.273   6.706   6.429 -0.7669  0.2863 -0.2935
20308SOL     OW64328   3.921   1.796  10.402  0.5887 -0.2788  0.4074
20308SOL    HW164329   3.998   1.840  10.368  0.0797  0.6710  0.4707
20308SOL    HW264330   3.946   1.770  10.491  0.5051  0.8837  0.7733
20309SOL     OW64331  10.736   0.540   9.533  0.4479 -0.0780 -0.4064
20309SOL    HW164332  10.753   0.532   9.627  2.4402 -0.5870 -0.7673
20309SOL    HW264333  10.701   0.455   9.507  1.2405 -0.4282 -0.3590
20310SOL     OW64334   3.482   2.904   7.667 -0.0643 -0.5440  0.0621
20310SOL    HW164335   3.447   2.975   7.721 -1.1902  0.7460 -2.3283
20310SOL    HW264336   3.423   2.831   7.683  0.5361 -0.6840  1.7845
20311SOL     OW64337   1.948   6.463   0.381 -0.6215  0.0008 -0.1029
20311SOL    HW164338   1.936   6.510   0.299 -0.0209  1.1870  0.4825
20311SOL    HW264339   1.907   6.519   0.447  0.4415 -0.1018  0.6558
20312SOL     OW64340   0.614   5.487   3.328  0.0946  0.1392  0.6652
20312SOL    HW164341   0.627   5.474   3.422  2.4333 -1.6265  0.1353
20312SOL    HW264342   0.585   5.402   3.296  1.2634  0.1805 -0.5321
20313SOL     OW64343   7.879   5.313   0.092 -0.2037 -0.2922  0.1671
20313SOL    HW164344   7.965   5.295   0.129  0.9101 -0.1385 -2.2414
20313SOL    HW264345   7.871   5.409   0.095 -0.4800 -0.3275  0.7394
20314SOL     OW64346   2.104   6.122   4.791 -0.5356 -0.0596  0.2448
20314SOL    HW164347   2.039   6.189   4.812  1.0469  1.9915 -1.1186
20314SOL    HW264348   2.140   6.096   4.876 -1.6942  0.2804  0.8486
20315SOL     OW64349   9.294  10.077   6.484  0.2938  0.4174 -0.0706
20315SOL    HW164350   9.310  10.163   6.525  0.3027  0.8986 -1.0768
20315SOL    HW264351   9.368  10.023   6.513 -0.1218  0.5180  1.1993
20316SOL     OW64352   2.594   9.949   6.017  0.0100 -0.0641  0.7352
20316SOL    HW164353   2.616  10.013   6.085  1.2181 -0.4742  0.7290
20316SOL    HW264354   2.547  10.000   5.951  1.1738  0.8741  0.6193
20317SOL     OW64355   4.651   6.037   8.996  0.6322 -0.1194 -0.2584
20317SOL    HW164356   4.599   5.976   9.048 -0.0534  0.1463 -0.6239
20317SOL    HW264357   4.742   6.017   9.019  0.4776 -1.9912 -1.1609
20318SOL     OW64358   1.598   8.511   0.180  0.0310 -0.1913  0.2196
20318SOL    HW164359   1.665   8.532   0.245 -0.5920 -0.2589  0.8842
20318SOL    HW264360   1.516   8.538   0.220 -0.5229 -1.6125  0.0722
20319SOL     OW64361   9.904   1.130  10.332 -0.3744 -0.1465 -0.6142
20319SOL    HW164362   9.879   1.201  10.393  0.1931  0.0018 -0.5557
20319SOL    HW264363   9.872   1.050  10.375  3.6245 -0.5205  1.9310
20320SOL     OW64364   7.341   0.603   4.042  0.2604 -0.2250 -0.5019
20320SOL    HW164365   7.429   0.627   4.013  0.9876 -2.6705 -0.4615
20320SOL    HW264366   7.315   0.673   4.101  0.3067  2.9105 -4.0164
20321SOL     OW64367   1.607   4.375   6.687 -0.1087  0.2181  0.1129
20321SOL    HW164368   1.531   4.388   6.630 -1.5684 -3.2450  1.1509
20321SOL    HW264369   1.588   4.426   6.766 -0.1674  1.3805 -0.6487
20322SOL     OW64370   3.096   9.515   7.431  0.0984 -0.2304  0.1571
20322SOL    HW164371   3.040   9.478   7.362  1.1872 -1.0050 -0.3424
20322SOL    HW264372   3.053   9.490   7.513  0.1825 -1.6156 -0.2026
20323SOL     OW64373   8.285   5.093   0.461 -0.3031 -0.1505  0.1900
20323SOL    HW164374   8.380   5.089   0.455 -0.2178  1.1067  0.5388
20323SOL    HW264375   8.254   5.036   0.391  0.6993 -1.6582  0.9430
20324SOL     OW64376   7.891   3.951   8.084 -0.4862  0.0188 -0.3689
20324SOL    HW164377   7.937   3.908   8.012 -1.4934  0.5334 -1.3355
20324SOL    HW264378   7.843   4.023   8.043 -1.9217 -0.3261  0.6512
20325SOL     OW64379   1.552   3.072   3.173  0.2856  0.0050  0.5437
20325SOL    HW164380   1.517   3.161   3.172  1.3881  0.4587  1.0306
20325SOL    HW264381   1.620   3.072   3.106 -0.8055 -0.9325 -0.5569
20326SOL     OW64382   7.075   8.252   1.690  0.1141 -0.0161 -0.3937
20326SOL    HW164383   7.152   8.197   1.691  0.5214  0.5051  2.5584
20326SOL    HW264384   7.090   8.316   1.760 -2.5960  0.6104 -0.3013
20327SOL     OW64385   0.087   8.443   9.045  0.2568  0.0369 -0.6986
20327SOL    HW164386   0.115   8.403   9.127 -1.7609 -0.6621 -0.3209
20327SOL    HW264387   0.153   8.416   8.981  1.2562 -0.3003  0.4735
20328SOL     OW64388  10.172   8.433   4.217 -0.0925  0.1622  0.0261
20328SOL    HW164389  10.149   8.392   4.134  0.5187 -1.5510  0.6825
20328SOL    HW264390  10.175   8.527   4.197  3.0499 -0.4305 -2.5953
20329SOL     OW64391   7.439   3.803   1.853 -0.2580  0.4351 -0.1071
20329SOL    HW164392   7.366   3.864   1.859  0.4607  1.3555 -0.4205
20329SOL    HW264393   7.400   3.720   1.825 -1.5207  0.2112  2.1684
20330SOL     OW64394   8.610   8.559   3.130 -0.4495  0.4217 -0.2176
20330SOL    HW164395   8.533   8.600   3.091 -1.7546 -0.5699  1.2783
20330SOL    HW264396   8.588   8.466   3.135  0.6750  0.1854  0.6321
20331SOL     OW64397   2.353   3.979   8.905  0.1055 -0.3999  0.0203
20331SOL    HW164398   2.436   3.976   8.857 -0.8122 -0.0015 -1.6184
20331SOL    HW264399   2.359   4.058   8.958  1.5739 -1.4103  1.4319
20332SOL     OW64400   9.996   6.245   5.529  0.3337 -0.1787 -0.1556
20332SOL    HW164401  10.024   6.164   5.571  1.2253  0.3603  0.3051
20332SOL    HW264402   9.961   6.299   5.600 -0.6359 -0.3157 -0.5206
20333SOL     OW64403   7.995   0.330   0.529 -0.4206 -0.1731 -0.5968
20333SOL    HW164404   8.059   0.388   0.571 -1.0156 -0.8019  1.2167
20333SOL    HW264405   7.965   0.379   0.452  1.5094  0.5360 -0.9204
20334SOL     OW64406   3.010   9.539   0.445  0.5918 -0.0747 -0.2178
20334SOL    HW164407   3.053   9.567   0.364 -0.0161  1.8729  0.1004
20334SOL    HW264408   2.995   9.620   0.493 -0.7324 -1.0304  1.0187
20335SOL     OW64409   5.201   8.075   9.089 -0.2178 -0.0986 -0.1275
20335SOL    HW164410   5.217   8.090   8.995  0.6968 -1.9988 -0.2869
20335SOL    HW264411   5.286   8.048   9.124 -0.9021 -0.8860  0.9514
20336SOL     OW64412   3.487   4.415   3.725 -0.5575  0.5315 -0.5101
20336SOL    HW164413   3.418   4.443   3.785  1.7554 -0.4143  2.7346
20336SOL    HW264414   3.542   4.493   3.713  0.3239  0.1113  0.6122
20337SOL     OW64415   2.132   6.695   3.591  0.4221  0.4874 -0.1771
20337SOL    HW164416   2.083   6.756   3.646  0.9352 -0.3713  1.2692
20337SOL    HW264417   2.203   6.748   3.554 -0.5446  1.3196 -0.8860
20338SOL     OW64418   8.411   4.606   0.068 -0.3470 -0.0809 -0.0544
20338SOL    HW164419   8.445   4.696   0.074 -1.1934  0.2798 -0.6066
20338SOL    HW264420   8.454   4.571  -0.010 -0.0534 -0.1443  0.1316
20339SOL     OW64421  10.371   3.553   0.069 -0.6281  0.2891  0.0581
20339SOL    HW164422  10.311   3.480   0.081 -0.5751  0.4336  1.2620
20339SOL    HW264423  10.322   3.616   0.016 -1.1985  0.0042  0.2486
20340SOL     OW64424   8.280   1.335   0.308  0.1608 -0.3038 -0.1113
20340SOL    HW164425   8.369   1.332   0.273  0.3201  2.3501 -0.0218
20340SOL    HW264426   8.226   1.363   0.235 -0.3228 -0.0916  0.3243
20341SOL     OW64427   9.982   3.991   6.864 -0.1830 -0.0048  0.5080
20341SOL    HW164428   9.965   4.055   6.933 -1.2986  0.9011 -0.5788
20341SOL    HW264429   9.910   3.928   6.872 -0.7672  0.5418 -0.3095
20342SOL     OW64430   7.819  10.804   4.399  0.3328 -0.1232  1.0489
20342SOL    HW164431   7.904  10.828   4.436  0.1469 -0.2369  1.5646
20342SOL    HW264432   7.755  10.855   4.450  0.0951 -0.0149  0.6457
20343SOL     OW64433   0.854   6.975   7.619 -0.4419 -0.3307  0.5858
20343SOL    HW164434   0.836   6.964   7.712  0.8556 -3.1600  0.5588
20343SOL    HW264435   0.948   6.996   7.615 -0.7085  0.7880 -0.0340
20344SOL     OW64436   3.499   2.873   4.786 -0.3297  0.1769  0.2372
20344SOL    HW164437   3.413   2.915   4.786  0.1216  1.1163  0.6273
20344SOL    HW264438   3.480   2.779   4.785 -1.3513  0.3789 -0.6612
20345SOL     OW64439   6.409   4.245   1.981 -0.0869  0.1945 -0.2629
20345SOL    HW164440   6.352   4.170   1.967  0.9683 -1.1603  2.4106
20345SOL    HW264441   6.351   4.313   2.015 -0.9632  0.4793 -2.2642
20346SOL     OW64442   4.501   3.297   6.479  0.4201  0.4116 -0.2317
20346SOL    HW164443   4.560   3.364   6.514 -1.4893  1.2155  1.5639
20346SOL    HW264444   4.413   3.327   6.504 -0.6833 -1.2384 -2.0275
20347SOL     OW64445   2.552   7.935   1.270  0.0074  0.6067  0.7131
20347SOL    HW164446   2.611   7.876   1.224  0.6380  1.6983  0.0837
20347SOL    HW264447   2.501   7.879   1.327 -0.1677 -0.6663 -0.6801
20348SOL     OW64448   6.873  10.973   3.336 -0.1453  0.3350  0.0958
20348SOL    HW164449   6.941  10.910   3.359  1.0756  2.3619  2.2150
20348SOL    HW264450   6.920  11.053   3.313 -1.7312  0.9477 -1.1513
20349SOL     OW64451   7.439   9.920   1.529  0.3432  0.4190 -0.3999
20349SOL    HW164452   7.422   9.829   1.552  2.0842  0.0751 -0.3814
20349SOL    HW264453   7.489   9.954   1.604 -1.8015  1.9041  0.3899
20350SOL     OW64454   8.749   8.318  10.196  0.2352 -0.2814 -0.0716
20350SOL    HW164455   8.697   8.386  10.154 -0.5098  0.2325  1.6274
20350SOL    HW264456   8.721   8.237  10.154 -1.7316  0.0279  0.5758
20351SOL     OW64457   7.737   3.155   9.114  0.1029  0.3479 -0.0830
20351SOL    HW164458   7.715   3.206   9.192  3.2207  1.3444  0.1912
20351SOL    HW264459   7.693   3.201   9.043  1.8219  2.7391  0.3338
20352SOL     OW64460   4.586   9.706   4.876  0.3934 -0.6956  0.4367
20352SOL    HW164461   4.649   9.772   4.905  0.5396  0.3811 -2.1602
20352SOL    HW264462   4.501   9.738   4.909  0.6292  0.1249  0.2624
20353SOL     OW64463   0.967   6.896  10.838 -0.4702  0.1834 -0.2867
20353SOL    HW164464   0.990   6.807  10.811 -0.1970  0.8499 -2.3323
20353SOL    HW264465   0.993   6.900  10.930  1.0845 -1.3192 -0.6179
20354SOL     OW64466   7.453   3.881   6.639 -0.5795  0.2197 -0.4949
20354SOL    HW164467   7.436   3.855   6.548  3.2836 -1.0606 -0.9432
20354SOL    HW264468   7.437   3.802   6.690  1.6253 -0.3398 -0.6433
20355SOL     OW64469  10.890   4.123   9.022 -0.1779  0.2650  0.3309
20355SOL    HW164470  10.832   4.174   9.077 -3.4010 -0.4210 -2.2788
20355SOL    HW264471  10.857   4.033   9.027 -0.8340  0.2411 -2.9471
20356SOL     OW64472   7.861   1.910   0.078 -0.4467 -0.0636 -0.1398
20356SOL    HW164473   7.862   1.925   0.173  0.0309 -1.4551  0.0992
20356SOL    HW264474   7.918   1.978   0.042 -0.0834  0.0506  0.6445
20357SOL     OW64475   1.190   4.606   1.945  0.1509 -0.0904  0.0501
20357SOL    HW164476   1.150   4.549   1.880  1.0478 -0.0234 -0.5633
20357SOL    HW264477   1.146   4.690   1.934 -2.1859 -1.0090  1.9114
20358SOL     OW64478   2.832   3.561   4.005  0.4037 -0.3811  0.4761
20358SOL    HW164479   2.922   3.591   3.990  1.1879 -3.0987 -0.4520
20358SOL    HW264480   2.814   3.501   3.933 -1.3817 -1.5395  1.8371
20359SOL     OW64481   4.381   4.270  10.025  0.5374  0.1429 -0.5819
20359SOL    HW164482   4.462   4.281   9.975  0.9001 -3.4895 -0.9817
20359SOL    HW264483   4.312   4.273   9.959  0.5460  0.8129 -0.5633
20360SOL     OW64484   7.370  10.012   5.772  0.1005 -0.0351 -0.4269
20360SOL    HW164485   7.386   9.974   5.859  0.4131 -1.9463 -1.3100
20360SOL    HW264486   7.411  10.099   5.776 -0.8432  0.3510  1.6901
20361SOL     OW64487   8.744   3.482   4.227  0.5174  0.1694  0.4625
20361SOL    HW164488   8.666   3.433   4.203 -1.9376  3.4011  1.5140
20361SOL    HW264489   8.780   3.435   4.302  0.1940 -1.9144 -0.6563
20362SOL     OW64490   7.843   1.329   6.920  0.4588 -0.1123  0.4461
20362SOL    HW164491   7.851   1.379   6.839  1.0118  0.4266  0.8376
20362SOL    HW264492   7.790   1.253   6.895  2.0725 -0.8430 -0.8225
20363SOL     OW64493   6.468  10.608   9.009  0.2034  0.0098 -0.6585
20363SOL    HW164494   6.508  10.555   9.077  1.1709 -0.5558 -1.6546
20363SOL    HW264495   6.502  10.696   9.024 -1.1234  0.2920  0.7742
20364SOL     OW64496   1.420   7.048   3.476 -0.2963  0.2777  0.2365
20364SOL    HW164497   1.413   7.118   3.541 -0.2663  1.2168 -0.7621
20364SOL    HW264498   1.435   7.093   3.393 -1.4129 -0.8627 -0.6063
20365SOL     OW64499   8.407   4.515   8.016 -0.3403  0.5116 -0.0778
20365SOL    HW164500   8.488   4.479   8.052 -0.6927 -1.7515 -1.4685
20365SOL    HW264501   8.359   4.547   8.093  0.2037 -1.5942  1.1642
20366SOL     OW64502   0.224   5.757   8.202  0.0413 -0.2225 -0.0080
20366SOL    HW164503   0.242   5.746   8.109  1.1059 -0.6349  0.2300
20366SOL    HW264504   0.148   5.701   8.219  1.3712 -2.1276 -0.1496
20367SOL     OW64505   4.651   3.198   1.801 -0.2354 -0.6274  0.4057
20367SOL    HW164506   4.608   3.283   1.791 -0.0880 -0.6959 -0.9420
20367SOL    HW264507   4.653   3.183   1.895 -0.8188  0.5800  0.6226
20368SOL     OW64508   3.381   2.496   7.436 -0.1049  0.0795 -0.4488
20368SOL    HW164509   3.299   2.525   7.474  0.2691 -0.9223  1.1479
20368SOL    HW264510   3.379   2.401   7.442  0.5116 -0.0337 -1.7942
20369SOL     OW64511   9.402   8.468   4.498  0.2298 -0.2147 -0.8404
20369SOL    HW164512   9.370   8.409   4.430  0.0641  1.5966 -2.3730
20369SOL    HW264513   9.440   8.542   4.450  0.6166  0.8283  1.0200
20370SOL     OW64514   0.670   5.781   1.123  0.1842  0.2622 -0.1833
20370SOL    HW164515   0.585   5.763   1.084 -0.5941  2.2183  0.5226
20370SOL    HW264516   0.680   5.714   1.191 -0.8691  0.1376 -0.1447
20371SOL     OW64517   4.188   9.830   4.200 -0.3402  0.4279 -0.1131
20371SOL    HW164518   4.251   9.897   4.175  1.0199 -0.9889 -0.5327
20371SOL    HW264519   4.179   9.839   4.295 -0.5634  1.5284 -0.2358
20372SOL     OW64520  10.632   1.709   1.627  0.3221  0.2534 -0.0688
20372SOL    HW164521  10.570   1.646   1.590  0.8380  0.6593 -1.6649
20372SOL    HW264522  10.585   1.749   1.700  0.3328 -2.6893  1.6253
20373SOL     OW64523   8.465   2.044   4.081 -0.0675 -0.3161 -0.4798
20373SOL    HW164524   8.447   2.029   4.173  0.5913  0.0275 -0.2911
20373SOL    HW264525   8.552   2.007   4.067 -0.2221 -0.4913 -0.9939
20374SOL     OW64526   0.383   4.696   0.373  0.2500 -0.1623  0.1116
20374SOL    HW164527   0.437   4.751   0.430  0.5590  0.0134 -0.3457
20374SOL    HW264528   0.295   4.702   0.409  0.3203  0.4871  0.1751
20375SOL     OW64529   1.235   9.348   5.662  0.5968  0.5920  0.1136
20375SOL    HW164530   1.240   9.406   5.738  2.8646 -0.3166  0.6693
20375SOL    HW264531   1.219   9.261   5.700 -0.9411  0.5263 -0.6257
20376SOL     OW64532   0.436   1.504   8.807 -0.1615 -0.3588 -0.0083
20376SOL    HW164533   0.448   1.502   8.902  1.3667  0.5646 -0.1516
20376SOL    HW264534   0.363   1.563   8.793 -0.2864 -0.3706  0.5959
20377SOL     OW64535   7.478   5.269   8.454 -0.2213  0.0199  0.2027
20377SOL    HW164536   7.460   5.329   8.382 -1.7697 -2.2860 -1.4135
20377SOL    HW264537   7.534   5.201   8.415  0.7347 -0.1114  1.7449
20378SOL     OW64538   8.412   2.504   3.725 -0.4054  0.6818 -0.7001
20378SOL    HW164539   8.470   2.495   3.650 -0.9199 -0.9003 -0.9381
20378SOL    HW264540   8.335   2.550   3.691  0.2652  1.8872 -0.6183
20379SOL     OW64541   3.311   6.058   4.133 -0.3736 -0.2884  0.0368
20379SOL    HW164542   3.292   5.964   4.130  0.0462 -0.4009  0.8559
20379SOL    HW264543   3.244   6.098   4.077  0.7937 -1.3051 -2.1637
20380SOL     OW64544   3.961   0.686   5.953  0.1530 -0.1672 -0.7491
20380SOL    HW164545   3.961   0.713   5.861  0.6323  1.9029 -0.1786
20380SOL    HW264546   3.881   0.724   5.989  0.3381 -0.3534 -0.1332
20381SOL     OW64547   9.101   1.121   1.517  0.4091 -0.6870 -0.2563
20381SOL    HW164548   9.005   1.122   1.523  0.2911  0.1521 -1.9020
20381SOL    HW264549   9.121   1.031   1.490  0.0787 -0.8212 -0.0692
20382SOL     OW64550   9.296   9.845   0.731  0.1189 -0.5291  0.6728
20382SOL    HW164551   9.390   9.825   0.739 -0.0257 -1.5337  0.0258
20382SOL    HW264552   9.269   9.797   0.652 -1.2737 -1.5012  1.7273
20383SOL     OW64553   9.765   7.172   9.458  0.3533  0.4428  0.2797
20383SOL    HW164554   9.706   7.238   9.495  1.5470  1.1454  0.9554
20383SOL    HW264555   9.707   7.106   9.421 -0.8604  1.3821  0.4846
20384SOL     OW64556   9.592   5.154   6.090 -0.3969  0.1912 -0.2536
20384SOL    HW164557   9.531   5.221   6.059  2.4142  1.7571 -2.6913
20384SOL    HW264558   9.629   5.117   6.009  3.6359  1.0168  1.1070
20385SOL     OW64559   0.222   5.903   0.579  0.7384 -0.4322  0.0287
20385SOL    HW164560   0.264   5.844   0.517 -0.1317 -0.0622 -0.9212
20385SOL    HW264561   0.193   5.846   0.650  2.4545 -0.7444  0.4909
20386SOL     OW64562   9.743   0.475   4.230  0.3385 -0.1670 -0.1473
20386SOL    HW164563   9.732   0.487   4.324  0.6881  0.5768 -0.1941
20386SOL    HW264564   9.739   0.381   4.216  0.5441 -0.2907  0.6445
20387SOL     OW64565   8.852   0.610   6.325 -0.0293  0.1760 -0.5679
20387SOL    HW164566   8.836   0.609   6.231 -0.7486  0.4893 -0.4489
20387SOL    HW264567   8.767   0.589   6.365  0.5925 -1.4517 -0.0227
20388SOL     OW64568   9.978   3.198   0.375  0.2720  0.1652 -0.1284
20388SOL    HW164569   9.915   3.268   0.360  0.5436  0.5158  0.3790
20388SOL    HW264570  10.028   3.226   0.451  0.9561 -0.1785 -0.4499
20389SOL     OW64571   6.980   1.212  10.837 -0.2985 -0.5474  0.5050
20389SOL    HW164572   7.015   1.269  10.905 -0.8748 -0.3294  0.6209
20389SOL    HW264573   6.936   1.272  10.776 -0.2138 -0.7886  0.2055
20390SOL     OW64574   9.472  10.601   5.513  0.0967 -0.2747  0.4481
20390SOL    HW164575   9.422  10.681   5.532 -1.0936 -0.7565 -0.5398
20390SOL    HW264576   9.405  10.532   5.510  0.5893 -0.7117 -2.3051
20391SOL     OW64577   0.138   4.190   5.044 -0.4744 -0.4635  0.1184
20391SOL    HW164578   0.053   4.147   5.032  0.1465 -1.6141 -0.2359
20391SOL    HW264579   0.157   4.181   5.137 -0.9073  0.0914  0.2556
20392SOL     OW64580   0.152   0.770   5.753 -0.3752 -0.3159  0.3687
20392SOL    HW164581   0.226   0.711   5.769  0.3523  0.3955 -0.3501
20392SOL    HW264582   0.134   0.761   5.660 -1.6667 -1.0213  0.6775
20393SOL     OW64583   1.868   9.951   2.783 -0.2922  0.2983 -0.3387
20393SOL    HW164584   1.909  10.020   2.835 -1.5671  1.1803 -0.4869
20393SOL    HW264585   1.937   9.885   2.771  0.7011  1.1904  0.4500
20394SOL     OW64586   4.600   2.959   9.793 -0.6016  1.1067 -0.5980
20394SOL    HW164587   4.579   3.036   9.740 -0.3236  2.4907  1.2619
20394SOL    HW264588   4.588   2.988   9.884  3.7382  0.3390  0.3696
20395SOL     OW64589   8.746   0.714   0.195  0.2305  0.3168  0.3455
20395SOL    HW164590   8.692   0.644   0.231  0.0620  0.4234  0.3014
20395SOL    HW264591   8.757   0.692   0.103 -0.3097  0.6534  0.1991
20396SOL     OW64592   7.743   5.322   5.286 -0.2186  0.2398 -0.2313
20396SOL    HW164593   7.821   5.372   5.260 -0.9168  1.8560  0.6989
20396SOL    HW264594   7.778   5.237   5.315  1.2359  1.0301  0.4064
20397SOL     OW64595   5.082   3.575   6.021 -0.2305 -0.5746  0.0430
20397SOL    HW164596   5.173   3.605   6.020 -0.7328  1.0301  0.8971
20397SOL    HW264597   5.083   3.497   6.076  0.4610  0.0410  0.9258
20398SOL     OW64598   8.340   3.549  10.133  0.6852 -0.1264 -0.2600
20398SOL    HW164599   8.325   3.502  10.051  1.8597 -1.7329  0.4170
20398SOL    HW264600   8.350   3.640  10.106  0.6481 -0.5701 -1.8616
20399SOL     OW64601   5.497   3.121   3.953  0.5702 -0.5752 -0.5562
20399SOL    HW164602   5.522   3.187   3.888 -0.0393 -0.4094 -0.6216
20399SOL    HW264603   5.405   3.103   3.935  0.1136  0.2432  0.9392
20400SOL     OW64604   1.304   1.504   8.047 -0.3290  0.1107  0.1171
20400SOL    HW164605   1.367   1.576   8.058 -1.6371  1.1552  0.9467
20400SOL    HW264606   1.333   1.437   8.109  0.3763  0.2876 -0.0142
20401SOL     OW64607   4.500   9.962   5.740  0.5022  0.4619  0.1075
20401SOL    HW164608   4.472  10.046   5.703  0.6279 -0.7430 -2.8847
20401SOL    HW264609   4.435   9.899   5.708  1.1433 -0.7938  1.2473
20402SOL     OW64610   5.560   0.121   9.047  0.4180 -0.2396  0.0058
20402SOL    HW164611   5.555   0.034   9.088 -0.9178  0.3869  1.2023
20402SOL    HW264612   5.638   0.116   8.991  0.2793 -2.2577 -0.0568
20403SOL     OW64613   6.310   0.853   4.663 -0.4521 -0.2641 -0.1992
20403SOL    HW164614   6.284   0.939   4.695  0.0928  0.4243 -1.5816
20403SOL    HW264615   6.273   0.848   4.575  0.0152 -1.2077 -0.3445
20404SOL     OW64616   4.226   4.364   0.836  0.0294  0.1119 -0.0008
20404SOL    HW164617   4.294   4.403   0.890 -0.2896  2.1431 -1.0227
20404SOL    HW264618   4.146   4.370   0.890  0.1855 -0.1439  0.2635
20405SOL     OW64619   0.141   1.091   9.226 -0.5993  0.3261 -0.4759
20405SOL    HW164620   0.211   1.027   9.212  0.3876  0.6657  2.6929
20405SOL    HW264621   0.156   1.158   9.159  1.3939 -0.2238 -0.6110
20406SOL     OW64622   8.428   4.188   9.821  0.1942  0.1859  0.0792
20406SOL    HW164623   8.344   4.172   9.863  0.0062 -0.9759 -0.7211
20406SOL    HW264624   8.455   4.274   9.853 -0.6944  0.0125  1.3224
20407SOL     OW64625   1.878   5.217   0.007 -0.4322 -0.3033  0.1661
20407SOL    HW164626   1.872   5.122   0.001  0.0058 -0.2789 -0.8482
20407SOL    HW264627   1.957   5.233   0.059  0.3435 -0.4912 -0.9382
20408SOL     OW64628   0.859   6.865  10.244 -0.8276 -0.2974 -0.0827
20408SOL    HW164629   0.948   6.846  10.273 -0.4741  0.6201 -0.5574
20408SOL    HW264630   0.843   6.802  10.174 -0.4482 -0.2894 -0.1788
20409SOL     OW64631   5.929   5.073   2.920  0.5026  0.0345  0.2578
20409SOL    HW164632   5.987   5.027   2.859 -0.1634  0.6222 -0.8149
20409SOL    HW264633   5.979   5.075   3.002  1.4401 -0.6704 -0.2830
20410SOL     OW64634   6.779   0.691   3.785 -0.0118 -0.4254 -0.1802
20410SOL    HW164635   6.692   0.729   3.777  0.0502 -0.4608 -1.1074
20410SOL    HW264636   6.779   0.618   3.723  0.4612 -0.8289  0.2880
20411SOL     OW64637   5.812   7.315  10.768 -0.1587  0.5272  0.1145
20411SOL    HW164638   5.904   7.294  10.756 -0.3952 -0.1876 -0.5319
20411SOL    HW264639   5.766   7.252  10.712 -1.0534  0.6089  0.7457
20412SOL     OW64640   2.124   8.216   0.666 -0.1163 -0.2408  0.2941
20412SOL    HW164641   2.170   8.137   0.637  0.8920  0.2543  0.5383
20412SOL    HW264642   2.192   8.282   0.676 -0.8226  0.3843  1.0780
20413SOL     OW64643   0.938   2.201   6.131  0.2084 -0.2717  0.3524
20413SOL    HW164644   1.014   2.180   6.077 -0.2412  0.0360 -0.4065
20413SOL    HW264645   0.968   2.187   6.221  0.4618 -2.5123 -0.0302
20414SOL     OW64646   1.853   2.654   1.415 -0.1378  0.3597 -0.0171
20414SOL    HW164647   1.910   2.667   1.339 -0.6208  0.3647 -0.3837
20414SOL    HW264648   1.810   2.738   1.428  0.3134  0.4959  0.5646
20415SOL     OW64649   7.476   4.565   0.574 -0.1590  0.2527 -0.4414
20415SOL    HW164650   7.557   4.553   0.524 -0.0187  1.9442 -0.6502
20415SOL    HW264651   7.412   4.509   0.530  0.8602 -1.0648 -0.3090
20416SOL     OW64652   4.074   4.120   1.485  0.4035  0.0159  0.1881
20416SOL    HW164653   4.070   4.212   1.511  0.4921  0.0835 -0.0300
20416SOL    HW264654   4.073   4.123   1.389  2.8661 -0.0881  0.1284
20417SOL     OW64655   0.698  10.889   7.177 -0.2756 -0.2487  0.4999
20417SOL    HW164656   0.738  10.807   7.204 -1.2235 -0.0958  2.4887
20417SOL    HW264657   0.624  10.901   7.237 -0.5107  1.7525 -0.1349
20418SOL     OW64658   5.054   6.355   0.902  0.2402 -0.0078  0.0691
20418SOL    HW164659   5.063   6.440   0.859 -2.3115  0.6006  0.6246
20418SOL    HW264660   4.962   6.353   0.930  0.0672 -3.2487 -0.5911
20419SOL     OW64661   9.704   4.701   3.345 -0.6377  0.0790 -0.5566
20419SOL    HW164662   9.670   4.779   3.301 -2.6510 -0.1424  0.5195
20419SOL    HW264663   9.625   4.654   3.375  0.4935 -2.7528 -1.8170
20420SOL     OW64664   0.556   4.386   8.032 -0.0433 -0.1725  0.0597
20420SOL    HW164665   0.513   4.400   8.116  0.5411  1.1702  0.1525
20420SOL    HW264666   0.650   4.392   8.051  0.0951  0.0814 -0.6619
20421SOL     OW64667   3.442   9.741   1.251  0.5494  0.2474  0.0530
20421SOL    HW164668   3.425   9.648   1.239  0.0675  0.1806  1.2176
20421SOL    HW264669   3.482   9.769   1.168 -0.1236 -0.7926 -0.6355
20422SOL     OW64670   2.247   3.073   0.459  0.0590  0.3158 -0.2120
20422SOL    HW164671   2.165   3.121   0.449 -0.4933 -0.9616 -2.0192
20422SOL    HW264672   2.314   3.141   0.459 -0.9946  1.3760  1.3716
20423SOL     OW64673   4.927   3.578   1.266  0.1466 -0.8592 -0.3486
20423SOL    HW164674   4.882   3.658   1.241  0.2061 -0.8205 -0.3310
20423SOL    HW264675   4.946   3.589   1.359  2.2563  0.1116 -0.8635
20424SOL     OW64676   2.019   3.995  10.941  0.3536 -0.0982  0.3134
20424SOL    HW164677   2.002   3.983  11.034  0.0984 -0.9841  0.1476
20424SOL    HW264678   1.935   3.980  10.898  0.9143 -1.6790 -0.2405
20425SOL     OW64679   3.191   2.616   0.670  0.8360  0.6866 -0.5755
20425SOL    HW164680   3.249   2.661   0.732  1.7639  1.8040 -2.2100
20425SOL    HW264681   3.233   2.532   0.655  0.2802  0.1504  0.7628
20426SOL     OW64682   5.431   1.194   8.876  0.3260  0.3336 -0.6156
20426SOL    HW164683   5.370   1.258   8.838 -1.8502 -0.0709  2.0209
20426SOL    HW264684   5.491   1.247   8.928  0.3204  0.4811 -0.7566
20427SOL     OW64685  10.949   2.351   9.364 -0.2413 -0.6076  0.5018
20427SOL    HW164686  11.002   2.315   9.434  2.1685  0.7231 -0.5539
20427SOL    HW264687  10.901   2.277   9.328  2.1703 -2.1833  0.4417
20428SOL     OW64688   7.090   4.547   5.484  0.1408 -0.1078  0.2167
20428SOL    HW164689   7.176   4.526   5.520 -0.7251  0.0316  2.4439
20428SOL    HW264690   7.053   4.462   5.460  0.7389 -0.1977 -0.4018
20429SOL     OW64691   8.440   5.759   5.685 -0.1970  0.0507 -0.0300
20429SOL    HW164692   8.500   5.726   5.752 -0.0374 -0.4204 -0.4022
20429SOL    HW264693   8.487   5.746   5.602  0.3001  2.1344 -0.1144
20430SOL     OW64694   8.099   1.005   2.983 -0.5372 -0.4396  0.4229
20430SOL    HW164695   8.141   0.995   2.897 -1.1220  0.7793 -0.0169
20430SOL    HW264696   8.066   0.918   3.003  0.1348 -0.8757 -0.3181
20431SOL     OW64697   4.562   5.098   0.464  0.0091  0.1951 -0.4529
20431SOL    HW164698   4.479   5.062   0.496  0.0838 -0.6095 -1.1349
20431SOL    HW264699   4.625   5.027   0.477  0.2635  0.2516 -1.3555
20432SOL     OW64700   3.990   7.229   3.719 -0.6033  0.6771  0.0287
20432SOL    HW164701   4.025   7.238   3.807 -2.4256 -0.8061  0.9378
20432SOL    HW264702   3.996   7.318   3.682  1.5957  1.0036  1.0534
20433SOL     OW64703   2.230   9.694  10.290 -0.2898 -0.1778  0.1983
20433SOL    HW164704   2.276   9.667  10.369  0.0724  0.4733  0.2144
20433SOL    HW264705   2.228   9.790  10.295 -0.1869 -0.1304 -0.6281
20434SOL     OW64706   7.670   7.388   0.150 -0.0342  0.3860 -0.2309
20434SOL    HW164707   7.597   7.335   0.182  0.4666 -0.5014 -0.5418
20434SOL    HW264708   7.646   7.408   0.060  0.7098 -1.0089 -0.7477
20435SOL     OW64709   2.931   3.859   3.224 -0.6754  0.5928  0.2977
20435SOL    HW164710   3.005   3.881   3.280 -0.1942  0.8000 -0.4151
20435SOL    HW264711   2.877   3.800   3.277 -1.7039  3.0247  2.0479
20436SOL     OW64712   2.281   3.665   9.996  0.7887 -0.1752  0.3765
20436SOL    HW164713   2.206   3.676   9.938 -0.3173  0.0798  1.8332
20436SOL    HW264714   2.298   3.752  10.032 -0.5643 -0.8831  2.8712
20437SOL     OW64715   7.643   9.061   7.648  0.1753 -0.1006  0.0491
20437SOL    HW164716   7.671   9.060   7.556  1.9652 -0.8207  0.5750
20437SOL    HW264717   7.609   8.973   7.664  1.7202 -0.6123  0.6039
20438SOL     OW64718   8.729   6.088   9.895 -0.0812 -0.4194 -0.0048
20438SOL    HW164719   8.806   6.033   9.882 -1.4998 -2.2332 -1.0020
20438SOL    HW264720   8.761   6.178   9.881  1.7941 -1.1631 -0.6308
20439SOL     OW64721   9.765   7.075   8.327 -0.0457 -0.1091 -0.3413
20439SOL    HW164722   9.812   7.089   8.409 -0.4053 -1.9069  0.1864
20439SOL    HW264723   9.763   7.161   8.285  1.7963  0.4266  0.6496
20440SOL     OW64724   4.100   9.180   5.340 -0.8130 -0.7342 -0.0502
20440SOL    HW164725   4.119   9.183   5.246  0.0214 -0.0184  0.1383
20440SOL    HW264726   4.164   9.119   5.376 -1.4541 -1.3906 -0.0183
20441SOL     OW64727   0.126   6.234   6.101  0.7050 -0.4943  0.1079
20441SOL    HW164728   0.127   6.329   6.094  1.8331 -0.4809  0.3797
20441SOL    HW264729   0.131   6.203   6.010  2.3503 -0.2915  0.1156
20442SOL     OW64730   7.972   5.601   2.512 -0.0067  0.0162 -0.0182
20442SOL    HW164731   8.029   5.571   2.582 -1.7574  2.1279  2.4209
20442SOL    HW264732   8.020   5.673   2.471  1.3457 -1.7078 -1.5692
20443SOL     OW64733   2.693   4.487   1.489 -0.6689  0.7160  0.2911
20443SOL    HW164734   2.647   4.404   1.501  2.0193 -0.8144  0.5392
20443SOL    HW264735   2.725   4.509   1.577  0.0799  1.0996 -0.0750
20444SOL     OW64736  10.656   6.235   3.200  0.5561  0.3091 -0.0125
20444SOL    HW164737  10.580   6.274   3.158  1.2209 -0.5067 -2.0321
20444SOL    HW264738  10.690   6.304   3.257 -0.2198  1.5219 -0.9984
20445SOL     OW64739   5.112   9.336   0.618  0.0950 -0.2737 -0.0361
20445SOL    HW164740   5.112   9.313   0.525 -0.3853 -0.4593  0.0071
20445SOL    HW264741   5.030   9.300   0.652  0.7597 -1.1247  0.6912
20446SOL     OW64742   8.140   4.156   8.431  0.0657 -0.0915  0.1715
20446SOL    HW164743   8.085   4.182   8.505 -0.4325  0.5017 -0.4108
20446SOL    HW264744   8.105   4.204   8.356  0.2519 -1.0800 -0.5561
20447SOL     OW64745   6.554   7.781   6.330 -0.3337  0.5533  0.0733
20447SOL    HW164746   6.521   7.785   6.419  0.1267  0.5175  0.2481
20447SOL    HW264747   6.645   7.751   6.339 -0.1662  0.9127 -0.3751
20448SOL     OW64748   2.252   3.146   9.665 -0.0924  0.0034 -0.0370
20448SOL    HW164749   2.262   3.055   9.691  0.3303 -0.7827 -2.7241
20448SOL    HW264750   2.159   3.165   9.680 -0.4973 -1.3330 -0.7101
20449SOL     OW64751   6.127   3.858   6.258 -0.3238 -0.3159  0.1203
20449SOL    HW164752   6.118   3.948   6.224  0.9109  0.1185  0.9323
20449SOL    HW264753   6.044   3.842   6.303 -0.9433  0.0535 -0.8489
20450SOL     OW64754   7.710   4.399   6.631 -0.4001 -0.1298  1.0305
20450SOL    HW164755   7.716   4.343   6.554  1.3493  1.8191 -0.3106
20450SOL    HW264756   7.620   4.430   6.631  0.1748  1.7717 -1.7063
20451SOL     OW64757   6.508   7.503   5.553 -0.5701 -0.0736  0.0417
20451SOL    HW164758   6.540   7.450   5.626 -1.9237  1.5316  1.8639
20451SOL    HW264759   6.450   7.445   5.504 -1.1093 -0.6284  1.3305
20452SOL     OW64760   8.453   3.108   9.462  0.2687  0.3345  0.1551
20452SOL    HW164761   8.433   3.076   9.374 -1.7392  0.0764  0.6793
20452SOL    HW264762   8.529   3.165   9.450 -0.0602  0.4106 -1.7683
20453SOL     OW64763  10.436   5.656   1.220  0.4087  0.0075 -0.3341
20453SOL    HW164764  10.355   5.701   1.243  0.8615  1.2211 -1.0518
20453SOL    HW264765  10.439   5.658   1.124  1.1919 -0.1632 -0.3217
20454SOL     OW64766   1.009   7.731   0.337 -0.0936  0.7079  0.2619
20454SOL    HW164767   1.034   7.703   0.425  0.0263  1.6979  0.5519
20454SOL    HW264768   0.913   7.725   0.337 -0.0185 -0.6676 -0.0208
20455SOL     OW64769  10.350   2.983  10.505 -0.4188  0.4641 -0.8593
20455SOL    HW164770  10.355   3.031  10.423  2.9500  0.9645 -0.4310
20455SOL    HW264771  10.345   3.052  10.572  1.9694  0.2236 -0.3914
20456SOL     OW64772   7.415   4.819   0.560  0.1492 -0.1000  0.2865
20456SOL    HW164773   7.491   4.869   0.588  0.1360  0.1938 -0.2039
20456SOL    HW264774   7.441   4.727   0.574  0.8030 -0.0271 -0.4049
20457SOL     OW64775   6.709   9.233   8.412  0.3109 -0.0926 -0.4232
20457SOL    HW164776   6.766   9.163   8.446  1.9000  0.8622 -1.0464
20457SOL    HW264777   6.635   9.187   8.373  1.3425 -1.4445 -0.8406
20458SOL     OW64778   5.373   5.348   2.154 -0.1345 -0.6401 -0.3613
20458SOL    HW164779   5.460   5.385   2.141 -0.9655  1.6129  0.2623
20458SOL    HW264780   5.389   5.257   2.178  2.0439 -0.2755 -0.3283
20459SOL     OW64781   6.099  10.322   5.302 -0.6921  0.3482 -0.2276
20459SOL    HW164782   6.003  10.320   5.303 -0.6857  0.0716  0.8795
20459SOL    HW264783   6.123  10.326   5.394  0.3360  2.5860 -0.5570
20460SOL     OW64784   5.597  10.905   2.313  0.2733 -0.1305 -0.4292
20460SOL    HW164785   5.503  10.905   2.329  0.4100  0.0113  0.4204
20460SOL    HW264786   5.635  10.865   2.391  1.2042  3.8166  1.3064
20461SOL     OW64787   5.703   9.161   5.358  0.1311  0.1072  0.2989
20461SOL    HW164788   5.718   9.067   5.353 -0.7345  0.0177 -0.9166
20461SOL    HW264789   5.608   9.170   5.362  0.0809  0.9867 -1.8432
20462SOL     OW64790  10.341   2.958   8.260 -0.0177 -0.1098 -0.0133
20462SOL    HW164791  10.338   2.865   8.238 -1.9575 -0.3980  1.3149
20462SOL    HW264792  10.348   2.960   8.356 -0.2317  1.1046 -0.0165
20463SOL     OW64793   4.832   0.510   2.636 -0.3186  0.3111 -0.3095
20463SOL    HW164794   4.870   0.579   2.690 -1.9232  2.7131 -2.1228
20463SOL    HW264795   4.895   0.496   2.565 -0.1640  0.1608 -0.1433
20464SOL     OW64796   7.095   4.168   4.323  0.6221  0.3158 -0.2517
20464SOL    HW164797   7.035   4.222   4.273  0.8485 -0.4701 -1.3822
20464SOL    HW264798   7.174   4.164   4.270  0.7928 -0.6902  0.0666
20465SOL     OW64799   4.020   6.195   2.528 -0.3224  0.2092 -0.1660
20465SOL    HW164800   4.092   6.223   2.472 -1.3098 -1.0355 -2.1079
20465SOL    HW264801   4.062   6.143   2.596  0.9680  2.2966  0.6801
20466SOL     OW64802   7.353   2.433  10.153 -0.3457 -0.0054  0.6888
20466SOL    HW164803   7.331   2.507  10.209  2.7413  0.2944  1.5881
20466SOL    HW264804   7.378   2.363  10.213  1.6441 -0.1264 -0.2196
20467SOL     OW64805   8.805   3.102   3.052  0.1983  0.1396  0.1968
20467SOL    HW164806   8.746   3.094   3.127 -0.3094 -0.6092 -0.2784
20467SOL    HW264807   8.793   3.021   3.002 -1.1139  1.5691 -1.8787
20468SOL     OW64808   1.126   0.743   6.669  0.3935  0.2550 -0.6670
20468SOL    HW164809   1.063   0.758   6.739 -0.8144 -3.1784 -0.8847
20468SOL    HW264810   1.111   0.651   6.643  3.9341  0.0480 -2.2763
20469SOL     OW64811   3.480   1.095   2.142 -0.3054  0.0943  0.1225
20469SOL    HW164812   3.451   1.010   2.177  0.7975 -0.0207  0.7900
20469SOL    HW264813   3.509   1.075   2.053  1.5461 -0.5791  0.8456
20470SOL     OW64814   5.146   8.947   6.690  0.5320 -0.7145 -0.5834
20470SOL    HW164815   5.057   8.953   6.656  0.8643 -0.4470 -1.4199
20470SOL    HW264816   5.146   9.002   6.768 -0.1764 -1.1412 -0.2914
20471SOL     OW64817   7.629   2.440   5.658 -0.5736  0.2478 -0.5791
20471SOL    HW164818   7.589   2.398   5.734 -0.2005  1.4745  0.3054
20471SOL    HW264819   7.655   2.526   5.689  0.9256  0.2154 -1.7039
20472SOL     OW64820   5.386   2.073   1.825 -0.0851 -0.4112 -0.4284
20472SOL    HW164821   5.392   2.035   1.913  2.2361 -0.0457 -0.4121
20472SOL    HW264822   5.345   2.004   1.772  0.4673 -1.4401  0.4696
20473SOL     OW64823   8.704   7.829   6.773  0.3562  0.3053 -0.4446
20473SOL    HW164824   8.791   7.858   6.747  0.0400 -0.0360 -1.9384
20473SOL    HW264825   8.646   7.901   6.747  0.3998  1.4124  2.3566
20474SOL     OW64826  10.503   3.210   3.462 -0.1523  0.2397 -0.2466
20474SOL    HW164827  10.408   3.219   3.456 -0.0377  1.6873 -0.1222
20474SOL    HW264828  10.536   3.254   3.384  0.3718 -1.5632 -1.0711
20475SOL     OW64829   8.029   0.584   3.506  1.0157  0.0964  0.2129
20475SOL    HW164830   7.939   0.568   3.478  0.9715  0.9047 -0.1264
20475SOL    HW264831   8.059   0.499   3.539 -0.0918 -0.0205  0.9716
20476SOL     OW64832   2.103   2.373   5.727  0.1383  0.0008  0.5117
20476SOL    HW164833   2.156   2.368   5.806  1.7778  0.4596 -0.5461
20476SOL    HW264834   2.047   2.449   5.741 -0.4652 -0.6488  1.7484
20477SOL     OW64835   9.959   5.844   9.443  0.3441 -0.1124 -0.8222
20477SOL    HW164836   9.978   5.906   9.513 -1.7029  2.2904 -2.2904
20477SOL    HW264837   9.978   5.759   9.480  0.0769  1.1595  2.3785
20478SOL     OW64838   9.560   2.850   9.272  0.2167  0.3017 -0.3238
20478SOL    HW164839   9.583   2.758   9.282  0.6498  0.7252  3.0839
20478SOL    HW264840   9.464   2.850   9.268  0.1650 -0.2143  0.8213
20479SOL     OW64841   8.877   4.877   2.499 -0.0188  0.0805 -0.2231
20479SOL    HW164842   8.968   4.880   2.468  0.9569 -1.9134  2.2275
20479SOL    HW264843   8.881   4.909   2.589 -1.8363  0.3781 -0.2258
20480SOL     OW64844  10.630   7.774   2.593 -0.8706  0.1735 -0.4022
20480SOL    HW164845  10.559   7.754   2.532 -0.3466  1.2177 -1.3854
20480SOL    HW264846  10.706   7.728   2.556 -1.3276 -2.1440  1.4325
20481SOL     OW64847   2.717   7.460   9.484  0.0921 -0.7741 -0.3225
20481SOL    HW164848   2.810   7.481   9.481 -0.0041 -0.3134 -0.1934
20481SOL    HW264849   2.674   7.539   9.451 -0.2313 -1.1335 -0.7745
20482SOL     OW64850   8.511   7.209   0.084  0.0202 -0.5765  0.4313
20482SOL    HW164851   8.575   7.154   0.129 -0.3647 -1.3397  0.0698
20482SOL    HW264852   8.497   7.165  -0.000  0.6024  0.7279 -0.3611
20483SOL     OW64853   2.750   9.441   3.631 -0.3082  0.1349  0.1834
20483SOL    HW164854   2.704   9.444   3.547  1.5045  1.3345 -0.8062
20483SOL    HW264855   2.823   9.380   3.617  0.7780  1.3409  0.4606
20484SOL     OW64856   4.332   0.841  10.505 -0.3418  0.4461 -0.4993
20484SOL    HW164857   4.272   0.903  10.548  0.5422  0.0835  1.3299
20484SOL    HW264858   4.399   0.824  10.571 -1.1587 -3.3409 -0.5541
20485SOL     OW64859   3.769  10.078   4.427  0.2632  0.3510 -0.5594
20485SOL    HW164860   3.838  10.014   4.413  0.6692  0.3868  1.2279
20485SOL    HW264861   3.799  10.131   4.501 -1.2492  0.9387 -0.3476
20486SOL     OW64862  10.181  10.889   9.488 -0.0988  0.5944  0.1162
20486SOL    HW164863  10.173  10.851   9.401  1.0764 -0.6718  0.5387
20486SOL    HW264864  10.191  10.983   9.473 -0.1718  0.4131 -1.0951
20487SOL     OW64865   1.118   5.099   8.840  0.3347  0.3471 -0.2032
20487SOL    HW164866   1.097   5.051   8.920 -0.8673  0.8275 -0.2137
20487SOL    HW264867   1.037   5.146   8.819  0.6894  0.3462 -1.6123
20488SOL     OW64868   5.475   4.151   1.100 -0.1395 -0.2482 -0.0051
20488SOL    HW164869   5.394   4.163   1.149  1.0280  2.9818  1.2830
20488SOL    HW264870   5.462   4.199   1.019 -0.0269 -0.9193 -0.4270
20489SOL     OW64871   5.450   6.112   6.549 -0.2012  0.1938 -0.7369
20489SOL    HW164872   5.521   6.170   6.521  0.9554 -2.0174 -2.5073
20489SOL    HW264873   5.470   6.028   6.508 -2.2608 -1.2672  1.1503
20490SOL     OW64874   1.730  10.772   9.049  0.4397 -0.2515  0.0567
20490SOL    HW164875   1.764  10.819   9.126 -0.8336  1.3648 -0.3523
20490SOL    HW264876   1.672  10.835   9.006  1.1449 -1.1346 -2.2468
20491SOL     OW64877   9.404   9.884   6.908  0.4783 -0.5909  0.3343
20491SOL    HW164878   9.356   9.824   6.851  0.9784 -0.1796 -0.5305
20491SOL    HW264879   9.453   9.826   6.967 -1.6335 -1.0249  1.7576
20492SOL     OW64880   8.605   9.223   3.046  0.1317 -0.4616 -0.0933
20492SOL    HW164881   8.513   9.197   3.041 -0.0840  0.0500  1.0400
20492SOL    HW264882   8.648   9.171   2.978 -0.7813 -1.6335  0.2071
20493SOL     OW64883   0.636   3.198   7.857 -0.3228  0.3596 -0.2623
20493SOL    HW164884   0.601   3.243   7.780 -1.6252 -0.4910 -0.1783
20493SOL    HW264885   0.604   3.250   7.931 -1.9761 -0.7659 -0.1568
20494SOL     OW64886   0.459   3.528   0.964  0.0059  0.2366  0.0554
20494SOL    HW164887   0.448   3.436   0.987  1.7706  0.1102  0.5151
20494SOL    HW264888   0.387   3.547   0.904 -0.6530 -1.3127  0.3355
20495SOL     OW64889   4.389   7.707   9.745  0.1133 -0.1477 -0.0883
20495SOL    HW164890   4.455   7.758   9.698  0.7675  0.5959  1.5592
20495SOL    HW264891   4.381   7.625   9.696  3.7407 -1.1064  0.7712
20496SOL     OW64892   7.374   8.221   5.546 -0.1365  0.5134  0.0507
20496SOL    HW164893   7.312   8.294   5.547 -0.8679 -0.0930  0.4942
20496SOL    HW264894   7.380   8.195   5.638 -2.4339 -2.0808 -0.4717
20497SOL     OW64895   6.114   5.481   7.968  0.3496 -0.2724 -0.6118
20497SOL    HW164896   6.153   5.555   7.920  1.0382  0.1228  0.5427
20497SOL    HW264897   6.165   5.405   7.940 -0.6175 -0.3876 -2.1066
20498SOL     OW64898   2.568   0.709  10.543  0.0819 -0.0678  0.0104
20498SOL    HW164899   2.511   0.645  10.587 -0.1080 -0.5310 -0.8836
20498SOL    HW264900   2.512   0.786  10.531  0.3613  0.3373  1.2415
20499SOL     OW64901  10.078   5.834   0.937  0.4029  0.1706  0.5448
20499SOL    HW164902   9.997   5.801   0.896  1.1210 -1.8988  0.7729
20499SOL    HW264903  10.123   5.880   0.866  0.6797 -1.6847 -0.5047
20500SOL     OW64904   2.822   2.831   1.471  0.4195 -0.6076  0.0543
20500SOL    HW164905   2.785   2.827   1.560 -0.6435 -0.0045 -0.3419
20500SOL    HW264906   2.763   2.890   1.425  1.8128  0.2160 -0.6635
20501SOL     OW64907   1.192   0.165   3.026  0.1840 -0.0616 -0.0280
20501SOL    HW164908   1.278   0.179   2.987  0.6606  1.6164  1.5763
20501SOL    HW264909   1.161   0.252   3.049 -1.2208 -0.7900  0.9527
20502SOL     OW64910   1.836   3.724   5.832  0.2585 -0.7039  0.2949
20502SOL    HW164911   1.818   3.817   5.831 -0.5174 -0.7955  2.5594
20502SOL    HW264912   1.932   3.718   5.834  0.3123  0.0149 -0.0274
20503SOL     OW64913  10.891   3.197   9.961 -0.2382  1.0975 -0.2358
20503SOL    HW164914  10.977   3.185   9.921  0.1899  1.6412  0.4982
20503SOL    HW264915  10.852   3.109   9.962  0.7539  0.6554  0.4020
20504SOL     OW64916   0.106   5.375   3.675  0.3183  0.4765  0.0909
20504SOL    HW164917   0.138   5.423   3.598 -0.9135 -1.3788 -1.6322
20504SOL    HW264918   0.012   5.363   3.659  0.0267  0.1246  1.9323
20505SOL     OW64919   1.353   6.720   3.329 -0.0732 -0.6641 -0.0968
20505SOL    HW164920   1.323   6.770   3.405  1.0263 -0.5457  0.2733
20505SOL    HW264921   1.402   6.783   3.277  0.0189 -0.9848 -0.3989
20506SOL     OW64922   8.212   6.571   6.309  0.2328 -0.0611  0.5986
20506SOL    HW164923   8.282   6.633   6.329  0.1085 -0.5083  2.4804
20506SOL    HW264924   8.132   6.617   6.334  0.1986 -1.2720  2.8172
20507SOL     OW64925   2.033   2.401   7.185 -0.3810 -0.0346  0.1337
20507SOL    HW164926   2.072   2.369   7.103 -0.2192  0.2810  0.0860
20507SOL    HW264927   1.939   2.395   7.170 -0.4343  3.3535 -1.4434
20508SOL     OW64928   4.824   8.624   3.639  0.2168 -0.9217  0.3732
20508SOL    HW164929   4.881   8.556   3.673  0.9008  0.3073  1.7195
20508SOL    HW264930   4.855   8.705   3.680  0.3360  0.4363 -2.2785
20509SOL     OW64931   6.014   6.880   6.243  0.2904  0.2047  0.2582
20509SOL    HW164932   6.041   6.888   6.334  0.8984  0.6861  0.0440
20509SOL    HW264933   5.987   6.969   6.218  0.5398  0.1703 -0.1475
20510SOL     OW64934   1.025   3.761   2.022 -0.1275 -0.2144  0.3600
20510SOL    HW164935   0.938   3.725   2.010 -1.4598  1.6795  3.7164
20510SOL    HW264936   1.017   3.852   1.995  0.4811  0.2741  1.7805
20511SOL     OW64937   6.295   9.381   7.576 -0.2754 -0.2733  0.7057
20511SOL    HW164938   6.216   9.412   7.530 -0.0429 -0.1322  0.3998
20511SOL    HW264939   6.267   9.300   7.618 -0.2191 -0.9546 -0.5447
20512SOL     OW64940   4.897   3.269   9.789  0.0279  0.4873 -0.0794
20512SOL    HW164941   4.973   3.299   9.839 -0.1767  3.0191 -1.2312
20512SOL    HW264942   4.823   3.278   9.849  0.2435  0.5418  0.1777
20513SOL     OW64943   6.976   6.053   0.564  0.0597  0.7956 -0.2938
20513SOL    HW164944   6.980   6.104   0.483  0.3440 -0.7075 -1.2412
20513SOL    HW264945   6.896   6.002   0.556  0.5343  0.0030 -0.0187
20514SOL     OW64946   1.791   6.447   6.505  1.0918 -0.4669 -0.2052
20514SOL    HW164947   1.853   6.382   6.473  1.8038  0.8241 -1.5002
20514SOL    HW264948   1.736   6.467   6.429 -1.6437 -2.3812  1.1914
20515SOL     OW64949   1.112   5.129   6.981 -0.5901 -0.8983 -0.2499
20515SOL    HW164950   1.195   5.174   6.964 -1.1647  0.4286  0.3256
20515SOL    HW264951   1.136   5.051   7.030  0.3753 -0.8239 -0.5956
20516SOL     OW64952   5.548  10.812   9.381  0.1224 -0.2161 -0.0187
20516SOL    HW164953   5.610  10.875   9.418  1.0835 -1.3819  0.4066
20516SOL    HW264954   5.467  10.828   9.429 -0.0309  1.5572 -0.8241
20517SOL     OW64955   3.551   3.409   3.716 -0.2190  0.1273 -0.5182
20517SOL    HW164956   3.515   3.474   3.776 -1.0655  0.1251 -1.0275
20517SOL    HW264957   3.645   3.427   3.715 -0.2284  0.2783  0.6284
20518SOL     OW64958   3.956   2.942   6.676 -0.4089 -0.1581  0.6810
20518SOL    HW164959   3.918   2.919   6.592 -0.7408  0.7578  0.5753
20518SOL    HW264960   3.883   2.936   6.738  0.1652 -2.3674  1.1963
20519SOL     OW64961   9.029   3.109   9.157  0.0969  0.0837 -0.1307
20519SOL    HW164962   8.958   3.119   9.093  1.7006  0.0118 -1.9825
20519SOL    HW264963   9.034   3.015   9.173 -0.3385  0.1050  0.1495
20520SOL     OW64964   8.324  10.569   8.728  0.0092 -0.3360  0.0967
20520SOL    HW164965   8.255  10.569   8.795 -0.3773 -0.2986 -0.3022
20520SOL    HW264966   8.300  10.639   8.668  1.4261  0.9774  1.0108
20521SOL     OW64967   8.792   6.715  10.215  0.1923 -0.1347 -0.2913
20521SOL    HW164968   8.787   6.680  10.126 -0.0055 -0.8685  0.0024
20521SOL    HW264969   8.875   6.683  10.249 -0.0988 -0.5201  0.0619
20522SOL     OW64970   5.557   7.967   9.263  0.2723 -0.2972  0.0968
20522SOL    HW164971   5.524   7.899   9.204 -0.1518  0.9433 -1.1032
20522SOL    HW264972   5.648   7.942   9.279 -0.0683 -1.5188  0.2074
20523SOL     OW64973   1.311   3.148   7.118  0.4980  0.2554 -0.4015
20523SOL    HW164974   1.280   3.154   7.209  4.1649  2.8894  0.8281
20523SOL    HW264975   1.368   3.070   7.118 -1.2319 -1.0450 -1.0839
20524SOL     OW64976   1.064   4.709   5.508  0.3392  0.2256  0.2353
20524SOL    HW164977   1.087   4.800   5.523  0.2819  0.4531 -1.0117
20524SOL    HW264978   0.982   4.697   5.558  0.4771  0.7746  0.6027
20525SOL     OW64979   6.333   3.237   6.286 -0.6719  0.3832 -0.1079
20525SOL    HW164980   6.257   3.257   6.232 -0.1498  0.5125 -0.7972
20525SOL    HW264981   6.339   3.310   6.347 -2.4886 -0.7666  1.5107
20526SOL     OW64982   7.737   3.565   9.683 -0.3055 -0.4090  0.3303
20526SOL    HW164983   7.646   3.582   9.708 -1.2686 -3.4754 -0.9427
20526SOL    HW264984   7.732   3.535   9.593  2.1571  0.9046 -0.2800
20527SOL     OW64985   6.967   9.208   1.975  0.1388 -0.5867 -0.3522
20527SOL    HW164986   6.991   9.283   1.921  0.6244 -1.1621 -0.9574
20527SOL    HW264987   7.039   9.198   2.037 -0.4867  0.1616  0.4964
20528SOL     OW64988   2.025   6.765   4.786 -0.4225  0.1979  0.3923
20528SOL    HW164989   1.942   6.763   4.834 -1.1414  0.8704 -0.7830
20528SOL    HW264990   2.048   6.858   4.782  0.0173  0.0785  0.1162
20529SOL     OW64991   7.605   5.997   6.864  0.1263  0.3201  0.2852
20529SOL    HW164992   7.662   6.064   6.825 -0.6105  2.8625  3.3955
20529SOL    HW264993   7.518   6.018   6.832  0.3719 -1.5078 -1.7285
20530SOL     OW64994   7.471   7.480   2.279 -0.5844 -0.2341 -0.5749
20530SOL    HW164995   7.463   7.502   2.372 -0.4913  0.9506 -0.8420
20530SOL    HW264996   7.380   7.474   2.248 -0.6044  0.0032 -0.5602
20531SOL     OW64997   9.452   1.535   8.778  0.0005 -0.5706  1.1306
20531SOL    HW164998   9.520   1.527   8.845 -0.1135 -1.7828  1.1154
20531SOL    HW264999   9.372   1.511   8.823  0.0107 -1.9888  0.4167
20532SOL     OW65000   3.136   6.108   9.579  0.3427 -0.0598  0.0972
20532SOL    HW165001   3.059   6.066   9.619  0.4019  1.0106  1.3921
20532SOL    HW265002   3.198   6.117   9.651  0.5965  1.6125 -0.3137
20533SOL     OW65003   6.313   9.825   4.164 -0.0819 -0.0664  0.7029
20533SOL    HW165004   6.403   9.846   4.138 -1.0642  3.1248 -0.3600
20533SOL    HW265005   6.273   9.790   4.085 -0.5348  1.1095  0.4065
20534SOL     OW65006  10.179   9.501   1.890 -0.5697 -0.2963 -0.3587
20534SOL    HW165007  10.174   9.434   1.822  1.5964 -0.2414 -0.6263
20534SOL    HW265008  10.130   9.576   1.855  0.0066 -0.4859 -1.5995
20535SOL     OW65009   9.923   0.143  10.672 -0.0086  0.0295  0.8764
20535SOL    HW165010   9.828   0.133  10.661 -0.1429  1.9328  0.0089
20535SOL    HW265011   9.932   0.203  10.746  0.5326 -0.6506  1.3571
20536SOL     OW65012   3.609   3.424   7.019 -0.0828 -0.1536  0.1582
20536SOL    HW165013   3.656   3.446   7.099 -1.3118  1.1039  0.5603
20536SOL    HW265014   3.572   3.337   7.035  1.5959 -0.9181  0.0436
20537SOL     OW65015   5.421   5.962   4.549  0.5956  0.0323 -0.0660
20537SOL    HW165016   5.417   5.884   4.493 -2.2006  0.3718 -0.4473
20537SOL    HW265017   5.425   6.035   4.487 -0.0223  0.3098  0.2167
20538SOL     OW65018   8.475   8.925   9.794 -0.0769 -0.0668  0.0277
20538SOL    HW165019   8.485   9.012   9.833 -0.3883  0.3910 -0.9066
20538SOL    HW265020   8.515   8.865   9.857 -0.5818  0.6687  1.0469
20539SOL     OW65021   0.985   7.962   0.169 -0.4308  0.2485 -0.5970
20539SOL    HW165022   0.985   7.877   0.212 -1.7545  0.1512 -0.7642
20539SOL    HW265023   1.070   8.000   0.190  0.4488 -1.4106 -1.1180
20540SOL     OW65024   7.359  10.754   4.782 -0.4548  0.8204  0.2771
20540SOL    HW165025   7.312  10.734   4.702  1.5077 -2.5654 -0.1431
20540SOL    HW265026   7.444  10.711   4.772  0.1726  0.9975  3.8238
20541SOL     OW65027   1.334   6.155   1.793 -0.3908 -0.5828  0.7134
20541SOL    HW165028   1.279   6.202   1.855 -1.0832 -1.3775  0.7089
20541SOL    HW265029   1.333   6.209   1.714 -1.2793 -0.6672  0.6645
20542SOL     OW65030   0.576   5.317   8.126  0.1677  0.0543 -0.3109
20542SOL    HW165031   0.664   5.349   8.111 -0.0527 -0.2062 -2.2548
20542SOL    HW265032   0.519   5.389   8.098 -0.2500  0.5233  1.6565
20543SOL     OW65033   6.975   7.431   8.696  0.1026 -0.0530  0.3185
20543SOL    HW165034   7.068   7.431   8.677 -0.4563  0.2595 -2.6003
20543SOL    HW265035   6.953   7.523   8.711  0.1294 -0.0564  0.3815
20544SOL     OW65036  10.822   8.144   8.429 -0.1097  0.1595 -0.4628
20544SOL    HW165037  10.914   8.165   8.413 -0.4564  0.7071 -1.8238
20544SOL    HW265038  10.774   8.223   8.405 -1.1100 -0.8805 -2.0647
20545SOL     OW65039   0.312   0.383   4.852 -0.1008  0.4505 -0.1851
20545SOL    HW165040   0.253   0.438   4.905 -1.3226 -1.3588  0.3784
20545SOL    HW265041   0.263   0.364   4.773 -0.8469 -2.1788  0.8699
20546SOL     OW65042   9.386  10.877   5.084  0.3546 -0.3285 -0.1304
20546SOL    HW165043   9.297  10.894   5.113 -0.1405 -0.0145 -1.7719
20546SOL    HW265044   9.424  10.963   5.068  1.3974 -0.4045  1.8012
20547SOL     OW65045   8.871   0.766   3.830 -0.0618 -0.0892  0.6120
20547SOL    HW165046   8.867   0.812   3.746  1.3908  1.0460  1.1252
20547SOL    HW265047   8.965   0.758   3.847 -0.3219 -2.0235  1.2197
20548SOL     OW65048   3.013   7.358   3.795  0.1967  1.0060 -0.0137
20548SOL    HW165049   2.956   7.346   3.719  0.3159 -0.7532  0.1675
20548SOL    HW265050   2.976   7.302   3.862  2.9487 -1.3521 -0.3526
20549SOL     OW65051   3.355   9.416   0.568  0.2287 -0.4985  0.3284
20549SOL    HW165052   3.429   9.398   0.626 -0.1374 -0.0729  0.9349
20549SOL    HW265053   3.351   9.511   0.563 -0.4782 -0.5177  0.5494
20550SOL     OW65054   6.042   5.801   6.688  0.1096  0.2387  0.7730
20550SOL    HW165055   6.019   5.736   6.754 -1.4291 -1.4592 -1.3593
20550SOL    HW265056   5.959   5.825   6.649  1.1673 -0.3539 -1.9533
20551SOL     OW65057  10.328   7.670  10.001 -0.0749 -0.4075 -0.4658
20551SOL    HW165058  10.323   7.575  10.012  0.3961 -0.2741  1.0276
20551SOL    HW265059  10.314   7.705  10.089  0.8162  0.8717 -0.8205
20552SOL     OW65060   2.473   8.967   0.900 -0.0562  0.7303  0.0985
20552SOL    HW165061   2.387   8.977   0.940 -1.0023  0.1321 -1.7818
20552SOL    HW265062   2.531   9.020   0.956 -1.2153 -0.5618  2.6074
20553SOL     OW65063   6.168   4.226   1.375  0.3663 -0.1337 -0.1431
20553SOL    HW165064   6.130   4.262   1.455 -1.7629  0.2960 -1.3092
20553SOL    HW265065   6.148   4.291   1.308  1.5218 -0.8081 -1.1642
20554SOL     OW65066   0.390   4.326   2.647 -0.1846  0.3549 -0.0440
20554SOL    HW165067   0.460   4.286   2.699 -1.3402 -1.9980 -0.2617
20554SOL    HW265068   0.352   4.393   2.705 -0.4266 -1.1693  1.5787
20555SOL     OW65069   5.158   5.398   8.584 -0.1990 -0.5594  0.4159
20555SOL    HW165070   5.252   5.408   8.598 -0.0615  0.6213 -1.1798
20555SOL    HW265071   5.137   5.460   8.514 -2.2585 -0.4401  1.0743
20556SOL     OW65072   2.802   5.908   7.289 -0.1778  0.4985  0.3505
20556SOL    HW165073   2.714   5.882   7.263 -0.0202  0.3844 -0.0727
20556SOL    HW265074   2.815   5.994   7.249  0.7970 -0.5249 -1.6151
20557SOL     OW65075   0.670   9.671   9.580  0.2907  0.6982  0.2344
20557SOL    HW165076   0.628   9.716   9.507  0.1229  1.1156  0.5856
20557SOL    HW265077   0.609   9.681   9.653  0.7279  0.7883  0.5880
20558SOL     OW65078   5.336   7.739   8.212  0.1724  0.1517 -0.2654
20558SOL    HW165079   5.273   7.694   8.156  0.7948  1.5898 -2.1772
20558SOL    HW265080   5.295   7.824   8.231 -0.6555 -0.8646  2.6644
20559SOL     OW65081   8.082  10.812   6.822 -0.3426 -0.2972  0.2548
20559SOL    HW165082   8.052  10.759   6.896 -0.9962  1.5074  1.3006
20559SOL    HW265083   8.176  10.794   6.816 -0.3972 -0.9022  1.1536
20560SOL     OW65084   7.331  10.947   2.443 -0.2960 -0.6067 -0.5792
20560SOL    HW165085   7.425  10.957   2.424  0.1591 -1.5654  1.1195
20560SOL    HW265086   7.294  10.912   2.362  0.6981  0.3479 -1.4706
20561SOL     OW65087   3.903   0.483   4.456  0.6746 -0.5181  0.9394
20561SOL    HW165088   3.925   0.477   4.549 -0.0105 -1.1336  1.0697
20561SOL    HW265089   3.987   0.474   4.411  0.9548 -0.6868  1.4846
20562SOL     OW65090   5.709   6.312   3.012  0.1660 -0.2788  0.3288
20562SOL    HW165091   5.782   6.369   2.988 -1.8022  1.3001 -2.1657
20562SOL    HW265092   5.645   6.370   3.053 -0.8788 -1.1071 -0.0940
20563SOL     OW65093   9.425   3.908   9.885  0.1016  0.0684 -0.0803
20563SOL    HW165094   9.336   3.922   9.854  0.0741 -1.0233 -0.4983
20563SOL    HW265095   9.415   3.862   9.968  0.2071  2.1257  1.1240
20564SOL     OW65096   9.708   1.705   7.212 -0.3758  0.3084 -0.1974
20564SOL    HW165097   9.770   1.690   7.141 -0.5732 -0.4205 -0.2210
20564SOL    HW265098   9.738   1.785   7.254  1.9721 -1.2928  1.2804
20565SOL     OW65099   9.465   3.236   2.331  0.2314  0.4248  0.2786
20565SOL    HW165100   9.544   3.291   2.332 -0.7177  2.0007 -3.6210
20565SOL    HW265101   9.424   3.253   2.416  2.6159  1.7638  1.2287
20566SOL     OW65102   7.567   7.313   1.271  0.0685  0.2163 -0.5442
20566SOL    HW165103   7.609   7.237   1.231  1.6294  1.6023 -1.5884
20566SOL    HW265104   7.521   7.277   1.347  2.5924 -1.4547  0.2760
20567SOL     OW65105   7.365   2.193   8.970  0.2515  0.0927 -0.2643
20567SOL    HW165106   7.319   2.133   8.911  0.7130 -0.0503 -0.4847
20567SOL    HW265107   7.413   2.136   9.030 -0.8906  0.2374  0.7948
20568SOL     OW65108   9.604   4.470   4.445 -0.2106  0.5695 -0.0517
20568SOL    HW165109   9.579   4.501   4.532 -0.3092  0.7512 -0.1422
20568SOL    HW265110   9.545   4.517   4.385  0.3764  1.0286 -0.2734
20569SOL     OW65111   3.057   5.044   4.499  0.1300 -0.2860 -0.2302
20569SOL    HW165112   2.999   5.119   4.488 -0.1044 -0.4655 -0.2009
20569SOL    HW265113   3.143   5.083   4.517  0.1548 -0.0104 -0.9224
20570SOL     OW65114   3.398   5.409   9.323 -0.5280  0.1987  0.2970
20570SOL    HW165115   3.470   5.464   9.292 -0.3003 -0.5958 -0.6415
20570SOL    HW265116   3.438   5.348   9.384 -0.5344  0.2186  0.3211
20571SOL     OW65117   0.051   2.371   2.650  0.4086  0.1366 -0.2179
20571SOL    HW165118   0.115   2.435   2.620  0.7574 -0.5020 -0.8603
20571SOL    HW265119   0.079   2.348   2.739  1.1994 -0.2900 -0.5702
20572SOL     OW65120   3.343   2.960   7.325  0.0287  0.0010  0.2063
20572SOL    HW165121   3.281   2.889   7.306 -0.2981  0.0818  0.9573
20572SOL    HW265122   3.288   3.029   7.362  0.6025 -0.0068  1.0747
20573SOL     OW65123   9.467  10.758   1.603 -0.0084  0.5780 -0.4760
20573SOL    HW165124   9.374  10.779   1.600  0.0666  0.6748 -3.4393
20573SOL    HW265125   9.474  10.673   1.560  1.2556  0.3964  0.0534
20574SOL     OW65126   4.765   2.348   4.370  0.0260  0.2054  0.0754
20574SOL    HW165127   4.858   2.371   4.366 -0.3565  1.8792  0.3343
20574SOL    HW265128   4.743   2.351   4.463 -0.8249  2.2212 -0.1477
20575SOL     OW65129   8.355   3.274   4.321  0.0171 -0.2985  0.2722
20575SOL    HW165130   8.391   3.335   4.257  1.2330  0.1015  1.2959
20575SOL    HW265131   8.422   3.270   4.390 -0.9160 -1.2975  1.1427
20576SOL     OW65132   7.778   7.229   9.731 -0.0241 -0.6631 -0.8294
20576SOL    HW165133   7.768   7.298   9.666  1.2153  1.4161  1.0984
20576SOL    HW265134   7.718   7.254   9.801  3.6432  1.0155  1.8905
20577SOL     OW65135   7.776   5.346   6.843 -0.4620  0.0625  0.0708
20577SOL    HW165136   7.803   5.438   6.844  1.7781 -0.5854 -0.1884
20577SOL    HW265137   7.735   5.334   6.757 -1.8802  1.1065  0.5720
20578SOL     OW65138  10.158   9.894   9.387 -0.1544  0.0109 -0.3725
20578SOL    HW165139  10.157   9.799   9.390 -2.1056  0.0476  0.4961
20578SOL    HW265140  10.145   9.916   9.294 -0.6612 -0.5607 -0.4376
20579SOL     OW65141  10.155   9.662   4.893 -0.4982 -0.4308  0.1286
20579SOL    HW165142  10.182   9.584   4.846 -1.1013 -0.4887 -0.1265
20579SOL    HW265143  10.171   9.642   4.985  1.8847  0.1593 -0.1346
20580SOL     OW65144   7.130   6.115   4.135  0.0277 -0.2400 -0.4265
20580SOL    HW165145   7.112   6.162   4.054  1.3597  0.6295 -0.2268
20580SOL    HW265146   7.190   6.045   4.110 -0.0893 -0.3841 -0.3063
20581SOL     OW65147   3.359   8.399   7.367  0.1997 -0.6136 -0.6930
20581SOL    HW165148   3.352   8.371   7.459  0.9624  2.2425  0.2757
20581SOL    HW265149   3.337   8.492   7.369 -0.6532 -0.7129 -3.5700
20582SOL     OW65150   4.085   8.386   3.896 -0.1013  0.6824 -0.0674
20582SOL    HW165151   4.157   8.327   3.919 -0.0904  0.6065 -0.2941
20582SOL    HW265152   4.110   8.470   3.934  0.9458  1.0956 -1.6087
20583SOL     OW65153   0.322   3.052  10.888  0.0503  0.2679  0.5760
20583SOL    HW165154   0.410   3.016  10.884  0.1774  0.3281  2.4342
20583SOL    HW265155   0.291   3.030  10.976 -1.6813  0.4869  0.0392
20584SOL     OW65156   5.939   6.070   2.661  0.0100  0.3048  0.6505
20584SOL    HW165157   5.856   6.116   2.651  0.1737  0.6832  1.0367
20584SOL    HW265158   5.947   6.018   2.581 -1.3898 -1.0122  1.3470
20585SOL     OW65159   5.858   6.451  10.038 -0.1784 -0.1989 -0.2151
20585SOL    HW165160   5.905   6.480  10.117  1.0605 -1.1672 -0.5733
20585SOL    HW265161   5.847   6.531   9.986  1.9118 -0.0860 -0.5327
20586SOL     OW65162   8.750  10.384   3.339 -0.7454  0.3473  0.4809
20586SOL    HW165163   8.660  10.401   3.363 -1.2630  0.2357 -1.2863
20586SOL    HW265164   8.746  10.362   3.245  0.7001 -2.6580  1.0352
20587SOL     OW65165   2.057   3.909   2.829 -0.3761  0.4174 -0.7932
20587SOL    HW165166   2.063   3.860   2.747  2.8830  0.8708 -0.8639
20587SOL    HW265167   2.075   4.000   2.805 -2.5853  1.1045 -0.0421
20588SOL     OW65168  10.040   0.576   2.042 -0.1490  0.0739 -0.3951
20588SOL    HW165169  10.030   0.671   2.045 -0.2269  0.0455  0.4455
20588SOL    HW265170   9.951   0.542   2.055  0.2886 -0.1341  2.3591
20589SOL     OW65171   5.078   5.496   0.271 -0.4600  0.5969  0.3818
20589SOL    HW165172   5.100   5.470   0.182 -4.2715 -0.0416 -0.4436
20589SOL    HW265173   5.000   5.446   0.293 -0.3950  1.7477  3.5939
20590SOL     OW65174   2.685   2.841   4.495 -0.4673  0.7072  0.1366
20590SOL    HW165175   2.602   2.889   4.499 -1.1869 -0.2391 -2.3802
20590SOL    HW265176   2.689   2.793   4.577 -3.1429 -0.3253 -0.2766
20591SOL     OW65177   2.823   5.657   5.523 -0.5009 -0.4473 -0.2164
20591SOL    HW165178   2.879   5.588   5.488  1.4998  0.2536  1.4965
20591SOL    HW265179   2.744   5.612   5.551 -0.1586 -1.6957 -1.2228
20592SOL     OW65180  10.395   6.201   5.851 -0.0212 -0.1408 -0.6447
20592SOL    HW165181  10.399   6.206   5.947 -0.9237  1.6049 -0.6729
20592SOL    HW265182  10.478   6.161   5.825  0.7016  0.3966  0.8009
20593SOL     OW65183   1.738   4.999   3.068 -0.3312  0.0876 -0.1991
20593SOL    HW165184   1.683   4.946   3.126  0.7976 -0.0590  0.7768
20593SOL    HW265185   1.823   4.955   3.070  0.2026  1.0886 -0.5630
20594SOL     OW65186   0.552   3.049   9.306  0.3095  0.4934  0.1303
20594SOL    HW165187   0.474   3.038   9.362 -1.1198  2.0974 -1.4910
20594SOL    HW265188   0.591   2.961   9.303 -1.9205 -0.5545  0.2875
20595SOL     OW65189   6.023   4.368   7.553 -0.0916  0.5375  0.0704
20595SOL    HW165190   5.955   4.332   7.497  1.2470  1.3268 -2.1462
20595SOL    HW265191   6.061   4.292   7.596  0.4136 -0.3869 -1.9238
20596SOL     OW65192   9.751  10.396   4.832 -0.2918  0.1183  0.1407
20596SOL    HW165193   9.707  10.363   4.910 -0.2072  0.4055  0.3095
20596SOL    HW265194   9.844  10.385   4.851 -0.2745  0.0912  0.0404
20597SOL     OW65195   7.434   6.770   3.320  0.2693  0.3836 -0.1977
20597SOL    HW165196   7.421   6.686   3.363 -1.5729  1.1736  0.8404
20597SOL    HW265197   7.523   6.795   3.343  0.5591 -0.8975  0.1309
20598SOL     OW65198   9.360   9.137   1.930  0.6439  0.0048  0.4737
20598SOL    HW165199   9.278   9.186   1.928  1.2475  1.0600  1.0707
20598SOL    HW265200   9.418   9.185   1.872  0.9893 -0.4783  0.4141
20599SOL     OW65201   7.189   0.461   6.374 -0.1944 -1.5915  0.2199
20599SOL    HW165202   7.097   0.454   6.347 -0.0660 -0.2587 -0.6051
20599SOL    HW265203   7.235   0.399   6.317 -0.3782 -1.1205 -0.4581
20600SOL     OW65204   5.020   2.783   4.332 -0.8448  0.0961 -0.0743
20600SOL    HW165205   4.978   2.820   4.410 -0.9941 -0.2030 -0.0100
20600SOL    HW265206   5.104   2.749   4.364 -0.9008 -0.0161 -0.0429
20601SOL     OW65207   7.180   0.764   3.406  0.2603 -0.9195  0.2392
20601SOL    HW165208   7.265   0.734   3.439 -0.6571 -2.0445  1.6350
20601SOL    HW265209   7.119   0.693   3.429 -0.8174 -0.7428 -1.9547
20602SOL     OW65210   2.115   7.452   0.640 -0.2101 -0.3240 -0.6238
20602SOL    HW165211   2.170   7.428   0.715 -0.9841 -0.3825 -0.0686
20602SOL    HW265212   2.025   7.452   0.675 -0.3061  2.7716 -0.7599
20603SOL     OW65213   6.842   7.668   0.488  0.0149 -0.5379  0.1303
20603SOL    HW165214   6.772   7.733   0.480 -0.4140 -1.0622 -0.4306
20603SOL    HW265215   6.798   7.584   0.472  0.7514 -0.8808 -0.1030
20604SOL     OW65216   5.656   8.729  10.965 -0.2493 -0.3247  0.4622
20604SOL    HW165217   5.660   8.634  10.976 -0.1889 -0.4873 -0.8578
20604SOL    HW265218   5.744   8.760  10.987 -0.0027 -0.6767 -0.0221
20605SOL     OW65219   9.891   2.626   7.270 -0.4219  0.1535  0.1050
20605SOL    HW165220   9.930   2.551   7.314  0.0205  1.9947  2.9971
20605SOL    HW265221   9.962   2.689   7.260 -1.0738  0.7277 -1.0701
20606SOL     OW65222   9.924   6.550   8.126  0.6321  0.6987  0.0244
20606SOL    HW165223   9.916   6.593   8.041 -0.1946  0.3342 -0.0817
20606SOL    HW265224   9.908   6.457   8.108 -1.3961  0.8714  0.8770
20607SOL     OW65225   9.210   2.287   7.125 -0.6094 -0.9294  0.1557
20607SOL    HW165226   9.128   2.277   7.077 -0.5126  1.4495 -0.5861
20607SOL    HW265227   9.275   2.241   7.072 -0.9832 -0.5410 -0.6442
20608SOL     OW65228   2.313  10.913   6.261 -0.3411 -0.6417 -0.0936
20608SOL    HW165229   2.253  10.850   6.301  0.8786 -1.6417  0.1863
20608SOL    HW265230   2.277  10.930   6.175  0.4318 -3.3420 -0.9815
20609SOL     OW65231   5.201   3.774   2.881  0.6666 -0.2035 -0.5420
20609SOL    HW165232   5.231   3.844   2.824 -0.9889  0.8199 -0.1834
20609SOL    HW265233   5.114   3.752   2.849  0.9855 -1.8206 -0.3787
20610SOL     OW65234   3.950   6.301   0.061 -0.2653 -0.0537 -0.0397
20610SOL    HW165235   3.989   6.365   0.120  1.6560 -0.6126 -0.6757
20610SOL    HW265236   3.938   6.348  -0.021 -3.0602  0.7623  0.7776
20611SOL     OW65237  10.140   1.595   2.493  0.5982  0.1035  0.1863
20611SOL    HW165238  10.069   1.606   2.428  2.3372  0.8740 -1.6481
20611SOL    HW265239  10.098   1.552   2.567 -1.8449  0.7015 -0.7872
20612SOL     OW65240   0.623   1.417   0.598 -0.0324 -0.2837  0.0710
20612SOL    HW165241   0.633   1.361   0.521 -1.8462  1.4685 -1.4835
20612SOL    HW265242   0.531   1.407   0.623  0.4847 -0.7062  1.9536
20613SOL     OW65243   5.077   8.863   7.507  0.4226 -0.0817  0.1468
20613SOL    HW165244   5.022   8.814   7.568 -1.6299  1.9010 -0.0679
20613SOL    HW265245   5.132   8.918   7.563 -0.5382  0.7777  0.2384
20614SOL     OW65246   9.727   9.083   8.158  0.4030  0.3940  0.0872
20614SOL    HW165247   9.737   9.013   8.223  0.0927 -1.0170 -1.3561
20614SOL    HW265248   9.781   9.055   8.084 -0.9329  0.9333 -1.1075
20615SOL     OW65249   9.207   0.845   0.155  0.0177  0.4252 -0.1753
20615SOL    HW165250   9.301   0.832   0.167 -0.2393 -0.3911  1.0234
20615SOL    HW265251   9.184   0.912   0.219 -0.2483  0.5166 -0.3662
20616SOL     OW65252   6.657   5.436   5.214 -0.0726  0.3851  0.5711
20616SOL    HW165253   6.723   5.374   5.184  0.5616 -0.1111  2.9504
20616SOL    HW265254   6.661   5.507   5.149  2.5878  0.2246  0.5064
20617SOL     OW65255   2.361   3.235   6.948 -0.2865  0.4621  0.3731
20617SOL    HW165256   2.299   3.237   7.021 -0.8214  2.2198 -0.1063
20617SOL    HW265257   2.426   3.170   6.974 -1.6050 -0.4588  1.4732
20618SOL     OW65258   4.968   7.168  10.760  1.1644 -0.0732  0.6036
20618SOL    HW165259   4.887   7.120  10.779  1.1758  0.5359  2.2159
20618SOL    HW265260   5.038   7.105  10.778  1.1136 -0.0567  0.8552
20619SOL     OW65261   0.324   8.856   9.270  0.6434  0.3169 -0.0528
20619SOL    HW165262   0.275   8.871   9.351  0.7046 -0.7318  0.1763
20619SOL    HW265263   0.260   8.817   9.210  1.1496 -0.9338  0.2024
20620SOL     OW65264   1.087   9.026   3.128 -0.5515 -0.1696 -1.4004
20620SOL    HW165265   1.148   9.067   3.190 -0.7385 -1.5751 -0.2800
20620SOL    HW265266   1.140   8.960   3.083 -1.6476 -2.7141  0.8990
20621SOL     OW65267   6.662   5.754   6.457 -0.4448  0.4707  0.0127
20621SOL    HW165268   6.572   5.724   6.469 -0.5771  0.8058 -0.1356
20621SOL    HW265269   6.710   5.676   6.430 -0.5395  0.1329  0.8186
20622SOL     OW65270   4.443   6.280   8.273 -0.5754 -0.0969 -0.4389
20622SOL    HW165271   4.461   6.236   8.356 -0.0264  0.3292 -0.3340
20622SOL    HW265272   4.412   6.367   8.298  2.2629  1.0459 -0.7132
20623SOL     OW65273   5.302   1.422   3.076  0.1590 -0.0564 -0.2538
20623SOL    HW165274   5.318   1.365   3.152 -0.8334  0.5412  0.4132
20623SOL    HW265275   5.315   1.510   3.110 -2.3734  0.3342 -0.2269
20624SOL     OW65276   4.340   7.194   4.901  0.1995 -0.2393 -0.5969
20624SOL    HW165277   4.294   7.231   4.977  0.0791 -0.3538 -0.6141
20624SOL    HW265278   4.302   7.239   4.826 -0.6323 -1.0843 -0.6944
20625SOL     OW65279   1.759   1.970   5.579  0.0330  0.0169 -0.2065
20625SOL    HW165280   1.765   1.875   5.579 -3.2824 -0.2600  0.5816
20625SOL    HW265281   1.728   1.992   5.667 -1.3073  1.6103 -1.0373
20626SOL     OW65282   8.416   8.357   4.911  0.0868 -0.5140 -0.4409
20626SOL    HW165283   8.446   8.355   4.820  1.4038  0.9166 -0.0437
20626SOL    HW265284   8.349   8.425   4.912 -0.3942 -0.9870 -0.4793
20627SOL     OW65285   5.469   0.349   8.968 -0.6023  0.4475 -0.2893
20627SOL    HW165286   5.470   0.379   9.059  0.4133  0.5003 -0.3108
20627SOL    HW265287   5.474   0.254   8.974 -0.8404  0.4355 -0.2838
20628SOL     OW65288   8.854   9.638   1.002 -0.7759 -0.1697  0.2332
20628SOL    HW165289   8.868   9.625   0.909  1.9775 -1.7405  0.8079
20628SOL    HW265290   8.813   9.557   1.032 -1.2133  0.1387  0.4779
20629SOL     OW65291   3.096  10.319   9.091  0.1533 -0.0901 -0.1897
20629SOL    HW165292   3.080  10.338   8.998 -0.2331  1.1267  0.1192
20629SOL    HW265293   3.021  10.357   9.137  0.6087 -0.2120  0.6724
20630SOL     OW65294   4.998   6.288   5.172 -0.0605 -0.2591  0.3520
20630SOL    HW165295   5.000   6.240   5.255 -0.2609  0.4718  0.7887
20630SOL    HW265296   4.963   6.225   5.109 -1.9883 -0.1504  1.2854
20631SOL     OW65297   5.951  10.326   3.667  0.1968  0.4078  0.0227
20631SOL    HW165298   5.976  10.362   3.752  0.5811  0.1262  0.0301
20631SOL    HW265299   5.970  10.396   3.605 -1.1411  1.0259  0.3043
20632SOL     OW65300   9.454   9.483   1.238  0.4486 -0.2645  0.1214
20632SOL    HW165301   9.492   9.556   1.189  1.9578  0.8136  2.8233
20632SOL    HW265302   9.501   9.406   1.205  3.0905  0.7221  1.4599
20633SOL     OW65303   1.105   1.579   9.294  0.6179  0.5839  0.2178
20633SOL    HW165304   1.192   1.585   9.254  0.9212 -0.5761  0.6849
20633SOL    HW265305   1.045   1.613   9.228  1.5176  2.1496  0.2050
20634SOL     OW65306   6.533   9.538   0.797  0.4188  0.2649 -0.2609
20634SOL    HW165307   6.536   9.557   0.890 -1.2279  1.6683 -0.4589
20634SOL    HW265308   6.521   9.443   0.792  0.8470  0.1405  0.9406
20635SOL     OW65309   1.952   7.155   0.934 -0.1240  0.1467 -0.2220
20635SOL    HW165310   1.876   7.147   0.876 -0.5274  2.7220 -0.1182
20635SOL    HW265311   2.027   7.132   0.879 -0.8086 -0.8598 -0.7630
20636SOL     OW65312   0.901   4.996   4.675  0.0241  0.1603 -0.0042
20636SOL    HW165313   0.960   5.023   4.746  1.8142  0.8892 -1.7408
20636SOL    HW265314   0.952   4.934   4.623 -1.1879 -0.1767 -0.8196
20637SOL     OW65315   6.055   9.439   0.130 -0.4057 -0.1260 -0.0600
20637SOL    HW165316   6.045   9.532   0.148 -0.1886  0.3991 -2.3984
20637SOL    HW265317   6.047   9.396   0.215 -1.8848  1.9114  0.8610
20638SOL     OW65318  10.855   8.894   1.333 -0.0175 -0.2809  0.0226
20638SOL    HW165319  10.875   8.821   1.391 -0.1496 -1.6585 -1.6583
20638SOL    HW265320  10.792   8.947   1.383 -1.6511 -2.4816  0.3764
20639SOL     OW65321   9.191  10.775   0.660 -0.8981  0.2471  0.1809
20639SOL    HW165322   9.118  10.830   0.631 -0.9578  1.2697  2.2090
20639SOL    HW265323   9.242  10.760   0.580 -1.8092  1.8467 -0.7291
20640SOL     OW65324   2.280  10.767   3.490 -0.4130 -0.3542  0.4996
20640SOL    HW165325   2.312  10.784   3.579  0.4761 -0.6646  0.2439
20640SOL    HW265326   2.185  10.773   3.498 -0.2767  1.4795  1.0837
20641SOL     OW65327   0.246   9.097   2.312 -0.1321 -0.6581 -0.0786
20641SOL    HW165328   0.299   9.083   2.390  1.4984  0.9859 -0.8550
20641SOL    HW265329   0.207   9.184   2.325 -0.5115 -0.7268 -0.7220
20642SOL     OW65330   4.427   2.764   7.449 -0.2380 -0.0787 -0.3034
20642SOL    HW165331   4.396   2.764   7.539  1.1880  1.7347  0.2167
20642SOL    HW265332   4.360   2.716   7.400 -2.3475  1.1668  1.2766
20643SOL     OW65333   3.087   2.820   2.854 -0.4666  0.6266 -0.4140
20643SOL    HW165334   3.056   2.745   2.804 -1.7798  0.9655 -0.1441
20643SOL    HW265335   3.182   2.812   2.854 -0.6347 -2.1428  1.2656
20644SOL     OW65336   3.316   5.964   5.251  0.0286 -0.0405  0.9694
20644SOL    HW165337   3.390   6.009   5.210  0.3047  0.4419  1.9943
20644SOL    HW265338   3.279   6.029   5.311 -1.8651  0.0855 -0.2918
20645SOL     OW65339   2.661   4.619   4.193 -0.3532  0.2192 -0.1227
20645SOL    HW165340   2.735   4.591   4.139  0.2243  1.3650  0.0672
20645SOL    HW265341   2.656   4.553   4.262 -0.7876 -0.9803 -1.2807
20646SOL     OW65342   4.323   7.539   8.902 -0.4838 -0.6202 -0.0172
20646SOL    HW165343   4.314   7.623   8.947  0.0297 -0.8686  0.5465
20646SOL    HW265344   4.260   7.482   8.946 -0.3607 -0.7157  0.0323
20647SOL     OW65345   3.749   7.693  10.797  0.2720  0.0172  0.0636
20647SOL    HW165346   3.776   7.603  10.780 -1.5779 -0.2352 -1.7869
20647SOL    HW265347   3.659   7.685  10.829  1.0276  1.0637  2.6368
20648SOL     OW65348   8.853   5.009   6.779  0.2726  0.0241  0.4540
20648SOL    HW165349   8.889   4.958   6.852  0.9682 -1.6180 -0.9942
20648SOL    HW265350   8.850   4.947   6.706  4.3619  2.8765 -2.3716
20649SOL     OW65351   8.611   3.174   1.323 -0.4054 -0.4485  0.7753
20649SOL    HW165352   8.589   3.267   1.325  1.4857  0.0427 -0.0648
20649SOL    HW265353   8.638   3.154   1.412  0.2630  0.0955  0.7005
20650SOL     OW65354   1.608   4.931   4.378 -0.1953 -0.1760 -0.5620
20650SOL    HW165355   1.556   4.958   4.302  1.5013 -1.8095 -2.3708
20650SOL    HW265356   1.699   4.939   4.348  0.5348  0.0950  1.6410
20651SOL     OW65357   0.980   2.885   3.054 -0.3247 -0.2063 -0.6832
20651SOL    HW165358   0.967   2.793   3.029  0.3933 -0.2614 -0.8759
20651SOL    HW265359   0.985   2.882   3.150  3.5788 -0.9376 -0.8137
20652SOL     OW65360  10.038   6.038   5.715 -0.2234  0.4617  0.1755
20652SOL    HW165361   9.989   5.972   5.665 -0.3869 -0.3692  1.4184
20652SOL    HW265362   9.983   6.054   5.792  0.9045  0.3933  0.9955
20653SOL     OW65363   5.312   3.005   1.654 -0.0077  0.5393  0.6789
20653SOL    HW165364   5.281   3.095   1.661 -0.9405  0.1874  1.2881
20653SOL    HW265365   5.237   2.952   1.682 -0.0528 -0.5079 -1.3169
20654SOL     OW65366  10.116   4.947   0.862  0.1445 -0.3527  0.0070
20654SOL    HW165367  10.191   4.983   0.814  0.2730 -1.7805 -0.8768
20654SOL    HW265368  10.142   4.857   0.883 -0.9440 -0.5545  0.5158
20655SOL     OW65369   0.644   3.775  10.261  0.4815 -0.2464  0.8087
20655SOL    HW165370   0.709   3.785  10.191  0.1062 -0.6792  0.3962
20655SOL    HW265371   0.560   3.787  10.217  0.2500 -0.3804  1.2161
20656SOL     OW65372   1.880   2.668   9.626  0.3032  0.0881 -0.4674
20656SOL    HW165373   1.894   2.635   9.537  1.4139 -0.2831 -0.1575
20656SOL    HW265374   1.846   2.756   9.613  0.1508 -0.0791 -1.2641
20657SOL     OW65375   4.465   5.637   9.915 -0.2067  0.4621 -0.6975
20657SOL    HW165376   4.544   5.599   9.875  0.2157  0.6727 -0.0622
20657SOL    HW265377   4.420   5.562   9.954 -0.4910  0.2921 -1.3407
20658SOL     OW65378   0.192   9.875   9.771  0.4676 -0.1112  0.6804
20658SOL    HW165379   0.125   9.848   9.708  1.6650 -2.7752  0.4862
20658SOL    HW265380   0.226   9.957   9.736 -0.3863 -0.4495 -0.9877
20659SOL     OW65381   9.847   8.616   3.002  0.1605  0.7250 -1.0866
20659SOL    HW165382   9.892   8.583   2.924  1.6845  1.2801 -0.4831
20659SOL    HW265383   9.847   8.543   3.064  2.3371  1.3847 -0.2440
20660SOL     OW65384   7.146   4.731  10.968  0.9290  0.3441  0.2232
20660SOL    HW165385   7.061   4.688  10.958  0.4289  1.5825 -0.9665
20660SOL    HW265386   7.188   4.722  10.882  1.9358 -0.1110  0.7508
20661SOL     OW65387   0.648   8.001   9.560  0.0599  0.0656 -0.1336
20661SOL    HW165388   0.583   7.962   9.502 -1.3071 -1.0797  2.1027
20661SOL    HW265389   0.630   7.963   9.646  2.2056  1.4994  1.0118
20662SOL     OW65390   9.476   3.177   1.769  0.5761 -1.0568  0.1719
20662SOL    HW165391   9.426   3.258   1.763 -0.7687 -1.9855 -1.9113
20662SOL    HW265392   9.568   3.204   1.762  0.1640  0.3038 -0.0208
20663SOL     OW65393   6.422   7.771   0.286 -0.2450 -0.1202  0.9686
20663SOL    HW165394   6.440   7.831   0.358 -1.1317  0.7391  0.4893
20663SOL    HW265395   6.471   7.692   0.307 -0.2408  0.2472  2.3427
20664SOL     OW65396   4.435  10.139   9.296  0.0002  0.6168  0.0780
20664SOL    HW165397   4.434  10.125   9.391  2.3518 -1.4449 -0.1361
20664SOL    HW265398   4.347  10.115   9.267 -0.5903  0.8238  1.6860
20665SOL     OW65399   4.564   3.927   3.107 -0.1712 -0.0032  0.0851
20665SOL    HW165400   4.479   3.884   3.097 -0.1569  0.2101 -1.0578
20665SOL    HW265401   4.551   4.015   3.071  1.0564 -0.6343 -1.9737
20666SOL     OW65402   9.845   3.164   5.160 -0.4958 -0.0049  0.4855
20666SOL    HW165403   9.930   3.120   5.154 -0.7969 -0.6507  0.8765
20666SOL    HW265404   9.855   3.243   5.107 -0.2685 -1.0632 -1.0803
20667SOL     OW65405   2.190   4.551   0.825  0.3371 -0.1793 -0.4489
20667SOL    HW165406   2.112   4.599   0.854  0.2592 -0.8720  0.4988
20667SOL    HW265407   2.221   4.600   0.749 -1.3968 -0.2575 -1.2344
20668SOL     OW65408   4.805   4.953   2.806 -0.3137  0.0190 -0.3172
20668SOL    HW165409   4.864   5.011   2.854  0.8522 -0.9445 -0.5643
20668SOL    HW265410   4.754   4.908   2.874  0.1617 -0.1123 -0.0443
20669SOL     OW65411  10.917   2.938   0.419 -0.0279  0.4762 -0.3016
20669SOL    HW165412  10.924   2.846   0.393 -0.4285  0.6921 -1.2141
20669SOL    HW265413  11.007   2.963   0.443 -0.3431 -0.8301  2.3851
20670SOL     OW65414   2.679   5.187   3.651  0.1419 -0.1361 -0.5927
20670SOL    HW165415   2.768   5.216   3.632 -0.0958  0.9331 -0.1101
20670SOL    HW265416   2.625   5.266   3.641  0.0474  0.6542  4.8253
20671SOL     OW65417   8.646   9.361  10.743 -0.5910  0.6919 -0.6122
20671SOL    HW165418   8.663   9.450  10.712  1.2562  0.2093 -1.0449
20671SOL    HW265419   8.733   9.324  10.758 -1.2805 -1.6319 -2.1393
20672SOL     OW65420   5.115   0.764   1.240  0.0460 -0.5646 -0.9238
20672SOL    HW165421   5.100   0.809   1.323  1.3573  1.7591 -1.8824
20672SOL    HW265422   5.034   0.714   1.225 -1.7975  2.0506 -0.1331
20673SOL     OW65423   9.934   5.441   3.790 -0.4562  0.3279  0.1481
20673SOL    HW165424   9.863   5.465   3.849 -0.5240 -0.9992  0.6053
20673SOL    HW265425   9.911   5.483   3.707 -0.8271  1.4268  0.7932
20674SOL     OW65426   2.919   6.878  10.733  0.3404 -0.0158 -0.0352
20674SOL    HW165427   3.000   6.926  10.716  0.1757  0.0692 -0.6290
20674SOL    HW265428   2.895   6.901  10.822  1.4445 -0.7566  0.4635
20675SOL     OW65429   7.330   5.804   5.417 -0.0907  0.4792  0.1078
20675SOL    HW165430   7.346   5.771   5.506  3.3623 -0.6917 -0.8289
20675SOL    HW265431   7.418   5.818   5.382 -1.4010  0.9808 -3.0958
20676SOL     OW65432   3.258   3.601   5.238 -0.0448 -0.2517 -0.1647
20676SOL    HW165433   3.226   3.551   5.163  0.4587  0.3012 -0.7634
20676SOL    HW265434   3.179   3.637   5.279 -0.6165 -3.3438  1.6210
20677SOL     OW65435   1.780   9.800  10.929  0.7176 -0.0211  0.2309
20677SOL    HW165436   1.750   9.887  10.956 -1.0036 -0.3779 -0.4803
20677SOL    HW265437   1.867   9.791  10.970 -0.4469  0.7236  2.9766
20678SOL     OW65438   0.126   4.625   0.749  0.3340 -0.0661  0.5098
20678SOL    HW165439   0.050   4.642   0.806  0.1056  0.0826  0.1673
20678SOL    HW265440   0.192   4.589   0.808  0.1248  0.1459  0.8836
20679SOL     OW65441   0.982   3.818   1.473  0.4606  0.1608 -0.3483
20679SOL    HW165442   1.056   3.836   1.531 -0.3363  1.6914  0.2425
20679SOL    HW265443   0.905   3.821   1.531 -0.2090  0.2473 -1.2276
20680SOL     OW65444  10.897   1.391   7.356 -0.8256  0.1961  0.4372
20680SOL    HW165445  10.891   1.460   7.422 -0.7818  1.4965 -0.8961
20680SOL    HW265446  10.974   1.340   7.383 -0.0461  1.4655  0.6972
20681SOL     OW65447   6.735   4.568   0.189  0.0144  0.2339  0.4554
20681SOL    HW165448   6.779   4.653   0.183 -1.3304  0.8185 -1.9765
20681SOL    HW265449   6.667   4.581   0.255 -0.0768  0.9977  0.2150
20682SOL     OW65450   4.604   0.656  10.088 -0.2181  0.9053 -0.2749
20682SOL    HW165451   4.653   0.734  10.117  2.1852 -0.3096 -0.9292
20682SOL    HW265452   4.638   0.585  10.143 -1.1337 -0.0152 -0.8923
20683SOL     OW65453   0.398   1.016   4.731  0.2532 -0.1955  0.4100
20683SOL    HW165454   0.349   1.050   4.806 -0.0332 -0.8807  0.5296
20683SOL    HW265455   0.371   1.072   4.658 -1.4529 -1.1820  0.2629
20684SOL     OW65456   4.707   4.296   0.064  0.4950 -0.2679  0.4090
20684SOL    HW165457   4.711   4.290  -0.031  2.5006  0.0182  0.4365
20684SOL    HW265458   4.734   4.209   0.095 -0.1562 -0.3640  0.7155
20685SOL     OW65459   7.121   5.237   0.323 -0.1505  0.2119 -0.3723
20685SOL    HW165460   7.178   5.164   0.346  0.6237  0.5486 -1.2071
20685SOL    HW265461   7.180   5.308   0.302 -0.9102  1.5960  1.9577
20686SOL     OW65462   8.905   2.827   0.894 -0.5620 -0.2131  0.1147
20686SOL    HW165463   8.813   2.818   0.868 -1.0895 -0.6673  2.0400
20686SOL    HW265464   8.921   2.921   0.895 -0.8225 -0.1601 -0.8620
20687SOL     OW65465   9.222   4.324   7.703 -0.1594 -0.6559 -0.3027
20687SOL    HW165466   9.190   4.292   7.618 -0.4120 -0.7764 -0.1622
20687SOL    HW265467   9.214   4.248   7.761 -0.3821 -0.4458 -0.0648
20688SOL     OW65468   9.804  10.579   9.404 -0.3960  0.1093  0.1484
20688SOL    HW165469   9.767  10.534   9.328  0.7073 -1.0652  0.2911
20688SOL    HW265470   9.883  10.529   9.425 -0.9193  0.1746  2.3366
20689SOL     OW65471   1.769   5.690   4.020 -0.2958  0.0673  0.2948
20689SOL    HW165472   1.827   5.761   3.990 -0.1642  0.2559  0.9982
20689SOL    HW265473   1.686   5.734   4.040 -0.8866 -0.2923 -1.2965
20690SOL     OW65474   0.205   0.374   7.980  0.5032  0.0705 -0.4690
20690SOL    HW165475   0.153   0.432   8.036  0.9389  0.7207 -0.7200
20690SOL    HW265476   0.141   0.335   7.920 -0.1300 -1.5128  1.2045
20691SOL     OW65477  10.739   1.917   5.453 -0.3977 -0.1551 -0.0392
20691SOL    HW165478  10.686   1.954   5.523 -1.2040 -1.1874 -0.0831
20691SOL    HW265479  10.677   1.867   5.400  0.1594  0.7969 -1.6316
20692SOL     OW65480   0.863   8.848   7.024  0.3821 -0.1463 -0.0912
20692SOL    HW165481   0.897   8.761   7.003  1.0727  0.1419 -0.1547
20692SOL    HW265482   0.824   8.879   6.942 -2.6377 -1.6552  0.6849
20693SOL     OW65483  10.089   1.467  10.766  0.2899 -0.1468 -0.0249
20693SOL    HW165484  10.096   1.373  10.745  1.0488 -0.3920  1.2530
20693SOL    HW265485  10.086   1.470  10.862 -0.0295  1.1273 -0.0669
20694SOL     OW65486   0.722   6.703   1.011 -0.0310 -0.1229  0.2956
20694SOL    HW165487   0.816   6.697   1.030  0.0995 -0.8683 -0.5384
20694SOL    HW265488   0.680   6.660   1.085  0.3444 -0.6985  0.1804
20695SOL     OW65489   6.804   4.047   3.017 -0.2483  0.2577  0.4778
20695SOL    HW165490   6.720   4.052   2.971  0.4853  0.0720 -0.8953
20695SOL    HW265491   6.811   3.955   3.043  0.5051 -0.1869 -1.2684
20696SOL     OW65492   0.467   3.294  10.966 -0.1205  0.7194 -0.2127
20696SOL    HW165493   0.403   3.225  10.979 -1.1467  1.4225 -1.3377
20696SOL    HW265494   0.531   3.256  10.905 -0.6450  0.7356 -0.7771
20697SOL     OW65495   3.270   9.532  10.750 -0.3795  0.2885 -1.1051
20697SOL    HW165496   3.183   9.495  10.767  0.2978 -1.2277 -0.8041
20697SOL    HW265497   3.263   9.623  10.778 -2.0450  0.3580 -1.6665
20698SOL     OW65498   8.131   9.670   3.440  0.5399 -0.3479 -0.2949
20698SOL    HW165499   8.195   9.727   3.483 -1.0599  1.1795  0.1543
20698SOL    HW265500   8.166   9.656   3.352  0.6948  1.8302 -0.6096
20699SOL     OW65501   2.396   4.099   1.252 -0.1178  0.4333  0.0232
20699SOL    HW165502   2.338   4.161   1.295  0.6012  0.7388  0.5708
20699SOL    HW265503   2.391   4.020   1.306  0.4832  0.6848  0.4563
20700SOL     OW65504   4.647   3.102  10.660 -0.2310 -0.3425  0.1220
20700SOL    HW165505   4.675   3.162  10.729 -0.3078 -0.1912  0.0219
20700SOL    HW265506   4.620   3.159  10.589  0.1242 -0.5044 -0.1441
20701SOL     OW65507   9.336   0.186   3.032 -0.5272 -0.1167  0.6950
20701SOL    HW165508   9.253   0.172   3.077 -1.1666  0.9774 -0.1047
20701SOL    HW265509   9.398   0.130   3.078 -2.0740 -2.3311  0.1956
20702SOL     OW65510   3.084   2.301   1.482 -0.3172  0.1502 -0.0649
20702SOL    HW165511   3.105   2.326   1.392 -1.0124  0.9668 -0.0034
20702SOL    HW265512   3.032   2.221   1.472  0.7702 -0.5314 -0.3226
20703SOL     OW65513  10.965   2.640   4.395  0.6019  0.5480 -0.7978
20703SOL    HW165514  11.052   2.618   4.429  0.8084  1.3602 -0.7732
20703SOL    HW265515  10.906   2.630   4.469  0.4054 -1.5956 -1.2159
20704SOL     OW65516   1.912   1.271   9.745  0.7073  0.5578 -0.4856
20704SOL    HW165517   1.925   1.299   9.654  2.1507 -3.3514 -1.6380
20704SOL    HW265518   1.981   1.315   9.794 -0.5036  3.2385 -1.1119
20705SOL     OW65519   9.083   2.665   5.430  0.0706 -0.1972 -0.0596
20705SOL    HW165520   9.026   2.722   5.480  0.5085  0.9538 -0.8472
20705SOL    HW265521   9.084   2.583   5.479 -1.6170  0.0211  0.3768
20706SOL     OW65522   8.323   9.902   0.999 -0.3540  0.2771  0.1778
20706SOL    HW165523   8.291   9.843   0.931 -1.0145  2.0841 -1.1117
20706SOL    HW265524   8.415   9.917   0.976 -1.0846  2.4812 -1.5593
20707SOL     OW65525  10.180   9.266   8.188 -0.3743  0.5989 -0.4422
20707SOL    HW165526  10.114   9.333   8.172 -1.4700 -0.0389  1.2702
20707SOL    HW265527  10.177   9.211   8.110 -3.2020 -0.4783  0.3527
20708SOL     OW65528   4.730   8.412   2.161 -0.0236  0.1588 -0.3431
20708SOL    HW165529   4.700   8.498   2.189  0.4054  0.4044 -0.6396
20708SOL    HW265530   4.818   8.403   2.199 -0.0540 -0.1380 -0.3351
20709SOL     OW65531  10.438   7.779   3.540  0.9990 -0.2934  0.6037
20709SOL    HW165532  10.499   7.773   3.466  0.1079  0.4099 -0.2046
20709SOL    HW265533  10.494   7.790   3.617  1.8934  0.4303 -0.1411
20710SOL     OW65534   8.864   1.581   5.243 -0.4263 -0.1091  0.2386
20710SOL    HW165535   8.820   1.564   5.159 -1.3988 -0.0876  0.7377
20710SOL    HW265536   8.792   1.589   5.306  0.3580 -1.6520  1.3573
20711SOL     OW65537   7.031   5.534   4.757  0.0215 -0.2725  0.3908
20711SOL    HW165538   7.044   5.444   4.787  0.8160  0.4923  2.4193
20711SOL    HW265539   7.085   5.587   4.816 -0.9978  1.5953 -0.3132
20712SOL     OW65540   3.647   4.264   5.239 -0.1647  0.1302  0.0982
20712SOL    HW165541   3.574   4.243   5.297  0.2966 -1.2957  0.1834
20712SOL    HW265542   3.718   4.207   5.268  0.3774  0.1026 -1.2376
20713SOL     OW65543   0.355  10.504  10.420  0.1022 -0.6701 -0.6298
20713SOL    HW165544   0.378  10.465  10.504 -0.8705  1.3862  0.6267
20713SOL    HW265545   0.260  10.507  10.420  0.1112 -0.0789 -1.5227
20714SOL     OW65546   0.888   0.316   8.710 -0.2287 -0.1900  0.6649
20714SOL    HW165547   0.894   0.328   8.615 -1.7117 -0.4290  0.5342
20714SOL    HW265548   0.940   0.387   8.747 -0.8420  0.7654 -0.3009
20715SOL     OW65549   9.684   2.042   0.889 -0.1310 -0.1930 -0.7494
20715SOL    HW165550   9.748   2.113   0.895 -1.5090  1.3133 -3.0512
20715SOL    HW265551   9.621   2.061   0.959  0.4791 -0.1962 -0.1905
20716SOL     OW65552   0.157   5.311   2.697  0.3576 -0.5190 -0.3112
20716SOL    HW165553   0.248   5.341   2.688  0.3529 -0.2519  0.4383
20716SOL    HW265554   0.138   5.322   2.790 -1.1278  1.3870 -0.8128
20717SOL     OW65555   5.137   7.937   7.467  0.3416 -0.2978  0.3012
20717SOL    HW165556   5.227   7.951   7.436 -0.1241 -1.1935 -1.5324
20717SOL    HW265557   5.084   7.992   7.409 -0.3360 -0.2207  1.0045
20718SOL     OW65558   0.008   9.886   9.022 -0.5162  0.1550 -0.1748
20718SOL    HW165559   0.035   9.872   9.113 -0.7394 -0.2057 -0.1652
20718SOL    HW265560  -0.086   9.899   9.027 -0.4180  0.9678 -0.2636
20719SOL     OW65561   4.923   1.199   3.644  0.1808  0.2333 -0.2807
20719SOL    HW165562   4.921   1.294   3.633 -0.2015  0.3301  0.5331
20719SOL    HW265563   4.831   1.172   3.639  0.1653  0.0659  0.7214
20720SOL     OW65564   2.364   2.808   7.598 -0.2877 -0.2128 -0.1012
20720SOL    HW165565   2.312   2.759   7.661 -0.0644 -0.4697 -0.1182
20720SOL    HW265566   2.352   2.900   7.623  1.2881 -0.4104  1.4552
20721SOL     OW65567   4.731   1.823   8.416 -0.2397 -0.7859 -0.2973
20721SOL    HW165568   4.712   1.869   8.334 -0.3773  1.1786  0.8073
20721SOL    HW265569   4.801   1.761   8.393 -0.5658 -0.5438 -1.9824
20722SOL     OW65570   4.433   8.342   2.615 -0.2128 -0.1284 -0.1771
20722SOL    HW165571   4.502   8.312   2.556  0.2359 -2.1176  1.3495
20722SOL    HW265572   4.352   8.304   2.580 -0.4703  1.4835 -1.4464
20723SOL     OW65573   7.768   2.964   8.323 -0.3105 -0.1800  0.0310
20723SOL    HW165574   7.788   2.884   8.275  1.3686  0.6260 -0.6598
20723SOL    HW265575   7.754   2.935   8.413 -0.5470 -1.3428 -0.3649
20724SOL     OW65576   1.425   8.585   5.085 -0.1011 -0.2453  0.1639
20724SOL    HW165577   1.481   8.603   5.009  0.4632 -1.4169  0.2902
20724SOL    HW265578   1.456   8.645   5.153  1.1145 -0.9964  0.2831
20725SOL     OW65579   1.631   1.102   4.505 -0.2452  0.1888  0.3175
20725SOL    HW165580   1.571   1.084   4.578 -1.0608 -1.5933 -0.7949
20725SOL    HW265581   1.582   1.079   4.427  1.2945  0.3718 -0.7135
20726SOL     OW65582   3.942   2.593   0.057 -0.6521  0.2368  0.0812
20726SOL    HW165583   3.983   2.679   0.063 -0.1503  0.2979 -3.0827
20726SOL    HW265584   4.014   2.531   0.076 -0.7237  0.4600  1.1309
20727SOL     OW65585   6.964   9.770   3.854  0.3114 -0.2089  0.3533
20727SOL    HW165586   6.950   9.692   3.800  1.3420 -1.4547  1.8294
20727SOL    HW265587   6.878   9.788   3.892 -0.4149  0.6544 -1.6119
20728SOL     OW65588   0.724   9.706   8.007  0.4160 -0.7253 -0.0633
20728SOL    HW165589   0.635   9.722   8.039  0.0913 -1.5790 -0.5316
20728SOL    HW265590   0.746   9.786   7.959  1.0041  0.6866  2.4409
20729SOL     OW65591  10.656   2.901   7.536 -0.1782 -0.2756  0.6936
20729SOL    HW165592  10.744   2.909   7.573 -0.5945 -0.4305  1.7420
20729SOL    HW265593  10.610   2.979   7.568 -0.0233  0.5411 -1.0061
20730SOL     OW65594  10.445   5.712   3.475 -0.2582  0.1454 -0.2383
20730SOL    HW165595  10.388   5.776   3.518 -1.0329  0.3776 -1.6054
20730SOL    HW265596  10.388   5.638   3.454 -0.2091  0.6328 -2.1518
20731SOL     OW65597   2.368   6.258   3.261 -0.4433  0.5650 -0.4175
20731SOL    HW165598   2.388   6.345   3.228  0.8139  0.6384  0.4930
20731SOL    HW265599   2.351   6.205   3.183  2.0158  0.8476 -1.1791
20732SOL     OW65600   9.291   6.988   5.802  0.1421 -0.0350  0.6497
20732SOL    HW165601   9.231   6.998   5.728  0.8958 -2.5153 -0.3642
20732SOL    HW265602   9.240   7.015   5.878 -1.4739  0.1862 -0.4891
20733SOL     OW65603   5.499   2.474   9.530 -0.8398 -0.6097 -0.5395
20733SOL    HW165604   5.520   2.416   9.458  0.0664 -0.0436 -0.7471
20733SOL    HW265605   5.550   2.440   9.604  0.7165  0.6464 -0.9916
20734SOL     OW65606   0.883   7.723   9.591 -0.1970 -0.5746  0.1907
20734SOL    HW165607   0.926   7.644   9.561 -1.1677 -1.1654  0.3360
20734SOL    HW265608   0.813   7.693   9.648 -0.4796  0.3920  0.3754
20735SOL     OW65609   1.377  10.951   4.767  0.4603  0.2916  0.2238
20735SOL    HW165610   1.427  10.905   4.834  0.4590 -0.9508 -0.6205
20735SOL    HW265611   1.395  10.904   4.686 -0.5714  0.9821 -0.4293
20736SOL     OW65612   4.500   4.000   7.998 -0.0176 -0.1516 -0.2088
20736SOL    HW165613   4.523   4.054   7.922 -0.7154  0.9184  0.3262
20736SOL    HW265614   4.583   3.967   8.031  0.5278  1.4993  0.1056
20737SOL     OW65615   4.409   2.936  10.654  0.3890  0.2256  0.2747
20737SOL    HW165616   4.407   2.946  10.559 -0.6593 -0.5993  0.1947
20737SOL    HW265617   4.481   2.992  10.683  1.9057 -0.9293 -1.1608
20738SOL     OW65618   6.413   5.295   4.970  0.1291 -0.2429 -0.4549
20738SOL    HW165619   6.349   5.262   5.033  0.7155  0.2978  0.4421
20738SOL    HW265620   6.462   5.218   4.942 -1.9489 -0.8989 -2.3589
20739SOL     OW65621   2.167   5.659   4.230 -0.3635 -0.3911  0.2855
20739SOL    HW165622   2.073   5.640   4.231 -0.4750  0.1610  0.8127
20739SOL    HW265623   2.174   5.745   4.188 -0.2161  0.1533  1.4038
20740SOL     OW65624   5.652   4.382   3.447  1.1727 -0.6017 -0.0995
20740SOL    HW165625   5.607   4.297   3.443 -0.0348  0.0838 -1.6695
20740SOL    HW265626   5.585   4.446   3.424  2.5091  0.6196 -0.6773
20741SOL     OW65627   3.003   0.399   1.925  0.1545 -0.0642 -0.1014
20741SOL    HW165628   2.995   0.493   1.942  0.3974 -0.2669  1.2103
20741SOL    HW265629   2.940   0.359   1.986  0.5457 -0.7818 -0.1697
20742SOL     OW65630   2.889   4.588   4.040 -0.5523 -0.2942  0.4008
20742SOL    HW165631   2.900   4.589   3.945 -0.7190 -2.3796  0.3322
20742SOL    HW265632   2.978   4.595   4.074 -0.5380  1.1112  0.1256
20743SOL     OW65633   0.644  10.465   2.139 -0.7137  0.3277  0.7908
20743SOL    HW165634   0.693  10.383   2.142 -1.3203  0.0173  3.0895
20743SOL    HW265635   0.565  10.443   2.089 -0.6274 -0.3495  0.9400
20744SOL     OW65636   6.218   7.700  10.318 -0.5851 -0.6069  0.5099
20744SOL    HW165637   6.178   7.705  10.231  0.8149  1.6084 -0.0535
20744SOL    HW265638   6.144   7.710  10.379 -0.9588  4.1519 -0.5214
20745SOL     OW65639   6.003   9.517   5.707  0.4736  0.3869 -0.1220
20745SOL    HW165640   5.996   9.578   5.634 -0.5940 -0.3262 -0.6431
20745SOL    HW265641   5.915   9.515   5.745  0.7614 -0.0270  0.5235
20746SOL     OW65642  10.104  10.379   7.894  0.0134 -0.2126 -0.4623
20746SOL    HW165643  10.069  10.390   7.805 -1.0414  0.6452  0.0396
20746SOL    HW265644  10.112  10.468   7.928 -2.2862 -0.6008  1.2983
20747SOL     OW65645  10.801   2.207   7.390 -0.6582  0.2072  0.2949
20747SOL    HW165646  10.771   2.123   7.356  1.1000 -0.0613 -0.6401
20747SOL    HW265647  10.863   2.239   7.325 -1.1058  2.1088  0.7745
20748SOL     OW65648   2.039   1.792  10.470  0.6983 -0.2428  0.5706
20748SOL    HW165649   2.050   1.866  10.409  0.3961  0.4880  1.3976
20748SOL    HW265650   2.040   1.715  10.413 -1.0439  0.5183 -0.5371
20749SOL     OW65651   6.434   3.898   1.722 -0.7939 -0.0507 -0.5521
20749SOL    HW165652   6.439   3.908   1.817 -2.5898  0.0873 -0.4548
20749SOL    HW265653   6.467   3.981   1.687 -2.0787  0.6986 -0.0041
20750SOL     OW65654   6.698   5.599   9.029 -0.6890  0.0138 -0.0014
20750SOL    HW165655   6.634   5.585   9.099 -1.4095  0.6129 -0.5317
20750SOL    HW265656   6.737   5.684   9.048  1.0432 -1.0284  1.1641
20751SOL     OW65657   6.089   5.978   0.262  0.2466  0.3547 -0.3283
20751SOL    HW165658   6.056   5.972   0.351 -1.4592 -0.2242 -0.9931
20751SOL    HW265659   6.119   6.069   0.253 -0.3748  0.6424  0.5426
20752SOL     OW65660   5.323   5.978   1.758 -0.2499 -0.5773 -0.2674
20752SOL    HW165661   5.235   5.951   1.731  0.3295 -1.7329 -1.0478
20752SOL    HW265662   5.313   6.070   1.785 -1.2902 -0.0539 -2.3491
20753SOL     OW65663   3.831   3.838   8.191 -0.7091 -0.0486 -0.4123
20753SOL    HW165664   3.794   3.754   8.217  1.2015 -1.3532 -1.7343
20753SOL    HW265665   3.845   3.885   8.273 -0.8669 -1.4369  0.4301
20754SOL     OW65666   3.362   6.579   2.615 -0.5725  0.2151  0.1484
20754SOL    HW165667   3.337   6.521   2.686  1.1263 -2.0241 -1.0276
20754SOL    HW265668   3.317   6.545   2.538  0.2210  0.6039 -0.5046
20755SOL     OW65669   9.990   5.948   8.016 -0.2824 -0.2100 -0.1681
20755SOL    HW165670  10.015   6.041   8.015  1.2042 -0.5985  0.0760
20755SOL    HW265671   9.984   5.926   8.109 -1.5700 -0.1283 -0.2186
20756SOL     OW65672   5.063   7.319   6.510 -0.3188  1.3412 -0.2946
20756SOL    HW165673   4.986   7.263   6.518  1.2709 -0.9936 -0.8053
20756SOL    HW265674   5.081   7.322   6.416  2.3152 -1.1380  0.0732
20757SOL     OW65675   7.698   8.562   3.397  0.0526  0.3155 -0.1447
20757SOL    HW165676   7.699   8.541   3.490  1.8475 -1.3690 -0.5127
20757SOL    HW265677   7.637   8.499   3.359  0.1144  0.3157 -0.2453
20758SOL     OW65678   8.045   4.664  10.608  0.1661 -0.3574  0.1359
20758SOL    HW165679   7.970   4.694  10.556  0.5759  0.3097 -0.0789
20758SOL    HW265680   8.009   4.595  10.664 -0.2477 -1.2137 -1.1647
20759SOL     OW65681   6.552   8.536   0.144 -0.3174  0.6397  0.1889
20759SOL    HW165682   6.556   8.525   0.049 -1.3718  1.4181  0.0559
20759SOL    HW265683   6.556   8.630   0.158  0.7663  0.4954  0.9774
20760SOL     OW65684   4.192   9.157   0.747 -0.3631  0.6114  0.4957
20760SOL    HW165685   4.212   9.087   0.684  0.8686  1.2486  0.1471
20760SOL    HW265686   4.196   9.114   0.832  0.8586  0.3348  0.3163
20761SOL     OW65687   4.028   8.338   9.965 -0.0610 -0.3457  0.0014
20761SOL    HW165688   3.978   8.266   9.926  0.0701 -1.5204  1.9025
20761SOL    HW265689   4.100   8.294  10.011  0.5504  1.0679  0.4085
20762SOL     OW65690   3.186   9.233   7.560  0.2759 -0.0028 -0.1534
20762SOL    HW165691   3.147   9.302   7.612 -2.2731  0.2149 -2.2567
20762SOL    HW265692   3.193   9.269   7.471  0.0258 -1.9962 -1.0306
20763SOL     OW65693   0.293   3.925   6.345 -0.2477 -0.1103  0.0883
20763SOL    HW165694   0.349   3.850   6.363  0.2816 -0.0411 -1.2423
20763SOL    HW265695   0.254   3.905   6.260 -0.9727  0.6079  0.2518
20764SOL     OW65696   5.929   2.738   1.327 -1.1663  0.0281 -0.3154
20764SOL    HW165697   5.878   2.706   1.254 -0.3186 -0.6529 -0.6193
20764SOL    HW265698   6.017   2.703   1.312 -0.2428  2.3984 -0.6099
20765SOL     OW65699   9.876   6.913   5.746 -0.2922  0.2352 -0.2030
20765SOL    HW165700   9.891   6.822   5.720 -1.1124 -0.1920  0.7693
20765SOL    HW265701   9.853   6.958   5.665 -1.5735 -0.7960 -0.4318
20766SOL     OW65702  10.605   3.788   5.667  0.4646 -0.4921 -0.2744
20766SOL    HW165703  10.690   3.821   5.640  0.5110 -1.3513 -1.1826
20766SOL    HW265704  10.625   3.722   5.734  0.3165  2.3018  2.6954
20767SOL     OW65705   4.553   1.435   2.063 -0.1307  0.1513 -0.0916
20767SOL    HW165706   4.622   1.442   2.130 -0.9561  0.1360  0.7710
20767SOL    HW265707   4.539   1.340   2.054  0.0595  0.1496 -0.3682
20768SOL     OW65708   6.721   4.683   5.286  0.0492 -0.3072 -0.7283
20768SOL    HW165709   6.629   4.677   5.313  0.5441 -0.4651  0.9506
20768SOL    HW265710   6.771   4.677   5.367  1.5135  0.8730 -1.5104
20769SOL     OW65711   5.087   2.845  10.288 -0.1792  0.0270 -0.0092
20769SOL    HW165712   5.110   2.778  10.353  0.4348 -0.5232 -0.7881
20769SOL    HW265713   5.108   2.805  10.204  0.5452  1.3400 -0.4622
20770SOL     OW65714   4.055   1.450   1.718 -0.3393  0.1182  0.0458
20770SOL    HW165715   4.066   1.355   1.722 -2.9859 -0.2364  0.0818
20770SOL    HW265716   3.995   1.464   1.645 -0.4505  1.6961  0.4195
20771SOL     OW65717   7.106   7.164   7.467 -0.3445  0.4159  0.1742
20771SOL    HW165718   7.091   7.106   7.392  1.6916  0.4049 -0.2440
20771SOL    HW265719   7.067   7.118   7.541  0.3703 -1.0247 -0.3337
20772SOL     OW65720   7.434   3.858   3.621  0.5931 -0.2492  0.3803
20772SOL    HW165721   7.496   3.786   3.634  0.3542 -0.3809  0.8195
20772SOL    HW265722   7.483   3.925   3.575  0.8333 -0.6797  0.0098
20773SOL     OW65723   6.049   0.462   4.526  0.0909 -0.0968  0.4383
20773SOL    HW165724   6.053   0.380   4.574  0.4964 -0.1765  0.2682
20773SOL    HW265725   6.092   0.443   4.443 -4.0087 -1.1078 -1.6120
20774SOL     OW65726   0.846   9.160   6.192 -0.4550 -0.1555  0.5139
20774SOL    HW165727   0.918   9.197   6.242 -0.6276  0.8573  0.0182
20774SOL    HW265728   0.802   9.235   6.152  0.0930 -0.9858 -1.7398
20775SOL     OW65729   2.476   0.911   5.267 -0.2428  0.1724 -0.3962
20775SOL    HW165730   2.384   0.902   5.245  0.0037 -0.5758 -1.1577
20775SOL    HW265731   2.521   0.914   5.182  0.3056  1.9882 -0.0683
20776SOL     OW65732   5.638   5.494  10.454 -0.5828  0.6567  0.3554
20776SOL    HW165733   5.704   5.483  10.523 -0.0306  0.3800 -0.2022
20776SOL    HW265734   5.600   5.407  10.443  1.2487  0.0287 -1.5571
20777SOL     OW65735   4.653   1.470   5.211  0.1446 -0.1170  0.7963
20777SOL    HW165736   4.626   1.391   5.164  0.1668  1.2320 -1.5838
20777SOL    HW265737   4.747   1.477   5.191 -0.1518  1.2422 -0.1366
20778SOL     OW65738  10.609   0.177   9.753 -0.5523  0.6433  0.0291
20778SOL    HW165739  10.575   0.236   9.820 -0.0397 -0.6195  1.4263
20778SOL    HW265740  10.701   0.202   9.743 -0.6976  1.0089 -0.4068
20779SOL     OW65741   8.632   5.922   7.914  0.0961 -0.0233  0.2894
20779SOL    HW165742   8.611   5.959   7.829  0.8529 -1.4733 -0.5538
20779SOL    HW265743   8.720   5.954   7.933 -0.9993  2.3244  1.7136
20780SOL     OW65744   5.980   3.200   8.481  0.0930  0.4017 -0.1350
20780SOL    HW165745   5.979   3.177   8.388 -0.5052 -1.8785  0.4191
20780SOL    HW265746   5.898   3.249   8.493 -1.0114 -1.3801 -0.3060
20781SOL     OW65747   1.964   3.250   8.141  0.1031 -0.2292 -0.3565
20781SOL    HW165748   2.012   3.282   8.065 -0.7015 -0.3724 -0.9281
20781SOL    HW265749   1.872   3.267   8.121 -0.1492 -0.6853  0.3818
20782SOL     OW65750   4.610   7.410   4.246 -0.4205  0.3039 -0.1535
20782SOL    HW165751   4.657   7.356   4.183 -0.8709  1.5419 -1.5717
20782SOL    HW265752   4.677   7.438   4.308  0.2926  0.2189 -0.8748
20783SOL     OW65753   5.427   9.040   6.831 -0.0398 -0.4182  0.3014
20783SOL    HW165754   5.472   9.125   6.826  0.6212 -0.7769  0.1045
20783SOL    HW265755   5.452   8.996   6.750  0.6855 -1.3299  1.0170
20784SOL     OW65756   2.123   5.001   1.337  0.1774  0.3121 -0.1819
20784SOL    HW165757   2.087   5.089   1.335 -0.4347  0.0465 -1.0485
20784SOL    HW265758   2.092   4.960   1.256  0.6188 -0.6310  0.1168
20785SOL     OW65759   2.438   0.996   4.733  0.2568 -0.0220 -0.3865
20785SOL    HW165760   2.451   1.015   4.826 -2.7175  0.7161 -0.0790
20785SOL    HW265761   2.344   0.987   4.723  0.7038 -2.9381 -2.8383
20786SOL     OW65762   5.289   6.214   9.144  0.1012  0.0752  0.1985
20786SOL    HW165763   5.232   6.209   9.221  0.3657 -1.2649  0.3179
20786SOL    HW265764   5.304   6.123   9.120  1.9162  0.4222 -0.0489
20787SOL     OW65765   1.943   4.750   3.679 -0.2130  0.6982 -0.0716
20787SOL    HW165766   1.968   4.793   3.598  0.9826 -1.5122 -0.9120
20787SOL    HW265767   2.019   4.761   3.736 -0.1577  0.2205 -0.0584
20788SOL     OW65768   4.487   6.999   4.227  0.0055  0.0727  0.3432
20788SOL    HW165769   4.414   6.947   4.260  0.1988 -0.5764 -0.2349
20788SOL    HW265770   4.525   7.040   4.305 -0.6592  0.0134  0.7032
20789SOL     OW65771   0.161   1.904   2.574  0.5758  0.2072  0.1365
20789SOL    HW165772   0.091   1.874   2.631 -1.6167  1.3833 -1.8194
20789SOL    HW265773   0.219   1.829   2.564 -0.9338 -1.0880  1.0068
20790SOL     OW65774  10.277   0.122   5.423  0.1236  0.4806 -0.1839
20790SOL    HW165775  10.337   0.147   5.353  1.8439 -0.7024  0.7984
20790SOL    HW265776  10.266   0.027   5.412  0.7309  0.2111  1.3396
20791SOL     OW65777   3.954   3.502   8.342  0.0539 -0.5855 -0.9589
20791SOL    HW165778   3.952   3.583   8.290 -0.6469 -0.4956 -0.7979
20791SOL    HW265779   3.953   3.432   8.277 -1.2787 -0.4796 -1.0705
20792SOL     OW65780   0.241   6.567   1.318 -0.4125 -0.1452 -0.1278
20792SOL    HW165781   0.311   6.597   1.259  0.2980 -0.8365  0.3544
20792SOL    HW265782   0.215   6.646   1.366 -1.0322  0.4416 -1.3754
20793SOL     OW65783   5.115   1.448   1.388  0.5622  0.5123 -0.3125
20793SOL    HW165784   5.064   1.372   1.360 -0.2756  0.8217  0.3791
20793SOL    HW265785   5.201   1.435   1.347  0.3899 -0.7465 -0.2986
20794SOL     OW65786   4.313  10.318   4.455  0.2500  0.1529 -0.0648
20794SOL    HW165787   4.352  10.373   4.523  0.3149  2.2492 -1.7163
20794SOL    HW265788   4.220  10.316   4.476  0.4646 -0.2914  0.8263
20795SOL     OW65789   5.008   3.327   5.618  0.3589  0.4391  0.6265
20795SOL    HW165790   4.960   3.360   5.542 -0.3570 -1.1595  0.3729
20795SOL    HW265791   4.988   3.389   5.688 -0.4174  0.9202 -0.0127
20796SOL     OW65792   5.939   3.551   0.324 -0.0576 -0.4447  0.6277
20796SOL    HW165793   5.943   3.456   0.335  0.7900 -0.6384 -1.2428
20796SOL    HW265794   6.022   3.583   0.362 -0.2657 -0.4659  1.1012
20797SOL     OW65795   9.709  10.693   8.890 -0.1469  0.0829 -0.4445
20797SOL    HW165796   9.614  10.681   8.896 -0.0328 -0.2349  1.0143
20797SOL    HW265797   9.723  10.785   8.915 -0.0826  0.1798 -0.8380
20798SOL     OW65798  10.888   5.897   5.913  0.0710  0.1318  0.1694
20798SOL    HW165799  10.805   5.922   5.871  0.3630 -0.6764 -0.9244
20798SOL    HW265800  10.877   5.921   6.005 -1.2342  0.3935 -0.0486
20799SOL     OW65801   1.337   3.017   5.935 -0.2745 -0.1493 -0.1520
20799SOL    HW165802   1.353   3.107   5.908 -0.4870  0.3350  1.2869
20799SOL    HW265803   1.312   2.972   5.854  0.2427  0.9792 -0.9534
20800SOL     OW65804   5.921   7.554   1.508  0.0589  0.0777 -0.6428
20800SOL    HW165805   5.991   7.490   1.524  0.0097 -0.0186 -0.8104
20800SOL    HW265806   5.965   7.639   1.516 -0.1188  0.0527  0.7238
20801SOL     OW65807   8.818   8.360   4.927 -0.2212  0.0826  0.0080
20801SOL    HW165808   8.804   8.267   4.941 -1.2371  0.3455  0.7843
20801SOL    HW265809   8.905   8.366   4.888  0.4512 -1.0779  1.3100
20802SOL     OW65810   1.294   0.716   0.774  0.5193 -0.3502 -0.4494
20802SOL    HW165811   1.388   0.700   0.777  0.3569 -0.9865  2.9135
20802SOL    HW265812   1.286   0.809   0.751  1.8929 -0.5346 -1.7951
20803SOL     OW65813   9.481   4.224   1.660  0.0534  0.4444 -0.5364
20803SOL    HW165814   9.433   4.153   1.702 -1.6698  2.3709  0.8832
20803SOL    HW265815   9.504   4.283   1.733 -0.7593  2.5753 -1.9549
20804SOL     OW65816   2.685   3.330   1.623 -0.3332  0.0529  0.7777
20804SOL    HW165817   2.598   3.363   1.647 -1.2177 -0.8276 -1.1692
20804SOL    HW265818   2.694   3.249   1.672 -0.5160  0.2387  1.1261
20805SOL     OW65819   8.656   7.666   2.367 -0.0186  0.7550 -0.5868
20805SOL    HW165820   8.584   7.725   2.345 -0.9711  0.3259  1.2681
20805SOL    HW265821   8.672   7.681   2.460  0.6058 -0.9440 -0.4060
20806SOL     OW65822   0.253   7.594   2.627 -0.5192  0.4770  0.3081
20806SOL    HW165823   0.254   7.542   2.547 -3.5910  0.7841  0.0032
20806SOL    HW265824   0.311   7.668   2.608 -0.5547  0.1089 -1.3290
20807SOL     OW65825  10.174   8.172  10.915  0.1852  0.1281  0.2262
20807SOL    HW165826  10.201   8.153  10.825  1.3094  1.8738  0.1615
20807SOL    HW265827  10.232   8.118  10.969  2.0400  1.7925 -0.0136
20808SOL     OW65828   1.194   2.138   5.704 -0.0961  0.4384  0.3759
20808SOL    HW165829   1.258   2.188   5.654  1.9037 -0.6985  1.7620
20808SOL    HW265830   1.187   2.184   5.788 -1.3660  0.7667  0.0956
20809SOL     OW65831   6.979   1.721   6.790 -0.6972 -0.2885  0.2533
20809SOL    HW165832   6.970   1.757   6.702  0.9859  1.6746  0.8614
20809SOL    HW265833   6.913   1.767   6.841 -0.2719  0.0862  0.4680
20810SOL     OW65834   6.407  10.838   5.553  0.2056 -0.4971 -0.1259
20810SOL    HW165835   6.459  10.770   5.595  1.1205  1.3540  1.8418
20810SOL    HW265836   6.457  10.863   5.476  1.0194 -0.4497  0.4106
20811SOL     OW65837   9.440   5.342   8.178  0.3232  0.5547 -0.3870
20811SOL    HW165838   9.422   5.284   8.252 -1.2067 -0.0008 -1.1619
20811SOL    HW265839   9.384   5.308   8.107  0.4924  2.0904 -1.2805
20812SOL     OW65840   1.160   4.964   5.564 -0.1185 -0.5179 -0.0162
20812SOL    HW165841   1.167   4.964   5.659  0.8823 -3.4078 -0.0290
20812SOL    HW265842   1.250   4.979   5.534 -0.6893  1.9692 -0.5322
20813SOL     OW65843   6.024   9.952   7.412  0.2878  0.3070 -0.0255
20813SOL    HW165844   6.083   9.936   7.339  0.3894  0.9434 -0.0805
20813SOL    HW265845   6.048  10.038   7.445  0.5125 -0.1495  1.0157
20814SOL     OW65846   5.302   5.183   7.914 -0.4410 -0.1091  0.1357
20814SOL    HW165847   5.263   5.187   8.002  0.9197  0.5380  0.7359
20814SOL    HW265848   5.370   5.251   7.915 -0.1718 -0.3417 -1.3035
20815SOL     OW65849   2.536  10.620   2.754 -0.9091  0.4809  0.0006
20815SOL    HW165850   2.478  10.545   2.747 -0.2703 -0.2060  1.7527
20815SOL    HW265851   2.606  10.603   2.692 -3.2989  2.0616 -3.3083
20816SOL     OW65852   4.563   8.272  10.097 -0.0237 -0.3078  0.0200
20816SOL    HW165853   4.536   8.185  10.067 -0.6656  0.1861 -0.8447
20816SOL    HW265854   4.504   8.292  10.169  0.9552 -1.1200  1.0861
20817SOL     OW65855   3.456   3.540   0.271  0.1509  0.5128 -0.1333
20817SOL    HW165856   3.416   3.530   0.185 -0.1720 -1.6430  0.2218
20817SOL    HW265857   3.548   3.561   0.253  0.2488 -0.6184 -1.0279
20818SOL     OW65858   5.436   6.857   8.290  0.1667  0.1528  0.6152
20818SOL    HW165859   5.359   6.907   8.317  0.1254  0.4552 -0.0475
20818SOL    HW265860   5.404   6.767   8.279  0.1951  0.0204  1.6026
20819SOL     OW65861   7.276  10.376   8.174  0.1454  0.0137 -0.1789
20819SOL    HW165862   7.369  10.358   8.162  0.4252  0.0620  1.7915
20819SOL    HW265863   7.234  10.290   8.173  0.2553 -0.0336 -0.7038
20820SOL     OW65864  10.952   9.717   6.526  0.5343 -0.2617 -0.0159
20820SOL    HW165865  10.862   9.735   6.500  0.8778  1.6509  0.0225
20820SOL    HW265866  10.944   9.667   6.607 -0.4866 -1.7625 -1.0212
20821SOL     OW65867   7.233   8.026   7.642 -0.4679 -0.4348  0.0263
20821SOL    HW165868   7.155   8.073   7.668  0.9125  1.9012  0.1392
20821SOL    HW265869   7.290   8.029   7.719  0.7673  0.2386 -0.8933
20822SOL     OW65870   4.069   4.380   8.615 -0.0625  0.0596  0.7113
20822SOL    HW165871   4.111   4.336   8.540 -0.4870 -0.0131  0.5153
20822SOL    HW265872   4.026   4.456   8.577  2.0391  1.5963  1.2691
20823SOL     OW65873   6.697   7.748   6.065 -0.5655 -0.4759  0.2048
20823SOL    HW165874   6.684   7.715   5.976 -1.3356 -1.2382  0.5922
20823SOL    HW265875   6.705   7.843   6.054 -1.7195 -0.4543 -0.5782
20824SOL     OW65876   1.066   0.430   4.596 -0.2716  0.1875  0.0787
20824SOL    HW165877   1.037   0.511   4.556 -0.9699  0.6350  1.4268
20824SOL    HW265878   0.985   0.379   4.607 -0.1923  0.3434  1.4687
20825SOL     OW65879   7.131   4.846   9.338 -0.3235  0.3477  0.1948
20825SOL    HW165880   7.215   4.809   9.309 -0.2973 -0.6446  1.4750
20825SOL    HW265881   7.076   4.769   9.353 -1.8780  1.0187 -1.7860
20826SOL     OW65882  10.281   0.626   7.239  0.2077 -0.1473 -0.3314
20826SOL    HW165883  10.308   0.633   7.331  0.1022  0.0128 -0.3116
20826SOL    HW265884  10.336   0.689   7.193 -0.9471  1.0703 -0.1081
20827SOL     OW65885   5.735   3.176   4.867 -0.4397 -0.3279 -0.0463
20827SOL    HW165886   5.739   3.102   4.806  0.0323  1.3771 -2.1715
20827SOL    HW265887   5.693   3.246   4.816  1.7311  1.7430  0.9299
20828SOL     OW65888  10.284  10.407   5.555  0.5694  0.4455 -0.0240
20828SOL    HW165889  10.191  10.411   5.576  0.6432 -0.7765  0.5167
20828SOL    HW265890  10.287  10.424   5.460 -0.4078 -1.8387 -0.4914
20829SOL     OW65891   4.972   1.496   9.716  0.4840 -0.0795 -0.7969
20829SOL    HW165892   5.047   1.535   9.761  0.7410  1.0158 -2.1132
20829SOL    HW265893   4.910   1.568   9.706  0.1234 -0.4802 -1.5143
20830SOL     OW65894  10.080   2.480   4.435 -0.4379  0.5719 -0.1545
20830SOL    HW165895  10.049   2.568   4.457  0.5603  0.2704  2.6798
20830SOL    HW265896  10.000   2.433   4.409 -1.1101  2.0413 -0.8553
20831SOL     OW65897   3.845  10.691   4.415 -0.3786 -0.3760 -0.2945
20831SOL    HW165898   3.806  10.778   4.425 -1.2235 -0.9239  1.2824
20831SOL    HW265899   3.938  10.708   4.402 -0.4630  0.7420  0.5294
20832SOL     OW65900   2.558   7.128   3.760  0.2873  0.1796  0.0598
20832SOL    HW165901   2.515   7.200   3.715 -1.0716  0.0666  1.1237
20832SOL    HW265902   2.498   7.053   3.749  0.9833 -0.4011  0.1864
20833SOL     OW65903  10.714   2.268   9.551 -0.0538 -0.3886  0.3961
20833SOL    HW165904  10.786   2.263   9.489 -0.3098  0.4765  0.0276
20833SOL    HW265905  10.658   2.194   9.529  1.2321 -1.6796  1.3439
20834SOL     OW65906   3.413   7.127   9.001 -0.2100 -0.6941  0.5520
20834SOL    HW165907   3.343   7.073   8.964 -0.3114  0.3741 -0.8213
20834SOL    HW265908   3.426   7.197   8.938  0.1616  0.7231  2.1688
20835SOL     OW65909   5.076   4.068   7.124 -0.2408  0.1462  0.3906
20835SOL    HW165910   5.122   4.000   7.174 -0.5711  0.0564  0.5713
20835SOL    HW265911   5.123   4.072   7.041 -0.0847 -0.1500  0.4615
20836SOL     OW65912   5.330   5.094   5.716 -0.0662  0.0671 -0.7066
20836SOL    HW165913   5.246   5.140   5.714  0.8518  1.7858 -0.7651
20836SOL    HW265914   5.354   5.092   5.808 -1.3410 -2.6606 -0.3948
20837SOL     OW65915   5.633  10.076   3.155  0.3027 -0.1043 -0.0046
20837SOL    HW165916   5.655  10.148   3.096  0.6795  0.2304  0.5438
20837SOL    HW265917   5.577  10.018   3.102  0.1847  0.4702 -0.5155
20838SOL     OW65918   1.882  10.330   9.983 -0.0439  0.3632 -0.8405
20838SOL    HW165919   1.832  10.248   9.980  0.2164  0.2116 -1.1742
20838SOL    HW265920   1.872  10.366   9.895  1.5841 -0.3662 -1.3399
20839SOL     OW65921   2.317   8.075   8.374 -0.0697  0.2276 -0.2856
20839SOL    HW165922   2.301   7.983   8.356  0.7523  0.3961 -1.9777
20839SOL    HW265923   2.410   8.088   8.356 -0.0494  1.2670  0.4883
20840SOL     OW65924   3.263   3.070   8.248  0.4981 -0.0783 -0.4543
20840SOL    HW165925   3.284   2.998   8.189 -0.5546 -0.5799 -0.2249
20840SOL    HW265926   3.304   3.047   8.331 -1.8241 -1.5960  0.3196
20841SOL     OW65927   1.958   8.716   9.137 -0.1380 -0.6800  0.8087
20841SOL    HW165928   1.972   8.748   9.049  1.3529  1.8442  1.9098
20841SOL    HW265929   1.906   8.636   9.126  0.4184 -0.6504 -2.3335
20842SOL     OW65930   0.545   0.499   3.693  0.4596  0.0294 -0.3250
20842SOL    HW165931   0.589   0.516   3.609 -0.5871 -1.5918 -1.2326
20842SOL    HW265932   0.583   0.417   3.724 -0.7105 -0.5317 -0.3195
20843SOL     OW65933   3.397   9.905   2.507 -0.1021 -0.9233  0.0280
20843SOL    HW165934   3.393   9.994   2.473  2.5979 -0.3368  1.0878
20843SOL    HW265935   3.470   9.864   2.460  1.3098 -1.2482  2.4034
20844SOL     OW65936   9.829   7.764   2.785  0.7035  0.3437 -0.2385
20844SOL    HW165937   9.859   7.705   2.854 -0.9757 -0.8435 -0.4898
20844SOL    HW265938   9.745   7.797   2.817 -0.5152 -0.8927 -2.0672
20845SOL     OW65939   5.012   8.448   3.758 -0.1507  0.5143 -0.1477
20845SOL    HW165940   4.952   8.380   3.789 -0.6368  1.0109  0.0075
20845SOL    HW265941   5.075   8.401   3.704  0.4207 -0.2921  1.2058
20846SOL     OW65942   0.955   8.398   9.075 -0.1432 -0.0543  0.6394
20846SOL    HW165943   1.002   8.479   9.055 -1.6899  0.3362 -1.6079
20846SOL    HW265944   0.869   8.427   9.104 -0.2357 -0.8688  1.1927
20847SOL     OW65945   5.294   5.868   5.686  0.1383  0.0923  0.6771
20847SOL    HW165946   5.376   5.878   5.734 -0.5113 -0.7487  2.0058
20847SOL    HW265947   5.304   5.785   5.639 -0.4884 -0.7576  1.9971
20848SOL     OW65948  10.465   0.201   9.453 -0.1905 -0.0299  0.4174
20848SOL    HW165949  10.499   0.154   9.529 -0.5598 -0.2023  0.4826
20848SOL    HW265950  10.539   0.249   9.418  0.0942 -0.3315  0.6040
20849SOL     OW65951   2.360   7.799   2.226 -0.1162 -0.4231  0.0606
20849SOL    HW165952   2.361   7.885   2.184 -0.2979 -0.1887  0.5360
20849SOL    HW265953   2.435   7.801   2.286  1.0886 -1.3264 -1.3775
20850SOL     OW65954   5.409   0.235   1.264  0.4546  0.0994  0.1442
20850SOL    HW165955   5.367   0.148   1.268  0.7587 -0.0637 -0.2356
20850SOL    HW265956   5.370   0.283   1.337 -0.2195 -0.1331 -0.0581
20851SOL     OW65957   9.658   9.455   3.922  0.0167  0.5578  0.4143
20851SOL    HW165958   9.577   9.442   3.970  0.8191  1.0514  1.9450
20851SOL    HW265959   9.692   9.538   3.956 -0.8370  2.4171 -3.0898
20852SOL     OW65960   7.936   6.968   8.352 -0.2017  0.0006 -0.5579
20852SOL    HW165961   7.870   6.989   8.419  1.0223  2.2267 -0.0174
20852SOL    HW265962   7.885   6.931   8.280 -1.5683 -2.2967  1.5111
20853SOL     OW65963   4.263   6.423   6.041 -0.6083  0.2309  0.0611
20853SOL    HW165964   4.274   6.517   6.031 -2.0554  0.5724  1.4691
20853SOL    HW265965   4.338   6.385   5.995 -0.1518  2.0450 -0.7382
20854SOL     OW65966  10.483   4.012   6.866 -0.0000 -0.3621  0.1023
20854SOL    HW165967  10.505   3.927   6.828  0.0036 -1.2260  1.9787
20854SOL    HW265968  10.388   4.019   6.858 -0.0483 -0.7432  0.3491
20855SOL     OW65969   1.445  10.313   0.393 -0.3011 -0.8310  0.1525
20855SOL    HW165970   1.488  10.386   0.348 -1.9345  0.1857  0.1916
20855SOL    HW265971   1.372  10.290   0.335 -0.3440 -1.8223  0.5982
20856SOL     OW65972   3.104   1.741   1.420 -0.0942 -0.3844 -0.2108
20856SOL    HW165973   3.042   1.792   1.369 -0.1919  0.5175  0.7931
20856SOL    HW265974   3.125   1.665   1.365 -1.5980 -0.3689 -0.8111
20857SOL     OW65975   1.181   3.656   3.943 -0.1816 -0.4009  0.3651
20857SOL    HW165976   1.174   3.604   4.023  0.6654  0.1340  0.7919
20857SOL    HW265977   1.273   3.681   3.938 -0.5764  1.1037  0.2044
20858SOL     OW65978  10.440  10.205   3.250 -0.3479 -0.1442 -0.5906
20858SOL    HW165979  10.474  10.147   3.182  0.2265 -1.0824  0.4566
20858SOL    HW265980  10.345  10.196   3.244 -0.2411 -2.8219  0.8629
20859SOL     OW65981   1.456   1.259   8.525  0.3556  0.3338 -0.1955
20859SOL    HW165982   1.492   1.336   8.570  1.2220 -0.1907  0.0224
20859SOL    HW265983   1.404   1.215   8.592 -1.0905  1.3333 -0.6332
20860SOL     OW65984   7.769   3.478   8.420  0.8160 -0.1616 -0.4412
20860SOL    HW165985   7.829   3.527   8.476  0.0184  0.1911  0.1206
20860SOL    HW265986   7.692   3.464   8.475  0.2258 -0.2487 -1.2898
20861SOL     OW65987   8.765   3.767   5.742 -0.0575 -0.2086  0.2691
20861SOL    HW165988   8.815   3.728   5.814 -2.0636 -2.8869  0.2772
20861SOL    HW265989   8.674   3.754   5.767 -0.7658  1.5492 -1.3564
20862SOL     OW65990   1.823   9.998   1.712  0.3448 -0.5254 -0.6656
20862SOL    HW165991   1.778  10.072   1.753  1.3831  1.0485 -2.2986
20862SOL    HW265992   1.775   9.982   1.631  0.4678 -1.2605 -0.5951
20863SOL     OW65993   3.164   4.437   3.702  0.2141  0.8155  0.1504
20863SOL    HW165994   3.192   4.384   3.627 -0.4042  0.8465 -0.1058
20863SOL    HW265995   3.245   4.469   3.740  0.6407 -0.9157  0.7421
20864SOL     OW65996   8.348   9.421   9.231 -0.1699 -0.0850  0.1007
20864SOL    HW165997   8.290   9.414   9.307 -0.1997 -1.5787 -0.0425
20864SOL    HW265998   8.434   9.395   9.263  0.7728  3.4383  0.6432
20865SOL     OW65999   4.323   2.482   1.090  0.9431  0.7381  0.4129
20865SOL    HW166000   4.239   2.442   1.064  0.9091  2.2707 -2.1046
20865SOL    HW266001   4.378   2.409   1.115 -0.2018 -0.6021 -0.8477
20866SOL     OW66002   8.919   9.318   6.124  0.1805  0.6342  0.0431
20866SOL    HW166003   8.922   9.254   6.195  0.4383  1.0600  0.4206
20866SOL    HW266004   8.999   9.302   6.074 -0.7761 -0.7133 -1.0777
20867SOL     OW66005   8.529   8.937   6.927 -0.2419  0.6934  0.0837
20867SOL    HW166006   8.538   8.892   7.011 -0.0054  0.7414  0.0846
20867SOL    HW266007   8.479   9.016   6.948 -1.5073 -0.0348 -0.0792
20868SOL     OW66008   9.562   2.320   3.926  0.3586 -0.2063 -0.6841
20868SOL    HW166009   9.538   2.324   3.833 -0.3943  2.0278 -0.4232
20868SOL    HW266010   9.482   2.290   3.970 -0.7990  3.2647 -0.2755
20869SOL     OW66011   2.221  10.051   4.068  0.0559 -0.0984  0.1821
20869SOL    HW166012   2.127  10.052   4.051 -0.2398  0.2756  1.8287
20869SOL    HW266013   2.238   9.964   4.106  0.1909  0.2591  0.9399
20870SOL     OW66014   4.056   7.527   4.269 -0.4576 -0.1011 -0.1081
20870SOL    HW166015   3.974   7.488   4.240 -1.2395  1.5384 -0.1208
20870SOL    HW266016   4.118   7.454   4.268 -1.8941 -1.3508 -0.1187
20871SOL     OW66017   3.625   8.931   4.053  0.2662  0.2328 -0.6630
20871SOL    HW166018   3.575   8.988   3.994 -3.1668 -1.8601  0.0496
20871SOL    HW266019   3.648   8.855   3.998 -0.6944 -0.5421 -0.0062
20872SOL     OW66020   6.585   8.612   1.818  0.2946  0.2019  0.0088
20872SOL    HW166021   6.595   8.696   1.774  0.7534  0.2682  0.2413
20872SOL    HW266022   6.495   8.586   1.799 -0.5664  1.7943  1.7835
20873SOL     OW66023   3.715   5.815   2.097 -0.3244 -0.0412 -0.6913
20873SOL    HW166024   3.768   5.836   2.021  0.9631 -0.0729  0.1975
20873SOL    HW266025   3.687   5.899   2.132 -1.0258 -0.0301 -1.2650
20874SOL     OW66026   1.655   2.215   2.897  0.2293  0.2506 -0.1665
20874SOL    HW166027   1.717   2.233   2.827 -1.2774  1.0565 -1.3430
20874SOL    HW266028   1.602   2.142   2.863  0.5140 -0.4244  0.8188
20875SOL     OW66029   8.365   6.925   4.635  0.5593  0.1626 -0.2736
20875SOL    HW166030   8.327   6.993   4.580  0.2095 -0.1798 -0.4609
20875SOL    HW266031   8.388   6.969   4.717 -1.9042 -0.0069  0.5345
20876SOL     OW66032   0.958   4.040   0.869 -0.9635  0.2649  0.0682
20876SOL    HW166033   0.985   3.981   0.939 -1.1161 -0.4075 -0.4343
20876SOL    HW266034   0.979   4.127   0.901 -0.9454 -0.0480  0.9115
20877SOL     OW66035   2.941   1.356   2.377  0.3530 -0.3151  0.0563
20877SOL    HW166036   2.990   1.393   2.450  0.0316 -2.3024  1.3081
20877SOL    HW266037   2.853   1.341   2.412  0.0050 -0.6460 -0.9395
20878SOL     OW66038   2.559   7.164   1.155 -0.3267  0.3268  0.4509
20878SOL    HW166039   2.532   7.169   1.063  0.8317  3.8088  0.2443
20878SOL    HW266040   2.540   7.074   1.180 -2.0237 -0.2982 -2.7795
20879SOL     OW66041   2.566   4.331   8.022 -0.2100 -0.3919 -0.0383
20879SOL    HW166042   2.640   4.392   8.012  1.6221 -2.5861 -0.1686
20879SOL    HW266043   2.541   4.310   7.932  0.1690 -1.0288  0.0062
20880SOL     OW66044   5.586   7.859   1.638  0.0013  0.4323  0.0204
20880SOL    HW166045   5.591   7.887   1.729 -1.0133 -2.6079  1.0804
20880SOL    HW266046   5.612   7.767   1.639  0.0136  0.3431 -2.7654
20881SOL     OW66047   9.817   6.412   4.778  0.1939 -0.0581  0.6712
20881SOL    HW166048   9.732   6.370   4.789 -0.3538  0.5965 -0.8860
20881SOL    HW266049   9.796   6.502   4.751  1.3775 -0.1031 -0.4299
20882SOL     OW66050   2.767   0.378   3.546  0.0533 -0.3035  0.0316
20882SOL    HW166051   2.720   0.374   3.629 -0.9522  0.0326 -0.5160
20882SOL    HW266052   2.699   0.372   3.479  0.7533  0.4904 -0.7739
20883SOL     OW66053   4.678   6.724   7.879  0.1463  0.0714 -0.4132
20883SOL    HW166054   4.600   6.674   7.903  0.5998 -0.2311  0.4448
20883SOL    HW266055   4.739   6.709   7.951  0.8036  0.7304 -0.8286
20884SOL     OW66056   7.101  10.264   5.683 -0.1366  0.6027  0.1824
20884SOL    HW166057   7.195  10.273   5.664  0.2886  1.4790  2.4497
20884SOL    HW266058   7.064  10.349   5.661  0.4997  1.9049  3.6959
20885SOL     OW66059   3.020   3.738   2.480 -0.1931 -0.0748 -0.1977
20885SOL    HW166060   3.105   3.740   2.437 -1.0204  0.1004 -1.8770
20885SOL    HW266061   3.038   3.764   2.570  1.6859 -1.1531 -0.2391
20886SOL     OW66062  10.190  10.558   7.501  0.1669 -0.7087  0.0619
20886SOL    HW166063  10.247  10.515   7.565 -1.0958 -1.7997  0.4622
20886SOL    HW266064  10.216  10.651   7.506  1.6357 -1.1181  0.5064
20887SOL     OW66065   3.687   7.025   2.240 -0.1184  0.0881 -0.4575
20887SOL    HW166066   3.676   6.973   2.161 -2.1610  0.3222 -0.3477
20887SOL    HW266067   3.724   6.965   2.304 -3.0039 -1.4131 -0.1510
20888SOL     OW66068  10.804   6.317   6.607 -0.2840  0.3618  0.3127
20888SOL    HW166069  10.839   6.387   6.552  0.4354 -0.4639 -0.2985
20888SOL    HW266070  10.872   6.301   6.672 -1.0830  1.2542  1.3878
20889SOL     OW66071   2.350   6.912   9.366 -0.0841  0.1999  0.2961
20889SOL    HW166072   2.422   6.947   9.312 -0.7605  2.3827  0.7587
20889SOL    HW266073   2.382   6.918   9.456  0.0810 -1.1272  0.3384
20890SOL     OW66074   4.873   7.524   0.696  0.1209  0.2746  0.7471
20890SOL    HW166075   4.825   7.442   0.682  0.1612  0.4060 -0.1920
20890SOL    HW266076   4.933   7.529   0.622 -1.9139  2.6025 -0.8102
20891SOL     OW66077   4.163   2.236   0.977  0.0585  0.5218 -0.8773
20891SOL    HW166078   4.166   2.221   1.071 -0.9047  2.3469 -0.5216
20891SOL    HW266079   4.106   2.168   0.943  0.1660  0.0411 -0.1101
20892SOL     OW66080  10.980   9.266   5.455 -0.4038  0.2376 -0.3355
20892SOL    HW166081  11.042   9.261   5.529 -1.1456 -0.0364  0.2755
20892SOL    HW266082  10.916   9.197   5.473 -0.1779 -0.3185 -1.6295
20893SOL     OW66083   6.891   0.594   4.510  0.6016  0.0835 -0.4498
20893SOL    HW166084   6.853   0.593   4.598  2.8870  0.1966  0.5830
20893SOL    HW266085   6.854   0.517   4.467 -0.2235 -0.2092  0.7527
20894SOL     OW66086   8.902   1.321   1.869  0.1818 -0.0411 -0.3217
20894SOL    HW166087   8.906   1.380   1.794  0.4798 -1.8645 -1.7822
20894SOL    HW266088   8.860   1.242   1.835 -0.5932 -0.5326  1.6946
20895SOL     OW66089   9.939   6.052   0.681 -0.3429 -0.0196  0.4766
20895SOL    HW166090   9.862   6.021   0.633  1.7690 -1.6892 -1.8868
20895SOL    HW266091  10.012   6.004   0.644  2.4219  4.2382  0.0754
20896SOL     OW66092   9.501  10.382   4.286  0.0665 -0.1028 -0.0459
20896SOL    HW166093   9.497  10.420   4.373  1.0161 -1.3972  0.5772
20896SOL    HW266094   9.450  10.442   4.231 -1.0551  0.3822  1.5001
20897SOL     OW66095   2.602   3.668   0.634  0.2059 -0.0359 -1.0689
20897SOL    HW166096   2.579   3.659   0.726  1.4803 -3.1422 -0.9965
20897SOL    HW266097   2.524   3.708   0.594 -1.4208 -1.1522  0.8648
20898SOL     OW66098   8.710   1.908   3.259 -0.1423 -0.3758 -0.3992
20898SOL    HW166099   8.627   1.921   3.306  0.4720  0.8833  0.3570
20898SOL    HW266100   8.698   1.956   3.177  0.0562  0.3125 -0.0277
20899SOL     OW66101  10.764   1.892  10.212 -0.1290  0.1887  0.4668
20899SOL    HW166102  10.769   1.973  10.162 -0.3659  0.3254  0.6663
20899SOL    HW266103  10.691   1.905  10.272 -0.3864 -0.3100  0.2593
20900SOL     OW66104   0.834   8.338   6.079  0.8334 -0.5877 -0.3668
20900SOL    HW166105   0.749   8.345   6.123  0.3994 -1.7794 -0.9899
20900SOL    HW266106   0.847   8.243   6.068  1.6822 -0.3619 -1.3657
20901SOL     OW66107  10.764   6.413   5.479 -0.6218 -0.0885 -0.1261
20901SOL    HW166108  10.684   6.361   5.483  0.0345 -1.0910  0.1049
20901SOL    HW266109  10.817   6.383   5.553  0.9721 -1.1038 -1.6379
20902SOL     OW66110   5.046   8.945  10.253 -0.1414 -0.2681 -0.0318
20902SOL    HW166111   5.019   9.018  10.309 -1.0998  0.6824 -1.6942
20902SOL    HW266112   5.035   8.978  10.164 -1.1141 -2.6179 -0.8078
20903SOL     OW66113   3.455   7.944  10.297  0.5748  0.1376 -0.2467
20903SOL    HW166114   3.548   7.961  10.307  0.6919 -0.7110  0.1814
20903SOL    HW266115   3.414   8.030  10.298  1.5653  0.6791 -2.8218
20904SOL     OW66116   9.524   8.601  10.218  0.4270  0.6250 -0.4685
20904SOL    HW166117   9.614   8.579  10.194 -0.0302 -1.8417  0.0112
20904SOL    HW266118   9.526   8.612  10.313  0.1533  0.2090 -0.4130
20905SOL     OW66119   3.713   2.712   0.180 -0.3243 -0.7863  0.5016
20905SOL    HW166120   3.716   2.796   0.226 -0.5401 -0.3847 -0.2065
20905SOL    HW266121   3.791   2.665   0.209 -1.0493 -1.0021  2.1539
20906SOL     OW66122   5.905   1.787   0.224 -0.0128 -0.4068  0.1554
20906SOL    HW166123   5.897   1.863   0.282  0.9438  0.0129 -0.2540
20906SOL    HW266124   5.819   1.746   0.227  0.6374 -1.7243  3.6917
20907SOL     OW66125   7.821   6.317   2.275 -0.0072  0.1852 -0.7323
20907SOL    HW166126   7.757   6.379   2.240 -1.8638 -1.5418 -0.5052
20907SOL    HW266127   7.771   6.236   2.289  1.3652 -0.0969  3.0488
20908SOL     OW66128   7.597  10.266   8.722 -0.1998 -0.0054  0.7828
20908SOL    HW166129   7.601  10.360   8.702  2.1930  0.0462  1.3400
20908SOL    HW266130   7.568  10.225   8.641 -0.6402  1.1638  0.3445
20909SOL     OW66131   1.744   2.139   1.043  0.4158  0.0699 -0.3633
20909SOL    HW166132   1.807   2.125   1.113  0.2655  0.8196 -0.0785
20909SOL    HW266133   1.727   2.051   1.009  0.3100 -0.3370  0.6973
20910SOL     OW66134   8.203   1.712   9.059 -0.4063 -0.5445 -0.0577
20910SOL    HW166135   8.156   1.715   9.142  0.1350 -1.0505  0.2670
20910SOL    HW266136   8.230   1.621   9.049  0.4367 -0.2765 -0.2757
20911SOL     OW66137   4.789   1.470   0.567 -0.1160 -0.3990 -0.5559
20911SOL    HW166138   4.707   1.516   0.586 -0.0816 -0.8328  0.7026
20911SOL    HW266139   4.765   1.377   0.570  0.3349 -0.5170 -0.5872
20912SOL     OW66140   9.720   8.376   7.471  0.5119 -0.6414  0.0940
20912SOL    HW166141   9.755   8.297   7.429  1.7543 -0.7177  1.2096
20912SOL    HW266142   9.758   8.374   7.559 -3.0279 -1.1855  1.7089
20913SOL     OW66143   1.227   7.394   9.157 -0.4334  0.0434 -1.0192
20913SOL    HW166144   1.321   7.400   9.139 -0.4369 -2.2553 -1.9643
20913SOL    HW266145   1.186   7.395   9.070 -0.9232 -3.8294 -0.9142
20914SOL     OW66146   4.241   4.245   7.169 -0.4892  0.0429  0.4650
20914SOL    HW166147   4.222   4.157   7.204 -1.6508  0.2072  0.2531
20914SOL    HW266148   4.330   4.237   7.134 -0.3301 -0.8691  1.0303
20915SOL     OW66149   4.388   1.417   1.308  0.5168 -0.4139  0.3652
20915SOL    HW166150   4.413   1.440   1.397 -1.0994  1.7477  0.3093
20915SOL    HW266151   4.293   1.426   1.307  0.6853  1.6644 -2.1034
20916SOL     OW66152   4.954   7.951   1.292 -0.1498  0.3058 -0.4307
20916SOL    HW166153   5.039   7.908   1.304 -0.3490 -0.3128 -1.1821
20916SOL    HW266154   4.951   8.017   1.361  1.5328  1.2595 -1.2232
20917SOL     OW66155   1.619   8.574   4.904 -0.1413  0.3130  0.0029
20917SOL    HW166156   1.710   8.602   4.913  0.8615 -2.3667 -1.2866
20917SOL    HW266157   1.597   8.591   4.813 -1.2810  1.8310  0.5357
20918SOL     OW66158   8.231   2.007   2.224  0.8440 -0.3888  0.2265
20918SOL    HW166159   8.183   1.932   2.261 -0.9796  0.3608 -0.5826
20918SOL    HW266160   8.228   1.993   2.130  2.3885 -0.4105  0.1715
20919SOL     OW66161   4.849   3.489  10.104 -0.2612  0.1667  0.0263
20919SOL    HW166162   4.916   3.422  10.091 -2.4790 -2.4239  1.3369
20919SOL    HW266163   4.850   3.540  10.024  1.0486 -1.8605 -1.3066
20920SOL     OW66164   8.859  10.143   6.047  0.6717 -0.3794 -0.2615
20920SOL    HW166165   8.822  10.197   6.117  0.1710  0.6922 -1.3337
20920SOL    HW266166   8.943  10.184   6.027 -0.1372  0.6152 -1.7372
20921SOL     OW66167   6.939   8.843   5.004 -0.4168  0.0967  0.5433
20921SOL    HW166168   6.863   8.829   4.947 -1.0695  0.7699  1.2467
20921SOL    HW266169   6.910   8.908   5.068  0.4863 -0.2485  1.3162
20922SOL     OW66170   7.457   5.332   5.044 -0.6895 -0.0764  0.0656
20922SOL    HW166171   7.542   5.358   5.008  0.3685 -1.4347  1.4752
20922SOL    HW266172   7.409   5.414   5.054 -0.5489  0.4543 -3.1536
20923SOL     OW66173   7.271   9.188   3.321 -0.1270  0.0381  0.3022
20923SOL    HW166174   7.238   9.277   3.307 -0.4777  0.0146  0.9243
20923SOL    HW266175   7.192   9.137   3.339  0.0653 -0.4250 -0.1769
20924SOL     OW66176   4.070   3.452   9.474  0.1658  0.2045 -0.1692
20924SOL    HW166177   4.056   3.521   9.409  1.0010  0.4221 -0.1326
20924SOL    HW266178   3.984   3.437   9.512 -0.3232  0.1338 -1.2674
20925SOL     OW66179   1.459   1.480  10.193 -0.2805  0.3245 -0.4661
20925SOL    HW166180   1.528   1.531  10.236  0.4008 -1.0820  0.1414
20925SOL    HW266181   1.506   1.423  10.132 -1.0684  0.7408 -1.4539
20926SOL     OW66182   4.810   8.376   3.049  0.2419  0.0477  0.0772
20926SOL    HW166183   4.797   8.303   3.110 -2.0789  1.8682  1.8715
20926SOL    HW266184   4.849   8.336   2.971 -1.2061 -3.1351  0.8983
20927SOL     OW66185   5.699   0.537   4.983 -0.0272 -0.2637  0.3321
20927SOL    HW166186   5.642   0.535   5.060  0.3166  0.5063  0.6171
20927SOL    HW266187   5.647   0.581   4.916  0.5433  1.2765  0.8695
20928SOL     OW66188  10.087   8.959   6.646  0.2588 -0.7634  0.1015
20928SOL    HW166189  10.028   8.918   6.584 -0.0380 -1.5057  0.8678
20928SOL    HW266190  10.143   8.888   6.677 -0.4209 -0.6527  1.6235
20929SOL     OW66191   5.340   7.714   1.002  0.3618  0.7131 -0.7419
20929SOL    HW166192   5.413   7.765   1.039  1.0368  0.3860 -1.6189
20929SOL    HW266193   5.275   7.780   0.978  1.0301  1.1306 -1.4311
20930SOL     OW66194   6.374   2.296   2.849 -0.9181  0.4104  0.8983
20930SOL    HW166195   6.315   2.370   2.834 -0.2784  0.5257 -1.2685
20930SOL    HW266196   6.334   2.247   2.921 -2.8433  1.3439  0.5023
20931SOL     OW66197   2.477   5.220   4.240  0.7026  0.1375 -0.5517
20931SOL    HW166198   2.535   5.147   4.218  0.3267 -0.5444  0.6610
20931SOL    HW266199   2.513   5.255   4.321 -0.2371  0.0914 -0.1181
20932SOL     OW66200   0.909   6.545   6.067 -0.2837 -0.1711 -0.2117
20932SOL    HW166201   0.979   6.569   6.128  1.5427 -0.4825 -2.1370
20932SOL    HW266202   0.875   6.462   6.101  1.7213 -1.1086 -0.4250
20933SOL     OW66203   4.830   8.948   1.257 -0.0885 -0.0490 -0.0165
20933SOL    HW166204   4.841   8.854   1.243 -0.4941 -0.1228  0.1314
20933SOL    HW266205   4.866   8.964   1.344  1.5068  0.2325 -0.7059
20934SOL     OW66206   9.076   0.221   9.087 -0.7342  0.2992 -0.2996
20934SOL    HW166207   9.027   0.289   9.134 -0.2070 -0.3530  1.2321
20934SOL    HW266208   9.009   0.171   9.041 -1.2587  1.0146 -0.3241
20935SOL     OW66209   6.759   0.013   0.118  0.1232 -0.0027 -0.5408
20935SOL    HW166210   6.817  -0.063   0.110 -0.4055 -0.4677 -0.0071
20935SOL    HW266211   6.721   0.005   0.206  1.6721  2.0396  0.3575
20936SOL     OW66212   4.648   4.608   8.681 -0.6905 -0.1098  0.0075
20936SOL    HW166213   4.610   4.537   8.733  0.6449 -0.8222  0.0298
20936SOL    HW266214   4.732   4.574   8.652 -1.1752  0.4804 -2.1897
20937SOL     OW66215   2.593   0.307   3.002 -0.1782  0.6751 -0.3685
20937SOL    HW166216   2.575   0.381   3.060  4.6258  2.5038 -1.0065
20937SOL    HW266217   2.595   0.231   3.060  1.7825  2.0844  1.4929
20938SOL     OW66218   3.566   5.291   9.564  0.4269 -0.3726  0.2998
20938SOL    HW166219   3.654   5.282   9.601 -0.1362  0.7211  1.9934
20938SOL    HW266220   3.533   5.201   9.559  1.8339 -0.8446 -0.8978
20939SOL     OW66221   0.496   0.591   2.772  0.2943  0.6804 -0.1199
20939SOL    HW166222   0.524   0.503   2.746 -0.9326 -0.2279  1.5285
20939SOL    HW266223   0.563   0.622   2.833  0.5017  0.7100 -0.3639
20940SOL     OW66224   6.723   3.333   9.786 -0.2486 -0.2646  0.2593
20940SOL    HW166225   6.674   3.274   9.844 -1.5516 -0.7966 -1.3683
20940SOL    HW266226   6.805   3.287   9.770 -1.1311 -1.5191 -0.7537
20941SOL     OW66227  10.977   8.938   1.859  0.4243 -0.0916  0.3199
20941SOL    HW166228  10.945   8.872   1.797 -1.3049 -0.5099  1.6286
20941SOL    HW266229  11.042   8.892   1.912  0.7101 -0.1808 -0.1067
20942SOL     OW66230   4.215   4.906   8.931 -0.2152  0.3312  0.0713
20942SOL    HW166231   4.159   4.976   8.898  0.0335  1.1090  1.2898
20942SOL    HW266232   4.223   4.845   8.857 -1.0316  1.2074 -0.7509
20943SOL     OW66233   4.359   6.077   0.087 -0.1368  0.3234 -0.8190
20943SOL    HW166234   4.321   6.124   0.161  1.9883  0.8740 -0.0449
20943SOL    HW266235   4.310   6.109   0.011 -1.9741  0.1534  0.2581
20944SOL     OW66236   1.396   0.748   8.733 -0.2045  0.1322 -0.3385
20944SOL    HW166237   1.417   0.655   8.729  0.3726  0.2125  0.6715
20944SOL    HW266238   1.313   0.753   8.779  0.2778  0.1834  0.5328
20945SOL     OW66239   8.890   5.085  10.509  0.3094  0.1673  0.1458
20945SOL    HW166240   8.833   5.091  10.586  0.1060 -0.5866  0.0564
20945SOL    HW266241   8.905   4.991  10.498  0.3984  0.2760 -0.6949
20946SOL     OW66242   5.673   1.171   8.465  0.0892 -0.2355  0.2379
20946SOL    HW166243   5.740   1.104   8.478  0.1554 -0.0288  0.9934
20946SOL    HW266244   5.707   1.249   8.509 -0.7530 -0.1995  0.8397
20947SOL     OW66245   4.962   5.055  10.800 -0.4720 -0.2777  0.5616
20947SOL    HW166246   4.870   5.039  10.783 -0.4260  2.3069 -2.5135
20947SOL    HW266247   4.963   5.108  10.880 -1.8821  1.8710 -0.7805
20948SOL     OW66248   2.132   8.435   9.620 -0.1019 -0.5198 -0.6281
20948SOL    HW166249   2.160   8.344   9.631  0.2420 -0.5096 -1.3774
20948SOL    HW266250   2.189   8.485   9.678 -0.4043 -0.7961 -0.0859
20949SOL     OW66251   8.765   6.227   6.065  0.4755 -0.2357  0.4803
20949SOL    HW166252   8.745   6.245   5.973  0.7362  0.6318  0.5896
20949SOL    HW266253   8.732   6.139   6.079  1.7078 -0.9402 -0.8377
20950SOL     OW66254   4.561   5.902   6.119  0.3565  0.1004 -1.0234
20950SOL    HW166255   4.555   5.981   6.067 -2.4798 -0.7221 -2.0324
20950SOL    HW266256   4.498   5.842   6.079  0.7800 -1.8320  1.1075
20951SOL     OW66257   1.115  10.815   7.768  0.2388 -0.1571  0.0010
20951SOL    HW166258   1.073  10.744   7.817  0.1397 -0.3891 -0.4132
20951SOL    HW266259   1.041  10.867   7.734  0.3087  1.5847  2.3550
20952SOL     OW66260   2.790  10.364  10.256  0.2901  0.0045  0.1973
20952SOL    HW166261   2.699  10.344  10.275  0.8109 -1.1211  1.6480
20952SOL    HW266262   2.797  10.459  10.268 -0.4420 -0.0572  1.1819
20953SOL     OW66263   8.936   5.219   7.033  0.2266  0.4040 -0.1638
20953SOL    HW166264   9.022   5.229   7.073  0.0039  1.2855  0.0874
20953SOL    HW266265   8.875   5.264   7.092 -0.7716 -2.2518  0.9253
20954SOL     OW66266   1.250   5.473   1.222 -0.3462  0.0006 -0.1903
20954SOL    HW166267   1.174   5.418   1.239 -1.5329  2.0002  1.1220
20954SOL    HW266268   1.235   5.508   1.134 -0.9294  0.3597  0.0514
20955SOL     OW66269   2.033   5.922   0.492  0.3772  0.4090 -0.2808
20955SOL    HW166270   2.070   5.906   0.405  0.8759 -1.5949  0.2696
20955SOL    HW266271   1.952   5.871   0.492  0.6592 -0.0374  0.6200
20956SOL     OW66272   2.890   8.925   1.259  0.0491 -0.1447  0.3887
20956SOL    HW166273   2.924   8.910   1.347 -0.1274 -2.1443  0.1401
20956SOL    HW266274   2.969   8.931   1.204  0.1348  0.2569  0.5548
20957SOL     OW66275   0.582   1.110   6.688  0.0693 -0.2188 -0.3774
20957SOL    HW166276   0.532   1.068   6.618  0.0555  1.7323 -1.6014
20957SOL    HW266277   0.644   1.166   6.641 -0.3625  1.5949  1.1791
20958SOL     OW66278   2.270   0.342  10.885  0.3468 -0.1341  0.6250
20958SOL    HW166279   2.325   0.283  10.833  0.4181 -1.8902  2.6369
20958SOL    HW266280   2.253   0.294  10.966 -3.9818  0.4196  0.1780
20959SOL     OW66281   0.049   7.328   3.962 -0.1357  0.1354  0.4793
20959SOL    HW166282   0.053   7.247   3.912 -0.7523  1.7815 -2.3039
20959SOL    HW266283  -0.034   7.322   4.011  0.0784 -1.1123  0.6990
20960SOL     OW66284   3.210   6.056   6.070 -0.5543  0.1509  0.0125
20960SOL    HW166285   3.166   5.979   6.032 -0.2553 -0.2404  0.4494
20960SOL    HW266286   3.300   6.049   6.040 -0.6886  0.7308 -0.5414
20961SOL     OW66287   8.195   0.990   2.733  0.1449 -0.1564 -0.4042
20961SOL    HW166288   8.183   0.919   2.670 -0.0397 -0.4749 -0.0033
20961SOL    HW266289   8.166   1.069   2.686  1.8211 -0.1049 -1.4057
20962SOL     OW66290   2.014   8.609   3.013 -0.0270 -0.2746  0.1251
20962SOL    HW166291   2.088   8.576   3.064 -0.8508 -0.2547  1.3522
20962SOL    HW266292   1.977   8.679   3.067  0.9385  1.8617 -1.8969
20963SOL     OW66293   3.676   5.206   7.524 -0.8896 -0.5666 -0.0712
20963SOL    HW166294   3.697   5.253   7.605 -0.3507  1.5179 -1.3677
20963SOL    HW266295   3.715   5.119   7.536  0.2410  0.1207  1.4225
20964SOL     OW66296   3.170   1.199  10.911  0.0630 -0.4342  0.2184
20964SOL    HW166297   3.157   1.270  10.848  0.9741 -0.2566  0.2233
20964SOL    HW266298   3.177   1.243  10.995 -0.3873 -0.6104  0.3476
20965SOL     OW66299   5.751   1.742   1.037  0.2143  0.3505  0.0995
20965SOL    HW166300   5.685   1.700   1.092 -0.4139 -0.4995 -1.2814
20965SOL    HW266301   5.809   1.787   1.099 -1.6615  1.1315  1.3225
20966SOL     OW66302   9.897   9.941   3.075 -0.0286 -0.6543 -0.1561
20966SOL    HW166303   9.816   9.919   3.028 -0.8436  0.3659  0.7355
20966SOL    HW266304   9.886   9.901   3.161  0.1702 -0.0622  0.1483
20967SOL     OW66305   6.291   6.241   2.930  0.2528  0.3924 -0.2902
20967SOL    HW166306   6.195   6.240   2.924  0.3140  0.3744 -1.3362
20967SOL    HW266307   6.321   6.223   2.841  1.2324  1.1295 -0.1201
20968SOL     OW66308   5.173   5.530   5.234 -0.1281 -0.6850 -0.1612
20968SOL    HW166309   5.255   5.522   5.185 -0.8854  1.0560 -1.7815
20968SOL    HW266310   5.104   5.509   5.170 -1.1394  1.7039  0.0971
20969SOL     OW66311  10.290  10.797   7.490 -0.3052  0.4192  0.1719
20969SOL    HW166312  10.357  10.859   7.460 -0.0768 -0.9123 -2.1317
20969SOL    HW266313  10.230  10.789   7.417 -0.5720 -1.7586  0.5879
20970SOL     OW66314   5.603   6.195   0.047 -0.7065  0.3104 -0.2223
20970SOL    HW166315   5.519   6.181   0.090  0.2041  0.9318  1.8321
20970SOL    HW266316   5.645   6.108   0.048 -0.8478  0.2424 -0.2015
20971SOL     OW66317   6.707   6.393   3.771  0.1665  0.2809  0.5941
20971SOL    HW166318   6.719   6.410   3.865 -2.4736  0.0039  1.0074
20971SOL    HW266319   6.649   6.463   3.741  1.9214  1.0636 -1.1401
20972SOL     OW66320   2.902   5.860   0.325  0.1929 -0.2376 -0.0315
20972SOL    HW166321   2.946   5.917   0.388  0.6486 -0.0035 -0.5636
20972SOL    HW266322   2.920   5.771   0.356  0.2995 -0.1197  0.2428
20973SOL     OW66323   0.263   8.183   5.073 -0.0071 -0.1384  0.1598
20973SOL    HW166324   0.303   8.254   5.124 -1.3582  1.3588 -0.8002
20973SOL    HW266325   0.227   8.123   5.139  0.1600  0.6509  0.9805
20974SOL     OW66326  10.362   9.097   6.118 -0.1026  0.3657  0.1090
20974SOL    HW166327  10.390   9.106   6.027  1.0426  3.1400  0.6962
20974SOL    HW266328  10.434   9.050   6.161 -0.1369  0.0429 -0.1901
20975SOL     OW66329  10.761   5.970   9.670  0.0662 -0.0380 -0.2622
20975SOL    HW166330  10.853   5.989   9.652  0.6206 -1.5807  0.8580
20975SOL    HW266331  10.750   5.878   9.645 -1.6063  0.5835 -1.9768
20976SOL     OW66332   8.361   1.136   1.302  0.1931 -0.0269  0.6506
20976SOL    HW166333   8.388   1.222   1.334 -1.2075  0.3631  0.8217
20976SOL    HW266334   8.410   1.124   1.221  1.4748  0.3025  1.3604
20977SOL     OW66335   2.813   7.563   3.837  0.0611 -0.4519 -0.1658
20977SOL    HW166336   2.756   7.623   3.885  1.7439  1.0177  0.0418
20977SOL    HW266337   2.901   7.584   3.867  0.6444 -3.6044  0.4967
20978SOL     OW66338   5.938   1.292   0.343  0.2008 -0.7056  0.3269
20978SOL    HW166339   6.004   1.223   0.341  2.4092  1.3707  0.8318
20978SOL    HW266340   5.961   1.350   0.271 -0.3469  0.7123  1.2766
20979SOL     OW66341   2.133   1.858   2.579 -0.0187 -0.1510  0.4699
20979SOL    HW166342   2.050   1.906   2.587 -0.4785 -0.8556 -0.0747
20979SOL    HW266343   2.108   1.773   2.543  0.9517 -0.3477  0.2616
20980SOL     OW66344   3.972   9.321  10.288  0.1830  0.1116  0.4469
20980SOL    HW166345   3.910   9.302  10.359 -0.9996  1.4323 -0.2224
20980SOL    HW266346   4.052   9.347  10.333 -0.6590  1.2630  1.3168
20981SOL     OW66347   2.860   2.586   3.140  0.7282  0.6801  0.3542
20981SOL    HW166348   2.869   2.676   3.109  1.6778  0.2813 -0.5210
20981SOL    HW266349   2.851   2.534   3.061  0.6458 -0.0609  0.8449
20982SOL     OW66350   6.288   3.602   7.575  0.1014  0.1574 -0.0694
20982SOL    HW166351   6.216   3.615   7.636 -0.0795  0.7858 -0.4187
20982SOL    HW266352   6.359   3.657   7.610  0.1419  0.1792 -0.1877
20983SOL     OW66353   2.045   4.655   6.135 -0.0409  0.4156 -0.2987
20983SOL    HW166354   2.002   4.715   6.196 -0.6214  2.0620 -2.2563
20983SOL    HW266355   2.113   4.709   6.093  0.8576 -0.8960 -0.5398
20984SOL     OW66356   7.349   3.577  10.183  0.0765 -0.1034 -0.4473
20984SOL    HW166357   7.324   3.498  10.135  0.3384  0.0092 -0.7688
20984SOL    HW266358   7.282   3.586  10.251  0.3185 -0.8683 -0.1066
20985SOL     OW66359   3.513   6.189   9.123  0.3683 -0.1815  0.3879
20985SOL    HW166360   3.537   6.146   9.205  0.2067 -0.0775  0.4910
20985SOL    HW266361   3.525   6.282   9.141  0.8186 -0.1871  0.1333
20986SOL     OW66362   8.927   9.341   7.551  0.4849 -0.2532 -0.6586
20986SOL    HW166363   8.941   9.420   7.500 -2.6808  0.2331 -0.8962
20986SOL    HW266364   8.840   9.310   7.524 -0.8072 -0.6107  3.4977
20987SOL     OW66365   5.098   2.940   5.548 -0.2617  0.1810 -0.3276
20987SOL    HW166366   5.126   2.898   5.466 -1.3094 -1.4306  0.1139
20987SOL    HW266367   5.049   3.017   5.520 -1.9839 -1.2240 -1.2820
20988SOL     OW66368   9.581   4.129   6.103  0.1359  0.3735 -0.3847
20988SOL    HW166369   9.600   4.219   6.079 -0.0137  0.5261  0.0607
20988SOL    HW266370   9.496   4.110   6.063 -0.2217  0.7016  0.2151
20989SOL     OW66371   1.066  10.007   7.146  0.1920  0.0416  0.2798
20989SOL    HW166372   1.032   9.993   7.235 -1.1819  0.5128 -0.1470
20989SOL    HW266373   1.008  10.073   7.109  1.3335  0.5294 -0.6525
20990SOL     OW66374  10.034  10.437   9.468  0.1991  0.4434 -0.0333
20990SOL    HW166375  10.097  10.489   9.519 -0.6221  1.0678  0.3611
20990SOL    HW266376  10.064  10.446   9.378  1.4668 -0.3829  0.2819
20991SOL     OW66377   8.480   7.449   8.762  0.6558  0.0506  0.2456
20991SOL    HW166378   8.562   7.499   8.760  0.6447  0.0639  0.1486
20991SOL    HW266379   8.459   7.441   8.855  1.1402 -0.5527  0.3079
20992SOL     OW66380   3.438   4.197   9.271 -0.6281  0.2046 -0.0371
20992SOL    HW166381   3.441   4.163   9.361 -1.9105 -0.2518 -0.1529
20992SOL    HW266382   3.358   4.249   9.268 -1.5663 -1.3077 -1.4468
20993SOL     OW66383   9.239  10.072   5.819  0.2281 -0.2792  0.0300
20993SOL    HW166384   9.213  10.011   5.750  1.0655 -0.4182 -0.1710
20993SOL    HW266385   9.329  10.047   5.840  0.2433  0.2708  0.6237
20994SOL     OW66386   2.579   4.597   1.935  0.1912  0.7415  0.4241
20994SOL    HW166387   2.623   4.635   2.011  0.7548  0.0800  0.4322
20994SOL    HW266388   2.641   4.533   1.900 -0.3408  0.5457 -0.1863
20995SOL     OW66389   8.859   5.336   8.887  0.7342  0.1844 -0.0750
20995SOL    HW166390   8.908   5.293   8.817  1.8602  0.5152  0.4956
20995SOL    HW266391   8.768   5.337   8.856  0.8874 -1.5143 -0.6107
20996SOL     OW66392   5.165   9.373   1.623  0.9008  0.3772  0.5337
20996SOL    HW166393   5.257   9.358   1.603  0.7453 -0.3339  0.3330
20996SOL    HW266394   5.157   9.468   1.630  1.5749  0.4593  0.2034
20997SOL     OW66395   8.910   9.704   8.563 -0.4219 -0.0702 -0.2268
20997SOL    HW166396   8.841   9.764   8.535  0.0687  0.2114 -0.8375
20997SOL    HW266397   8.873   9.617   8.550 -1.1211  0.0992  0.6271
20998SOL     OW66398  10.710   6.929   5.514 -0.0396 -0.8632  0.0947
20998SOL    HW166399  10.789   6.951   5.564 -0.0373  0.5609 -0.4980
20998SOL    HW266400  10.640   6.978   5.558 -0.6410 -2.3132  0.7653
20999SOL     OW66401   5.434   0.921   0.511 -0.2235 -0.6734  0.4055
20999SOL    HW166402   5.422   0.912   0.606  0.3039  0.3402  0.5823
20999SOL    HW266403   5.529   0.930   0.501 -0.5564  3.6228  0.2124
21000SOL     OW66404   2.020   0.304   6.608  0.3847  0.0958 -0.1701
21000SOL    HW166405   1.996   0.376   6.550  1.1430  1.2413  0.8981
21000SOL    HW266406   2.091   0.259   6.562 -0.1807 -0.0415 -0.9039
21001SOL     OW66407  10.505   2.257   9.989  0.0223  0.1659 -0.1559
21001SOL    HW166408  10.413   2.234   9.976  0.5218 -1.1889 -1.5358
21001SOL    HW266409  10.515   2.268  10.083 -1.2523 -1.0226  0.1258
21002SOL     OW66410   1.695   0.947   9.109  0.2880 -0.0058 -0.4094
21002SOL    HW166411   1.623   0.901   9.067  0.2609 -0.4182  0.0832
21002SOL    HW266412   1.687   0.926   9.202 -0.5167  2.0737  0.0226
21003SOL     OW66413   0.272   4.313   8.879 -0.1452 -0.3772  0.3440
21003SOL    HW166414   0.178   4.306   8.858 -0.1197  0.2543  0.0072
21003SOL    HW266415   0.311   4.234   8.840 -0.2250  0.3948 -1.3269
21004SOL     OW66416   0.931   9.582   8.194 -0.2668 -0.1216 -0.0927
21004SOL    HW166417   0.924   9.655   8.255 -0.6371 -0.7183  0.5937
21004SOL    HW266418   0.857   9.593   8.135 -1.6349 -1.1627  1.3764
21005SOL     OW66419   4.047   8.177   3.689 -0.0459 -0.3684 -0.5221
21005SOL    HW166420   3.979   8.144   3.630  0.5560  1.1299 -2.0718
21005SOL    HW266421   4.021   8.143   3.775 -1.8823 -1.1422 -1.3359
21006SOL     OW66422   1.735   9.897   3.949  0.3949 -0.3546 -0.1391
21006SOL    HW166423   1.652   9.904   3.903  0.6030 -0.9707 -0.6096
21006SOL    HW266424   1.746   9.803   3.965  0.4409 -0.1728  0.9542
21007SOL     OW66425   6.808   2.305   4.231 -0.1641 -0.2550  0.2684
21007SOL    HW166426   6.808   2.395   4.199 -0.4630 -0.2450  0.2989
21007SOL    HW266427   6.767   2.310   4.317 -2.1062 -0.7428 -0.6117
21008SOL     OW66428   7.207   8.697   3.674  0.2227 -0.3387  0.0293
21008SOL    HW166429   7.139   8.721   3.611  0.6906 -2.1150 -1.1752
21008SOL    HW266430   7.164   8.631   3.730  0.6967 -0.8761 -0.2374
21009SOL     OW66431   9.026  10.411   4.196 -0.2643 -0.0549  0.3943
21009SOL    HW166432   9.041  10.504   4.180  0.7730 -0.1029  1.0260
21009SOL    HW266433   9.014  10.405   4.291 -1.7964 -0.3763  0.1922
21010SOL     OW66434   1.026   5.803   0.657 -0.2339  0.7613  0.0803
21010SOL    HW166435   1.118   5.822   0.638 -0.4378  1.4839 -0.2163
21010SOL    HW266436   1.015   5.830   0.749 -0.4384  1.8117 -0.2397
21011SOL     OW66437  10.813   4.010  10.943  0.2118 -0.1824  0.6961
21011SOL    HW166438  10.767   3.930  10.969  1.6557 -1.3384 -0.2307
21011SOL    HW266439  10.862   4.036  11.021  2.3003 -2.0567  0.0671
21012SOL     OW66440   2.736   2.071   3.710 -0.6122 -0.0300 -0.1522
21012SOL    HW166441   2.681   1.997   3.735 -0.0161  0.0493  1.5056
21012SOL    HW266442   2.746   2.063   3.615  0.5913 -2.9009  0.1561
21013SOL     OW66443   4.740   2.276   8.984 -0.3198 -0.1077  1.0040
21013SOL    HW166444   4.815   2.305   8.932 -0.4343 -0.5622  0.5811
21013SOL    HW266445   4.772   2.202   9.034 -0.0644  0.6580  1.9841
21014SOL     OW66446   5.654   7.226   9.673  0.2851  0.0312 -0.5211
21014SOL    HW166447   5.668   7.225   9.767  0.3257  1.7020 -0.4976
21014SOL    HW266448   5.714   7.293   9.640  0.1897 -0.4499 -1.7288
21015SOL     OW66449   2.458   2.226   3.503 -0.5028 -0.4349 -0.6437
21015SOL    HW166450   2.467   2.264   3.590 -0.8895  0.1131 -0.8442
21015SOL    HW266451   2.374   2.181   3.504 -0.7907  0.0902 -0.9300
21016SOL     OW66452   1.589   2.686  10.530  0.1459  0.6542  0.3498
21016SOL    HW166453   1.604   2.593  10.549  0.7107  0.6058 -0.3242
21016SOL    HW266454   1.498   2.691  10.503  0.2218  0.2289  0.0089
21017SOL     OW66455   9.058   0.666   9.945  0.3270  0.7940 -0.0871
21017SOL    HW166456   9.002   0.660   9.868  0.0950  0.1991  0.1221
21017SOL    HW266457   9.047   0.755   9.976 -0.3550  0.7347 -0.1542
21018SOL     OW66458   0.912   8.632  10.593  0.0716 -0.1918 -0.1077
21018SOL    HW166459   0.949   8.674  10.516 -1.8282  0.5535 -0.6469
21018SOL    HW266460   0.933   8.539  10.582  1.9732  0.2386 -0.2463
21019SOL     OW66461   7.241   3.850   5.197 -0.5700 -0.4411  0.2594
21019SOL    HW166462   7.166   3.793   5.178 -0.1546 -0.9815  0.2224
21019SOL    HW266463   7.317   3.791   5.197  0.1288  0.4140 -1.6907
21020SOL     OW66464   6.038   2.941   6.848  0.4259  0.1232 -0.4610
21020SOL    HW166465   5.988   2.917   6.769  1.8407 -3.1390 -0.4446
21020SOL    HW266466   6.128   2.914   6.828  0.9177 -0.1211  1.9962
21021SOL     OW66467   2.077   6.066   3.678  0.1149  0.2837 -0.4816
21021SOL    HW166468   1.988   6.078   3.644  0.2432  0.2423 -0.8320
21021SOL    HW266469   2.131   6.121   3.622  0.4479 -0.4640 -0.8920
21022SOL     OW66470   3.602   3.662   2.961  0.5997  0.4751 -0.1155
21022SOL    HW166471   3.514   3.637   2.933  1.1038 -0.7306 -0.6447
21022SOL    HW266472   3.625   3.736   2.905 -0.6112  1.7219  0.9684
21023SOL     OW66473   5.478   3.820   4.294  0.2512  0.1418 -0.1053
21023SOL    HW166474   5.441   3.734   4.273 -1.4839  1.2451 -1.7559
21023SOL    HW266475   5.438   3.879   4.230 -0.6757  2.6647  2.7142
21024SOL     OW66476   9.539   8.715   4.686  0.1402 -0.2359 -0.3356
21024SOL    HW166477   9.522   8.807   4.671  0.7343 -0.3675 -1.9046
21024SOL    HW266478   9.490   8.694   4.766 -3.5032  0.4114 -2.2681
21025SOL     OW66479   1.220  10.286   4.558 -0.1816  0.3493  0.0674
21025SOL    HW166480   1.268  10.203   4.559  0.5688  0.7794  0.9108
21025SOL    HW266481   1.250  10.330   4.478 -0.0179  0.1156  0.0010
21026SOL     OW66482   5.772   2.860   0.890 -0.6713  0.0865  0.6512
21026SOL    HW166483   5.763   2.908   0.972  0.5713 -0.5636  1.1875
21026SOL    HW266484   5.832   2.788   0.911  1.2357  1.0346 -1.2919
21027SOL     OW66485   1.214   8.510   6.377  0.6386  0.3670 -0.6975
21027SOL    HW166486   1.118   8.513   6.380  0.6151  0.3661 -1.4090
21027SOL    HW266487   1.239   8.456   6.452  0.0699  0.1590 -0.6600
21028SOL     OW66488   2.496   6.808   7.945 -0.0539  0.2716  0.5666
21028SOL    HW166489   2.535   6.881   7.895  0.4370 -0.2611  0.1624
21028SOL    HW266490   2.447   6.851   8.015  2.1844  0.9395  1.7758
21029SOL     OW66491   3.669   1.552   0.595  0.1091  0.3100  0.6648
21029SOL    HW166492   3.736   1.517   0.654  0.7786  1.0526  0.3633
21029SOL    HW266493   3.608   1.597   0.652 -1.2432 -2.0679  1.1448
21030SOL     OW66494   6.560   3.565   8.825 -0.2897  0.2632 -0.3947
21030SOL    HW166495   6.506   3.547   8.748  3.1210  1.3959 -3.1793
21030SOL    HW266496   6.638   3.510   8.813 -0.0147 -0.1467  2.7059
21031SOL     OW66497   5.300   5.590   4.914  0.1562  0.1864  0.2007
21031SOL    HW166498   5.357   5.570   4.989  0.0575 -0.4358  0.1128
21031SOL    HW266499   5.355   5.573   4.838  0.0572  0.2039  0.1257
21032SOL     OW66500   0.227   0.799   7.974  0.1216 -0.1419 -0.2610
21032SOL    HW166501   0.228   0.806   7.878  0.2010  1.0001 -0.1909
21032SOL    HW266502   0.135   0.808   7.998 -0.0140 -1.4118 -0.2861
21033SOL     OW66503  10.228   0.993   3.472 -0.0766 -0.0591 -0.5498
21033SOL    HW166504  10.200   0.996   3.564  0.1517  0.5916 -0.4983
21033SOL    HW266505  10.295   0.924   3.470  0.2262  0.2166 -0.1355
21034SOL     OW66506   1.242   3.582  10.111 -0.2211  0.0372 -0.5866
21034SOL    HW166507   1.254   3.558  10.019  0.3877 -0.7957 -0.3047
21034SOL    HW266508   1.234   3.498  10.157 -2.4197  0.4883 -0.1159
21035SOL     OW66509   2.845  10.676   3.289 -0.1063 -0.2999  0.0329
21035SOL    HW166510   2.751  10.657   3.290 -0.5421  1.6633 -0.8173
21035SOL    HW266511   2.871  10.662   3.198 -0.0946  1.4402 -0.2484
21036SOL     OW66512   2.829   2.700   0.539 -0.5006  0.2702  0.0540
21036SOL    HW166513   2.895   2.723   0.473 -0.4302 -1.6298 -0.5711
21036SOL    HW266514   2.879   2.681   0.617 -0.3609 -0.2910 -0.1683
21037SOL     OW66515   1.658   7.739   4.658 -0.4003  0.4425  0.1124
21037SOL    HW166516   1.644   7.752   4.752 -0.7058  0.2244  0.0943
21037SOL    HW266517   1.628   7.650   4.640 -1.8216  1.0264 -0.4875
21038SOL     OW66518   2.567   6.983   0.378 -0.1517 -0.0136 -0.3469
21038SOL    HW166519   2.553   7.060   0.432 -2.5839  0.8430 -2.1009
21038SOL    HW266520   2.549   6.909   0.436 -1.8022  0.8636  0.2926
21039SOL     OW66521   1.657   9.980   4.186  0.0058  0.1107  0.4806
21039SOL    HW166522   1.620   9.901   4.224  0.2776  1.0263  2.7174
21039SOL    HW266523   1.708   9.948   4.111 -0.2391 -1.7765  1.0826
21040SOL     OW66524   4.447   3.796   6.331  0.3697 -0.8422 -0.4908
21040SOL    HW166525   4.470   3.811   6.423  1.6802  1.4270 -1.1596
21040SOL    HW266526   4.361   3.835   6.320  0.8656  0.2185 -0.5947
21041SOL     OW66527   7.616   9.981   7.523  0.2124  0.1374 -0.1035
21041SOL    HW166528   7.661  10.056   7.483  0.6665 -0.2389 -0.2950
21041SOL    HW266529   7.653   9.975   7.611 -2.0739  2.0928  1.0590
21042SOL     OW66530   1.146   6.353   0.706 -0.7813  0.1426  0.1213
21042SOL    HW166531   1.079   6.289   0.732 -0.0940 -0.5079  0.3012
21042SOL    HW266532   1.103   6.438   0.718 -1.5025 -0.2572  0.4443
21043SOL     OW66533   9.104   0.033   2.851 -0.3577 -0.3552 -0.0491
21043SOL    HW166534   9.175   0.042   2.915 -1.3709  0.9004  0.9173
21043SOL    HW266535   9.124   0.098   2.784 -1.4687  1.1702  1.0695
21044SOL     OW66536  10.714   4.224   9.190 -0.2394 -0.2852 -0.0071
21044SOL    HW166537  10.652   4.192   9.255  0.8735 -0.5323  0.9443
21044SOL    HW266538  10.744   4.308   9.225  1.1365 -0.9040  0.3034
21045SOL     OW66539   7.197   2.045   7.856  0.2441  0.6031  0.2741
21045SOL    HW166540   7.224   2.008   7.772  0.6004 -1.0370  1.0750
21045SOL    HW266541   7.157   2.129   7.835  0.1037  0.0863 -1.5497
21046SOL     OW66542   9.806   8.343   6.478 -0.1380  0.6989 -0.1871
21046SOL    HW166543   9.845   8.285   6.413 -0.6061 -2.2750  2.0612
21046SOL    HW266544   9.715   8.315   6.484 -0.2404  1.2758  1.3139
21047SOL     OW66545   6.322   2.385   8.919 -0.1698 -0.3440  0.2833
21047SOL    HW166546   6.310   2.411   9.010 -1.1578  1.0231 -0.2166
21047SOL    HW266547   6.400   2.432   8.890  0.7619 -1.6040  0.7208
21048SOL     OW66548   3.580   7.615   7.100 -0.2291 -0.2889 -0.2411
21048SOL    HW166549   3.489   7.589   7.086 -0.9020  1.8702 -0.0444
21048SOL    HW266550   3.583   7.645   7.191  0.9233 -1.2580  0.0572
21049SOL     OW66551   5.913   7.792   6.159 -0.0063 -0.4801 -0.8093
21049SOL    HW166552   5.891   7.803   6.067 -1.6352 -2.3444 -0.6685
21049SOL    HW266553   5.829   7.793   6.205  0.6657 -1.0380  0.4774
21050SOL     OW66554   9.598   6.921   1.457  0.4035  0.1069  0.1429
21050SOL    HW166555   9.506   6.941   1.444  0.3589  1.7015  2.5942
21050SOL    HW266556   9.627   6.883   1.374 -2.6642 -1.2849 -0.3264
21051SOL     OW66557   2.323   1.712   3.211 -0.1179 -0.4740 -0.0499
21051SOL    HW166558   2.405   1.673   3.180 -1.1117 -0.5980 -2.6163
21051SOL    HW266559   2.348   1.800   3.238  1.0123 -0.7649 -0.1166
21052SOL     OW66560   7.878  10.210   1.313  0.3050 -0.1218  0.1135
21052SOL    HW166561   7.925  10.199   1.395  0.0584  0.2022  0.2974
21052SOL    HW266562   7.909  10.137   1.258 -0.2871 -0.9388  0.8411
21053SOL     OW66563   1.101   1.815   9.122  0.5463 -0.1928  0.2157
21053SOL    HW166564   1.019   1.840   9.165  0.5261 -1.4451  0.9150
21053SOL    HW266565   1.116   1.884   9.057 -0.8081  0.2956  0.4121
21054SOL     OW66566   7.509  10.148   9.907 -0.2170 -0.0169  0.1968
21054SOL    HW166567   7.579  10.162   9.970 -0.4803 -0.7332  0.6474
21054SOL    HW266568   7.545  10.086   9.843 -0.7948 -1.1981  1.0073
21055SOL     OW66569   7.019   3.842   0.738 -0.0799  0.0975  0.4409
21055SOL    HW166570   6.931   3.878   0.746  0.4325  1.2494  1.1081
21055SOL    HW266571   7.006   3.747   0.732 -1.3972  0.3130 -0.2511
21056SOL     OW66572   0.843   9.685   5.896 -0.3767 -0.8510 -0.4836
21056SOL    HW166573   0.872   9.775   5.888  0.6140 -1.2583 -1.6653
21056SOL    HW266574   0.892   9.650   5.970  0.2187 -0.7912 -0.8476
21057SOL     OW66575  10.103   1.764   8.313 -0.2033 -0.8279  0.3016
21057SOL    HW166576  10.190   1.783   8.278 -0.9157  0.3329 -0.8664
21057SOL    HW266577  10.120   1.729   8.400  1.3953  0.3254  0.4831
21058SOL     OW66578   5.754   8.897   2.208  0.3162 -0.0380  0.2799
21058SOL    HW166579   5.776   8.942   2.126  3.3848  0.3793  1.2705
21058SOL    HW266580   5.675   8.941   2.239 -1.1672 -0.5005 -2.6472
21059SOL     OW66581   3.582   4.352  10.552 -0.3559 -0.2169  0.4513
21059SOL    HW166582   3.544   4.426  10.600 -2.0963 -1.4691  1.0236
21059SOL    HW266583   3.616   4.392  10.472 -0.2981  1.3830  1.2414
21060SOL     OW66584  10.020   3.504   1.431  0.1269  0.2984  0.2948
21060SOL    HW166585   9.991   3.574   1.490 -0.9876 -1.3783  1.7806
21060SOL    HW266586   9.941   3.454   1.413  0.8186 -0.2842 -1.1931
21061SOL     OW66587   0.773   4.014   9.307 -0.2340 -0.1589  0.3037
21061SOL    HW166588   0.837   4.056   9.365 -0.2196  0.4456 -0.1453
21061SOL    HW266589   0.796   4.045   9.220 -1.0566 -0.0355  0.1215
21062SOL     OW66590   3.754   0.005   2.188  0.1198 -0.2488  0.2449
21062SOL    HW166591   3.849  -0.001   2.202  0.0258 -0.4964  0.7938
21062SOL    HW266592   3.719   0.029   2.274 -0.4980 -2.1111  0.5472
21063SOL     OW66593   2.440   3.227   1.416 -0.1684 -0.3376 -0.4888
21063SOL    HW166594   2.531   3.197   1.422 -0.1743 -0.5084 -1.1660
21063SOL    HW266595   2.388   3.147   1.423 -0.2740 -0.2093  0.1632
21064SOL     OW66596   9.307   1.384   4.921  0.3927 -0.0914 -0.1866
21064SOL    HW166597   9.214   1.362   4.931  0.4282  0.1116  0.6284
21064SOL    HW266598   9.311   1.436   4.840 -0.3055  0.5053  0.1605
21065SOL     OW66599  10.637  10.508   7.778 -0.2243  0.2321  0.1487
21065SOL    HW166600  10.630  10.526   7.684 -0.6293 -0.0337  0.1279
21065SOL    HW266601  10.610  10.590   7.820 -1.7525 -0.2061  0.0500
21066SOL     OW66602   0.218   9.180   6.333  0.4363 -0.2909 -0.3025
21066SOL    HW166603   0.225   9.257   6.389 -2.0198 -0.6359  0.5274
21066SOL    HW266604   0.281   9.196   6.262  1.6241  1.3826  1.0939
21067SOL     OW66605   5.907   2.197   0.469  0.4795 -0.1893 -0.2525
21067SOL    HW166606   5.944   2.259   0.405  1.4551 -0.6701 -0.1660
21067SOL    HW266607   5.875   2.252   0.540  1.6804  0.2078 -0.0061
21068SOL     OW66608   4.500   1.035   0.357 -1.5952 -0.0995  0.0723
21068SOL    HW166609   4.471   0.951   0.324 -1.7012 -0.0689  0.0890
21068SOL    HW266610   4.483   1.031   0.452  1.0244 -1.1715  0.5553
21069SOL     OW66611   9.440   1.006   6.056  0.1258  0.0982 -0.2947
21069SOL    HW166612   9.440   1.062   5.978 -0.2477  0.9596  0.3093
21069SOL    HW266613   9.348   1.002   6.083 -0.1800 -2.6453 -1.6059
21070SOL     OW66614   4.207   7.893   8.326 -0.3529  0.5952 -0.0831
21070SOL    HW166615   4.207   7.952   8.402  1.4118  4.2165 -2.7277
21070SOL    HW266616   4.299   7.882   8.304 -0.7412 -2.2193 -0.4273
21071SOL     OW66617   2.455   6.086   6.600 -0.3464  0.0728 -0.5206
21071SOL    HW166618   2.504   6.033   6.662  0.2488  1.8270  0.5411
21071SOL    HW266619   2.366   6.087   6.634 -0.2631  0.1030 -0.2998
21072SOL     OW66620   5.371   0.559   1.230 -0.6953  0.5585 -0.1201
21072SOL    HW166621   5.440   0.575   1.294  0.9703 -0.8240 -1.5311
21072SOL    HW266622   5.363   0.641   1.181  1.5124  0.0120 -1.4197
21073SOL     OW66623   0.757   6.409   9.173  0.2555  0.2875  0.3685
21073SOL    HW166624   0.774   6.394   9.266  0.1703  1.8376  0.6405
21073SOL    HW266625   0.662   6.419   9.167  0.4440  2.3448  0.4533
21074SOL     OW66626  10.892   8.249   5.438  0.2479  0.0352 -0.5579
21074SOL    HW166627  10.821   8.297   5.481 -1.0253 -1.6777 -0.6935
21074SOL    HW266628  10.915   8.303   5.362  0.5853  1.6677  0.6751
21075SOL     OW66629   5.259   0.125   8.055  0.0588 -0.3596  0.0284
21075SOL    HW166630   5.222   0.087   8.135  0.6977 -1.8176 -0.3553
21075SOL    HW266631   5.339   0.169   8.084  1.0073 -2.0329  0.0093
21076SOL     OW66632   9.412   5.365   6.045  0.2396  0.5380  0.0499
21076SOL    HW166633   9.319   5.385   6.041  0.4604  1.8214  0.8041
21076SOL    HW266634   9.451   5.418   5.975  0.3764 -0.1787 -0.4215
21077SOL     OW66635   7.919   1.533   2.269 -0.2646 -0.7104  0.1392
21077SOL    HW166636   7.930   1.446   2.232 -3.1139 -0.8461 -0.4719
21077SOL    HW266637   7.825   1.547   2.271  0.0159  1.2040  2.9781
21078SOL     OW66638   8.856   3.430   5.403 -0.3821  0.1969 -0.1248
21078SOL    HW166639   8.882   3.432   5.311 -2.1893  0.5478 -0.6425
21078SOL    HW266640   8.872   3.519   5.435  2.0040 -0.4056  0.4175
21079SOL     OW66641  10.821   6.361   4.357  0.2422 -0.1561 -0.3100
21079SOL    HW166642  10.892   6.408   4.313 -0.3088  0.1596 -0.8567
21079SOL    HW266643  10.757   6.428   4.379  0.1407 -0.4323  0.2460
21080SOL     OW66644  10.565   9.947   7.183  0.4940  0.2860  0.0383
21080SOL    HW166645  10.561   9.982   7.094  0.8164 -0.3276 -0.2200
21080SOL    HW266646  10.656   9.961   7.210  0.8110 -0.9951 -0.3350
21081SOL     OW66647   9.759   8.697   3.981 -0.0846 -0.1601  0.0753
21081SOL    HW166648   9.789   8.742   4.061 -1.0111  2.4001 -0.9822
21081SOL    HW266649   9.697   8.757   3.941 -1.4173 -2.4315 -1.4057
21082SOL     OW66650   0.762   8.215   4.184 -0.0660 -0.0770  0.1262
21082SOL    HW166651   0.814   8.163   4.123  0.5475  0.2001  0.3999
21082SOL    HW266652   0.737   8.154   4.253  0.7461  0.0041  0.5049
21083SOL     OW66653   0.553  10.850   3.180  0.0159  0.2682 -0.0822
21083SOL    HW166654   0.622  10.787   3.203 -0.3452 -0.1145 -0.0309
21083SOL    HW266655   0.535  10.832   3.088  0.5691  0.9326 -0.3203
21084SOL     OW66656   0.791   1.351   0.179 -0.3156  0.9320 -0.1055
21084SOL    HW166657   0.860   1.406   0.142  1.2613 -0.2816  0.9729
21084SOL    HW266658   0.827   1.262   0.176 -1.1435  0.5069  2.0343
21085SOL     OW66659  10.081  10.572  10.401  0.3584 -0.3510 -0.3524
21085SOL    HW166660  10.069  10.658  10.441 -1.8142 -0.7233 -0.1265
21085SOL    HW266661  10.099  10.590  10.309 -0.5749  0.3488 -0.4022
21086SOL     OW66662  10.743   2.981   1.577 -0.3589  0.4860  0.2814
21086SOL    HW166663  10.723   2.888   1.577 -1.5799  0.7469  1.3120
21086SOL    HW266664  10.744   3.006   1.669  1.1123  1.2536  0.0719
21087SOL     OW66665  10.072   7.601   3.548  0.2560 -0.0837  0.0949
21087SOL    HW166666  10.128   7.613   3.471  1.5036 -1.5641  0.7297
21087SOL    HW266667  10.021   7.522   3.529  2.8162 -2.3280  1.9956
21088SOL     OW66668   4.031   2.122   4.345 -0.1678 -0.2073 -0.1741
21088SOL    HW166669   4.017   2.133   4.439  0.7311 -1.2856  0.0999
21088SOL    HW266670   4.079   2.200   4.319 -0.0186 -0.1155  0.3604
21089SOL     OW66671   6.013   0.247   4.674  0.3263 -0.0627  0.4017
21089SOL    HW166672   5.971   0.202   4.600  0.3654 -0.7234  0.7792
21089SOL    HW266673   5.987   0.196   4.751  1.0241  0.0945  0.7453
21090SOL     OW66674   2.882   2.027   0.476  0.3228  0.1516 -0.2122
21090SOL    HW166675   2.946   2.093   0.501  1.2342 -0.3408 -1.1867
21090SOL    HW266676   2.821   2.073   0.419  1.8527 -0.1771 -2.1704
21091SOL     OW66677   5.222   0.844   8.378  0.6713 -0.0281  0.3534
21091SOL    HW166678   5.316   0.825   8.380  0.2746 -2.0790  0.5159
21091SOL    HW266679   5.197   0.833   8.286  0.3857 -0.5760  0.4941
21092SOL     OW66680  10.291   8.580   0.034 -0.1445  0.2785 -0.2902
21092SOL    HW166681  10.288   8.601   0.127  0.2799  2.0848 -0.6582
21092SOL    HW266682  10.211   8.529   0.018 -0.6368  0.6574  0.8947
21093SOL     OW66683   4.041   4.645   6.022  0.4755  0.1881 -0.3622
21093SOL    HW166684   4.115   4.587   6.041 -0.4483 -1.0337 -0.4675
21093SOL    HW266685   3.964   4.594   6.044 -0.3377  1.6525  0.2477
21094SOL     OW66686   7.447   3.477  10.837  0.2066 -0.1807 -0.1958
21094SOL    HW166687   7.433   3.571  10.828 -1.5927 -0.6117 -2.3721
21094SOL    HW266688   7.531   3.461  10.795  1.2590  0.6755  1.5807
21095SOL     OW66689   1.662   9.440  10.624 -0.0760 -0.4338  0.0041
21095SOL    HW166690   1.755   9.418  10.637 -0.3184 -1.0543  0.7001
21095SOL    HW266691   1.647   9.514  10.683 -0.5147 -1.5865  1.3623
21096SOL     OW66692   7.120   1.284  10.046 -0.3483  0.1211  0.0697
21096SOL    HW166693   7.190   1.220  10.031 -0.2793 -0.1716  1.5970
21096SOL    HW266694   7.046   1.232  10.075 -0.8095  0.5785 -0.2784
21097SOL     OW66695   3.217   4.133   9.673  0.0720 -0.0667 -0.7516
21097SOL    HW166696   3.296   4.083   9.695 -0.4696 -0.3794  0.5557
21097SOL    HW266697   3.228   4.156   9.581  3.1787  2.6101  0.1951
21098SOL     OW66698   9.670   8.076   2.612  0.3889 -0.0709 -0.3328
21098SOL    HW166699   9.744   8.127   2.644  0.6660  0.1228 -1.2695
21098SOL    HW266700   9.672   7.995   2.664  3.3395 -1.5984 -2.6742
21099SOL     OW66701   4.177   9.413   1.405  0.1832 -0.3039 -0.4948
21099SOL    HW166702   4.191   9.426   1.499  0.2152  2.0366 -0.7747
21099SOL    HW266703   4.237   9.476   1.364  0.0539 -1.2050 -2.0801
21100SOL     OW66704   3.190   3.898   8.181  0.0365 -0.1505 -0.2052
21100SOL    HW166705   3.164   3.989   8.168  0.4727  0.0339  0.2226
21100SOL    HW266706   3.113   3.848   8.156 -0.3136  0.3506 -0.1388
21101SOL     OW66707   2.956   0.020   3.542  0.4231 -0.3982 -0.1485
21101SOL    HW166708   2.988   0.110   3.541 -0.9469  0.1071  0.1682
21101SOL    HW266709   2.896   0.016   3.616  0.7155 -1.6681  0.0401
21102SOL     OW66710   7.439   3.156   0.855  0.0066  0.2322  0.5314
21102SOL    HW166711   7.365   3.170   0.914 -1.1630 -1.6306 -0.4401
21102SOL    HW266712   7.408   3.190   0.771  0.7155  0.5468  0.3949
21103SOL     OW66713   3.549   6.821   5.373  0.0764  0.1614  0.8164
21103SOL    HW166714   3.583   6.808   5.461  0.9869  0.3257  0.4971
21103SOL    HW266715   3.467   6.868   5.385  0.5183  0.7508  1.5362
21104SOL     OW66716   8.299   5.195  10.533 -0.7246 -0.5631 -0.3374
21104SOL    HW166717   8.312   5.165  10.623 -3.0411 -1.6522 -0.3095
21104SOL    HW266718   8.351   5.135  10.480  1.2883  0.5728  0.2956
21105SOL     OW66719   8.999   0.916  10.964 -0.3430 -0.3909 -0.5195
21105SOL    HW166720   8.984   0.832  10.919  3.2885 -0.9976 -0.7365
21105SOL    HW266721   9.074   0.899  11.021  0.2048  2.6034 -0.2731
21106SOL     OW66722   5.412   7.348  10.935  0.7893 -0.4639  0.1117
21106SOL    HW166723   5.376   7.260  10.922 -0.9100 -0.1747  2.4675
21106SOL    HW266724   5.374   7.401  10.865 -0.4873 -0.9989  0.3809
21107SOL     OW66725   4.689   3.456   4.013  0.1610  0.1004 -0.1598
21107SOL    HW166726   4.598   3.479   4.030  0.2811 -0.0778  0.7375
21107SOL    HW266727   4.685   3.369   3.973  0.0283 -0.6606  1.4647
21108SOL     OW66728   2.124   5.973   7.047 -0.1796 -0.2062 -0.1184
21108SOL    HW166729   2.060   5.931   7.105  1.2404 -2.6579 -0.2616
21108SOL    HW266730   2.144   5.906   6.982  1.5601  0.9965 -0.8551
21109SOL     OW66731   0.720   0.168   7.612  0.4776  0.4824  0.5347
21109SOL    HW166732   0.736   0.180   7.519 -1.5878 -0.9825 -0.0326
21109SOL    HW266733   0.640   0.217   7.630 -0.1298 -0.7112  1.1582
21110SOL     OW66734   8.627   4.936   7.776  0.5643 -0.3424  0.3625
21110SOL    HW166735   8.689   4.891   7.720 -0.8083 -0.7762 -0.8204
21110SOL    HW266736   8.549   4.882   7.775 -0.6494  1.3579 -0.0350
21111SOL     OW66737   7.005   4.188   1.166 -0.2404 -0.0352  0.7070
21111SOL    HW166738   6.940   4.176   1.097  0.0425  1.5214  0.1523
21111SOL    HW266739   7.038   4.277   1.153  1.8922 -0.7402  1.0672
21112SOL     OW66740   4.939   7.026   7.787  0.0941  0.5166  0.4924
21112SOL    HW166741   4.907   7.051   7.701 -0.0799 -1.1576  0.0424
21112SOL    HW266742   4.860   7.011   7.839  0.1298 -1.5397  0.0023
21113SOL     OW66743   8.336   5.455   3.114 -0.5291 -0.2659 -0.6300
21113SOL    HW166744   8.403   5.499   3.061  0.1776  0.1068  0.5286
21113SOL    HW266745   8.314   5.376   3.066  0.4297 -0.1628 -1.2456
21114SOL     OW66746   7.936   1.336   7.665  0.1688  0.3581 -0.1259
21114SOL    HW166747   7.864   1.354   7.725 -0.0807  1.1358 -0.6498
21114SOL    HW266748   7.982   1.262   7.704 -0.4518  0.3585  0.6165
21115SOL     OW66749   1.733   5.146  10.758  0.1728  0.4253  0.2158
21115SOL    HW166750   1.786   5.145  10.679  0.5300  0.3835  0.4527
21115SOL    HW266751   1.788   5.189  10.824 -0.9504  2.4528 -0.1248
21116SOL     OW66752   2.236   0.470   9.433 -0.4423  0.1657  0.3970
21116SOL    HW166753   2.180   0.425   9.370 -0.8677  1.2748 -0.0427
21116SOL    HW266754   2.317   0.419   9.435  0.6637  1.6169 -3.1096
21117SOL     OW66755   4.516  10.905   4.754 -0.3987 -0.8042  0.6415
21117SOL    HW166756   4.536  10.922   4.662 -1.4319 -0.7117  0.4210
21117SOL    HW266757   4.510  10.991   4.794  2.0266 -0.9009  1.2491
21118SOL     OW66758   7.877   9.605   6.110  0.5147 -0.1890 -0.4455
21118SOL    HW166759   7.870   9.586   6.204  1.1946  1.3335 -0.0662
21118SOL    HW266760   7.959   9.653   6.102  1.0233 -1.3094 -2.0025
21119SOL     OW66761   7.091   0.556   5.944 -0.3294 -0.1723  0.0090
21119SOL    HW166762   7.037   0.535   6.021 -3.5802 -2.9592 -2.8472
21119SOL    HW266763   7.044   0.627   5.901  0.7561  0.4675 -0.1314
21120SOL     OW66764   4.746   3.293  10.863 -0.6686 -0.1303 -0.4215
21120SOL    HW166765   4.681   3.358  10.892  2.0894  1.4597  2.6048
21120SOL    HW266766   4.811   3.344  10.815 -0.2386 -1.2511 -1.0417
21121SOL     OW66767  10.173   9.633   3.004  0.1070 -0.3004  0.4151
21121SOL    HW166768  10.186   9.576   2.929  1.6627 -2.1357  2.0251
21121SOL    HW266769  10.101   9.593   3.053 -0.5520  0.5971  0.2115
21122SOL     OW66770  10.977   3.751   8.055  0.9457  0.6621 -0.0056
21122SOL    HW166771  10.907   3.809   8.027  0.1663  0.6276  1.7999
21122SOL    HW266772  11.032   3.740   7.977  0.0453  2.2604 -0.8933
21123SOL     OW66773   1.434   0.248   8.703 -0.1928 -0.7153 -0.1126
21123SOL    HW166774   1.458   0.185   8.635 -0.2846 -0.5049 -0.3372
21123SOL    HW266775   1.380   0.197   8.764 -1.3488 -0.5259 -0.9713
21124SOL     OW66776   9.842  10.298   7.341 -0.0605 -0.4073  1.2252
21124SOL    HW166777   9.840  10.207   7.371 -0.4736 -0.9367 -0.3437
21124SOL    HW266778   9.750  10.323   7.335  0.0378 -0.0630  1.1477
21125SOL     OW66779   6.705   0.462  10.675  0.2007  0.1204  0.2906
21125SOL    HW166780   6.726   0.531  10.612  0.0015 -1.4694 -1.5624
21125SOL    HW266781   6.614   0.481  10.701  0.2097  0.6561 -0.0559
21126SOL     OW66782   9.223   9.084   8.137 -0.0897  0.2434  0.6272
21126SOL    HW166783   9.235   9.144   8.064  0.4713 -1.0827 -0.3866
21126SOL    HW266784   9.275   9.121   8.208 -1.9942  2.4606  0.9237
21127SOL     OW66785   1.971   0.818   0.959  0.5559 -0.1950 -0.1830
21127SOL    HW166786   1.963   0.750   1.027  0.0209 -1.6103 -1.6446
21127SOL    HW266787   2.056   0.800   0.918  0.9833  0.8033  0.2626
21128SOL     OW66788   7.170   9.914   1.793 -0.2430 -0.3998  0.2324
21128SOL    HW166789   7.155   9.827   1.755  0.8157  0.0879 -1.3215
21128SOL    HW266790   7.082   9.945   1.818 -0.8419 -1.1108 -0.9680
21129SOL     OW66791   6.782  10.729   2.165 -0.4778  0.0779  0.3455
21129SOL    HW166792   6.724  10.803   2.145 -0.4995  0.0361  0.2574
21129SOL    HW266793   6.828  10.756   2.244 -2.0171 -0.6552  1.5396
21130SOL     OW66794   5.999   8.228   6.322  0.0813  0.3875  0.2477
21130SOL    HW166795   5.999   8.288   6.397 -1.2397 -0.6729  1.1207
21130SOL    HW266796   5.907   8.216   6.300  0.3610 -0.7671 -0.3727
21131SOL     OW66797   3.952   5.667   6.634 -0.4180 -0.1022  0.7574
21131SOL    HW166798   3.941   5.572   6.626  1.4149 -0.2138 -0.7486
21131SOL    HW266799   4.031   5.678   6.687  1.8993  0.5160 -2.7094
21132SOL     OW66800   6.089   7.568   6.546  0.1810  0.0173 -0.4462
21132SOL    HW166801   6.039   7.631   6.597  1.8482  0.9540  0.0742
21132SOL    HW266802   6.135   7.620   6.480  0.9273 -0.7410 -0.5429
21133SOL     OW66803  10.649   5.296   4.052  0.3337 -0.3309 -0.0741
21133SOL    HW166804  10.583   5.230   4.029 -0.2250 -0.6019  2.1887
21133SOL    HW266805  10.605   5.380   4.037  0.1136 -0.4859 -0.3160
21134SOL     OW66806  10.483   5.693   2.790 -0.5562  0.6102 -0.0081
21134SOL    HW166807  10.514   5.614   2.746 -1.0421  1.1837 -1.4137
21134SOL    HW266808  10.429   5.660   2.862  0.2971 -0.3464  0.2141
21135SOL     OW66809   1.251   1.097   9.959  0.0750 -0.1002 -0.2382
21135SOL    HW166810   1.194   1.037  10.007  0.1098  0.1619  0.1368
21135SOL    HW266811   1.279   1.048   9.882  0.4182 -0.6991  0.2636
21136SOL     OW66812   0.214  10.912   8.948  0.5162 -0.3154 -0.2339
21136SOL    HW166813   0.209  10.902   9.043  1.1306 -0.3314 -0.2003
21136SOL    HW266814   0.237  11.005   8.935 -2.0693  0.3125 -0.4477
21137SOL     OW66815   4.037   3.171   6.245  0.1675  0.2335 -0.6351
21137SOL    HW166816   3.955   3.210   6.274  0.7489  0.3420  0.8883
21137SOL    HW266817   4.013   3.083   6.215 -0.8940  1.1529 -2.6293
21138SOL     OW66818   7.982  10.339   6.576  0.3201  0.6248 -0.1805
21138SOL    HW166819   7.988  10.368   6.484 -1.7068 -0.1234 -0.5743
21138SOL    HW266820   7.994  10.244   6.572  1.0002  0.6814  0.4289
21139SOL     OW66821   9.036   2.364   9.770  0.7799 -0.0052  0.0502
21139SOL    HW166822   8.973   2.391   9.837 -0.0728 -0.8068 -0.4257
21139SOL    HW266823   8.994   2.386   9.687  0.2566 -2.3733 -0.3365
21140SOL     OW66824   0.969   3.287  10.146 -0.9616 -0.4706 -0.3998
21140SOL    HW166825   0.912   3.362  10.124  1.2874  1.6745  0.8415
21140SOL    HW266826   0.928   3.247  10.222 -1.3333  0.4559 -0.1063
21141SOL     OW66827  10.176   8.192   6.504  0.6747 -0.1203 -0.4911
21141SOL    HW166828  10.188   8.098   6.493  2.2505 -0.2555  2.1168
21141SOL    HW266829  10.111   8.201   6.574 -0.1537  0.7607 -1.3398
21142SOL     OW66830   7.113   2.160   4.003  0.4493  0.6139  0.1449
21142SOL    HW166831   7.170   2.088   3.978 -0.5551 -0.7465  1.6427
21142SOL    HW266832   7.163   2.210   4.067  0.6642  0.4968  0.0660
21143SOL     OW66833   7.808   8.517   7.326  0.2853 -0.4822  0.0775
21143SOL    HW166834   7.857   8.506   7.244  2.1137  0.1403  1.0531
21143SOL    HW266835   7.717   8.527   7.299  0.7406 -1.3209 -1.8146
21144SOL     OW66836   6.555   0.308   0.451  0.3059  0.9776 -0.1611
21144SOL    HW166837   6.504   0.357   0.387  3.0086  0.7134 -2.6081
21144SOL    HW266838   6.522   0.218   0.445  0.2675  1.0423 -0.8893
21145SOL     OW66839   2.275   7.101   5.767  0.2516 -0.0909  0.0902
21145SOL    HW166840   2.202   7.127   5.710  2.2393  0.4526 -2.2977
21145SOL    HW266841   2.302   7.015   5.734  0.9744 -0.0795  0.6384
21146SOL     OW66842   8.271   8.241   4.360 -0.2674  0.1285  0.6491
21146SOL    HW166843   8.184   8.272   4.332  0.5004  0.6986 -1.2043
21146SOL    HW266844   8.304   8.311   4.417 -0.2930  0.7474 -0.0919
21147SOL     OW66845   9.277   3.403   0.435  0.1115 -0.0653  0.3245
21147SOL    HW166846   9.270   3.307   0.438  0.5708 -0.0863  0.6472
21147SOL    HW266847   9.234   3.433   0.515 -0.1000  0.0069  0.1868
21148SOL     OW66848   3.032   5.019   5.580  0.4351 -0.4478  0.3893
21148SOL    HW166849   3.073   4.936   5.606 -0.7787 -0.7288  1.4701
21148SOL    HW266850   2.980   5.045   5.656 -0.2097  0.6625 -0.4137
21149SOL     OW66851   6.126   0.014   0.015  0.1748 -0.1593 -0.3119
21149SOL    HW166852   6.170   0.050  -0.061  0.9025  0.3827  0.3618
21149SOL    HW266853   6.082   0.089   0.055  0.1256 -0.3642  0.0189
21150SOL     OW66854   2.918   8.270   5.660  0.2384  0.3805 -0.2488
21150SOL    HW166855   2.970   8.306   5.588 -1.2010 -0.5971 -1.8299
21150SOL    HW266856   2.828   8.281   5.631 -0.3236 -0.7933  1.0475
21151SOL     OW66857   6.735   9.880   6.875 -0.3279 -1.1629  0.3541
21151SOL    HW166858   6.821   9.899   6.912 -0.1955 -1.2360  0.0882
21151SOL    HW266859   6.685   9.842   6.947 -0.0451 -1.3805  0.4361
21152SOL     OW66860   7.352   1.741   3.179 -0.0030 -0.6282 -0.1963
21152SOL    HW166861   7.391   1.810   3.232 -0.6042 -0.9052  0.6049
21152SOL    HW266862   7.425   1.708   3.126  0.2831  0.6362 -0.6243
21153SOL     OW66863   6.272   8.449   8.121 -0.7427 -0.3295  0.0165
21153SOL    HW166864   6.333   8.481   8.188 -2.1476  3.6746 -0.4596
21153SOL    HW266865   6.324   8.448   8.040 -0.2503 -0.8270  0.3339
21154SOL     OW66866   1.104   9.832   7.664 -0.3340 -0.0382 -0.7065
21154SOL    HW166867   1.097   9.739   7.687 -1.0833 -0.0308 -0.8863
21154SOL    HW266868   1.139   9.832   7.575 -4.2384 -0.3007 -2.3402
21155SOL     OW66869  10.484   4.894   2.482 -0.3847 -0.1686 -0.9340
21155SOL    HW166870  10.406   4.867   2.434 -1.1297  1.0950 -0.4554
21155SOL    HW266871  10.534   4.946   2.419  0.9088 -2.3565 -1.7659
21156SOL     OW66872   3.400   7.798   3.987  0.1642  0.1140 -0.0616
21156SOL    HW166873   3.364   7.709   3.992 -0.3749  0.3722  0.8047
21156SOL    HW266874   3.332   7.850   3.946  1.3009 -0.2749 -2.5510
21157SOL     OW66875   0.679   4.715   5.892  0.4899 -0.3445  0.3310
21157SOL    HW166876   0.765   4.749   5.867  0.5833 -0.8733 -0.0811
21157SOL    HW266877   0.625   4.793   5.902  0.1657 -0.1313 -2.6394
21158SOL     OW66878   3.596  10.623   4.060  0.2206 -0.1477  0.0929
21158SOL    HW166879   3.611  10.612   4.154  0.2120  0.3127  0.1508
21158SOL    HW266880   3.659  10.689   4.034  1.3159 -1.4354 -0.5473
21159SOL     OW66881   0.113   6.130   5.839  0.2050  0.2225  0.0356
21159SOL    HW166882   0.026   6.094   5.824  0.3354 -0.2464  0.4080
21159SOL    HW266883   0.169   6.054   5.853  0.8315  0.4732 -0.9763
21160SOL     OW66884   0.150   4.659   3.070  0.2009 -0.5279  0.0567
21160SOL    HW166885   0.106   4.686   2.989  0.9001  0.8972  0.1370
21160SOL    HW266886   0.196   4.738   3.099  3.1429 -2.0886 -0.2203
21161SOL     OW66887   7.440   2.446   0.706  0.1516 -0.3144 -0.2520
21161SOL    HW166888   7.404   2.375   0.758 -2.1760 -0.2086 -1.6390
21161SOL    HW266889   7.380   2.454   0.632  2.1045  1.0440 -1.7380
21162SOL     OW66890  10.621   6.839   7.087 -0.7799 -0.6282 -0.0681
21162SOL    HW166891  10.627   6.923   7.133 -0.6880 -0.0497 -1.1114
21162SOL    HW266892  10.599   6.863   6.997 -0.0422 -1.6852 -0.5404
21163SOL     OW66893   1.785   1.635   8.789  0.0100 -0.0959  0.0205
21163SOL    HW166894   1.853   1.576   8.758  1.5583  2.2531 -1.2350
21163SOL    HW266895   1.815   1.665   8.875  0.1917  0.3678 -0.2052
21164SOL     OW66896   6.403   8.736   7.361  0.7100 -0.0205 -0.4023
21164SOL    HW166897   6.326   8.793   7.357  0.2994 -0.5898 -0.7919
21164SOL    HW266898   6.465   8.774   7.299  1.3279  1.2774  0.9979
21165SOL     OW66899   3.285   7.333   9.897  0.1692 -0.0091  0.3073
21165SOL    HW166900   3.285   7.367   9.808 -2.9793  1.8901  0.9375
21165SOL    HW266901   3.276   7.238   9.886  1.8182  0.0045 -1.3939
21166SOL     OW66902   8.981   1.976   1.556 -0.3382 -0.4042 -0.1688
21166SOL    HW166903   9.031   2.043   1.602 -1.1830  0.0734  0.0639
21166SOL    HW266904   8.897   1.973   1.602 -0.0685 -2.0901  0.2549
21167SOL     OW66905   1.631   5.931   4.026  0.0139  0.8366  0.2010
21167SOL    HW166906   1.578   5.965   3.954 -1.1392  1.1775  1.1958
21167SOL    HW266907   1.646   6.006   4.083 -1.6514 -0.0538  1.8693
21168SOL     OW66908   9.681   1.679   2.542  0.1613  0.2565 -0.7788
21168SOL    HW166909   9.695   1.769   2.572 -3.1986  0.4775  0.2929
21168SOL    HW266910   9.765   1.636   2.557  1.8985  3.2457 -1.5074
21169SOL     OW66911   6.056   1.468   6.333  0.3216  0.3758  0.2094
21169SOL    HW166912   6.004   1.394   6.365 -1.1982  2.6957  3.4016
21169SOL    HW266913   6.130   1.473   6.395 -0.1407  2.1102  0.6518
21170SOL     OW66914   7.580   3.066   3.820  0.1403 -0.3724 -0.0814
21170SOL    HW166915   7.574   3.044   3.727 -1.5842  1.3327 -0.4103
21170SOL    HW266916   7.490   3.085   3.846  0.9857  2.0911  1.1831
21171SOL     OW66917   3.621  10.880   8.686 -0.7006 -0.3464  0.6697
21171SOL    HW166918   3.660  10.793   8.673  0.9470  0.9625 -4.3584
21171SOL    HW266919   3.694  10.936   8.709 -0.9635  0.5442 -0.6228
21172SOL     OW66920   0.208   1.765   5.904  0.2617 -0.3068 -0.0107
21172SOL    HW166921   0.142   1.819   5.947  1.3529  0.7505  0.3689
21172SOL    HW266922   0.239   1.818   5.831  0.4009 -0.9569 -0.4242
21173SOL     OW66923   5.503   8.274   7.609 -0.2321  0.0029  0.1701
21173SOL    HW166924   5.417   8.245   7.577 -0.8690  1.0958  0.8506
21173SOL    HW266925   5.566   8.224   7.558 -1.2898 -2.3661  1.1159
21174SOL     OW66926   9.709   4.667   9.746  0.4593  0.1256  0.0840
21174SOL    HW166927   9.656   4.631   9.675  1.7972 -0.6371 -0.5658
21174SOL    HW266928   9.751   4.744   9.707  1.3865 -0.4340 -0.0437
21175SOL     OW66929  10.927   8.263   2.530  0.0614 -0.0904 -0.2602
21175SOL    HW166930  11.016   8.281   2.562  0.4221  0.7035 -1.6721
21175SOL    HW266931  10.939   8.198   2.461 -0.2414  1.3779 -1.7293
21176SOL     OW66932   9.654   4.107  10.672 -0.2973 -0.3567  1.0301
21176SOL    HW166933   9.737   4.105  10.625 -0.0248  0.7678  1.4442
21176SOL    HW266934   9.640   4.016  10.700 -0.5616 -1.0792 -1.3423
21177SOL     OW66935   1.043   7.193   1.116  0.6329  0.3153 -0.5297
21177SOL    HW166936   1.036   7.098   1.112 -2.2604  0.5031 -0.3686
21177SOL    HW266937   1.064   7.211   1.208  0.0641 -0.0933 -0.3186
21178SOL     OW66938  10.889   6.147   0.714  0.0407  0.4827  0.0308
21178SOL    HW166939  10.926   6.138   0.802  1.6511 -0.5638 -0.7309
21178SOL    HW266940  10.963   6.171   0.659 -0.9970  1.3288 -1.0177
21179SOL     OW66941   9.312   6.462   5.940  0.2917 -0.4058 -0.0492
21179SOL    HW166942   9.325   6.544   5.893  2.3709 -1.4441 -1.3460
21179SOL    HW266943   9.219   6.443   5.929  0.0417  1.1609 -0.7676
21180SOL     OW66944   3.393   8.202  10.306  0.7986  0.2126 -0.8296
21180SOL    HW166945   3.475   8.183  10.260  1.1154  1.1110 -0.6455
21180SOL    HW266946   3.402   8.293  10.335 -0.4811  0.4855 -1.2517
21181SOL     OW66947   9.192   6.476  10.531 -0.0430 -0.0540 -0.2447
21181SOL    HW166948   9.160   6.539  10.466  1.7688  0.9497 -0.1825
21181SOL    HW266949   9.285   6.496  10.541  0.0452 -1.2220  1.5154
21182SOL     OW66950   4.252   1.222   2.373 -0.7895  0.4986 -0.6569
21182SOL    HW166951   4.216   1.307   2.348  0.9377  1.4054 -0.1632
21182SOL    HW266952   4.253   1.224   2.469  2.7282  1.4752 -0.6564
21183SOL     OW66953   9.046   8.177   3.099 -0.0402  0.2664 -0.0856
21183SOL    HW166954   8.982   8.131   3.043  0.3289 -2.3574  1.5336
21183SOL    HW266955   8.992   8.223   3.163 -0.3876  0.2947 -0.3934
21184SOL     OW66956   9.068   9.000   0.181  0.4276 -0.2962  0.2935
21184SOL    HW166957   9.010   9.068   0.215 -0.0879 -2.2124  3.3894
21184SOL    HW266958   9.011   8.943   0.130  0.7353  1.1135 -1.7012
21185SOL     OW66959   6.633   7.201   9.945 -0.5337 -0.2329  0.1721
21185SOL    HW166960   6.657   7.108   9.944  1.9233  0.3673 -0.2283
21185SOL    HW266961   6.631   7.224  10.038 -0.0674 -0.4168  0.2275
21186SOL     OW66962   0.479  10.299   4.954 -0.3255 -0.2161 -0.5429
21186SOL    HW166963   0.524  10.287   4.870  0.0501 -0.8514 -0.2582
21186SOL    HW266964   0.489  10.392   4.974 -1.9421  0.3159 -2.0606
21187SOL     OW66965   6.258   6.047  10.135 -0.6223 -0.0606 -0.0575
21187SOL    HW166966   6.248   5.992  10.213 -0.8541  2.4103  1.6897
21187SOL    HW266967   6.349   6.075  10.136 -0.5908 -0.1211 -0.7586
21188SOL     OW66968   4.632   7.072   7.340 -0.1455  0.5599 -0.2208
21188SOL    HW166969   4.599   7.010   7.275 -0.8135  0.9732 -0.2851
21188SOL    HW266970   4.590   7.045   7.422 -0.9722  1.3462 -0.3845
21189SOL     OW66971   5.986   1.743   5.482 -0.2631 -0.3013 -0.3427
21189SOL    HW166972   6.015   1.807   5.548  0.3766  0.5005 -1.3794
21189SOL    HW266973   6.063   1.730   5.426 -0.7375 -1.1306 -0.8107
21190SOL     OW66974   9.519   4.649   9.953  0.2899 -0.8656 -0.6517
21190SOL    HW166975   9.462   4.573   9.956  1.8378 -2.0490 -0.4829
21190SOL    HW266976   9.581   4.629   9.882 -1.5562  1.8892 -3.1470
21191SOL     OW66977   7.260   1.593   1.176  0.5504 -0.4045 -0.4219
21191SOL    HW166978   7.216   1.548   1.248  1.7064  0.1867  0.6703
21191SOL    HW266979   7.238   1.685   1.190 -1.1398 -0.5091 -2.1795
21192SOL     OW66980   2.953   7.490   5.129  0.0998  0.0092 -0.2433
21192SOL    HW166981   3.007   7.475   5.206  1.6838  1.2471 -1.0927
21192SOL    HW266982   2.914   7.577   5.143  4.2047  2.4479 -2.9666
21193SOL     OW66983   2.034   5.811   5.177  0.0840 -0.2960 -0.4898
21193SOL    HW166984   2.023   5.899   5.213  1.6427  0.1944 -1.1378
21193SOL    HW266985   2.079   5.763   5.246  0.6684 -0.1131 -0.7346
21194SOL     OW66986   5.676   9.929   0.791 -0.7976  0.4735 -0.4142
21194SOL    HW166987   5.728   9.890   0.722 -1.2288  0.8702 -0.9669
21194SOL    HW266988   5.642   9.855   0.842  0.7060  0.2292  0.2501
21195SOL     OW66989   8.765   3.464   3.191 -0.0069  0.9782 -0.2497
21195SOL    HW166990   8.772   3.508   3.275 -0.2868 -0.0298  0.3084
21195SOL    HW266991   8.844   3.490   3.144  0.4641  1.0428  0.5650
21196SOL     OW66992   3.713   1.896  10.212  0.3732  0.2564 -0.3752
21196SOL    HW166993   3.654   1.954  10.260  0.2867 -0.1748  0.0408
21196SOL    HW266994   3.763   1.850  10.280  1.0574  0.4779 -0.7165
21197SOL     OW66995   5.964   4.555   0.556 -0.0556  0.0523 -0.6320
21197SOL    HW166996   5.944   4.559   0.650 -1.6161  1.2079 -0.9997
21197SOL    HW266997   5.996   4.642   0.534  2.8390 -0.9724 -0.6565
21198SOL     OW66998   5.709   7.605   6.482 -0.0807  0.4341  0.7502
21198SOL    HW166999   5.772   7.676   6.469 -0.2606  0.3594 -0.6173
21198SOL    HW267000   5.743   7.557   6.558  1.9399 -0.0343 -0.3894
21199SOL     OW67001   9.644  10.915   1.520 -0.2671  0.2111 -0.5542
21199SOL    HW167002   9.647  10.895   1.427  0.8736 -2.8058  0.0743
21199SOL    HW267003   9.576  10.858   1.555  1.0202 -0.5221  0.8364
21200SOL     OW67004   9.056   7.569   9.957  0.4483  0.2694 -0.2752
21200SOL    HW167005   9.090   7.559  10.045 -0.0263  0.7670 -0.0300
21200SOL    HW267006   8.966   7.536   9.961 -0.3909  2.4668  0.0221
21201SOL     OW67007   0.932   1.456   3.723  0.1886 -0.6033 -0.5691
21201SOL    HW167008   0.846   1.413   3.720 -0.4141  0.5521 -0.4023
21201SOL    HW267009   0.977   1.426   3.644 -1.1051  0.2406 -1.6543
21202SOL     OW67010   0.282   7.243  10.195  0.0376  0.6500  0.4466
21202SOL    HW167011   0.302   7.331  10.228  0.7162  0.3407  0.8598
21202SOL    HW267012   0.200   7.255  10.146  0.0035  1.4701  0.6823
21203SOL     OW67013   5.165   9.609   4.997  0.3821 -0.1840  0.0079
21203SOL    HW167014   5.172   9.577   4.908  3.0460  0.6245 -0.1202
21203SOL    HW267015   5.176   9.704   4.989  0.2343 -0.0615  1.1515
21204SOL     OW67016   4.798   9.121   0.126 -0.1092  0.2279 -0.8135
21204SOL    HW167017   4.768   9.203   0.087 -1.3280 -0.4176 -1.2571
21204SOL    HW267018   4.797   9.138   0.221  0.6489  1.0589 -0.9557
21205SOL     OW67019   1.635   0.377   5.238  0.0262 -0.2904  0.7407
21205SOL    HW167020   1.554   0.375   5.188  1.1924 -1.9286 -1.1351
21205SOL    HW267021   1.614   0.330   5.319 -0.5168 -1.9672 -0.3443
21206SOL     OW67022   5.513   7.086   7.246  0.1279 -0.0592 -0.1952
21206SOL    HW167023   5.494   7.108   7.337 -0.8785 -0.5065 -0.2891
21206SOL    HW267024   5.487   7.164   7.197 -1.2066 -0.5622 -0.2935
21207SOL     OW67025   2.515   4.267  10.068  0.6214 -0.3008  0.2474
21207SOL    HW167026   2.431   4.226  10.089  0.1632  0.2473 -0.4364
21207SOL    HW267027   2.490   4.348  10.023  1.5073  0.4801  1.1558
21208SOL     OW67028   0.600   8.364   6.233 -0.1916 -0.0877 -0.0247
21208SOL    HW167029   0.619   8.401   6.319  1.7091  1.8426 -1.2514
21208SOL    HW267030   0.560   8.436   6.184  0.5112 -0.5908 -1.3639
21209SOL     OW67031   0.742   5.124   0.689 -0.0364  0.1775  0.3683
21209SOL    HW167032   0.766   5.033   0.670  1.4129  0.7978 -0.8891
21209SOL    HW267033   0.735   5.128   0.784 -2.2068 -1.7532  0.3322
21210SOL     OW67034   6.110   6.896   1.612 -0.2222  0.1721  0.4978
21210SOL    HW167035   6.183   6.926   1.558 -0.4960  0.1155  0.0969
21210SOL    HW267036   6.035   6.894   1.552 -0.0840 -1.8947  0.3730
21211SOL     OW67037   4.389   9.802   2.794  0.0741 -0.5342 -0.0020
21211SOL    HW167038   4.310   9.768   2.837 -1.1078  1.0422 -0.8882
21211SOL    HW267039   4.451   9.816   2.866 -0.8444 -0.7049  0.8431
21212SOL     OW67040   0.342   1.921  10.296  0.0268 -0.1631 -0.2637
21212SOL    HW167041   0.283   1.996  10.297 -0.5896 -0.5801 -2.2397
21212SOL    HW267042   0.286   1.846  10.318  0.3232 -0.2477  0.2101
21213SOL     OW67043   1.932   0.925   9.708  0.4073 -0.3290  0.2833
21213SOL    HW167044   1.875   0.849   9.723  0.5377 -0.2319  1.3658
21213SOL    HW267045   1.948   0.925   9.614 -0.9061 -0.7021  0.0449
21214SOL     OW67046   9.651   9.233   9.452  0.2384  0.0596 -0.0560
21214SOL    HW167047   9.645   9.193   9.538 -1.0550  1.1373  0.3629
21214SOL    HW267048   9.630   9.162   9.391  1.7797 -0.8703  0.4506
21215SOL     OW67049   0.751   7.677   7.668 -0.0361  0.4867 -0.5651
21215SOL    HW167050   0.795   7.602   7.627  0.2922  0.0467  0.5808
21215SOL    HW267051   0.820   7.721   7.717 -0.6200  0.4666  0.2820
21216SOL     OW67052   5.219   5.948   0.663 -0.4020  0.2229  0.2052
21216SOL    HW167053   5.300   5.901   0.647 -0.7731 -0.2567 -0.2807
21216SOL    HW267054   5.225   5.977   0.754  0.7672  1.0782 -0.1254
21217SOL     OW67055   9.377   2.048   8.344  0.3599 -0.3396  0.6361
21217SOL    HW167056   9.286   2.049   8.374  0.3023 -0.2875  0.4579
21217SOL    HW267057   9.371   2.045   8.249  0.5417  0.0523  0.6131
21218SOL     OW67058   8.175   9.397  10.532 -0.6501  0.4399  0.4208
21218SOL    HW167059   8.138   9.309  10.530  0.9596 -0.2304 -1.8448
21218SOL    HW267060   8.270   9.383  10.527 -0.3460  2.2918  0.6691
21219SOL     OW67061   2.093   3.682  10.211  0.5125  0.3528 -0.2253
21219SOL    HW167062   2.170   3.699  10.157 -0.8159  2.3273 -1.5317
21219SOL    HW267063   2.045   3.614  10.164  1.3910 -0.8213  0.5485
21220SOL     OW67064   1.028   5.470   8.962 -0.2093  0.3995  0.1669
21220SOL    HW167065   1.071   5.389   8.937 -2.1548 -0.9508  1.0494
21220SOL    HW267066   0.971   5.491   8.888 -0.8523  0.1158  0.5765
21221SOL     OW67067   6.682   0.878   7.341 -0.1477 -0.4815 -0.3888
21221SOL    HW167068   6.746   0.870   7.411 -1.4181 -0.2277  0.8144
21221SOL    HW267069   6.662   0.972   7.337  1.3381 -0.2268 -2.3827
21222SOL     OW67070   7.361   3.911   3.900  0.5930  0.1032 -0.5577
21222SOL    HW167071   7.367   3.911   3.804 -2.0580 -1.6329 -0.7570
21222SOL    HW267072   7.402   3.829   3.927  0.0966 -0.0625 -0.3055
21223SOL     OW67073  10.826   7.591   2.468 -0.3149  0.3850  0.6956
21223SOL    HW167074  10.901   7.640   2.502  0.5582 -0.2364 -0.3083
21223SOL    HW267075  10.864   7.528   2.407 -1.6261 -0.1753  0.4389
21224SOL     OW67076   4.594   4.458   4.025  0.1737 -0.1995  0.5591
21224SOL    HW167077   4.641   4.374   4.022  2.1675  0.9276 -0.8563
21224SOL    HW267078   4.504   4.435   4.001  1.0196 -1.7617 -1.3407
21225SOL     OW67079   9.110   0.343   3.811 -0.9002 -0.3960 -0.0112
21225SOL    HW167080   9.050   0.272   3.834 -1.6905  0.3898  0.3519
21225SOL    HW267081   9.108   0.403   3.886 -0.7889  0.3829 -0.6211
21226SOL     OW67082   2.485   5.098   4.834 -0.7628  0.1731  0.2863
21226SOL    HW167083   2.503   5.176   4.887  0.9027  2.0881 -2.9066
21226SOL    HW267084   2.449   5.035   4.895  0.8422  2.3586  3.6344
21227SOL     OW67085   7.809   0.745   6.338  0.1078 -0.3168  0.1614
21227SOL    HW167086   7.857   0.824   6.315 -0.3110  0.2672  1.2718
21227SOL    HW267087   7.755   0.725   6.261  0.2377  0.4520 -0.1254
21228SOL     OW67088   1.739   4.611   3.786  0.4633  0.4330  0.1983
21228SOL    HW167089   1.783   4.529   3.808  0.0951  0.1689 -0.0583
21228SOL    HW267090   1.806   4.660   3.737 -0.4398 -1.1665 -2.7691
21229SOL     OW67091   5.845   6.105   3.561  0.0460  0.5879 -0.0091
21229SOL    HW167092   5.925   6.141   3.599  0.4155  0.1819 -0.3939
21229SOL    HW267093   5.874   6.029   3.511 -0.7958 -0.7101  1.4133
21230SOL     OW67094   8.696   7.798   8.943  0.2281  0.0003 -0.2560
21230SOL    HW167095   8.628   7.840   8.889  0.1865 -0.1305 -0.3070
21230SOL    HW267096   8.662   7.801   9.032 -0.1565 -0.6733 -0.3758
21231SOL     OW67097   1.243   4.322   2.098  0.1187  0.7684  0.3995
21231SOL    HW167098   1.273   4.405   2.135  0.9840  0.2911  0.7702
21231SOL    HW267099   1.323   4.272   2.084 -0.5744 -1.1419  2.8888
21232SOL     OW67100   9.217   1.524   7.090  0.0036  0.2487 -0.4436
21232SOL    HW167101   9.150   1.455   7.089 -0.2772  0.5312 -1.5208
21232SOL    HW267102   9.292   1.483   7.134 -0.7179 -0.2099  0.3716
21233SOL     OW67103   0.169   2.008   1.448 -0.0547  0.1439 -0.1233
21233SOL    HW167104   0.207   2.023   1.362  0.7880  0.3806  0.2850
21233SOL    HW267105   0.205   1.925   1.477  1.0803  0.9249  0.7568
21234SOL     OW67106   4.781   1.144   8.349 -0.4912 -0.1290  0.3408
21234SOL    HW167107   4.818   1.136   8.437 -0.0957 -2.0573  0.0362
21234SOL    HW267108   4.828   1.218   8.310  0.7422 -0.5016  1.0821
21235SOL     OW67109   9.284  10.407   5.514  1.0125 -0.5737 -0.2597
21235SOL    HW167110   9.312  10.323   5.478 -1.2444 -1.1866 -0.6257
21235SOL    HW267111   9.212  10.385   5.573  0.2889  1.1241 -0.4887
21236SOL     OW67112   8.955   3.435  10.073  0.1924 -0.1273  0.0430
21236SOL    HW167113   8.877   3.428  10.128  1.4770  0.3416  1.9583
21236SOL    HW267114   8.943   3.367  10.006 -1.8006 -0.1180  0.3459
21237SOL     OW67115   8.835   1.866   4.740 -0.0767 -0.1926 -0.1223
21237SOL    HW167116   8.926   1.837   4.749 -0.2201 -0.4718  0.3877
21237SOL    HW267117   8.783   1.793   4.773 -0.5437 -0.6777 -1.8716
21238SOL     OW67118   1.856  10.562   8.897  0.5665  0.1617  0.4884
21238SOL    HW167119   1.832  10.624   8.965 -0.3261 -0.7353  1.0086
21238SOL    HW267120   1.808  10.591   8.820 -0.2334 -0.1405  0.8586
21239SOL     OW67121   0.749  10.877   5.313  0.0060 -0.0175 -0.1961
21239SOL    HW167122   0.778  10.798   5.266 -0.0605  0.4579 -1.0503
21239SOL    HW267123   0.737  10.942   5.244  0.9428  1.0082  0.6023
21240SOL     OW67124   2.455   2.326   7.102 -0.5995  0.4592  0.3536
21240SOL    HW167125   2.361   2.308   7.093 -0.4841  0.2730 -0.4725
21240SOL    HW267126   2.484   2.267   7.171 -1.2736  1.1640  1.2618
21241SOL     OW67127   0.394   5.127  10.724  0.5900  0.6860  0.2860
21241SOL    HW167128   0.361   5.099  10.809  0.4740 -0.1567 -0.0261
21241SOL    HW267129   0.397   5.222  10.729 -1.1082  0.7406  0.6170
21242SOL     OW67130   1.420   9.722   1.186 -0.0263 -0.7225 -0.3339
21242SOL    HW167131   1.325   9.719   1.198  0.0513 -0.2091  0.4787
21242SOL    HW267132   1.432   9.758   1.099 -0.5823 -1.0267 -0.5413
21243SOL     OW67133   9.128   2.982   6.677  0.1677 -0.1914  0.2441
21243SOL    HW167134   9.053   3.027   6.638 -0.4763 -1.1160  0.4102
21243SOL    HW267135   9.107   2.977   6.770  0.2278 -0.8544  0.2228
21244SOL     OW67136   2.358   5.474  10.565  0.1742 -0.3502 -0.8215
21244SOL    HW167137   2.329   5.563  10.546  1.4769 -0.1048 -1.7301
21244SOL    HW267138   2.307   5.448  10.642 -0.5721  0.9932 -0.8511
21245SOL     OW67139  10.290   8.976   4.521 -0.2028 -0.1525  0.2255
21245SOL    HW167140  10.378   8.944   4.499 -0.2182  0.7909 -1.2231
21245SOL    HW267141  10.300   9.011   4.610  0.9803  0.3015 -0.0720
21246SOL     OW67142   5.892   4.611   1.045 -0.3961 -0.1975  0.0748
21246SOL    HW167143   5.956   4.634   1.112 -0.0032 -0.3274 -0.2528
21246SOL    HW267144   5.810   4.601   1.093 -0.2934  0.5452  0.4185
21247SOL     OW67145   3.049   0.738   7.452  0.1348 -0.1662 -0.3237
21247SOL    HW167146   3.137   0.720   7.483  0.1664  0.9113  0.1990
21247SOL    HW267147   2.996   0.746   7.531 -0.1141  0.8694 -0.5930
21248SOL     OW67148   7.994  10.633   1.991  0.0842 -0.1946  0.1504
21248SOL    HW167149   7.974  10.718   2.031 -1.8300 -0.9102  0.7996
21248SOL    HW267150   8.055  10.653   1.921  0.3099  1.6180  0.8285
21249SOL     OW67151   8.143   5.248   0.147  0.4868  0.1967  0.3783
21249SOL    HW167152   8.200   5.296   0.206 -0.2908 -1.1296  2.2418
21249SOL    HW267153   8.198   5.178   0.111  0.2339 -0.7093  1.7108
21250SOL     OW67154   2.532   1.087   8.374 -0.2573  0.1020 -0.0576
21250SOL    HW167155   2.591   1.162   8.369  1.3578 -1.1015  0.6197
21250SOL    HW267156   2.561   1.038   8.451 -2.2841 -0.4000  0.4153
21251SOL     OW67157   5.139   9.698   1.448 -0.2077  0.0633 -0.0197
21251SOL    HW167158   5.053   9.690   1.489 -0.9340 -1.4387 -1.7685
21251SOL    HW267159   5.135   9.781   1.401 -0.6871  0.0033 -0.0897
21252SOL     OW67160   9.416   3.197   4.770  0.0530  0.3186  0.1205
21252SOL    HW167161   9.399   3.225   4.860 -0.1960  0.6253 -0.0182
21252SOL    HW267162   9.339   3.146   4.746  0.1069  0.2594  0.0717
21253SOL     OW67163   4.822   3.983   5.894  0.0955  0.5855  0.3826
21253SOL    HW167164   4.847   4.023   5.811 -0.0005  0.4129  0.2708
21253SOL    HW267165   4.903   3.943   5.926 -0.0613 -0.0692 -0.0315
21254SOL     OW67166   5.176   1.999  10.706 -0.2906  0.2658  0.1371
21254SOL    HW167167   5.083   2.020  10.709  0.0542  1.9494 -0.2367
21254SOL    HW267168   5.184   1.933  10.637 -1.3728 -0.9334  1.1303
21255SOL     OW67169   4.360   5.426   0.383  0.2467  0.7456 -0.0094
21255SOL    HW167170   4.341   5.484   0.311 -2.4958 -0.5299 -0.3658
21255SOL    HW267171   4.291   5.360   0.380  2.1827 -1.4485  1.5196
21256SOL     OW67172   4.997   7.825   9.708 -0.2013  0.7450  0.1667
21256SOL    HW167173   4.912   7.867   9.694 -0.0901  1.4490  1.5255
21256SOL    HW267174   4.978   7.752   9.767 -0.2546 -0.6563 -1.5348
21257SOL     OW67175   4.223   0.179   2.029  0.2739 -0.0927 -0.8528
21257SOL    HW167176   4.222   0.137   1.943 -0.8279 -2.0005  0.0528
21257SOL    HW267177   4.132   0.205   2.044  0.1750 -1.0367  0.3031
21258SOL     OW67178   4.923   1.698   6.180 -0.5984  0.2637  0.0293
21258SOL    HW167179   4.926   1.784   6.222  0.5345  0.4369 -0.3703
21258SOL    HW267180   5.007   1.691   6.134 -0.7466 -0.9924 -0.0735
21259SOL     OW67181   6.426   0.908   2.788  0.0805 -0.5193  0.0891
21259SOL    HW167182   6.501   0.856   2.759  0.1159  0.1858 -1.1322
21259SOL    HW267183   6.393   0.949   2.708 -0.4602  0.6578  0.8936
21260SOL     OW67184   0.014   7.832   2.494  0.0752  0.2640  0.4112
21260SOL    HW167185   0.106   7.858   2.485  0.0709  0.6277  1.2927
21260SOL    HW267186  -0.034   7.897   2.443  0.3209 -0.0272 -0.1928
21261SOL     OW67187  10.593   6.248   1.991 -0.5256 -0.3883  0.2277
21261SOL    HW167188  10.558   6.205   1.913  0.7439 -0.7254 -0.1785
21261SOL    HW267189  10.683   6.215   1.998 -0.2826  0.4452  1.2331
21262SOL     OW67190   1.676   0.412   1.342  0.2351  0.2196 -0.0566
21262SOL    HW167191   1.605   0.458   1.298  0.5775  1.7996  1.0281
21262SOL    HW267192   1.702   0.344   1.280 -1.0219  0.7636 -1.2011
21263SOL     OW67193   0.744  10.198   5.670 -0.4791  0.0710  0.1133
21263SOL    HW167194   0.674  10.167   5.728 -1.8676  0.9171 -1.0816
21263SOL    HW267195   0.698  10.242   5.598  1.2069 -0.9067 -1.6084
21264SOL     OW67196   5.768   3.668   5.447  0.5609 -0.5220  0.1362
21264SOL    HW167197   5.728   3.660   5.360 -0.4795  0.8107  0.4691
21264SOL    HW267198   5.694   3.659   5.508  1.1283 -0.4215  0.8457
21265SOL     OW67199   5.492   0.598   3.382 -0.3652  0.4589 -0.4245
21265SOL    HW167200   5.540   0.592   3.299 -1.6021  0.7997 -1.1701
21265SOL    HW267201   5.404   0.626   3.358 -0.3369  2.0043  1.1491
21266SOL     OW67202   1.913  10.265   4.303 -0.1522 -0.0648  0.3539
21266SOL    HW167203   1.837  10.230   4.256 -1.1168  0.2489  1.6256
21266SOL    HW267204   1.973  10.191   4.310  0.0410 -0.1011 -1.3953
21267SOL     OW67205  10.106   5.646   2.705  0.2498  0.4219  0.1355
21267SOL    HW167206  10.129   5.673   2.616 -1.4391  1.3377 -0.0608
21267SOL    HW267207  10.107   5.551   2.703  1.5068  0.4480 -0.5161
21268SOL     OW67208   5.680   4.235   4.520  0.3208 -0.5442  0.6369
21268SOL    HW167209   5.754   4.220   4.578 -0.5228  0.0851  1.8793
21268SOL    HW267210   5.612   4.273   4.575 -0.5966 -0.1948 -0.6903
21269SOL     OW67211   2.392   0.259   6.004 -0.0675  0.4830 -0.5191
21269SOL    HW167212   2.390   0.335   5.946 -1.7130  0.3438 -0.6575
21269SOL    HW267213   2.440   0.193   5.954 -0.9814  0.5494 -1.5105
21270SOL     OW67214   6.577   1.883   4.541 -0.3636 -0.2674 -0.0243
21270SOL    HW167215   6.643   1.817   4.562  0.3665  0.4667 -0.0226
21270SOL    HW267216   6.552   1.864   4.451 -1.0191 -1.2762  0.3468
21271SOL     OW67217   3.067   1.495   9.530  0.5330  0.1537 -0.2352
21271SOL    HW167218   3.102   1.583   9.517  0.7624 -0.0237 -0.8500
21271SOL    HW267219   3.014   1.479   9.452  0.0301 -0.0349  0.1407
21272SOL     OW67220   8.782   2.931   0.011 -0.3756  0.3985 -0.2087
21272SOL    HW167221   8.864   2.934  -0.038 -0.9025  0.7263 -1.0913
21272SOL    HW267222   8.790   2.999   0.078 -1.2235  2.7124 -2.3802
21273SOL     OW67223   1.636  10.221   3.713 -0.1419 -0.0286  0.1831
21273SOL    HW167224   1.588  10.155   3.763  0.9539 -1.9158 -1.1861
21273SOL    HW267225   1.569  10.271   3.667 -1.0375  0.4980  2.0456
21274SOL     OW67226   3.718   9.735   1.950 -0.1895  1.0644 -0.3072
21274SOL    HW167227   3.786   9.782   1.999 -0.9539 -0.4734  2.3383
21274SOL    HW267228   3.638   9.786   1.966 -0.2970  1.0080 -0.6590
21275SOL     OW67229   8.255   1.152   5.536  0.4382 -0.4536 -0.3981
21275SOL    HW167230   8.161   1.140   5.526  0.2976  0.8342 -0.7786
21275SOL    HW267231   8.279   1.097   5.610 -1.1478  1.5424  1.6692
21276SOL     OW67232   2.531   6.369   8.925 -0.0789 -0.2846  0.1898
21276SOL    HW167233   2.491   6.447   8.886 -0.4572 -0.7400 -0.3408
21276SOL    HW267234   2.543   6.392   9.017  2.0853  1.3104 -0.4354
21277SOL     OW67235   3.650   0.225   9.254  0.2326  0.3685  0.4599
21277SOL    HW167236   3.600   0.289   9.203 -1.4247  0.2235  1.8651
21277SOL    HW267237   3.677   0.272   9.333 -0.2101 -0.3819  1.0737
21278SOL     OW67238   7.920   3.923   0.895 -0.3967  0.4319 -0.7836
21278SOL    HW167239   7.969   3.851   0.855 -1.5822 -1.1202  0.5019
21278SOL    HW267240   7.918   3.902   0.988 -1.0407  1.9821 -0.4346
21279SOL     OW67241   9.914   0.924   2.177 -0.5441 -0.3034  0.0311
21279SOL    HW167242   9.949   0.867   2.245  1.2816  0.6716 -0.0618
21279SOL    HW267243   9.876   0.998   2.225  2.6378  1.4504  0.0041
21280SOL     OW67244   5.680   1.518   6.358 -0.0431  0.5559  0.0433
21280SOL    HW167245   5.621   1.481   6.423 -0.4599 -0.2068 -0.7638
21280SOL    HW267246   5.742   1.571   6.409  0.0473 -0.5719  1.1126
21281SOL     OW67247   9.952   8.233   6.687 -0.4871 -0.2144 -0.1061
21281SOL    HW167248   9.900   8.284   6.626 -0.6797  0.2719  0.4596
21281SOL    HW267249   9.940   8.277   6.771 -0.3423 -0.9645  0.3087
21282SOL     OW67250   8.213   5.205   9.729  0.7682 -0.2710 -0.2405
21282SOL    HW167251   8.227   5.154   9.809 -1.1148  1.8379  1.4983
21282SOL    HW267252   8.213   5.296   9.758 -1.3123  0.4824 -2.4317
21283SOL     OW67253   8.609   9.714  10.783  0.0444 -0.6117 -0.6261
21283SOL    HW167254   8.628   9.806  10.766  0.8644 -0.9759 -1.7698
21283SOL    HW267255   8.657   9.693  10.863  1.8111 -0.6489 -1.6707
21284SOL     OW67256  10.537   2.335  10.725  0.7248 -0.6374 -0.3895
21284SOL    HW167257  10.473   2.311  10.657 -0.1073 -1.5526  0.6886
21284SOL    HW267258  10.517   2.426  10.746  0.6178 -0.5250 -0.9738
21285SOL     OW67259   1.440  10.024   9.559  0.2943  0.0329  0.0747
21285SOL    HW167260   1.368  10.045   9.498 -1.0830  1.4011  2.1122
21285SOL    HW267261   1.506  10.091   9.543  0.2636 -0.0549 -0.4251
21286SOL     OW67262   2.813  10.961   4.696  0.2577 -0.0240  0.0814
21286SOL    HW167263   2.822  11.055   4.711  2.5796 -0.0622 -0.9199
21286SOL    HW267264   2.887  10.922   4.742 -0.4167 -1.3151  0.0734
21287SOL     OW67265   8.530   3.785   0.119 -0.0781 -0.1597  0.4299
21287SOL    HW167266   8.588   3.718   0.152 -0.9341 -0.7937  0.6640
21287SOL    HW267267   8.477   3.741   0.053 -0.3592  0.3889  0.2814
21288SOL     OW67268   1.550   8.443   3.591 -0.0668  0.5070  0.1665
21288SOL    HW167269   1.621   8.429   3.529 -2.1262  0.5235 -2.2445
21288SOL    HW267270   1.590   8.427   3.677  2.1503 -2.3026 -1.2992
21289SOL     OW67271   9.755   5.169   1.071 -0.2809  0.4977 -0.5059
21289SOL    HW167272   9.847   5.179   1.095  0.1407 -2.3913 -0.7142
21289SOL    HW267273   9.754   5.097   1.008 -2.6814  0.3908 -0.4050
21290SOL     OW67274   1.115   2.857   4.254 -0.6681  0.1063 -0.5539
21290SOL    HW167275   1.146   2.920   4.189  0.5778 -0.2150 -0.2962
21290SOL    HW267276   1.098   2.777   4.203  0.3042 -0.1450 -0.4911
21291SOL     OW67277   5.997   1.345   4.006  0.2455  0.3364 -0.0702
21291SOL    HW167278   6.075   1.396   3.985  0.6853  0.1984  1.1989
21291SOL    HW267279   5.939   1.358   3.931  2.6243 -1.9052 -2.4089
21292SOL     OW67280  10.222   8.254  10.333 -0.3760  0.0863  0.2013
21292SOL    HW167281  10.178   8.316  10.392 -0.3930  0.1566  0.1149
21292SOL    HW267282  10.235   8.175  10.387 -1.1717 -0.1599  0.0439
21293SOL     OW67283   7.665   4.959   4.053 -0.7378  0.2850  0.0949
21293SOL    HW167284   7.626   5.046   4.057 -1.6815 -0.1339  0.2368
21293SOL    HW267285   7.602   4.903   4.099 -0.9265 -0.7450 -1.3867
21294SOL     OW67286   3.834   2.236   2.962  0.5698  0.4585 -0.3569
21294SOL    HW167287   3.801   2.326   2.965 -1.4635 -0.2326 -1.1019
21294SOL    HW267288   3.789   2.191   3.034 -0.0943 -0.4875 -1.3400
21295SOL     OW67289   9.868   7.872   1.251  0.0733  0.2348 -0.1430
21295SOL    HW167290   9.794   7.812   1.255 -0.0068  0.2882 -0.7733
21295SOL    HW267291   9.867   7.906   1.161  0.7380  0.3847 -0.0988
21296SOL     OW67292   6.548   4.309   2.844  0.3384 -0.2003  0.1007
21296SOL    HW167293   6.615   4.378   2.849  0.3506 -0.1149 -1.0392
21296SOL    HW267294   6.492   4.325   2.920  0.3248  1.1003 -0.1601
21297SOL     OW67295   2.197   2.029   4.305  0.6379  0.8159 -0.2576
21297SOL    HW167296   2.144   1.967   4.354  0.9029 -0.1639 -1.2004
21297SOL    HW267297   2.135   2.094   4.273  0.2937  0.7715  0.3149
21298SOL     OW67298   6.767   2.146   9.278 -0.3293 -0.5888  0.1985
21298SOL    HW167299   6.730   2.062   9.306 -0.9230  0.4360  2.6068
21298SOL    HW267300   6.858   2.127   9.256 -0.7186 -2.0385 -0.1864
21299SOL     OW67301   2.772   6.773   9.045 -0.3558  0.4794 -0.4033
21299SOL    HW167302   2.702   6.782   8.980 -0.7980  2.8015  0.3496
21299SOL    HW267303   2.728   6.738   9.123  0.0306 -1.5400 -1.0475
21300SOL     OW67304   4.853   2.293   9.645  0.0817 -0.1087  0.0069
21300SOL    HW167305   4.900   2.220   9.685  0.1242  0.3283  0.7647
21300SOL    HW267306   4.892   2.302   9.558 -0.5869 -1.6018 -0.4557
21301SOL     OW67307   9.280   9.430   0.450 -0.2494 -0.0199 -0.0252
21301SOL    HW167308   9.348   9.381   0.404 -0.7967 -1.5553  0.7524
21301SOL    HW267309   9.198   9.390   0.421 -0.6915  0.2922  0.7744
21302SOL     OW67310   9.218   7.752   3.308 -0.6024  0.0463 -0.6592
21302SOL    HW167311   9.162   7.706   3.245 -0.2784 -0.0439 -0.8824
21302SOL    HW267312   9.204   7.845   3.289 -3.1179  0.1553  1.3807
21303SOL     OW67313   4.591   1.410   8.085  0.6114  0.6095 -0.2724
21303SOL    HW167314   4.630   1.486   8.041  2.3640 -0.2510 -0.2442
21303SOL    HW267315   4.616   1.336   8.030 -2.5117  0.1786 -1.2351
21304SOL     OW67316   6.508   1.587   0.510  0.6361  0.2988  0.7666
21304SOL    HW167317   6.464   1.665   0.544  2.0719  0.9547  1.1686
21304SOL    HW267318   6.594   1.618   0.483  0.3100 -0.6543 -1.4472
21305SOL     OW67319  10.807  10.875   0.211 -0.6249 -0.7442  0.0322
21305SOL    HW167320  10.749  10.860   0.137 -0.2850  0.3081 -0.4656
21305SOL    HW267321  10.749  10.891   0.285 -0.9638 -0.6646 -0.2530
21306SOL     OW67322   1.578   9.406   9.179  0.7375 -0.2321  0.1506
21306SOL    HW167323   1.572   9.494   9.141  0.6846 -1.2532 -2.3519
21306SOL    HW267324   1.498   9.361   9.150  0.5796 -0.9872  1.7131
21307SOL     OW67325   0.196   6.810   1.433 -0.8861  0.5338 -0.3066
21307SOL    HW167326   0.156   6.868   1.367  2.2883  3.6518  0.3497
21307SOL    HW267327   0.176   6.852   1.517  0.4139  0.0078  0.2748
21308SOL     OW67328   8.207   6.073   6.313 -0.3126  0.0875  0.3387
21308SOL    HW167329   8.198   6.161   6.348  0.7879  0.0612  0.7256
21308SOL    HW267330   8.244   6.086   6.225 -0.4118  0.0245  0.2868
21309SOL     OW67331   9.861   5.912   3.252 -0.2579  0.1251 -0.3964
21309SOL    HW167332   9.895   5.951   3.172  0.0956 -0.8560 -0.7213
21309SOL    HW267333   9.769   5.939   3.255  0.7162  3.6164  0.9837
21310SOL     OW67334   3.023  10.629   3.670  0.3542 -0.4100  0.4603
21310SOL    HW167335   3.030  10.678   3.588  0.2701  0.4869  0.9820
21310SOL    HW267336   3.102  10.576   3.673  1.9594  1.9133  1.3084
21311SOL     OW67337  10.648  10.634   9.584  0.1232  0.2218 -0.5275
21311SOL    HW167338  10.721  10.696   9.582  1.8158 -1.7392 -1.0239
21311SOL    HW267339  10.574  10.686   9.612  1.5552  2.4330 -0.7032
21312SOL     OW67340  10.221   8.157   2.209  0.3627 -0.6057  0.1117
21312SOL    HW167341  10.210   8.063   2.222  1.1336 -0.7991 -0.5229
21312SOL    HW267342  10.236   8.166   2.114  1.8003 -0.0212  0.3765
21313SOL     OW67343   7.987   1.760   2.806 -0.1436  0.1676  0.5809
21313SOL    HW167344   8.046   1.708   2.860  2.4442  2.2304 -0.1511
21313SOL    HW267345   7.958   1.831   2.863  0.9330  1.1681 -0.0999
21314SOL     OW67346   9.425   5.042   4.871 -0.3702 -0.1299 -0.2522
21314SOL    HW167347   9.462   5.120   4.912  0.5386 -0.7307  0.0737
21314SOL    HW267348   9.381   4.996   4.943  0.4463 -0.7198 -0.1238
21315SOL     OW67349   5.496   2.323   8.922  0.0185 -0.1962 -0.4543
21315SOL    HW167350   5.401   2.322   8.935 -0.1165 -0.4987 -1.4582
21315SOL    HW267351   5.522   2.231   8.921  0.3616 -0.1073  0.1013
21316SOL     OW67352  10.629   8.866   6.925 -0.2409 -0.2685 -0.1901
21316SOL    HW167353  10.652   8.871   6.832 -1.8268 -0.2857 -0.6009
21316SOL    HW267354  10.630   8.957   6.954 -1.9016 -0.0347 -0.7905
21317SOL     OW67355   3.098   3.972   6.272 -0.2499  0.2569  0.1170
21317SOL    HW167356   3.124   3.911   6.203  0.4621 -1.0719  1.5396
21317SOL    HW267357   3.080   4.054   6.226  0.8519 -0.4251 -1.5650
21318SOL     OW67358   7.443   9.109   3.565  0.1097  0.9706  0.1439
21318SOL    HW167359   7.375   9.050   3.534 -0.3309  1.2462  0.5701
21318SOL    HW267360   7.396   9.187   3.595  0.4614  0.4890  2.0368
21319SOL     OW67361   8.200   9.747  10.159 -0.0623  0.4699  0.1675
21319SOL    HW167362   8.130   9.714  10.103  0.7986 -0.9272 -0.0967
21319SOL    HW267363   8.208   9.840  10.135 -0.6389  0.2208 -1.0252
21320SOL     OW67364  10.257   0.867   0.473  0.1323  0.4649  0.4789
21320SOL    HW167365  10.194   0.801   0.500 -0.4491 -0.3333 -2.6273
21320SOL    HW267366  10.209   0.949   0.476  0.0969  0.3948  1.8584
21321SOL     OW67367   5.252   1.100   0.446  0.0180  0.3734  0.2595
21321SOL    HW167368   5.206   1.057   0.374 -0.4882 -0.9637  1.3537
21321SOL    HW267369   5.313   1.033   0.479 -0.7611  0.4766  1.9667
21322SOL     OW67370   8.725   7.875   7.857  0.3223 -0.0633 -0.1995
21322SOL    HW167371   8.711   7.788   7.819 -0.5775  0.5167 -1.2429
21322SOL    HW267372   8.813   7.872   7.894  0.4159 -1.3159 -0.5216
21323SOL     OW67373  10.007   0.147   8.725 -0.8075  0.2121 -0.3359
21323SOL    HW167374  10.069   0.217   8.744 -1.1669  0.5762 -0.5064
21323SOL    HW267375  10.060   0.067   8.729 -1.0329  0.1487  3.1050
21324SOL     OW67376   9.357   6.952   1.319  0.4905  0.8442 -0.1227
21324SOL    HW167377   9.276   6.926   1.365  2.0634 -1.5104  1.4192
21324SOL    HW267378   9.351   6.909   1.234  0.0162  0.8906 -0.1175
21325SOL     OW67379   8.460   4.011   5.520  0.4082  0.0692  0.0377
21325SOL    HW167380   8.443   4.063   5.599 -0.0797  1.0688 -0.7065
21325SOL    HW267381   8.491   4.075   5.457  1.5485 -0.8569 -0.3492
21326SOL     OW67382   6.477   5.462   7.660 -0.1158 -0.0313  0.0000
21326SOL    HW167383   6.402   5.437   7.605  0.0540  0.3761 -0.4185
21326SOL    HW267384   6.542   5.394   7.645  0.4170  0.7353 -1.2806
21327SOL     OW67385   5.545   2.118   0.795 -0.3554 -0.9725 -0.3230
21327SOL    HW167386   5.526   2.183   0.727  1.7821 -0.3688 -0.3771
21327SOL    HW267387   5.523   2.162   0.877  1.1711 -0.1349 -0.3545
21328SOL     OW67388   1.941   2.434   1.116 -0.3290  0.6749 -0.2857
21328SOL    HW167389   1.868   2.391   1.158 -0.7112  0.9851 -0.6290
21328SOL    HW267390   2.009   2.439   1.184 -0.1561 -0.7589 -0.3485
21329SOL     OW67391  10.784   3.024   2.743  0.0933 -0.6072  0.5882
21329SOL    HW167392  10.751   2.976   2.666  2.2966  1.4330 -1.7155
21329SOL    HW267393  10.856   2.971   2.775  0.5339 -0.4019 -0.0581
21330SOL     OW67394   8.531   4.170   5.316  0.4473 -0.2702 -0.4791
21330SOL    HW167395   8.608   4.167   5.260  0.6783 -0.0334 -0.1751
21330SOL    HW267396   8.481   4.246   5.285 -1.0955 -2.0737 -2.5388
21331SOL     OW67397   9.275   7.706   3.874 -0.3039 -0.5780  0.5573
21331SOL    HW167398   9.237   7.696   3.787 -1.9263  1.3867  0.9963
21331SOL    HW267399   9.296   7.799   3.881  3.1811 -1.3390  0.9526
21332SOL     OW67400  10.920   6.991   3.405  0.1536  1.2325 -0.0853
21332SOL    HW167401  10.916   7.066   3.344 -0.3430  2.0240  0.9119
21332SOL    HW267402  10.896   7.028   3.490 -0.3161 -0.1207  0.3701
21333SOL     OW67403   4.119   4.221   8.420 -0.3799  0.2530 -0.0247
21333SOL    HW167404   4.214   4.230   8.412 -0.1589 -1.5806  0.4816
21333SOL    HW267405   4.088   4.214   8.329  0.2420 -1.6737 -0.1105
21334SOL     OW67406   0.125   4.529   9.208 -0.5011  0.7129  0.0891
21334SOL    HW167407   0.147   4.605   9.154  1.5170 -1.5095 -2.3533
21334SOL    HW267408   0.205   4.476   9.209 -2.2197 -1.9754  0.6876
21335SOL     OW67409   5.033   6.064  10.953  0.3519  0.0747 -0.0965
21335SOL    HW167410   5.028   6.021  10.867  0.5184  1.1832 -0.6756
21335SOL    HW267411   4.988   6.148  10.940  2.7051  1.4002  0.1788
21336SOL     OW67412   7.640   5.819   8.933 -0.5699 -0.2429 -0.1010
21336SOL    HW167413   7.710   5.756   8.918 -1.3873 -0.8216 -1.5687
21336SOL    HW267414   7.638   5.831   9.028  0.0523 -1.8779  0.1268
21337SOL     OW67415   0.990   8.545   0.914  0.4328 -0.2618  0.1686
21337SOL    HW167416   0.997   8.480   0.844  1.9695  0.2912 -0.2145
21337SOL    HW267417   1.053   8.516   0.980  1.0953  0.7949  0.0127
21338SOL     OW67418  10.615   8.172   6.381  0.2879  0.1004  0.0718
21338SOL    HW167419  10.705   8.196   6.401  0.0272  2.0228 -0.9812
21338SOL    HW267420  10.564   8.249   6.406 -0.5870  0.6535 -3.1860
21339SOL     OW67421   0.393   1.455   7.825  0.0088 -0.0803  0.5110
21339SOL    HW167422   0.487   1.440   7.818 -0.1767 -0.3961 -1.6415
21339SOL    HW267423   0.378   1.476   7.917  1.9735 -1.4195  1.1521
21340SOL     OW67424   9.891   0.247   7.713  0.6413 -0.4466  0.1327
21340SOL    HW167425   9.842   0.280   7.638 -0.2551  1.5907  1.5710
21340SOL    HW267426   9.982   0.267   7.694  0.2788  1.2809  0.1890
21341SOL     OW67427   8.082   4.581   3.848  0.5329  0.5732 -0.1901
21341SOL    HW167428   8.161   4.572   3.901  0.7788 -0.1552 -0.6773
21341SOL    HW267429   8.013   4.603   3.911  0.9173  0.1760  0.3680
21342SOL     OW67430   7.364   7.783  10.157  0.1022  0.3323  0.1185
21342SOL    HW167431   7.294   7.792  10.222 -0.7592  1.6385 -0.9650
21342SOL    HW267432   7.378   7.872  10.124  0.0218 -0.4160 -2.0115
21343SOL     OW67433   7.508   4.228   8.773 -0.9954  0.6514 -0.2947
21343SOL    HW167434   7.545   4.152   8.728  1.0804  1.5380 -0.1528
21343SOL    HW267435   7.525   4.301   8.714 -2.1131  1.1514  0.0009
21344SOL     OW67436   5.320   2.321   3.027  0.0408  0.0956  0.2046
21344SOL    HW167437   5.291   2.240   2.983  0.7941 -0.3924  0.5979
21344SOL    HW267438   5.304   2.390   2.962 -2.3458 -0.0917  0.5244
21345SOL     OW67439   0.998   7.503   3.152 -0.4404  0.1313 -0.5751
21345SOL    HW167440   0.939   7.431   3.177  0.4743 -0.5229 -0.2866
21345SOL    HW267441   1.070   7.498   3.214 -0.8819  1.9782  0.1280
21346SOL     OW67442   2.369   4.447   9.618  0.4987  0.3327 -0.6135
21346SOL    HW167443   2.342   4.469   9.528 -1.1696  0.1607 -0.1825
21346SOL    HW267444   2.343   4.356   9.628  1.7922 -0.0053 -0.3523
21347SOL     OW67445   2.510   0.358   1.244 -0.5114  0.0659  0.1528
21347SOL    HW167446   2.451   0.337   1.317 -0.5299 -0.2152  0.0539
21347SOL    HW267447   2.540   0.447   1.264 -0.5897  0.0264  0.4561
21348SOL     OW67448   4.307   4.578   4.808 -0.2887  0.4758 -0.1190
21348SOL    HW167449   4.228   4.536   4.772  1.3662 -0.4169 -2.8710
21348SOL    HW267450   4.318   4.657   4.755  0.5418  0.7225  0.4079
21349SOL     OW67451   4.610   5.704   9.011 -0.2825  0.3286  0.5379
21349SOL    HW167452   4.565   5.753   9.080  0.4415 -0.2232  1.4284
21349SOL    HW267453   4.633   5.621   9.052  1.0786  0.3964 -0.0346
21350SOL     OW67454   4.482   4.395   2.495 -0.3383  0.2950  0.1328
21350SOL    HW167455   4.568   4.431   2.518 -0.1783 -0.8546  1.3590
21350SOL    HW267456   4.431   4.400   2.576 -0.9584 -0.3805 -0.2131
21351SOL     OW67457   4.577   5.762   5.765 -0.0909 -0.0239 -0.1893
21351SOL    HW167458   4.641   5.753   5.835 -0.2385  2.0316  0.2665
21351SOL    HW267459   4.620   5.726   5.688  1.6257  1.2515  0.1274
21352SOL     OW67460   0.619   7.007   0.311  0.0021 -0.2706 -0.5067
21352SOL    HW167461   0.672   7.087   0.310  0.8296 -0.8054 -0.4186
21352SOL    HW267462   0.542   7.028   0.259 -0.1531  0.8370  0.1727
21353SOL     OW67463   1.308   6.004   8.825  0.1165  0.4907 -0.0487
21353SOL    HW167464   1.250   5.928   8.830  0.3326  0.3448  0.2924
21353SOL    HW267465   1.396   5.966   8.829  0.2165  0.8248  0.9964
21354SOL     OW67466   9.133   0.996   4.374 -0.1210 -0.1882  0.4536
21354SOL    HW167467   9.171   1.081   4.350 -1.0054 -0.5416 -2.3471
21354SOL    HW267468   9.205   0.949   4.416  1.2084  0.8958 -0.5367
21355SOL     OW67469  10.587  10.448   8.928 -0.0963  0.2149  0.0949
21355SOL    HW167470  10.673  10.410   8.940  0.2902  0.6220 -1.2280
21355SOL    HW267471  10.595  10.500   8.848 -1.0821  1.6499  0.9037
21356SOL     OW67472   0.497   7.021   2.131  0.1591  0.3919 -0.0966
21356SOL    HW167473   0.509   6.927   2.120 -0.0967  0.2679  0.6596
21356SOL    HW267474   0.487   7.033   2.225  0.9068  1.2630 -0.1181
21357SOL     OW67475   4.513   4.935   8.099  0.0177 -0.2706  0.6361
21357SOL    HW167476   4.437   4.969   8.053  0.2727 -0.2406  0.2418
21357SOL    HW267477   4.586   4.944   8.038 -0.4435 -4.3482 -0.6547
21358SOL     OW67478   3.882  10.174   2.582  0.0916  0.0783 -0.1288
21358SOL    HW167479   3.884  10.245   2.518  0.5000 -1.5155 -1.9143
21358SOL    HW267480   3.910  10.097   2.533 -1.8444 -1.6366  1.3861
21359SOL     OW67481   5.373   4.674   0.986 -0.4386  0.1010 -0.0659
21359SOL    HW167482   5.469   4.673   0.975 -0.6211 -0.5132 -1.7557
21359SOL    HW267483   5.348   4.582   0.981 -1.2709  0.3807 -1.1270
21360SOL     OW67484   5.798   8.715   1.510 -0.1096  0.4527  0.0177
21360SOL    HW167485   5.841   8.630   1.511 -1.1711 -0.0867  0.1712
21360SOL    HW267486   5.705   8.695   1.515 -0.3872  1.6046 -0.3978
21361SOL     OW67487   6.340   0.556   9.856  0.2262 -0.8477  0.1052
21361SOL    HW167488   6.249   0.581   9.871  0.5897 -0.4567  1.7793
21361SOL    HW267489   6.338   0.460   9.852 -0.1708 -0.8746  0.8173
21362SOL     OW67490   2.805  10.184   5.328  0.3231 -0.1775 -0.3968
21362SOL    HW167491   2.893  10.153   5.349  0.4827  0.8836  0.5403
21362SOL    HW267492   2.816  10.276   5.304 -0.4947 -0.1025 -0.5251
21363SOL     OW67493   7.145   3.754   0.524  1.0758  0.3251  0.1348
21363SOL    HW167494   7.238   3.773   0.512  1.0098  0.8546  0.4709
21363SOL    HW267495   7.119   3.805   0.600  0.3394  0.7355 -0.3787
21364SOL     OW67496   8.629   3.774   3.415  0.3495 -0.0496 -0.3479
21364SOL    HW167497   8.693   3.707   3.438  0.7487  0.9379  1.5581
21364SOL    HW267498   8.628   3.775   3.320  1.9612 -1.2290 -0.3958
21365SOL     OW67499   4.950   2.778   2.724  0.1317  0.2914 -0.1163
21365SOL    HW167500   4.976   2.686   2.722  0.3459  0.3278  0.6336
21365SOL    HW267501   4.917   2.796   2.636 -1.1863 -0.8682  0.1321
21366SOL     OW67502   9.553   8.229   9.105  0.3887 -0.7980 -0.2796
21366SOL    HW167503   9.536   8.320   9.132  1.2081 -0.0548 -2.1966
21366SOL    HW267504   9.624   8.200   9.161 -0.5848 -0.6264  1.0739
21367SOL     OW67505   8.564   5.263   5.950 -0.1921 -0.5573 -0.7969
21367SOL    HW167506   8.472   5.286   5.962  0.2969  1.4301 -0.6971
21367SOL    HW267507   8.602   5.268   6.038  0.4967  0.8820 -1.1643
21368SOL     OW67508  10.719   1.967   4.639 -1.0336 -0.2051  0.3178
21368SOL    HW167509  10.728   2.032   4.569  1.4767  0.3589  1.1120
21368SOL    HW267510  10.670   2.014   4.708  1.1438  1.0393  1.0653
21369SOL     OW67511   9.824   7.440   2.364  0.4500 -0.5365  0.7293
21369SOL    HW167512   9.850   7.493   2.439 -0.0906  0.1042  0.4610
21369SOL    HW267513   9.734   7.413   2.384  0.4027 -0.5923  0.4327
21370SOL     OW67514  10.702   6.595   4.366 -0.0764 -0.0200  0.3735
21370SOL    HW167515  10.749   6.658   4.422  0.6140 -0.5329  0.3893
21370SOL    HW267516  10.610   6.618   4.375  0.2582  1.7032 -0.5129
21371SOL     OW67517   2.331   4.872   5.694 -0.3716 -0.3835  0.5780
21371SOL    HW167518   2.390   4.929   5.646  0.1372  0.7674  2.5160
21371SOL    HW267519   2.387   4.822   5.752 -0.9341 -2.0686 -0.2944
21372SOL     OW67520   6.059   7.363   8.817 -0.1111  0.0561  0.0620
21372SOL    HW167521   5.979   7.353   8.765  1.5417  1.4553 -2.8736
21372SOL    HW267522   6.120   7.298   8.781  1.1251  1.1370  0.1677
21373SOL     OW67523  10.603   2.438   1.650  0.0037  0.5723 -0.2280
21373SOL    HW167524  10.660   2.366   1.625 -0.5998  0.2755 -0.7772
21373SOL    HW267525  10.530   2.433   1.588 -0.6333  0.9222  0.4926
21374SOL     OW67526   1.782   5.702   3.573 -0.1608  0.3708  0.2073
21374SOL    HW167527   1.791   5.618   3.527  2.9268  0.9395 -0.3810
21374SOL    HW267528   1.793   5.679   3.666 -2.0494 -0.2174  0.2920
21375SOL     OW67529   4.293   5.644   7.335 -0.2527 -0.1917  0.2636
21375SOL    HW167530   4.297   5.663   7.241 -1.3228  1.7729  0.5894
21375SOL    HW267531   4.209   5.599   7.347 -0.5249  0.3458  0.3985
21376SOL     OW67532   3.277   9.194   0.419 -0.3640 -0.4826  0.0166
21376SOL    HW167533   3.308   9.260   0.482  0.8461 -1.1574  0.1342
21376SOL    HW267534   3.322   9.216   0.338  0.2063 -1.2837  0.1094
21377SOL     OW67535   1.337   1.677   6.877  0.2882  0.3707  0.1948
21377SOL    HW167536   1.271   1.718   6.932  0.1546 -0.4514  0.6580
21377SOL    HW267537   1.299   1.594   6.851  1.6622 -0.7592  1.6294
21378SOL     OW67538   8.409   4.941   7.373 -0.2891  0.2689  0.2403
21378SOL    HW167539   8.368   5.011   7.424  0.7160  1.5539 -0.6888
21378SOL    HW267540   8.457   4.987   7.304  1.6121 -1.2611  0.5188
21379SOL     OW67541   6.562  10.365  10.193  0.3008 -0.0996 -0.4585
21379SOL    HW167542   6.480  10.412  10.210  0.6674  1.2168 -2.2520
21379SOL    HW267543   6.539  10.300  10.127  0.0295 -1.8616  1.2970
21380SOL     OW67544   4.998   6.776   8.566  0.1615 -0.0179 -0.2649
21380SOL    HW167545   5.019   6.868   8.583  0.0091  0.4161 -2.2741
21380SOL    HW267546   5.054   6.752   8.492  0.1420 -1.5391  0.1748
21381SOL     OW67547  10.256   6.641   4.860 -0.1167 -0.1505  0.4359
21381SOL    HW167548  10.342   6.645   4.903 -0.0783 -0.0383  0.3498
21381SOL    HW267549  10.215   6.563   4.897 -0.3793  0.3610  1.2307
21382SOL     OW67550   2.280   3.266   3.637  0.9262 -0.1756  0.0088
21382SOL    HW167551   2.285   3.323   3.714 -0.1445  0.6746 -0.5209
21382SOL    HW267552   2.192   3.282   3.601  0.7942 -1.7934 -0.4455
21383SOL     OW67553   4.240  10.086   0.342  0.6458  0.1745  0.6905
21383SOL    HW167554   4.240  10.088   0.438  0.8834 -1.3688  0.7434
21383SOL    HW267555   4.219   9.995   0.320 -2.0843  1.1079 -0.7707
21384SOL     OW67556   5.137   5.492   7.755  0.2645  0.2372  1.0139
21384SOL    HW167557   5.130   5.492   7.851  0.7187  0.7288  1.0458
21384SOL    HW267558   5.051   5.461   7.726  0.1344  0.0486  1.5803
21385SOL     OW67559   1.920   4.407   6.169 -0.4144  0.3247 -0.1256
21385SOL    HW167560   1.858   4.394   6.097  3.1105  0.8518 -3.4515
21385SOL    HW267561   1.948   4.498   6.161 -1.8001  1.1751  3.5810
21386SOL     OW67562   1.014   6.811   0.574  0.1372 -0.2226 -0.3095
21386SOL    HW167563   0.963   6.742   0.533  1.6752 -1.0464 -0.8876
21386SOL    HW267564   1.092   6.819   0.518  0.5406  1.1412  0.4321
21387SOL     OW67565   9.017   4.936   8.932 -0.3103  0.3448  0.3984
21387SOL    HW167566   8.931   4.963   8.966 -1.9453 -1.7881 -1.8741
21387SOL    HW267567   9.044   5.008   8.875 -0.8944  0.7283  0.5941
21388SOL     OW67568  10.590   3.323   1.753  0.2084  0.7011 -0.1248
21388SOL    HW167569  10.579   3.251   1.815  0.9003  0.6557 -0.0446
21388SOL    HW267570  10.651   3.383   1.797 -0.1490  1.1997 -0.3040
21389SOL     OW67571   8.731   3.718   8.409 -0.3175  0.0392  0.2084
21389SOL    HW167572   8.686   3.673   8.481 -1.8333  1.9648  0.5113
21389SOL    HW267573   8.808   3.756   8.449  1.2130 -2.5684 -0.1338
21390SOL     OW67574   7.842   2.376   6.232  0.3949 -0.2883 -0.2537
21390SOL    HW167575   7.924   2.347   6.273  0.8852 -0.7422 -1.5276
21390SOL    HW267576   7.846   2.340   6.143 -0.8435  0.3287 -0.5660
21391SOL     OW67577   4.240   5.904   4.838 -0.2795 -0.1713  0.1722
21391SOL    HW167578   4.210   5.832   4.783 -1.1779 -0.3983  0.9460
21391SOL    HW267579   4.325   5.875   4.873 -0.4609 -0.6939  0.1759
21392SOL     OW67580   7.755   6.255   4.140 -0.2319 -0.5313  0.0838
21392SOL    HW167581   7.748   6.220   4.051 -0.1548 -1.3952  0.4163
21392SOL    HW267582   7.665   6.262   4.171 -0.4430  2.1819 -0.9762
21393SOL     OW67583   2.725   6.019   3.015 -0.3283  0.4253 -0.3893
21393SOL    HW167584   2.659   6.088   3.005 -1.2386 -0.7770 -3.5112
21393SOL    HW267585   2.677   5.945   3.051  0.0124  0.4921  0.2130
21394SOL     OW67586   5.634   1.068   7.971 -0.3490 -0.0223  0.8196
21394SOL    HW167587   5.635   1.154   7.928 -1.7001  0.0973  0.9976
21394SOL    HW267588   5.554   1.069   8.024 -0.5130 -1.4881  0.6137
21395SOL     OW67589   6.716   7.949   8.323  0.1790  0.5348 -0.6345
21395SOL    HW167590   6.658   8.013   8.281  0.5945 -0.1669 -2.3326
21395SOL    HW267591   6.799   7.995   8.332 -0.5079  1.4113  1.4400
21396SOL     OW67592   9.126   8.427   5.208  0.7836 -0.2214 -0.1935
21396SOL    HW167593   9.143   8.516   5.176 -0.5796  0.6622  1.4552
21396SOL    HW267594   9.206   8.378   5.187  1.6906  1.4871 -0.8036
21397SOL     OW67595   0.429   4.694   8.156 -0.3543 -0.5406  0.3247
21397SOL    HW167596   0.512   4.701   8.108 -0.9384 -0.5692 -0.7121
21397SOL    HW267597   0.366   4.740   8.100 -1.1899 -1.1884  0.7306
21398SOL     OW67598   0.445   1.364   6.382 -0.1120  0.7481 -0.4202
21398SOL    HW167599   0.491   1.431   6.332  0.3705  1.2672  0.6905
21398SOL    HW267600   0.499   1.286   6.372 -0.2836  0.7172 -1.1133
21399SOL     OW67601  10.570   8.688   5.298 -0.0720  0.5184  0.0366
21399SOL    HW167602  10.550   8.600   5.267  1.5867  0.0875  0.1692
21399SOL    HW267603  10.560   8.682   5.393 -2.1421  1.0625 -0.1181
21400SOL     OW67604   9.028   1.577   1.247  1.0815 -0.4425 -0.2676
21400SOL    HW167605   9.056   1.629   1.322 -1.5471 -1.2720  1.3809
21400SOL    HW267606   9.051   1.487   1.271  0.4551 -0.6837 -0.5566
21401SOL     OW67607  10.815   8.304   6.017  0.1542 -0.1865  0.1427
21401SOL    HW167608  10.737   8.348   6.049 -0.2104  0.0436 -1.0486
21401SOL    HW267609  10.793   8.211   6.019  0.3033 -0.2062  0.9982
21402SOL     OW67610   3.964   2.156   1.168  0.3872  0.3420 -0.3292
21402SOL    HW167611   3.990   2.179   1.257  2.4769  0.7875 -1.0385
21402SOL    HW267612   4.002   2.070   1.153 -0.3869  0.0487 -0.6181
21403SOL     OW67613   0.646   7.029   4.496  0.0813 -0.0553  0.6979
21403SOL    HW167614   0.625   7.080   4.418 -0.0551 -2.9378 -1.2314
21403SOL    HW267615   0.737   7.004   4.485 -0.0363 -0.7810  1.2903
21404SOL     OW67616   8.097   2.316   6.300 -0.1117  0.1314  0.1213
21404SOL    HW167617   8.181   2.297   6.341  0.3585 -2.8865 -2.0401
21404SOL    HW267618   8.119   2.357   6.216 -0.8629  0.8799  0.2821
21405SOL     OW67619   8.086   9.728   6.799  0.0438  0.5188  0.2790
21405SOL    HW167620   8.074   9.814   6.760 -1.8107 -0.1507 -0.6965
21405SOL    HW267621   8.181   9.716   6.803  0.3056  2.2858 -0.2508
21406SOL     OW67622  10.955   7.572   8.118  0.3727 -0.2431 -0.3898
21406SOL    HW167623  10.961   7.570   8.023  2.6205  1.5299 -0.3186
21406SOL    HW267624  11.031   7.624   8.146 -1.5114  1.2079  2.2341
21407SOL     OW67625   9.875   2.690   3.517  0.5316  0.2848  0.1545
21407SOL    HW167626   9.919   2.643   3.587  0.1095 -1.6753 -0.8715
21407SOL    HW267627   9.942   2.701   3.450  1.0566  2.5402  1.0014
21408SOL     OW67628   0.667   5.683   8.469  0.5328  0.0621  0.5770
21408SOL    HW167629   0.733   5.628   8.427 -0.8633 -1.5158  0.4182
21408SOL    HW267630   0.586   5.632   8.464 -0.8237  2.1752  0.3212
21409SOL     OW67631  10.787   5.243  10.352 -0.4281 -0.3920  0.5315
21409SOL    HW167632  10.831   5.165  10.318  2.9033  1.1122  1.1931
21409SOL    HW267633  10.798   5.237  10.447 -2.0881 -0.1976  0.7493
21410SOL     OW67634   3.680  10.099  10.132  0.1382 -0.6966  0.0327
21410SOL    HW167635   3.720  10.032  10.077  0.5794 -0.1933 -0.2586
21410SOL    HW267636   3.585  10.087  10.120  0.2092 -1.4376  0.1918
21411SOL     OW67637   4.716   6.841   0.405 -0.3256 -0.1467  0.0450
21411SOL    HW167638   4.740   6.754   0.373  1.0158  0.0933  0.3833
21411SOL    HW267639   4.651   6.873   0.342  0.9339 -0.4165 -1.4123
21412SOL     OW67640   5.655   7.239   6.483 -0.1403  0.4877  0.4451
21412SOL    HW167641   5.620   7.298   6.416 -1.1432 -0.7712 -0.1452
21412SOL    HW267642   5.621   7.276   6.565 -1.2997  0.3843  0.0291
21413SOL     OW67643   7.221   2.238   9.893  0.1997 -0.3015 -0.4199
21413SOL    HW167644   7.271   2.282   9.962  1.3506 -0.4637 -1.1464
21413SOL    HW267645   7.180   2.309   9.843  0.4217 -0.1336 -0.3647
21414SOL     OW67646   3.312   6.961   4.751  0.2992 -0.7113 -0.0165
21414SOL    HW167647   3.240   7.021   4.771 -0.3582 -1.2481 -0.6957
21414SOL    HW267648   3.389   7.000   4.791 -0.2824  0.1459  0.2717
21415SOL     OW67649   0.480   4.520   7.793 -0.1346  0.2282 -0.2520
21415SOL    HW167650   0.496   4.487   7.881  1.2828  0.9954 -0.2131
21415SOL    HW267651   0.428   4.599   7.806  0.6805  0.7333 -0.0618
21416SOL     OW67652   2.928   6.255   6.823  0.1501 -0.0862  0.3286
21416SOL    HW167653   2.871   6.237   6.748 -1.7919  1.3527  1.4184
21416SOL    HW267654   2.970   6.338   6.801  1.1646 -0.6919 -0.0634
21417SOL     OW67655   1.657   0.560   9.206 -0.2812 -0.1093  0.2674
21417SOL    HW167656   1.622   0.571   9.294  0.3134  0.1645  0.4659
21417SOL    HW267657   1.623   0.635   9.157 -1.8990 -1.0936 -0.1423
21418SOL     OW67658   4.310   3.407   7.811  0.0803 -0.0688 -0.0668
21418SOL    HW167659   4.369   3.403   7.736  0.3853  1.6296  0.0775
21418SOL    HW267660   4.264   3.490   7.801  1.9274  1.3977  2.9877
21419SOL     OW67661   9.917   1.417   0.311 -0.1623 -0.6900  0.4984
21419SOL    HW167662   9.881   1.468   0.385 -0.1075 -0.3897  0.3193
21419SOL    HW267663   9.840   1.381   0.268 -0.1167 -2.0932  1.5768
21420SOL     OW67664  10.668   5.722   4.462  0.2021  0.1990  0.4246
21420SOL    HW167665  10.608   5.650   4.440  0.7518  0.4554 -2.1215
21420SOL    HW267666  10.647   5.790   4.398  1.8159  1.0672  0.8167
21421SOL     OW67667   8.973  10.266   1.699 -0.0609 -0.1989  0.1604
21421SOL    HW167668   8.986  10.348   1.652  0.1096 -0.1835  0.2375
21421SOL    HW267669   9.061  10.229   1.708 -0.1415 -0.4105  0.0866
21422SOL     OW67670   0.194   9.316   7.330 -0.1146 -0.2316 -0.2879
21422SOL    HW167671   0.211   9.410   7.323  0.2168 -0.2444  0.3092
21422SOL    HW267672   0.229   9.292   7.415  0.1040 -0.9692 -0.5857
21423SOL     OW67673   6.576  10.098   7.264 -0.0103 -0.1730 -0.1670
21423SOL    HW167674   6.607  10.187   7.244 -0.1893 -0.4032 -1.4593
21423SOL    HW267675   6.641  10.041   7.224  0.7975 -0.6490  1.7409
21424SOL     OW67676   5.106   9.919   2.121  0.1063  0.0315 -0.0913
21424SOL    HW167677   5.186   9.969   2.137  1.3102 -2.0707  0.5453
21424SOL    HW267678   5.123   9.833   2.157 -1.5303 -1.2261 -2.1790
21425SOL     OW67679   8.668   1.482   2.194 -0.0470  0.2380 -0.5618
21425SOL    HW167680   8.656   1.452   2.284 -1.1393  0.8914 -0.4821
21425SOL    HW267681   8.651   1.405   2.140 -2.5548  0.5984 -0.3471
21426SOL     OW67682   3.866   9.263   4.130 -0.5783  0.0911 -0.7544
21426SOL    HW167683   3.797   9.276   4.066 -0.8798  1.6520 -0.1340
21426SOL    HW267684   3.820   9.256   4.214 -0.1215 -0.9182 -0.5805
21427SOL     OW67685   0.627   7.203   4.922  0.0458  0.6509 -0.0087
21427SOL    HW167686   0.601   7.185   5.013 -1.0492 -0.9315 -0.6039
21427SOL    HW267687   0.553   7.250   4.884  0.3198  0.9317 -0.1934
21428SOL     OW67688   6.871   3.907   2.269  0.2926 -0.2314  0.1914
21428SOL    HW167689   6.882   3.833   2.329 -0.0232 -0.7038 -0.3213
21428SOL    HW267690   6.785   3.944   2.292 -0.2308 -0.9579 -0.5422
21429SOL     OW67691   2.079   0.382   3.013 -0.0057 -0.0134 -0.1581
21429SOL    HW167692   2.144   0.364   3.082  1.2497 -1.5742 -1.7009
21429SOL    HW267693   2.094   0.474   2.990 -0.7320  0.6544  1.9196
21430SOL     OW67694   7.694   4.672  10.797  0.1037  0.3800  0.2716
21430SOL    HW167695   7.783   4.699  10.818 -1.1520  2.8473  2.6986
21430SOL    HW267696   7.670   4.610  10.865  0.0458 -0.4829 -0.5273
21431SOL     OW67697   1.822   2.300   5.051 -0.4632  0.3442  0.1366
21431SOL    HW167698   1.814   2.388   5.088  3.1156  1.1093 -0.6885
21431SOL    HW267699   1.902   2.265   5.091 -0.3048 -1.4512 -1.6801
21432SOL     OW67700   5.113   3.120   5.781 -0.3206  0.0019 -0.6595
21432SOL    HW167701   5.081   3.064   5.710  1.1105 -0.6448 -0.8060
21432SOL    HW267702   5.098   3.209   5.749  2.7735 -0.2278 -3.0020
21433SOL     OW67703   1.386   7.590   9.540  0.2557  0.8520  0.4094
21433SOL    HW167704   1.358   7.634   9.460  0.8172 -0.2341 -0.4016
21433SOL    HW267705   1.447   7.523   9.510 -0.0096  0.0172  1.6851
21434SOL     OW67706   1.117  10.441   1.314 -0.4150  0.3113 -0.7212
21434SOL    HW167707   1.180  10.426   1.384 -1.0289  2.6887  0.3637
21434SOL    HW267708   1.155  10.510   1.261  0.0307 -1.4483 -2.7803
21435SOL     OW67709   1.224   1.590   8.400  0.2434  0.2487 -0.4029
21435SOL    HW167710   1.293   1.533   8.435  0.9579  1.1251 -0.3744
21435SOL    HW267711   1.268   1.640   8.331 -0.1341  1.4549  0.2169
21436SOL     OW67712   1.033   4.779   8.472 -0.6039  0.0937 -0.7176
21436SOL    HW167713   1.027   4.831   8.392 -0.6647  0.5958 -0.3914
21436SOL    HW267714   0.998   4.837   8.540  2.5599  0.9504  0.2689
21437SOL     OW67715   5.874   3.931   7.672 -0.9732 -0.5663 -0.1145
21437SOL    HW167716   5.788   3.969   7.694 -0.0701  1.2126  0.4533
21437SOL    HW267717   5.901   3.886   7.752 -1.2941 -0.9824 -0.2372
21438SOL     OW67718   0.836   5.608   3.161  0.4718 -0.5373 -0.3159
21438SOL    HW167719   0.803   5.632   3.074  1.1744 -1.0267 -0.7143
21438SOL    HW267720   0.758   5.582   3.209  0.0023  0.2676 -0.6193
21439SOL     OW67721   1.937   4.919  10.960 -0.1785  0.1813  0.2579
21439SOL    HW167722   1.887   4.880  10.888  0.4604 -2.0108  0.9407
21439SOL    HW267723   2.028   4.918  10.930 -0.3363  2.8523 -0.4162
21440SOL     OW67724   2.111   2.319   9.432 -0.2771  0.1781  0.5087
21440SOL    HW167725   2.162   2.304   9.352  0.5454 -0.0249  1.0610
21440SOL    HW267726   2.150   2.261   9.497 -0.2196  1.1337  1.3558
21441SOL     OW67727   8.649   9.882   0.401  0.5872  0.9515  0.1638
21441SOL    HW167728   8.712   9.810   0.403 -0.5911 -0.0710  2.6487
21441SOL    HW267729   8.564   9.839   0.395 -0.0764  2.1922  0.5522
21442SOL     OW67730   4.420  10.245   4.242  0.7568  0.0952  0.0384
21442SOL    HW167731   4.372  10.267   4.323 -1.3473 -1.7013 -0.6461
21442SOL    HW267732   4.500  10.296   4.247 -0.3165  1.6727  2.2435
21443SOL     OW67733   9.228   5.370  10.113 -0.4117  0.5655  0.6857
21443SOL    HW167734   9.225   5.450  10.062  1.3824  0.8153  0.9644
21443SOL    HW267735   9.207   5.300  10.051 -0.2364  1.0727  0.0620
21444SOL     OW67736  10.523   9.373   4.204 -0.6011  0.6764 -0.3835
21444SOL    HW167737  10.590   9.425   4.250 -1.3160  0.7692  0.5674
21444SOL    HW267738  10.509   9.297   4.260  1.5052 -1.3678 -2.4821
21445SOL     OW67739   6.461   4.474   7.852 -0.0698  0.0390 -0.0943
21445SOL    HW167740   6.491   4.469   7.943  0.5065 -0.2910 -0.3007
21445SOL    HW267741   6.431   4.564   7.842  0.7931  0.3563  0.1327
21446SOL     OW67742   8.617   7.568   1.471  0.3105 -0.1358 -0.0323
21446SOL    HW167743   8.544   7.509   1.456  1.8047 -2.1207  0.2262
21446SOL    HW267744   8.589   7.624   1.544 -0.3055 -1.9883  1.1698
21447SOL     OW67745   3.851   9.509   2.009  0.0919  0.1924 -0.0074
21447SOL    HW167746   3.879   9.582   2.063  2.5905  1.4510 -2.8486
21447SOL    HW267747   3.770   9.539   1.967 -0.2477  0.3279  0.7334
21448SOL     OW67748   0.221   4.520   5.692 -0.3805  0.0635 -0.6134
21448SOL    HW167749   0.195   4.612   5.698  1.0533  0.5374 -1.3580
21448SOL    HW267750   0.255   4.510   5.603 -1.4286 -1.4401 -0.8695
21449SOL     OW67751  10.809   7.278   0.675 -0.1456  0.5434  0.1718
21449SOL    HW167752  10.814   7.305   0.767  1.2535 -2.4196  1.0540
21449SOL    HW267753  10.726   7.231   0.668 -0.0593  0.4120  0.0231
21450SOL     OW67754  10.948   6.230   7.545  0.0529  0.1631 -0.3611
21450SOL    HW167755  10.955   6.259   7.635 -0.8186 -0.2079 -0.1723
21450SOL    HW267756  10.989   6.300   7.494  0.3658  0.4663  0.3024
21451SOL     OW67757   8.947   0.465   5.516  0.2738 -0.4947 -0.0007
21451SOL    HW167758   9.016   0.492   5.456 -0.8994  2.3570 -0.1546
21451SOL    HW267759   8.979   0.489   5.603 -0.1281  0.0372  0.0077
21452SOL     OW67760   1.710   2.802   5.580 -0.6819 -0.0004  0.1393
21452SOL    HW167761   1.690   2.838   5.494 -1.0698  0.4718  0.4248
21452SOL    HW267762   1.763   2.868   5.623  0.5844 -0.7801 -0.2009
21453SOL     OW67763   5.975   3.501  10.976 -0.5259  0.0842  0.7643
21453SOL    HW167764   5.996   3.427  10.920  1.7486  0.6418  0.8437
21453SOL    HW267765   5.883   3.521  10.957 -0.6336 -1.6236 -0.5375
21454SOL     OW67766   2.677   5.616   5.219  0.8689  0.3479  0.0279
21454SOL    HW167767   2.658   5.566   5.298  0.0366  0.4099 -0.1273
21454SOL    HW267768   2.771   5.604   5.205  0.6168 -1.4530 -0.1897
21455SOL     OW67769   6.474  10.451   6.989  0.2981 -0.4975  0.2738
21455SOL    HW167770   6.523  10.427   7.068  0.2841 -1.4996 -0.0136
21455SOL    HW267771   6.474  10.371   6.936  0.2405  0.1430 -0.7076
21456SOL     OW67772   3.001   9.749   9.895 -0.2878 -0.1059 -0.3492
21456SOL    HW167773   3.081   9.718   9.852 -0.6819 -0.7176 -0.6446
21456SOL    HW267774   2.977   9.828   9.846  0.5751  0.5336  0.2444
21457SOL     OW67775   9.798   8.888   3.279 -0.4334  0.2172  0.0882
21457SOL    HW167776   9.881   8.864   3.321 -0.8743 -0.2106  0.7101
21457SOL    HW267777   9.822   8.905   3.188  0.5612  1.3065  0.5305
21458SOL     OW67778   3.193   2.202  10.684  0.1578 -0.2177 -0.4242
21458SOL    HW167779   3.127   2.238  10.743  0.7560  0.8215 -0.3859
21458SOL    HW267780   3.149   2.128  10.642 -0.3400 -0.8216  1.1458
21459SOL     OW67781  10.359   9.158   1.856  0.3656 -0.1396  0.7505
21459SOL    HW167782  10.390   9.187   1.771  1.2312 -0.9007  0.7922
21459SOL    HW267783  10.436   9.120   1.898  0.2543  1.4127  2.3980
21460SOL     OW67784   6.018   8.696   4.646  0.3883 -0.3214 -0.1650
21460SOL    HW167785   6.008   8.681   4.740 -0.9867 -1.5284 -0.4826
21460SOL    HW267786   5.940   8.747   4.622  1.7159  1.7058 -0.3213
21461SOL     OW67787   7.663   3.008   0.845  0.2733 -0.1438 -0.7079
21461SOL    HW167788   7.596   3.069   0.816 -0.3642 -0.1586  0.7003
21461SOL    HW267789   7.688   3.040   0.932  1.7543 -0.4117 -1.0188
21462SOL     OW67790   1.061   3.295   2.634 -0.1117 -0.2285 -0.2524
21462SOL    HW167791   0.975   3.282   2.675 -0.2718  0.2264 -0.4414
21462SOL    HW267792   1.054   3.379   2.591 -0.0358 -0.8294 -1.4523
21463SOL     OW67793   6.503   3.542   9.369 -0.2020  0.1172  0.3046
21463SOL    HW167794   6.571   3.583   9.315  0.6480 -3.0863 -1.1909
21463SOL    HW267795   6.537   3.549   9.458  1.1422  0.3560 -0.2116
21464SOL     OW67796   3.046   1.097   2.702  0.1453 -0.2903 -0.0401
21464SOL    HW167797   2.980   1.097   2.771 -2.1686 -0.3730 -2.2006
21464SOL    HW267798   3.049   1.006   2.672  1.7116 -0.4129  0.4586
21465SOL     OW67799   9.206   5.735   5.651 -0.7551  0.0035  0.3139
21465SOL    HW167800   9.161   5.662   5.693  1.0166  0.1249  2.5568
21465SOL    HW267801   9.227   5.794   5.723  3.2421 -0.2028 -0.5690
21466SOL     OW67802   7.994   5.687   2.898 -0.2042 -0.0832 -0.6200
21466SOL    HW167803   8.020   5.697   2.990  0.2183 -2.6012 -0.4417
21466SOL    HW267804   7.901   5.706   2.898 -0.6403 -2.0617  0.7187
21467SOL     OW67805   1.534   7.643  10.416 -0.0471 -0.2957 -0.2124
21467SOL    HW167806   1.510   7.631  10.324 -0.8412 -1.2634  0.1057
21467SOL    HW267807   1.475   7.711  10.447  0.3860  0.2018 -0.4865
21468SOL     OW67808  10.916   0.607   7.283  0.1591 -0.2749 -0.1399
21468SOL    HW167809  10.986   0.558   7.326  0.7167 -0.3518 -1.1251
21468SOL    HW267810  10.843   0.603   7.345  0.9882 -0.2802  0.8512
21469SOL     OW67811   6.168   0.631   0.576  0.8284  0.0683  0.0542
21469SOL    HW167812   6.254   0.644   0.616 -0.3258 -0.1437  2.6772
21469SOL    HW267813   6.107   0.627   0.649 -1.5167  0.7240 -1.7914
21470SOL     OW67814   5.688   3.904   6.597 -0.3326 -0.0946  0.3317
21470SOL    HW167815   5.603   3.947   6.586  0.8726  2.5527  0.9640
21470SOL    HW267816   5.685   3.829   6.538 -3.9165 -1.3263  1.9548
21471SOL     OW67817   2.366   1.917   7.857  0.5860 -0.1380  0.1665
21471SOL    HW167818   2.422   1.870   7.920  0.4243 -1.2129 -0.4791
21471SOL    HW267819   2.337   1.995   7.905  1.9674  0.0087  0.7871
21472SOL     OW67820   6.196   7.025   1.088  0.3266  0.4442  0.6665
21472SOL    HW167821   6.129   7.014   1.020  0.1701 -1.4472  1.1020
21472SOL    HW267822   6.237   7.109   1.068  1.8136 -1.0946 -3.1349
21473SOL     OW67823   9.328   2.080   6.216 -0.2927  0.6558  0.4237
21473SOL    HW167824   9.314   2.129   6.135  1.3974  1.2726  0.4740
21473SOL    HW267825   9.259   2.013   6.216 -0.2996  0.6234 -1.5410
21474SOL     OW67826   1.848   2.326   9.302 -0.1280 -0.3168  0.3667
21474SOL    HW167827   1.888   2.408   9.331 -1.9415  0.4756  0.7258
21474SOL    HW267828   1.907   2.258   9.333  0.9474  0.8154  0.8434
21475SOL     OW67829   1.000  10.531   0.700 -0.4324  0.5589 -0.4981
21475SOL    HW167830   1.058  10.527   0.624 -0.3406  0.7373 -0.4389
21475SOL    HW267831   1.058  10.523   0.775 -0.2332  2.7452 -0.3720
21476SOL     OW67832   5.423   1.689  10.664 -0.3579  0.0677 -0.2997
21476SOL    HW167833   5.385   1.650  10.743 -1.7199  2.3792  0.2355
21476SOL    HW267834   5.514   1.705  10.688  0.3092 -2.9039 -0.6152
21477SOL     OW67835   1.130   1.747   2.002  0.4146 -0.4665 -0.0313
21477SOL    HW167836   1.067   1.814   1.974  0.2189 -1.3735 -1.8010
21477SOL    HW267837   1.077   1.668   2.014  0.9573 -0.8198  0.0676
21478SOL     OW67838   5.560  10.940   8.638  0.3267 -0.4617  0.4392
21478SOL    HW167839   5.648  10.914   8.664 -0.3117 -1.5905  1.5279
21478SOL    HW267840   5.503  10.871   8.672 -1.1153  0.9031  0.9087
21479SOL     OW67841   7.456  10.455   9.469  0.2078  0.0712  0.2064
21479SOL    HW167842   7.495  10.542   9.456 -0.2427  0.4009  1.0171
21479SOL    HW267843   7.362  10.470   9.462  0.1140 -0.2841  0.7319
21480SOL     OW67844   0.318   8.446   5.750  0.0056 -0.0758 -0.4894
21480SOL    HW167845   0.353   8.528   5.716 -1.6519  1.4325  1.2850
21480SOL    HW267846   0.224   8.450   5.729 -0.2856 -1.0001  0.5985
21481SOL     OW67847   3.855   1.531   7.816  0.6030  0.1508  0.3925
21481SOL    HW167848   3.809   1.598   7.867  1.9715  1.6171 -0.2452
21481SOL    HW267849   3.868   1.459   7.877 -0.4884  0.6510  1.2303
21482SOL     OW67850   0.961   2.498   2.447  0.1503  0.0153 -0.1793
21482SOL    HW167851   0.877   2.454   2.432  0.7552 -1.8970  1.9578
21482SOL    HW267852   0.958   2.527   2.538  1.1085  1.5590 -0.6042
21483SOL     OW67853   9.003   7.367   4.948  0.9430 -0.5926  0.1161
21483SOL    HW167854   8.946   7.394   4.875 -0.8199 -0.3639  1.5477
21483SOL    HW267855   8.999   7.271   4.948 -0.5075 -0.5425  1.0217
21484SOL     OW67856   4.570   9.879   2.301  0.6450 -0.3213 -0.1111
21484SOL    HW167857   4.652   9.832   2.290  0.2097 -1.3833  1.1123
21484SOL    HW267858   4.550   9.872   2.394 -0.2088  0.9858 -0.1801
21485SOL     OW67859   6.259   3.973   6.987 -0.1307 -0.0528 -0.1403
21485SOL    HW167860   6.280   4.066   6.993  0.5805 -0.3204  1.9486
21485SOL    HW267861   6.339   3.933   6.951 -0.3641  0.1167 -0.8480
21486SOL     OW67862   0.944   8.782   3.222 -0.3092  0.0815 -0.4658
21486SOL    HW167863   1.003   8.799   3.148 -2.0537  1.7811 -1.4996
21486SOL    HW267864   0.901   8.700   3.199 -1.5423  1.0856 -1.8275
21487SOL     OW67865  10.742   3.708   7.020 -0.0729  0.2415  0.5446
21487SOL    HW167866  10.665   3.719   7.077  0.7622 -0.2858  1.8028
21487SOL    HW267867  10.705   3.696   6.932 -1.2996  4.6797  0.3271
21488SOL     OW67868   3.199   5.314   8.848 -0.5127 -0.2437  0.4451
21488SOL    HW167869   3.292   5.320   8.826 -0.6349  0.5418  0.0874
21488SOL    HW267870   3.166   5.241   8.795 -0.4658  0.6134 -0.8103
21489SOL     OW67871   0.219   4.919   3.120  0.2525 -0.3926  0.0094
21489SOL    HW167872   0.255   4.997   3.077  0.3259  0.6357  1.9042
21489SOL    HW267873   0.261   4.917   3.206  1.9581 -3.7772 -0.7607
21490SOL     OW67874   7.425   3.182   0.409 -0.3835  0.3795  0.2639
21490SOL    HW167875   7.400   3.201   0.500  0.8103 -0.0030  0.6738
21490SOL    HW267876   7.355   3.124   0.378 -0.0576 -0.6518  1.3955
21491SOL     OW67877   4.051   4.245   6.550  0.0605 -0.0078  0.4870
21491SOL    HW167878   4.050   4.338   6.573  0.4616 -0.1187  0.9723
21491SOL    HW267879   4.103   4.205   6.619 -1.4099 -0.8184  1.1386
21492SOL     OW67880   9.734   7.473  10.683  0.3700 -0.4885 -0.2532
21492SOL    HW167881   9.657   7.491  10.630  1.9035 -0.1164 -2.4278
21492SOL    HW267882   9.793   7.426  10.625  1.5384 -1.3260  1.5673
21493SOL     OW67883   1.714   9.016   3.469  0.3833 -0.3281  0.4374
21493SOL    HW167884   1.654   8.942   3.462  1.2249 -1.0489  0.6679
21493SOL    HW267885   1.684   9.079   3.403 -1.3183 -0.1643  1.3476
21494SOL     OW67886   7.530   4.638   2.467 -0.2557 -0.1350  0.0472
21494SOL    HW167887   7.608   4.582   2.462 -0.7229 -0.7085 -1.0806
21494SOL    HW267888   7.527   4.666   2.559  1.4483  0.1639  0.0399
21495SOL     OW67889   9.969   8.475   4.391  0.2171  0.0530 -0.3355
21495SOL    HW167890  10.049   8.439   4.353  0.5452 -1.6957  1.9340
21495SOL    HW267891   9.946   8.415   4.461 -0.3473  3.1690  2.2965
21496SOL     OW67892   9.871   1.026   9.831  0.2998 -0.0886 -0.0348
21496SOL    HW167893   9.815   1.050   9.906  0.2766  0.2890 -0.1728
21496SOL    HW267894   9.860   0.932   9.823 -0.0171 -0.0737  0.1875
21497SOL     OW67895   1.262   7.263  10.436 -0.0409 -0.5395 -0.1511
21497SOL    HW167896   1.309   7.346  10.447 -1.3794 -0.0400  2.1810
21497SOL    HW267897   1.320   7.198  10.476  0.2744 -0.4927 -0.5250
21498SOL     OW67898  10.084   3.854   4.044  0.3692  0.4573  0.1594
21498SOL    HW167899  10.163   3.873   4.094  1.3104  2.5815 -1.9848
21498SOL    HW267900  10.113   3.798   3.973 -0.2316  0.4391 -0.0765
21499SOL     OW67901   0.706   6.380   0.291  0.1817  0.7988  0.5374
21499SOL    HW167902   0.739   6.291   0.308 -0.1272  0.7237  0.7448
21499SOL    HW267903   0.740   6.401   0.204  0.5455  0.6124  0.6319
21500SOL     OW67904  10.272   0.633   3.844  0.1753  0.6864 -0.4771
21500SOL    HW167905  10.292   0.719   3.881 -0.5767  0.2663  0.9487
21500SOL    HW267906  10.337   0.622   3.774  1.6584  1.5113  0.7268
21501SOL     OW67907   5.441   2.601  10.546 -0.7978  0.0966  0.4147
21501SOL    HW167908   5.445   2.646  10.461 -0.3873  0.4061  0.6017
21501SOL    HW267909   5.529   2.610  10.582 -0.2597 -2.1699 -0.2355
21502SOL     OW67910   3.350   4.187   5.615  0.0815 -0.0677  0.4728
21502SOL    HW167911   3.330   4.274   5.650 -0.2114 -0.0993  0.3776
21502SOL    HW267912   3.385   4.204   5.527 -0.1551 -0.0616  0.3812
21503SOL     OW67913  10.768   8.776  10.941 -0.0696  0.3746 -0.0922
21503SOL    HW167914  10.802   8.759  10.854  0.5921  1.0111  0.0306
21503SOL    HW267915  10.829   8.731  11.000 -0.7174 -0.3539  0.0258
21504SOL     OW67916   1.096   7.676   6.003  0.0477  0.2935 -0.4532
21504SOL    HW167917   1.174   7.636   5.966 -0.7926 -0.8438 -1.0081
21504SOL    HW267918   1.127   7.724   6.079  1.1645 -0.8403 -0.1898
21505SOL     OW67919   3.867   6.138   1.045 -0.2400 -1.0922  0.4739
21505SOL    HW167920   3.881   6.064   0.986 -2.6745 -1.2194  0.0179
21505SOL    HW267921   3.844   6.098   1.128 -1.4109 -0.8564  0.2680
21506SOL     OW67922   4.317   1.332   4.997  0.1320  0.0885 -0.1125
21506SOL    HW167923   4.322   1.260   4.934 -0.1753  0.5793 -0.7036
21506SOL    HW267924   4.356   1.406   4.951  0.3163  0.3382  0.4445
21507SOL     OW67925   0.699   1.850   2.918 -0.0392 -0.3421  0.0134
21507SOL    HW167926   0.668   1.760   2.905  1.0721 -0.7551  0.1146
21507SOL    HW267927   0.788   1.849   2.880  0.6776  0.2290  1.6512
21508SOL     OW67928   5.482   4.914   5.596 -0.6619 -0.1442 -0.0619
21508SOL    HW167929   5.430   4.971   5.653 -1.3102 -1.4942  0.6998
21508SOL    HW267930   5.573   4.938   5.614 -0.9249  0.5668  0.3433
21509SOL     OW67931   2.203   8.818   9.298  0.1301  0.1226 -0.0664
21509SOL    HW167932   2.291   8.806   9.261  0.9729 -0.0606  1.9045
21509SOL    HW267933   2.146   8.765   9.242  1.7117 -1.9975  0.2317
21510SOL     OW67934   1.606  10.164   3.338 -0.6940  0.4353  0.4925
21510SOL    HW167935   1.610  10.070   3.352 -0.1787  0.6601  1.9813
21510SOL    HW267936   1.697  10.193   3.334 -0.7945  1.2454  3.0034
21511SOL     OW67937   2.797   9.863   2.864  0.1324  0.4315  0.1931
21511SOL    HW167938   2.791   9.778   2.908  0.6387  0.9440  1.3004
21511SOL    HW267939   2.831   9.843   2.777 -2.7427 -0.8124 -0.6921
21512SOL     OW67940   7.110   4.272   9.488 -0.4303  0.1687  0.1370
21512SOL    HW167941   7.105   4.227   9.573  0.6330 -1.1838 -0.5044
21512SOL    HW267942   7.100   4.202   9.423 -2.8171  1.3839 -0.8810
21513SOL     OW67943  10.847   6.349   8.870  1.0497 -0.1004 -0.2561
21513SOL    HW167944  10.806   6.428   8.905  1.8628  0.1474  0.1433
21513SOL    HW267945  10.782   6.314   8.808  2.0967  2.7597 -3.0692
21514SOL     OW67946   9.692   7.171   5.822 -0.5467  0.3614 -0.6542
21514SOL    HW167947   9.615   7.154   5.876  0.0396 -0.3770 -0.0331
21514SOL    HW267948   9.716   7.085   5.787  1.5018  0.1447  1.1999
21515SOL     OW67949   7.530   1.867   5.386  0.1733 -0.0385  0.1524
21515SOL    HW167950   7.446   1.913   5.386 -0.0011 -0.3544  0.9231
21515SOL    HW267951   7.544   1.843   5.477  2.0926  1.8372  0.4074
21516SOL     OW67952   3.220   3.880   6.735 -0.1114  0.3165  0.4505
21516SOL    HW167953   3.215   3.969   6.700 -0.5078 -0.2060 -0.8497
21516SOL    HW267954   3.209   3.891   6.829 -0.2161  1.6416  0.2952
21517SOL     OW67955   8.930   6.183   3.873 -0.0098  0.1612 -0.8980
21517SOL    HW167956   8.880   6.179   3.792 -0.2049  1.5420 -0.8641
21517SOL    HW267957   8.885   6.249   3.926  0.3757 -0.4075  0.1498
21518SOL     OW67958   6.188   1.110   8.232  0.0695  0.5678  0.0097
21518SOL    HW167959   6.268   1.061   8.214 -0.1546 -0.4818  1.7661
21518SOL    HW267960   6.159   1.140   8.146  1.8773  0.2397 -0.7436
21519SOL     OW67961   5.457   7.382   1.801 -0.2763  0.0850 -0.3886
21519SOL    HW167962   5.442   7.288   1.811  0.3424  0.0629  0.3019
21519SOL    HW267963   5.411   7.405   1.720 -1.8965 -0.4787  0.3585
21520SOL     OW67964   0.491   4.099   0.202 -0.5145  0.2596  0.5801
21520SOL    HW167965   0.449   4.147   0.130  0.6608  1.5861  0.7669
21520SOL    HW267966   0.570   4.063   0.163 -0.1766  0.4833  1.0634
21521SOL     OW67967   4.507   3.034   3.070  0.0977  0.6549  0.4058
21521SOL    HW167968   4.497   2.960   3.130  1.8568  1.0974  1.2695
21521SOL    HW267969   4.590   3.018   3.025 -0.1774  1.4081 -0.3898
21522SOL     OW67970   5.559   2.751   3.105 -0.1086 -0.4490  0.0071
21522SOL    HW167971   5.525   2.796   3.182  1.9232 -1.4480  1.5209
21522SOL    HW267972   5.573   2.820   3.040 -1.4825  0.4415  0.6558
21523SOL     OW67973   3.227   8.554   8.841  0.3942  0.1760 -0.0713
21523SOL    HW167974   3.253   8.645   8.857  3.2903 -0.5490 -0.3637
21523SOL    HW267975   3.297   8.518   8.787 -0.1512 -2.5401  0.9281
21524SOL     OW67976   9.871   4.777   8.508  0.3068 -0.5062 -0.2320
21524SOL    HW167977   9.812   4.704   8.526  2.2022 -1.8288  0.8775
21524SOL    HW267978   9.849   4.843   8.573 -0.8276 -0.4544 -0.6696
21525SOL     OW67979   7.143   7.160   6.625  0.5196  0.1433  0.5171
21525SOL    HW167980   7.066   7.216   6.612  0.2575 -0.4273 -0.4921
21525SOL    HW267981   7.165   7.130   6.537  1.5457 -0.1625  0.8770
21526SOL     OW67982   8.485   8.646  10.416  0.1392  0.4261 -0.3316
21526SOL    HW167983   8.460   8.738  10.405 -1.7705 -0.1479 -1.1683
21526SOL    HW267984   8.407   8.598  10.390  1.0960 -1.4397  0.1849
21527SOL     OW67985   2.767   1.120   3.154  0.6253 -0.1330 -0.0140
21527SOL    HW167986   2.712   1.198   3.161 -0.2624 -0.7623  0.1730
21527SOL    HW267987   2.740   1.066   3.229 -0.0375 -1.3987 -1.1499
21528SOL     OW67988   6.061   8.643   2.262 -0.2303 -0.3769  0.2135
21528SOL    HW167989   6.055   8.612   2.172 -0.6047 -0.8346  0.3963
21528SOL    HW267990   5.974   8.628   2.299  0.1273 -0.8620  0.8730
21529SOL     OW67991   6.740   9.523   9.902  0.2314  0.0760  0.7052
21529SOL    HW167992   6.671   9.510   9.838  0.5508  0.3520  0.3026
21529SOL    HW267993   6.790   9.441   9.901 -0.8380 -0.6016  1.9067
21530SOL     OW67994   7.592   5.728  10.609  0.2960 -0.2527  0.0419
21530SOL    HW167995   7.640   5.786  10.550 -0.6995 -0.2329 -0.7415
21530SOL    HW267996   7.561   5.785  10.679  1.3406 -0.2507  0.5180
21531SOL     OW67997   9.873   2.683   0.756  0.4955  0.5757 -0.5827
21531SOL    HW167998   9.816   2.755   0.729 -0.1744 -0.3751 -1.7891
21531SOL    HW267999   9.827   2.641   0.828  0.6935  1.0970 -0.1490
21532SOL     OW68000   8.804   9.024  10.295  0.0330  0.1119 -0.2236
21532SOL    HW168001   8.831   8.996  10.382  0.5651 -1.6263 -0.9235
21532SOL    HW268002   8.717   9.062  10.308  0.9654  1.8253  1.3670
21533SOL     OW68003  10.028   7.115   8.809  0.3528  0.1428  0.1486
21533SOL    HW168004   9.982   7.184   8.856 -0.3098 -0.8970  1.0526
21533SOL    HW268005  10.114   7.152   8.789  0.1910  1.0257  1.0839
21534SOL     OW68006   3.438   8.170   3.089 -0.0763 -0.4896  0.0253
21534SOL    HW168007   3.511   8.232   3.090 -0.1513 -0.3545 -1.3527
21534SOL    HW268008   3.445   8.128   3.003  0.0145 -2.4453  0.9822
21535SOL     OW68009  10.479   0.051   2.492  0.6459 -0.1377  0.5374
21535SOL    HW168010  10.446   0.108   2.562 -2.3637  0.8945 -1.6312
21535SOL    HW268011  10.506   0.111   2.422  2.3755 -1.2166  0.2281
21536SOL     OW68012   5.513  10.324   8.216 -0.1519  0.0045  0.0567
21536SOL    HW168013   5.591  10.316   8.161 -0.2863  0.1692 -0.1599
21536SOL    HW268014   5.509  10.241   8.265 -0.3351 -0.3761 -0.5848
21537SOL     OW68015   5.933   0.158   6.339  0.2747  0.0365 -1.1495
21537SOL    HW168016   5.896   0.219   6.276  0.5354  0.4894 -0.8622
21537SOL    HW268017   6.022   0.143   6.309  0.6294  0.7988 -0.4961
21538SOL     OW68018   5.718   9.409   1.007 -1.1038  0.3553  0.0346
21538SOL    HW168019   5.705   9.491   1.055 -0.1371 -0.4461  1.7312
21538SOL    HW268020   5.705   9.341   1.073 -0.4091 -0.8087 -1.0073
21539SOL     OW68021   2.287   1.339   0.527  0.3575 -0.3950  0.7266
21539SOL    HW168022   2.366   1.286   0.543 -0.5240 -1.5770  1.1956
21539SOL    HW268023   2.277   1.390   0.607  0.6512 -0.2223  0.6569
21540SOL     OW68024   6.546   0.463   8.537  0.0394 -0.2057  0.3996
21540SOL    HW168025   6.623   0.507   8.500 -0.7452  1.3092  0.4972
21540SOL    HW268026   6.493   0.535   8.572 -1.1041 -1.2921  0.9231
21541SOL     OW68027   3.507   3.026   0.875  0.1062  0.2289  0.0864
21541SOL    HW168028   3.578   3.041   0.938  0.2648  1.5853 -0.4002
21541SOL    HW268029   3.546   3.045   0.790 -0.8510  1.0892 -0.1749
21542SOL     OW68030   0.597   7.511   9.088  0.4829 -0.3466  0.4168
21542SOL    HW168031   0.505   7.529   9.108 -0.1713 -1.5464 -1.3625
21542SOL    HW268032   0.623   7.582   9.029  0.5876 -0.2379  0.5904
21543SOL     OW68033   4.693   2.029   5.673 -0.1497  0.3295 -0.8786
21543SOL    HW168034   4.613   1.980   5.656 -0.6298  1.1001 -0.8473
21543SOL    HW268035   4.760   1.984   5.621 -0.5510 -0.4427 -0.7337
21544SOL     OW68036  10.334   5.261   0.767  0.0529 -0.0443 -0.2148
21544SOL    HW168037  10.351   5.167   0.756  1.3753  0.1340  0.1942
21544SOL    HW268038  10.338   5.274   0.862 -0.4026  0.3709 -0.2557
21545SOL     OW68039   4.786   1.610   3.375 -0.4399 -0.2755  0.1024
21545SOL    HW168040   4.694   1.599   3.354 -0.4203  1.6591 -1.0876
21545SOL    HW268041   4.831   1.603   3.291  0.4530 -0.7532  0.6128
21546SOL     OW68042   0.987   2.839   3.707  0.4720  0.0473  0.4345
21546SOL    HW168043   0.972   2.930   3.683  1.3368 -0.3648 -1.7039
21546SOL    HW268044   1.081   2.833   3.723  0.4043 -0.4614  0.6599
21547SOL     OW68045   4.077   9.498   3.931  0.0074 -0.3699 -0.1968
21547SOL    HW168046   4.078   9.521   3.838 -0.3886 -0.8404 -0.3212
21547SOL    HW268047   4.082   9.402   3.932  1.5252 -0.3057  0.3093
21548SOL     OW68048   0.355   1.669   4.000 -0.0917 -0.4212 -0.2265
21548SOL    HW168049   0.387   1.736   4.061 -0.8305 -0.4671  0.2161
21548SOL    HW268050   0.284   1.626   4.047  1.0346 -2.2198 -0.1032
21549SOL     OW68051   9.571   6.547   1.365 -0.2214  0.0385  0.2411
21549SOL    HW168052   9.507   6.568   1.433  0.1457 -2.1095  1.2826
21549SOL    HW268053   9.605   6.461   1.389  1.8018  0.3700 -1.2490
21550SOL     OW68054   4.817   8.517   1.768 -0.0081 -0.0038  0.2319
21550SOL    HW168055   4.755   8.471   1.825  1.0714 -0.0332  1.3997
21550SOL    HW268056   4.903   8.491   1.800  0.6277  2.5517  0.7018
21551SOL     OW68057   5.962   6.862   9.236 -0.5889 -0.2760 -0.1019
21551SOL    HW168058   5.904   6.910   9.176  2.3626  2.3085 -1.0009
21551SOL    HW268059   6.026   6.927   9.264  0.8108 -2.6230  2.3066
21552SOL     OW68060   4.488   3.912   2.478  1.2043 -0.5987  0.2972
21552SOL    HW168061   4.479   4.003   2.450 -2.2374 -1.3049 -1.2362
21552SOL    HW268062   4.410   3.896   2.531  0.4971 -3.2877 -1.4420
21553SOL     OW68063   9.585   3.776   7.941 -0.2472 -0.2452 -0.6621
21553SOL    HW168064   9.543   3.690   7.948 -1.2530  0.2182 -1.0627
21553SOL    HW268065   9.679   3.757   7.953 -0.3108 -1.5924 -2.1430
21554SOL     OW68066   0.825   1.000   6.866  0.4160  0.1414  0.1312
21554SOL    HW168067   0.789   1.003   6.778 -1.3745 -0.3906  0.8308
21554SOL    HW268068   0.779   1.070   6.913  0.8078 -0.0841  0.8594
21555SOL     OW68069   7.955   3.168   7.535  0.1609  0.4911 -0.3908
21555SOL    HW168070   8.047   3.194   7.540  0.8905 -2.0166  0.0007
21555SOL    HW268071   7.944   3.135   7.446 -0.4687  1.1271 -0.5532
21556SOL     OW68072  10.928   5.309   6.944 -0.3551  0.4210  0.2086
21556SOL    HW168073  10.839   5.325   6.975  0.2447  0.4099  2.0188
21556SOL    HW268074  10.919   5.239   6.879 -1.5817 -0.0472  0.8771
21557SOL     OW68075  10.732   6.874   4.501 -0.2911  0.0176  0.5659
21557SOL    HW168076  10.824   6.899   4.509  0.1161 -1.3789  0.5338
21557SOL    HW268077  10.698   6.931   4.432  0.6707  0.2602  0.2722
21558SOL     OW68078   3.215   2.706   1.932  0.1934  0.0358 -0.3652
21558SOL    HW168079   3.137   2.744   1.972  1.8518  0.5749  2.4565
21558SOL    HW268080   3.193   2.699   1.839 -2.8618  1.0142  0.2314
21559SOL     OW68081   0.565   2.431   7.332  0.3252  0.5660  0.8319
21559SOL    HW168082   0.600   2.475   7.255 -1.0279 -3.5526 -2.2634
21559SOL    HW268083   0.633   2.369   7.358 -0.4660 -0.2249  1.0583
21560SOL     OW68084  10.970   3.224  10.335  0.1398 -0.6351 -0.2398
21560SOL    HW168085  10.931   3.263  10.257 -1.7078  0.9013  1.3656
21560SOL    HW268086  10.958   3.130  10.324 -2.1710 -0.3086 -0.8018
21561SOL     OW68087   3.102   7.411   6.350  0.4973 -0.2569 -0.2459
21561SOL    HW168088   3.054   7.425   6.432  0.4417  0.0113 -0.3244
21561SOL    HW268089   3.132   7.320   6.355 -0.3287 -0.5352 -0.3578
21562SOL     OW68090   9.653   5.390   3.442  0.3237 -0.1198 -0.0507
21562SOL    HW168091   9.724   5.433   3.491  0.5209 -0.5298  0.0309
21562SOL    HW268092   9.692   5.309   3.411 -0.0304 -0.2145 -0.2488
21563SOL     OW68093   6.418   6.792   1.630  0.7717 -0.4838  0.2253
21563SOL    HW168094   6.404   6.879   1.593  2.4927 -0.0188  0.5896
21563SOL    HW268095   6.331   6.757   1.643  0.0321  1.3479  0.4330
21564SOL     OW68096   9.636   0.108   4.387  0.1740  0.7464  0.3771
21564SOL    HW168097   9.588   0.142   4.463  0.6434 -0.0460  1.0407
21564SOL    HW268098   9.692   0.180   4.360  0.3373  0.8785  1.0723
21565SOL     OW68099   0.072   1.791   9.083  0.3421  0.1334 -0.5020
21565SOL    HW168100   0.056   1.886   9.090  1.9125  0.3929 -0.2939
21565SOL    HW268101   0.167   1.784   9.073  0.2117 -1.4219 -0.6483
21566SOL     OW68102   9.903   2.777   5.827  0.4003 -0.2798 -0.5219
21566SOL    HW168103   9.953   2.780   5.746 -1.3866  1.2709 -1.6087
21566SOL    HW268104   9.916   2.863   5.867 -0.2328 -0.3703 -0.1070
21567SOL     OW68105   3.863   7.403   6.777  0.1566 -0.4119 -0.2039
21567SOL    HW168106   3.791   7.462   6.754 -0.2113 -0.7556  0.0585
21567SOL    HW268107   3.902   7.378   6.694  0.7261  0.7225 -0.2843
21568SOL     OW68108   5.534   1.351  10.917 -0.2503 -0.3157 -0.4611
21568SOL    HW168109   5.604   1.307  10.870  0.3674  0.3914 -0.2140
21568SOL    HW268110   5.560   1.346  11.009  1.7152  3.7337 -0.6789
21569SOL     OW68111   9.864   1.508   2.662 -0.2602 -0.7436 -0.1442
21569SOL    HW168112   9.949   1.496   2.704 -0.6852 -1.4592  0.5190
21569SOL    HW268113   9.829   1.419   2.654 -1.2811 -0.3779  0.2849
21570SOL     OW68114   3.101   4.647  10.064 -0.2169 -0.2513  0.7555
21570SOL    HW168115   3.125   4.555  10.075  2.3023  0.0230 -1.6897
21570SOL    HW268116   3.173   4.695  10.106 -0.2032  0.5944 -0.2183
21571SOL     OW68117   6.709   5.769   8.648 -0.2356  0.2909  0.3464
21571SOL    HW168118   6.656   5.690   8.635 -0.7883  0.7846 -0.4748
21571SOL    HW268119   6.799   5.741   8.629 -0.4757 -0.0498 -0.3026
21572SOL     OW68120   1.820   2.409   1.594 -0.4647 -0.2311  0.0037
21572SOL    HW168121   1.772   2.490   1.577 -0.6853 -0.6654 -1.5351
21572SOL    HW268122   1.843   2.376   1.507  3.1811  0.2795  0.6935
21573SOL     OW68123   7.714  10.217   5.015  0.5263  0.1441 -0.0912
21573SOL    HW168124   7.795  10.258   4.985  1.1040 -0.7044  0.2815
21573SOL    HW268125   7.722  10.126   4.986  0.0748 -0.1381  0.6713
21574SOL     OW68126  10.606   3.135   0.982 -0.0834  0.0497 -0.0063
21574SOL    HW168127  10.530   3.122   0.925 -0.5381  0.8608  0.3970
21574SOL    HW268128  10.621   3.230   0.980 -1.3759  0.3490  2.8116
21575SOL     OW68129   6.327   5.585   4.145 -0.4602 -0.2747  0.2263
21575SOL    HW168130   6.341   5.494   4.118 -1.1517 -0.3347  0.0693
21575SOL    HW268131   6.309   5.632   4.064 -0.7750 -0.1259  0.3820
21576SOL     OW68132   7.823   6.734   0.495 -0.0845 -0.0999 -0.2889
21576SOL    HW168133   7.740   6.700   0.527 -1.0569 -0.2000 -2.8029
21576SOL    HW268134   7.858   6.665   0.438  1.5701  0.0759  0.4807
21577SOL     OW68135   0.165   4.936   9.741  0.0944 -0.2893 -0.0953
21577SOL    HW168136   0.185   4.991   9.665 -1.0431  1.2610  0.6792
21577SOL    HW268137   0.078   4.901   9.723 -1.0213  1.6450  1.3151
21578SOL     OW68138   8.424   7.390   1.446 -0.0945  0.1098 -0.3806
21578SOL    HW168139   8.337   7.384   1.408 -0.1136 -1.3335 -0.1359
21578SOL    HW268140   8.433   7.311   1.500  0.9764  0.7461  0.3980
21579SOL     OW68141   8.095   6.656  10.181  0.2324 -0.1725  0.2840
21579SOL    HW168142   8.077   6.584  10.241  0.9627  0.2344  1.0145
21579SOL    HW268143   8.140   6.615  10.107  0.2659 -0.5292  0.4994
21580SOL     OW68144  10.691  10.952   1.957 -0.2710 -0.0675 -0.3829
21580SOL    HW168145  10.596  10.958   1.958 -0.2480  0.2911 -0.0107
21580SOL    HW268146  10.720  11.037   1.923 -0.0866 -0.2131 -0.5926
21581SOL     OW68147   3.439   7.220   8.537 -0.5808 -0.0467 -0.1750
21581SOL    HW168148   3.450   7.261   8.623  0.4282  0.6640 -0.6430
21581SOL    HW268149   3.446   7.126   8.556  1.8153  0.1697  0.2384
21582SOL     OW68150   0.596   0.111   6.414  0.3717 -0.4294 -1.0128
21582SOL    HW168151   0.649   0.189   6.399 -0.3074  0.1162 -0.6178
21582SOL    HW268152   0.646   0.060   6.478  0.7219 -0.2216 -1.1224
21583SOL     OW68153   1.792   1.813  10.547  0.2581  0.1092  0.1880
21583SOL    HW168154   1.888   1.807  10.538  0.5425  1.1772  2.1165
21583SOL    HW268155   1.778   1.813  10.642 -1.7181 -0.6947 -0.0949
21584SOL     OW68156   6.609   8.806   0.655 -0.1385 -0.6274  0.0713
21584SOL    HW168157   6.558   8.873   0.701  3.1261  1.4437  0.9365
21584SOL    HW268158   6.628   8.845   0.570  2.8950  0.2328  1.0634
21585SOL     OW68159   1.585   0.876   2.824  0.0869 -0.1734 -0.2153
21585SOL    HW168160   1.495   0.908   2.834  1.1606  2.3535  1.6539
21585SOL    HW268161   1.600   0.877   2.729 -0.8196  2.3937 -0.3568
21586SOL     OW68162   5.278   3.260   1.656 -0.2462  0.0539  0.3608
21586SOL    HW168163   5.339   3.290   1.590 -0.5805 -1.3094 -0.6031
21586SOL    HW268164   5.250   3.339   1.702  0.6242  0.9135 -0.5845
21587SOL     OW68165   8.522  10.148   6.532 -0.3117 -0.3543 -0.2298
21587SOL    HW168166   8.614  10.159   6.510 -0.4100  2.0185  0.4042
21587SOL    HW268167   8.496  10.066   6.489  1.4118  0.2751 -2.5386
21588SOL     OW68168   0.278   5.330   8.606  0.2770 -0.0932 -0.0980
21588SOL    HW168169   0.256   5.345   8.514  2.2052  0.1293 -0.5544
21588SOL    HW268170   0.263   5.236   8.619 -1.7758  0.2122 -0.1071
21589SOL     OW68171   4.853   2.969   8.757 -0.0248 -0.2095 -0.4815
21589SOL    HW168172   4.900   2.951   8.676 -0.5605 -2.8135 -0.2427
21589SOL    HW268173   4.914   2.946   8.826  0.0645  1.0315 -0.1330
21590SOL     OW68174   2.666   9.484   3.227  0.1491  0.1845 -0.8760
21590SOL    HW168175   2.625   9.398   3.222 -0.2623  0.2118  1.4449
21590SOL    HW268176   2.734   9.473   3.294 -0.0377  1.7112 -0.4334
21591SOL     OW68177   8.285   7.784   5.963  0.4483 -0.0476  0.4413
21591SOL    HW168178   8.269   7.716   6.029 -3.7554 -0.1211 -0.4933
21591SOL    HW268179   8.353   7.747   5.907  1.3190 -1.6126  2.4558
21592SOL     OW68180   4.976   7.384   6.901  0.5186 -0.5052  0.0374
21592SOL    HW168181   5.023   7.440   6.839  1.4686 -0.4038  0.8409
21592SOL    HW268182   4.891   7.368   6.859  0.8553  0.1991 -0.9326
21593SOL     OW68183   7.736   0.638   3.713 -0.4868  0.2208  0.0887
21593SOL    HW168184   7.718   0.578   3.640  1.2141  0.5171 -0.5838
21593SOL    HW268185   7.731   0.726   3.674  1.5527  0.3476  0.0477
21594SOL     OW68186   9.631   9.137   5.080 -0.4024  0.2459  0.4675
21594SOL    HW168187   9.605   9.210   5.136  0.4651 -0.5486  1.9364
21594SOL    HW268188   9.551   9.087   5.066 -1.2772  2.1110 -1.5708
21595SOL     OW68189   4.101   8.302   4.229  0.0123 -0.2505 -0.3033
21595SOL    HW168190   4.190   8.304   4.263  0.8493 -0.9176 -2.3649
21595SOL    HW268191   4.079   8.394   4.214 -1.5000  0.3244  4.6975
21596SOL     OW68192   3.277   5.215   4.550  0.3499 -0.0307 -0.1585
21596SOL    HW168193   3.243   5.276   4.485 -0.8727  0.3438  0.8251
21596SOL    HW268194   3.362   5.251   4.575  0.4225  0.3068 -0.8842
21597SOL     OW68195   8.321   5.115   0.745  0.0486 -0.4751  0.1530
21597SOL    HW168196   8.280   5.105   0.659  0.5706  1.5577 -0.3549
21597SOL    HW268197   8.271   5.056   0.802 -1.4362 -0.5382 -1.1609
21598SOL     OW68198   7.494   1.685   7.301  0.1466  0.9077 -0.0047
21598SOL    HW168199   7.547   1.622   7.252  2.8067  1.9186  1.4788
21598SOL    HW268200   7.433   1.721   7.237 -0.6392 -2.2940 -1.1305
21599SOL     OW68201   0.714  10.631   2.331  0.2347 -0.2878 -0.2985
21599SOL    HW168202   0.639  10.646   2.389  0.4537 -0.4917  0.0385
21599SOL    HW268203   0.679  10.578   2.260  0.1629 -0.7740  0.0964
21600SOL     OW68204   2.888   0.146   9.892 -0.0748  0.4747  0.4178
21600SOL    HW168205   2.803   0.110   9.918 -0.6116  0.4700 -1.2645
21600SOL    HW268206   2.873   0.182   9.804  1.9304 -0.5132 -0.3722
21601SOL     OW68207  10.312   1.819   6.902 -0.5559  0.4610 -0.1239
21601SOL    HW168208  10.349   1.753   6.960 -3.4590 -0.0721  1.1518
21601SOL    HW268209  10.389   1.862   6.863  1.3899 -3.5169 -0.8975
21602SOL     OW68210   0.209   5.818   2.159 -0.8739 -0.7595  0.8582
21602SOL    HW168211   0.276   5.883   2.135 -4.6723  2.3661 -2.0028
21602SOL    HW268212   0.179   5.846   2.245  0.8618 -1.6312  1.7541
21603SOL     OW68213   2.820   6.979   1.459  0.3123  0.2934  0.2129
21603SOL    HW168214   2.749   7.030   1.497  0.3121  1.3564 -1.1952
21603SOL    HW268215   2.850   7.031   1.384  1.5240 -0.8944 -0.1436
21604SOL     OW68216   2.553   4.672   0.243 -0.3035 -0.6171  0.2268
21604SOL    HW168217   2.553   4.750   0.188 -0.2708  0.4792  1.7375
21604SOL    HW268218   2.644   4.645   0.247 -0.2455 -0.4388  0.1128
21605SOL     OW68219   9.775   1.350   1.859  0.2422  0.0312  0.5479
21605SOL    HW168220   9.696   1.389   1.822 -0.8562 -2.8600 -0.2563
21605SOL    HW268221   9.744   1.296   1.931  1.5522 -0.5952  0.6517
21606SOL     OW68222  10.755   5.305   1.201  0.5105 -0.1535 -0.7998
21606SOL    HW168223  10.815   5.273   1.269 -1.4163 -0.6037  0.7208
21606SOL    HW268224  10.695   5.364   1.247 -0.2684  0.2534 -2.2879
21607SOL     OW68225   8.493   7.000  10.528  0.0195 -0.9038 -0.4585
21607SOL    HW168226   8.419   6.965  10.578  0.4878 -1.7131 -0.3237
21607SOL    HW268227   8.503   6.939  10.454 -1.1465  0.6927 -1.9826
21608SOL     OW68228   8.474   9.050   4.170  0.5784 -0.3471 -0.1584
21608SOL    HW168229   8.381   9.044   4.192  1.2423 -1.8267  2.5140
21608SOL    HW268230   8.493   9.144   4.174 -0.0843 -0.2786  2.6797
21609SOL     OW68231   3.694   0.202   1.976 -0.0664 -0.2658  0.4646
21609SOL    HW168232   3.609   0.242   1.997  1.3502  1.9063  2.4332
21609SOL    HW268233   3.686   0.112   2.008 -1.7418 -0.2170  0.2774
21610SOL     OW68234   3.963   1.860   4.247 -0.0602  0.1946  0.1937
21610SOL    HW168235   4.028   1.793   4.271 -1.5629 -0.9838  1.0703
21610SOL    HW268236   4.004   1.943   4.272  1.7783 -0.3924 -0.8038
21611SOL     OW68237   7.397   8.632   2.628 -0.3437  0.3177 -0.5274
21611SOL    HW168238   7.409   8.674   2.714  1.2906  0.7308 -0.9525
21611SOL    HW268239   7.354   8.549   2.649  0.4398  0.2112  0.7392
21612SOL     OW68240   2.684   0.510   9.812 -0.1457 -0.5006 -0.1417
21612SOL    HW168241   2.599   0.495   9.772  0.3078  2.7405 -2.5743
21612SOL    HW268242   2.664   0.546   9.899 -1.2419 -0.7450 -0.2859
21613SOL     OW68243   7.712   9.074   6.202  0.5877 -0.2214  0.3941
21613SOL    HW168244   7.669   9.160   6.203  1.9470  0.4904 -0.6412
21613SOL    HW268245   7.805   9.095   6.207  0.8615 -1.7075  1.6714
21614SOL     OW68246   3.738   0.870   3.971 -0.3990 -0.1126 -0.1686
21614SOL    HW168247   3.724   0.940   3.908  0.0798  0.6573  0.5768
21614SOL    HW268248   3.650   0.841   3.995 -0.5905 -1.4491 -2.3076
21615SOL     OW68249   3.590   5.721   5.179  0.4144 -0.2240  0.1816
21615SOL    HW168250   3.598   5.816   5.176  0.5741 -0.2502 -0.2005
21615SOL    HW268251   3.654   5.693   5.245 -0.4424  0.0239  1.1404
21616SOL     OW68252   3.983   7.233   4.533  0.1402  0.2002 -0.1696
21616SOL    HW168253   3.981   7.175   4.608  1.2796 -0.0824 -0.3491
21616SOL    HW268254   3.964   7.176   4.458 -1.3678  0.5450 -0.0833
21617SOL     OW68255   3.333  10.220  10.330  0.8049  0.4858 -0.2474
21617SOL    HW168256   3.241  10.247  10.330  0.8199  0.5639  0.5958
21617SOL    HW268257   3.357  10.215  10.238 -0.5056 -1.0944 -0.5310
21618SOL     OW68258   3.339  10.597   4.121  0.3708 -0.0628 -0.4788
21618SOL    HW168259   3.374  10.563   4.203  0.6628 -0.0082 -0.5820
21618SOL    HW268260   3.412  10.593   4.060  0.6146  1.4364 -0.3080
21619SOL     OW68261   3.796   7.476   9.604  0.9581  0.1018 -0.5530
21619SOL    HW168262   3.888   7.503   9.611  1.4909 -1.9430  0.9154
21619SOL    HW268263   3.775   7.441   9.690 -0.8769 -0.4269 -1.2023
21620SOL     OW68264   5.794   4.076   4.180 -0.0391  0.0128 -0.4039
21620SOL    HW168265   5.715   4.087   4.232  0.2896  0.4532  0.0090
21620SOL    HW268266   5.860   4.045   4.242  0.3072  0.3611 -0.5911
21621SOL     OW68267   2.411   0.440   5.396 -0.3555  0.2512  0.3552
21621SOL    HW168268   2.408   0.356   5.441 -0.3518  0.8228  1.4429
21621SOL    HW268269   2.451   0.500   5.459  0.4980  0.8656 -0.7481
21622SOL     OW68270   6.062   5.946   4.411  0.6215 -0.1890 -0.1648
21622SOL    HW168271   6.118   5.879   4.372 -0.5949 -0.3550 -1.6443
21622SOL    HW268272   5.994   5.962   4.346 -2.2662 -1.4876  2.4129
21623SOL     OW68273   9.903   0.006   2.132 -0.7735 -0.5115  0.2089
21623SOL    HW168274   9.815   0.038   2.155  0.0223 -0.0304  2.7558
21623SOL    HW268275   9.952   0.085   2.111 -0.5741 -0.6618  0.1152
21624SOL     OW68276   1.674   2.335   5.909 -0.3294 -0.0789  0.0566
21624SOL    HW168277   1.615   2.411   5.911 -0.3350 -0.1053  2.0063
21624SOL    HW268278   1.633   2.272   5.968  0.3707 -1.0894 -0.5321
21625SOL     OW68279   2.943   4.601   3.771 -0.4046 -0.3955 -0.0103
21625SOL    HW168280   3.030   4.575   3.741 -0.4783 -1.6320  0.8164
21625SOL    HW268281   2.884   4.564   3.705 -0.2692  1.2700 -1.1036
21626SOL     OW68282   3.433   4.845   5.438  0.6199  0.5621 -0.0133
21626SOL    HW168283   3.380   4.924   5.448 -1.8079 -1.0851  0.6373
21626SOL    HW268284   3.438   4.831   5.343  0.0582  0.8570 -0.0864
21627SOL     OW68285   7.518   3.109   4.663 -0.5185 -0.1157  0.5575
21627SOL    HW168286   7.448   3.166   4.696 -1.7102 -1.2973  0.1033
21627SOL    HW268287   7.589   3.169   4.640 -1.5454  1.1384  0.6131
21628SOL     OW68288  10.578   5.379   6.706  0.1832  0.0575  0.1001
21628SOL    HW168289  10.621   5.298   6.678  0.3635  1.0658 -2.6956
21628SOL    HW268290  10.487   5.353   6.721  0.8705 -1.2708  2.2518
21629SOL     OW68291   2.616   5.005   9.901  0.4632 -0.0284  0.0321
21629SOL    HW168292   2.553   4.994   9.830  1.4122  0.9902 -0.9862
21629SOL    HW268293   2.701   5.008   9.857  0.9855  1.6601  1.1112
21630SOL     OW68294   6.196   6.777   7.183  0.0110  0.2622  0.2021
21630SOL    HW168295   6.270   6.837   7.190  0.7233 -0.5380 -0.3081
21630SOL    HW268296   6.152   6.802   7.102 -0.3634  0.8467  0.5921
21631SOL     OW68297   8.605   7.219   5.933  0.1435  0.2620 -0.0804
21631SOL    HW168298   8.592   7.145   5.873 -0.7495 -1.4374  2.1655
21631SOL    HW268299   8.550   7.288   5.898 -1.1627 -1.0485 -0.6606
21632SOL     OW68300   1.864   9.271  10.757  0.2315 -0.5220 -0.5677
21632SOL    HW168301   1.823   9.213  10.693  0.1604 -0.0293 -0.9664
21632SOL    HW268302   1.828   9.242  10.841  0.5458 -1.3573 -0.7116
21633SOL     OW68303   9.282   5.448   2.349 -0.6304  0.3562  0.2246
21633SOL    HW168304   9.270   5.526   2.295  3.0573  0.0139 -1.2210
21633SOL    HW268305   9.253   5.376   2.294  0.5191  0.2714 -0.2803
21634SOL     OW68306   3.861  10.436   3.986 -0.2326 -0.0791  0.0203
21634SOL    HW168307   3.796  10.385   4.033  0.1683 -0.3492  0.2819
21634SOL    HW268308   3.812  10.510   3.950 -0.4694  0.3581  1.2077
21635SOL     OW68309   6.446   7.096   3.827 -0.1090  0.3834 -0.8032
21635SOL    HW168310   6.387   7.075   3.899  0.5183  2.1380  0.2440
21635SOL    HW268311   6.410   7.175   3.788 -0.3583 -0.4603 -2.3592
21636SOL     OW68312   8.027   4.684   6.037  0.8047 -0.2361  0.8473
21636SOL    HW168313   8.027   4.711   5.945 -0.6669 -2.1657  0.2526
21636SOL    HW268314   8.077   4.753   6.082 -0.2510  1.8394 -1.0609
21637SOL     OW68315   9.112   0.000   3.945  0.0552  0.0256 -0.7303
21637SOL    HW168316   9.099  -0.050   3.865  0.6152 -1.5192  0.1345
21637SOL    HW268317   9.062  -0.047   4.011  1.1236  0.2298  0.2422
21638SOL     OW68318   5.562   8.441   8.990  0.2167 -0.3143 -0.2021
21638SOL    HW168319   5.557   8.347   9.007  0.5571 -0.2010  0.5560
21638SOL    HW268320   5.484   8.461   8.938 -2.1247 -0.2737  3.2025
21639SOL     OW68321   3.265   0.589  10.613  0.7356 -0.0347  0.2474
21639SOL    HW168322   3.254   0.678  10.580  1.5157  0.5110  1.4565
21639SOL    HW268323   3.308   0.599  10.698 -1.8220 -1.3950  1.7653
21640SOL     OW68324   0.255   6.408   7.760 -0.5190 -0.2357 -0.1537
21640SOL    HW168325   0.309   6.456   7.697 -2.7984  1.2105 -1.0658
21640SOL    HW268326   0.168   6.446   7.751 -1.6186 -2.2250  1.5945
21641SOL     OW68327   7.638   1.176   8.733  0.3815  0.6301 -0.5415
21641SOL    HW168328   7.576   1.127   8.787  0.3483  1.5379  0.2561
21641SOL    HW268329   7.589   1.198   8.654 -0.2041  1.0303 -0.0738
21642SOL     OW68330   1.446   2.135   2.416  0.0180 -0.0393 -0.6085
21642SOL    HW168331   1.372   2.146   2.476  0.0697 -3.0612  0.1370
21642SOL    HW268332   1.476   2.045   2.433  1.9447  0.1040 -3.0484
21643SOL     OW68333   4.927   3.968   7.547 -0.4399  0.4773  0.1934
21643SOL    HW168334   4.964   3.886   7.514 -0.6991  0.5943 -0.3732
21643SOL    HW268335   4.942   3.963   7.642 -3.8261 -1.9349  0.6724
21644SOL     OW68336   7.384   0.354   2.679  0.1108 -0.4519 -0.1698
21644SOL    HW168337   7.342   0.412   2.743  1.4536  2.8767 -2.1936
21644SOL    HW268338   7.344   0.377   2.596 -1.3107 -4.4463 -0.7076
21645SOL     OW68339   7.034   2.830   8.187 -0.3266  0.1496  0.3448
21645SOL    HW168340   7.122   2.832   8.149  0.2910 -0.1668  1.7361
21645SOL    HW268341   7.013   2.737   8.193 -1.1568  0.2488 -0.8682
21646SOL     OW68342   4.293   5.061   0.183 -0.1581  0.1793  0.3050
21646SOL    HW168343   4.282   5.114   0.103 -0.3711  0.8804  0.7939
21646SOL    HW268344   4.235   5.102   0.247  0.2247 -0.2162  0.9073
21647SOL     OW68345  10.168   9.314   5.974  0.4024 -0.6201  0.0435
21647SOL    HW168346  10.201   9.402   5.989  0.1393 -0.4460 -0.4055
21647SOL    HW268347  10.147   9.281   6.062 -0.2857  0.0681  0.1395
21648SOL     OW68348   1.549   8.884   9.077 -0.1521  0.2144 -0.4676
21648SOL    HW168349   1.587   8.941   9.010 -0.8760  1.2960  0.0259
21648SOL    HW268350   1.540   8.940   9.154 -0.3204 -0.7305  0.2143
21649SOL     OW68351   1.000   6.800   2.857 -0.5117 -0.4170  0.1538
21649SOL    HW168352   1.075   6.761   2.812  1.1643 -0.2834  2.7284
21649SOL    HW268353   0.959   6.726   2.902 -0.5565 -0.0933  0.6383
21650SOL     OW68354   2.656   1.961   0.621 -0.2304 -0.3928 -0.1854
21650SOL    HW168355   2.684   1.955   0.712  1.1075 -0.6168 -0.6025
21650SOL    HW268356   2.737   1.961   0.570 -0.9253  0.4969 -1.3436
21651SOL     OW68357   9.149   1.063   2.441 -0.2903 -0.4760 -0.0157
21651SOL    HW168358   9.190   0.977   2.431  1.6705  0.4619 -0.2712
21651SOL    HW268359   9.157   1.103   2.354 -0.1019  0.4293  0.4199
21652SOL     OW68360   3.124   5.735   5.632 -0.8273  0.2774  0.1293
21652SOL    HW168361   3.066   5.732   5.557 -0.6774 -0.5412  0.0425
21652SOL    HW268362   3.168   5.820   5.626  1.1926 -0.8792 -2.2433
21653SOL     OW68363   8.323   5.793   8.293 -0.0122 -0.3674  0.2351
21653SOL    HW168364   8.361   5.864   8.242  0.6173 -1.1859 -0.4439
21653SOL    HW268365   8.399   5.748   8.330 -0.4196 -0.5417  0.8591
21654SOL     OW68366   8.180   7.263   1.379  0.0813 -0.0437  0.5601
21654SOL    HW168367   8.089   7.291   1.371  0.0866  0.2784  1.5759
21654SOL    HW268368   8.187   7.228   1.467  0.5453 -1.5860 -0.0774
21655SOL     OW68369   2.558   4.199   5.243  0.7102  0.3270  0.2199
21655SOL    HW168370   2.649   4.202   5.215  0.9349 -0.9735  0.7623
21655SOL    HW268371   2.552   4.119   5.296 -0.9051  0.0339 -0.3850
21656SOL     OW68372   2.028   0.427   2.479 -0.0574 -0.3630 -0.0953
21656SOL    HW168373   2.083   0.458   2.551  0.2001  0.9921 -0.8568
21656SOL    HW268374   2.087   0.379   2.421  0.6612  2.2880 -1.6391
21657SOL     OW68375   3.480   8.683   3.171  0.1727  0.1985  0.3487
21657SOL    HW168376   3.440   8.654   3.252 -0.6445  0.5395  0.0728
21657SOL    HW268377   3.523   8.766   3.194  1.4141 -0.5657  0.8302
21658SOL     OW68378   0.129   1.653   7.954  0.2477  0.0277  0.0368
21658SOL    HW168379   0.193   1.588   7.983  0.7057  0.4253 -0.0589
21658SOL    HW268380   0.180   1.734   7.947 -0.2677  0.3440 -0.0544
21659SOL     OW68381   5.892   8.744   3.811  0.6407 -0.1847 -0.3444
21659SOL    HW168382   5.978   8.786   3.814 -0.0690  1.2955  0.0054
21659SOL    HW268383   5.894   8.679   3.881  0.8862  1.0565  0.8404
21660SOL     OW68384   4.646   9.228   3.986 -0.4523 -0.4171 -0.0804
21660SOL    HW168385   4.563   9.250   4.027  0.2712  0.0085  1.2127
21660SOL    HW268386   4.627   9.222   3.893 -1.4981  1.7598 -0.0404
21661SOL     OW68387   0.592   0.035   0.152  0.2038 -0.4235 -0.2615
21661SOL    HW168388   0.506   0.005   0.122 -0.3504 -0.8771  1.6961
21661SOL    HW268389   0.597   0.004   0.242  1.7348  1.0577  0.1742
21662SOL     OW68390  10.142   2.095   3.792  0.0664 -0.3943 -0.0849
21662SOL    HW168391  10.113   2.137   3.873  1.3027 -0.2630  0.3133
21662SOL    HW268392  10.161   2.005   3.818  2.1712  0.0973  0.2009
21663SOL     OW68393   0.286   6.103   4.883 -0.4168  0.4844  0.0825
21663SOL    HW168394   0.357   6.070   4.940 -0.0219 -0.4929 -0.9545
21663SOL    HW268395   0.206   6.082   4.931  0.0171  2.7196  1.8540
21664SOL     OW68396   3.139   2.250   7.914  0.6295  0.0086  0.1656
21664SOL    HW168397   3.211   2.305   7.883 -0.9565  2.5019  0.7515
21664SOL    HW268398   3.104   2.297   7.990 -2.7234 -0.1815 -1.1624
21665SOL     OW68399   7.152   1.872   1.491 -0.2488  0.1592 -0.0152
21665SOL    HW168400   7.108   1.787   1.496 -2.0599  0.9748 -1.8897
21665SOL    HW268401   7.219   1.861   1.424  1.1124 -0.4640  1.4060
21666SOL     OW68402   4.373   3.970   5.727  0.2685 -0.2208  0.2257
21666SOL    HW168403   4.298   4.027   5.747  0.8767 -0.0517  2.0789
21666SOL    HW268404   4.367   3.955   5.632 -1.5195  0.6242  0.1847
21667SOL     OW68405   5.904   1.787   2.888 -0.4368  0.0728 -0.5915
21667SOL    HW168406   5.827   1.775   2.833 -1.0338  1.9287 -0.1762
21667SOL    HW268407   5.882   1.746   2.971  0.0091 -1.6574 -1.2999
21668SOL     OW68408   5.335   2.493   6.427  0.0369 -0.0400 -0.5295
21668SOL    HW168409   5.402   2.558   6.448 -1.2938  0.7051  1.5168
21668SOL    HW268410   5.271   2.542   6.375 -0.3312 -0.0311 -0.0669
21669SOL     OW68411   5.577  10.662   6.647 -0.3844 -0.6122 -0.2955
21669SOL    HW168412   5.615  10.727   6.589 -1.9981  0.4103 -0.2449
21669SOL    HW268413   5.571  10.582   6.594 -1.2209  0.1262 -1.3268
21670SOL     OW68414   2.230   7.444   1.219 -0.0770  0.6213 -0.0014
21670SOL    HW168415   2.185   7.408   1.295  0.6364 -0.4611 -0.0820
21670SOL    HW268416   2.194   7.532   1.209 -2.1594 -0.2266 -0.0727
21671SOL     OW68417   7.024   9.475   7.390 -0.0737  0.6588  0.3183
21671SOL    HW168418   6.934   9.458   7.418 -0.5668  2.2444 -0.2508
21671SOL    HW268419   7.077   9.458   7.467 -0.6689 -2.0214  0.1653
21672SOL     OW68420   2.756   7.742   4.795  0.0239  0.1561  0.0802
21672SOL    HW168421   2.783   7.660   4.754  0.6571  0.4060 -0.0076
21672SOL    HW268422   2.748   7.805   4.723  0.0873  0.3136  0.2078
21673SOL     OW68423   8.621   6.375   6.782 -0.6499 -0.2722 -0.0631
21673SOL    HW168424   8.583   6.395   6.868 -2.0570  0.5507 -0.8612
21673SOL    HW268425   8.547   6.377   6.722  0.5940  1.0677 -1.6093
21674SOL     OW68426   8.369   7.570   5.480  0.0045  0.3856 -0.3770
21674SOL    HW168427   8.368   7.614   5.395 -0.3396 -0.2180 -0.6882
21674SOL    HW268428   8.282   7.587   5.516  0.4157  1.3109  0.2080
21675SOL     OW68429   0.620   8.837   0.823 -0.1873  0.3120 -0.3037
21675SOL    HW168430   0.601   8.764   0.764  1.1492 -1.3898  1.3127
21675SOL    HW268431   0.715   8.841   0.826 -0.2373  2.5533 -0.8479
21676SOL     OW68432  10.439   8.162   8.645 -0.0009 -1.0982 -0.2404
21676SOL    HW168433  10.500   8.092   8.621  0.4013 -1.5264  1.8484
21676SOL    HW268434  10.491   8.221   8.700 -0.5148  0.5018 -1.4662
21677SOL     OW68435   9.918   4.152   1.028  0.1440  0.1729 -0.4770
21677SOL    HW168436   9.901   4.107   1.111  0.4234 -0.8237 -0.9601
21677SOL    HW268437   9.833   4.187   1.002 -0.7980 -2.8972 -1.7609
21678SOL     OW68438   5.766   4.634   0.161  0.1694 -0.2009  0.0650
21678SOL    HW168439   5.815   4.570   0.212  1.3441 -0.3396 -1.1953
21678SOL    HW268440   5.674   4.619   0.184  0.6453 -0.3765  1.9736
21679SOL     OW68441   4.910   3.999   8.869 -0.3772  0.6951  0.3904
21679SOL    HW168442   4.827   3.952   8.873 -0.2563  0.4662  0.2293
21679SOL    HW268443   4.958   3.955   8.799  0.6131 -0.3595  1.6998
21680SOL     OW68444   5.201   0.838   4.051  0.8018 -0.1207 -0.2971
21680SOL    HW168445   5.223   0.784   4.127 -0.2251 -0.2363 -0.0632
21680SOL    HW268446   5.271   0.821   3.988  0.4710 -1.7865 -0.2515
21681SOL     OW68447  10.649   2.785   3.966 -0.4064  0.0941 -0.4004
21681SOL    HW168448  10.652   2.845   4.041  1.4535  2.0524 -1.9847
21681SOL    HW268449  10.726   2.807   3.914 -0.5942 -2.5527 -1.9256
21682SOL     OW68450   8.062   0.243   5.110  0.2305 -0.3253  0.3660
21682SOL    HW168451   8.128   0.312   5.123 -0.9375  0.8610  0.1298
21682SOL    HW268452   8.087   0.175   5.172  1.4225  0.2965  0.5971
21683SOL     OW68453   4.307   4.853   0.376 -0.3167  0.1781  0.0231
21683SOL    HW168454   4.360   4.774   0.366  0.5793  0.7131  0.4418
21683SOL    HW268455   4.327   4.906   0.299 -0.9972 -0.0398 -0.3102
21684SOL     OW68456   6.314   2.525   9.207 -0.0040  0.3762 -0.0789
21684SOL    HW168457   6.267   2.607   9.222  0.2950  0.8820 -1.8245
21684SOL    HW268458   6.383   2.525   9.273 -0.0757  1.4759  0.0057
21685SOL     OW68459   2.932   5.809  10.712  0.0411  0.2812 -0.2334
21685SOL    HW168460   2.839   5.792  10.697  0.0679  0.8839 -1.1053
21685SOL    HW268461   2.975   5.730  10.681 -0.2428 -0.5035  1.2767
21686SOL     OW68462   0.523   6.432   5.857  0.4585 -0.0723  0.3165
21686SOL    HW168463   0.466   6.362   5.827  1.4639 -0.5813 -0.4362
21686SOL    HW268464   0.502   6.442   5.950  0.6447 -1.7035  0.5516
21687SOL     OW68465  10.949   9.390   1.516 -0.4839 -0.1140 -0.4765
21687SOL    HW168466  10.977   9.341   1.594  0.7223  1.6042  0.2034
21687SOL    HW268467  10.906   9.467   1.551  0.8654  1.1327 -1.4828
21688SOL     OW68468   5.150   3.511   7.358 -0.0150 -0.0161 -0.8390
21688SOL    HW168469   5.245   3.516   7.354 -0.1013  2.2757 -0.6938
21688SOL    HW268470   5.131   3.418   7.367  2.2472 -0.3981  0.2363
21689SOL     OW68471   2.022   3.785  10.447  0.0734  0.7226  0.0157
21689SOL    HW168472   2.047   3.721  10.512  4.0790  1.5484 -0.6081
21689SOL    HW268473   2.053   3.749  10.364 -0.8769  1.8038 -0.8328
21690SOL     OW68474   5.458   9.216   4.547 -0.5558  0.2987 -0.0203
21690SOL    HW168475   5.520   9.264   4.492  0.1039 -0.4201  0.0869
21690SOL    HW268476   5.482   9.124   4.535 -0.0500  0.1520  1.8743
21691SOL     OW68477   0.929   8.567   7.022 -0.4718 -0.2374  0.1158
21691SOL    HW168478   0.911   8.541   7.113 -0.3086  2.3363  0.9251
21691SOL    HW268479   0.849   8.545   6.975 -1.0611 -0.3920  1.1668
21692SOL     OW68480   3.640   1.803   5.067  0.3240  0.0653  0.1142
21692SOL    HW168481   3.715   1.747   5.089  0.4597 -0.0251 -0.5858
21692SOL    HW268482   3.679   1.888   5.047  0.2951 -0.1376 -0.8248
21693SOL     OW68483   5.695   4.546   9.371  0.0873 -0.0486  0.3842
21693SOL    HW168484   5.777   4.589   9.396 -0.0599  1.3535 -1.4237
21693SOL    HW268485   5.716   4.499   9.290 -0.7084 -0.2867  0.3123
21694SOL     OW68486   2.057   0.263   4.774 -0.2584  0.3294  0.0606
21694SOL    HW168487   2.144   0.302   4.766  0.2301  0.1761  3.7950
21694SOL    HW268488   1.998   0.338   4.779  0.2018  0.5852  2.3866
21695SOL     OW68489   2.523   3.884   9.985  0.6844 -0.0197  0.0265
21695SOL    HW168490   2.608   3.900  10.028 -0.2691  0.7706  1.6595
21695SOL    HW268491   2.458   3.909  10.051 -0.8289  0.8177 -1.7648
21696SOL     OW68492   9.478   3.006   7.591 -0.4115 -0.2663  0.3978
21696SOL    HW168493   9.535   2.929   7.590 -0.2057 -0.1659 -3.7245
21696SOL    HW268494   9.539   3.080   7.594 -0.4583 -0.2066 -0.1597
21697SOL     OW68495   7.264   4.460  10.234  0.4031  0.4075 -0.5072
21697SOL    HW168496   7.264   4.555  10.221 -1.5207  0.6441  1.0421
21697SOL    HW268497   7.202   4.446  10.305  1.6471 -1.9042  0.1579
21698SOL     OW68498   0.364   0.042   9.501  0.3823  0.0606  0.3033
21698SOL    HW168499   0.354  -0.027   9.567 -1.7163 -0.5290 -0.5845
21698SOL    HW268500   0.279   0.084   9.496  0.5695  0.2712 -1.8225
21699SOL     OW68501   4.280   6.038   6.896 -0.0445 -0.1681  0.8269
21699SOL    HW168502   4.196   6.000   6.924 -0.2801  0.0338  0.4074
21699SOL    HW268503   4.298   6.105   6.962 -0.8621  0.6622  0.2308
21700SOL     OW68504   4.670   5.785   7.549 -0.6160 -0.0193 -0.1560
21700SOL    HW168505   4.716   5.716   7.501  2.2052  0.2907  2.0072
21700SOL    HW268506   4.675   5.862   7.493  3.6481  0.6523  0.9602
21701SOL     OW68507   9.927   8.252   7.922 -0.2511 -0.0298 -0.3810
21701SOL    HW168508   9.964   8.205   7.846  1.1967 -0.7134  0.7168
21701SOL    HW268509   9.983   8.328   7.933 -0.6816  0.2662 -0.2198
21702SOL     OW68510   5.845   0.415   0.411 -0.4085  0.1114  0.1342
21702SOL    HW168511   5.784   0.489   0.421  0.6271  0.9683  0.2216
21702SOL    HW268512   5.793   0.346   0.370 -1.1197  1.2456 -0.9035
21703SOL     OW68513   1.892   6.142   4.415  0.1998 -0.0848 -0.0903
21703SOL    HW168514   1.980   6.169   4.390  0.4813  0.2259  1.2235
21703SOL    HW268515   1.906   6.081   4.488 -0.7152  0.7693  0.8096
21704SOL     OW68516   2.924   2.647   5.398  0.0667 -0.1388 -0.1919
21704SOL    HW168517   2.965   2.611   5.477 -0.8888  0.4738  0.5917
21704SOL    HW268518   2.842   2.599   5.389  0.6335 -0.9193 -1.4037
21705SOL     OW68519   6.070   5.157   7.007 -0.0890  0.0279 -0.1611
21705SOL    HW168520   6.160   5.143   7.034 -0.4608 -3.0141 -0.3291
21705SOL    HW268521   6.076   5.180   6.914  0.5847  1.5067  0.2308
21706SOL     OW68522  10.850   5.547   2.883  0.2417 -0.1219 -0.7253
21706SOL    HW168523  10.903   5.607   2.831  0.2084  0.1306 -0.4685
21706SOL    HW268524  10.802   5.603   2.944  1.9288 -0.5422  1.0849
21707SOL     OW68525   9.492   3.474   0.804 -0.5611 -0.5519  0.7730
21707SOL    HW168526   9.456   3.402   0.855 -2.2724 -1.1659 -1.2393
21707SOL    HW268527   9.585   3.475   0.827 -0.6097 -3.0537  1.2441
21708SOL     OW68528   2.686   4.705   6.768 -0.7704 -0.1976  0.5854
21708SOL    HW168529   2.611   4.753   6.805 -0.2701  0.4736  0.7235
21708SOL    HW268530   2.680   4.720   6.674  0.9324  2.3707  0.8606
21709SOL     OW68531   6.236  10.844   1.878  0.6689 -0.4282 -0.4409
21709SOL    HW168532   6.316  10.893   1.857  0.3500 -0.1516 -1.0081
21709SOL    HW268533   6.206  10.882   1.961  2.0990 -1.7433  0.7183
21710SOL     OW68534   9.920   1.699   1.599 -0.4078  0.4995  0.4150
21710SOL    HW168535   9.842   1.725   1.550 -0.3822  1.7376  1.0010
21710SOL    HW268536   9.991   1.706   1.535 -0.7639 -0.5480 -0.0959
21711SOL     OW68537   1.507   0.573   1.179  0.5559  0.3829  0.4697
21711SOL    HW168538   1.467   0.510   1.119  0.3008 -0.2860  1.3192
21711SOL    HW268539   1.516   0.653   1.128  0.3807 -0.1853 -0.4661
21712SOL     OW68540   6.876   8.083   1.747  0.5958 -0.1442 -0.0863
21712SOL    HW168541   6.953   8.140   1.746  0.1610  0.4493 -0.0426
21712SOL    HW268542   6.817   8.121   1.681  1.9866 -2.9102 -3.0893
21713SOL     OW68543  10.732  10.872   2.491 -0.5596  0.4872 -0.4858
21713SOL    HW168544  10.764  10.875   2.400 -0.8643  0.3240 -0.5983
21713SOL    HW268545  10.670  10.944   2.497  0.0916  1.0245 -0.1654
21714SOL     OW68546   8.589   9.445   4.988 -0.2934  0.6500  0.0316
21714SOL    HW168547   8.683   9.430   4.981 -0.4263 -0.5531  0.7511
21714SOL    HW268548   8.582   9.528   5.034  0.4122  0.9505 -0.3853
21715SOL     OW68549   2.601   2.222   1.699  0.2508 -0.7114  0.2492
21715SOL    HW168550   2.574   2.196   1.611 -0.6352 -0.5799  0.4804
21715SOL    HW268551   2.679   2.276   1.686 -0.6972  0.4903 -0.5636
21716SOL     OW68552   4.010   3.536   2.384  0.2602 -0.0616  0.5427
21716SOL    HW168553   4.026   3.630   2.372  0.8340 -0.4081 -1.5036
21716SOL    HW268554   3.944   3.514   2.319 -2.3739 -0.4382  3.2247
21717SOL     OW68555   2.404   9.196   0.711 -1.0237 -0.5119 -0.0119
21717SOL    HW168556   2.340   9.155   0.654  0.6803 -0.2351 -2.1770
21717SOL    HW268557   2.462   9.125   0.739  0.4733 -0.0581 -1.8194
21718SOL     OW68558   3.854   4.676   4.423  0.0702 -0.8060  0.1155
21718SOL    HW168559   3.932   4.657   4.474  0.5209  0.8926  0.0938
21718SOL    HW268560   3.783   4.679   4.487  0.5167  0.6087  0.5626
21719SOL     OW68561  10.944   0.385   5.495  0.0442  0.0047  0.4258
21719SOL    HW168562  11.038   0.401   5.499  0.1551 -0.6495  0.5261
21719SOL    HW268563  10.907   0.447   5.558  0.3815  0.4284  0.2147
21720SOL     OW68564   3.299   9.945   3.578 -0.1443  0.3125  0.0758
21720SOL    HW168565   3.393   9.928   3.570 -0.0593 -1.7750  4.1854
21720SOL    HW268566   3.260   9.903   3.501  2.1003 -0.3053 -0.7676
21721SOL     OW68567   5.900   3.325   0.609 -0.1756 -0.1634 -0.2586
21721SOL    HW168568   5.899   3.308   0.515  0.6190 -0.3624 -0.2382
21721SOL    HW268569   5.813   3.360   0.628 -0.0106  0.8327 -1.2497
21722SOL     OW68570   2.564   2.174   8.001 -0.7900 -0.2497  0.0939
21722SOL    HW168571   2.487   2.204   7.954 -1.8567 -1.9564  0.6932
21722SOL    HW268572   2.561   2.222   8.084 -0.4973  0.6247 -0.3947
21723SOL     OW68573   3.917   7.624   3.243 -0.1960 -0.0133 -0.0876
21723SOL    HW168574   3.936   7.533   3.221 -2.0845 -0.2080 -1.0711
21723SOL    HW268575   3.871   7.620   3.327 -0.8024 -0.0218 -0.4177
21724SOL     OW68576   7.623   9.091  10.457 -0.2936  0.5868  0.1859
21724SOL    HW168577   7.563   9.139  10.400 -0.9852 -1.1016 -0.5518
21724SOL    HW268578   7.683   9.048  10.396 -0.1891 -0.1414  0.7983
21725SOL     OW68579   4.162   2.449   9.131  0.0582  0.2404 -0.1544
21725SOL    HW168580   4.187   2.431   9.222 -0.5025 -0.6274 -0.1649
21725SOL    HW268581   4.246   2.458   9.085  0.3452  0.8770  0.4806
21726SOL     OW68582   7.267   4.340   9.165 -0.4480  0.4782  0.1159
21726SOL    HW168583   7.269   4.248   9.193 -0.1192  0.3552 -0.3158
21726SOL    HW268584   7.183   4.350   9.121 -0.4352  0.3579  0.0647
21727SOL     OW68585   5.518  10.302   4.165 -0.0356  0.0553  0.6067
21727SOL    HW168586   5.546  10.356   4.239 -2.8637 -0.2954  2.0334
21727SOL    HW268587   5.471  10.229   4.205 -1.7849 -0.0518 -1.5209
21728SOL     OW68588   7.429   1.287   2.520  0.3042  0.3667  0.3401
21728SOL    HW168589   7.397   1.339   2.446  0.0725  1.7516  1.3847
21728SOL    HW268590   7.519   1.265   2.496 -0.3189 -0.6999 -1.1222
21729SOL     OW68591   9.960   5.412   4.195 -0.0857  0.3016  0.2080
21729SOL    HW168592   9.956   5.341   4.131  2.0137 -2.3060  2.8306
21729SOL    HW268593   9.997   5.486   4.147  0.3760 -1.2361 -1.8665
21730SOL     OW68594   3.365   5.147   5.490  0.2431  0.0054 -0.7971
21730SOL    HW168595   3.326   5.234   5.498  0.3463  0.0239 -0.4814
21730SOL    HW268596   3.417   5.137   5.570 -0.0267 -0.4746 -0.6816
21731SOL     OW68597   3.649   1.998   9.306 -0.4704 -0.0185 -0.0769
21731SOL    HW168598   3.699   2.050   9.369 -0.9723  0.8251 -0.3610
21731SOL    HW268599   3.694   1.914   9.302  1.8358  1.2401 -1.4737
21732SOL     OW68600   1.266   1.273   1.740  0.9913 -0.1148 -0.2269
21732SOL    HW168601   1.302   1.244   1.656 -0.6091  0.7501 -1.2421
21732SOL    HW268602   1.312   1.220   1.805  1.9707 -1.0925 -1.6764
21733SOL     OW68603  10.856   2.905   3.841  0.3876  0.2469  0.7115
21733SOL    HW168604  10.929   2.844   3.851 -0.7910 -1.3451 -0.2025
21733SOL    HW268605  10.894   2.981   3.798  1.0611 -1.5058 -1.9109
21734SOL     OW68606   9.262   0.597   3.109 -0.3011 -0.2245 -0.1342
21734SOL    HW168607   9.225   0.544   3.179  0.1556  1.1773  1.2086
21734SOL    HW268608   9.309   0.667   3.155 -0.8150  1.2730 -1.8528
21735SOL     OW68609   1.916  10.098   5.883  0.2354  0.4513  0.3421
21735SOL    HW168610   1.884  10.010   5.903  1.5229  0.1522  1.1470
21735SOL    HW268611   1.868  10.123   5.804 -0.8483 -0.5819  0.6472
21736SOL     OW68612   0.225   4.870   0.884 -0.7696  0.0728 -0.2381
21736SOL    HW168613   0.162   4.892   0.951 -2.2477  0.5261 -1.7409
21736SOL    HW268614   0.227   4.774   0.884  0.0921  0.0790  1.2020
21737SOL     OW68615   0.405  10.178   4.216 -0.2181  0.2990 -0.2486
21737SOL    HW168616   0.328  10.196   4.162  0.2697 -0.7193 -1.3084
21737SOL    HW268617   0.480  10.200   4.160  0.2816  1.8728  0.9823
21738SOL     OW68618   4.496   9.254   6.148 -1.2072  0.1258 -0.6162
21738SOL    HW168619   4.431   9.318   6.175  1.3314  2.2225  0.7658
21738SOL    HW268620   4.550   9.241   6.227  1.5824  0.3958 -2.4142
21739SOL     OW68621   6.849   7.322   0.521 -0.2414 -0.6948  0.3023
21739SOL    HW168622   6.890   7.349   0.603  1.2465  0.3536 -0.7643
21739SOL    HW268623   6.887   7.236   0.502  1.6435  0.3505 -0.7752
21740SOL     OW68624   3.128   0.710  10.245  0.4468 -0.4087  0.7896
21740SOL    HW168625   3.222   0.720  10.259  0.3981 -1.4523  1.8647
21740SOL    HW268626   3.099   0.652  10.315 -1.4518  1.9327  2.0309
21741SOL     OW68627   2.940   7.775  10.558 -0.0375  0.4525  0.0602
21741SOL    HW168628   2.862   7.830  10.548  0.1679  0.3984 -1.9817
21741SOL    HW268629   2.960   7.745  10.470  0.2946 -2.3271  1.0228
21742SOL     OW68630   8.234   1.714   4.594 -0.4443 -0.4576 -0.4138
21742SOL    HW168631   8.205   1.803   4.615  0.5960 -0.0592 -0.6244
21742SOL    HW268632   8.251   1.717   4.500 -1.0049 -1.0588 -0.5359
21743SOL     OW68633  10.060   7.932   0.764  0.0529  0.7231  0.1667
21743SOL    HW168634   9.986   7.990   0.750 -0.2189  0.1944 -0.6581
21743SOL    HW268635  10.065   7.880   0.683  2.0503  1.5671 -0.2617
21744SOL     OW68636   7.304   7.635   6.346  0.5347 -0.5177  0.0408
21744SOL    HW168637   7.275   7.549   6.377  1.3761 -1.7759 -2.4729
21744SOL    HW268638   7.223   7.682   6.326  0.0719 -0.8013  1.2388
21745SOL     OW68639   3.437   2.537   3.088 -0.3602 -0.0463 -0.4707
21745SOL    HW168640   3.357   2.548   3.139 -0.7771 -0.6007 -0.9930
21745SOL    HW268641   3.410   2.483   3.013  1.1729 -2.8689  0.9646
21746SOL     OW68642   6.721   0.727   8.189  0.1386  0.6841 -0.2018
21746SOL    HW168643   6.688   0.661   8.250  1.0227  0.8626  0.4691
21746SOL    HW268644   6.742   0.802   8.243 -1.3634  1.7282 -1.0316
21747SOL     OW68645   5.153   6.990   3.513  0.3589  0.1386  0.1095
21747SOL    HW168646   5.141   7.025   3.601  2.1623  0.2284  0.3465
21747SOL    HW268647   5.065   6.971   3.482 -0.4001  1.6455  1.3055
21748SOL     OW68648   3.938   3.906   6.599  0.5457  0.2204 -0.0994
21748SOL    HW168649   3.913   3.938   6.686  0.9415  0.7583 -0.1802
21748SOL    HW268650   3.888   3.961   6.539 -0.1042 -0.4782 -0.2072
21749SOL     OW68651   3.958   1.214   9.173  0.4000 -0.0120 -0.2170
21749SOL    HW168652   4.017   1.196   9.247 -1.7231 -0.9769  1.2782
21749SOL    HW268653   3.988   1.298   9.139  2.0358 -0.0097  1.1299
21750SOL     OW68654   2.196   8.233   1.030  0.0679 -0.0302 -0.6374
21750SOL    HW168655   2.286   8.216   1.001  0.5378  1.1005  0.1396
21750SOL    HW268656   2.173   8.317   0.990  0.3827  1.0766  1.4434
21751SOL     OW68657   6.674   8.809   7.716  0.3079  0.7503  0.4515
21751SOL    HW168658   6.685   8.904   7.719  0.3436  0.8682 -1.9961
21751SOL    HW268659   6.702   8.779   7.802  0.2915  2.9545  1.2698
21752SOL     OW68660   6.969   8.438  10.205 -0.1551  0.3867 -0.4974
21752SOL    HW168661   6.896   8.496  10.226 -0.1701  0.2869 -0.2658
21752SOL    HW268662   7.041   8.472  10.259 -0.3063 -0.1238  0.0271
21753SOL     OW68663   3.370   2.157   6.210 -0.2063  0.0555 -0.2188
21753SOL    HW168664   3.451   2.180   6.256  0.8638  0.9417 -2.4858
21753SOL    HW268665   3.344   2.238   6.166 -2.8560  0.0455  1.2277
21754SOL     OW68666   5.236   2.886   5.291 -0.0027 -0.0816 -0.1857
21754SOL    HW168667   5.290   2.965   5.288  0.3149 -0.3274 -1.1936
21754SOL    HW268668   5.194   2.882   5.205  0.3044 -1.2193 -0.3015
21755SOL     OW68669   1.348   7.824   1.570  0.4551  0.5557  0.5900
21755SOL    HW168670   1.284   7.875   1.520  0.9590 -0.0189 -0.6526
21755SOL    HW268671   1.376   7.884   1.640  1.3672  2.1986 -1.1105
21756SOL     OW68672   5.289   8.398   8.324  0.2351  0.0157 -0.0855
21756SOL    HW168673   5.281   8.344   8.245 -1.5608  2.6282 -1.7856
21756SOL    HW268674   5.250   8.345   8.393 -3.6750 -0.0973 -2.1857
21757SOL     OW68675   6.742   4.322   8.469 -0.3601 -0.3870  0.0928
21757SOL    HW168676   6.733   4.380   8.394 -2.1023  1.4886  1.6854
21757SOL    HW268677   6.654   4.289   8.485  0.1642 -1.5072  0.7400
21758SOL     OW68678   6.000   2.180  10.827  0.3611  0.0339  0.1764
21758SOL    HW168679   6.072   2.120  10.809 -0.9942 -1.9080  0.9288
21758SOL    HW268680   5.949   2.181  10.745 -1.5355 -2.6948  1.2131
21759SOL     OW68681   8.130   1.054   7.721  0.4965  0.5988 -0.2282
21759SOL    HW168682   8.211   1.097   7.695  0.9420  0.1789  0.4363
21759SOL    HW268683   8.143   0.962   7.695 -0.0175  0.6579 -0.6904
21760SOL     OW68684   5.619   1.831   2.385  0.1171  0.2205  0.0069
21760SOL    HW168685   5.569   1.909   2.407 -0.4518  0.0964 -0.8608
21760SOL    HW268686   5.708   1.850   2.415 -0.6938 -0.0588  2.7395
21761SOL     OW68687   7.337   7.819   0.707 -0.3017  0.0446 -0.1813
21761SOL    HW168688   7.248   7.849   0.692 -0.7849 -0.5355  1.3898
21761SOL    HW268689   7.330   7.724   0.717  0.5797 -0.0854 -0.6820
21762SOL     OW68690   1.989   6.041   5.290  0.4286 -0.2337 -0.2601
21762SOL    HW168691   2.026   6.126   5.313  0.2282 -0.0957 -0.4368
21762SOL    HW268692   1.979   5.995   5.373 -2.3934  1.1152  0.2006
21763SOL     OW68693   1.616  10.745   0.562 -0.1380 -0.0742 -0.6320
21763SOL    HW168694   1.613  10.663   0.512  0.8460 -0.9837  0.7508
21763SOL    HW268695   1.525  10.760   0.587 -0.3338 -0.7353 -0.9185
21764SOL     OW68696   5.563   3.129   1.207 -0.3469 -0.7920 -0.1247
21764SOL    HW168697   5.617   3.198   1.244  1.1381 -2.3247  0.6547
21764SOL    HW268698   5.530   3.080   1.282  1.2821 -2.8683 -0.6759
21765SOL     OW68699   7.599   3.044  10.880  0.7733 -0.4999  0.1336
21765SOL    HW168700   7.526   3.102  10.899 -0.5947 -1.9164 -0.6776
21765SOL    HW268701   7.645   3.085  10.806  0.0045 -0.2867 -0.2289
21766SOL     OW68702   2.216   8.122   3.157 -0.0139  0.1280  1.0167
21766SOL    HW168703   2.212   8.074   3.074  3.5389  3.3247 -1.1166
21766SOL    HW268704   2.163   8.200   3.142  0.1865  0.4487  1.9543
21767SOL     OW68705   0.518   7.815   8.690  1.0122  0.4131 -0.7995
21767SOL    HW168706   0.595   7.871   8.696  0.1728  1.5158 -0.0002
21767SOL    HW268707   0.457   7.851   8.754  0.1850 -1.0125 -0.7553
21768SOL     OW68708   3.617   4.599   4.517 -0.2132 -0.0466  0.0613
21768SOL    HW168709   3.646   4.532   4.456  3.2583  1.2482  0.1925
21768SOL    HW268710   3.556   4.653   4.466 -0.6379 -1.4590 -0.9430
21769SOL     OW68711   4.991   0.564   9.220 -0.0373 -0.1213  0.3972
21769SOL    HW168712   5.037   0.541   9.301 -0.1989  0.3759  0.6286
21769SOL    HW268713   4.910   0.514   9.224  0.2100 -0.5364  0.2732
21770SOL     OW68714   7.481   2.670   9.502 -0.3096  0.1870  0.0199
21770SOL    HW168715   7.440   2.742   9.551 -1.0497 -0.9227  1.0626
21770SOL    HW268716   7.408   2.611   9.481  0.4891 -0.9608  0.4242
21771SOL     OW68717   2.623   8.069   3.422 -0.1601  0.5187 -0.3610
21771SOL    HW168718   2.704   8.108   3.457 -0.5348  0.9180  0.0715
21771SOL    HW268719   2.652   7.988   3.381  0.2513 -0.1589  1.2113
21772SOL     OW68720   4.301   4.334  10.286 -0.1516 -0.0469 -0.1228
21772SOL    HW168721   4.330   4.252  10.325 -4.0218 -1.4874 -0.0627
21772SOL    HW268722   4.328   4.329  10.194  1.6839 -0.3278  0.4271
21773SOL     OW68723  10.408   7.421   4.983 -0.1459 -0.6410 -0.1730
21773SOL    HW168724  10.391   7.393   4.893 -2.2505 -1.8123  0.5597
21773SOL    HW268725  10.376   7.349   5.037 -1.1911  1.1129  1.6143
21774SOL     OW68726   2.234   2.914   3.740  0.0231  0.0941  0.2028
21774SOL    HW168727   2.243   2.989   3.799  2.8395  1.1602 -1.5177
21774SOL    HW268728   2.187   2.949   3.664  2.5652  0.5611 -1.2251
21775SOL     OW68729   9.431   2.445   6.958  0.0600 -0.4064  0.0129
21775SOL    HW168730   9.442   2.462   7.051  2.3442 -1.6143  0.0144
21775SOL    HW268731   9.483   2.366   6.942  1.4116  0.9592 -2.6644
21776SOL     OW68732   8.861   6.870   9.702 -0.7714 -0.0277 -0.6168
21776SOL    HW168733   8.880   6.953   9.658  0.2981 -0.2094 -0.5202
21776SOL    HW268734   8.872   6.804   9.634 -1.4835 -0.1059 -0.6597
21777SOL     OW68735   0.631   9.431   1.169 -0.0133 -0.2005  0.0954
21777SOL    HW168736   0.690   9.420   1.095 -0.1505 -2.3355  0.2635
21777SOL    HW268737   0.633   9.346   1.214  0.3350  1.1318  2.7304
21778SOL     OW68738   0.797   5.443   7.905 -0.3244  0.0752  0.0787
21778SOL    HW168739   0.755   5.517   7.861 -0.0859  0.1206 -0.0793
21778SOL    HW268740   0.788   5.462   7.998 -0.4647  0.1895  0.0413
21779SOL     OW68741   7.901   7.186   7.804 -0.2089 -0.1083 -0.1484
21779SOL    HW168742   7.976   7.147   7.849 -0.3698  1.0745  1.1546
21779SOL    HW268743   7.919   7.171   7.711  1.7692  0.3990  0.1326
21780SOL     OW68744   8.750   5.353   5.136 -0.4323  0.0338 -0.0500
21780SOL    HW168745   8.818   5.284   5.137  0.0547  0.5182  0.7830
21780SOL    HW268746   8.719   5.357   5.227 -1.3004  0.1008 -0.3444
21781SOL     OW68747   4.810   1.328   1.313 -0.0197  0.2865  0.6550
21781SOL    HW168748   4.882   1.269   1.336 -2.5411 -2.4379  1.8570
21781SOL    HW268749   4.798   1.384   1.390  1.1226  1.1226  0.2418
21782SOL     OW68750   7.529   8.601   9.695  0.1921  0.2262  0.0569
21782SOL    HW168751   7.474   8.644   9.760  0.8028 -0.4367  1.0238
21782SOL    HW268752   7.583   8.672   9.660  3.5083 -0.1750  3.9769
21783SOL     OW68753   1.338   6.405   3.971 -0.4392 -0.2447 -0.3636
21783SOL    HW168754   1.423   6.437   4.002 -0.2970 -1.3757  0.4539
21783SOL    HW268755   1.279   6.419   4.044 -0.3154 -2.0471  0.1131
21784SOL     OW68756   5.172   5.854   4.543  0.4852 -0.2516  0.3003
21784SOL    HW168757   5.200   5.808   4.464 -0.6363 -0.2298 -0.1166
21784SOL    HW268758   5.251   5.898   4.574  1.1755 -1.1152 -0.2171
21785SOL     OW68759   2.837   4.291   9.652  0.6546 -0.0977  0.7789
21785SOL    HW168760   2.885   4.322   9.729  1.3043 -0.8728  0.6916
21785SOL    HW268761   2.800   4.207   9.679 -0.4344  0.3754  0.7575
21786SOL     OW68762   4.985   7.759   1.059  0.3443 -0.7140 -0.3274
21786SOL    HW168763   5.056   7.819   1.083  0.7654 -1.4616  0.3769
21786SOL    HW268764   4.999   7.742   0.966 -0.1056  0.6913 -0.6558
21787SOL     OW68765   1.290   6.474   8.167 -0.0473 -0.1745  0.0850
21787SOL    HW168766   1.367   6.417   8.176 -0.1405 -0.1717  0.9139
21787SOL    HW268767   1.253   6.450   8.082 -0.2841 -1.6132  0.5667
21788SOL     OW68768   5.057   4.607   5.915  0.1138 -0.0079 -0.0372
21788SOL    HW168769   5.064   4.695   5.879 -1.8679 -0.3797 -1.4652
21788SOL    HW268770   5.108   4.552   5.855 -1.9583 -0.3992 -1.5179
21789SOL     OW68771   1.263   6.722  10.044  0.3173 -0.4673 -0.1805
21789SOL    HW168772   1.326   6.755   9.980 -0.6644 -1.0198 -1.4607
21789SOL    HW268773   1.313   6.664  10.101  1.0340 -0.5846 -0.9322
21790SOL     OW68774   9.150   8.674   2.041 -0.0460 -0.4159 -0.3787
21790SOL    HW168775   9.118   8.645   2.127  0.8071 -1.5872 -0.4363
21790SOL    HW268776   9.082   8.646   1.980 -1.0986  1.2466  0.0032
21791SOL     OW68777   7.223   5.422   5.619  0.3468  0.0138  0.1529
21791SOL    HW168778   7.317   5.430   5.637  0.4705 -1.4800  0.1909
21791SOL    HW268779   7.193   5.513   5.610  2.1851  0.4349 -1.9580
21792SOL     OW68780   4.932   1.421   4.062  0.4839  0.4547 -0.0935
21792SOL    HW168781   4.931   1.330   4.091  1.5960  0.2862 -0.5684
21792SOL    HW268782   4.842   1.451   4.075  0.4615 -0.2533  1.4937
21793SOL     OW68783   6.236   3.548   8.087 -0.6759  0.1355  0.1107
21793SOL    HW168784   6.166   3.492   8.055 -0.8914 -0.8174  2.2090
21793SOL    HW268785   6.316   3.496   8.076 -0.6379  0.1535  0.2999
21794SOL     OW68786   1.190   2.837   9.022  0.4881 -0.0059  0.2475
21794SOL    HW168787   1.149   2.893   8.956  0.6326 -0.1779  0.0115
21794SOL    HW268788   1.266   2.887   9.052 -0.8871  1.1007  1.9774
21795SOL     OW68789   7.794   5.019  10.239 -0.5916  0.8910  0.0149
21795SOL    HW168790   7.863   4.962  10.204 -1.2524  0.0908 -0.0038
21795SOL    HW268791   7.841   5.092  10.280  0.3496 -0.6125  1.7046
21796SOL     OW68792   4.697   6.905   1.325 -0.6778  0.3077 -0.0347
21796SOL    HW168793   4.776   6.862   1.291 -0.9835 -0.0779 -0.2733
21796SOL    HW268794   4.729   6.965   1.392 -0.2293 -0.1961  0.2071
21797SOL     OW68795   5.289   4.356   4.724  0.4360 -0.2074 -0.1788
21797SOL    HW168796   5.379   4.376   4.749  1.2594  0.3212 -3.3536
21797SOL    HW268797   5.280   4.262   4.739  1.3397 -0.1657  0.6644
21798SOL     OW68798   2.600   1.606   4.833  0.1552  0.0749 -0.2963
21798SOL    HW168799   2.693   1.631   4.829 -0.0012  0.5804 -1.0365
21798SOL    HW268800   2.593   1.530   4.775  0.5016 -1.2888  1.4274
21799SOL     OW68801   3.952   1.701   2.865 -0.3211  0.0871 -0.5757
21799SOL    HW168802   3.998   1.776   2.827  1.3961 -0.5944  0.0916
21799SOL    HW268803   3.942   1.725   2.958 -1.0162  0.0763 -0.6461
21800SOL     OW68804   2.738   8.682   8.950  0.2452 -0.0300  0.1746
21800SOL    HW168805   2.710   8.616   9.014 -0.1512 -0.3882 -0.3595
21800SOL    HW268806   2.801   8.635   8.894  1.0002  0.4309  0.6214
21801SOL     OW68807   6.606  10.019   8.775  0.1778 -0.0979 -0.3461
21801SOL    HW168808   6.531  10.061   8.818  0.6639  2.4680 -1.8841
21801SOL    HW268809   6.676  10.022   8.840 -0.1965  0.2309  0.0481
21802SOL     OW68810  10.452   8.928   4.765  0.1495 -0.4138  0.5457
21802SOL    HW168811  10.476   8.851   4.713  0.6022 -0.1119  0.3088
21802SOL    HW268812  10.528   8.986   4.759  0.7091 -0.9161  2.5759
21803SOL     OW68813   7.072   4.568   2.999 -0.3761 -0.4728 -0.1116
21803SOL    HW168814   7.099   4.537   2.912  1.0154 -0.3371  0.2519
21803SOL    HW268815   7.045   4.658   2.985 -1.5427 -0.9019 -0.6537
21804SOL     OW68816   0.516  10.927   4.688 -0.3047 -0.0170 -0.0476
21804SOL    HW168817   0.548  10.919   4.778 -1.5020 -1.9237  0.2203
21804SOL    HW268818   0.479  10.842   4.667 -2.1443  1.1039 -1.5567
21805SOL     OW68819  10.970  10.813   4.761 -0.0091 -0.4456  0.0782
21805SOL    HW168820  10.894  10.858   4.798 -0.4113 -0.6538 -0.5014
21805SOL    HW268821  11.039  10.879   4.761 -0.2907 -0.1503  0.2662
21806SOL     OW68822   0.803   3.777  10.002  0.6993 -0.1399 -0.0253
21806SOL    HW168823   0.827   3.754   9.912 -2.9913  0.1501 -1.1494
21806SOL    HW268824   0.768   3.866   9.995  1.0496  0.1580  1.8513
21807SOL     OW68825   5.018   2.682   6.771 -0.4765  0.2650 -0.3608
21807SOL    HW168826   5.111   2.664   6.778 -0.6835 -0.9501 -0.6420
21807SOL    HW268827   5.004   2.704   6.679 -0.5728 -0.1170 -0.4354
21808SOL     OW68828   4.175   2.043   9.017 -0.2307 -0.0842 -0.4981
21808SOL    HW168829   4.176   1.947   9.011  0.4189 -0.2195  1.4828
21808SOL    HW268830   4.244   2.064   9.079  0.6980  1.7939 -2.1045
21809SOL     OW68831   8.657   5.756   6.155  0.2669 -0.7791  0.3000
21809SOL    HW168832   8.733   5.723   6.108 -0.2826 -0.2292 -1.0097
21809SOL    HW268833   8.618   5.679   6.196  0.6208 -1.2988 -0.3395
21810SOL     OW68834   9.417   5.152   5.180 -0.1498  0.0849 -0.2750
21810SOL    HW168835   9.376   5.078   5.225 -0.3846  1.9354  2.7267
21810SOL    HW268836   9.506   5.123   5.161 -0.6859 -1.4680 -0.4561
21811SOL     OW68837   2.437   9.428  10.680  0.5547  0.2042 -0.3355
21811SOL    HW168838   2.478   9.459  10.761 -2.4044 -0.8034  1.6288
21811SOL    HW268839   2.466   9.337  10.672  0.1331  0.0316  0.0906
21812SOL     OW68840   1.604   3.699   4.148 -0.9437  0.7449 -0.2793
21812SOL    HW168841   1.571   3.656   4.227 -1.4798 -0.3211 -1.0717
21812SOL    HW268842   1.579   3.791   4.159 -0.9699  0.6139  0.8131
21813SOL     OW68843   5.043   1.962   6.613  0.5134  0.1354  0.0884
21813SOL    HW168844   5.031   1.881   6.663 -1.4788  0.1164 -0.3881
21813SOL    HW268845   5.024   1.937   6.523  3.2464  0.3746 -0.5944
21814SOL     OW68846   1.065   9.739   5.490  0.1170 -0.5683  0.0074
21814SOL    HW168847   0.991   9.799   5.480 -0.8125 -1.4283  1.4265
21814SOL    HW268848   1.103   9.762   5.575  1.5158 -0.1176 -0.7260
21815SOL     OW68849   2.101   1.209   7.901 -0.2147 -0.0518  0.2998
21815SOL    HW168850   2.034   1.265   7.861  2.4308  3.3017  0.3044
21815SOL    HW268851   2.089   1.220   7.995  0.8774  1.3525  0.3040
21816SOL     OW68852   1.418  10.032   4.932 -0.5455  0.1972 -0.1718
21816SOL    HW168853   1.390   9.959   4.987 -0.8241  0.4932  0.0837
21816SOL    HW268854   1.352  10.100   4.948  0.3891  0.9469  0.5420
21817SOL     OW68855  10.086   7.455   2.579  0.2083  0.3992  0.5139
21817SOL    HW168856  10.095   7.410   2.495 -3.4923 -0.0138  0.2782
21817SOL    HW268857  10.033   7.532   2.560 -1.0935  0.0371  2.5594
21818SOL     OW68858  10.452   2.695   7.581 -0.5613  0.2309  0.9148
21818SOL    HW168859  10.502   2.771   7.550 -1.9277  1.4095  1.5720
21818SOL    HW268860  10.496   2.669   7.662  2.8399 -2.6710 -1.6718
21819SOL     OW68861   2.246   5.824   8.035  0.2202  0.2792 -0.0685
21819SOL    HW168862   2.262   5.779   8.118 -0.1712  0.3981  0.0729
21819SOL    HW268863   2.229   5.915   8.060  1.3335  0.5781 -0.3790
21820SOL     OW68864   5.559   3.124   7.456 -0.3246  0.4236 -0.3904
21820SOL    HW168865   5.553   3.048   7.398 -1.4208  0.2743 -0.0908
21820SOL    HW268866   5.638   3.109   7.508 -0.9591 -0.8760  0.1985
21821SOL     OW68867  10.936   7.390   5.894 -0.3631  0.5054  0.2069
21821SOL    HW168868  10.901   7.432   5.972  0.8088  0.1685  0.9261
21821SOL    HW268869  11.029   7.380   5.912 -0.2176 -0.2521 -0.9260
21822SOL     OW68870   0.703   6.902   5.465  0.6569 -0.0937 -0.3883
21822SOL    HW168871   0.784   6.902   5.414  1.3342  0.1026  0.6679
21822SOL    HW268872   0.707   6.983   5.517 -0.1926 -0.1047 -0.2856
21823SOL     OW68873   1.485   3.119   8.064 -1.1838  0.1873 -0.6139
21823SOL    HW168874   1.443   3.205   8.062 -1.8599 -0.1188  0.2576
21823SOL    HW268875   1.413   3.057   8.050 -0.9528 -0.3090  0.3497
21824SOL     OW68876   1.005   4.517   7.973 -0.4465 -0.2026 -0.1650
21824SOL    HW168877   1.007   4.421   7.980 -0.1505 -0.3445 -1.9253
21824SOL    HW268878   0.917   4.541   8.002 -0.5923 -1.0380  0.0971
21825SOL     OW68879   9.584   4.243   4.644 -0.3206 -0.5725  0.3303
21825SOL    HW168880   9.491   4.224   4.634 -0.0305 -1.8104 -0.1300
21825SOL    HW268881   9.612   4.275   4.557 -0.4425  0.3789  0.6347
21826SOL     OW68882   5.294   2.078   4.955  0.1418 -0.1393  0.2620
21826SOL    HW168883   5.275   2.039   4.870  1.5436  0.0074 -0.1238
21826SOL    HW268884   5.380   2.044   4.979  1.1144  2.2075  0.2212
21827SOL     OW68885   7.511   4.147   0.401 -0.0926  0.5256  0.8255
21827SOL    HW168886   7.585   4.086   0.393  0.1820  0.8284  1.0330
21827SOL    HW268887   7.481   4.137   0.491 -0.6762 -0.0190  0.5730
21828SOL     OW68888   8.881   6.276   0.069  0.4538  0.1327 -0.3688
21828SOL    HW168889   8.870   6.284   0.163  3.3268  1.8051 -0.1019
21828SOL    HW268890   8.837   6.194   0.046 -0.7120 -0.0467  2.3127
21829SOL     OW68891   2.341   2.569   3.244  0.0410 -0.1305  0.0331
21829SOL    HW168892   2.415   2.604   3.294 -0.1183 -0.1495  0.2824
21829SOL    HW268893   2.377   2.492   3.200  0.3467  0.2558 -0.3908
21830SOL     OW68894   7.115   4.964   0.997 -0.5034  0.1641  0.3924
21830SOL    HW168895   7.129   4.933   0.907 -0.4617 -1.4067  0.9222
21830SOL    HW268896   7.193   5.017   1.016 -0.0943 -0.2268 -0.1836
21831SOL     OW68897   4.741   5.510   9.843 -0.5585  1.0192  0.0390
21831SOL    HW168898   4.753   5.544   9.932  0.3999  0.0035  0.3089
21831SOL    HW268899   4.795   5.431   9.840 -1.0911  0.6924 -1.2492
21832SOL     OW68900   1.304   7.272   1.016 -0.1058 -0.0664  0.3072
21832SOL    HW168901   1.224   7.234   1.053 -0.6613  0.7777 -0.0118
21832SOL    HW268902   1.353   7.305   1.091  1.0577 -2.6359  0.7372
21833SOL     OW68903   9.779   4.849   2.115  0.1432 -0.0707 -0.3227
21833SOL    HW168904   9.796   4.853   2.209 -0.7901 -1.4688 -0.0820
21833SOL    HW268905   9.820   4.928   2.080  0.5343  0.4405  1.2483
21834SOL     OW68906   4.178   7.235   4.221  0.6748  0.2571  0.3933
21834SOL    HW168907   4.236   7.287   4.277 -2.2676  0.6689  3.1593
21834SOL    HW268908   4.164   7.153   4.270 -0.6391 -0.0638 -0.4832
21835SOL     OW68909   1.428   6.282   5.559 -0.5873  0.1281  0.4806
21835SOL    HW168910   1.416   6.336   5.637 -0.8736  0.1212  0.4404
21835SOL    HW268911   1.494   6.218   5.585 -1.0937 -0.2304  0.8989
21836SOL     OW68912   9.288   2.015   8.910  0.5248  0.2356 -0.0654
21836SOL    HW168913   9.353   1.969   8.856  1.2668  0.3501  0.7236
21836SOL    HW268914   9.317   2.000   9.000 -0.7337  0.0115  0.3137
21837SOL     OW68915   7.405   2.558   6.753 -0.3365 -0.2599  0.1600
21837SOL    HW168916   7.325   2.602   6.725 -1.0320 -0.3024  2.0424
21837SOL    HW268917   7.391   2.466   6.730 -1.1411 -0.3893  1.1347
21838SOL     OW68918   4.483   1.364   9.451 -0.4877 -0.2055 -0.3933
21838SOL    HW168919   4.466   1.452   9.419 -0.5511 -0.4600 -1.0577
21838SOL    HW268920   4.579   1.356   9.449 -0.3760  0.4701  1.3403
21839SOL     OW68921   5.532   3.546   1.162 -0.7582 -0.2718  0.1025
21839SOL    HW168922   5.608   3.578   1.210 -0.3753 -0.8486 -0.1187
21839SOL    HW268923   5.525   3.604   1.087  0.3362 -1.0987 -0.6570
21840SOL     OW68924   2.351   2.486   8.280 -0.3916  0.2016 -0.0113
21840SOL    HW168925   2.413   2.558   8.266 -1.2974  0.9589 -0.2541
21840SOL    HW268926   2.318   2.500   8.369  2.0635 -2.0087  1.2796
21841SOL     OW68927  10.859   7.221   3.257 -0.1226 -0.5264  0.5425
21841SOL    HW168928  10.790   7.271   3.214 -0.1132 -0.9678  0.0152
21841SOL    HW268929  10.897   7.283   3.319 -0.8612 -0.2224  0.6994
21842SOL     OW68930   3.349   2.001   6.458 -0.1542  0.2803  0.7494
21842SOL    HW168931   3.384   2.065   6.521  1.4514  0.1655 -0.0165
21842SOL    HW268932   3.394   2.020   6.376 -1.5403 -0.1984 -0.1434
21843SOL     OW68933   4.904   7.460   0.344  0.3168 -0.3295  0.0544
21843SOL    HW168934   4.946   7.477   0.259  0.0282  2.6475  0.4625
21843SOL    HW268935   4.972   7.480   0.409 -0.5995  1.0763  0.6042
21844SOL     OW68936   2.185   3.713   0.119  0.4104 -0.4816 -0.3750
21844SOL    HW168937   2.144   3.636   0.081 -1.8902  0.8011 -0.6261
21844SOL    HW268938   2.128   3.737   0.193  2.2063 -0.1951  0.9615
21845SOL     OW68939   7.064   8.865   3.995 -0.1995  0.5489 -0.7002
21845SOL    HW168940   7.148   8.835   3.961  0.5278  1.6658  0.0731
21845SOL    HW268941   7.011   8.880   3.917  0.3029 -0.1967 -1.1944
21846SOL     OW68942   1.583  10.542   8.388  0.2661  0.2269 -0.2100
21846SOL    HW168943   1.525  10.468   8.370 -0.1802  0.7797 -1.0620
21846SOL    HW268944   1.627  10.560   8.305  0.9295  0.4470  0.1805
21847SOL     OW68945   9.132   6.375   7.773  0.2452  0.0338  0.1853
21847SOL    HW168946   9.126   6.468   7.797 -0.7153 -0.1748  0.7898
21847SOL    HW268947   9.198   6.339   7.832  1.0622  0.4617 -0.4641
21848SOL     OW68948   3.287   0.316   1.480  0.1547 -0.6582 -0.5996
21848SOL    HW168949   3.379   0.296   1.465  0.1385 -0.2317 -1.2707
21848SOL    HW268950   3.284   0.412   1.484 -0.3654 -0.6451 -1.2678
21849SOL     OW68951   9.272   4.166   3.664  0.2691  0.7959  0.1208
21849SOL    HW168952   9.354   4.122   3.686  1.1954  1.9208 -0.9961
21849SOL    HW268953   9.211   4.138   3.731  1.5805 -0.0441  0.9877
21850SOL     OW68954   1.869   9.996   5.019  0.0833 -0.2318  0.3356
21850SOL    HW168955   1.800   9.939   5.052  1.0684 -1.1672  0.8130
21850SOL    HW268956   1.950   9.946   5.033  0.8484  0.8295 -0.2500
21851SOL     OW68957   9.763   1.427   4.520  0.0675 -0.1915  0.7804
21851SOL    HW168958   9.765   1.467   4.433  0.3384 -0.8415  0.4813
21851SOL    HW268959   9.843   1.374   4.523 -0.3755 -0.8341  1.1116
21852SOL     OW68960   7.264   4.063   7.452  0.5132  0.9425  0.2518
21852SOL    HW168961   7.287   4.003   7.381  0.2888  0.3518  0.6776
21852SOL    HW268962   7.309   4.144   7.430  0.6227  0.6952 -0.4555
21853SOL     OW68963   8.202   9.147   7.665 -0.1526  0.0287  0.2091
21853SOL    HW168964   8.177   9.101   7.585  0.9369 -1.4086  0.6732
21853SOL    HW268965   8.276   9.202   7.640 -0.5542  0.4671 -0.0252
21854SOL     OW68966   0.196   2.951   6.681 -0.6784  0.1942 -0.4561
21854SOL    HW168967   0.153   2.898   6.748 -0.8353  0.9697  0.0603
21854SOL    HW268968   0.229   3.027   6.729  0.2183  0.1906 -1.0573
21855SOL     OW68969  10.654   4.642   5.212 -0.1688 -0.1689 -0.1087
21855SOL    HW168970  10.687   4.699   5.281  3.7814 -2.6655  0.2136
21855SOL    HW268971  10.628   4.562   5.257 -0.8994 -0.5353 -1.1436
21856SOL     OW68972   0.394   9.293   9.805 -0.1383  0.1500  0.6957
21856SOL    HW168973   0.428   9.322   9.889 -1.0403 -0.1744  1.1762
21856SOL    HW268974   0.405   9.198   9.806  1.9757  0.3630 -0.5006
21857SOL     OW68975   6.855   3.778   6.919  0.1444  0.6030 -0.7040
21857SOL    HW168976   6.795   3.830   6.865 -0.0125  2.4222  1.1618
21857SOL    HW268977   6.940   3.821   6.907  0.7861 -1.0093 -2.0931
21858SOL     OW68978   4.405   5.026   4.589  0.7125  0.1890  0.7514
21858SOL    HW168979   4.382   5.074   4.669 -0.6549 -0.1164  0.5618
21858SOL    HW268980   4.326   5.032   4.535  2.3619  2.2020 -1.4868
21859SOL     OW68981  10.256   4.531   8.611  0.0304  0.0687 -0.0295
21859SOL    HW168982  10.179   4.569   8.653 -0.4498 -0.0655 -0.7747
21859SOL    HW268983  10.299   4.482   8.681 -1.6269 -1.4690 -0.0305
21860SOL     OW68984   4.350   5.927   9.567  0.9179  0.2451  0.0722
21860SOL    HW168985   4.396   5.929   9.651  0.3801  0.1930  0.3755
21860SOL    HW268986   4.262   5.898   9.590  0.3686  1.5451 -0.3273
21861SOL     OW68987   3.742   2.554  10.446 -0.4193  0.3402  0.0673
21861SOL    HW168988   3.795   2.566  10.524  0.0686 -0.5918 -0.1075
21861SOL    HW268989   3.677   2.488  10.471 -1.7944  1.8035  0.4194
21862SOL     OW68990   1.486   9.313   2.350  0.2835  0.2692 -0.1610
21862SOL    HW168991   1.393   9.302   2.328  0.9092 -0.4913 -2.5905
21862SOL    HW268992   1.500   9.408   2.342 -0.2571  0.3805  0.1324
21863SOL     OW68993   4.293   6.254   0.649  0.1778 -0.2300  0.5249
21863SOL    HW168994   4.228   6.221   0.711  0.0305 -0.8732  0.0390
21863SOL    HW268995   4.241   6.284   0.574  0.3724  0.2982  0.5926
21864SOL     OW68996   0.030   6.891   4.533 -0.2515  0.4060  0.0427
21864SOL    HW168997   0.025   6.798   4.510  1.9746  0.6773 -1.7087
21864SOL    HW268998   0.070   6.892   4.620 -1.7392 -0.3274  0.7532
21865SOL     OW68999  10.744   0.327   8.920 -0.0595  0.5279  0.3636
21865SOL    HW169000  10.685   0.255   8.941  1.4488 -1.0946 -0.8466
21865SOL    HW269001  10.829   0.300   8.953  0.8338  1.0591 -1.4203
21866SOL     OW69002   2.522   5.419   3.584  0.5079  0.1269  0.1685
21866SOL    HW169003   2.431   5.427   3.612  0.0135  1.4702 -1.7619
21866SOL    HW269004   2.568   5.490   3.628  0.5229 -0.2039  0.6923
21867SOL     OW69005   5.247   8.304   2.122 -0.1679  0.6562  0.5629
21867SOL    HW169006   5.277   8.214   2.115 -0.1247  0.7424 -0.4741
21867SOL    HW269007   5.327   8.356   2.129 -0.2221  0.4925  3.0622
21868SOL     OW69008  10.522   9.768   3.771 -0.0857 -0.5119  0.2862
21868SOL    HW169009  10.582   9.813   3.712 -1.7796  2.2790  0.5896
21868SOL    HW269010  10.443   9.753   3.719  0.2653 -2.7188  0.3554
21869SOL     OW69011   5.251   3.938  10.599 -0.3801 -0.0691 -0.1742
21869SOL    HW169012   5.301   3.896  10.670  1.2793  1.0817 -0.6197
21869SOL    HW269013   5.246   3.872  10.531 -2.4710 -1.3869  1.2061
21870SOL     OW69014   0.033  10.290   6.186 -0.6674  0.0352 -0.0228
21870SOL    HW169015   0.024  10.237   6.107 -1.0870 -1.6097  1.1114
21870SOL    HW269016   0.125  10.282   6.209 -0.9345 -1.0287  0.7053
21871SOL     OW69017   2.726   2.460   2.922  0.4035  0.3861  0.0950
21871SOL    HW169018   2.704   2.399   2.851  1.4585  0.7326 -0.5355
21871SOL    HW269019   2.705   2.546   2.888 -0.2961  0.4447  0.6790
21872SOL     OW69020   1.789   4.741   6.753 -0.4419  0.3576 -0.3059
21872SOL    HW169021   1.793   4.763   6.660 -1.5651 -0.7178 -0.6266
21872SOL    HW269022   1.731   4.807   6.792 -2.2296 -0.8449 -0.8978
21873SOL     OW69023   0.982   8.808   5.303  0.0158 -0.3053 -0.9980
21873SOL    HW169024   0.934   8.728   5.324  1.9424 -1.0953  0.6044
21873SOL    HW269025   1.025   8.789   5.220 -2.2112  0.3314 -2.3355
21874SOL     OW69026   7.793   2.656   2.605 -0.2337  0.5072 -0.1431
21874SOL    HW169027   7.742   2.575   2.599 -0.4356  0.7178 -1.4659
21874SOL    HW269028   7.884   2.627   2.603 -0.3064  0.3522 -1.3138
21875SOL     OW69029   5.729   7.371   7.059  0.4714  0.0666  0.0020
21875SOL    HW169030   5.722   7.277   7.075 -0.9324 -0.2824 -2.3411
21875SOL    HW269031   5.639   7.403   7.068  0.7318  0.9500 -0.4904
21876SOL     OW69032   5.985  10.312   2.618  0.7186 -0.1223  0.0100
21876SOL    HW169033   5.992  10.278   2.707  0.9954  0.2520  0.1296
21876SOL    HW269034   6.071  10.348   2.599  0.1651  1.3574  0.2359
21877SOL     OW69035   6.050   2.499   1.828 -0.0362 -0.0259 -0.1916
21877SOL    HW169036   6.111   2.541   1.767 -0.3898  0.2886 -0.3274
21877SOL    HW269037   6.066   2.405   1.817  0.1682  0.0434 -0.4897
21878SOL     OW69038   2.642   3.368   5.170  0.5811 -0.1821  0.1382
21878SOL    HW169039   2.584   3.339   5.099 -0.9133  3.1829 -0.1117
21878SOL    HW269040   2.583   3.411   5.232  2.4392  0.7297  1.2979
21879SOL     OW69041   1.847   3.633   2.831 -0.3456  0.2420  0.5226
21879SOL    HW169042   1.774   3.628   2.892 -0.4370 -1.8669  0.2901
21879SOL    HW269043   1.807   3.654   2.746 -0.2604  2.7579  1.0659
21880SOL     OW69044   5.571   4.728   0.776 -0.4221  0.1036  0.1916
21880SOL    HW169045   5.638   4.748   0.841 -0.8521 -1.0487  0.9816
21880SOL    HW269046   5.503   4.794   0.791 -0.9036 -0.6740  1.4629
21881SOL     OW69047  10.821   5.792   8.945  0.1260 -0.1937  0.0875
21881SOL    HW169048  10.756   5.835   8.890  1.6810  0.1974 -1.4792
21881SOL    HW269049  10.828   5.703   8.910  0.0390 -0.4063  0.6053
21882SOL     OW69050   1.764   7.218   7.700 -0.3032 -0.0482 -0.2117
21882SOL    HW169051   1.819   7.246   7.773 -0.0157  0.2777 -0.5531
21882SOL    HW269052   1.815   7.149   7.657 -1.2422 -1.4957  0.9521
21883SOL     OW69053   7.971   6.843   1.804 -0.1030  0.3770  0.6094
21883SOL    HW169054   7.885   6.814   1.774  1.1064 -0.5022 -2.1529
21883SOL    HW269055   7.994   6.782   1.874 -0.4555 -1.2393 -0.6655
21884SOL     OW69056   1.557   6.433   7.236  0.4854 -0.1328  0.2430
21884SOL    HW169057   1.487   6.368   7.234  0.9211 -0.6106  0.5080
21884SOL    HW269058   1.629   6.393   7.187  0.3284  0.6467 -0.6398
21885SOL     OW69059   6.557   7.107   0.769 -0.0788 -0.0766  0.1626
21885SOL    HW169060   6.473   7.076   0.734 -0.0676 -0.8864  0.8355
21885SOL    HW269061   6.589   7.033   0.821  0.5917  0.5896  0.6932
21886SOL     OW69062   7.622   4.542   7.763 -0.3610  0.2684 -0.7955
21886SOL    HW169063   7.582   4.625   7.790 -1.4216 -1.0336  1.7907
21886SOL    HW269064   7.675   4.515   7.838 -1.0697 -2.0201 -1.0575
21887SOL     OW69065   0.760   4.729   4.252 -0.5423  0.2852 -0.0295
21887SOL    HW169066   0.736   4.784   4.326  0.3459  0.2166  0.3156
21887SOL    HW269067   0.852   4.709   4.266 -0.6884 -0.7514 -0.4998
21888SOL     OW69068   3.972   0.145   4.571  0.1860  0.1024  0.0022
21888SOL    HW169069   4.003   0.234   4.555 -0.0371  0.0253 -0.8910
21888SOL    HW269070   4.021   0.091   4.509 -1.2399 -0.1072 -0.9536
21889SOL     OW69071   9.643   5.582   7.261  0.2948 -0.4589 -0.1921
21889SOL    HW169072   9.631   5.670   7.225 -0.1525  0.1424  1.3853
21889SOL    HW269073   9.733   5.581   7.292 -0.5678  0.4498  2.4284
21890SOL     OW69074   5.294   7.662   5.360 -0.0162  0.0937 -0.1765
21890SOL    HW169075   5.224   7.674   5.296  0.6623 -0.7449 -1.0842
21890SOL    HW269076   5.269   7.583   5.409 -1.3672  1.6318  1.7221
21891SOL     OW69077   0.603   9.402   3.215 -0.3578  0.1479 -0.2944
21891SOL    HW169078   0.679   9.373   3.165 -0.7169  0.7808 -1.2156
21891SOL    HW269079   0.558   9.321   3.240  1.0289 -0.2738  0.9360
21892SOL     OW69080  10.553   3.638   6.810  0.2100 -0.2241 -0.2040
21892SOL    HW169081  10.462   3.665   6.808  0.4622  0.5522 -1.3251
21892SOL    HW269082  10.585   3.652   6.721  1.3572 -0.7236  0.1135
21893SOL     OW69083   8.186   6.389   4.259  0.6414 -0.2951 -0.2155
21893SOL    HW169084   8.230   6.468   4.289  1.2024 -0.2583 -1.1154
21893SOL    HW269085   8.094   6.401   4.285  1.1350 -0.3454  1.6173
21894SOL     OW69086   2.223   7.631   4.230  0.0492  0.3550 -0.2547
21894SOL    HW169087   2.315   7.641   4.207  0.2969  0.1925  0.6583
21894SOL    HW269088   2.177   7.694   4.174  0.5895 -0.3451 -1.5141
21895SOL     OW69089   9.420   1.543   3.625 -0.1625  0.3363 -0.4875
21895SOL    HW169090   9.353   1.603   3.591  0.2729  0.9337 -0.3079
21895SOL    HW269091   9.500   1.596   3.627  0.0752 -0.0538  0.3110
21896SOL     OW69092   3.221   9.951   5.360  0.5638 -0.3203 -0.5772
21896SOL    HW169093   3.252   9.916   5.444  0.5334  0.2491 -0.3271
21896SOL    HW269094   3.131   9.919   5.353  0.7419 -0.8197 -0.6517
21897SOL     OW69095   0.336   6.267   5.736 -0.6139  0.0753 -0.1473
21897SOL    HW169096   0.261   6.272   5.795 -2.2365  2.7907 -2.3191
21897SOL    HW269097   0.305   6.303   5.653  2.2234 -1.6242 -2.0608
21898SOL     OW69098   8.042   7.739   6.951 -0.4861  0.1703 -0.7365
21898SOL    HW169099   8.013   7.691   7.028  2.9383 -0.0171  0.5180
21898SOL    HW269100   8.004   7.826   6.960 -0.3568  0.0512  1.0446
21899SOL     OW69101  10.118   8.660   6.509 -0.4902  0.4964 -0.1377
21899SOL    HW169102  10.027   8.640   6.489 -0.4870 -0.3383  0.6861
21899SOL    HW269103  10.167   8.584   6.477 -0.4287 -0.6237  2.5142
21900SOL     OW69104   4.112   7.105  10.281  0.0842  0.4732  0.7543
21900SOL    HW169105   4.185   7.095  10.220 -0.1472 -0.4260  0.6270
21900SOL    HW269106   4.144   7.167  10.347  0.6831  0.6795  0.2708
21901SOL     OW69107   3.308   1.593   4.704  0.3718 -0.2817 -0.3599
21901SOL    HW169108   3.271   1.505   4.708 -0.3504  0.0664  0.9381
21901SOL    HW269109   3.403   1.580   4.713  0.1300 -0.8143  1.5984
21902SOL     OW69110   2.900   5.632   0.476  0.7316 -0.5709 -0.1025
21902SOL    HW169111   2.893   5.624   0.571 -0.1215 -0.6326 -0.1635
21902SOL    HW269112   2.908   5.542   0.445 -1.6628 -0.7575 -0.2706
21903SOL     OW69113   0.089   1.117   6.018  0.6578  0.1073  0.0374
21903SOL    HW169114   0.130   1.131   5.933 -0.3544 -0.8163 -0.6270
21903SOL    HW269115  -0.005   1.115   5.999  0.4990 -1.9537  0.8830
21904SOL     OW69116   0.257  10.583   5.529  0.0754 -0.1971  0.4530
21904SOL    HW169117   0.196  10.582   5.454 -0.9380 -1.9016  1.2703
21904SOL    HW269118   0.333  10.632   5.497 -0.7470 -0.0607 -1.3798
21905SOL     OW69119   6.104   4.491   9.457  0.0107 -0.1537 -0.5122
21905SOL    HW169120   6.172   4.520   9.517  1.8007  0.3998 -2.7239
21905SOL    HW269121   6.069   4.411   9.497  2.5678 -0.9419  0.2537
21906SOL     OW69122   3.720   2.188  10.781 -0.0781 -0.3450  0.4057
21906SOL    HW169123   3.680   2.237  10.853 -0.5546 -0.6430  0.3470
21906SOL    HW269124   3.689   2.231  10.702 -0.5163 -0.7520  0.3523
21907SOL     OW69125   9.833   7.718   3.861  0.1105 -0.5987  0.7579
21907SOL    HW169126   9.875   7.632   3.858  1.6354  0.1202  1.0316
21907SOL    HW269127   9.740   7.699   3.858  0.4493 -2.2203 -0.3289
21908SOL     OW69128   4.031  10.390   1.935  0.0893 -0.2556  0.5802
21908SOL    HW169129   3.988  10.461   1.982 -0.7333 -0.6884  0.4886
21908SOL    HW269130   4.105  10.432   1.890  0.0892  0.3896  1.1814
21909SOL     OW69131   6.094  10.218   8.747 -0.0937 -0.2424 -0.4964
21909SOL    HW169132   6.119  10.229   8.839  1.9323 -4.9984 -0.3388
21909SOL    HW269133   6.172  10.245   8.698 -0.0480 -0.6999 -0.6751
21910SOL     OW69134   6.942   8.773   0.643 -0.2610  0.0457 -0.1237
21910SOL    HW169135   7.012   8.715   0.612  0.7730 -0.2355  2.5875
21910SOL    HW269136   6.885   8.717   0.695 -0.6558  0.9468  0.4292
21911SOL     OW69137   4.898   5.718  10.136  0.2736  0.3861  0.1235
21911SOL    HW169138   4.816   5.670  10.126  0.9682 -0.6358 -0.9472
21911SOL    HW269139   4.962   5.650  10.159  1.2810  0.7627 -1.4703
21912SOL     OW69140   3.963   9.934   5.177 -0.5778  0.0597 -0.1541
21912SOL    HW169141   3.960  10.013   5.231 -1.1184 -0.0250 -0.0626
21912SOL    HW269142   3.877   9.928   5.138 -0.8842 -1.0538  0.6694
21913SOL     OW69143   4.915   8.918   3.333 -0.0970  0.4922  0.2587
21913SOL    HW169144   4.910   8.823   3.322 -0.5629  0.7641 -2.2215
21913SOL    HW269145   4.826   8.943   3.358  0.0063  0.2980  0.8370
21914SOL     OW69146   7.335   8.740   9.829 -0.0630 -0.3838 -0.3548
21914SOL    HW169147   7.253   8.694   9.808  0.2017 -0.9949 -0.0490
21914SOL    HW269148   7.325   8.766   9.920 -0.3656  0.4910 -0.6341
21915SOL     OW69149   0.161   8.901   7.734  0.8392 -0.0440 -0.0560
21915SOL    HW169150   0.102   8.911   7.659  2.6785  0.1077 -1.5114
21915SOL    HW269151   0.196   8.989   7.749  0.3506 -0.0368  1.1146
21916SOL     OW69152   1.545   7.635   2.646 -0.5649 -0.2476  0.0507
21916SOL    HW169153   1.632   7.632   2.607 -0.6271  0.3422 -0.1285
21916SOL    HW269154   1.556   7.593   2.732 -0.1470 -0.3363 -0.0459
21917SOL     OW69155   5.019  10.560   1.764  0.2420  0.3516 -0.0439
21917SOL    HW169156   5.030  10.526   1.675  0.3924 -0.8988  0.4427
21917SOL    HW269157   5.101  10.537   1.808 -0.7090 -0.9942  1.0410
21918SOL     OW69158   0.845  10.042   9.146  0.2473 -0.4574  0.2433
21918SOL    HW169159   0.832  10.130   9.182 -0.3585  0.0974 -1.2906
21918SOL    HW269160   0.781   9.988   9.192  0.2470  0.0077  0.8015
21919SOL     OW69161   0.876   9.272   5.851  0.1238  0.6124  0.4577
21919SOL    HW169162   0.808   9.272   5.783  0.1722  2.0312  0.3942
21919SOL    HW269163   0.831   9.303   5.930  0.7594  1.9031  0.3304
21920SOL     OW69164   0.852   9.315   2.065  0.9264  0.0423  0.1819
21920SOL    HW169165   0.830   9.364   1.986  3.3071  0.5203 -0.2093
21920SOL    HW269166   0.903   9.376   2.118 -0.5935 -0.2874  2.0950
21921SOL     OW69167   6.389   1.305   9.992 -0.1918  0.2146 -0.0774
21921SOL    HW169168   6.459   1.349  10.040  0.0963  1.6785 -1.7698
21921SOL    HW269169   6.423   1.297   9.903 -1.2995 -1.0858 -0.4040
21922SOL     OW69170   4.212   0.219   3.605 -0.0122  0.8218  0.0578
21922SOL    HW169171   4.142   0.283   3.589 -1.2727 -0.2890  1.0318
21922SOL    HW269172   4.249   0.245   3.689  1.0903  1.7042 -0.6903
21923SOL     OW69173   4.394   7.628   0.226 -0.0504  0.0961 -0.0938
21923SOL    HW169174   4.396   7.598   0.135 -0.6297  1.1475 -0.4606
21923SOL    HW269175   4.414   7.721   0.221  0.5401  0.0291  0.9224
21924SOL     OW69176   2.032   8.282   6.592 -0.2745  0.1120 -0.2114
21924SOL    HW169177   2.038   8.325   6.506  1.9154  2.9913  1.2933
21924SOL    HW269178   2.099   8.213   6.589 -0.5585 -0.1307 -0.9927
21925SOL     OW69179  10.918   5.384   9.896 -0.6288 -0.0251  0.6216
21925SOL    HW169180  11.000   5.406   9.852  0.1505 -1.7865  1.1358
21925SOL    HW269181  10.873   5.468   9.907  0.2430  0.7233 -1.3439
21926SOL     OW69182   2.225   6.611   6.011 -0.5250 -0.2186  0.2310
21926SOL    HW169183   2.293   6.544   6.006  0.5682  0.9161 -0.4125
21926SOL    HW269184   2.191   6.618   5.922 -0.3281  0.3926  0.2025
21927SOL     OW69185   6.272   6.605   1.262  0.6470 -0.0160  0.1524
21927SOL    HW169186   6.274   6.543   1.334  0.4314  0.8598  0.9252
21927SOL    HW269187   6.185   6.595   1.223  0.2296  0.5270  0.9275
21928SOL     OW69188   0.339   1.425   4.883  0.0913  0.2416  0.5307
21928SOL    HW169189   0.282   1.386   4.817  0.3034  2.6510 -1.1505
21928SOL    HW269190   0.334   1.366   4.958 -0.1834 -2.5665 -1.6180
21929SOL     OW69191   6.296   4.430   4.612 -0.6989 -0.0703  0.1764
21929SOL    HW169192   6.243   4.427   4.691 -4.0164 -0.6927 -1.9853
21929SOL    HW269193   6.253   4.494   4.556  0.2805 -1.2930 -2.0497
21930SOL     OW69194   2.527   7.402   9.657 -0.0879  0.5629 -0.4183
21930SOL    HW169195   2.469   7.332   9.626  0.0113  0.1508  0.3085
21930SOL    HW269196   2.598   7.404   9.594  0.8231 -1.1955  0.5235
21931SOL     OW69197   8.222   7.292   6.105 -0.3316  0.1389 -0.5854
21931SOL    HW169198   8.203   7.368   6.050 -0.0797  1.0132  0.5267
21931SOL    HW269199   8.236   7.220   6.042  0.3462  1.2013 -1.6671
21932SOL     OW69200   3.285   3.807   0.038  0.2188  0.3874 -0.1198
21932SOL    HW169201   3.345   3.747  -0.007  1.0941  0.6528  0.6719
21932SOL    HW269202   3.314   3.894   0.011 -0.3227  0.4869 -0.3684
21933SOL     OW69203   1.537   4.061   2.734  0.0722  0.0742 -0.3813
21933SOL    HW169204   1.452   4.096   2.707 -0.2434 -0.3422  0.0767
21933SOL    HW269205   1.533   4.060   2.829  0.1171 -1.1351 -0.3951
21934SOL     OW69206   7.827   7.055   6.167  0.2054  0.6090 -0.3341
21934SOL    HW169207   7.737   7.062   6.134 -0.3322  1.0260  1.1600
21934SOL    HW269208   7.879   7.031   6.090 -1.2809 -0.2995 -1.0794
21935SOL     OW69209   2.572   7.037  10.235  0.2540 -0.1630 -0.1600
21935SOL    HW169210   2.650   7.093  10.234 -0.5598  1.1741  2.9521
21935SOL    HW269211   2.499   7.097  10.218 -0.4577 -0.5352  1.4263
21936SOL     OW69212   2.480   7.096   8.881 -0.4762  0.1596 -0.3613
21936SOL    HW169213   2.547   7.073   8.816 -1.1953 -2.4647 -0.1971
21936SOL    HW269214   2.445   7.180   8.849  2.3270  1.1940 -0.8599
21937SOL     OW69215   5.117   1.972   0.873  0.5014 -0.9746  0.3528
21937SOL    HW169216   5.028   1.985   0.841  1.0784  1.3327 -0.3902
21937SOL    HW269217   5.143   1.887   0.836 -0.1227 -0.0250 -2.4094
21938SOL     OW69218   7.023   3.282   7.823  0.5444  0.3215  0.1506
21938SOL    HW169219   6.999   3.252   7.911  1.3982 -1.2663 -0.1429
21938SOL    HW269220   7.117   3.266   7.817  0.1752 -1.2823 -1.6930
21939SOL     OW69221   9.925   3.510   8.569  0.2117  0.6978 -0.2518
21939SOL    HW169222   9.905   3.602   8.589  0.5905  0.2927  2.2023
21939SOL    HW269223   9.987   3.484   8.637 -1.0820 -1.8223  0.0151
21940SOL     OW69224   6.046  10.193   1.731  0.2032 -0.8396 -0.0753
21940SOL    HW169225   6.045  10.255   1.804 -0.1300 -0.4353 -0.4215
21940SOL    HW269226   6.126  10.143   1.743 -0.0140 -1.0000  0.7603
21941SOL     OW69227   5.435  10.750   5.772 -0.4273  0.1995 -0.3417
21941SOL    HW169228   5.470  10.782   5.689  0.9156 -0.6952 -0.1313
21941SOL    HW269229   5.497  10.779   5.838 -0.7242 -0.3517  0.1854
21942SOL     OW69230   1.735   9.768   5.125 -0.0719  0.1054  0.1041
21942SOL    HW169231   1.715   9.734   5.212  0.2681  1.1211  0.5889
21942SOL    HW269232   1.650   9.793   5.089 -0.0861  1.0045  0.7185
21943SOL     OW69233   2.517   8.687   0.996 -0.5959  0.2337 -0.5276
21943SOL    HW169234   2.566   8.748   1.050 -2.4514  0.6933  0.6947
21943SOL    HW269235   2.570   8.675   0.918  2.3672 -0.7462  1.5304
21944SOL     OW69236  10.041   4.683   8.764 -0.5868  0.1703  0.0411
21944SOL    HW169237   9.984   4.727   8.701 -1.7114  0.6791  1.3884
21944SOL    HW269238  10.015   4.718   8.849  1.5521  0.2012  0.7128
21945SOL     OW69239   8.944   1.177   3.477 -0.0445  0.2275  0.8643
21945SOL    HW169240   8.934   1.106   3.541  1.2894  0.3536  1.2340
21945SOL    HW269241   8.947   1.257   3.530  1.0488  0.3320  0.6502
21946SOL     OW69242   0.004   9.383  10.286  0.1746  0.5429  0.0011
21946SOL    HW169243  -0.054   9.424  10.222  1.0425  0.3392 -0.9375
21946SOL    HW269244  -0.053   9.327  10.339 -0.3076 -0.5470 -1.6495
21947SOL     OW69245   7.695   7.466   8.631  0.2741 -0.3206 -0.2128
21947SOL    HW169246   7.636   7.408   8.680  0.3533 -0.5045 -0.3328
21947SOL    HW269247   7.664   7.461   8.541 -0.0115  0.1964 -0.1438
21948SOL     OW69248   0.623   9.794   3.514 -0.3529  0.1172  0.5040
21948SOL    HW169249   0.544   9.760   3.471 -0.5296  0.7062  0.3649
21948SOL    HW269250   0.594   9.873   3.559  0.0909  0.1570  0.7250
21949SOL     OW69251   1.920   0.858   0.371  0.2828  0.2647  0.3393
21949SOL    HW169252   1.846   0.816   0.326  0.4171 -0.1687  0.5306
21949SOL    HW269253   1.951   0.923   0.308 -0.6141  0.8386  0.4716
21950SOL     OW69254   8.891   0.446   0.156  0.4915 -0.1560  0.4498
21950SOL    HW169255   8.859   0.536   0.160  0.7866  0.0761 -2.0019
21950SOL    HW269256   8.986   0.454   0.163  0.9747  0.2078 -4.7304
21951SOL     OW69257   9.310   1.966   4.690 -0.1815  0.0371  0.0548
21951SOL    HW169258   9.330   2.059   4.701  0.3146 -0.0261 -0.3089
21951SOL    HW269259   9.254   1.963   4.612  1.8802 -0.2281 -1.4447
21952SOL     OW69260   6.437   3.682   3.281 -0.5937 -0.6220  0.2647
21952SOL    HW169261   6.354   3.697   3.327 -1.1177 -0.7959 -0.6117
21952SOL    HW269262   6.470   3.770   3.262 -1.4810 -0.5403 -0.9788
21953SOL     OW69263  10.520   4.100   5.142 -0.3693 -0.2754  0.5279
21953SOL    HW169264  10.450   4.058   5.093  1.0152 -0.4461 -1.3513
21953SOL    HW269265  10.552   4.170   5.084 -0.2199  1.0103  2.1175
21954SOL     OW69266   5.292   8.788   6.310 -0.2367  0.2724 -0.3959
21954SOL    HW169267   5.338   8.853   6.363 -1.6626  1.1044 -0.1576
21954SOL    HW269268   5.265   8.721   6.374  0.1372  0.0676 -0.4502
21955SOL     OW69269   2.914   4.418   0.533  0.1881  0.5296 -0.2136
21955SOL    HW169270   2.830   4.463   0.540  0.1362  0.6786 -1.7604
21955SOL    HW269271   2.905   4.360   0.458  1.1578 -0.1388  0.1707
21956SOL     OW69272   8.897   6.982   7.452 -0.4119 -0.6036 -0.4184
21956SOL    HW169273   8.938   7.026   7.378 -1.2384  0.7669 -0.0793
21956SOL    HW269274   8.822   7.037   7.474  0.9049  0.1048  2.6617
21957SOL     OW69275   2.639   6.818   9.306 -0.1207  0.1545 -0.0617
21957SOL    HW169276   2.733   6.834   9.317 -0.1447 -0.4531  1.0956
21957SOL    HW269277   2.609   6.889   9.250  1.2975 -0.4336 -1.5997
21958SOL     OW69278   5.483   9.253   0.650 -0.1672 -0.2421  0.1171
21958SOL    HW169279   5.487   9.324   0.715  1.3809 -1.0407  0.9137
21958SOL    HW269280   5.525   9.179   0.693 -1.5149 -1.5765 -0.8189
21959SOL     OW69281  10.703   7.264   4.541  0.1745 -0.2162 -0.2854
21959SOL    HW169282  10.781   7.317   4.527 -0.3616  1.1391  1.6228
21959SOL    HW269283  10.710   7.234   4.631 -0.9881 -0.9548 -0.4252
21960SOL     OW69284   1.755   2.549   3.594 -0.1083 -0.5906  0.5623
21960SOL    HW169285   1.847   2.552   3.618  0.3765 -0.7138 -1.1876
21960SOL    HW269286   1.741   2.459   3.565 -0.2364 -0.0411 -1.1481
21961SOL     OW69287   7.780   8.887   3.712 -0.0875 -0.1901 -0.0642
21961SOL    HW169288   7.841   8.852   3.646  0.1536 -0.6773  0.4060
21961SOL    HW269289   7.837   8.918   3.783 -0.2615  1.8972 -0.8128
21962SOL     OW69290   1.756   3.436   1.438 -0.5220  0.2082  0.2358
21962SOL    HW169291   1.671   3.474   1.414 -0.2216  0.4478 -0.4683
21962SOL    HW269292   1.812   3.512   1.455 -0.1911  0.0616 -0.2125
21963SOL     OW69293   0.514   8.307   1.412  0.4369  0.2087  0.1072
21963SOL    HW169294   0.592   8.286   1.361 -0.7046 -0.3363 -1.4249
21963SOL    HW269295   0.525   8.257   1.493  1.9536  0.5898  0.1535
21964SOL     OW69296   9.563   6.521   0.666  0.0216 -0.5153  0.2833
21964SOL    HW169297   9.588   6.606   0.703 -0.7871 -0.6814  1.2476
21964SOL    HW269298   9.562   6.535   0.572 -0.6604  0.7011  0.4610
21965SOL     OW69299   8.572   5.906  10.512 -0.3257  0.2839  0.1499
21965SOL    HW169300   8.520   5.860  10.446  1.0499  1.1025 -1.5278
21965SOL    HW269301   8.508   5.950  10.568 -1.6324 -2.6724  1.0852
21966SOL     OW69302   8.624   2.507  10.622  0.1969  0.0481  0.3830
21966SOL    HW169303   8.671   2.587  10.645 -0.3149  0.5788 -0.3964
21966SOL    HW269304   8.539   2.537  10.589 -0.7418 -0.8975  1.8271
21967SOL     OW69305   7.399   9.226   8.105  0.1609 -0.1617  0.3320
21967SOL    HW169306   7.408   9.320   8.123  0.0631  0.2517 -1.5991
21967SOL    HW269307   7.461   9.210   8.033 -1.7414 -1.0115 -1.1527
21968SOL     OW69308   3.663   8.908  10.451 -0.2288  0.6642 -0.1990
21968SOL    HW169309   3.675   8.813  10.440  1.4025  0.7812  0.5321
21968SOL    HW269310   3.717   8.947  10.382  0.4589  1.0984  0.5761
21969SOL     OW69311  10.365   7.036   6.216  0.1843  0.3082 -0.0004
21969SOL    HW169312  10.359   7.118   6.167 -0.6264  0.8568  0.9674
21969SOL    HW269313  10.430   6.984   6.170  1.1446  1.7418 -0.2925
21970SOL     OW69314   6.272   0.181  10.221  0.3885  0.0551 -0.3820
21970SOL    HW169315   6.246   0.091  10.200  1.3653 -0.5497  0.8838
21970SOL    HW269316   6.219   0.204  10.298  1.8704 -0.3516  0.7968
21971SOL     OW69317   3.948   6.001  10.385  1.1419 -0.1929  0.3833
21971SOL    HW169318   3.994   6.069  10.433  0.4890 -0.1949  1.0103
21971SOL    HW269319   3.961   5.922  10.437  0.0266 -0.0954  0.8051
21972SOL     OW69320   8.026   8.530   7.136 -0.1744  0.7028 -0.1757
21972SOL    HW169321   8.063   8.573   7.212  0.3266  0.6692 -0.4028
21972SOL    HW269322   8.021   8.599   7.069 -2.6433  1.3039  0.5464
21973SOL     OW69323   2.758   6.750   3.139 -0.8658 -0.1264  0.2161
21973SOL    HW169324   2.687   6.765   3.201  0.1465 -1.3252  1.7054
21973SOL    HW269325   2.720   6.693   3.072 -0.9770 -1.9059  1.7317
21974SOL     OW69326   8.132   5.465   5.467 -0.5461 -0.1017 -0.1982
21974SOL    HW169327   8.097   5.552   5.487 -0.9862 -0.3533  0.1232
21974SOL    HW269328   8.222   5.467   5.499  0.0597  0.8711 -1.8825
21975SOL     OW69329   2.750   6.993   8.101  0.1556  0.4082  0.5044
21975SOL    HW169330   2.763   6.917   8.044 -1.7156  0.4678 -0.0286
21975SOL    HW269331   2.754   6.956   8.190 -0.3264 -0.2391  0.2599
21976SOL     OW69332   3.199  10.484   1.928 -0.4509  0.2463 -0.1313
21976SOL    HW169333   3.151  10.447   1.854 -1.2006  0.1342  0.4075
21976SOL    HW269334   3.159  10.445   2.005  0.5931  0.0615  0.3239
21977SOL     OW69335   3.019   8.884   1.500  0.0956 -0.3971 -0.3860
21977SOL    HW169336   3.002   8.887   1.594 -1.7572 -1.5737 -0.6650
21977SOL    HW269337   3.089   8.819   1.490  1.1200  0.5749  0.2613
21978SOL     OW69338   8.767   5.063   1.912  0.4690  0.0189 -0.1208
21978SOL    HW169339   8.673   5.053   1.896  0.0283  1.7660  1.2181
21978SOL    HW269340   8.806   5.064   1.824 -0.6972 -1.2394 -0.6662
21979SOL     OW69341   1.741  10.331   2.301 -0.3968  0.0226  0.5349
21979SOL    HW169342   1.815  10.296   2.351 -0.6975  0.8864  1.6033
21979SOL    HW269343   1.699  10.393   2.361 -0.7029  1.1518 -0.8191
21980SOL     OW69344   3.352   5.279   1.371  0.1266  0.0428 -0.0246
21980SOL    HW169345   3.281   5.325   1.416 -0.3148 -0.3297 -0.3383
21980SOL    HW269346   3.308   5.219   1.310  0.6965 -0.5784  0.1631
21981SOL     OW69347   2.805   0.045   3.750 -0.1485  0.0213 -0.3739
21981SOL    HW169348   2.712   0.050   3.772  0.1450 -2.1015  1.4936
21981SOL    HW269349   2.848   0.099   3.816 -0.0397  1.2030 -1.3827
21982SOL     OW69350   9.597   3.826   4.974  0.0325 -0.0821 -0.5506
21982SOL    HW169351   9.593   3.907   4.922 -2.7509 -0.6538 -1.2952
21982SOL    HW269352   9.608   3.757   4.909  1.2757 -0.4155  0.0046
21983SOL     OW69353   7.852   7.122   1.150  0.0222  0.3630 -0.5234
21983SOL    HW169354   7.917   7.167   1.096 -2.4631  2.7691 -1.6574
21983SOL    HW269355   7.798   7.073   1.087  0.4083 -1.1927  0.3388
21984SOL     OW69356  10.943   9.610  10.016 -0.1752  0.2992  0.1176
21984SOL    HW169357  10.882   9.651   9.956 -1.1194 -0.6440  0.4221
21984SOL    HW269358  10.890   9.549  10.068  0.7009  0.7078  1.5471
21985SOL     OW69359   7.205   7.666   3.999 -0.0939 -0.3129 -0.1065
21985SOL    HW169360   7.225   7.727   4.070 -0.1466  0.2885 -0.6047
21985SOL    HW269361   7.287   7.619   3.984 -0.1254 -0.5395  0.4552
21986SOL     OW69362   8.608   2.850   6.028 -0.2787 -0.0437 -0.2084
21986SOL    HW169363   8.691   2.834   6.072 -0.6491  0.1710  0.5765
21986SOL    HW269364   8.627   2.920   5.965  0.0869  0.1548  0.1222
21987SOL     OW69365   6.926   2.674   0.236  0.1547 -0.0062 -0.4610
21987SOL    HW169366   7.006   2.634   0.202  0.7015  0.7795 -0.1105
21987SOL    HW269367   6.858   2.608   0.222  0.8378 -0.6215 -0.8861
21988SOL     OW69368   6.711  10.446   4.061 -0.2515  0.2055 -0.4719
21988SOL    HW169369   6.734  10.536   4.087  0.0909  0.1883 -0.7146
21988SOL    HW269370   6.617  10.440   4.079 -0.7205  1.3018 -2.3790
21989SOL     OW69371   7.648   3.683   4.605  0.3482  0.1373 -0.3655
21989SOL    HW169372   7.691   3.685   4.519 -0.1320 -0.2249 -0.6195
21989SOL    HW269373   7.605   3.598   4.608  0.6387  0.0200  0.3791
21990SOL     OW69374   2.982  10.926  10.711 -0.0767  0.0178 -0.1517
21990SOL    HW169375   3.034  11.005  10.697  0.6450 -0.4617 -0.2000
21990SOL    HW269376   3.000  10.871  10.635 -0.7628 -0.0990 -0.2387
21991SOL     OW69377   7.078  10.338   2.970  0.4697  0.4081  0.2550
21991SOL    HW169378   6.990  10.377   2.965 -0.2035 -1.0795  0.3572
21991SOL    HW269379   7.075  10.281   3.047  0.9127 -1.1690 -0.8888
21992SOL     OW69380   0.697  10.185   8.066  0.0213 -0.3275 -0.2756
21992SOL    HW169381   0.674  10.120   8.133  1.2081 -0.9600 -0.4583
21992SOL    HW269382   0.792  10.176   8.056  0.3592  2.1731  0.4297
21993SOL     OW69383   0.184   6.510   6.033  0.3344 -0.7602 -0.2127
21993SOL    HW169384   0.206   6.593   5.991 -0.6318 -0.2272  0.3031
21993SOL    HW269385   0.118   6.471   5.976  1.2451 -1.4746 -0.7846
21994SOL     OW69386   7.547   4.588   4.085  0.1451 -0.6647 -0.4607
21994SOL    HW169387   7.555   4.535   4.164  0.8372 -0.8201 -0.6235
21994SOL    HW269388   7.495   4.664   4.111  2.4468  0.5472  0.8138
21995SOL     OW69389   9.465   0.545   0.845 -0.1514 -0.2946 -0.4023
21995SOL    HW169390   9.487   0.455   0.822  0.4954 -0.0375 -0.8010
21995SOL    HW269391   9.468   0.547   0.940  1.6878 -0.2381 -0.4531
21996SOL     OW69392   1.948   3.933   7.767  0.0022  0.1784  0.1216
21996SOL    HW169393   1.916   3.996   7.830  0.5609  0.0889  0.5038
21996SOL    HW269394   1.986   3.862   7.820  1.2557  0.5126 -0.2995
21997SOL     OW69395  10.788   9.653   3.006 -0.2246  0.2073  0.4201
21997SOL    HW169396  10.856   9.591   3.030  0.0580  0.9910  1.6654
21997SOL    HW269397  10.836   9.729   2.973 -0.4777  0.9854  1.8424
21998SOL     OW69398   3.169   1.776   8.626 -0.5516  0.5695 -0.2941
21998SOL    HW169399   3.239   1.728   8.582  0.4214 -1.0113  2.8434
21998SOL    HW269400   3.089   1.746   8.583  0.5468  1.4814 -3.0904
21999SOL     OW69401   6.822   6.366   5.616  0.3088 -0.0662  0.1418
21999SOL    HW169402   6.862   6.305   5.555  0.0805 -0.0883  0.0143
21999SOL    HW269403   6.775   6.310   5.678 -2.7982  0.0838 -1.9796
22000SOL     OW69404   9.170   2.649   1.960  0.5749  0.2982 -0.4602
22000SOL    HW169405   9.196   2.676   2.048  0.6429 -0.8292 -0.1337
22000SOL    HW269406   9.082   2.686   1.948  1.6567  2.7954 -0.9781
22001SOL     OW69407   3.101   5.626   0.164  0.6753 -0.0988 -0.4857
22001SOL    HW169408   3.102   5.708   0.214 -2.9681  0.1166 -0.6091
22001SOL    HW269409   3.060   5.563   0.222 -0.2752 -0.7783 -1.8614
22002SOL     OW69410   4.035   2.897   7.641 -0.6232  0.3269  0.3354
22002SOL    HW169411   4.116   2.888   7.692 -0.6732  0.9342  0.5247
22002SOL    HW269412   4.065   2.913   7.552 -0.5289  0.8427  0.4562
22003SOL     OW69413   6.072   5.802   2.389 -0.1474  0.1511 -0.1652
22003SOL    HW169414   6.139   5.766   2.331 -2.2556 -0.0286 -2.5483
22003SOL    HW269415   6.049   5.886   2.349 -1.2988  0.2602  0.7141
22004SOL     OW69416   1.105   0.459   3.845 -0.3776 -0.8813 -0.2747
22004SOL    HW169417   1.145   0.535   3.801 -1.2720  0.7995  1.7619
22004SOL    HW269418   1.027   0.494   3.887 -0.7549 -2.9365  0.7719
22005SOL     OW69419   8.084  10.490   8.421  0.2544  0.0625  0.0720
22005SOL    HW169420   8.060  10.507   8.512 -0.6104 -1.6060  0.1878
22005SOL    HW269421   8.031  10.552   8.370  1.4140  1.6188  0.7426
22006SOL     OW69422   7.289   4.825   7.031  0.2800  0.0669  0.5781
22006SOL    HW169423   7.335   4.907   7.047 -0.4861  0.4246  0.9572
22006SOL    HW269424   7.206   4.851   6.990  1.0069 -0.6616 -1.4400
22007SOL     OW69425   6.139   7.021   9.343 -0.1088  0.3155 -0.5103
22007SOL    HW169426   6.201   7.042   9.413 -0.9256  3.2973 -0.6158
22007SOL    HW269427   6.158   7.085   9.274  0.2293 -2.1502 -2.7626
22008SOL     OW69428  10.198   9.023   1.191 -0.2172 -0.1434 -0.1038
22008SOL    HW169429  10.283   8.984   1.170 -0.6200 -0.8410 -0.4560
22008SOL    HW269430  10.134   8.964   1.152 -0.8753  0.2642  0.3452
22009SOL     OW69431   9.071   5.492   9.749  0.1502  0.6445  0.2796
22009SOL    HW169432   9.004   5.424   9.745 -0.0381  0.9090 -1.5632
22009SOL    HW269433   9.094   5.509   9.658  2.8673  0.4546  0.8964
22010SOL     OW69434   7.417   8.352   4.541  0.0249  0.0126  0.1317
22010SOL    HW169435   7.386   8.434   4.577  0.1818 -1.0677  2.8052
22010SOL    HW269436   7.500   8.375   4.498 -0.5582  1.4524 -0.2499
22011SOL     OW69437   2.643  10.394   0.676  0.6737 -0.1425  0.1232
22011SOL    HW169438   2.679  10.475   0.712  0.7959 -0.9436  1.8472
22011SOL    HW269439   2.719  10.349   0.639  0.6430  0.4136 -0.6272
22012SOL     OW69440   5.415   6.077  10.043  0.2227 -0.0774 -0.1293
22012SOL    HW169441   5.353   6.140  10.005  0.8251  0.7032  0.1847
22012SOL    HW269442   5.366   6.037  10.115 -0.7885 -1.2841 -1.4508
22013SOL     OW69443   0.308   4.532   1.031  0.4173  0.2417  0.1946
22013SOL    HW169444   0.266   4.495   1.109  2.7465 -0.6855  1.0402
22013SOL    HW269445   0.395   4.556   1.061  0.2068  2.9925 -1.3081
22014SOL     OW69446   0.787   8.984   6.799  0.0450 -0.4801 -0.1425
22014SOL    HW169447   0.803   9.013   6.709 -0.0499  0.4807  0.1376
22014SOL    HW269448   0.757   9.063   6.844  2.1654 -0.4358  1.2601
22015SOL     OW69449   8.933   8.830   4.412  0.0410  0.3047 -0.5042
22015SOL    HW169450   9.016   8.786   4.435  0.5601  2.2053  1.3691
22015SOL    HW269451   8.951   8.873   4.329  0.9152  0.5941 -0.1721
22016SOL     OW69452   0.659   7.791   9.009 -0.0388  0.5513  0.2736
22016SOL    HW169453   0.643   7.862   8.947  0.7474  2.1664  1.8557
22016SOL    HW269454   0.688   7.836   9.089  2.5936 -1.6904  0.6304
22017SOL     OW69455   2.889   6.440  10.473  0.2405  0.0941  0.2975
22017SOL    HW169456   2.824   6.408  10.536  0.7179 -1.2155  0.1384
22017SOL    HW269457   2.967   6.388  10.492  0.5941  0.1938 -0.9111
22018SOL     OW69458   8.025   1.933   8.989 -0.2426  0.3824 -0.1447
22018SOL    HW169459   8.057   1.844   8.999 -0.3801  0.1901 -1.3329
22018SOL    HW269460   7.932   1.922   8.966 -0.7585  0.8860  1.5926
22019SOL     OW69461   4.574   3.034   6.532 -0.7197  0.5072 -0.3051
22019SOL    HW169462   4.521   3.114   6.526 -2.1773 -0.3650  0.5322
22019SOL    HW269463   4.651   3.052   6.479 -0.0075  3.2828  1.5166
22020SOL     OW69464   4.794   4.722   1.878 -0.3414  0.5205  0.1700
22020SOL    HW169465   4.839   4.791   1.926 -0.1025 -0.0032  0.7005
22020SOL    HW269466   4.738   4.680   1.943  0.2898 -0.4586  0.0896
22021SOL     OW69467  10.807   1.303   6.579  0.4883 -0.2564 -0.1553
22021SOL    HW169468  10.770   1.377   6.628  4.1166  0.8640  1.0626
22021SOL    HW269469  10.747   1.291   6.505 -2.6759  0.9139  2.1251
22022SOL     OW69470   3.301   4.522   2.561 -0.5959 -0.4776  0.2564
22022SOL    HW169471   3.381   4.469   2.567 -0.5877 -0.4720  0.2022
22022SOL    HW269472   3.317   4.596   2.619  0.0166  0.2651 -0.8302
22023SOL     OW69473   6.686   5.231   1.284  0.6344 -0.5971  0.9717
22023SOL    HW169474   6.772   5.189   1.285  0.7785 -0.3170  0.5948
22023SOL    HW269475   6.688   5.292   1.357  1.5981  1.0623 -0.3974
22024SOL     OW69476   1.004   9.301   9.719 -0.2956 -0.7312 -0.1364
22024SOL    HW169477   1.023   9.369   9.654 -0.7100  0.2025  0.6965
22024SOL    HW269478   1.065   9.231   9.700  1.3674  0.6202  0.0949
22025SOL     OW69479   9.976   2.335   0.563  0.2350 -0.1849 -0.5247
22025SOL    HW169480   9.977   2.271   0.492 -0.8476 -1.1429  0.2972
22025SOL    HW269481   9.902   2.309   0.617  0.4636  1.1133  0.4313
22026SOL     OW69482   9.589   8.344   8.484  0.2032  0.1594 -0.0727
22026SOL    HW169483   9.639   8.273   8.524  0.1006  0.3356  0.3784
22026SOL    HW269484   9.498   8.313   8.486 -0.0498  0.9681  1.6036
22027SOL     OW69485   1.594   7.911   0.150  0.3930  0.6782 -0.4859
22027SOL    HW169486   1.687   7.893   0.135  0.7494  0.4426  1.8647
22027SOL    HW269487   1.556   7.913   0.062  2.5444  0.4202 -1.4639
22028SOL     OW69488   2.234   8.603   0.244  0.3539  0.2363 -0.0051
22028SOL    HW169489   2.234   8.699   0.243  2.0602  0.2508 -0.3215
22028SOL    HW269490   2.262   8.578   0.156 -2.8699 -0.6016 -0.8334
22029SOL     OW69491   2.668   7.222  10.831 -0.0041  0.2067 -0.1645
22029SOL    HW169492   2.588   7.272  10.846 -1.7765 -2.8014  0.6772
22029SOL    HW269493   2.738   7.282  10.858 -2.0419  2.2335  0.8382
22030SOL     OW69494  10.461   3.963   0.016  0.1684 -0.0673  0.3607
22030SOL    HW169495  10.531   3.903  -0.009  0.0991  0.3092 -0.7421
22030SOL    HW269496  10.480   4.044  -0.032 -2.0176 -0.5417 -1.3708
22031SOL     OW69497   3.749   3.158   6.347 -0.0167  0.3108  0.3907
22031SOL    HW169498   3.667   3.197   6.318 -0.0971 -0.4188 -0.3733
22031SOL    HW269499   3.757   3.185   6.439 -0.1421  1.9855 -0.0709
22032SOL     OW69500  10.810   5.629   5.782  0.0225 -0.5053  0.6357
22032SOL    HW169501  10.828   5.723   5.777  1.2837 -0.7512  0.4486
22032SOL    HW269502  10.869   5.589   5.718 -0.8225 -1.3888  0.3974
22033SOL     OW69503  10.683   6.198   9.957 -0.0140 -0.3399 -0.3064
22033SOL    HW169504  10.745   6.223   9.889  1.8481 -0.2760  1.3843
22033SOL    HW269505  10.720   6.120   9.997 -0.0204  0.7943  2.0000
22034SOL     OW69506   2.973   8.075   7.934  0.0590 -0.1367  0.5352
22034SOL    HW169507   2.941   8.136   7.867  0.0805 -1.4166 -0.6546
22034SOL    HW269508   3.065   8.061   7.912  0.2263 -0.0788  1.1984
22035SOL     OW69509  10.536   5.983   7.178 -0.1545  0.0911 -0.3361
22035SOL    HW169510  10.600   5.933   7.230  0.9662  0.4218 -1.3839
22035SOL    HW269511  10.524   5.931   7.099  1.0612  1.4847 -1.4639
22036SOL     OW69512   8.560   5.403  10.632 -0.5060 -0.1609  0.1785
22036SOL    HW169513   8.548   5.368  10.720  0.7112  0.1565  0.4774
22036SOL    HW269514   8.595   5.329  10.582 -1.2760 -0.3660 -0.0700
22037SOL     OW69515   2.807   0.746   3.792 -0.4070 -0.3288 -0.1967
22037SOL    HW169516   2.717   0.719   3.812 -0.8120  0.0529 -1.4582
22037SOL    HW269517   2.831   0.694   3.715  0.6609 -0.8425  0.4763
22038SOL     OW69518   7.759   5.017   7.777  0.3423  0.1725 -0.0622
22038SOL    HW169519   7.799   5.066   7.706  1.2882  1.0087  1.0278
22038SOL    HW269520   7.773   4.925   7.754 -0.0330  0.4287 -1.3214
22039SOL     OW69521   7.125   1.308   5.416  0.4508 -0.1201  0.2899
22039SOL    HW169522   7.087   1.253   5.484  0.5072  0.9199  1.1843
22039SOL    HW269523   7.219   1.298   5.426  0.4563 -1.0200 -0.5309
22040SOL     OW69524   2.672   2.948   2.208  0.0259 -0.2637  0.1315
22040SOL    HW169525   2.608   2.882   2.237 -2.0881  2.1261  1.1068
22040SOL    HW269526   2.649   2.964   2.116  0.1101 -0.4160  0.0842
22041SOL     OW69527   5.937  10.067   8.606  0.0023  0.0536 -0.3810
22041SOL    HW169528   5.960  10.062   8.513 -0.3532  1.0501 -0.5265
22041SOL    HW269529   6.006  10.121   8.645  0.7056 -1.1711  0.1372
22042SOL     OW69530   4.508   6.144   8.547  0.0701  0.1202 -0.3591
22042SOL    HW169531   4.440   6.083   8.518  1.2077 -0.8658 -1.0368
22042SOL    HW269532   4.585   6.119   8.495  0.4788  2.3534 -0.8518
22043SOL     OW69533   4.076   7.525   9.699 -0.1622  0.4305  0.0201
22043SOL    HW169534   4.064   7.602   9.755 -2.0367  0.8589 -0.9131
22043SOL    HW269535   4.146   7.476   9.740  0.5810  2.2871  1.0432
22044SOL     OW69536   4.758   7.657   4.037  0.0783 -0.2857  0.0075
22044SOL    HW169537   4.683   7.622   4.084 -1.7748  2.1115 -1.0109
22044SOL    HW269538   4.821   7.680   4.105 -1.2113  0.1071  1.0861
22045SOL     OW69539  10.660   5.991   0.768 -0.4548 -0.5982 -0.2916
22045SOL    HW169540  10.731   6.055   0.772 -0.9951 -0.0808  1.5842
22045SOL    HW269541  10.704   5.907   0.755  0.4480 -0.1591 -0.1005
22046SOL     OW69542   3.997   0.896   9.175  0.1301  0.1125 -0.1813
22046SOL    HW169543   3.972   0.987   9.162  0.9624  0.6797  2.0812
22046SOL    HW269544   4.020   0.890   9.267 -0.9963 -2.6571 -0.0389
22047SOL     OW69545   0.068   2.970   8.009 -0.1472 -1.0262  0.4524
22047SOL    HW169546   0.049   2.895   7.953  0.9453  0.4427 -2.0015
22047SOL    HW269547  -0.013   3.022   8.008  1.2794  1.3664 -3.7424
22048SOL     OW69548   0.225   5.530   4.129 -0.4167  0.5055 -0.1563
22048SOL    HW169549   0.148   5.550   4.076 -0.9344  2.2324  1.2016
22048SOL    HW269550   0.268   5.615   4.140  0.5070 -0.0926  0.9288
22049SOL     OW69551  10.693   4.189   9.756  0.7015  0.5661  0.3074
22049SOL    HW169552  10.613   4.223   9.714  2.2508  0.3537 -2.9431
22049SOL    HW269553  10.661   4.142   9.833 -2.2581  1.0688 -0.5401
22050SOL     OW69554   9.087  10.629   4.060 -0.2604  0.2035  1.1073
22050SOL    HW169555   9.028  10.704   4.070 -0.0983  0.1532  2.6041
22050SOL    HW269556   9.109  10.628   3.967 -2.7728  0.0945  0.4610
22051SOL     OW69557   7.638   0.802   5.056  0.0433 -0.1014  0.2885
22051SOL    HW169558   7.562   0.745   5.046  0.1275 -0.2324  0.3912
22051SOL    HW269559   7.637   0.858   4.978 -2.2641  2.3972  1.9864
22052SOL     OW69560   2.389   0.252   0.351  0.3855 -0.0047 -0.5536
22052SOL    HW169561   2.410   0.343   0.368  1.0388 -0.0728 -0.9723
22052SOL    HW269562   2.439   0.203   0.416 -0.1548 -0.0556 -0.1713
22053SOL     OW69563   7.787   4.936   8.178  0.3357  0.6562 -0.4799
22053SOL    HW169564   7.774   5.004   8.111 -1.5244  0.1821 -0.6302
22053SOL    HW269565   7.882   4.924   8.182  0.6456  2.6921 -1.0272
22054SOL     OW69566   3.835   2.896   3.195  0.5138 -0.2549  0.2212
22054SOL    HW169567   3.822   2.827   3.130 -0.0435  0.8345 -0.8268
22054SOL    HW269568   3.906   2.949   3.160  1.1467 -0.4449  1.1749
22055SOL     OW69569   3.624   0.956   6.602  0.3939  0.2099  0.1148
22055SOL    HW169570   3.656   0.868   6.624  0.0821  0.1585  0.3611
22055SOL    HW269571   3.677   1.014   6.657 -1.1781  0.0066  1.8759
22056SOL     OW69572   7.481   9.849   7.351  0.2075 -0.1614 -0.0312
22056SOL    HW169573   7.457   9.783   7.416  0.8875 -1.4952 -1.1335
22056SOL    HW269574   7.545   9.904   7.396 -0.7784  0.1024  1.0749
22057SOL     OW69575   8.312   6.459   8.376 -0.3972  0.4002 -0.1104
22057SOL    HW169576   8.222   6.428   8.387 -0.2492 -0.1447 -0.3722
22057SOL    HW269577   8.333   6.438   8.285 -0.4037  1.6035 -0.3960
22058SOL     OW69578   1.827   4.298   0.478  0.5934 -0.6789 -0.1447
22058SOL    HW169579   1.807   4.335   0.564 -0.4412  0.3531 -0.8349
22058SOL    HW269580   1.919   4.271   0.485  1.3343  1.8654  0.4284
22059SOL     OW69581   0.792   5.718   7.347  0.3527 -0.2641  0.2819
22059SOL    HW169582   0.863   5.740   7.287 -0.7542  1.5639 -0.3864
22059SOL    HW269583   0.788   5.792   7.408 -1.6677  0.1749 -0.3532
22060SOL     OW69584   7.959   2.121  10.656  0.4384 -0.1524 -0.4310
22060SOL    HW169585   8.045   2.136  10.695  0.2855 -3.5366  1.3885
22060SOL    HW269586   7.976   2.114  10.562  1.6755  2.1704 -0.4126
22061SOL     OW69587   0.735   3.957   4.781 -0.1358  0.2557  1.0313
22061SOL    HW169588   0.661   3.976   4.724  0.3195  0.2297  0.4283
22061SOL    HW269589   0.706   3.883   4.835 -0.9991  1.0398  1.6593
22062SOL     OW69590   7.798   3.984   9.726 -0.0649  0.3583 -0.3760
22062SOL    HW169591   7.838   3.942   9.802 -0.3892  1.1575  0.2441
22062SOL    HW269592   7.705   3.963   9.734  0.2127 -1.5545 -1.8494
22063SOL     OW69593   0.554   4.937   1.513 -0.5566 -0.0798  0.2787
22063SOL    HW169594   0.546   4.924   1.418  1.0223  0.5693  0.0471
22063SOL    HW269595   0.512   4.860   1.551 -2.2143  0.1806 -0.9230
22064SOL     OW69596   0.111   3.260   3.990 -0.0646 -0.0979  0.0310
22064SOL    HW169597   0.123   3.212   3.908  0.0132  1.3628 -0.8204
22064SOL    HW269598   0.185   3.320   3.994 -1.4471  1.6466 -0.1108
22065SOL     OW69599  10.118   4.565   4.400  0.2309  0.2118  0.4388
22065SOL    HW169600  10.043   4.539   4.346  0.6760 -0.2841  0.0551
22065SOL    HW269601  10.117   4.661   4.398 -0.5279  0.2188  0.6335
22066SOL     OW69602  10.965   5.945   2.075 -0.1092 -0.0953  1.2293
22066SOL    HW169603  10.899   5.912   2.136  0.0014  0.3308  1.5853
22066SOL    HW269604  11.041   5.889   2.088 -0.2763 -0.3534  1.0856
22067SOL     OW69605   1.082   4.588   0.309  0.5037  0.3091 -0.3203
22067SOL    HW169606   1.169   4.553   0.289 -0.2124 -1.8077  0.1013
22067SOL    HW269607   1.056   4.543   0.390 -1.3068  0.3025 -0.8874
22068SOL     OW69608   2.853   0.317   9.663  0.0303  0.0266  0.1850
22068SOL    HW169609   2.873   0.331   9.571 -1.5248 -0.6556 -0.2669
22068SOL    HW269610   2.815   0.399   9.693 -0.9317 -0.2826 -0.1907
22069SOL     OW69611   4.070   8.195   0.165 -0.0755 -0.2271  0.3363
22069SOL    HW169612   3.999   8.254   0.139 -1.7821 -2.4525 -0.1722
22069SOL    HW269613   4.110   8.169   0.083  1.1327  0.7272  0.6042
22070SOL     OW69614   7.501   3.786   9.333 -0.2994 -0.0930 -0.1922
22070SOL    HW169615   7.423   3.840   9.320  0.1055  0.4000 -0.6476
22070SOL    HW269616   7.573   3.849   9.335 -0.0814 -0.3849  2.0462
22071SOL     OW69617  10.896   1.131  10.163 -0.1290 -0.6092  0.7122
22071SOL    HW169618  10.811   1.176  10.161  0.8322  1.2565 -0.2399
22071SOL    HW269619  10.952   1.189  10.214  0.9147 -1.1655  0.2088
22072SOL     OW69620  10.796   3.605   8.836 -0.1494 -0.3168  0.1681
22072SOL    HW169621  10.821   3.656   8.759  0.4501 -0.1947  0.4332
22072SOL    HW269622  10.818   3.515   8.814  0.1211 -0.2677  0.2352
22073SOL     OW69623   0.234   6.648   2.106  0.1227 -0.5277  0.5288
22073SOL    HW169624   0.196   6.644   2.194 -0.3015  0.0591  0.3762
22073SOL    HW269625   0.159   6.634   2.048  0.2346  0.0710  0.2414
22074SOL     OW69626   7.764  10.740   8.931  0.1423 -0.4388  0.2188
22074SOL    HW169627   7.796  10.654   8.902  3.1986 -0.5754  3.5807
22074SOL    HW269628   7.821  10.803   8.887 -1.6707 -0.1044 -1.7237
22075SOL     OW69629   3.028   8.615   7.752  0.0349 -0.4609  0.4847
22075SOL    HW169630   2.982   8.655   7.678 -0.3090 -0.1800  0.8491
22075SOL    HW269631   2.970   8.630   7.827  0.3963 -0.7202  0.8164
22076SOL     OW69632  10.321   2.523   0.469 -0.0731 -0.4691 -0.1228
22076SOL    HW169633  10.360   2.454   0.415  1.2088  0.3922 -0.3235
22076SOL    HW269634  10.229   2.499   0.476  0.0527 -1.3962 -1.4503
22077SOL     OW69635   8.148   1.047   5.796  0.5955 -0.0449 -0.1241
22077SOL    HW169636   8.066   1.022   5.753  0.8555 -1.3166  0.0900
22077SOL    HW269637   8.216   1.004   5.745  0.9231 -1.3563  1.3697
22078SOL     OW69638   3.872   1.612   0.398 -0.6058  0.4951  0.1119
22078SOL    HW169639   3.827   1.689   0.364 -1.1502  1.6536  3.2114
22078SOL    HW269640   3.821   1.587   0.476 -0.9832 -3.5826 -1.2881
22079SOL     OW69641   0.416   4.339   5.778 -0.3093 -0.1511  0.2589
22079SOL    HW169642   0.365   4.420   5.771  0.2035  0.0613 -1.0881
22079SOL    HW269643   0.506   4.368   5.788 -0.3787 -0.5390  2.1297
22080SOL     OW69644   6.326   7.692   6.875 -0.5042  0.4163 -0.3277
22080SOL    HW169645   6.289   7.612   6.912 -3.9374  2.1372  0.1525
22080SOL    HW269646   6.355   7.742   6.952  1.4195 -0.2390 -0.6119
22081SOL     OW69647   7.481   5.240   5.320 -0.2303 -0.6637 -0.4200
22081SOL    HW169648   7.570   5.274   5.314 -0.4309  0.3147  1.7388
22081SOL    HW269649   7.470   5.186   5.241  0.9780  2.2477 -2.6772
22082SOL     OW69650   3.147   5.736   8.142  0.4177  0.3246  0.3468
22082SOL    HW169651   3.220   5.780   8.099 -0.4242 -0.1493 -1.6492
22082SOL    HW269652   3.156   5.758   8.235  1.8635  2.0066 -0.1691
22083SOL     OW69653   3.715   7.553   4.343 -0.4218 -0.4146  0.5779
22083SOL    HW169654   3.682   7.503   4.268  2.9583 -1.0189 -0.5844
22083SOL    HW269655   3.683   7.642   4.328 -0.7034 -0.7670 -1.0219
22084SOL     OW69656   7.354   5.081   4.969  0.1164  0.2191 -0.2786
22084SOL    HW169657   7.293   5.061   5.041 -0.3011 -0.2114 -0.7431
22084SOL    HW269658   7.389   5.167   4.990 -1.3814  0.8880 -0.4894
22085SOL     OW69659   2.550  10.619   3.837 -0.4940 -0.0667  0.6654
22085SOL    HW169660   2.636  10.662   3.840 -0.5215  0.0027  0.4216
22085SOL    HW269661   2.565  10.541   3.784 -0.5458 -0.1321  0.7482
22086SOL     OW69662   4.128   6.855   5.185  0.2841  0.2531 -0.4317
22086SOL    HW169663   4.202   6.798   5.206  1.4200  1.6257 -0.6465
22086SOL    HW269664   4.103   6.829   5.096  0.2986 -0.4244 -0.2429
22087SOL     OW69665   6.227   5.791  10.007  0.0012 -0.2157  0.1205
22087SOL    HW169666   6.198   5.733  10.077 -3.6029  1.3592  0.0905
22087SOL    HW269667   6.228   5.878  10.047  2.0074  0.1664 -0.7121
22088SOL     OW69668   8.397   1.181   8.412 -0.5880  0.6415 -0.2556
22088SOL    HW169669   8.321   1.138   8.450 -0.7401  1.5690  0.5059
22088SOL    HW269670   8.472   1.131   8.446 -0.8058  0.3305 -0.2278
22089SOL     OW69671   3.976   9.538   5.847  0.0178 -0.0105  0.2766
22089SOL    HW169672   4.016   9.624   5.830 -0.8533  0.2487 -0.4976
22089SOL    HW269673   3.981   9.492   5.763 -1.8291  0.2486  0.0027
22090SOL     OW69674   2.782   0.090   1.638 -0.6118 -0.2550  0.1932
22090SOL    HW169675   2.843   0.163   1.634 -0.2295 -0.5723  0.2663
22090SOL    HW269676   2.695   0.131   1.638 -0.4267  0.1478 -0.9747
22091SOL     OW69677   9.401   4.107   5.504  0.0081 -0.2036  0.1819
22091SOL    HW169678   9.399   4.053   5.425  0.6179  1.6464 -1.1342
22091SOL    HW269679   9.328   4.168   5.493  0.2632  0.2375  0.9060
22092SOL     OW69680   5.758   7.989   0.209 -0.0478  0.3310 -0.1736
22092SOL    HW169681   5.799   8.065   0.166 -1.7047  0.4966 -1.5235
22092SOL    HW269682   5.680   7.971   0.156  1.7956 -4.1497 -1.6292
22093SOL     OW69683   9.075   0.311   1.873  0.5530 -0.4675  0.0415
22093SOL    HW169684   9.046   0.361   1.949  0.8717 -0.3268  0.0736
22093SOL    HW269685   9.007   0.325   1.807 -0.6197 -2.0624  0.9159
22094SOL     OW69686  10.489   3.073   6.602  0.4160 -0.0798  0.1539
22094SOL    HW169687  10.499   2.981   6.576  1.1868  0.5933 -2.0603
22094SOL    HW269688  10.395   3.090   6.595  0.3321 -0.5696  0.0643
22095SOL     OW69689   7.487   4.900   1.173 -0.0969 -0.1121  0.3146
22095SOL    HW169690   7.523   4.943   1.251  0.0112  2.1712 -0.9392
22095SOL    HW269691   7.412   4.954   1.149 -0.5832 -1.2344 -0.7426
22096SOL     OW69692  10.499   2.479   1.907  0.2181 -0.6029  0.0740
22096SOL    HW169693  10.581   2.527   1.919  0.8857 -1.7611  0.2232
22096SOL    HW269694  10.495   2.463   1.813  0.8125 -1.6567  0.2197
22097SOL     OW69695   8.113   6.888   8.956 -0.3890 -0.0845  0.1879
22097SOL    HW169696   8.064   6.876   9.038 -0.6990  0.1669  0.0438
22097SOL    HW269697   8.048   6.873   8.887 -0.3103  0.4369 -0.0045
22098SOL     OW69698   2.055   5.883   8.706  0.0201 -0.2998  0.8084
22098SOL    HW169699   2.031   5.791   8.695  1.2719 -0.7793  1.9779
22098SOL    HW269700   1.972   5.928   8.720 -0.7221 -1.0478 -1.0575
22099SOL     OW69701   4.037   1.119   9.809 -0.4770 -0.3446  0.2550
22099SOL    HW169702   4.122   1.106   9.849 -0.5098  0.1990  0.5190
22099SOL    HW269703   3.978   1.061   9.857 -0.2131 -0.8819 -0.0735
22100SOL     OW69704   4.850   6.933   2.159 -0.3501  0.5067  0.3753
22100SOL    HW169705   4.797   7.004   2.122  1.2244  2.0858  1.0557
22100SOL    HW269706   4.859   6.956   2.252  0.3362 -0.4762  0.5610
22101SOL     OW69707   6.083   4.496   3.903 -0.5715  0.3367  0.4470
22101SOL    HW169708   6.126   4.414   3.880 -0.0224  0.9063 -0.5961
22101SOL    HW269709   5.990   4.481   3.884 -0.5242 -0.1644  0.6144
22102SOL     OW69710   6.944   7.492   5.557 -0.5715  0.4209 -0.3812
22102SOL    HW169711   6.930   7.457   5.645 -0.7627  0.0514 -0.5564
22102SOL    HW269712   6.929   7.417   5.499  0.6089  0.3982 -0.6727
22103SOL     OW69713   1.898   0.459   2.180  0.5592 -0.0497 -0.2626
22103SOL    HW169714   1.920   0.421   2.095  1.8039 -0.8101  0.3849
22103SOL    HW269715   1.981   0.458   2.229 -0.5116 -1.2085  1.5722
22104SOL     OW69716   5.604  10.908   5.914  0.1428 -0.0460  0.1571
22104SOL    HW169717   5.567  10.990   5.948  1.8694  0.0990  1.7572
22104SOL    HW269718   5.677  10.936   5.859  2.0543 -0.5579  2.3834
22105SOL     OW69719   3.645   5.516   1.505  0.4560 -0.2814 -0.4709
22105SOL    HW169720   3.662   5.525   1.599  0.5673 -2.0569 -0.2876
22105SOL    HW269721   3.566   5.568   1.490  2.2959  2.7417 -0.0716
22106SOL     OW69722   1.264   6.075   1.087  0.2453 -0.1604  0.6661
22106SOL    HW169723   1.344   6.127   1.075 -0.2177  0.5581  0.7161
22106SOL    HW269724   1.233   6.058   0.998  0.8435 -1.0592  0.6163
22107SOL     OW69725   6.282   8.926   2.544 -0.5444 -0.1407 -0.2271
22107SOL    HW169726   6.208   8.948   2.487  0.4380  0.3037 -1.3448
22107SOL    HW269727   6.351   8.898   2.484  0.7222  0.9688  0.6960
22108SOL     OW69728   0.979   5.120   3.804 -0.6127 -0.3328 -0.0930
22108SOL    HW169729   0.942   5.055   3.864  1.0639 -0.8820  0.3821
22108SOL    HW269730   1.014   5.188   3.862 -0.9848  0.2467 -0.5416
22109SOL     OW69731   4.037   6.765   5.890  0.4636  0.3191 -0.5781
22109SOL    HW169732   4.071   6.855   5.897  1.2799 -0.0897  0.8531
22109SOL    HW269733   4.106   6.710   5.927  0.2123 -0.9772 -1.9670
22110SOL     OW69734   9.325   0.655   9.757 -0.2349  0.2450  0.5075
22110SOL    HW169735   9.356   0.745   9.753 -2.0826  0.8925  0.0184
22110SOL    HW269736   9.290   0.637   9.670 -2.5763  0.0965  1.4326
22111SOL     OW69737   8.986   7.699   5.508  0.1112 -0.2674 -0.4049
22111SOL    HW169738   9.005   7.783   5.466  1.7780  0.7833  2.3278
22111SOL    HW269739   9.049   7.638   5.470  1.5516  0.6490  0.4685
22112SOL     OW69740   3.221   9.883  10.412  0.3828  0.2902 -0.3789
22112SOL    HW169741   3.291   9.822  10.435 -1.0924 -1.6869 -0.9866
22112SOL    HW269742   3.244   9.916  10.326  1.7450  1.4467  0.4115
22113SOL     OW69743  10.934   2.590   7.530 -0.5972 -0.4390 -0.2205
22113SOL    HW169744  10.955   2.603   7.438 -1.6711 -0.5564 -0.4867
22113SOL    HW269745  10.918   2.678   7.563 -1.1535 -0.4725 -0.3858
22114SOL     OW69746   5.351   2.769   3.707  0.1238 -0.0330  0.0690
22114SOL    HW169747   5.350   2.677   3.682  1.1301  0.0893 -0.4939
22114SOL    HW269748   5.405   2.772   3.786 -1.2436 -0.1325  1.0151
22115SOL     OW69749   4.257   9.805   0.250 -0.4626  0.0318 -0.1028
22115SOL    HW169750   4.252   9.745   0.324 -0.2339 -0.0957 -0.1897
22115SOL    HW269751   4.336   9.778   0.203 -0.8235 -0.1407 -0.6107
22116SOL     OW69752   2.923   2.328   5.723 -0.2584 -0.0159  0.3332
22116SOL    HW169753   2.939   2.279   5.803 -0.1136  0.3425  0.5243
22116SOL    HW269754   3.010   2.349   5.689 -0.3188 -0.2163  0.0528
22117SOL     OW69755   0.649   2.733  10.558 -0.0061 -0.2264  0.3432
22117SOL    HW169756   0.561   2.718  10.594 -0.7967 -0.8393 -1.7647
22117SOL    HW269757   0.662   2.662  10.496  2.1790 -0.3791  0.9222
22118SOL     OW69758   9.864   5.575   1.364  0.3853 -0.7566 -0.2869
22118SOL    HW169759   9.928   5.642   1.390  0.7874 -1.1259 -0.3116
22118SOL    HW269760   9.780   5.619   1.368  0.7276 -0.0029 -1.1330
22119SOL     OW69761   1.093   0.384   8.139  0.2830 -0.7869  0.3291
22119SOL    HW169762   1.083   0.304   8.087 -0.4165 -0.3383 -0.2218
22119SOL    HW269763   1.008   0.428   8.133  0.9385  0.4355 -0.0731
22120SOL     OW69764  10.453   4.171  10.641  0.3475 -0.0911  0.2112
22120SOL    HW169765  10.527   4.179  10.701  0.0415  1.5700  0.3866
22120SOL    HW269766  10.382   4.138  10.695  0.5839 -0.3772  0.3488
22121SOL     OW69767   5.287   4.929   1.662 -0.1364 -0.1874  0.1441
22121SOL    HW169768   5.259   4.837   1.661 -1.7799  0.3034  0.6819
22121SOL    HW269769   5.299   4.950   1.754 -0.1475  0.2702  0.0410
22122SOL     OW69770   7.587   1.040   6.570 -0.6626 -0.3739  0.1054
22122SOL    HW169771   7.653   1.023   6.503  0.1919 -1.9116  1.2840
22122SOL    HW269772   7.604   1.130   6.599 -0.4815 -0.0144 -1.1134
22123SOL     OW69773   9.082   7.084   8.624 -0.6911  0.3453 -0.0743
22123SOL    HW169774   9.105   6.996   8.594  0.3161  0.6226 -0.1333
22123SOL    HW269775   9.046   7.071   8.712 -1.9131 -0.2735 -0.6647
22124SOL     OW69776  10.289   8.786   6.671  0.0662  0.3586 -0.1620
22124SOL    HW169777  10.335   8.723   6.726 -0.2373 -0.6313 -1.0359
22124SOL    HW269778  10.229   8.733   6.618  0.0772  1.3357 -1.1765
22125SOL     OW69779   6.586   6.865   1.390 -0.1337  0.1503 -0.0090
22125SOL    HW169780   6.510   6.892   1.339 -0.2040 -1.9457 -1.0465
22125SOL    HW269781   6.551   6.801   1.452  0.3272  1.1617  1.3311
22126SOL     OW69782   2.141   5.540   8.234  0.2298 -0.0405  0.7671
22126SOL    HW169783   2.185   5.623   8.251 -1.8243  1.5253 -1.1838
22126SOL    HW269784   2.051   5.555   8.262 -0.2035 -1.5685  0.2333
22127SOL     OW69785   2.376   4.115   6.183 -0.1709 -0.4876  0.1662
22127SOL    HW169786   2.397   4.179   6.251 -0.6803 -0.1952  0.0468
22127SOL    HW269787   2.456   4.062   6.174  0.8169  1.1584 -0.8851
22128SOL     OW69788  10.899   4.125   9.579 -0.1501 -0.6998 -0.2462
22128SOL    HW169789  10.816   4.137   9.627 -0.3188 -1.4595 -0.3362
22128SOL    HW269790  10.916   4.210   9.539  0.2169  0.0817  1.5302
22129SOL     OW69791   8.311   2.060   3.567 -0.2818 -0.2850  0.1219
22129SOL    HW169792   8.348   2.141   3.601  1.6088 -1.1052  0.0774
22129SOL    HW269793   8.304   2.003   3.643 -2.0894  0.0779  0.2464
22130SOL     OW69794   0.628   0.388   2.651 -0.1201  0.0080  0.4812
22130SOL    HW169795   0.622   0.383   2.555  0.7776 -0.6074  0.4502
22130SOL    HW269796   0.676   0.309   2.676  2.2654  1.6283  1.1943
22131SOL     OW69797   5.764   8.814   6.627 -0.2713  0.1523  0.1033
22131SOL    HW169798   5.748   8.806   6.721 -1.9617 -0.8893 -0.2520
22131SOL    HW269799   5.725   8.898   6.603 -0.4077  0.1224  0.2199
22132SOL     OW69800   8.107  10.811   4.939  0.5520  0.2644  0.6761
22132SOL    HW169801   8.201  10.805   4.958  0.7172 -0.7209 -0.4446
22132SOL    HW269802   8.100  10.800   4.845 -0.7222  0.0847  0.7758
22133SOL     OW69803   1.643   0.906   0.264 -0.3808  0.7719 -0.4527
22133SOL    HW169804   1.624   0.823   0.222 -0.0591 -0.4991  1.8142
22133SOL    HW269805   1.575   0.966   0.231 -0.8030 -0.4631 -1.8535
22134SOL     OW69806   2.013  10.119   5.439 -0.2266  0.2456  0.0474
22134SOL    HW169807   1.939  10.176   5.461  0.2313  1.2147 -0.8997
22134SOL    HW269808   1.975  10.031   5.438 -1.7039  0.8765 -1.8828
22135SOL     OW69809   6.530   5.760   5.424 -0.8911  0.6708  0.0766
22135SOL    HW169810   6.610   5.811   5.434 -1.0718  1.4363 -2.0185
22135SOL    HW269811   6.557   5.669   5.437  0.6639  0.7779 -2.1308
22136SOL     OW69812   2.592   7.194   4.246  0.5982 -0.2901 -0.0100
22136SOL    HW169813   2.564   7.174   4.336  0.4906  1.9031  0.4837
22136SOL    HW269814   2.573   7.287   4.236  0.0164 -0.6507 -2.5466
22137SOL     OW69815   2.197   4.332   9.379 -0.0486  0.3774 -0.5203
22137SOL    HW169816   2.172   4.296   9.464 -0.9520  2.4096  0.1089
22137SOL    HW269817   2.141   4.288   9.316 -0.3288 -0.1471  0.0917
22138SOL     OW69818   9.753   2.923   5.335 -0.0302 -0.1880 -0.3090
22138SOL    HW169819   9.822   2.987   5.352 -1.2500  0.8522  0.8641
22138SOL    HW269820   9.687   2.941   5.402 -1.5869 -0.9425 -1.6123
22139SOL     OW69821   4.673   5.667   0.835  0.5844 -0.2245 -0.2746
22139SOL    HW169822   4.707   5.602   0.772  0.8938 -0.8522  0.5319
22139SOL    HW269823   4.698   5.632   0.920 -1.0139 -0.0636  0.2714
22140SOL     OW69824   3.413  10.901   2.491  0.0198  0.1561  0.3484
22140SOL    HW169825   3.466  10.919   2.569  0.2477  1.2695 -0.0601
22140SOL    HW269826   3.345  10.842   2.523  0.8499 -0.4086  1.1159
22141SOL     OW69827   5.021   2.536   1.837 -0.3290  0.0503 -0.7058
22141SOL    HW169828   4.966   2.478   1.785 -0.3106  0.1698 -0.8582
22141SOL    HW269829   5.035   2.613   1.782 -0.2514  0.1474 -0.5532
22142SOL     OW69830   0.612   1.016   0.188  0.1160  0.1667 -0.0077
22142SOL    HW169831   0.556   1.052   0.119 -1.9857  0.6734  1.9186
22142SOL    HW269832   0.664   0.949   0.143 -0.7844  0.8799 -2.2010
22143SOL     OW69833   8.372   0.907   8.873 -0.2534 -0.3871  0.1286
22143SOL    HW169834   8.338   0.910   8.784  0.0339  1.1933  0.0618
22143SOL    HW269835   8.304   0.947   8.927 -0.1544 -0.7531  0.5312
22144SOL     OW69836   8.443   3.286   3.935 -0.4355 -0.4473 -0.4409
22144SOL    HW169837   8.452   3.191   3.946 -1.1086 -0.4882 -0.1945
22144SOL    HW269838   8.528   3.315   3.903  0.3359 -0.8766  1.2123
22145SOL     OW69839   9.666   5.918  10.977  0.2661 -0.7336  0.0712
22145SOL    HW169840   9.707   5.834  10.999 -0.0971 -1.0708 -0.5077
22145SOL    HW269841   9.641   5.956  11.061 -0.9689 -1.9168  0.2482
22146SOL     OW69842   0.561   4.859   3.257  0.0055 -0.1555 -0.2633
22146SOL    HW169843   0.524   4.905   3.182 -1.3636 -2.0345 -0.7759
22146SOL    HW269844   0.501   4.876   3.329  0.7676  0.7925  0.1620
22147SOL     OW69845   9.619   5.319   4.071 -0.0030  0.2748 -0.2390
22147SOL    HW169846   9.646   5.269   4.148 -0.2256  2.0598  1.0405
22147SOL    HW269847   9.692   5.378   4.054 -1.0782  1.7781  0.2878
22148SOL     OW69848  10.228   0.292   6.853  0.0728 -0.5710  0.1169
22148SOL    HW169849  10.210   0.204   6.887 -0.2731 -0.3944  0.3976
22148SOL    HW269850  10.290   0.329   6.916  0.4049 -0.6996 -0.1327
22149SOL     OW69851  10.304   2.727   7.862 -0.2177 -0.1721  0.1883
22149SOL    HW169852  10.230   2.767   7.817  1.2908 -0.5833 -2.7902
22149SOL    HW269853  10.287   2.633   7.857  0.6442 -0.2853 -0.8113
22150SOL     OW69854   4.738   3.279   8.282 -0.0538 -0.0194  0.2348
22150SOL    HW169855   4.725   3.314   8.370 -1.0829  1.5545 -0.5337
22150SOL    HW269856   4.701   3.191   8.286  0.3145 -0.1263  1.4963
22151SOL     OW69857   9.175   6.808   8.796 -0.2930  0.1314 -0.4811
22151SOL    HW169858   9.245   6.836   8.855 -1.2944  2.1837 -0.2241
22151SOL    HW269859   9.119   6.752   8.850 -1.3935  2.2666  0.6627
22152SOL     OW69860   8.155   0.719   3.231  0.5546 -0.2095 -0.1210
22152SOL    HW169861   8.136   0.694   3.322 -0.6530 -0.1839 -0.3659
22152SOL    HW269862   8.085   0.680   3.180  0.0725  1.4997 -0.8048
22153SOL     OW69863  10.371  10.878   8.796  0.4350 -0.4084 -0.5191
22153SOL    HW169864  10.340  10.960   8.835 -1.0659 -0.9598 -0.5058
22153SOL    HW269865  10.383  10.819   8.870  0.0592 -0.6641 -0.6622
22154SOL     OW69866   1.089  10.521   3.675 -0.0899  0.4740 -0.5478
22154SOL    HW169867   1.039  10.549   3.752 -1.3528 -1.1048 -0.7830
22154SOL    HW269868   1.098  10.601   3.623 -0.2632  1.2921  0.6416
22155SOL     OW69869   4.164   2.446   9.426  0.2012 -0.5211 -0.1732
22155SOL    HW169870   4.237   2.503   9.448  0.2703 -0.3755 -0.7539
22155SOL    HW269871   4.086   2.496   9.449  0.2866 -0.7474  0.6153
22156SOL     OW69872   3.755   0.017   5.201  0.6136 -0.0828  0.7105
22156SOL    HW169873   3.813   0.093   5.196  0.6912 -0.2212 -0.5779
22156SOL    HW269874   3.667   0.054   5.205  0.6194  0.0811 -0.4379
22157SOL     OW69875   7.950   4.242   7.619 -0.0188  0.1595 -0.5938
22157SOL    HW169876   7.965   4.175   7.553  1.0106  1.5816 -1.8453
22157SOL    HW269877   7.955   4.196   7.702 -1.4540 -1.6910 -1.4962
22158SOL     OW69878   0.529   1.871   8.891  0.2140 -0.0533  0.5133
22158SOL    HW169879   0.561   1.809   8.825  1.6049 -1.0584  2.0816
22158SOL    HW269880   0.600   1.935   8.900 -0.6684  1.0371 -0.1450
22159SOL     OW69881   0.746   8.911   2.481 -0.2741 -0.2671  0.0480
22159SOL    HW169882   0.652   8.931   2.491 -0.1025 -0.2479  1.8215
22159SOL    HW269883   0.760   8.908   2.387 -2.0346 -0.0938 -0.2386
22160SOL     OW69884   3.125   7.588   1.295 -0.5254 -0.0825 -0.5363
22160SOL    HW169885   3.163   7.618   1.212 -1.8655 -0.2902 -1.2481
22160SOL    HW269886   3.097   7.668   1.339  2.1626  0.1918  0.7267
22161SOL     OW69887   3.906   1.270  10.835  0.4436  0.3800  0.6471
22161SOL    HW169888   3.853   1.225  10.769  2.2209  0.5275 -0.9338
22161SOL    HW269889   3.877   1.361  10.830 -0.6879  0.0665  1.3601
22162SOL     OW69890   0.559   9.992   9.443  0.2860 -0.5092  0.6500
22162SOL    HW169891   0.611   9.922   9.404  1.3616  0.2638  0.6780
22162SOL    HW269892   0.471   9.978   9.408  0.7589 -1.1315 -0.3179
22163SOL     OW69893   8.060   5.533   8.403  0.1484  0.5529  0.2656
22163SOL    HW169894   8.004   5.600   8.443 -0.4655  0.7157 -0.8464
22163SOL    HW269895   8.090   5.479   8.477 -1.5246  0.4264  0.8645
22164SOL     OW69896   5.743   7.711   7.131 -0.1004  1.0633  0.5788
22164SOL    HW169897   5.669   7.675   7.083  0.6538  2.1533 -1.4742
22164SOL    HW269898   5.767   7.642   7.193 -1.9952  0.1891  0.3671
22165SOL     OW69899   3.617   6.180   4.651 -0.4439  0.2704 -0.1653
22165SOL    HW169900   3.688   6.191   4.714 -0.8468 -0.1321  0.3634
22165SOL    HW269901   3.543   6.228   4.689 -0.4691  0.6464 -0.6874
22166SOL     OW69902   5.003   1.802   7.878 -0.1596 -0.6778 -0.1793
22166SOL    HW169903   5.066   1.874   7.883  0.5328 -1.3608  1.2008
22166SOL    HW269904   5.008   1.772   7.787 -1.1789  1.6342 -1.0563
22167SOL     OW69905   0.748   0.782   9.892 -0.1478 -0.0972 -0.0897
22167SOL    HW169906   0.821   0.840   9.869  0.1824 -0.9923 -1.3331
22167SOL    HW269907   0.732   0.799   9.985  2.4499 -0.7566  0.5187
22168SOL     OW69908   3.790   5.781  10.049 -0.0899  0.3065  0.3600
22168SOL    HW169909   3.848   5.843  10.094 -0.3462  1.2151 -0.5532
22168SOL    HW269910   3.722   5.835  10.011  0.7918 -0.2943 -2.1759
22169SOL     OW69911   2.759   3.853   4.213 -0.0878  0.3901 -0.2100
22169SOL    HW169912   2.677   3.862   4.164 -0.2808  0.2994  0.0951
22169SOL    HW269913   2.751   3.917   4.283  0.4237  0.9017 -0.6203
22170SOL     OW69914   9.581   8.542   4.968  0.5661  0.0143 -0.2341
22170SOL    HW169915   9.542   8.486   4.901  1.8260 -0.7606 -0.3354
22170SOL    HW269916   9.675   8.540   4.950  0.6259  2.5230 -0.5167
22171SOL     OW69917   0.678   3.360   6.402 -0.4589 -0.8515  0.0417
22171SOL    HW169918   0.716   3.277   6.373 -0.4927 -1.8375  2.6514
22171SOL    HW269919   0.588   3.338   6.426 -0.6489  0.0840  0.2010
22172SOL     OW69920   2.963   2.208  10.493  0.0640  0.4755 -0.4502
22172SOL    HW169921   2.881   2.161  10.476 -0.2877  1.0045 -0.2469
22172SOL    HW269922   2.941   2.270  10.562  0.4958  1.0021 -0.7750
22173SOL     OW69923   9.336   6.935   0.104  0.5039 -0.0543 -0.2684
22173SOL    HW169924   9.427   6.949   0.078  0.5623  0.0815  0.0071
22173SOL    HW269925   9.326   6.840   0.106  0.7942 -0.0768  0.2336
22174SOL     OW69926   8.919   6.690   7.431  0.2478 -0.0206  0.4180
22174SOL    HW169927   8.959   6.686   7.344  3.0076 -0.4939  1.6537
22174SOL    HW269928   8.905   6.784   7.447  0.0092  0.0849 -0.4099
22175SOL     OW69929   7.455   0.936   7.503  0.0256  0.5839  0.2789
22175SOL    HW169930   7.384   0.877   7.474 -0.9391  2.6109 -1.6000
22175SOL    HW269931   7.522   0.877   7.538 -0.7020 -1.6857 -2.0039
22176SOL     OW69932   8.759   9.745   0.037 -0.1985  0.2056 -0.0179
22176SOL    HW169933   8.852   9.766   0.022 -0.1908  0.2168  0.0452
22176SOL    HW269934   8.755   9.720   0.129 -0.1414 -0.4665 -0.1997
22177SOL     OW69935   7.807   2.391   9.618  0.4316 -0.8317  0.5590
22177SOL    HW169936   7.771   2.366   9.533 -0.5089 -0.5856  0.8753
22177SOL    HW269937   7.900   2.406   9.601  0.2783 -0.9082 -0.3982
22178SOL     OW69938   3.884   8.278   1.247  0.2956 -0.3493  0.1206
22178SOL    HW169939   3.902   8.229   1.327 -0.1951  0.4601  0.7371
22178SOL    HW269940   3.854   8.212   1.185 -1.0178 -0.7501  1.1503
22179SOL     OW69941   3.264   8.696   6.447  0.0501  0.4717 -0.2320
22179SOL    HW169942   3.223   8.773   6.486  2.3258  2.0766 -0.9259
22179SOL    HW269943   3.325   8.664   6.514 -2.0949 -1.7878  0.7206
22180SOL     OW69944  10.772  10.805   3.409  0.4769  0.4046 -0.6934
22180SOL    HW169945  10.830  10.850   3.471  1.3250 -0.1427 -1.0853
22180SOL    HW269946  10.764  10.865   3.335  0.5707  0.4612 -0.6577
22181SOL     OW69947   5.672   4.416  10.074  0.5034 -0.1755 -0.2112
22181SOL    HW169948   5.688   4.490  10.133 -0.5325 -1.4995  1.8031
22181SOL    HW269949   5.578   4.417  10.060  0.3941 -1.5250  0.3969
22182SOL     OW69950   6.821   0.122   7.692 -0.0374 -0.1237  0.1929
22182SOL    HW169951   6.800   0.207   7.653  0.8095  0.1808  0.3955
22182SOL    HW269952   6.751   0.108   7.756  0.1845  0.7414  0.6434
22183SOL     OW69953   7.828   2.127   1.427 -0.3765  0.2429 -0.4393
22183SOL    HW169954   7.821   2.153   1.518  0.4637 -0.3239 -0.2090
22183SOL    HW269955   7.871   2.201   1.384 -0.9962  0.6115 -0.4211
22184SOL     OW69956   1.140   6.328   7.354 -0.7137  0.0321 -0.0627
22184SOL    HW169957   1.086   6.269   7.408  0.2841  0.0607  1.0056
22184SOL    HW269958   1.104   6.415   7.370 -2.4005 -0.3164 -1.9009
22185SOL     OW69959   5.280  10.538   5.618  0.4949  0.2618  0.2889
22185SOL    HW169960   5.221  10.463   5.611  1.7584 -0.8051  0.8716
22185SOL    HW269961   5.276  10.580   5.532 -1.1790  0.2503  0.3594
22186SOL     OW69962   2.923   2.198   8.626  0.5968  0.1445 -0.0797
22186SOL    HW169963   2.994   2.218   8.688 -0.4144  0.2850  1.0525
22186SOL    HW269964   2.945   2.247   8.547  3.0280 -1.6857 -0.6131
22187SOL     OW69965  10.475   6.922   8.278 -0.0485 -0.0057 -0.7661
22187SOL    HW169966  10.560   6.908   8.319  0.3558 -0.3815 -1.7141
22187SOL    HW269967  10.465   7.017   8.273 -0.3777  0.0457  0.7520
22188SOL     OW69968   4.997   0.089   2.692 -0.1064 -0.9930 -0.6872
22188SOL    HW169969   4.957   0.163   2.737 -1.8094 -3.1674  1.4715
22188SOL    HW269970   4.974   0.102   2.600  0.7793  1.8430 -0.5593
22189SOL     OW69971   8.154   6.156   4.123  0.2792 -0.0451 -0.4564
22189SOL    HW169972   8.177   6.230   4.180 -3.2485  1.8037 -1.3055
22189SOL    HW269973   8.181   6.183   4.036 -0.7418  0.1484 -0.7222
22190SOL     OW69974   2.644   2.055   9.235  0.3235 -0.6269  0.1987
22190SOL    HW169975   2.551   2.044   9.255  0.7152 -3.1576  0.8961
22190SOL    HW269976   2.683   2.082   9.318  0.2672  0.0416  0.0067
22191SOL     OW69977   5.211   4.862   3.764  0.0359 -0.0631 -0.8078
22191SOL    HW169978   5.164   4.795   3.814  0.7896 -1.6182 -2.1178
22191SOL    HW269979   5.198   4.837   3.672  1.4093  0.8463 -1.2738
22192SOL     OW69980   4.627   2.500   4.206  0.2410 -0.3604 -0.1397
22192SOL    HW169981   4.669   2.434   4.260 -1.0602 -1.3188 -0.2972
22192SOL    HW269982   4.583   2.558   4.268  0.9905  0.0979 -0.0306
22193SOL     OW69983   4.171   4.247   5.041  0.0331  0.6798  0.5840
22193SOL    HW169984   4.247   4.262   4.984  0.4340 -1.3780  0.5162
22193SOL    HW269985   4.098   4.235   4.980  0.4241 -1.3163  0.4664
22194SOL     OW69986   9.510   3.143   9.309 -0.5689 -0.8318  0.2737
22194SOL    HW169987   9.519   3.063   9.257  0.2752  0.4833 -1.6497
22194SOL    HW269988   9.438   3.190   9.269 -0.2149 -0.0157  0.5814
22195SOL     OW69989   3.866  10.976   4.280  0.0271  0.1594 -0.1519
22195SOL    HW169990   3.928  10.907   4.256 -0.8918 -0.6323 -0.2626
22195SOL    HW269991   3.780  10.939   4.260 -0.5022  1.1047  0.3698
22196SOL     OW69992   5.655   7.731   6.227 -0.4528  0.6051 -0.3027
22196SOL    HW169993   5.664   7.654   6.171  2.3531  0.6284  0.0611
22196SOL    HW269994   5.632   7.695   6.313  0.4328  0.1911 -0.2325
22197SOL     OW69995   9.004   2.210   6.958  0.3009 -0.3731  0.4488
22197SOL    HW169996   9.005   2.124   7.001  1.0626 -0.4325  0.3252
22197SOL    HW269997   8.921   2.250   6.985  0.1525 -0.9645  0.8734
22198SOL     OW69998   2.800   9.967   5.544 -0.3109 -0.0879 -0.5516
22198SOL    HW169999   2.768  10.053   5.572  0.7072  0.4679 -1.0949
22198SOL    HW270000   2.841   9.930   5.622  0.2867  0.4051 -0.6344
22199SOL     OW70001  10.530   9.741   7.498  0.2279 -0.2240 -0.2353
22199SOL    HW170002  10.477   9.789   7.435  0.1371 -0.1151 -0.0768
22199SOL    HW270003  10.516   9.649   7.477  0.4240 -0.1809 -0.5558
22200SOL     OW70004   6.205   2.697   7.740 -0.0354 -0.1568 -0.4108
22200SOL    HW170005   6.137   2.639   7.775  1.0302 -1.3454 -0.2713
22200SOL    HW270006   6.230   2.657   7.657  0.6590  0.1414 -0.3481
22201SOL     OW70007   4.744  10.501   9.096  0.0722 -0.5547  0.3315
22201SOL    HW170008   4.710  10.418   9.062  0.6419 -1.0256  0.9064
22201SOL    HW270009   4.675  10.564   9.079 -0.0794 -1.0018 -0.7576
22202SOL     OW70010   8.745   4.746   0.261 -0.2891  0.3527  0.0069
22202SOL    HW170011   8.729   4.689   0.186  1.7458  1.0213 -0.9645
22202SOL    HW270012   8.732   4.689   0.338  0.9576 -1.2331 -0.9231
22203SOL     OW70013  10.845   7.544   9.095  0.0725  0.3533 -0.7754
22203SOL    HW170014  10.790   7.467   9.110 -0.1272 -0.2044 -4.0256
22203SOL    HW270015  10.934   7.514   9.116 -0.5117  0.5178  2.0441
22204SOL     OW70016   1.588   2.945   3.437 -0.1403 -0.0084 -0.1068
22204SOL    HW170017   1.649   2.873   3.421 -0.3087 -0.3455  0.7306
22204SOL    HW270018   1.585   2.993   3.355 -0.6617 -1.4480 -0.9588
22205SOL     OW70019   9.242   4.535   2.378 -0.5243  0.2268  0.3241
22205SOL    HW170020   9.325   4.581   2.383 -0.2264 -0.0937 -1.1974
22205SOL    HW270021   9.266   4.442   2.382 -0.7595  0.1228 -0.5659
22206SOL     OW70022   7.263   6.986   6.825 -0.0850  0.0476 -0.2340
22206SOL    HW170023   7.352   6.952   6.819 -0.4319 -0.7275 -1.0535
22206SOL    HW270024   7.247   7.028   6.740 -0.9314 -0.9103 -0.5652
22207SOL     OW70025   0.107   9.210   1.917 -0.0714  0.3223  0.5080
22207SOL    HW170026   0.052   9.139   1.886 -1.7984  1.0585  1.8247
22207SOL    HW270027   0.181   9.166   1.959  0.7278 -0.6697 -1.8602
22208SOL     OW70028   0.516  10.534   3.021 -0.0510 -0.4119  0.5237
22208SOL    HW170029   0.584  10.600   3.026  1.0324 -1.6174  2.2857
22208SOL    HW270030   0.466  10.545   3.102 -0.7834 -0.8050  0.1386
22209SOL     OW70031   8.217   6.566   6.859  0.1648 -0.5290  0.0708
22209SOL    HW170032   8.307   6.599   6.858 -0.0322  0.0001 -0.0496
22209SOL    HW270033   8.185   6.583   6.770 -0.4417  0.3291  0.4579
22210SOL     OW70034   1.188   5.690   9.912 -0.3580  0.5567  0.5518
22210SOL    HW170035   1.213   5.777   9.944 -1.3225  1.0673 -0.0632
22210SOL    HW270036   1.109   5.667   9.961 -0.0016 -0.0587  0.8447
22211SOL     OW70037   0.778   1.225   6.491  0.0765 -0.3471 -0.3898
22211SOL    HW170038   0.781   1.136   6.457  0.5421 -1.1401  1.6297
22211SOL    HW270039   0.862   1.263   6.464  1.1402 -1.4934  1.2116
22212SOL     OW70040   3.878   3.469   8.825 -0.1022 -0.3973  0.1485
22212SOL    HW170041   3.866   3.480   8.731  0.4412 -1.5314 -0.0650
22212SOL    HW270042   3.942   3.399   8.833 -1.7862 -1.8406  1.3940
22213SOL     OW70043  10.288   9.271   4.053  0.0568  0.2155  0.5242
22213SOL    HW170044  10.355   9.302   4.114 -0.0281  0.2000  0.6256
22213SOL    HW270045  10.229   9.219   4.107 -0.0385  0.2313  0.4349
22214SOL     OW70046   0.962   3.311   7.341  0.0356  0.2377 -0.3861
22214SOL    HW170047   0.994   3.304   7.431 -2.6924 -0.2049  0.5889
22214SOL    HW270048   0.956   3.221   7.310  0.6683  0.3716 -0.8971
22215SOL     OW70049   1.986   5.198   5.534  0.6836 -0.0008  0.0207
22215SOL    HW170050   1.917   5.206   5.468  1.7578  0.3974 -1.0647
22215SOL    HW270051   1.958   5.124   5.589  0.0809 -0.7234 -1.2344
22216SOL     OW70052   6.513   6.772  10.838  0.2354 -0.3876 -0.8144
22216SOL    HW170053   6.566   6.721  10.899  3.0141  1.0869 -1.9015
22216SOL    HW270054   6.476   6.708  10.778  0.2514 -1.5133  0.3568
22217SOL     OW70055   6.251  10.656   4.177 -0.1948 -0.0356  0.1393
22217SOL    HW170056   6.181  10.627   4.236 -1.2907  1.1435 -0.5421
22217SOL    HW270057   6.205  10.699   4.105  1.2243  0.3861 -0.5350
22218SOL     OW70058   7.712   7.717   8.301  0.1604 -0.3883 -1.1551
22218SOL    HW170059   7.630   7.716   8.350  0.7230 -0.1903 -0.2052
22218SOL    HW270060   7.711   7.800   8.255  0.5771  0.3495  0.1479
22219SOL     OW70061   2.714   1.090   1.708 -0.0429  0.1173  0.0600
22219SOL    HW170062   2.715   0.996   1.690  1.7914 -0.2926  2.0152
22219SOL    HW270063   2.622   1.115   1.699 -0.2757 -1.4162 -2.5079
22220SOL     OW70064   9.522   8.896   1.868  0.3305 -0.1856 -0.6453
22220SOL    HW170065   9.450   8.835   1.884  0.5852 -0.8643 -1.9885
22220SOL    HW270066   9.484   8.982   1.884 -0.9348 -0.5078 -1.7681
22221SOL     OW70067   0.508   1.649   1.254 -0.5879 -0.6584  0.4927
22221SOL    HW170068   0.529   1.731   1.208  1.2083  0.4928  3.2632
22221SOL    HW270069   0.457   1.599   1.190 -0.2597  1.8861 -1.8820
22222SOL     OW70070   6.896   0.495   2.823 -0.1393  0.4964 -0.3707
22222SOL    HW170071   6.906   0.588   2.805  0.9530  0.5215  0.3023
22222SOL    HW270072   6.833   0.490   2.894 -1.2849  0.6338 -1.3680
22223SOL     OW70073  10.973   4.448   6.374 -0.0503  0.5890  0.1279
22223SOL    HW170074  11.000   4.478   6.461 -1.0537 -0.2291  0.7475
22223SOL    HW270075  10.965   4.528   6.322 -1.8106  1.3485  1.4907
22224SOL     OW70076   3.449   2.552   1.817 -0.3596 -0.1116 -0.0464
22224SOL    HW170077   3.382   2.567   1.884 -1.1469 -1.4831 -0.5179
22224SOL    HW270078   3.406   2.496   1.752  1.6355 -2.0352  0.2596
22225SOL     OW70079   2.712   0.945   2.541  0.2646 -0.3760 -0.5510
22225SOL    HW170080   2.699   0.992   2.458 -0.3345  0.7779  0.1888
22225SOL    HW270081   2.659   0.866   2.532 -3.6309  1.9547  0.5090
22226SOL     OW70082   7.347   0.340  10.662  0.4447  0.1173  0.3538
22226SOL    HW170083   7.345   0.384  10.577  0.1559 -2.3490 -0.9638
22226SOL    HW270084   7.255   0.323  10.682  0.5076  0.7029  1.2053
22227SOL     OW70085   7.489   1.249   1.786 -0.2281  0.0424  0.1110
22227SOL    HW170086   7.480   1.337   1.749 -1.0998  0.3874  1.1427
22227SOL    HW270087   7.582   1.229   1.777 -0.1071  0.8768 -0.5539
22228SOL     OW70088   7.919   4.756   9.140 -0.3320  0.0465  0.5262
22228SOL    HW170089   7.957   4.745   9.227  1.1984  2.4015  0.1748
22228SOL    HW270090   7.924   4.669   9.101 -0.0425 -0.7979  2.3668
22229SOL     OW70091   2.437   0.306  10.229 -0.6153 -0.7172  0.3445
22229SOL    HW170092   2.514   0.266  10.270 -1.4939 -0.8453  1.8859
22229SOL    HW270093   2.436   0.395  10.262  0.3036  0.0892 -1.6831
22230SOL     OW70094   4.050   1.922   2.745  0.4476  0.2197  0.3538
22230SOL    HW170095   3.996   1.942   2.669 -1.8227 -0.2520  1.8062
22230SOL    HW270096   4.067   2.008   2.785  0.2068  0.3070  0.2715
22231SOL     OW70097   2.857   8.184   7.415 -0.1178 -0.2624 -0.0440
22231SOL    HW170098   2.884   8.100   7.376 -0.1423 -0.7967  1.0804
22231SOL    HW270099   2.816   8.231   7.343  0.5902 -0.9027 -0.8841
22232SOL     OW70100   5.882   6.655   2.394 -0.6910  0.8264 -0.2998
22232SOL    HW170101   5.950   6.702   2.346  1.1766 -2.4221 -0.9525
22232SOL    HW270102   5.877   6.701   2.478  3.3153  0.3519  0.3146
22233SOL     OW70103   3.503   8.066   0.972 -0.8051  0.0663 -0.2164
22233SOL    HW170104   3.571   8.020   1.020  0.0122 -0.0261 -1.4372
22233SOL    HW270105   3.542   8.152   0.953 -1.6720  0.6441  0.5459
22234SOL     OW70106   1.392   6.191   7.271  0.6456 -0.1890 -0.3724
22234SOL    HW170107   1.336   6.258   7.310 -1.3117 -1.4611 -0.9358
22234SOL    HW270108   1.331   6.125   7.239  2.3911 -0.7893 -2.5446
22235SOL     OW70109   1.007   0.208   4.342  0.7476 -0.4843 -0.0233
22235SOL    HW170110   1.045   0.213   4.254  1.7618 -0.7935  0.3902
22235SOL    HW270111   0.993   0.299   4.368  0.5210 -0.3907 -0.4702
22236SOL     OW70112   3.910   2.723   3.440  0.4314 -0.1090  0.5031
22236SOL    HW170113   3.954   2.660   3.497 -0.5431 -1.2816 -0.0129
22236SOL    HW270114   3.976   2.790   3.422  2.2727 -2.2089 -0.8611
22237SOL     OW70115   5.918   8.148  10.092  0.2863  0.2229  0.0750
22237SOL    HW170116   6.001   8.117  10.129  0.3977  0.1951 -0.1900
22237SOL    HW270117   5.887   8.074  10.040 -0.4397 -0.1465  1.0217
22238SOL     OW70118   5.300   0.661   2.801  0.1279 -0.4079 -0.0305
22238SOL    HW170119   5.305   0.737   2.859  0.0630  0.4956 -1.1846
22238SOL    HW270120   5.294   0.586   2.860  0.8791  0.4268  1.1385
22239SOL     OW70121   0.780   6.395   3.442  0.2476  0.2404  0.1037
22239SOL    HW170122   0.781   6.336   3.367  1.4075 -0.1108  0.3909
22239SOL    HW270123   0.693   6.382   3.482 -0.2234  0.1492 -0.9485
22240SOL     OW70124   2.886   4.984   7.329 -0.2515 -0.0229 -0.1646
22240SOL    HW170125   2.810   4.951   7.378 -0.8019  0.8934 -0.4030
22240SOL    HW270126   2.849   5.045   7.266  0.5007 -0.8632 -1.4432
22241SOL     OW70127  10.428   3.525   5.020 -0.2150 -0.1696  0.1538
22241SOL    HW170128  10.357   3.547   4.960  0.9079 -1.3611 -1.6711
22241SOL    HW270129  10.399   3.557   5.105 -2.3447  0.5386 -0.8151
22242SOL     OW70130   4.562   6.025   6.407 -0.2402  0.1591  0.4112
22242SOL    HW170131   4.585   5.987   6.323 -0.3468  0.7318  0.1187
22242SOL    HW270132   4.630   6.090   6.424 -1.7337  2.0485 -0.5898
22243SOL     OW70133   3.119   3.235   5.030  0.5363  0.0623  0.1232
22243SOL    HW170134   3.031   3.269   5.047  0.4379 -0.4084  0.5692
22243SOL    HW270135   3.176   3.311   5.041  0.3088  0.1072  1.0619
22244SOL     OW70136   2.074   4.231   0.503 -0.1359 -0.1330 -0.1832
22244SOL    HW170137   2.140   4.205   0.439 -0.0773 -0.2441 -0.0775
22244SOL    HW270138   2.122   4.241   0.585 -0.4146 -1.2333  0.1265
22245SOL     OW70139   2.682   3.947   3.583  0.1164 -0.1596  0.0426
22245SOL    HW170140   2.667   4.032   3.624  2.9963 -0.0021  0.8894
22245SOL    HW270141   2.765   3.958   3.535  0.6807 -2.5619  0.4166
22246SOL     OW70142   3.729   7.905  10.426 -0.2674  1.0341  0.3440
22246SOL    HW170143   3.787   7.920  10.351 -0.5151  2.6447  0.4522
22246SOL    HW270144   3.788   7.883  10.498 -0.1666 -3.3927 -0.9034
22247SOL     OW70145  10.767   7.272   9.176  0.1745  0.4913  0.0551
22247SOL    HW170146  10.695   7.274   9.239  1.2766 -1.3189  1.4280
22247SOL    HW270147  10.757   7.188   9.131  0.3586  1.0492 -1.0432
22248SOL     OW70148  10.949   8.408   1.565 -0.4985 -0.3870 -0.1273
22248SOL    HW170149  10.879   8.462   1.604  0.5870  0.8651  0.1273
22248SOL    HW270150  10.960   8.444   1.477 -0.0786 -0.5021 -0.1211
22249SOL     OW70151   4.471   7.095   5.499  0.7444 -0.3961  0.3949
22249SOL    HW170152   4.471   7.033   5.572  0.6590 -1.4908 -0.5253
22249SOL    HW270153   4.402   7.063   5.440  0.5018  0.7400  0.0475
22250SOL     OW70154   2.268   1.580   9.828 -0.1034  0.4103  0.4429
22250SOL    HW170155   2.323   1.501   9.831  1.2018  1.3581  2.9239
22250SOL    HW270156   2.271   1.608   9.737 -0.3697 -2.2529 -0.4198
22251SOL     OW70157   1.659   3.223   5.019  0.3595 -0.5899  0.5586
22251SOL    HW170158   1.630   3.141   5.059  0.6346 -0.7385  0.4528
22251SOL    HW270159   1.699   3.272   5.090  0.6245 -0.7493  0.5188
22252SOL     OW70160   0.465   6.905  10.684 -0.0635 -1.5582 -0.0146
22252SOL    HW170161   0.523   6.981  10.675  0.6105 -1.9092  1.2452
22252SOL    HW270162   0.401   6.915  10.614  0.8174 -0.5283 -0.6850
22253SOL     OW70163   9.756   3.140   1.487 -0.1717  0.5012 -0.4912
22253SOL    HW170164   9.831   3.087   1.513  0.5445  1.7123 -0.0361
22253SOL    HW270165   9.682   3.079   1.484  0.5822 -0.4518  0.3000
22254SOL     OW70166  10.968   4.924   1.411  0.2045  0.5374  0.3411
22254SOL    HW170167  10.874   4.942   1.412  0.5595  2.4783  0.8661
22254SOL    HW270168  11.003   4.981   1.480  1.8362  0.2248 -0.2291
22255SOL     OW70169   3.632   1.934   5.728  0.1978 -0.4022 -0.4382
22255SOL    HW170170   3.673   1.934   5.642  2.1595  1.2898  0.4377
22255SOL    HW270171   3.553   1.881   5.718  0.3055 -0.0775 -3.2975
22256SOL     OW70172   4.542   9.494   9.247  0.3203 -1.3732 -0.5502
22256SOL    HW170173   4.620   9.485   9.303 -0.9200  1.1848  1.6878
22256SOL    HW270174   4.474   9.526   9.306 -1.4257  0.1084 -3.2746
22257SOL     OW70175   9.711   8.651   2.241  0.3471  0.0620  0.8574
22257SOL    HW170176   9.716   8.573   2.295 -1.5522 -0.2146  0.6570
22257SOL    HW270177   9.619   8.677   2.243  0.5843  1.1513 -0.6838
22258SOL     OW70178   0.336   6.813  10.952 -0.1482  0.3188 -0.4216
22258SOL    HW170179   0.355   6.905  10.974 -0.6577  0.3168  0.0444
22258SOL    HW270180   0.370   6.802  10.863  3.9901 -0.2917  1.1030
22259SOL     OW70181   3.810   2.471   5.663  0.1961  0.1864  0.0299
22259SOL    HW170182   3.770   2.547   5.620 -0.7999 -0.2465  0.1576
22259SOL    HW270183   3.741   2.439   5.722 -0.0823 -1.9066 -1.3690
22260SOL     OW70184   4.487   0.713   3.908 -0.1573  0.1976 -0.1089
22260SOL    HW170185   4.511   0.758   3.827  0.4711 -0.6232 -0.3764
22260SOL    HW270186   4.570   0.692   3.950 -0.2621 -3.8839 -1.7101
22261SOL     OW70187   3.547  10.686   1.709 -0.0796 -0.8127 -0.0374
22261SOL    HW170188   3.593  10.656   1.631  0.7818  0.1816  0.0773
22261SOL    HW270189   3.548  10.611   1.768  0.2326 -1.2164 -0.5592
22262SOL     OW70190  10.252   9.725  10.444 -0.4908  0.6769  0.6326
22262SOL    HW170191  10.175   9.782  10.436 -1.2203 -0.4152 -0.1950
22262SOL    HW270192  10.216   9.637  10.454  0.6425 -0.0218 -1.1534
22263SOL     OW70193  10.141   3.037   9.727 -0.2614 -0.2701  0.1518
22263SOL    HW170194  10.058   3.029   9.678 -0.3433 -0.3147  0.2984
22263SOL    HW270195  10.145   3.129   9.752 -0.1712 -0.2258 -0.0221
22264SOL     OW70196   3.317   9.517  10.194 -0.3250 -0.0212 -0.4211
22264SOL    HW170197   3.291   9.544  10.106  0.3698  0.9295 -0.3474
22264SOL    HW270198   3.247   9.550  10.250  0.6317  1.9306 -0.3019
22265SOL     OW70199   6.307   4.989   7.588  0.7156  0.2399  0.1324
22265SOL    HW170200   6.349   4.906   7.569 -0.5977 -0.6690  1.1437
22265SOL    HW270201   6.375   5.042   7.629  1.7566 -0.0598 -1.1690
22266SOL     OW70202   1.551   8.212   1.732 -0.2590 -0.5622  0.5937
22266SOL    HW170203   1.491   8.230   1.660 -0.5232 -0.2067  0.9024
22266SOL    HW270204   1.516   8.262   1.806  0.4365 -0.3127  0.7614
22267SOL     OW70205   9.726   6.271   7.985  0.3206 -0.3142 -0.8771
22267SOL    HW170206   9.655   6.208   7.984 -0.3085  0.3643  0.0889
22267SOL    HW270207   9.684   6.355   7.969  0.5425  0.4086  2.0912
22268SOL     OW70208   7.716   8.150   2.655 -0.4648 -0.3110 -0.0355
22268SOL    HW170209   7.768   8.072   2.637  0.2190 -0.1003  0.9942
22268SOL    HW270210   7.749   8.183   2.738  0.2119  1.8784 -1.1335
22269SOL     OW70211  10.920   1.634   7.534 -0.7707 -0.5581  0.2582
22269SOL    HW170212  10.997   1.613   7.586 -0.4032 -0.7715 -0.3672
22269SOL    HW270213  10.848   1.633   7.597 -0.0733  1.0614  1.1254
22270SOL     OW70214   7.186   4.707   4.866  0.0263  0.0716 -0.0061
22270SOL    HW170215   7.161   4.778   4.807 -0.3199 -0.9816 -1.1597
22270SOL    HW270216   7.109   4.650   4.869  0.4928 -0.5493  0.4409
22271SOL     OW70217   6.433   0.704   1.725  0.4833 -0.0952  0.0257
22271SOL    HW170218   6.514   0.753   1.711  0.5411  0.4168  2.0192
22271SOL    HW270219   6.374   0.768   1.765 -0.8129 -0.5542 -1.1175
22272SOL     OW70220   2.426   8.464   5.859  0.5048  0.1135 -0.7574
22272SOL    HW170221   2.393   8.391   5.806 -0.8800  0.7663 -0.8035
22272SOL    HW270222   2.350   8.520   5.874  1.2465  0.8171  0.5014
22273SOL     OW70223   6.723   8.111   5.460  0.8214 -0.1681 -0.1517
22273SOL    HW170224   6.681   8.029   5.436  0.3158  0.6563 -2.1805
22273SOL    HW270225   6.803   8.085   5.505 -0.2780 -1.7500  0.9290
22274SOL     OW70226   7.861   7.261   4.495  0.0998 -0.2924 -0.4418
22274SOL    HW170227   7.817   7.209   4.562  1.7576 -1.6649 -0.3904
22274SOL    HW270228   7.953   7.261   4.521  0.2800  1.9491 -0.9340
22275SOL     OW70229   1.654  10.312   9.031  0.5303  0.4668  0.3740
22275SOL    HW170230   1.613  10.290   8.947  1.8687 -2.1112  0.3401
22275SOL    HW270231   1.599  10.268   9.096 -0.0858  1.8631  0.8155
22276SOL     OW70232   0.205   0.896   4.533 -1.2318  0.2783  0.0775
22276SOL    HW170233   0.188   0.923   4.442 -1.0746  0.3067  0.0561
22276SOL    HW270234   0.246   0.973   4.573  0.6368 -0.4418 -0.4028
22277SOL     OW70235   8.430   2.576   7.300  0.0893 -0.7865 -0.3903
22277SOL    HW170236   8.416   2.525   7.380 -1.3098  0.0629 -0.0850
22277SOL    HW270237   8.361   2.548   7.241 -1.1587  1.2442  0.0480
22278SOL     OW70238   4.351   2.555  10.211  0.2448  0.3658  0.1145
22278SOL    HW170239   4.315   2.616  10.146  1.2763  2.2232  1.2191
22278SOL    HW270240   4.334   2.468  10.175 -1.3056  1.3026 -1.4972
22279SOL     OW70241  10.483   1.530   5.236 -0.1642  0.3810 -0.1726
22279SOL    HW170242  10.508   1.470   5.306  1.9355 -0.1744 -1.3568
22279SOL    HW270243  10.485   1.477   5.156 -1.1180  1.3326 -0.8386
22280SOL     OW70244   1.124   7.316   8.407  0.6724 -0.0440  0.2570
22280SOL    HW170245   1.195   7.251   8.410 -1.0444 -2.1507 -2.5856
22280SOL    HW270246   1.049   7.268   8.374 -1.0767  3.0841 -0.5132
22281SOL     OW70247   9.241   1.459   5.440 -0.0553  0.3696 -0.5196
22281SOL    HW170248   9.196   1.478   5.358 -1.1419 -1.6117 -0.4140
22281SOL    HW270249   9.171   1.454   5.505  0.4229 -1.3411 -0.0916
22282SOL     OW70250   9.791   0.885   3.968 -0.2926 -0.3646  0.3132
22282SOL    HW170251   9.886   0.877   3.977 -0.0907 -0.6740 -1.9202
22282SOL    HW270252   9.772   0.975   3.993  0.4396 -0.6181  1.8352
22283SOL     OW70253   1.578   3.576   1.236 -0.3965  0.3461  0.2742
22283SOL    HW170254   1.621   3.647   1.188 -1.3069  0.3998 -0.4947
22283SOL    HW270255   1.546   3.617   1.316  0.5679  0.4062  0.6369
22284SOL     OW70256  10.048   4.058  10.662 -0.5990 -0.1537  0.2023
22284SOL    HW170257  10.062   4.050  10.568 -0.0839 -0.1869  0.2798
22284SOL    HW270258  10.046   3.968  10.694  1.2433 -0.1088  0.5075
22285SOL     OW70259   5.738   5.644   6.039  0.3329  0.9291  0.0953
22285SOL    HW170260   5.738   5.550   6.022 -0.6068  0.8112  0.7546
22285SOL    HW270261   5.649   5.664   6.065  0.5761  1.9789  0.1396
22286SOL     OW70262   0.402   1.305   5.164  0.7055  0.5608 -0.2678
22286SOL    HW170263   0.415   1.390   5.122 -0.9779  1.5228  1.0766
22286SOL    HW270264   0.474   1.251   5.132  1.1979  2.1676 -1.9736
22287SOL     OW70265  10.606   3.192   7.442 -0.1542 -0.0992  0.4712
22287SOL    HW170266  10.550   3.214   7.367 -0.8692 -0.7695  0.8012
22287SOL    HW270267  10.692   3.176   7.403 -0.2341  0.7262 -0.0656
22288SOL     OW70268   6.774   6.918   2.159  0.1344  0.2432  0.1741
22288SOL    HW170269   6.760   6.854   2.089 -0.2988  1.6523 -1.0602
22288SOL    HW270270   6.749   7.002   2.120  1.5655  1.3001  1.4573
22289SOL     OW70271  10.274   5.828   8.661 -0.3327 -0.0938  0.6566
22289SOL    HW170272  10.325   5.852   8.738  0.4179 -1.5573  0.6349
22289SOL    HW270273  10.183   5.833   8.691 -0.1425  1.2061  1.0756
22290SOL     OW70274   2.662   8.646  10.782  0.6279  0.3185  0.2434
22290SOL    HW170275   2.729   8.584  10.812  0.7016  0.6826  0.8472
22290SOL    HW270276   2.639   8.617  10.694  0.3201 -0.8452  0.7055
22291SOL     OW70277   6.644   4.587   9.044  0.2400  0.0472  0.1631
22291SOL    HW170278   6.704   4.586   9.118 -0.8778 -0.1434  1.0672
22291SOL    HW270279   6.581   4.518   9.062 -0.7676  0.8063 -0.3539
22292SOL     OW70280   6.572   6.553   1.580 -0.0531  0.1131 -0.1752
22292SOL    HW170281   6.590   6.636   1.624 -1.1066  0.4951 -0.4444
22292SOL    HW270282   6.621   6.488   1.629 -1.4023  0.4882  1.7248
22293SOL     OW70283   3.991   0.203   5.219 -0.6397  0.5438 -0.0749
22293SOL    HW170284   4.002   0.226   5.312 -0.7770  0.8233 -0.1265
22293SOL    HW270285   4.012   0.284   5.172 -0.3957  0.3513 -0.2980
22294SOL     OW70286   0.813   9.444   8.442  0.0483  0.2207  0.5331
22294SOL    HW170287   0.806   9.349   8.446 -3.9413  0.4251  0.0883
22294SOL    HW270288   0.877   9.461   8.372 -0.2296 -2.0795 -0.3062
22295SOL     OW70289   9.454  10.559   3.150  0.4688  0.6516 -0.2755
22295SOL    HW170290   9.490  10.614   3.080  1.0341  0.8208  0.1476
22295SOL    HW270291   9.490  10.596   3.231  0.4291 -0.0137  0.0491
22296SOL     OW70292   6.710   4.605   1.722 -0.2765  0.5121 -0.5543
22296SOL    HW170293   6.774   4.670   1.751  1.0904 -0.6181 -1.0336
22296SOL    HW270294   6.696   4.624   1.629  0.7428 -0.3984 -0.8947
22297SOL     OW70295   0.840   4.055   9.055 -0.1740 -0.7606 -0.5616
22297SOL    HW170296   0.918   4.007   9.084 -0.1071 -1.2243 -1.4728
22297SOL    HW270297   0.792   3.991   9.002 -1.2872 -0.5384  0.1742
22298SOL     OW70298   5.411   1.527   6.040  0.5094 -0.6520  0.3213
22298SOL    HW170299   5.427   1.611   5.997  1.7808 -0.7929  0.5146
22298SOL    HW270300   5.442   1.462   5.978 -0.6147 -1.0018  0.1083
22299SOL     OW70301   4.673   3.947   7.436  0.2998  0.4450  0.3739
22299SOL    HW170302   4.761   3.937   7.473  1.0571  0.1517 -1.4691
22299SOL    HW270303   4.679   4.025   7.380  0.3720 -1.5321 -2.4771
22300SOL     OW70304   8.509   5.766   6.657  0.1575 -0.0081 -0.1588
22300SOL    HW170305   8.577   5.698   6.665 -1.6049 -1.9504 -1.1215
22300SOL    HW270306   8.459   5.759   6.738  1.1540  1.5185  0.6104
22301SOL     OW70307   5.697   2.022   3.155  0.2170 -0.9276 -0.2455
22301SOL    HW170308   5.748   2.015   3.236  0.7925 -0.7327 -0.5939
22301SOL    HW270309   5.752   2.073   3.096 -1.3010  1.2634  0.1443
22302SOL     OW70310   9.904   4.964   8.700 -0.1564  0.0223 -0.4368
22302SOL    HW170311   9.967   5.035   8.708 -0.8194  0.6253 -0.5295
22302SOL    HW270312   9.828   4.993   8.751 -0.6104 -0.4065 -0.8612
22303SOL     OW70313   8.447   3.021   4.035 -0.3069  0.1897  0.3521
22303SOL    HW170314   8.368   3.067   4.063  0.8370  1.7227  1.1468
22303SOL    HW270315   8.481   2.982   4.115 -0.3299 -0.5886 -0.0165
22304SOL     OW70316   9.164   9.345   6.000 -0.1053  0.2337  0.6901
22304SOL    HW170317   9.159   9.440   5.987 -0.2860  0.1372  0.0723
22304SOL    HW270318   9.257   9.325   6.000  0.0056  0.6521  2.5415
22305SOL     OW70319   1.032   3.695   8.133  0.1459 -1.0156  0.6577
22305SOL    HW170320   1.074   3.778   8.108  0.4010 -0.7976  1.7600
22305SOL    HW270321   1.035   3.642   8.054  0.3097 -0.1011  0.0350
22306SOL     OW70322   2.227   5.475   2.953  0.1947 -0.1600 -0.1281
22306SOL    HW170323   2.153   5.441   2.902 -0.1832 -0.1239  0.3902
22306SOL    HW270324   2.292   5.501   2.887 -0.2357 -0.2325 -0.5853
22307SOL     OW70325   0.158   8.690   5.134  0.4212 -0.2646 -0.1334
22307SOL    HW170326   0.122   8.730   5.213 -0.5686 -1.2436 -0.0741
22307SOL    HW270327   0.187   8.764   5.081 -0.5322  0.4897  0.3749
22308SOL     OW70328   8.189   2.404   1.081  0.2364 -0.1083  0.1989
22308SOL    HW170329   8.248   2.329   1.080  0.5277  0.0834  1.8385
22308SOL    HW270330   8.136   2.393   1.160 -1.7714 -0.1365 -1.0998
22309SOL     OW70331   4.883   0.402   4.110  0.3319 -0.0997  0.3451
22309SOL    HW170332   4.963   0.454   4.112  0.0327  0.3381  0.9939
22309SOL    HW270333   4.889   0.351   4.029  0.4486  1.2264 -0.4954
22310SOL     OW70334   2.762  10.843   5.117 -0.5317 -0.1262  0.8172
22310SOL    HW170335   2.841  10.823   5.167 -0.7199 -0.9489  0.7897
22310SOL    HW270336   2.759  10.939   5.115  0.4217 -0.0897  0.8765
22311SOL     OW70337   0.229  10.609   3.159 -1.0406 -0.3642  0.1067
22311SOL    HW170338   0.208  10.702   3.152 -1.1560 -0.5139 -1.7817
22311SOL    HW270339   0.183  10.580   3.238  3.0403  2.2473  3.7212
22312SOL     OW70340   2.015   3.823   9.364 -0.1943  0.4251 -0.1110
22312SOL    HW170341   2.087   3.835   9.426  1.4757  0.5290 -2.0114
22312SOL    HW270342   2.043   3.750   9.309 -1.8739  0.0150 -0.4590
22313SOL     OW70343   6.263   2.451   0.133 -0.5513  0.0618  0.4473
22313SOL    HW170344   6.271   2.358   0.157 -0.4527  0.1868  0.8895
22313SOL    HW270345   6.226   2.493   0.210 -0.5833  0.3957  0.2501
22314SOL     OW70346   1.941   8.028   1.878  0.2326 -0.2305 -0.1711
22314SOL    HW170347   1.876   8.042   1.947  1.4724  2.0238  0.5906
22314SOL    HW270348   2.008   7.974   1.918  1.1204  1.3577  0.5515
22315SOL     OW70349   7.367   8.564  10.652 -0.5681  0.0859  0.5466
22315SOL    HW170350   7.332   8.481  10.685 -1.0576 -0.1648 -0.5653
22315SOL    HW270351   7.445   8.580  10.705 -0.7981 -0.7867  1.1646
22316SOL     OW70352  10.274   8.218   6.115 -0.1007  0.2142  0.5727
22316SOL    HW170353  10.315   8.152   6.171 -1.5477 -1.4770 -0.3564
22316SOL    HW270354  10.184   8.224   6.146 -0.1410  1.3700  0.2800
22317SOL     OW70355   1.558   0.322  10.326 -0.0152 -1.0902 -0.2347
22317SOL    HW170356   1.614   0.313  10.249  0.1786  2.1028 -0.5310
22317SOL    HW270357   1.619   0.340  10.398 -0.4467 -0.0142 -0.1193
22318SOL     OW70358   9.321   8.504   0.734 -0.1647  0.2326  0.0785
22318SOL    HW170359   9.236   8.503   0.691 -0.1255  1.6079 -0.0722
22318SOL    HW270360   9.336   8.414   0.761 -1.2079 -0.2102 -0.8007
22319SOL     OW70361   8.175   9.690   2.528  0.0216  0.3311 -0.0238
22319SOL    HW170362   8.233   9.752   2.484  0.0443  0.7943  0.6580
22319SOL    HW270363   8.206   9.687   2.618 -3.0415  3.0887  1.2045
22320SOL     OW70364   6.427   7.925   4.817 -0.1959 -0.1739 -0.0234
22320SOL    HW170365   6.367   7.887   4.882  0.5567 -0.0799  0.7402
22320SOL    HW270366   6.380   8.000   4.783 -0.8548 -0.5886 -0.0315
22321SOL     OW70367   1.663  10.150   5.747 -0.0342  0.3241 -0.4686
22321SOL    HW170368   1.644  10.238   5.779  0.9906  0.4827 -0.2850
22321SOL    HW270369   1.675  10.161   5.653  0.6965  0.4845 -0.3586
22322SOL     OW70370   0.339   7.548   4.405  0.4120 -0.3969 -0.2951
22322SOL    HW170371   0.401   7.612   4.439  1.5640 -1.0502 -1.1274
22322SOL    HW270372   0.266   7.600   4.372  0.1940  0.3460  1.3256
22323SOL     OW70373   1.410   7.569   9.034  0.1760  0.4065 -0.0039
22323SOL    HW170374   1.471   7.503   9.002 -0.7205 -0.4176 -0.0169
22323SOL    HW270375   1.366   7.601   8.955 -0.1535  0.2493  0.1148
22324SOL     OW70376   4.720   6.716   6.291  0.9209  0.1345  0.3877
22324SOL    HW170377   4.773   6.795   6.281 -0.0245  0.4861 -2.3503
22324SOL    HW270378   4.630   6.746   6.277  0.3545 -1.0991  1.3050
22325SOL     OW70379   6.247   5.885   5.200  0.0191  0.2196 -0.0948
22325SOL    HW170380   6.169   5.844   5.163  2.8458 -2.3516 -3.6037
22325SOL    HW270381   6.262   5.963   5.147  0.0746  0.5032  0.3283
22326SOL     OW70382   5.547   6.664   3.756 -0.0420  0.4392 -0.2647
22326SOL    HW170383   5.606   6.735   3.783  0.8215 -0.2758 -0.2309
22326SOL    HW270384   5.472   6.708   3.717  1.0473  1.3495 -1.3706
22327SOL     OW70385   1.061   7.514  10.336 -0.2454 -0.2180 -0.4173
22327SOL    HW170386   1.033   7.449  10.271  1.9488  0.2284 -1.8993
22327SOL    HW270387   1.067   7.466  10.418 -2.1246 -1.0282 -0.7384
22328SOL     OW70388   0.659   6.391   3.885 -0.1310  0.2253  0.3265
22328SOL    HW170389   0.750   6.418   3.901  0.3691 -1.2152 -0.0354
22328SOL    HW270390   0.644   6.319   3.946 -0.0521 -1.5245 -1.6685
22329SOL     OW70391   2.738   3.399  10.081 -0.3935  0.1718  0.3645
22329SOL    HW170392   2.802   3.395  10.010 -1.1777 -2.7252 -0.2836
22329SOL    HW270393   2.661   3.355  10.045 -1.3522  0.0511  2.4844
22330SOL     OW70394   6.288   1.947   5.425  0.4584 -0.1448  0.2886
22330SOL    HW170395   6.242   1.894   5.490  0.6517  0.4784  0.9363
22330SOL    HW270396   6.306   1.886   5.354 -0.6097 -0.6034  0.3904
22331SOL     OW70397   3.617   1.952   7.385 -0.1963  0.3550  0.4569
22331SOL    HW170398   3.579   1.960   7.298 -1.1461 -0.0245  0.8181
22331SOL    HW270399   3.692   1.894   7.374 -0.5971 -0.0821 -0.0374
22332SOL     OW70400   0.689   0.735   7.809  0.1930  0.1399 -0.5969
22332SOL    HW170401   0.782   0.737   7.829 -0.3365 -0.9449  2.2168
22332SOL    HW270402   0.664   0.643   7.819 -0.9239  0.1827 -2.6523
22333SOL     OW70403   3.446   2.051   5.147 -0.1114  0.1334 -0.2628
22333SOL    HW170404   3.462   2.119   5.082 -0.0418  0.8405  0.4916
22333SOL    HW270405   3.468   1.969   5.102  2.0392  0.7719 -0.4615
22334SOL     OW70406   7.372   2.323   7.023 -1.3422  0.4259  0.2210
22334SOL    HW170407   7.314   2.400   7.029 -2.9149 -0.6730 -0.4777
22334SOL    HW270408   7.313   2.249   7.036 -0.3020 -0.7963 -1.8638
22335SOL     OW70409   8.287   1.900  10.045  0.0502  0.9802  0.5647
22335SOL    HW170410   8.275   1.901  10.140 -0.1718  0.9312  0.5376
22335SOL    HW270411   8.224   1.835  10.014 -0.4312  1.5666  0.3064
22336SOL     OW70412   0.859   6.612   6.777 -0.4505  0.2859 -0.4569
22336SOL    HW170413   0.949   6.644   6.778 -0.1794 -0.3829 -1.9410
22336SOL    HW270414   0.865   6.523   6.812 -0.5617  0.3263 -0.3384
22337SOL     OW70415   8.929   3.269   9.344  0.0002 -0.2270  0.2144
22337SOL    HW170416   9.003   3.247   9.402  0.2549  0.7046  0.2621
22337SOL    HW270417   8.940   3.212   9.268  0.9197  0.0891  0.1044
22338SOL     OW70418   2.494   5.982   6.342 -0.0500  0.0091  0.2990
22338SOL    HW170419   2.416   5.926   6.339 -0.8931  1.1315  0.9327
22338SOL    HW270420   2.487   6.029   6.426  0.6392  1.0682 -0.2285
22339SOL     OW70421   9.089   7.416  10.427  0.8308  0.0385  0.3241
22339SOL    HW170422   9.159   7.357  10.456  0.4539 -0.4836  0.1730
22339SOL    HW270423   9.014   7.394  10.483  0.6893  0.3664  0.2632
22340SOL     OW70424   8.912   5.112   7.653 -0.4973  0.1455  0.4274
22340SOL    HW170425   8.878   5.040   7.706  0.7528 -1.4270 -0.8434
22340SOL    HW270426   9.005   5.092   7.644  0.1718  2.7609  1.3275
22341SOL     OW70427   9.404   3.728   9.480  0.0388 -0.3950  0.6215
22341SOL    HW170428   9.485   3.779   9.481  0.3957 -0.9610  3.0899
22341SOL    HW270429   9.428   3.647   9.434  0.1416  0.5496 -1.0265
22342SOL     OW70430   7.461   8.688   0.303  0.0966 -0.4097 -0.4311
22342SOL    HW170431   7.530   8.754   0.304  0.3505 -0.6748 -0.1870
22342SOL    HW270432   7.506   8.607   0.327 -0.1853 -0.6970 -0.8580
22343SOL     OW70433   8.710   6.697   7.976  0.1241  0.2051 -0.7547
22343SOL    HW170434   8.694   6.639   7.902 -0.7686 -1.0077  0.3696
22343SOL    HW270435   8.657   6.775   7.958 -1.4267 -0.7883 -0.5722
22344SOL     OW70436   0.817   3.100   7.670  0.0631 -0.3844  0.2777
22344SOL    HW170437   0.797   3.113   7.577  1.1215 -0.0128  0.0889
22344SOL    HW270438   0.744   3.141   7.716 -0.8510 -1.2499 -0.3932
22345SOL     OW70439   2.486   1.615   2.460 -0.1161  0.2695  0.1708
22345SOL    HW170440   2.469   1.709   2.472  0.7754  0.4979 -0.3307
22345SOL    HW270441   2.404   1.573   2.485 -0.8522  1.2551 -0.5535
22346SOL     OW70442   2.708   0.673   7.586  0.1102 -0.0053  0.3591
22346SOL    HW170443   2.756   0.753   7.606 -0.2187  0.2277  0.2104
22346SOL    HW270444   2.646   0.663   7.657 -0.4479  0.3429 -0.0782
22347SOL     OW70445   6.005   8.371   8.139  0.7103 -0.1092 -0.3980
22347SOL    HW170446   5.993   8.414   8.224  0.1925 -0.7198 -0.1495
22347SOL    HW270447   6.096   8.388   8.116  0.7293  0.4416  0.0707
22348SOL     OW70448   5.090   2.179   3.600 -0.1568 -0.3288 -0.0076
22348SOL    HW170449   5.125   2.176   3.689  0.9385 -2.3549 -0.4727
22348SOL    HW270450   5.164   2.154   3.544 -0.2846  2.7329 -1.6856
22349SOL     OW70451   0.888  10.045   8.632 -0.2710 -0.1399  0.1067
22349SOL    HW170452   0.816   9.984   8.617 -0.2099 -0.2471  0.2555
22349SOL    HW270453   0.880  10.070   8.725 -1.0171  0.9993 -0.2439
22350SOL     OW70454   0.239   6.623   8.779  0.3537 -0.5137 -0.1899
22350SOL    HW170455   0.260   6.659   8.865 -0.4812  1.2361 -0.7009
22350SOL    HW270456   0.325   6.599   8.742  0.8554  0.3017  0.4348
22351SOL     OW70457   2.057   7.031   4.773  0.7205  0.3299 -0.2867
22351SOL    HW170458   2.136   7.086   4.774 -1.7200  4.1025 -1.0392
22351SOL    HW270459   2.023   7.040   4.684 -0.3826 -1.5258 -0.0799
22352SOL     OW70460   3.031   9.985   0.199  0.4943 -0.6163  0.2703
22352SOL    HW170461   3.090  10.018   0.267  0.4862  0.9345 -0.4679
22352SOL    HW270462   2.997   9.903   0.235 -0.0769  0.5468  2.4367
22353SOL     OW70463   3.808   2.431   8.080 -0.3921  0.3441  0.3053
22353SOL    HW170464   3.721   2.438   8.039 -0.9068  1.2475  1.5295
22353SOL    HW270465   3.869   2.453   8.010 -1.2436  1.3916 -0.1173
22354SOL     OW70466   4.137   6.504   8.667 -0.3027 -0.0573 -0.1067
22354SOL    HW170467   4.058   6.490   8.719  0.3075  2.4790  1.5755
22354SOL    HW270468   4.191   6.427   8.686 -0.8519 -0.0356  1.5873
22355SOL     OW70469  10.595   6.190   9.132  0.3550  0.6250 -0.6899
22355SOL    HW170470  10.521   6.213   9.187  0.4964 -2.6814  1.0250
22355SOL    HW270471  10.556   6.147   9.056  0.4537 -1.9150  0.6263
22356SOL     OW70472   2.360  10.144   5.113  0.3938 -0.6411  0.1290
22356SOL    HW170473   2.279  10.195   5.106  0.2872 -0.9782 -1.1607
22356SOL    HW270474   2.419  10.182   5.049  1.3169 -0.3279  1.1388
22357SOL     OW70475   6.065   7.837   5.216 -0.6192  0.6870  0.3878
22357SOL    HW170476   5.980   7.879   5.203 -1.2478 -0.8741 -0.6653
22357SOL    HW270477   6.049   7.769   5.282 -0.0965  0.6567  0.4905
22358SOL     OW70478   3.698   3.252  10.444  0.7203  0.0609  0.2021
22358SOL    HW170479   3.626   3.315  10.435  0.4769 -0.2009  0.3133
22358SOL    HW270480   3.664   3.184  10.502 -0.0290 -1.6542 -2.1667
22359SOL     OW70481   7.415   5.418   3.648  0.2566 -0.1457  0.2705
22359SOL    HW170482   7.374   5.334   3.670 -2.4642  0.3930 -2.3255
22359SOL    HW270483   7.355   5.458   3.585  3.2677  2.1779 -1.2805
22360SOL     OW70484   7.762   8.252  10.179 -0.8563 -0.5090  0.1502
22360SOL    HW170485   7.686   8.254  10.238 -0.7941  0.0208  0.2171
22360SOL    HW270486   7.787   8.160  10.175 -1.1829 -0.6156  0.5438
22361SOL     OW70487   6.885   0.438   2.511  0.0194 -0.1786 -0.1078
22361SOL    HW170488   6.916   0.386   2.585  0.1346  0.1847  0.1037
22361SOL    HW270489   6.792   0.452   2.529 -0.2259 -1.0861 -0.6326
22362SOL     OW70490   4.992   5.302   8.999 -0.0985 -0.0747  0.0661
22362SOL    HW170491   4.991   5.298   8.904  0.4895  0.3435  0.0466
22362SOL    HW270492   5.025   5.216   9.026 -0.1917 -0.1649 -0.1068
22363SOL     OW70493   7.379  10.177   0.614 -0.6868 -0.5088 -0.3387
22363SOL    HW170494   7.463  10.223   0.623  0.0345 -2.0728  1.1825
22363SOL    HW270495   7.319  10.223   0.671 -0.3832 -0.4794 -0.0446
22364SOL     OW70496   0.435   0.277   9.130  0.2135  0.1877  0.6154
22364SOL    HW170497   0.390   0.351   9.170 -0.4297  0.1344  0.0162
22364SOL    HW270498   0.524   0.308   9.115  0.2258  0.4913  1.2987
22365SOL     OW70499  10.144  10.135  10.643 -0.3780  0.1366 -0.1899
22365SOL    HW170500  10.085  10.062  10.659 -0.6996  0.1385 -1.3680
22365SOL    HW270501  10.176  10.122  10.554  0.9155  0.4841  0.2026
22366SOL     OW70502   2.636   3.680  10.939 -0.2785  0.1985 -0.2703
22366SOL    HW170503   2.649   3.642  10.852 -0.8978 -0.2718 -0.1705
22366SOL    HW270504   2.605   3.606  10.992 -0.3856  0.5935  0.2191
22367SOL     OW70505   6.566   5.275   9.125 -0.2750 -0.6350  0.4080
22367SOL    HW170506   6.488   5.299   9.074  0.2514  0.8632  0.2762
22367SOL    HW270507   6.638   5.278   9.061  0.5902  2.4934  1.4590
22368SOL     OW70508   5.483   9.066   5.924 -0.2229  0.0687 -0.3758
22368SOL    HW170509   5.490   9.116   6.005 -0.2064  0.2992 -0.5185
22368SOL    HW270510   5.539   8.989   5.938 -1.2981 -0.5860  0.3492
22369SOL     OW70511   4.584   2.734   9.094  0.2582  0.1934 -0.3217
22369SOL    HW170512   4.549   2.721   9.182 -2.5753  0.2112 -1.3709
22369SOL    HW270513   4.661   2.678   9.089  1.1890  1.1428  2.5660
22370SOL     OW70514   4.021   5.348   1.605 -0.1104 -0.1634  0.3945
22370SOL    HW170515   4.035   5.355   1.699 -1.1046 -0.8321  0.6025
22370SOL    HW270516   4.038   5.436   1.572 -0.1847  0.1819  1.2578
22371SOL     OW70517   6.161   5.460   3.775 -0.3846 -0.2383  0.0740
22371SOL    HW170518   6.079   5.450   3.824  0.5999  1.9638  2.3227
22371SOL    HW270519   6.172   5.555   3.767  3.4637 -0.3802  2.5256
22372SOL     OW70520   6.455   0.344   0.733  0.3251  0.7720 -0.2693
22372SOL    HW170521   6.509   0.346   0.654  1.5000 -2.0867  0.4212
22372SOL    HW270522   6.388   0.279   0.715  0.1347  0.6731  0.7883
22373SOL     OW70523   6.769   3.667   3.317  0.2214  0.5287  0.0826
22373SOL    HW170524   6.850   3.654   3.367  0.3722 -0.9214 -0.5283
22373SOL    HW270525   6.704   3.614   3.364  0.6377 -1.8460 -1.9160
22374SOL     OW70526   8.369   7.204   5.687  0.2445  0.0747  0.8887
22374SOL    HW170527   8.442   7.200   5.626 -0.8245  0.8876 -0.4895
22374SOL    HW270528   8.371   7.294   5.722 -0.9231  0.5795 -0.2623
22375SOL     OW70529   7.115   1.006   6.322 -0.6112 -0.4107 -0.4634
22375SOL    HW170530   7.034   0.982   6.367  0.0556 -2.1709 -0.1377
22375SOL    HW270531   7.183   0.993   6.388  0.0775 -0.3034 -1.1427
22376SOL     OW70532   2.099   1.522   3.202  0.3861 -0.3929 -0.3764
22376SOL    HW170533   2.187   1.556   3.215  0.5722 -1.0797  0.1763
22376SOL    HW270534   2.083   1.531   3.108  1.1492 -0.5436 -0.5220
22377SOL     OW70535   0.195   2.959  10.682 -0.6039  1.0148  0.0640
22377SOL    HW170536   0.222   2.868  10.692  1.3710  1.4384 -1.1572
22377SOL    HW270537   0.221   3.001  10.763 -0.0321  0.8362 -0.0235
22378SOL     OW70538  10.862   6.345   5.240 -0.3316  0.3711  0.3396
22378SOL    HW170539  10.775   6.314   5.214 -0.1598  0.2490 -0.0851
22378SOL    HW270540  10.852   6.368   5.333 -1.1825  1.6821 -0.0492
22379SOL     OW70541   0.013   7.669   9.384  0.6520  0.6560 -0.0281
22379SOL    HW170542   0.080   7.647   9.320  2.3635 -1.9481  2.5209
22379SOL    HW270543   0.038   7.756   9.417  1.4111  0.7244 -0.7945
22380SOL     OW70544   0.875   6.682   4.311  0.0757  0.1999 -0.1326
22380SOL    HW170545   0.884   6.774   4.337  0.7538  0.1181 -0.0799
22380SOL    HW270546   0.930   6.673   4.234  0.7955 -0.3994  0.4455
22381SOL     OW70547   6.146   7.120   7.214 -0.0910  0.5782 -0.0624
22381SOL    HW170548   6.196   7.152   7.289 -1.0716  0.8882  0.4605
22381SOL    HW270549   6.057   7.153   7.228 -0.4608 -0.0178 -0.9614
22382SOL     OW70550   8.165   5.558   6.626  0.4289 -0.2949 -0.1879
22382SOL    HW170551   8.214   5.528   6.549 -0.1949 -1.7640 -0.0313
22382SOL    HW270552   8.076   5.572   6.593  0.3556 -0.1355  0.0816
22383SOL     OW70553   3.137   3.064   4.304 -0.0315  0.0772  0.2347
22383SOL    HW170554   3.195   3.044   4.231 -0.6933 -1.4075  0.0848
22383SOL    HW270555   3.049   3.061   4.266 -0.3154  0.3117  0.8679
22384SOL     OW70556   0.417   8.678   4.985 -0.2637  0.4616  0.3457
22384SOL    HW170557   0.501   8.667   5.030 -0.4292  1.9091  1.0056
22384SOL    HW270558   0.351   8.664   5.053 -0.6414 -2.5150 -0.5403
22385SOL     OW70559   8.495   9.846   6.516  0.1989 -0.1371 -0.4230
22385SOL    HW170560   8.552   9.853   6.592  1.5518 -1.0554 -1.3158
22385SOL    HW270561   8.468   9.754   6.515 -1.8652  0.4190  0.3569
22386SOL     OW70562   7.587   2.499   3.032  0.1430 -0.8062 -0.0574
22386SOL    HW170563   7.573   2.579   3.083  0.7757  0.7633 -2.2616
22386SOL    HW270564   7.499   2.475   3.001  0.1475 -0.1237 -0.6058
22387SOL     OW70565   0.811   9.265   5.362  0.7618 -0.1123  0.1142
22387SOL    HW170566   0.750   9.286   5.292 -1.1700 -0.2463  1.7113
22387SOL    HW270567   0.884   9.223   5.318 -1.3878 -2.1861 -1.6224
22388SOL     OW70568  10.671   9.417   8.771 -0.4659 -0.6646  0.3711
22388SOL    HW170569  10.591   9.453   8.808  0.3395  0.5887  0.9142
22388SOL    HW270570  10.648   9.396   8.680 -0.7403  1.9931 -0.2029
22389SOL     OW70571   2.269   5.175   4.680 -0.0076 -0.4583  0.0105
22389SOL    HW170572   2.345   5.145   4.730 -0.5472 -1.4540  0.2430
22389SOL    HW270573   2.233   5.247   4.732 -0.1516 -1.0282  0.7133
22390SOL     OW70574   0.594   0.855   5.632  0.0082 -0.2622  0.3365
22390SOL    HW170575   0.687   0.846   5.610  0.0572  1.4027 -0.2177
22390SOL    HW270576   0.549   0.852   5.548 -0.4498 -0.9390  0.5965
22391SOL     OW70577   5.981   6.890   2.260 -0.0123 -0.2872  0.0509
22391SOL    HW170578   6.072   6.919   2.271 -0.6328  0.7598  2.8287
22391SOL    HW270579   5.929   6.969   2.273 -1.3941 -1.1773  0.0480
22392SOL     OW70580   2.447   7.046   4.755 -0.0812  0.2599  0.0222
22392SOL    HW170581   2.375   7.107   4.741  0.0472  0.3089 -0.4007
22392SOL    HW270582   2.483   7.071   4.840 -2.3108 -1.4879  1.5727
22393SOL     OW70583   6.835   7.738   7.624  0.0994 -0.2621 -1.0698
22393SOL    HW170584   6.823   7.687   7.705  1.4356  1.3067  0.1469
22393SOL    HW270585   6.771   7.701   7.563 -1.2381 -1.1809  0.8388
22394SOL     OW70586   1.336   8.758   6.112  0.2740  0.1893 -0.2173
22394SOL    HW170587   1.245   8.761   6.143  1.1124 -0.1517  2.4387
22394SOL    HW270588   1.370   8.676   6.149  2.2158  1.2840  0.4630
22395SOL     OW70589  10.512   5.471   5.597 -0.2290  0.0011 -0.1319
22395SOL    HW170590  10.470   5.445   5.515 -0.7498  1.0243 -0.2012
22395SOL    HW270591  10.448   5.448   5.665  0.0968 -0.6138 -0.0324
22396SOL     OW70592   8.441  10.173   0.779  0.0946  0.2889 -0.0984
22396SOL    HW170593   8.400  10.102   0.729  1.0903 -0.1470 -0.3032
22396SOL    HW270594   8.367  10.224   0.813 -0.6152  1.7688 -3.6451
22397SOL     OW70595  10.007   5.311   7.296  0.2683 -0.0548 -0.7310
22397SOL    HW170596   9.940   5.349   7.352  0.5355 -1.8294  0.8477
22397SOL    HW270597   9.959   5.273   7.223 -0.3671 -0.4434 -0.1166
22398SOL     OW70598   0.054   6.563   5.426  0.5955 -0.1262  0.0828
22398SOL    HW170599  -0.039   6.571   5.446  0.5232 -0.1710 -0.2352
22398SOL    HW270600   0.074   6.640   5.372  0.3312 -1.0695 -1.3916
22399SOL     OW70601   5.205   3.353   0.480 -0.3139 -0.3787  0.6733
22399SOL    HW170602   5.287   3.306   0.465 -0.4728 -1.0913  1.9893
22399SOL    HW270603   5.138   3.294   0.446 -0.3727 -0.3124  0.6754
22400SOL     OW70604  10.366   8.281   7.374  0.1418 -0.3608  0.3842
22400SOL    HW170605  10.422   8.281   7.297 -1.3429  0.9209 -0.7269
22400SOL    HW270606  10.426   8.289   7.448  1.4235  0.9605 -0.7728
22401SOL     OW70607   9.979   6.597  10.900 -0.1966  0.2033 -0.5245
22401SOL    HW170608  10.062   6.643  10.905 -0.3657  0.7480 -2.4298
22401SOL    HW270609   9.994   6.514  10.946  1.0953  0.7042 -0.0392
22402SOL     OW70610   9.860   8.669   0.908  0.2727  0.3362  0.3316
22402SOL    HW170611   9.822   8.756   0.901  1.5541  0.8091 -1.0086
22402SOL    HW270612   9.819   8.619   0.837 -0.2246 -0.0694  0.8978
22403SOL     OW70613   3.121   7.150   4.796  0.1176 -0.0199  0.4819
22403SOL    HW170614   3.040   7.162   4.746  0.6575  2.4472  0.1399
22403SOL    HW270615   3.133   7.233   4.842  2.7504 -0.1543  0.0705
22404SOL     OW70616  10.062   8.475   7.956  0.0335 -0.1569  0.7217
22404SOL    HW170617  10.035   8.510   8.041 -0.7587 -1.0152  0.8278
22404SOL    HW270618  10.157   8.462   7.964 -0.1021 -0.5872  1.5966
22405SOL     OW70619   0.468   8.849   5.309 -0.2772 -0.0888  0.1094
22405SOL    HW170620   0.472   8.942   5.284  0.9288 -0.5669 -1.5747
22405SOL    HW270621   0.521   8.804   5.243  0.7907 -1.7474  2.0105
22406SOL     OW70622   5.541   6.694   7.444  0.7716 -0.0085  0.2083
22406SOL    HW170623   5.483   6.731   7.377  0.8616 -3.2231 -1.7809
22406SOL    HW270624   5.615   6.660   7.395  2.2831  0.1635  2.3023
22407SOL     OW70625  10.707   3.553   6.353 -0.1023  0.0431  0.1941
22407SOL    HW170626  10.670   3.555   6.264 -0.2320 -1.0823  0.2182
22407SOL    HW270627  10.660   3.483   6.397  0.8308 -0.2297  0.7745
22408SOL     OW70628   0.597   1.309  10.348  0.5201  0.4630  0.1643
22408SOL    HW170629   0.536   1.380  10.327 -0.6236 -0.0854  1.5067
22408SOL    HW270630   0.572   1.282  10.437  2.1593 -0.3717  0.3909
22409SOL     OW70631   1.465   2.808   4.115 -0.2235  0.6519  0.6882
22409SOL    HW170632   1.457   2.845   4.027  1.6288  1.8743  1.0011
22409SOL    HW270633   1.434   2.877   4.173  0.6294  0.6728  1.1230
22410SOL     OW70634   4.702  10.675   4.680 -0.0517  0.1307 -0.9536
22410SOL    HW170635   4.752  10.754   4.702 -1.2195  0.3959  0.8880
22410SOL    HW270636   4.611  10.705   4.676 -0.5929 -1.2582  0.5519
22411SOL     OW70637   8.083   0.581   8.037  0.1900 -0.2008  0.7362
22411SOL    HW170638   8.058   0.571   7.945  3.1580  0.0425 -0.1588
22411SOL    HW270639   8.109   0.673   8.045 -0.3787 -0.1316  1.9276
22412SOL     OW70640   7.903   6.799   9.488 -0.0724  0.0781 -0.6430
22412SOL    HW170641   7.994   6.825   9.474  0.1365  0.0138  0.5542
22412SOL    HW270642   7.865   6.871   9.539 -0.2592 -0.6089  0.2065
22413SOL     OW70643   9.552   9.576   0.720 -0.4364 -0.1161  0.5713
22413SOL    HW170644   9.478   9.557   0.778 -1.8185 -0.1481 -1.1739
22413SOL    HW270645   9.556   9.672   0.717  1.0669 -0.0760  2.4629
22414SOL     OW70646   8.607   9.915   4.635  0.3681 -0.7924  0.8200
22414SOL    HW170647   8.622   9.825   4.607  1.1235 -1.2377  2.6091
22414SOL    HW270648   8.682   9.936   4.690 -0.9759  0.1075  2.3550
22415SOL     OW70649   9.938   5.026   6.055  0.1423  0.4612 -0.5462
22415SOL    HW170650   9.926   5.114   6.021 -0.3802  0.3556 -0.6448
22415SOL    HW270651   9.927   5.035   6.149 -2.6837  0.0677 -0.7746
22416SOL     OW70652   4.574   5.823   3.724 -0.3823 -0.0645 -0.1047
22416SOL    HW170653   4.605   5.760   3.659  0.9740 -0.0369  0.5012
22416SOL    HW270654   4.517   5.773   3.782 -0.7091 -0.3343 -0.6572
22417SOL     OW70655   3.639   4.326   4.747 -0.2660  0.3159 -0.0225
22417SOL    HW170656   3.622   4.411   4.707  0.3099  0.3851 -0.1147
22417SOL    HW270657   3.595   4.263   4.689 -2.6979  0.7263  1.2931
22418SOL     OW70658  10.115   2.990   2.128  0.0086  0.0007  0.2981
22418SOL    HW170659  10.118   2.948   2.042  2.5233  1.0631 -0.1887
22418SOL    HW270660  10.205   2.984   2.160 -0.7120  0.4522  2.4532
22419SOL     OW70661   4.781   5.213   7.940 -0.4633 -0.2648  0.3839
22419SOL    HW170662   4.807   5.292   7.987 -1.8964  0.3914  0.0885
22419SOL    HW270663   4.855   5.195   7.881  0.9745 -0.5989  2.2172
22420SOL     OW70664   1.313  10.496   2.743 -0.1357 -0.2414 -0.0726
22420SOL    HW170665   1.336  10.445   2.821 -0.6253  2.1812  1.6991
22420SOL    HW270666   1.221  10.474   2.726 -0.5563  0.5783  1.1112
22421SOL     OW70667   8.080   6.695   8.354 -0.0167 -0.2065  0.2883
22421SOL    HW170668   8.078   6.790   8.339 -0.3289 -0.3895 -0.8656
22421SOL    HW270669   8.162   6.680   8.401  0.3474  0.5624 -0.0920
22422SOL     OW70670   2.750   6.675   0.078 -0.1754 -0.0164  0.0287
22422SOL    HW170671   2.803   6.646   0.153 -1.2441 -0.2053  0.7227
22422SOL    HW270672   2.705   6.596   0.048 -0.2785  0.1939 -0.3762
22423SOL     OW70673   0.902  10.222   2.901 -0.5811 -0.7375 -0.4905
22423SOL    HW170674   0.894  10.204   2.994  0.2872 -2.5732 -0.7443
22423SOL    HW270675   0.830  10.282   2.881 -1.4118 -1.1787  1.1429
22424SOL     OW70676   0.566   3.905   9.482 -0.3794  0.0663 -0.1941
22424SOL    HW170677   0.490   3.928   9.428 -0.9458  0.3079  0.6935
22424SOL    HW270678   0.640   3.944   9.437 -1.0656  1.8281  0.1357
22425SOL     OW70679   8.146   2.357   8.946 -0.3856  0.4777 -0.0802
22425SOL    HW170680   8.164   2.313   9.030 -2.3283  0.3210  0.2762
22425SOL    HW270681   8.161   2.289   8.880  1.8411  0.7945  0.0635
22426SOL     OW70682   2.143   6.818   8.310 -0.0253 -0.1370  0.2554
22426SOL    HW170683   2.152   6.869   8.391  0.0868  1.5104 -0.7845
22426SOL    HW270684   2.049   6.819   8.292 -0.0924 -0.8153  0.5506
22427SOL     OW70685  10.247   7.051   7.818 -0.6454  0.2569  0.3799
22427SOL    HW170686  10.235   7.134   7.864  0.4767  0.8215 -0.3100
22427SOL    HW270687  10.260   7.075   7.726  4.1477 -0.2508  0.7534
22428SOL     OW70688  10.347   1.222   9.709 -0.7873  0.5156  0.9124
22428SOL    HW170689  10.271   1.204   9.765 -2.9971  1.4149 -1.6611
22428SOL    HW270690  10.334   1.312   9.680  0.3976  0.1276 -0.8892
22429SOL     OW70691   8.521  10.626   3.583  0.3810 -0.2267  0.0668
22429SOL    HW170692   8.515  10.650   3.490 -2.0252 -0.2192  0.1901
22429SOL    HW270693   8.453  10.678   3.626  1.9217  0.2800  1.9792
22430SOL     OW70694   2.746   5.721   0.949  0.3317 -0.1216 -0.5267
22430SOL    HW170695   2.797   5.681   1.019 -0.6138 -0.1177  0.1673
22430SOL    HW270696   2.744   5.814   0.970  1.0258  0.0466 -1.1860
22431SOL     OW70697   5.023  10.134   9.934 -0.6326  1.0977  0.4589
22431SOL    HW170698   5.066  10.088   9.862  0.5939  0.9118  1.2915
22431SOL    HW270699   4.959  10.191   9.891 -0.4486  0.4241 -0.7250
22432SOL     OW70700   7.867   9.595   0.877  0.5286 -0.4018  0.1879
22432SOL    HW170701   7.779   9.562   0.896  0.2666  1.0653  1.6225
22432SOL    HW270702   7.853   9.673   0.823  0.9943 -0.6420 -0.2910
22433SOL     OW70703   0.923   8.448   6.337 -0.3023  0.7646 -0.5546
22433SOL    HW170704   0.839   8.464   6.294 -0.6949  1.2598  0.3654
22433SOL    HW270705   0.968   8.386   6.280 -1.4504  0.1992 -0.8660
22434SOL     OW70706   1.389  10.326   0.924 -1.1891  0.0794  0.4081
22434SOL    HW170707   1.434  10.406   0.900 -2.6687  1.1018  0.9488
22434SOL    HW270708   1.401  10.267   0.850  0.6810  0.4689  0.3972
22435SOL     OW70709   5.243   2.793   8.627  0.4976 -0.0384 -0.4785
22435SOL    HW170710   5.249   2.836   8.712  2.2624 -0.3855 -0.4183
22435SOL    HW270711   5.184   2.719   8.642  2.4305 -1.3361  0.9856
22436SOL     OW70712   1.449   6.735   0.055  0.2876  0.4962 -0.2302
22436SOL    HW170713   1.522   6.674   0.043 -0.0604  0.3506 -1.7140
22436SOL    HW270714   1.490   6.821   0.053  0.3766  0.4392 -1.6112
22437SOL     OW70715   8.843   6.550   1.271  0.0231  0.0959  0.0481
22437SOL    HW170716   8.920   6.511   1.312  0.0211 -0.7797 -0.7876
22437SOL    HW270717   8.772   6.489   1.289 -0.1250  0.0627 -0.6492
22438SOL     OW70718   0.329   7.792  10.965  0.2316  0.1944  0.1326
22438SOL    HW170719   0.396   7.843  11.011  0.2381  0.4901 -0.2054
22438SOL    HW270720   0.369   7.771  10.880 -0.4188  1.0932 -0.4055
22439SOL     OW70721  10.495   6.457   1.041 -0.3155  0.1365 -0.8388
22439SOL    HW170722  10.448   6.502   0.970  0.8457  1.6282 -0.6826
22439SOL    HW270723  10.587   6.473   1.022 -0.0012  0.5148  0.9939
22440SOL     OW70724   2.845   5.399   6.879 -0.4119  0.6500 -0.4974
22440SOL    HW170725   2.851   5.404   6.974 -0.2128 -1.3387 -0.3922
22440SOL    HW270726   2.752   5.411   6.860 -0.9230 -2.0705  0.1784
22441SOL     OW70727   5.974  10.806   6.493  0.4406 -0.0487  0.6003
22441SOL    HW170728   5.947  10.774   6.406 -1.0891 -0.5747  1.2586
22441SOL    HW270729   6.065  10.832   6.481  0.5006 -0.8996 -0.9675
22442SOL     OW70730   4.730   3.981   9.814  0.2325 -0.3557 -0.1041
22442SOL    HW170731   4.674   3.904   9.818  0.3383 -0.4487 -0.4104
22442SOL    HW270732   4.765   3.981   9.725 -0.1109  0.2860 -0.2446
22443SOL     OW70733   9.994   0.544   9.399  0.2604  0.5647  0.0675
22443SOL    HW170734   9.991   0.452   9.426 -0.1838  0.6429  0.2869
22443SOL    HW270735   9.996   0.541   9.304  2.0000  0.2800  0.1092
22444SOL     OW70736   8.816   4.052   7.579 -0.0222 -0.4001 -0.3814
22444SOL    HW170737   8.839   4.104   7.656  1.1699  0.7717 -1.5091
22444SOL    HW270738   8.809   3.963   7.612  0.8994  0.0237  1.0134
22445SOL     OW70739   3.374   0.445  10.425 -0.3231  0.1983  0.0822
22445SOL    HW170740   3.431   0.384  10.471  0.3786  0.3459 -0.5994
22445SOL    HW270741   3.352   0.511  10.491  1.1828  0.7526  0.0312
22446SOL     OW70742   6.397   4.360   6.480 -0.0292 -0.7113 -0.3619
22446SOL    HW170743   6.445   4.284   6.448 -1.4040 -1.3699 -0.9290
22446SOL    HW270744   6.448   4.435   6.450 -0.3365 -1.3503 -2.5815
22447SOL     OW70745   5.588   5.727   2.922 -0.3594 -0.4587 -0.0189
22447SOL    HW170746   5.671   5.772   2.939 -0.8256  0.3527  0.1446
22447SOL    HW270747   5.613   5.647   2.876  0.5988 -0.7493  0.9988
22448SOL     OW70748   8.922   8.159   9.222  0.0780 -0.0008  0.4519
22448SOL    HW170749   8.920   8.064   9.232  0.5614 -0.1058 -0.3716
22448SOL    HW270750   8.944   8.192   9.309 -2.1545 -0.5170  1.2422
22449SOL     OW70751   7.461   9.591  10.593  0.5231 -0.3350 -0.4660
22449SOL    HW170752   7.495   9.531  10.660 -0.7823 -2.3053 -1.4993
22449SOL    HW270753   7.391   9.639  10.637  0.2141 -1.0403 -0.1804
22450SOL     OW70754   6.152   0.845   2.434 -0.6906  0.6383  0.6903
22450SOL    HW170755   6.160   0.819   2.526  0.5009  1.0485  0.7081
22450SOL    HW270756   6.066   0.888   2.430 -1.5065 -0.9113  1.2240
22451SOL     OW70757   5.305   6.495  10.417 -0.2352 -0.1255  0.1444
22451SOL    HW170758   5.382   6.477  10.471 -0.5608  1.6537  1.2565
22451SOL    HW270759   5.288   6.413  10.371  0.1688 -1.6519  2.6106
22452SOL     OW70760   6.524   5.074   7.728  0.7733 -0.4762  0.2940
22452SOL    HW170761   6.532   5.139   7.798  0.4958  1.0027 -1.0091
22452SOL    HW270762   6.563   4.995   7.764  1.6413  0.5718  1.7162
22453SOL     OW70763   5.659   6.923   0.697 -0.0977 -0.3596  0.1123
22453SOL    HW170764   5.698   6.988   0.755  0.8802  0.6778 -1.6579
22453SOL    HW270765   5.569   6.954   0.684  0.0097 -0.0012  0.2170
22454SOL     OW70766   0.036   9.774   2.884 -0.0287 -0.3535 -0.2155
22454SOL    HW170767   0.025   9.778   2.789  1.3633  0.8005 -0.3451
22454SOL    HW270768   0.110   9.714   2.897 -0.8949 -1.3374  0.1967
22455SOL     OW70769   4.849   8.673   5.543  0.0423  0.2256  0.1216
22455SOL    HW170770   4.810   8.608   5.485 -2.5123  2.0762 -0.3096
22455SOL    HW270771   4.927   8.704   5.495 -0.2703 -0.5282 -0.8841
22456SOL     OW70772   5.869   9.632   2.820 -0.5102 -0.2616  0.2884
22456SOL    HW170773   5.813   9.570   2.866  1.0760 -1.0575  1.1932
22456SOL    HW270774   5.941   9.650   2.881  1.0699 -0.5126 -1.4546
22457SOL     OW70775   6.397   0.656   4.158  0.0310  0.2778  0.3043
22457SOL    HW170776   6.391   0.596   4.233 -2.2351  0.6821  0.4594
22457SOL    HW270777   6.486   0.692   4.165  1.0811 -2.2863  0.7722
22458SOL     OW70778   7.741   6.157   3.903 -0.1615  0.0159 -0.3899
22458SOL    HW170779   7.714   6.065   3.907  0.2116 -0.1321 -1.0810
22458SOL    HW270780   7.763   6.171   3.811  4.3092 -0.5586  0.4565
22459SOL     OW70781   5.496   7.598   7.007  0.0236  1.1125  0.0930
22459SOL    HW170782   5.463   7.554   6.929 -2.3659  0.0122  1.6619
22459SOL    HW270783   5.448   7.681   7.011 -0.0092  1.0759  0.4922
22460SOL     OW70784   3.719   0.440   5.879  0.2445  0.0279 -0.0125
22460SOL    HW170785   3.746   0.469   5.792  2.9962  0.4557  0.9317
22460SOL    HW270786   3.696   0.348   5.867  0.2709  0.1779 -1.2642
22461SOL     OW70787   0.874   6.507   2.157 -0.1420  0.0384  0.4251
22461SOL    HW170788   0.917   6.583   2.119 -1.8655 -0.1876 -2.1329
22461SOL    HW270789   0.867   6.444   2.085  1.9472 -2.9244  2.6675
22462SOL     OW70790   4.581   9.964   8.508 -0.1694 -0.0188  0.7820
22462SOL    HW170791   4.529   9.927   8.580 -0.4739 -0.7152  0.2115
22462SOL    HW270792   4.651  10.013   8.552 -0.8487  0.2783  1.5534
22463SOL     OW70793   9.365   9.235   8.324 -0.2304  0.2732  0.2571
22463SOL    HW170794   9.392   9.196   8.407 -1.6898 -1.4064 -0.0339
22463SOL    HW270795   9.343   9.326   8.346 -0.4610 -0.1101  1.6642
22464SOL     OW70796   1.348   3.976   3.147  0.5769 -0.7593 -0.1253
22464SOL    HW170797   1.346   3.894   3.099 -0.2559 -1.2882  0.8067
22464SOL    HW270798   1.281   3.967   3.215  0.9332  0.4253  0.4092
22465SOL     OW70799   0.571   3.709   4.573 -0.3047  0.5601 -0.3721
22465SOL    HW170800   0.482   3.715   4.609 -0.2680 -0.7289 -0.0526
22465SOL    HW270801   0.593   3.799   4.550 -0.8248  1.2154  1.6081
22466SOL     OW70802   0.141   4.849   6.883 -0.0088  0.0538  0.7513
22466SOL    HW170803   0.060   4.802   6.905 -0.9817  0.9477 -0.8885
22466SOL    HW270804   0.208   4.781   6.885 -1.2349 -1.2411 -0.5736
22467SOL     OW70805   6.111   8.506   7.790 -0.1041 -0.0668 -0.1627
22467SOL    HW170806   6.144   8.483   7.704 -0.3617  3.9132 -1.4372
22467SOL    HW270807   6.188   8.503   7.847  0.5734 -0.2781 -1.0740
22468SOL     OW70808   0.012   6.753   9.213 -0.9128  0.2975  0.1265
22468SOL    HW170809  -0.002   6.661   9.235 -1.7031  0.1662 -0.8710
22468SOL    HW270810  -0.040   6.801   9.277 -2.0731 -0.0262 -0.5637
22469SOL     OW70811   3.640   5.486   8.373  0.2218  0.6336  0.1589
22469SOL    HW170812   3.557   5.532   8.364 -0.5895 -1.0192 -0.8887
22469SOL    HW270813   3.679   5.524   8.452 -1.9753  0.7384  1.2392
22470SOL     OW70814   2.505   9.402   9.478  0.0730 -0.4601  0.4396
22470SOL    HW170815   2.472   9.451   9.553 -0.7443 -0.1651 -0.1033
22470SOL    HW270816   2.427   9.379   9.428  0.5662 -1.1385 -0.0243
22471SOL     OW70817   6.534   8.205   2.628 -0.5032 -0.2577  0.0946
22471SOL    HW170818   6.608   8.252   2.667  0.7734 -2.9173  1.0100
22471SOL    HW270819   6.537   8.230   2.535  1.0027  0.3834  0.2944
22472SOL     OW70820   3.164   6.139  10.808  0.4912  0.5176 -0.4571
22472SOL    HW170821   3.196   6.205  10.869 -0.9045  0.4684  0.3658
22472SOL    HW270822   3.166   6.181  10.723  0.4721  1.3129 -0.0674
22473SOL     OW70823   3.661   8.136   9.650 -0.1317 -0.4453 -0.1666
22473SOL    HW170824   3.650   8.221   9.606 -0.8235 -0.7116 -0.5151
22473SOL    HW270825   3.656   8.156   9.743  2.3646  0.2768 -0.1536
22474SOL     OW70826   1.543   3.891   5.646 -0.0976 -0.3381  0.4009
22474SOL    HW170827   1.471   3.952   5.631  0.5525  0.1173 -0.9394
22474SOL    HW270828   1.508   3.806   5.619  0.5385  0.2203 -2.2586
22475SOL     OW70829  10.087  10.157   5.514 -0.3157 -0.3827  0.4875
22475SOL    HW170830  10.039  10.239   5.526 -0.5509 -0.1992 -1.5078
22475SOL    HW270831  10.104  10.153   5.420  1.9557 -1.3662  0.9188
22476SOL     OW70832   7.146  10.059   2.734 -0.4481  0.3070 -0.1529
22476SOL    HW170833   7.133  10.066   2.829  0.7163 -0.4193  0.0712
22476SOL    HW270834   7.237  10.086   2.720 -0.7792  0.9584 -1.1366
22477SOL     OW70835   1.043   6.368  10.261 -0.1007 -0.0855  0.2893
22477SOL    HW170836   1.112   6.348  10.324 -0.2317 -1.7935 -0.0824
22477SOL    HW270837   1.068   6.321  10.182 -2.1630 -1.5073  0.4431
22478SOL     OW70838   3.830   3.497   3.714  0.2162 -0.1685  0.2514
22478SOL    HW170839   3.923   3.483   3.727  0.0206 -1.6307  0.0908
22478SOL    HW270840   3.796   3.516   3.802  0.7798  1.1641  0.1973
22479SOL     OW70841   4.016   5.819   4.091  0.6203 -0.3501 -0.1522
22479SOL    HW170842   3.978   5.834   4.177  3.4797 -2.5761  1.5916
22479SOL    HW270843   4.106   5.849   4.098  0.9303 -0.6438 -2.3410
22480SOL     OW70844   9.733   5.330   8.044  0.3293  0.2833  0.1634
22480SOL    HW170845   9.697   5.255   8.092  0.7795  0.2183  0.4005
22480SOL    HW270846   9.707   5.315   7.953 -0.5881  0.4415  0.3921
22481SOL     OW70847   2.258   9.087   2.461 -0.2221  0.1433  0.0882
22481SOL    HW170848   2.184   9.113   2.406  0.1164 -0.7096 -0.7934
22481SOL    HW270849   2.219   9.028   2.527 -0.3043 -0.4716 -0.5004
22482SOL     OW70850   7.768   4.347   6.925  0.2101  0.3342 -0.1515
22482SOL    HW170851   7.743   4.381   6.839 -1.2474 -0.9881 -0.2766
22482SOL    HW270852   7.788   4.255   6.909 -0.0623  0.0831  0.9133
22483SOL     OW70853   3.032   5.245   1.814  0.1640  0.2026 -0.1248
22483SOL    HW170854   3.069   5.163   1.846  0.3191  0.5650  0.6557
22483SOL    HW270855   2.937   5.232   1.821  0.1928  0.1899  0.2629
22484SOL     OW70856   9.357   4.045   1.880  0.3982  0.1700 -0.1201
22484SOL    HW170857   9.379   4.091   1.961  2.1908  0.3624 -0.6869
22484SOL    HW270858   9.264   4.025   1.888  0.8337 -1.0245  2.6175
22485SOL     OW70859   3.088   6.562   2.853  0.4167  0.0196 -0.0840
22485SOL    HW170860   3.059   6.476   2.822  0.3299  0.4091 -1.0947
22485SOL    HW270861   3.034   6.625   2.804 -0.6644  0.6269  1.8225
22486SOL     OW70862   5.308   1.872   7.983  0.9292  0.3997  0.3348
22486SOL    HW170863   5.286   1.913   7.899 -0.1353 -2.4408 -0.8678
22486SOL    HW270864   5.396   1.902   8.002  0.7209  2.0674 -1.1861
22487SOL     OW70865   1.556   3.600   9.895 -0.5350 -0.1211 -0.4342
22487SOL    HW170866   1.583   3.532   9.834 -0.6499  0.7414 -1.4585
22487SOL    HW270867   1.507   3.554   9.963 -1.6729 -0.9157 -1.7661
22488SOL     OW70868   3.291   9.462   8.103  0.4594 -0.4846 -0.7786
22488SOL    HW170869   3.370   9.429   8.147 -0.5915 -0.7324  0.9929
22488SOL    HW270870   3.219   9.428   8.157 -0.7795  1.4315 -1.2122
22489SOL     OW70871   2.882   6.789   2.304  0.7248 -0.3228  0.2660
22489SOL    HW170872   2.975   6.785   2.329  0.6596 -0.5226  0.4815
22489SOL    HW270873   2.845   6.856   2.362  0.8305  0.0838 -0.1343
22490SOL     OW70874   9.219   7.419   6.362 -0.2367 -0.2586 -0.5226
22490SOL    HW170875   9.314   7.419   6.348  0.0187  1.1071  1.0512
22490SOL    HW270876   9.199   7.328   6.386  0.3005 -1.0756 -3.0165
22491SOL     OW70877   6.437   5.165   9.810 -0.3678  0.3209  0.4271
22491SOL    HW170878   6.467   5.221   9.882  2.9951 -1.1152  0.2046
22491SOL    HW270879   6.426   5.079   9.850  1.8410 -0.5637 -0.7878
22492SOL     OW70880   3.026   3.608   4.944  0.4940 -0.1062  0.2079
22492SOL    HW170881   3.023   3.643   4.855 -1.2217 -1.5588 -0.3374
22492SOL    HW270882   2.979   3.673   4.997  0.5649  0.2306 -0.1409
22493SOL     OW70883   4.880   2.261   3.326  0.1709  0.0451 -0.5590
22493SOL    HW170884   4.915   2.265   3.415 -1.3155  0.5511  0.0242
22493SOL    HW270885   4.952   2.228   3.272  0.4159 -2.3508  1.1813
22494SOL     OW70886  10.129   2.469   5.132  0.1239 -0.4313  0.0268
22494SOL    HW170887  10.065   2.421   5.078 -1.2094  1.8449 -0.4810
22494SOL    HW270888  10.082   2.487   5.213  0.0700  1.3193 -0.3730
22495SOL     OW70889  10.118  10.632   5.171 -0.1234 -0.4622  0.0306
22495SOL    HW170890  10.070  10.670   5.098 -1.4886 -0.8003  0.7249
22495SOL    HW270891  10.147  10.707   5.223  1.9811 -0.1646 -1.5286
22496SOL     OW70892   0.511   7.171   0.934 -0.0058 -0.6061 -0.0904
22496SOL    HW170893   0.431   7.154   0.984  0.2806 -2.1421 -0.1086
22496SOL    HW270894   0.481   7.186   0.845 -0.1899 -2.7060 -0.4052
22497SOL     OW70895   9.392   8.974   6.826 -0.2634 -0.2622 -0.4141
22497SOL    HW170896   9.437   8.970   6.911  0.7301  3.5864 -0.6774
22497SOL    HW270897   9.299   8.972   6.848 -0.0135  0.9793  0.7950
22498SOL     OW70898   2.670  10.718   5.663 -0.4185 -0.0554  0.2912
22498SOL    HW170899   2.747  10.699   5.610 -0.7973 -0.2437 -0.1932
22498SOL    HW270900   2.675  10.655   5.735 -0.7179 -0.8262 -0.3489
22499SOL     OW70901   6.548   3.837   4.261  0.1553 -0.2906 -0.2496
22499SOL    HW170902   6.641   3.859   4.255  0.2519 -0.7165 -0.2860
22499SOL    HW270903   6.503   3.921   4.248  0.5282 -0.1144 -0.4112
22500SOL     OW70904   4.093   3.177  10.259  0.3670 -0.0309 -0.6630
22500SOL    HW170905   4.069   3.124  10.335 -3.2401 -0.4336 -1.9769
22500SOL    HW270906   4.038   3.255  10.266  1.3890  0.8070 -1.8491
22501SOL     OW70907   6.883   6.719   7.295 -0.2947  0.4302 -0.9288
22501SOL    HW170908   6.903   6.676   7.212 -3.3209 -0.5994 -1.2122
22501SOL    HW270909   6.793   6.691   7.315  0.1424  1.1377  2.3858
22502SOL     OW70910   8.190   5.063   7.763  0.3600 -0.4624  0.4467
22502SOL    HW170911   8.279   5.078   7.794  0.5263 -1.9114  0.7072
22502SOL    HW270912   8.134   5.102   7.830  0.7484 -2.1713  1.7851
22503SOL     OW70913   3.208   6.334   2.321  0.0880 -0.4641 -0.0913
22503SOL    HW170914   3.219   6.295   2.408  1.3481  1.8369  0.8112
22503SOL    HW270915   3.150   6.409   2.336 -1.0707 -1.0484 -1.5489
22504SOL     OW70916   6.326   1.790   5.212  0.1699  0.2062 -0.3210
22504SOL    HW170917   6.387   1.742   5.155  0.4674  0.7545 -0.4711
22504SOL    HW270918   6.263   1.830   5.151 -1.0451 -1.3076 -0.0989
22505SOL     OW70919   4.015   3.770   4.308 -0.0976 -0.0380  0.3147
22505SOL    HW170920   4.047   3.849   4.352  1.2556  0.1727 -1.0176
22505SOL    HW270921   3.930   3.796   4.272 -0.5095  0.2416  1.4400
22506SOL     OW70922   3.704   8.230   9.076  0.3095  0.0371  0.1329
22506SOL    HW170923   3.733   8.157   9.132 -0.1231  1.2790  2.0164
22506SOL    HW270924   3.740   8.308   9.118 -1.5521  1.1702 -0.3144
22507SOL     OW70925   3.956   8.292   5.199 -0.3015 -0.3804  0.2468
22507SOL    HW170926   3.875   8.335   5.172 -1.2472 -2.4270 -0.1980
22507SOL    HW270927   3.953   8.294   5.295 -0.0759  0.9960  0.2417
22508SOL     OW70928   1.346   5.706   6.249 -0.2557  0.5596  0.6997
22508SOL    HW170929   1.287   5.632   6.266 -0.4030  0.6630  0.6428
22508SOL    HW270930   1.287   5.777   6.224 -0.1262  0.7417  0.9158
22509SOL     OW70931   9.567   9.382   2.240  0.5918 -0.1416 -0.4285
22509SOL    HW170932   9.578   9.460   2.294  0.3707 -0.3819 -0.0336
22509SOL    HW270933   9.648   9.376   2.189  2.3046 -1.8230  2.3462
22510SOL     OW70934   6.347   1.417   9.525  0.4075 -0.0075 -0.0453
22510SOL    HW170935   6.277   1.362   9.490  0.4711  0.2107 -0.5190
22510SOL    HW270936   6.334   1.502   9.483  0.7376  0.1361  0.1404
22511SOL     OW70937   8.139   0.797   2.542 -0.5995  0.0111  0.3686
22511SOL    HW170938   8.155   0.724   2.483  1.4455 -0.2354  1.1652
22511SOL    HW270939   8.130   0.757   2.628  2.4803  0.7619  1.1269
22512SOL     OW70940   4.143   8.800  10.046 -0.4297  0.0343 -0.0314
22512SOL    HW170941   4.112   8.872  10.100  0.6641  0.7206 -0.2949
22512SOL    HW270942   4.238   8.802  10.055 -0.2594 -0.1533 -1.5607
22513SOL     OW70943  10.377   6.558   3.511  0.1320 -0.0301 -0.4679
22513SOL    HW170944  10.469   6.581   3.500  0.4643  0.7177  3.1898
22513SOL    HW270945  10.375   6.505   3.590 -2.5975 -0.0736 -0.5175
22514SOL     OW70946   4.345   7.424   4.295  0.0927  0.4051  0.0512
22514SOL    HW170947   4.439   7.424   4.310  0.0880  0.3541  0.0823
22514SOL    HW270948   4.324   7.514   4.272  0.3261  0.1796 -1.0796
22515SOL     OW70949   7.458   7.768   5.008  0.0671 -0.1435  0.0380
22515SOL    HW170950   7.433   7.860   5.005  2.1306  0.4030 -1.9878
22515SOL    HW270951   7.437   7.734   4.921  0.1555 -1.3429  0.4731
22516SOL     OW70952  10.795   3.974   1.928 -0.2150  0.2462 -0.0006
22516SOL    HW170953  10.874   3.988   1.874  0.4165  0.8017  1.0430
22516SOL    HW270954  10.743   4.054   1.915 -0.5847 -0.1000 -0.6527
22517SOL     OW70955  10.793   3.257   5.624  0.0668 -0.0604 -0.0432
22517SOL    HW170956  10.875   3.237   5.670  1.1006  2.0549 -0.9022
22517SOL    HW270957  10.733   3.283   5.694  0.7998  0.5266  0.3737
22518SOL     OW70958   1.933   4.679   7.307 -0.4439  0.9762  0.2905
22518SOL    HW170959   2.023   4.711   7.310  0.3768 -1.1980 -0.1955
22518SOL    HW270960   1.910   4.683   7.214  0.1490 -1.0364  0.0250
22519SOL     OW70961   5.815   5.830   6.445 -0.4382 -0.1145 -0.1055
22519SOL    HW170962   5.843   5.906   6.394 -0.4026 -1.2514 -1.8095
22519SOL    HW270963   5.841   5.755   6.392 -0.9591 -1.3107  1.3127
22520SOL     OW70964   8.896   2.703   5.652  0.3330  0.6929  0.4383
22520SOL    HW170965   8.846   2.624   5.630  1.4487 -0.0165  0.3977
22520SOL    HW270966   8.834   2.775   5.639 -0.0083  0.0419 -1.9263
22521SOL     OW70967   6.745   8.630   9.072 -0.1299 -0.1878  0.1240
22521SOL    HW170968   6.678   8.689   9.105  2.2758  2.1292  1.0851
22521SOL    HW270969   6.804   8.616   9.147  0.6778 -1.8648 -0.7880
22522SOL     OW70970  10.083   9.900   5.848  0.0264 -0.2350  0.7725
22522SOL    HW170971   9.992   9.891   5.876 -0.1289  1.0484  0.7265
22522SOL    HW270972  10.123   9.957   5.914  1.2548 -2.1432  1.7417
22523SOL     OW70973   5.763   6.035   5.124  0.5155  0.0831 -0.2532
22523SOL    HW170974   5.715   5.992   5.054  1.2782  0.2771 -0.8983
22523SOL    HW270975   5.702   6.037   5.198 -0.4553  0.3062 -1.0608
22524SOL     OW70976   7.394   0.933   4.727 -0.5270 -0.5105 -0.0017
22524SOL    HW170977   7.460   0.903   4.664  1.5661 -0.6817  2.2353
22524SOL    HW270978   7.346   0.854   4.751 -0.0265 -0.7795  0.1166
22525SOL     OW70979   2.096   8.034   4.153  0.2863 -0.5930  0.1286
22525SOL    HW170980   2.190   8.027   4.135  0.2307 -1.3252  0.1134
22525SOL    HW270981   2.057   7.966   4.099  0.0652 -2.6155  2.7673
22526SOL     OW70982   4.588   5.170  10.708  0.3435  0.1017 -0.4727
22526SOL    HW170983   4.586   5.248  10.764 -1.8766  1.1416 -1.9264
22526SOL    HW270984   4.497   5.154  10.686  0.9298 -1.9757 -1.5301
22527SOL     OW70985   1.266   9.928  10.272  0.0455 -0.1200  0.4120
22527SOL    HW170986   1.313  10.007  10.245  1.2573 -0.5346  1.2614
22527SOL    HW270987   1.175   9.956  10.281 -0.2290  0.2650 -2.9975
22528SOL     OW70988  10.164   9.910   0.743 -0.4276  0.6007 -0.3037
22528SOL    HW170989  10.198   9.877   0.660 -0.6589  1.3330 -0.6892
22528SOL    HW270990  10.090   9.851   0.763  0.4880 -0.4358  0.0944
22529SOL     OW70991   4.491   8.488   6.533 -0.1809  0.9439 -1.0023
22529SOL    HW170992   4.495   8.394   6.516 -0.0795  0.6829  0.4623
22529SOL    HW270993   4.475   8.527   6.447  0.6688 -0.3423 -1.7460
22530SOL     OW70994   1.874   7.228   3.417 -0.0357 -0.1004 -0.3309
22530SOL    HW170995   1.835   7.164   3.476  2.3303 -0.4190  0.9866
22530SOL    HW270996   1.800   7.271   3.374 -1.7342 -1.4614  1.1814
22531SOL     OW70997   5.672   6.033   9.049  0.1999  0.3940 -0.4882
22531SOL    HW170998   5.657   6.110   8.993  1.6829  1.3307  0.3819
22531SOL    HW270999   5.733   6.064   9.116  1.0166 -1.6446 -0.2883
22532SOL     OW71000   8.704   5.224   6.472 -0.1883 -0.1591 -0.4341
22532SOL    HW171001   8.687   5.133   6.498  0.6853 -0.2843 -0.2882
22532SOL    HW271002   8.745   5.217   6.386 -1.1844  0.1599 -0.9426
22533SOL     OW71003   1.833   6.658   8.240  0.6154 -0.4566  0.1796
22533SOL    HW171004   1.741   6.634   8.226  0.3094  0.5219  0.4283
22533SOL    HW271005   1.883   6.587   8.202 -0.2477 -0.6162 -0.6714
22534SOL     OW71006   0.552   0.649   9.281 -0.0995 -0.2308  0.1860
22534SOL    HW171007   0.576   0.728   9.330 -0.3250  0.1104 -0.2509
22534SOL    HW271008   0.519   0.589   9.348 -3.3004  1.3530  0.1261
22535SOL     OW71009   6.693   0.023   4.253  0.3714  0.8695  0.0643
22535SOL    HW171010   6.640  -0.057   4.251  0.6083  0.7482 -1.9607
22535SOL    HW271011   6.628   0.094   4.249  0.2695  0.7428 -0.6101
22536SOL     OW71012   4.321   7.099   3.077 -0.5259 -0.4118 -0.3711
22536SOL    HW171013   4.285   7.021   3.035 -1.2321 -0.5119  0.4081
22536SOL    HW271014   4.271   7.108   3.159 -0.4417  0.8410 -0.4420
22537SOL     OW71015   7.400   9.931   2.916 -0.1502 -0.4340  0.5438
22537SOL    HW171016   7.413   9.996   2.847  1.3329 -0.8138  0.4313
22537SOL    HW271017   7.400   9.847   2.870  0.0318 -0.6398  0.9184
22538SOL     OW71018   9.149   0.965   4.718  0.2451  0.3311  0.4731
22538SOL    HW171019   9.224   0.950   4.777  0.6653  1.3075  0.1999
22538SOL    HW271020   9.188   1.004   4.640 -0.5965  1.1091  0.4426
22539SOL     OW71021   8.785   0.178   0.177 -0.3150 -0.2271  0.4120
22539SOL    HW171022   8.810   0.268   0.161 -1.5682  0.2583  1.0726
22539SOL    HW271023   8.692   0.175   0.153  0.4422 -2.0815 -2.5164
22540SOL     OW71024   1.731  10.242   6.114  0.4421  0.1640  0.5309
22540SOL    HW171025   1.769  10.274   6.032  2.1551 -1.6756  0.5720
22540SOL    HW271026   1.737  10.146   6.107 -3.5451 -0.2192  0.8604
22541SOL     OW71027   0.149   0.359   6.447  0.1489 -0.2769 -0.3588
22541SOL    HW171028   0.192   0.279   6.417  1.0610  0.5730 -1.3769
22541SOL    HW271029   0.155   0.355   6.542  0.4855 -1.2606 -0.4104
22542SOL     OW71030   6.832   3.892  10.407 -0.0764 -0.2788 -0.2552
22542SOL    HW171031   6.841   3.985  10.427  2.5295 -0.7759  1.0777
22542SOL    HW271032   6.843   3.886  10.312  2.1706  0.5398 -0.0830
22543SOL     OW71033   1.065   3.002   2.787  0.2671 -0.5359  0.4289
22543SOL    HW171034   1.121   2.925   2.795 -0.1505 -0.7569  1.2947
22543SOL    HW271035   1.072   3.028   2.695  1.8347 -0.5233  0.5372
22544SOL     OW71036   1.899   6.676   0.176  0.1651 -0.6259  0.2985
22544SOL    HW171037   1.988   6.688   0.144  0.2425  2.9539  1.6772
22544SOL    HW271038   1.845   6.671   0.097  1.1141  1.5689 -0.5138
22545SOL     OW71039   9.450   9.830   8.679  0.1441  0.1503  0.2097
22545SOL    HW171040   9.380   9.884   8.642  1.3358  1.6192  0.0538
22545SOL    HW271041   9.506   9.808   8.604  0.1097 -0.6432  0.4075
22546SOL     OW71042  10.094   2.885   5.543  0.3546 -0.2272 -0.2670
22546SOL    HW171043  10.044   2.814   5.501 -1.3895 -0.3707  1.9452
22546SOL    HW271044  10.182   2.849   5.551 -0.0546 -1.4363 -0.8682
22547SOL     OW71045   5.580   3.452   7.661  0.1703 -0.3901  0.1498
22547SOL    HW171046   5.524   3.453   7.583  0.1750 -2.1407  0.1139
22547SOL    HW271047   5.662   3.493   7.632 -0.3995  0.4311 -0.3175
22548SOL     OW71048   6.738   4.423   5.128 -0.2569  0.1575 -0.3135
22548SOL    HW171049   6.826   4.447   5.098 -0.5506  0.1780 -1.1862
22548SOL    HW271050   6.719   4.485   5.198 -0.9465  2.4473 -2.4545
22549SOL     OW71051   1.964   0.203   5.135  0.1958  0.6166  0.0134
22549SOL    HW171052   1.928   0.288   5.161 -2.4902 -0.3587 -0.2785
22549SOL    HW271053   1.947   0.197   5.041  3.0195  0.9563 -0.5502
22550SOL     OW71054   9.458   5.376   8.752 -0.2193  0.1833  0.1565
22550SOL    HW171055   9.371   5.371   8.712 -0.2342 -1.9510  0.3889
22550SOL    HW271056   9.499   5.452   8.711 -1.5084  0.0873 -1.3540
22551SOL     OW71057   4.901   7.391   7.182  0.2854 -0.4971  0.0090
22551SOL    HW171058   4.827   7.330   7.175 -0.1444  0.1517 -1.3089
22551SOL    HW271059   4.928   7.406   7.092  0.5574  1.0504  0.3330
22552SOL     OW71060   9.817   8.221   1.934  0.4154 -0.7391 -0.1333
22552SOL    HW171061   9.830   8.285   1.863 -0.3209 -0.0484  0.3542
22552SOL    HW271062   9.731   8.183   1.916  0.8975 -1.6900 -0.4837
22553SOL     OW71063  10.602   9.285   3.950 -0.1743 -0.7134  0.4161
22553SOL    HW171064  10.567   9.196   3.954 -0.6881 -0.4843  1.1329
22553SOL    HW271065  10.555   9.332   4.019 -0.8617  0.4392 -0.8029
22554SOL     OW71066   3.918   9.434   3.420  0.7894  0.0812 -0.4365
22554SOL    HW171067   3.910   9.528   3.436  0.4885  0.0386 -0.3348
22554SOL    HW271068   3.862   9.394   3.487  0.0225 -0.1312 -1.1984
22555SOL     OW71069   3.194   4.909   0.014  0.5412  0.2949  0.6957
22555SOL    HW171070   3.119   4.966   0.030  0.8209  0.1621  2.5921
22555SOL    HW271071   3.264   4.969  -0.015 -0.0674  0.4979 -0.4037
22556SOL     OW71072   2.100   9.544   6.870 -0.3126 -0.0052 -0.0860
22556SOL    HW171073   2.058   9.468   6.911 -1.3157  0.4964 -0.1637
22556SOL    HW271074   2.169   9.569   6.932 -1.6599  0.5979  1.2273
22557SOL     OW71075  10.655   4.378   0.286  0.1162 -0.6837 -0.1879
22557SOL    HW171076  10.639   4.370   0.192  1.0138 -1.6033 -0.2639
22557SOL    HW271077  10.694   4.295   0.311  1.1524  0.0700  0.7416
22558SOL     OW71078   3.601   5.583  10.192 -0.5130  0.0066  0.7282
22558SOL    HW171079   3.654   5.661  10.175  0.2696 -0.4671  0.9627
22558SOL    HW271080   3.544   5.576  10.115  0.5721 -0.1297 -0.0892
22559SOL     OW71081   3.343   6.828   4.271 -0.0875 -0.3715 -0.4635
22559SOL    HW171082   3.436   6.807   4.283 -0.1737  0.1008  1.2252
22559SOL    HW271083   3.316   6.866   4.355 -1.9903 -1.1242 -0.7050
22560SOL     OW71084   9.959   3.449   4.185 -0.3076 -0.5255  0.2993
22560SOL    HW171085  10.039   3.500   4.201 -0.9506  0.1890  1.3284
22560SOL    HW271086   9.956   3.438   4.090  2.5738 -3.1368  0.4311
22561SOL     OW71087   9.209   6.704   4.189  0.0975  0.1582 -0.3058
22561SOL    HW171088   9.124   6.693   4.145 -0.2541  1.4181  0.0521
22561SOL    HW271089   9.262   6.753   4.126  0.0193  0.8124  0.1363
22562SOL     OW71090   9.531   2.083   9.569  0.2014  0.0854  0.2364
22562SOL    HW171091   9.545   2.068   9.662  0.6816 -2.5687 -0.2320
22562SOL    HW271092   9.616   2.062   9.528 -0.1837  0.6256 -0.8638
22563SOL     OW71093   1.115   1.049   4.049 -0.1351 -0.0445 -0.2175
22563SOL    HW171094   1.063   1.123   4.081  0.7261  0.2567  0.5067
22563SOL    HW271095   1.131   1.070   3.957  1.3170  1.4027  0.3361
22564SOL     OW71096   1.176   7.665  10.158 -0.6249  0.4728  0.1046
22564SOL    HW171097   1.093   7.710  10.146 -1.2749 -0.7772 -0.2046
22564SOL    HW271098   1.161   7.607  10.233  0.0083  0.3670  0.1507
22565SOL     OW71099   0.426   4.254   5.262 -0.1546  0.1031  0.3282
22565SOL    HW171100   0.477   4.265   5.181 -3.6406  3.1027 -1.6089
22565SOL    HW271101   0.465   4.316   5.324  2.2087 -1.8431  0.8588
22566SOL     OW71102   4.200   8.643   3.962  0.2120  0.5483 -0.1600
22566SOL    HW171103   4.124   8.696   3.986 -0.6088 -1.0302  0.8374
22566SOL    HW271104   4.273   8.680   4.013 -0.5118  0.2598  1.1126
22567SOL     OW71105   4.592   9.579   0.888  0.2959 -0.2460  0.8807
22567SOL    HW171106   4.514   9.631   0.908  1.1625  0.8023  1.5999
22567SOL    HW271107   4.586   9.562   0.794 -0.4253  0.4521  0.7950
22568SOL     OW71108   6.141   1.834   7.025 -0.1731 -0.4111 -0.0248
22568SOL    HW171109   6.176   1.917   6.991  0.1220  0.5363  2.4787
22568SOL    HW271110   6.187   1.767   6.975  1.9829  0.8821  0.1561
22569SOL     OW71111   0.193   8.411   8.311  0.1299  0.6042  0.2313
22569SOL    HW171112   0.188   8.500   8.344  0.1715  0.9299 -0.6284
22569SOL    HW271113   0.267   8.412   8.251  0.8921 -0.3134  1.1297
22570SOL     OW71114   7.913   5.734   8.533  0.4025 -0.8244  0.0501
22570SOL    HW171115   7.890   5.735   8.626  0.2252  0.3676  0.0014
22570SOL    HW271116   7.829   5.729   8.488  0.4523 -0.6570 -0.0609
22571SOL     OW71117   0.263   0.667   3.415 -0.3088  0.2248  0.0351
22571SOL    HW171118   0.197   0.599   3.424 -1.4005  0.8860 -2.5655
22571SOL    HW271119   0.231   0.739   3.469 -0.8581 -0.0753  0.1166
22572SOL     OW71120  10.577   1.317   6.894 -0.6863  0.3028 -0.0216
22572SOL    HW171121  10.529   1.318   6.811  1.2179  1.0600 -1.1430
22572SOL    HW271122  10.561   1.404   6.932  1.3799  1.2851 -1.3456
22573SOL     OW71123   3.777   9.065  10.262 -0.4486  0.0801 -0.0773
22573SOL    HW171124   3.871   9.047  10.259 -0.0781  1.8896  0.1444
22573SOL    HW271125   3.769   9.141  10.319 -2.2940 -1.5624  1.9230
22574SOL     OW71126   2.151   4.649   5.592  0.5931  0.7059 -0.0199
22574SOL    HW171127   2.104   4.649   5.675  1.0778 -0.2570  0.2604
22574SOL    HW271128   2.237   4.614   5.613  1.2749  1.9750 -0.6336
22575SOL     OW71129   4.315   6.499   0.993 -0.0181 -0.5677 -0.4249
22575SOL    HW171130   4.221   6.521   0.995  0.1226 -0.0294  1.1574
22575SOL    HW271131   4.359   6.580   1.019  0.7317 -1.5569  1.4688
22576SOL     OW71132   7.032   9.223   0.712  0.3894  0.3230  0.4901
22576SOL    HW171133   6.965   9.192   0.773  1.7697 -0.4991  1.5821
22576SOL    HW271134   7.055   9.146   0.660  0.4224  0.6389  0.0225
22577SOL     OW71135   6.851   3.098  10.454 -0.4690 -0.3155  0.2369
22577SOL    HW171136   6.795   3.117  10.379  0.7600  0.5698 -0.4773
22577SOL    HW271137   6.881   3.184  10.482  2.3445 -0.9257 -0.7995
22578SOL     OW71138   4.443   3.971   2.832 -0.3901 -0.3656 -0.8973
22578SOL    HW171139   4.504   4.021   2.778  0.1237 -0.4302 -0.3750
22578SOL    HW271140   4.486   3.886   2.844  0.1128  0.1031  0.7250
22579SOL     OW71141   5.902   4.267   5.465  0.2241  0.1353 -0.6505
22579SOL    HW171142   5.808   4.252   5.454 -0.0384 -0.7984  2.4738
22579SOL    HW271143   5.943   4.212   5.398 -1.3634 -1.8400 -0.0596
22580SOL     OW71144   7.861  10.236   2.567  0.4450  0.5246  0.4275
22580SOL    HW171145   7.927  10.283   2.617 -0.5238  1.5574  0.7568
22580SOL    HW271146   7.832  10.299   2.501  0.7754 -0.3838 -0.6041
22581SOL     OW71147   5.474   9.389   5.507 -0.2374 -0.1859  0.0684
22581SOL    HW171148   5.543   9.393   5.441 -1.7084  3.2785 -1.4030
22581SOL    HW271149   5.392   9.383   5.457 -1.1859 -1.6283  1.7064
22582SOL     OW71150   6.980  10.333   6.341 -0.3087 -0.1154 -0.2547
22582SOL    HW171151   6.970  10.344   6.246 -0.6357 -1.4280 -0.3834
22582SOL    HW271152   6.944  10.246   6.359 -0.3804  0.1826  1.0992
22583SOL     OW71153   0.797   2.767  10.876 -0.3759  0.1050 -0.0281
22583SOL    HW171154   0.829   2.715  10.801  0.9447 -1.1509  1.3633
22583SOL    HW271155   0.872   2.822  10.901 -0.9277  0.7798  0.1473
22584SOL     OW71156   6.709   0.437   5.638  0.5852 -0.6527  0.2900
22584SOL    HW171157   6.622   0.432   5.598 -0.2131  0.3544  1.8540
22584SOL    HW271158   6.712   0.523   5.678  2.4821 -0.5185 -0.1062
22585SOL     OW71159   2.904   8.707   3.476  0.1863  0.5551  0.1687
22585SOL    HW171160   2.900   8.774   3.544  0.1291  1.8596 -1.0878
22585SOL    HW271161   2.994   8.710   3.444  0.0378  0.4166 -0.2678
22586SOL     OW71162   8.249   6.331   0.629  0.3422  0.4923 -0.2146
22586SOL    HW171163   8.301   6.405   0.658  1.6527 -0.0476 -1.1264
22586SOL    HW271164   8.233   6.347   0.536 -0.9917  0.5646  0.0077
22587SOL     OW71165   2.504   3.077   3.007  0.0498 -0.6559 -0.1049
22587SOL    HW171166   2.561   3.026   3.064  0.4465 -0.1144 -0.0145
22587SOL    HW271167   2.422   3.028   3.005  0.8220 -1.9390 -1.0068
22588SOL     OW71168   1.109   2.193  10.152 -0.1479 -0.0671  0.9610
22588SOL    HW171169   1.114   2.271  10.097 -0.3666  1.6784  3.3283
22588SOL    HW271170   1.188   2.144  10.130 -0.6151  0.1934 -1.4309
22589SOL     OW71171   4.344   4.227   8.116 -0.9280 -0.2012  0.3378
22589SOL    HW171172   4.371   4.163   8.051 -0.0466  0.2142  0.2993
22589SOL    HW271173   4.248   4.223   8.114 -0.8902 -1.2250  0.0519
22590SOL     OW71174   9.037   0.074   1.973  0.6170  0.2639  0.3309
22590SOL    HW171175   9.080   0.054   2.056 -1.1683 -0.4822  1.0949
22590SOL    HW271176   9.062   0.165   1.955  0.2480  0.7428  2.1613
22591SOL     OW71177   4.831   5.707   8.149 -0.7717  0.1491  0.2640
22591SOL    HW171178   4.830   5.773   8.080  0.2700  1.4031  1.4230
22591SOL    HW271179   4.876   5.749   8.222 -0.3289 -1.7599  1.1172
22592SOL     OW71180  10.880   0.317   6.646  0.3627  0.3124  0.0120
22592SOL    HW171181  10.882   0.222   6.654 -2.2253  0.2315  0.0578
22592SOL    HW271182  10.948   0.348   6.706 -0.2689 -1.4198  1.6342
22593SOL     OW71183   5.719   3.673   4.289  0.7271  0.3150 -0.4232
22593SOL    HW171184   5.769   3.699   4.211  1.3129  3.4482  0.9566
22593SOL    HW271185   5.643   3.731   4.291  0.2499 -0.3241  0.8740
22594SOL     OW71186   0.273   0.623   8.714  0.0329  0.1232  0.0827
22594SOL    HW171187   0.312   0.575   8.787 -0.0523 -2.2752 -1.3975
22594SOL    HW271188   0.315   0.587   8.636 -1.2747  1.2803 -1.1817
22595SOL     OW71189   8.016   3.558   2.238  0.1242  0.1257  0.2105
22595SOL    HW171190   7.932   3.558   2.283  0.7293  1.4887  1.4022
22595SOL    HW271191   8.077   3.520   2.302  0.2928 -1.5028 -0.8959
22596SOL     OW71192   3.496   4.844   1.562 -0.8367  0.5490 -0.0076
22596SOL    HW171193   3.509   4.935   1.587 -0.4520  0.0224  1.8392
22596SOL    HW271194   3.563   4.827   1.496  0.4237  1.0518  1.1212
22597SOL     OW71195   2.075  10.832   1.773  0.0969 -1.1354  0.5997
22597SOL    HW171196   2.020  10.876   1.839  1.3931 -0.4323  1.2213
22597SOL    HW271197   2.121  10.904   1.729  1.2569 -1.7824  0.7542
22598SOL     OW71198   3.349   1.253   4.205 -0.1590 -0.8552  0.4177
22598SOL    HW171199   3.262   1.221   4.181 -0.9138  1.4779 -0.0362
22598SOL    HW271200   3.351   1.249   4.301 -0.2892 -2.0717  0.3799
22599SOL     OW71201  10.442   0.274   7.206  0.0847 -0.0826  0.0041
22599SOL    HW171202  10.431   0.318   7.122 -1.3899 -0.2504  0.0983
22599SOL    HW271203  10.484   0.340   7.262  0.1238  0.3741 -0.5572
22600SOL     OW71204   9.207   1.584   8.937  0.1544  0.3218 -0.2098
22600SOL    HW171205   9.240   1.530   9.009 -1.2207 -1.4537 -0.8698
22600SOL    HW271206   9.159   1.654   8.980  0.8628  0.2970  0.6398
22601SOL     OW71207   6.078   2.765   0.606  0.0274 -0.0064  0.3060
22601SOL    HW171208   6.032   2.699   0.553 -0.8119 -0.2327  1.2916
22601SOL    HW271209   6.066   2.847   0.558  2.8298 -0.8662 -2.0121
22602SOL     OW71210   7.833   3.478   7.952  0.3602  0.3735  0.5961
22602SOL    HW171211   7.779   3.510   7.880  0.6274 -0.3500  0.0664
22602SOL    HW271212   7.791   3.512   8.031 -1.4944 -1.0465  0.2599
22603SOL     OW71213   7.811   0.956   7.634 -0.1758 -0.1395 -0.3532
22603SOL    HW171214   7.869   1.030   7.654  0.1808 -0.6082  0.4010
22603SOL    HW271215   7.799   0.960   7.539 -1.1764  1.6180 -0.1659
22604SOL     OW71216   5.371   0.897   9.010  0.0202  0.4130  0.1658
22604SOL    HW171217   5.298   0.916   8.951 -0.9302 -1.1908  0.7925
22604SOL    HW271218   5.371   0.802   9.018  1.4745  0.4802  1.0690
22605SOL     OW71219   7.576   6.185   8.891 -0.0827 -0.0788  0.0042
22605SOL    HW171220   7.505   6.139   8.935 -0.3107 -0.2485 -0.5461
22605SOL    HW271221   7.602   6.127   8.819  0.6420 -0.0414  0.2278
22606SOL     OW71222   4.131   5.765   9.634  0.0215  0.2078 -0.3180
22606SOL    HW171223   4.112   5.759   9.727  0.9874 -1.7726 -0.2271
22606SOL    HW271224   4.058   5.719   9.592  0.8383 -1.0595 -0.3788
22607SOL     OW71225   7.597   7.548   9.297  0.0952  0.1249  0.2547
22607SOL    HW171226   7.627   7.632   9.332 -1.4465  0.0033  1.9578
22607SOL    HW271227   7.521   7.569   9.244 -3.3256 -0.5863  4.5961
22608SOL     OW71228  10.140   1.664   5.100 -0.2633 -0.4166 -0.2167
22608SOL    HW171229  10.067   1.713   5.061 -0.2025  0.0605  0.2698
22608SOL    HW271230  10.216   1.686   5.046 -0.2558 -0.0485 -0.0578
22609SOL     OW71231   7.307   5.999  10.579 -0.6618  0.2836 -0.5914
22609SOL    HW171232   7.305   5.917  10.529  0.2535  1.1862 -2.1405
22609SOL    HW271233   7.358   5.978  10.657  0.0571 -0.4804 -1.2591
22610SOL     OW71234   9.450   7.936   8.811 -0.2203  0.4582 -0.3697
22610SOL    HW171235   9.436   8.027   8.838  0.3776  0.5890 -0.5065
22610SOL    HW271236   9.545   7.926   8.805 -0.2510 -0.3892  0.3536
22611SOL     OW71237   7.196  10.944   0.852 -0.1486  0.1389  0.2187
22611SOL    HW171238   7.223  10.946   0.761  1.5478  0.4284  0.7091
22611SOL    HW271239   7.261  10.888   0.896  0.2076  1.5884  1.5929
22612SOL     OW71240   7.400   4.402  10.491  0.0020  0.6392 -0.3032
22612SOL    HW171241   7.384   4.456  10.414 -1.0086  0.0401 -0.5171
22612SOL    HW271242   7.488   4.367  10.478  0.0615  1.0166 -0.8947
22613SOL     OW71243   8.849   4.184   6.302 -0.3844  0.2948 -0.8179
22613SOL    HW171244   8.767   4.232   6.313 -0.2466  0.1492  1.0233
22613SOL    HW271245   8.830   4.096   6.335  0.2725 -0.0052 -1.2280
22614SOL     OW71246   0.408   8.193   5.614 -0.0069  0.0373  0.0520
22614SOL    HW171247   0.367   8.278   5.632 -1.8002 -1.2778  2.7314
22614SOL    HW271248   0.390   8.177   5.522 -0.9444  1.9170 -0.1333
22615SOL     OW71249   1.650   5.344   5.742 -0.2754  0.1348  0.2199
22615SOL    HW171250   1.700   5.410   5.696 -0.0833  1.1394  1.8378
22615SOL    HW271251   1.575   5.391   5.779 -2.0253 -1.1947 -1.5118
22616SOL     OW71252   9.743   9.839   1.168 -0.1882 -0.3894  0.1506
22616SOL    HW171253   9.797   9.913   1.139  1.3297 -1.6119 -0.1972
22616SOL    HW271254   9.795   9.796   1.236 -1.1371 -1.0292  0.4829
22617SOL     OW71255   0.810   3.223   8.439  0.1545 -0.3088  0.0420
22617SOL    HW171256   0.760   3.284   8.386  4.9439  3.3668 -0.5607
22617SOL    HW271257   0.859   3.170   8.376 -0.0253 -1.2396  0.6691
22618SOL     OW71258   7.666   8.459   2.099  0.4357  0.2756 -0.5674
22618SOL    HW171259   7.602   8.391   2.080 -0.2175  0.0190  2.2703
22618SOL    HW271260   7.624   8.540   2.069  0.1972 -0.2698 -1.7267
22619SOL     OW71261   3.716   4.025   9.010  0.2671  0.0768  0.1371
22619SOL    HW171262   3.735   4.117   9.028 -0.5986 -0.0395  1.7691
22619SOL    HW271263   3.751   4.010   8.923 -0.7387  2.3121 -0.6988
22620SOL     OW71264   3.723   8.907   5.209  0.6316 -0.6762 -0.0099
22620SOL    HW171265   3.784   8.933   5.141 -0.9120  0.4784 -0.9970
22620SOL    HW271266   3.736   8.971   5.279  0.3911 -0.2707 -0.3311
22621SOL     OW71267   1.852   5.140   3.943  0.3937  0.5521  0.2897
22621SOL    HW171268   1.940   5.102   3.949  0.4423  0.3066 -1.5802
22621SOL    HW271269   1.805   5.081   3.883 -0.6829  1.3371  0.3557
22622SOL     OW71270   4.149   7.822   9.782 -0.0140 -0.4426  0.0247
22622SOL    HW171271   4.137   7.866   9.698 -0.1022 -0.1890  0.1690
22622SOL    HW271272   4.238   7.786   9.777 -0.1297 -0.6869 -0.2947
22623SOL     OW71273   0.082   2.191   9.550  0.1010  0.0421  0.3768
22623SOL    HW171274   0.169   2.176   9.586  0.1265 -0.7624 -0.0114
22623SOL    HW271275   0.025   2.197   9.627  0.3429 -0.4714  0.5986
22624SOL     OW71276   1.488   5.102   3.015  0.1544 -0.2118  0.1486
22624SOL    HW171277   1.547   5.038   3.054  1.9776  1.4608  0.2224
22624SOL    HW271278   1.494   5.178   3.073  1.7493  1.7581 -2.4909
22625SOL     OW71279   2.518   3.669   6.264  0.2101  0.3493  0.1392
22625SOL    HW171280   2.590   3.711   6.218 -0.3319  0.1913 -0.8598
22625SOL    HW271281   2.446   3.732   6.258 -0.3073 -0.2990 -0.5193
22626SOL     OW71282   6.076   1.225   6.072 -0.0484  0.7359  0.2476
22626SOL    HW171283   5.990   1.193   6.097  0.0539 -0.3795 -0.7613
22626SOL    HW271284   6.070   1.320   6.079 -0.5951  0.5548  2.5598
22627SOL     OW71285   6.842   9.883   2.879 -0.0271 -0.8686 -0.1664
22627SOL    HW171286   6.804   9.827   2.812 -0.1775  1.3605 -1.9741
22627SOL    HW271287   6.911   9.932   2.834 -0.1026  0.6314  1.3080
22628SOL     OW71288   4.430   6.689   7.020 -0.3930  0.2435 -0.1603
22628SOL    HW171289   4.434   6.595   7.003 -0.8781  0.3121 -0.6509
22628SOL    HW271290   4.346   6.702   7.064 -0.7386  0.5767 -0.9089
22629SOL     OW71291   7.769   2.219   0.839 -0.5873  0.1319 -0.5601
22629SOL    HW171292   7.836   2.151   0.846 -1.6121 -0.8210  0.1708
22629SOL    HW271293   7.810   2.297   0.875  0.1755 -0.4077 -0.2508
22630SOL     OW71294   7.363   8.472   6.694 -0.3516 -0.1474 -0.0371
22630SOL    HW171295   7.436   8.414   6.717  0.6002  0.9363 -0.2868
22630SOL    HW271296   7.285   8.418   6.706  0.5065 -1.4054 -0.0254
22631SOL     OW71297   3.920   4.807   9.684  0.1243  0.5216 -0.2035
22631SOL    HW171298   3.906   4.817   9.778  1.0543  1.0591 -0.1170
22631SOL    HW271299   4.012   4.828   9.671  0.6560 -2.0515 -0.8841
22632SOL     OW71300   5.626   0.274   3.082 -0.2353  0.3332  0.2380
22632SOL    HW171301   5.571   0.250   3.156  0.3896 -3.7590 -0.4933
22632SOL    HW271302   5.594   0.220   3.010  1.4272  1.6540 -1.5593
22633SOL     OW71303   9.991   3.227   7.807  0.3313  0.1022 -0.1657
22633SOL    HW171304   9.949   3.269   7.732 -0.9275 -0.2739  0.3059
22633SOL    HW271305  10.085   3.243   7.795  0.0717  0.7649 -1.3667
22634SOL     OW71306  10.789   7.234   6.744 -0.1686 -0.2196 -0.2601
22634SOL    HW171307  10.822   7.177   6.675  0.3874 -0.4578  0.2028
22634SOL    HW271308  10.695   7.241   6.726  0.0935  0.3282 -1.4821
22635SOL     OW71309   4.010  10.782  10.402  0.0065  0.4055  0.5952
22635SOL    HW171310   3.966  10.700  10.380 -0.6069  0.4433  1.6655
22635SOL    HW271311   4.082  10.756  10.460 -0.0051  0.5937  0.6937
22636SOL     OW71312   8.670   6.669   8.257 -0.3681  0.0635 -0.5601
22636SOL    HW171313   8.700   6.581   8.236  1.0661  0.8720 -1.9709
22636SOL    HW271314   8.683   6.719   8.177 -0.9225  1.6346  0.3094
22637SOL     OW71315   3.205   2.009   5.545  0.0723  0.1771 -0.0314
22637SOL    HW171316   3.129   1.952   5.556 -0.2390  0.8577  1.4939
22637SOL    HW271317   3.168   2.092   5.515  0.1832  0.5666  0.8911
22638SOL     OW71318   7.834   9.224   2.575 -0.7272  0.5382  0.5468
22638SOL    HW171319   7.789   9.303   2.546  0.0865  0.7312 -0.2187
22638SOL    HW271320   7.876   9.190   2.496 -0.4065 -0.2205  1.0339
22639SOL     OW71321  10.585   0.570   5.183  0.2433 -0.8884 -0.0350
22639SOL    HW171322  10.499   0.569   5.141  0.5566  0.1559 -0.7340
22639SOL    HW271323  10.576   0.632   5.255 -0.2247 -2.4959  1.2989
22640SOL     OW71324   1.953   4.800   2.350 -0.2401  0.1334  0.1174
22640SOL    HW171325   1.968   4.706   2.338  1.3596  0.3400  0.4112
22640SOL    HW271326   2.031   4.842   2.314 -1.0327  1.3675 -0.1864
22641SOL     OW71327   7.636   8.817   9.430 -0.7645 -0.4159 -0.1706
22641SOL    HW171328   7.578   8.819   9.354 -0.9308 -0.3799 -0.0409
22641SOL    HW271329   7.715   8.773   9.398 -0.0278  1.4100 -0.9309
22642SOL     OW71330   4.923   9.612   0.445 -0.1551 -0.7707  0.1184
22642SOL    HW171331   4.858   9.622   0.514  1.0225 -0.1075  1.1677
22642SOL    HW271332   4.957   9.701   0.432 -0.5476 -0.8492 -1.5048
22643SOL     OW71333   9.786   3.840   9.758 -0.1095  0.4201 -0.2518
22643SOL    HW171334   9.819   3.828   9.847 -0.7214  1.4488  0.1217
22643SOL    HW271335   9.704   3.792   9.757  0.1380 -0.0026 -0.4128
22644SOL     OW71336   2.728   8.920   5.236  0.6932  0.0123 -0.0072
22644SOL    HW171337   2.727   8.979   5.311  1.4779  1.1125 -0.8480
22644SOL    HW271338   2.809   8.871   5.246 -0.3005 -1.4487  1.0739
22645SOL     OW71339   1.419   8.930   1.221 -0.5482  0.0883  0.9354
22645SOL    HW171340   1.354   8.999   1.230 -0.9882 -0.3518  1.1239
22645SOL    HW271341   1.368   8.851   1.206 -0.0419 -0.1871  0.6511
22646SOL     OW71342   3.707   7.844   3.125 -0.6739 -0.2932  0.2269
22646SOL    HW171343   3.788   7.830   3.076 -0.4194 -0.8034  0.7835
22646SOL    HW271344   3.736   7.879   3.210 -0.9030 -2.0967  1.0775
22647SOL     OW71345   1.243   7.790   4.134 -0.6803  0.1078 -0.5237
22647SOL    HW171346   1.245   7.859   4.201 -1.6658 -0.7913  0.4614
22647SOL    HW271347   1.196   7.718   4.176  0.5292 -1.2516 -1.4617
22648SOL     OW71348   1.423   5.686   8.066 -0.1654  0.3455  0.2986
22648SOL    HW171349   1.428   5.782   8.062  1.0383  0.2028 -2.9245
22648SOL    HW271350   1.513   5.656   8.052 -0.9695 -1.2977 -1.5598
22649SOL     OW71351   7.466   0.016   1.725 -0.1476  0.3162  0.1661
22649SOL    HW171352   7.445   0.034   1.633  0.0797  1.4573  0.3269
22649SOL    HW271353   7.493  -0.076   1.726  0.3809  0.4516 -1.0031
22650SOL     OW71354  10.765   3.823   3.124  0.3298 -0.1512  0.4059
22650SOL    HW171355  10.712   3.792   3.197 -0.4697  0.8604  0.2666
22650SOL    HW271356  10.707   3.880   3.074  0.7172 -1.1920 -1.2843
22651SOL     OW71357   6.159   1.725   5.906 -0.1096 -0.7279  0.6867
22651SOL    HW171358   6.113   1.687   5.980 -1.8145  0.4223  0.2620
22651SOL    HW271359   6.196   1.807   5.939 -1.8020  0.3371  0.0379
22652SOL     OW71360   7.834   9.400  10.889 -0.4734 -0.2273  0.1126
22652SOL    HW171361   7.910   9.454  10.912 -1.1903  0.3450  1.1733
22652SOL    HW271362   7.863   9.350  10.813  0.8892  0.1634  0.3526
22653SOL     OW71363   2.635   1.921   2.349 -0.1142  0.1020 -0.0683
22653SOL    HW171364   2.718   1.904   2.394 -0.4334  1.7096  1.1909
22653SOL    HW271365   2.568   1.909   2.417 -0.6112  2.4416 -0.0890
22654SOL     OW71366   2.325   9.919   5.270  0.5211 -0.6468 -0.4424
22654SOL    HW171367   2.337   9.991   5.208  0.7325 -0.7344 -0.5063
22654SOL    HW271368   2.338   9.959   5.356  0.3104 -0.5425 -0.4610
22655SOL     OW71369   9.158   3.767   4.319  0.5130 -0.0688 -0.1009
22655SOL    HW171370   9.153   3.695   4.382 -0.0508 -0.0156 -0.0836
22655SOL    HW271371   9.252   3.785   4.311  0.5609  0.2480  1.0900
22656SOL     OW71372   9.182   0.504   4.076  0.2520  0.3769  0.1818
22656SOL    HW171373   9.224   0.538   4.155  1.0061 -1.4141  0.5725
22656SOL    HW271374   9.175   0.410   4.091 -1.7906  0.3278 -0.8837
22657SOL     OW71375   0.657   3.228   3.734  0.0125 -0.2618 -0.3649
22657SOL    HW171376   0.635   3.237   3.827 -0.2739 -0.8152 -0.3728
22657SOL    HW271377   0.593   3.164   3.701  0.0669 -0.0106 -0.9566
22658SOL     OW71378   3.256   0.104   3.379  0.4015 -0.6909 -0.8119
22658SOL    HW171379   3.190   0.149   3.431  0.7933  1.5067 -2.1591
22658SOL    HW271380   3.269   0.020   3.424 -0.2441  0.5698  1.7995
22659SOL     OW71381   7.086   6.852  10.250 -0.2085  0.3854  0.0092
22659SOL    HW171382   7.138   6.868  10.171  0.1890 -1.0280 -0.0359
22659SOL    HW271383   7.151   6.846  10.320 -0.5089  0.9637  0.3390
22660SOL     OW71384   9.506  10.276   8.277  0.1021  0.1462  0.6309
22660SOL    HW171385   9.521  10.214   8.348  1.3949  1.1458  1.2519
22660SOL    HW271386   9.592  10.288   8.237 -0.1287  1.5128  0.5101
22661SOL     OW71387   9.842   3.705   7.715 -0.2085 -0.8023 -0.0483
22661SOL    HW171388   9.905   3.777   7.713 -0.3798 -0.6806 -2.1634
22661SOL    HW271389   9.888   3.631   7.676 -1.1170 -0.9114 -0.9276
22662SOL     OW71390   4.986  10.888   0.643  0.1143  0.2724 -0.1104
22662SOL    HW171391   5.019  10.836   0.717  0.0032  0.0848 -0.1907
22662SOL    HW271392   5.061  10.897   0.585 -0.8939 -3.5529 -2.2336
22663SOL     OW71393   3.218   2.473  10.883  0.3318 -0.0413  0.0435
22663SOL    HW171394   3.220   2.515  10.797 -0.8410 -1.5143 -0.7205
22663SOL    HW271395   3.306   2.438  10.895 -0.1853 -1.9962 -1.6652
22664SOL     OW71396   9.836   0.787   7.475  0.4663 -0.0140 -0.5837
22664SOL    HW171397   9.873   0.770   7.388 -0.3759  0.5832 -1.0661
22664SOL    HW271398   9.742   0.793   7.460  0.3295  0.1718  0.3618
22665SOL     OW71399   9.804   5.670   7.465 -0.4610  0.3184 -0.3114
22665SOL    HW171400   9.771   5.753   7.430 -1.0870  0.4072  0.4706
22665SOL    HW271401   9.821   5.688   7.557  0.0570 -0.2362 -0.2943
22666SOL     OW71402   4.777   0.353  10.040  0.0660  0.2448 -0.3883
22666SOL    HW171403   4.853   0.298  10.021 -1.6031 -1.5751 -2.0314
22666SOL    HW271404   4.750   0.388   9.955 -3.1064 -2.1212 -0.4600
22667SOL     OW71405   1.420   2.328   8.816 -0.1382  0.3393 -0.3743
22667SOL    HW171406   1.394   2.383   8.890 -1.3159  0.0922 -0.5878
22667SOL    HW271407   1.507   2.360   8.792  0.2489  0.4538  1.0851
22668SOL     OW71408  10.136   8.194   4.944  0.5453 -0.2758  0.1958
22668SOL    HW171409  10.134   8.277   4.896 -0.5202 -0.0398  0.6265
22668SOL    HW271410  10.125   8.219   5.036  0.7409 -0.8599  0.3784
22669SOL     OW71411   7.374   3.279   4.122 -0.1500  1.0454 -0.1239
22669SOL    HW171412   7.313   3.316   4.186 -2.1264  0.7672 -1.7742
22669SOL    HW271413   7.404   3.197   4.162 -0.3256  1.5350  1.0192
22670SOL     OW71414   8.748  10.069   1.435 -0.4358  0.6677 -0.0975
22670SOL    HW171415   8.709  10.033   1.514 -0.2128 -2.4223 -1.3250
22670SOL    HW271416   8.838  10.036   1.435  0.4044  2.8406 -0.3170
22671SOL     OW71417   1.195   2.359   2.356  0.6752  0.2740 -0.6326
22671SOL    HW171418   1.136   2.414   2.407  1.0272  1.0783 -1.0932
22671SOL    HW271419   1.194   2.275   2.401  0.0936  0.6369  0.0395
22672SOL     OW71420   2.924   7.773   5.023 -0.5816  0.4975  0.3945
22672SOL    HW171421   2.969   7.846   4.979 -0.3691 -0.2368 -0.6171
22672SOL    HW271422   2.849   7.755   4.968  0.2234 -1.0877 -0.2155
22673SOL     OW71423   0.246   3.834   2.268  0.1855 -0.2920  0.0893
22673SOL    HW171424   0.319   3.813   2.209  0.1436 -1.6718  0.4980
22673SOL    HW271425   0.197   3.902   2.223  1.5849  0.4727 -0.3108
22674SOL     OW71426  10.859   5.037   2.695  0.0644  0.6084 -0.2874
22674SOL    HW171427  10.930   5.005   2.641  0.2782  1.9720 -0.8343
22674SOL    HW271428  10.898   5.049   2.782 -0.2843 -1.5931  0.2001
22675SOL     OW71429   9.094   5.358   1.593 -0.0932 -0.1500 -0.0896
22675SOL    HW171430   9.135   5.402   1.518 -0.1973  3.1922  1.7143
22675SOL    HW271431   9.166   5.308   1.632  1.2942  2.2656  0.5648
22676SOL     OW71432   6.259   4.206   9.714 -0.2316 -0.1102 -0.1050
22676SOL    HW171433   6.315   4.128   9.709  1.7159  1.3075 -1.0468
22676SOL    HW271434   6.262   4.233   9.805  1.2542  0.3973 -0.2993
22677SOL     OW71435   2.238   5.297   8.952 -0.2264  0.1920 -0.2120
22677SOL    HW171436   2.197   5.374   8.992  1.4336  1.4835 -0.9445
22677SOL    HW271437   2.298   5.333   8.887  1.6046 -1.6877  0.3884
22678SOL     OW71438   7.983   1.880   4.455  0.1982 -0.3211  0.8901
22678SOL    HW171439   7.902   1.876   4.505 -1.6828 -0.2013 -2.0130
22678SOL    HW271440   8.002   1.973   4.445 -1.0350 -0.2363 -0.9989
22679SOL     OW71441   9.191   6.100   3.863 -0.2961  0.1083 -0.6676
22679SOL    HW171442   9.107   6.145   3.860 -0.3225  0.3207  2.3285
22679SOL    HW271443   9.169   6.009   3.885  0.1672 -0.1410 -1.2075
22680SOL     OW71444   7.578   5.687   7.180 -0.1821  0.0803 -0.0939
22680SOL    HW171445   7.522   5.699   7.103  0.2018 -0.1478 -0.4099
22680SOL    HW271446   7.521   5.710   7.254 -0.7152 -0.2103 -0.4047
22681SOL     OW71447   5.702   1.559   2.362  0.0469 -0.6061 -0.6746
22681SOL    HW171448   5.671   1.648   2.343 -0.9907 -1.1733 -1.7121
22681SOL    HW271449   5.709   1.555   2.457 -0.0208  0.5404 -0.6168
22682SOL     OW71450   9.170   0.856   7.705 -0.1629  0.6836 -0.0940
22682SOL    HW171451   9.240   0.864   7.641  0.3597 -2.0774  0.0778
22682SOL    HW271452   9.213   0.827   7.785 -1.1797  1.3742  0.7143
22683SOL     OW71453   4.564   4.457   4.294  0.6938 -0.4319  0.0974
22683SOL    HW171454   4.586   4.466   4.202  0.0068 -0.8179 -0.1084
22683SOL    HW271455   4.550   4.363   4.306  1.0274 -0.4121  0.6506
22684SOL     OW71456   3.032   8.029   4.971  0.6079  0.1202  0.0653
22684SOL    HW171457   3.032   8.063   4.881  1.8322  1.1029  0.4186
22684SOL    HW271458   3.012   8.106   5.025  0.5532 -0.3246  0.6796
22685SOL     OW71459   0.614   2.636   5.832 -0.3603  0.4727  0.3669
22685SOL    HW171460   0.539   2.688   5.860 -1.0102  0.7221 -1.7739
22685SOL    HW271461   0.582   2.545   5.834 -1.0096  0.6485 -1.3717
22686SOL     OW71462  10.947   5.721   4.451  0.3642  0.8522  0.0347
22686SOL    HW171463  10.952   5.680   4.364  1.5730  1.4903 -0.2179
22686SOL    HW271464  10.855   5.744   4.462 -0.0729 -0.6447 -0.4135
22687SOL     OW71465   0.349   3.783   2.691 -0.1938 -0.0447 -0.0228
22687SOL    HW171466   0.403   3.732   2.631 -1.5880 -1.6034  0.0187
22687SOL    HW271467   0.271   3.805   2.641  0.1054  1.5278  0.1663
22688SOL     OW71468   8.570   2.283   0.830 -0.4473  0.0542 -0.2187
22688SOL    HW171469   8.622   2.218   0.782 -1.8657 -1.3435  0.0773
22688SOL    HW271470   8.480   2.264   0.804 -0.9258  1.6109  0.2568
22689SOL     OW71471   9.974   9.222   6.696  0.3881 -0.2799 -0.1721
22689SOL    HW171472  10.058   9.175   6.697  0.5159 -0.0601 -0.6338
22689SOL    HW271473   9.910   9.157   6.670  0.4148 -0.4467  0.1676
22690SOL     OW71474   9.842   2.437   9.245  0.0686  0.0531 -0.0223
22690SOL    HW171475   9.913   2.428   9.309  1.5430  0.0691 -1.6246
22690SOL    HW271476   9.827   2.347   9.215  0.3344  0.2251 -0.6655
22691SOL     OW71477   2.680   6.344   1.776  0.8322 -0.0678 -0.0510
22691SOL    HW171478   2.591   6.377   1.781  0.2133 -1.7623  0.4439
22691SOL    HW271479   2.735   6.415   1.810 -0.4097  0.6079  0.5476
22692SOL     OW71480   0.496   3.995   6.164 -0.5616 -0.2117 -0.1006
22692SOL    HW171481   0.432   4.054   6.204 -0.6131  0.9576 -1.8408
22692SOL    HW271482   0.579   4.042   6.170 -0.8089  0.6353 -2.5894
22693SOL     OW71483   9.979   6.728   3.215  0.1746 -0.7945  0.0776
22693SOL    HW171484  10.046   6.760   3.276 -0.9700  0.5522  0.6630
22693SOL    HW271485   9.898   6.726   3.267 -0.4376 -1.4871 -0.8755
22694SOL     OW71486   1.398   0.367   8.400  0.0926  0.3441  1.2074
22694SOL    HW171487   1.493   0.380   8.395 -0.0180  1.1405  1.0689
22694SOL    HW271488   1.380   0.293   8.343  0.5849  0.4545  0.9106
22695SOL     OW71489   0.091   1.212   0.363 -0.5310  0.0943  0.1860
22695SOL    HW171490   0.166   1.269   0.377  1.6575 -2.4959 -0.6251
22695SOL    HW271491   0.087   1.158   0.442 -3.0701  1.7771  1.3057
22696SOL     OW71492   8.446  10.397   5.563  0.2596  0.5362 -0.1783
22696SOL    HW171493   8.493  10.471   5.525  1.2209 -0.2512 -0.5376
22696SOL    HW271494   8.447  10.330   5.495  0.7450 -0.3646  0.7032
22697SOL     OW71495   9.554   8.246   0.541  0.3065 -0.2632 -0.6402
22697SOL    HW171496   9.517   8.173   0.491 -0.2944  1.4080 -2.7246
22697SOL    HW271497   9.503   8.248   0.622 -0.4724 -1.4028 -1.0889
22698SOL     OW71498   3.623   3.269  10.885  0.9718 -0.1212 -0.2202
22698SOL    HW171499   3.587   3.205  10.947  0.3568 -2.3432 -2.8012
22698SOL    HW271500   3.558   3.274  10.815  3.1760 -0.1177 -2.3177
22699SOL     OW71501   9.917   1.750   7.014  0.1033  0.3083  0.6854
22699SOL    HW171502   9.913   1.812   6.941  1.3692 -1.3518 -0.8353
22699SOL    HW271503   9.975   1.792   7.078 -1.1667  1.8585  0.8545
22700SOL     OW71504   4.423   1.079   9.773 -0.9454 -0.6575 -0.1009
22700SOL    HW171505   4.505   1.035   9.750  0.6472  0.9330  2.3288
22700SOL    HW271506   4.387   1.109   9.690  0.9990 -1.2407 -1.1724
22701SOL     OW71507   7.215   0.765   5.442  0.6364  0.0475 -0.7028
22701SOL    HW171508   7.210   0.669   5.448  0.1059  0.1118 -0.1579
22701SOL    HW271509   7.285   0.789   5.503 -1.2693  0.2552  1.4805
22702SOL     OW71510  10.881   6.469   0.742  0.0429  0.0706 -0.1544
22702SOL    HW171511  10.935   6.514   0.677 -1.0005 -2.6761 -3.0411
22702SOL    HW271512  10.944   6.421   0.796  0.7899  0.8850 -0.2794
22703SOL     OW71513   8.023   5.151   6.728  0.1153 -0.2647  0.7151
22703SOL    HW171514   8.034   5.151   6.632 -1.1791 -0.3399  0.5567
22703SOL    HW271515   8.080   5.221   6.759 -0.2760  0.4792 -0.2185
22704SOL     OW71516   8.249   3.705   1.404 -0.0021  0.3264  0.4545
22704SOL    HW171517   8.218   3.618   1.428 -1.8368  0.7748 -0.1709
22704SOL    HW271518   8.238   3.709   1.309 -0.2964  1.3699  0.5220
22705SOL     OW71519   4.498   9.877  10.152  0.0648 -0.7086 -0.0104
22705SOL    HW171520   4.578   9.925  10.132 -0.1316 -0.6503 -0.6797
22705SOL    HW271521   4.443   9.941  10.199  1.1241 -1.3060  2.0753
22706SOL     OW71522   0.369   8.204   5.915  0.0626 -0.3688  0.6830
22706SOL    HW171523   0.437   8.157   5.867 -0.7888 -1.5982  0.6691
22706SOL    HW271524   0.367   8.291   5.875  0.5820 -0.8119 -0.3171
22707SOL     OW71525   1.265   6.712   2.985 -0.0265  0.6566 -0.1695
22707SOL    HW171526   1.279   6.805   2.997  0.6748  0.5157  0.0681
22707SOL    HW271527   1.253   6.702   2.890  3.4672  0.5120 -0.6652
22708SOL     OW71528   9.542   0.421   2.411  0.0032  0.6564 -0.0585
22708SOL    HW171529   9.588   0.496   2.374 -0.8272  0.7436 -0.9201
22708SOL    HW271530   9.455   0.424   2.372 -0.5758  0.1915  1.1625
22709SOL     OW71531   4.220   6.140   8.145 -0.0615  0.3614  0.1741
22709SOL    HW171532   4.251   6.050   8.139 -0.4085  0.2132  0.5631
22709SOL    HW271533   4.297   6.191   8.169 -0.1928 -0.0547  1.4816
22710SOL     OW71534   4.529   8.069   5.170  0.0374  0.1357  0.5277
22710SOL    HW171535   4.560   8.037   5.255 -0.9854  0.9336  1.2176
22710SOL    HW271536   4.463   8.005   5.142 -0.0567  0.1897  0.6230
22711SOL     OW71537   5.351   7.669   3.416  0.2563 -0.3822  1.0076
22711SOL    HW171538   5.381   7.595   3.469  0.2145 -0.1680  1.3256
22711SOL    HW271539   5.272   7.700   3.460 -1.0500 -1.6120 -0.4135
22712SOL     OW71540  10.416  10.304  10.273  0.2454 -0.2952 -0.5595
22712SOL    HW171541  10.416  10.360  10.196  0.5033  3.0818  1.7797
22712SOL    HW271542  10.480  10.236  10.253 -0.2722  0.0343 -3.6043
22713SOL     OW71543   4.710   1.128   0.007 -0.3803  0.1868 -0.2659
22713SOL    HW171544   4.698   1.214   0.048 -0.7910  0.0301 -0.0534
22713SOL    HW271545   4.764   1.079   0.069  1.0431  0.7459 -1.0225
22714SOL     OW71546   7.267   4.496  10.705  0.2294  0.0023  0.2091
22714SOL    HW171547   7.261   4.590  10.689 -2.9017 -0.2552 -0.4882
22714SOL    HW271548   7.322   4.462  10.634  0.3682  1.1678 -0.2412
22715SOL     OW71549  10.632   5.245   9.273  0.2077  0.0151 -0.7035
22715SOL    HW171550  10.697   5.310   9.300  1.9317 -1.1821 -1.7762
22715SOL    HW271551  10.578   5.290   9.208  1.3242  0.4364 -1.3693
22716SOL     OW71552   9.841   5.219   5.122  0.0398  0.5695  0.5320
22716SOL    HW171553   9.827   5.296   5.067 -0.4937 -0.2074 -0.4343
22716SOL    HW271554   9.926   5.185   5.095 -1.9351 -2.1160 -2.7022
22717SOL     OW71555  10.539   2.279   8.646  0.1622  1.1615  0.5762
22717SOL    HW171556  10.615   2.331   8.671  1.7808 -0.8077 -0.1035
22717SOL    HW271557  10.572   2.189   8.644 -1.8725  0.4195 -0.9843
22718SOL     OW71558   8.772   1.323   2.841  0.2116 -0.3691 -0.1689
22718SOL    HW171559   8.696   1.292   2.891  0.3793 -0.2744  0.1499
22718SOL    HW271560   8.736   1.387   2.779  0.3460  1.4628  1.5908
22719SOL     OW71561   7.649   7.847   1.708 -0.2803  0.0566  0.1508
22719SOL    HW171562   7.557   7.871   1.701 -0.1035  1.0388  1.0918
22719SOL    HW271563   7.674   7.871   1.797  1.7719  2.9738 -1.1457
22720SOL     OW71564   3.916   7.425   8.816 -0.1942 -0.3383  0.2591
22720SOL    HW171565   3.932   7.517   8.795 -0.6545 -0.1164  0.8607
22720SOL    HW271566   3.822   7.420   8.835 -0.3070 -1.0723 -0.4720
22721SOL     OW71567   1.669   0.374   0.183  0.0076  0.0095  0.3420
22721SOL    HW171568   1.719   0.455   0.181 -2.1776  1.3699 -1.2931
22721SOL    HW271569   1.660   0.353   0.276  2.3683  0.4756  0.7041
22722SOL     OW71570   0.527   3.101   8.982  0.5623 -0.1220 -0.0882
22722SOL    HW171571   0.443   3.146   8.973  0.0789 -0.8949  0.4937
22722SOL    HW271572   0.583   3.164   9.028  0.6292  0.7947 -1.4099
22723SOL     OW71573   3.173   8.481   8.415  0.1059 -0.0570  0.2290
22723SOL    HW171574   3.109   8.499   8.347  1.0545  1.1030 -0.3749
22723SOL    HW271575   3.187   8.565   8.459  0.5089 -0.4995  0.9751
22724SOL     OW71576   7.308   9.219   5.413  0.1174 -0.7583  0.2120
22724SOL    HW171577   7.362   9.192   5.487  0.0466  2.9391  1.7135
22724SOL    HW271578   7.341   9.305   5.389 -1.5537 -0.7969 -2.4231
22725SOL     OW71579   9.706   8.453   0.740 -0.8094 -0.2496 -0.3964
22725SOL    HW171580   9.643   8.477   0.672  0.8957  0.8019 -1.6576
22725SOL    HW271581   9.767   8.394   0.696 -0.0899 -0.1094  0.4103
22726SOL     OW71582   3.351   2.808   5.770  0.1600  0.1387 -0.4516
22726SOL    HW171583   3.402   2.831   5.693  1.1386  0.8076  0.3772
22726SOL    HW271584   3.260   2.809   5.741  0.4304  1.7109 -1.2631
22727SOL     OW71585   1.338   2.456   6.567 -0.0201 -0.3903  0.4052
22727SOL    HW171586   1.421   2.421   6.533 -0.8188 -0.6934 -1.2688
22727SOL    HW271587   1.364   2.533   6.618  1.2401  0.1173 -0.9397
22728SOL     OW71588   4.604   8.917   4.469 -0.3221 -0.0035  0.0901
22728SOL    HW171589   4.601   8.969   4.549 -0.5086 -0.0346  0.1030
22728SOL    HW271590   4.585   8.979   4.399  1.5702  0.3920 -0.1075
22729SOL     OW71591   7.818   6.373   4.903  0.0642 -0.6091 -0.2467
22729SOL    HW171592   7.887   6.369   4.969 -0.6558  0.3594  0.5711
22729SOL    HW271593   7.830   6.293   4.851 -0.0162 -1.9093  1.6939
22730SOL     OW71594   3.657   3.963   9.929 -0.3583  0.0807  0.2305
22730SOL    HW171595   3.744   3.927   9.918 -0.4258  0.0903 -0.3331
22730SOL    HW271596   3.610   3.898   9.982  0.8035  1.3285  2.9161
22731SOL     OW71597   4.514   5.530   9.221  0.2183  0.4308 -0.1783
22731SOL    HW171598   4.462   5.563   9.295 -1.8327 -0.2583 -1.3020
22731SOL    HW271599   4.595   5.499   9.262 -0.8316  0.1651  1.7863
22732SOL     OW71600  10.257   2.316   3.423 -0.3932 -0.0743  0.3221
22732SOL    HW171601  10.292   2.297   3.511 -0.3318 -1.4678  0.0096
22732SOL    HW271602  10.335   2.320   3.367 -0.6214 -1.8661 -0.1406
22733SOL     OW71603   8.219   9.501   7.312 -0.0112 -0.2449  0.0035
22733SOL    HW171604   8.144   9.474   7.365  1.4595 -1.4888  1.5087
22733SOL    HW271605   8.247   9.584   7.352 -1.3111  0.8685 -1.3367
22734SOL     OW71606   8.682   8.701   6.665  0.6110  0.3553  0.1790
22734SOL    HW171607   8.749   8.652   6.617  2.3202  3.8435 -1.1441
22734SOL    HW271608   8.698   8.680   6.757  0.9262 -1.9590 -0.3831
22735SOL     OW71609   1.881   2.967   8.194  0.2599 -0.1463 -0.3650
22735SOL    HW171610   1.796   3.011   8.198 -0.2949 -1.4193  2.4495
22735SOL    HW271611   1.945   3.038   8.205 -0.5951  0.1617  2.9933
22736SOL     OW71612   1.769   5.756   0.030  0.0365  0.0918  0.1858
22736SOL    HW171613   1.805   5.713  -0.048 -0.0341  1.6315 -0.7106
22736SOL    HW271614   1.840   5.809   0.064 -0.0696 -0.2396  0.9298
22737SOL     OW71615   9.401   9.353   8.573 -0.0699 -0.0201  0.1309
22737SOL    HW171616   9.329   9.406   8.608  0.5779  0.8852  0.0962
22737SOL    HW271617   9.480   9.404   8.592  0.5694 -1.0168  0.1823
22738SOL     OW71618  10.141   5.898   4.778  0.3009 -0.2186  0.0778
22738SOL    HW171619  10.189   5.903   4.861 -0.0487  0.2594  0.2547
22738SOL    HW271620  10.068   5.838   4.796 -0.1183  0.3524  0.2924
22739SOL     OW71621   6.960   0.687   7.649  0.3517 -0.7954 -0.2237
22739SOL    HW171622   6.867   0.682   7.670  0.9922  0.2329  3.2169
22739SOL    HW271623   6.969   0.768   7.599 -0.4512 -0.2529  0.4944
22740SOL     OW71624   6.971   7.609   7.073  0.4276  0.3424 -0.1045
22740SOL    HW171625   6.892   7.610   7.126  1.6812  1.6557  1.8006
22740SOL    HW271626   7.012   7.524   7.090  0.0246  0.1359 -0.1766
22741SOL     OW71627   5.172   4.714   6.875 -0.2085 -0.4919 -0.4148
22741SOL    HW171628   5.201   4.628   6.906  0.4988 -0.0197  0.2512
22741SOL    HW271629   5.247   4.748   6.826 -0.4244 -0.1871 -0.5369
22742SOL     OW71630   1.736   9.477   1.052 -0.0807  1.4098  0.5919
22742SOL    HW171631   1.821   9.435   1.054 -0.6379  0.2900  1.0329
22742SOL    HW271632   1.751   9.559   1.005  0.9449  0.5807 -0.5570
22743SOL     OW71633   9.340  10.335   7.788  0.1773  0.2752 -0.1055
22743SOL    HW171634   9.314  10.316   7.697  0.9700  2.8316 -0.9030
22743SOL    HW271635   9.433  10.311   7.791  0.3033  0.7668 -0.1386
22744SOL     OW71636   7.111   4.358   5.139 -0.4406  0.0889 -0.3730
22744SOL    HW171637   7.181   4.346   5.075 -0.6521  0.6793 -0.7261
22744SOL    HW271638   7.090   4.452   5.134 -1.2267 -0.0723 -0.2533
22745SOL     OW71639  10.213   2.901   5.964 -0.3919  0.1929  0.0770
22745SOL    HW171640  10.283   2.931   6.023 -0.8563  2.5607 -0.5316
22745SOL    HW271641  10.257   2.837   5.907  1.6004  2.4924 -1.0548
22746SOL     OW71642   7.157   8.615   5.391 -0.1881 -0.8714  0.1409
22746SOL    HW171643   7.082   8.617   5.331 -0.5982  0.5693  0.6719
22746SOL    HW271644   7.218   8.679   5.353  0.5785 -1.7135 -0.0436
22747SOL     OW71645   5.438   4.300   2.211  0.1452  0.0736  0.1787
22747SOL    HW171646   5.346   4.301   2.183 -1.0604 -1.5666  3.8000
22747SOL    HW271647   5.475   4.380   2.173 -2.3259 -0.0301 -2.6619
22748SOL     OW71648   5.045   7.916   9.377  0.0645 -0.0828  0.3174
22748SOL    HW171649   5.095   7.871   9.445  1.1135 -1.2181 -1.1749
22748SOL    HW271650   5.076   8.007   9.382 -0.4540  0.0390  1.8599
22749SOL     OW71651   6.471   2.203   1.656 -0.1681  0.5298  0.1258
22749SOL    HW171652   6.386   2.180   1.693 -0.1995 -0.1191 -0.3524
22749SOL    HW271653   6.451   2.244   1.572 -0.0720  1.5788  0.6022
22750SOL     OW71654   1.150   5.316   5.034  0.2758  0.0180 -0.0545
22750SOL    HW171655   1.126   5.408   5.027 -0.2094  0.0030  1.2347
22750SOL    HW271656   1.121   5.290   5.122 -0.9648 -1.7628 -0.9471
22751SOL     OW71657   3.803   1.532   2.727 -0.0709 -0.6495  0.5064
22751SOL    HW171658   3.848   1.603   2.774  0.1946 -1.6825  1.8414
22751SOL    HW271659   3.862   1.511   2.654 -0.6871  1.2618 -0.5936
22752SOL     OW71660   1.761   2.356   2.102 -0.0830 -0.1919 -0.2702
22752SOL    HW171661   1.701   2.286   2.128  0.4082 -0.0102  1.4713
22752SOL    HW271662   1.709   2.413   2.046 -1.4168 -0.2973  0.8296
22753SOL     OW71663   2.114   1.689   6.717  0.0080 -0.2683 -0.0771
22753SOL    HW171664   2.034   1.714   6.763  1.0466  0.7786  1.1918
22753SOL    HW271665   2.132   1.762   6.658  0.5714 -0.0423  0.3663
22754SOL     OW71666   8.412   0.660   1.376 -0.1726  0.1780  0.5016
22754SOL    HW171667   8.404   0.748   1.338  1.2189 -0.1008 -0.4547
22754SOL    HW271668   8.479   0.669   1.444 -0.0192 -0.1593  0.3923
22755SOL     OW71669  10.521   5.697   8.933 -0.2880 -0.0824 -0.0145
22755SOL    HW171670  10.511   5.792   8.922 -2.9605 -0.6692 -3.2474
22755SOL    HW271671  10.511   5.661   8.845  0.1249 -3.4424  1.2455
22756SOL     OW71672   1.010   8.584   3.569 -0.4938  0.0379 -0.8204
22756SOL    HW171673   1.054   8.585   3.653 -2.8494  0.0183  0.4548
22756SOL    HW271674   1.000   8.677   3.546 -1.9352  0.1220  0.0781
22757SOL     OW71675   9.007   2.680   1.326 -0.1694 -0.0728  0.0721
22757SOL    HW171676   8.941   2.729   1.275  1.1723  1.0600 -0.6037
22757SOL    HW271677   8.971   2.678   1.414 -1.1599  0.4748 -0.3036
22758SOL     OW71678   5.384   1.010   0.811 -0.2882  0.4628  0.8320
22758SOL    HW171679   5.297   1.051   0.819  0.1688  1.0571  3.4384
22758SOL    HW271680   5.441   1.081   0.782 -0.2535  0.6980  1.4511
22759SOL     OW71681   7.268   3.229   7.764 -0.1718  0.2375 -0.1961
22759SOL    HW171682   7.291   3.161   7.702  0.1452 -0.1711  0.3604
22759SOL    HW271683   7.352   3.266   7.792 -0.3291  0.6797 -0.3085
22760SOL     OW71684   0.586  10.230   2.970 -0.5116 -0.1781  0.2360
22760SOL    HW171685   0.588  10.315   3.014  1.1036 -0.9979  1.8252
22760SOL    HW271686   0.507  10.187   3.004 -2.0036  1.1155 -1.4862
22761SOL     OW71687   9.648   0.605   2.767 -0.2136  0.3382 -0.4404
22761SOL    HW171688   9.737   0.633   2.746  0.0202  1.7058  2.1702
22761SOL    HW271689   9.651   0.510   2.762  0.9258  0.4361 -2.0552
22762SOL     OW71690   1.089   5.121   4.847  0.1882  0.2055 -0.7500
22762SOL    HW171691   1.101   5.197   4.904  0.4400 -0.4605  0.0972
22762SOL    HW271692   1.157   5.060   4.876 -1.0426 -0.9852 -0.3400
22763SOL     OW71693  10.124  10.288   6.833  0.2826 -0.1606  0.5279
22763SOL    HW171694  10.206  10.333   6.856  0.1062  0.3831  0.1021
22763SOL    HW271695  10.138  10.197   6.861  0.2623  0.3683  2.3518
22764SOL     OW71696   5.975   4.334   6.072 -0.0304  0.4997  1.0516
22764SOL    HW171697   5.955   4.400   6.005  1.2198  0.5473  0.7144
22764SOL    HW271698   6.065   4.353   6.098  0.4544 -1.3021  0.7196
22765SOL     OW71699  10.824   1.992   6.793 -0.4713 -0.4088 -0.0934
22765SOL    HW171700  10.848   1.941   6.871 -1.2682 -3.0532 -1.5045
22765SOL    HW271701  10.888   2.063   6.791  1.8452 -2.3784  0.9906
22766SOL     OW71702   3.660   6.407   8.973  0.3473  0.0890 -0.6298
22766SOL    HW171703   3.613   6.369   8.899 -0.3683 -0.0633 -0.1017
22766SOL    HW271704   3.592   6.438   9.032  0.9048 -0.0290  0.0946
22767SOL     OW71705   2.535   2.842   9.136 -0.4874 -0.5581  0.2088
22767SOL    HW171706   2.591   2.795   9.073  0.1065  1.0280 -0.4788
22767SOL    HW271707   2.447   2.834   9.100 -0.8118 -3.3529  1.4668
22768SOL     OW71708   0.538   7.719   1.322 -0.1772  0.1212 -0.4994
22768SOL    HW171709   0.482   7.772   1.265 -0.1725  0.0888 -0.5349
22768SOL    HW271710   0.525   7.755   1.409 -1.7122 -1.0894 -0.2079
22769SOL     OW71711   4.771   2.938   2.875 -0.0037 -0.1655  0.2836
22769SOL    HW171712   4.786   2.941   2.970  0.7800  1.3789  0.1089
22769SOL    HW271713   4.827   2.866   2.844 -1.0701 -1.3910  1.1232
22770SOL     OW71714   7.192   6.631   5.429  0.1740 -0.3699  0.4376
22770SOL    HW171715   7.275   6.585   5.444  0.1059 -0.2418  1.2670
22770SOL    HW271716   7.214   6.698   5.364  0.3961 -1.2238 -0.3604
22771SOL     OW71717   4.206  10.078   3.454 -0.0041 -0.2750  0.3077
22771SOL    HW171718   4.202  10.044   3.544 -0.1006 -0.7917  0.1105
22771SOL    HW271719   4.205  10.173   3.464  1.3643 -0.3160  0.9254
22772SOL     OW71720   6.410   5.533   6.243  0.0523  1.0242 -0.3125
22772SOL    HW171721   6.456   5.607   6.204  1.1517  0.0207 -0.9628
22772SOL    HW271722   6.417   5.548   6.337  1.8450  0.8246 -0.3951
22773SOL     OW71723   9.554   4.444   0.532  0.1886 -0.3756  0.4067
22773SOL    HW171724   9.475   4.411   0.573 -1.5722  3.7516  0.6192
22773SOL    HW271725   9.612   4.467   0.605 -0.1969  0.6123  0.4140
22774SOL     OW71726   4.726  10.386  10.720 -0.0524 -0.1595  0.4058
22774SOL    HW171727   4.697  10.295  10.710  1.1221 -0.4672 -0.4601
22774SOL    HW271728   4.770  10.388  10.805 -1.9707  0.1513  1.4217
22775SOL     OW71729   7.295   9.501   4.560 -0.2272 -0.1649  0.0428
22775SOL    HW171730   7.250   9.500   4.476  2.1962 -0.0269 -1.2786
22775SOL    HW271731   7.261   9.579   4.605 -3.3430 -1.5558  0.2646
22776SOL     OW71732   7.764   9.831   0.767  0.1333  0.3226 -0.3870
22776SOL    HW171733   7.681   9.839   0.720 -1.4461 -2.1094  1.8949
22776SOL    HW271734   7.747   9.870   0.853  0.6596 -2.1472  0.8738
22777SOL     OW71735   5.063   2.671   0.440 -0.2717  0.2097 -0.7653
22777SOL    HW171736   5.144   2.645   0.395 -0.9095  0.8708 -2.3531
22777SOL    HW271737   5.016   2.589   0.455 -0.0162 -0.0324 -1.2610
22778SOL     OW71738   3.794   9.609   2.367 -0.2090 -0.2267 -0.0850
22778SOL    HW171739   3.792   9.515   2.387  0.7895 -0.0816  0.6994
22778SOL    HW271740   3.883   9.637   2.390 -0.2914  0.7764 -0.9478
22779SOL     OW71741   6.087   0.137   4.107 -0.3440  0.1678  0.1582
22779SOL    HW171742   6.057   0.211   4.055  0.3547  1.2990  1.3696
22779SOL    HW271743   6.006   0.099   4.143 -0.7932 -0.3685 -1.3928
22780SOL     OW71744   3.909   1.938   0.634 -0.5157 -0.0141  1.1723
22780SOL    HW171745   3.893   1.897   0.719  0.6514  1.3578  2.0739
22780SOL    HW271746   3.993   1.902   0.606 -0.8299 -0.3559  0.6535
22781SOL     OW71747   9.453   1.048   2.672  0.2710 -0.3071  0.2138
22781SOL    HW171748   9.470   1.084   2.585 -1.1277 -0.7253 -0.2419
22781SOL    HW271749   9.438   1.125   2.727  1.4599 -0.0303  0.1522
22782SOL     OW71750   7.032   9.602   8.316 -0.1344 -0.1633 -0.0504
22782SOL    HW171751   7.103   9.538   8.313  0.0778 -0.0293  1.5088
22782SOL    HW271752   6.952   9.550   8.316  0.0567 -0.5644  2.9452
22783SOL     OW71753   2.932   2.610   3.618  0.1394  0.8512 -0.0936
22783SOL    HW171754   2.945   2.703   3.602 -1.5709  1.0663 -0.2656
22783SOL    HW271755   2.912   2.573   3.533  1.0856  0.2599 -0.0735
22784SOL     OW71756   5.422   9.288   1.504 -0.1536 -0.1400 -0.2262
22784SOL    HW171757   5.492   9.291   1.569 -0.5961  0.2120  0.2413
22784SOL    HW271758   5.459   9.333   1.427 -0.2568  1.0582  0.4050
22785SOL     OW71759   8.778   2.490   8.506 -0.1664 -0.0077 -0.2154
22785SOL    HW171760   8.815   2.404   8.484  2.7163  1.1818 -0.1926
22785SOL    HW271761   8.684   2.479   8.493  0.1594 -3.1417 -0.3091
22786SOL     OW71762   7.162   1.433   2.539  0.2303  0.1737  0.3052
22786SOL    HW171763   7.118   1.436   2.624 -0.8251 -2.0729 -0.1345
22786SOL    HW271764   7.246   1.478   2.555 -1.1838  2.4663  1.7289
22787SOL     OW71765  10.675   7.082   1.005 -0.2243 -0.0107 -0.1830
22787SOL    HW171766  10.700   7.172   1.022  1.4397 -0.7767  1.5752
22787SOL    HW271767  10.584   7.076   1.034  0.1228  0.7314  1.0984
22788SOL     OW71768   0.891   4.836   8.703 -0.4516 -0.4275  0.5070
22788SOL    HW171769   0.900   4.743   8.724  0.3687  0.3005  3.5706
22788SOL    HW271770   0.828   4.869   8.766  3.0699  2.1351  2.8701
22789SOL     OW71771   3.200   8.235   0.520  0.0752 -0.1839 -0.4493
22789SOL    HW171772   3.248   8.259   0.441 -0.3794  1.5801 -0.2128
22789SOL    HW271773   3.245   8.158   0.553  1.1932 -0.0399 -1.6078
22790SOL     OW71774   1.919   9.468   5.262  0.8445  0.1361  0.3591
22790SOL    HW171775   1.839   9.516   5.283  0.8485  0.1070  0.4428
22790SOL    HW271776   1.928   9.404   5.333  0.1229 -0.8771 -0.4606
22791SOL     OW71777   6.008   1.480   8.091  0.0552 -0.0947 -0.2138
22791SOL    HW171778   6.041   1.393   8.070  1.4451  0.2804  0.3531
22791SOL    HW271779   5.974   1.472   8.181 -0.2050 -0.1503 -0.3159
22792SOL     OW71780   2.525   3.469  10.467 -0.1185 -0.2873  0.0426
22792SOL    HW171781   2.550   3.516  10.388 -1.9340 -0.1688 -0.4981
22792SOL    HW271782   2.587   3.396  10.473  0.4601  0.1036 -1.1113
22793SOL     OW71783   9.264   6.389   4.424 -0.1812 -0.6049  0.3462
22793SOL    HW171784   9.297   6.425   4.342 -0.9406  0.1860  0.3813
22793SOL    HW271785   9.332   6.409   4.489  0.4312 -1.2539 -0.0842
22794SOL     OW71786   7.885   2.778   4.962  0.3303 -0.3319 -0.5412
22794SOL    HW171787   7.852   2.826   4.886  1.3597 -0.6416 -1.1930
22794SOL    HW271788   7.880   2.841   5.034 -1.6507 -0.3741 -0.6211
22795SOL     OW71789   2.504   4.556   1.311  0.2923  0.2562 -0.4584
22795SOL    HW171790   2.435   4.528   1.371 -0.6701 -1.6951 -2.4248
22795SOL    HW271791   2.586   4.535   1.356 -0.3870  1.2111  1.2512
22796SOL     OW71792   9.470   5.748   9.645 -0.2047 -0.6853 -0.1118
22796SOL    HW171793   9.485   5.808   9.572  5.1123 -1.3114  0.2681
22796SOL    HW271794   9.480   5.803   9.723  1.3447 -1.3881  0.1960
22797SOL     OW71795   6.443   4.280   4.440 -0.2597  0.0508 -0.1328
22797SOL    HW171796   6.395   4.339   4.497  0.5789  0.5590  0.0693
22797SOL    HW271797   6.446   4.197   4.487 -0.6615  0.1060 -0.0116
22798SOL     OW71798   2.278   0.013   9.784 -0.5843 -0.2301 -0.3774
22798SOL    HW171799   2.208   0.078   9.783  0.5949  1.0623 -0.2857
22798SOL    HW271800   2.315   0.019   9.872  2.0698  1.7918 -1.5403
22799SOL     OW71801   1.132   6.435   8.580  0.2782 -0.4174  0.4179
22799SOL    HW171802   1.210   6.389   8.610  0.4029  0.2179  1.0713
22799SOL    HW271803   1.156   6.528   8.581 -0.1460 -0.2914 -0.3766
22800SOL     OW71804   9.904   7.972   5.885 -0.3126  0.0537  0.1232
22800SOL    HW171805   9.814   7.963   5.854 -0.4680 -0.2814  0.6637
22800SOL    HW271806   9.948   8.021   5.816 -1.0006  0.5438  0.0238
22801SOL     OW71807   0.651  10.758   5.928 -0.6737 -0.2413 -0.6662
22801SOL    HW171808   0.623  10.760   6.020  0.8978 -0.9670 -0.1578
22801SOL    HW271809   0.747  10.768   5.932 -0.7829  1.9205 -2.3443
22802SOL     OW71810   7.901   1.484   0.937 -0.4262 -0.0946  0.1636
22802SOL    HW171811   7.950   1.538   0.999 -1.6594  0.7855  0.3929
22802SOL    HW271812   7.812   1.518   0.942 -1.0450 -1.6400 -0.2873
22803SOL     OW71813  10.393   4.497   3.580  0.1572 -0.4716  0.4424
22803SOL    HW171814  10.390   4.441   3.658 -2.9131 -0.0707  0.6909
22803SOL    HW271815  10.430   4.579   3.611  1.6263 -1.2516  0.8111
22804SOL     OW71816   8.053   8.282  10.812 -0.5672 -0.4298  0.4211
22804SOL    HW171817   8.035   8.230  10.734 -0.9989 -0.8615  0.8014
22804SOL    HW271818   8.136   8.326  10.794 -0.0926 -1.4204  0.1819
22805SOL     OW71819   1.094  10.481   8.113  0.0864 -0.6906  0.6095
22805SOL    HW171820   1.023  10.475   8.177  0.5655 -0.7309  1.1407
22805SOL    HW271821   1.137  10.564   8.132  0.0762 -0.5855  0.1798
22806SOL     OW71822   4.783   2.251  10.458  0.0329 -0.1639 -0.3460
22806SOL    HW171823   4.858   2.311  10.461  0.3092 -0.4873 -0.7969
22806SOL    HW271824   4.805   2.188  10.389  0.4727 -1.7822  1.2402
22807SOL     OW71825   3.790   7.150   6.626  0.1163 -0.1377 -0.1030
22807SOL    HW171826   3.712   7.181   6.579 -0.0761 -0.7298 -0.1832
22807SOL    HW271827   3.778   7.182   6.716 -1.8912 -3.0146  0.7411
22808SOL     OW71828   5.201   1.292  10.407  0.4813  0.5227  0.0226
22808SOL    HW171829   5.152   1.243  10.473  3.3657 -3.5269 -0.6865
22808SOL    HW271830   5.288   1.303  10.446  1.4078  0.4887 -1.9780
22809SOL     OW71831   9.241   6.774   1.656 -0.1529 -0.0665  0.5905
22809SOL    HW171832   9.216   6.760   1.748 -0.6793 -2.2144  0.1474
22809SOL    HW271833   9.188   6.849   1.628 -0.0368  0.5594  2.0168
22810SOL     OW71834  10.926   0.026   0.773 -0.6099  0.4674 -0.2541
22810SOL    HW171835  10.839   0.012   0.809 -0.3586  0.3752  0.3227
22810SOL    HW271836  10.971  -0.057   0.785 -0.1272  0.8098  0.3446
22811SOL     OW71837   6.052   4.308   6.766 -0.2602 -0.3967  0.5850
22811SOL    HW171838   6.068   4.219   6.797 -1.6605 -0.5754  0.8013
22811SOL    HW271839   6.071   4.304   6.672  1.9423 -0.3531  1.0027
22812SOL     OW71840   0.777   0.906   6.491  0.4920  0.6987 -0.2045
22812SOL    HW171841   0.862   0.862   6.484 -0.1311 -0.5032 -0.4092
22812SOL    HW271842   0.720   0.840   6.529 -1.2525  0.2797 -3.4210
22813SOL     OW71843  10.418   2.702  10.525  0.3452  0.9396  0.3717
22813SOL    HW171844  10.411   2.796  10.513  1.6017  0.7954 -1.9315
22813SOL    HW271845  10.475   2.673  10.454 -0.6014 -1.6652  0.5979
22814SOL     OW71846   8.529   4.269   6.184  0.2626  0.4245  0.3552
22814SOL    HW171847   8.500   4.324   6.112  2.2791  0.8022 -0.1973
22814SOL    HW271848   8.532   4.328   6.260 -0.9090  0.2530  0.5469
22815SOL     OW71849   0.152   8.240   2.720 -0.1888 -0.6332 -0.5182
22815SOL    HW171850   0.213   8.308   2.747  1.7108 -1.3401 -2.8689
22815SOL    HW271851   0.173   8.165   2.776  0.7638 -0.6901 -0.9383
22816SOL     OW71852   8.754   4.955   8.268 -0.1081 -0.6967  0.4304
22816SOL    HW171853   8.728   4.950   8.176 -0.4066  0.2134  0.4623
22816SOL    HW271854   8.709   5.033   8.301  1.3944  0.0040  0.8835
22817SOL     OW71855   4.823   2.833   1.422  0.1707 -0.1176 -0.1222
22817SOL    HW171856   4.838   2.754   1.473 -0.1362 -1.3941 -1.9643
22817SOL    HW271857   4.761   2.807   1.355 -0.6098  1.9229 -0.2331
22818SOL     OW71858   0.728   6.346  10.783  0.1919 -0.0765 -0.2359
22818SOL    HW171859   0.652   6.309  10.827  1.5708  0.0627  2.3056
22818SOL    HW271860   0.694   6.423  10.737 -1.3235 -0.4194  0.2904
22819SOL     OW71861   5.044   2.292   9.449  0.0256  0.2510  0.0355
22819SOL    HW171862   5.005   2.253   9.371  1.0504 -0.2092 -0.2645
22819SOL    HW271863   5.135   2.262   9.447  0.0917  0.3525  1.3336
22820SOL     OW71864   7.895   3.232  10.404 -0.5978 -0.0695 -0.4264
22820SOL    HW171865   7.925   3.143  10.383 -1.1571 -0.3763  0.0718
22820SOL    HW271866   7.872   3.270  10.318  1.1755  0.1683 -0.8101
22821SOL     OW71867   9.442   9.898   8.343  0.2061  0.7965  0.0620
22821SOL    HW171868   9.442   9.881   8.249 -2.0665  1.3697 -0.0730
22821SOL    HW271869   9.504   9.834   8.379 -0.5007 -0.8588 -1.5789
22822SOL     OW71870   6.608   6.663   3.691 -0.0614  0.1897 -0.0024
22822SOL    HW171871   6.564   6.691   3.771 -0.9210  1.8665 -1.0419
22822SOL    HW271872   6.539   6.620   3.639  0.6360 -1.4751  0.4087
22823SOL     OW71873   6.326   6.900   4.550  0.0627 -0.4549  0.1531
22823SOL    HW171874   6.348   6.940   4.466  0.1181  0.6107  0.6722
22823SOL    HW271875   6.401   6.845   4.572  1.1073  1.1674  0.6828
22824SOL     OW71876   6.170   6.159  10.562 -0.0124 -0.1959 -0.0851
22824SOL    HW171877   6.095   6.219  10.567  0.8842  0.9907 -0.5801
22824SOL    HW271878   6.230   6.189  10.630  0.1355 -0.9627  0.1231
22825SOL     OW71879   9.926   3.430   9.774  0.5607 -0.3465  0.5900
22825SOL    HW171880   9.974   3.412   9.855  0.4076 -2.2931  0.2708
22825SOL    HW271881   9.834   3.411   9.795  0.4884 -0.6402  0.0262
22826SOL     OW71882   8.410   2.005   4.350  0.1781  0.3081  0.1948
22826SOL    HW171883   8.387   2.038   4.437  0.2631  0.7337  0.0578
22826SOL    HW271884   8.440   1.916   4.366  0.3095  0.4240  0.6203
22827SOL     OW71885   2.911   5.243   0.795 -0.1265 -0.8901 -0.0730
22827SOL    HW171886   2.871   5.162   0.762 -2.9722  0.7107 -0.7786
22827SOL    HW271887   2.864   5.261   0.877 -2.2343  1.9551 -1.7980
22828SOL     OW71888   0.151   8.540  10.025 -0.0981 -0.4453 -0.2380
22828SOL    HW171889   0.072   8.543  10.080  0.3166 -0.4630  0.3606
22828SOL    HW271890   0.220   8.511  10.084  0.9252  2.1345 -0.0887
22829SOL     OW71891   3.717   8.733   2.918 -0.0466 -0.0275 -0.6725
22829SOL    HW171892   3.697   8.704   3.007 -0.8379 -2.0697 -1.4714
22829SOL    HW271893   3.781   8.669   2.886  0.1982  0.6647 -1.5784
22830SOL     OW71894   7.624   1.977   1.057  0.5506  0.4178 -0.2388
22830SOL    HW171895   7.561   1.934   0.999 -0.6986 -0.8010  1.9404
22830SOL    HW271896   7.576   2.051   1.093  1.0308  0.6413 -0.0601
22831SOL     OW71897   5.420   3.700   9.619  0.2005  0.1439  0.3117
22831SOL    HW171898   5.477   3.767   9.657 -0.5956 -0.0266  1.8322
22831SOL    HW271899   5.351   3.749   9.574  0.9698  0.3434 -0.6770
22832SOL     OW71900   7.886   1.969   8.417 -0.8941 -0.1775 -0.0876
22832SOL    HW171901   7.856   2.047   8.370  0.1091  0.1635 -0.1820
22832SOL    HW271902   7.965   1.998   8.464 -0.8955 -0.9640  0.4140
22833SOL     OW71903   6.410   0.218   0.105  0.0341 -0.2832 -0.2950
22833SOL    HW171904   6.317   0.200   0.093 -0.3182  0.5964  0.9875
22833SOL    HW271905   6.412   0.286   0.172  1.6554 -0.9951  0.3798
22834SOL     OW71906   2.434   5.857   0.137 -0.1522 -0.6652 -0.6224
22834SOL    HW171907   2.379   5.873   0.214  0.3070  2.3905 -0.8860
22834SOL    HW271908   2.517   5.825   0.173 -0.3565 -0.4260  0.0690
22835SOL     OW71909   5.644   7.455   1.960 -0.4499 -0.5406  0.0112
22835SOL    HW171910   5.565   7.431   1.910 -0.5588 -0.0525 -0.0567
22835SOL    HW271911   5.715   7.450   1.896 -0.7119  0.9224 -0.4215
22836SOL     OW71912   3.641   8.771   2.117 -0.3793 -0.0334  0.2645
22836SOL    HW171913   3.603   8.856   2.094  0.0446 -0.2072 -1.1261
22836SOL    HW271914   3.601   8.749   2.201 -1.8687  0.6887 -0.2422
22837SOL     OW71915   3.586   4.428   1.464  0.2523  0.3154 -0.2681
22837SOL    HW171916   3.567   4.352   1.519  0.1888 -0.2431 -1.0533
22837SOL    HW271917   3.583   4.394   1.375 -0.0012  1.2867 -0.6369
22838SOL     OW71918  10.061   2.214   5.909 -0.3003 -0.2945  0.4845
22838SOL    HW171919  10.074   2.308   5.894  3.9354 -0.8177  0.4279
22838SOL    HW271920  10.060   2.204   6.004 -1.8564 -0.1083  0.5072
22839SOL     OW71921   3.420   9.472   1.189 -0.5056 -0.4483  0.1941
22839SOL    HW171922   3.490   9.418   1.223 -1.1709 -1.3061  0.2199
22839SOL    HW271923   3.340   9.421   1.204 -0.9157 -0.4206 -1.7396
22840SOL     OW71924   7.401   8.785   8.223  0.6775  0.1244 -0.1647
22840SOL    HW171925   7.438   8.811   8.139 -0.7201  0.6317 -0.6375
22840SOL    HW271926   7.348   8.861   8.250  1.2365  0.0365  1.2508
22841SOL     OW71927   5.140   4.467   4.517  0.5421  0.2643 -0.5128
22841SOL    HW171928   5.208   4.439   4.579 -1.4378 -0.2196  1.5138
22841SOL    HW271929   5.080   4.392   4.512 -0.2380  0.9463 -1.6966
22842SOL     OW71930   0.693  10.645   9.051  0.2102  0.4795  0.0228
22842SOL    HW171931   0.636  10.694   9.110 -0.0224  0.8888 -0.5299
22842SOL    HW271932   0.782  10.668   9.077  0.0919  1.8403 -0.7684
22843SOL     OW71933   0.447   2.789   5.954  0.2316 -0.8544 -0.2296
22843SOL    HW171934   0.446   2.831   6.040 -1.1939  1.1691 -1.1789
22843SOL    HW271935   0.363   2.813   5.915  0.6522 -2.1457 -2.0165
22844SOL     OW71936   7.969   8.773   1.937 -0.1179  0.0760  0.3189
22844SOL    HW171937   7.954   8.811   1.851  2.7073  0.0122 -0.2544
22844SOL    HW271938   7.939   8.683   1.930  2.4091 -0.6915 -1.4454
22845SOL     OW71939   1.625   2.441   4.141  0.4021 -0.4259 -0.1576
22845SOL    HW171940   1.598   2.356   4.177  1.2085 -0.7625 -0.3475
22845SOL    HW271941   1.721   2.440   4.146  0.3716  1.1888  1.4997
22846SOL     OW71942   2.577   1.631   9.948 -0.1431 -0.0050 -0.1199
22846SOL    HW171943   2.520   1.695   9.991  0.7177  0.7733 -0.1223
22846SOL    HW271944   2.527   1.549   9.949 -1.4563  0.7883 -0.5744
22847SOL     OW71945   3.726   1.022  10.957  0.3541  0.1604  0.1077
22847SOL    HW171946   3.708   1.058  11.044 -1.8340 -0.9746  0.1563
22847SOL    HW271947   3.802   1.072  10.926 -0.7887  2.7948  1.3542
22848SOL     OW71948   5.504   7.863   5.440 -0.3698 -0.0072  0.7962
22848SOL    HW171949   5.539   7.800   5.503 -1.6515 -1.9593 -0.3595
22848SOL    HW271950   5.426   7.820   5.405  0.2552  1.0378 -2.0407
22849SOL     OW71951   5.603   3.657  10.584  0.5939  0.2048 -0.1348
22849SOL    HW171952   5.535   3.714  10.622  1.8562  0.9544  1.0616
22849SOL    HW271953   5.556   3.580  10.555 -0.6353  0.2014  1.7501
22850SOL     OW71954   3.718   4.181   4.985 -0.3195 -0.1939  0.3808
22850SOL    HW171955   3.676   4.190   5.071 -1.1839 -0.8542  0.0288
22850SOL    HW271956   3.686   4.256   4.935 -0.1289 -0.0334  0.4951
22851SOL     OW71957   8.645   6.658   3.131 -0.1353 -0.1833 -0.7389
22851SOL    HW171958   8.712   6.651   3.063  0.4335 -1.9779 -0.0345
22851SOL    HW271959   8.694   6.653   3.213 -1.0463 -0.5603 -0.2110
22852SOL     OW71960   7.947   2.228  10.974  0.2320 -0.5599 -0.6281
22852SOL    HW171961   7.995   2.157  11.017 -0.9443 -0.1611  1.4413
22852SOL    HW271962   7.936   2.295  11.042 -0.9436  0.4729 -1.7904
22853SOL     OW71963   7.069   1.225   1.275 -0.2228  0.3926 -0.2924
22853SOL    HW171964   7.114   1.151   1.234  0.5898 -0.2265  1.6580
22853SOL    HW271965   7.004   1.184   1.332  0.8196  1.1529  1.4611
22854SOL     OW71966   8.625   1.060   8.496  0.7658  0.0590  0.6276
22854SOL    HW171967   8.597   1.016   8.577  1.5627 -0.0950  0.8246
22854SOL    HW271968   8.718   1.075   8.509  1.6191 -2.8722 -1.6113
22855SOL     OW71969   6.900   2.258   1.872  0.1791 -0.5607  0.1895
22855SOL    HW171970   6.832   2.292   1.930  0.7580  0.4624  0.2744
22855SOL    HW271971   6.945   2.336   1.839  0.5587 -1.1844 -0.7768
22856SOL     OW71972   7.593   0.578  10.384  0.0264 -0.6168 -0.0920
22856SOL    HW171973   7.629   0.620  10.463  0.0348 -1.2399  0.2358
22856SOL    HW271974   7.586   0.650  10.320  3.9861 -0.8603 -0.9273
22857SOL     OW71975   2.048   6.509   2.562 -0.0259 -0.3345 -0.2483
22857SOL    HW171976   1.975   6.566   2.587 -0.3673 -1.4214  1.3462
22857SOL    HW271977   2.009   6.423   2.550  1.0026 -0.9869  0.8907
22858SOL     OW71978   5.339  10.606   3.169  1.2674  0.5034  0.0819
22858SOL    HW171979   5.415  10.645   3.211  1.9834 -0.4690 -0.3101
22858SOL    HW271980   5.372  10.571   3.086  0.9341 -2.0982  0.9943
22859SOL     OW71981   2.334   0.416   8.187 -1.0404  0.6826 -0.2852
22859SOL    HW171982   2.352   0.509   8.204 -0.6079  0.7412 -1.0233
22859SOL    HW271983   2.239   0.409   8.193 -0.9870  0.9163  1.0023
22860SOL     OW71984   6.020   2.875   2.052  0.3211  0.0199 -0.3594
22860SOL    HW171985   5.962   2.853   2.125  1.0721 -2.6461 -0.5105
22860SOL    HW271986   5.961   2.895   1.980 -0.4220  1.4339  0.6212
22861SOL     OW71987   8.201   1.340   0.935 -0.2284 -0.1794 -0.3220
22861SOL    HW171988   8.114   1.363   0.968 -0.1417  0.3094 -0.4295
22861SOL    HW271989   8.261   1.396   0.985  0.0450 -0.6811 -0.0822
22862SOL     OW71990   3.187   3.387   0.158  0.0168  0.0009  0.5697
22862SOL    HW171991   3.208   3.333   0.234  0.9211 -1.8603 -0.9605
22862SOL    HW271992   3.123   3.451   0.190 -0.8657 -1.8144  2.4865
22863SOL     OW71993   6.354   4.930   8.140  0.4908 -0.0844  0.1265
22863SOL    HW171994   6.439   4.923   8.184  0.0239 -1.1421  0.8802
22863SOL    HW271995   6.357   5.015   8.095  2.2424 -0.4542 -0.4944
22864SOL     OW71996   6.180   1.747   1.745 -0.0018  0.2684  0.3088
22864SOL    HW171997   6.201   1.820   1.687  0.2908  0.0096  0.0931
22864SOL    HW271998   6.101   1.708   1.706  0.9412 -0.7143 -0.6577
22865SOL     OW71999   8.211  10.597   6.215  0.1652  1.0650 -0.2678
22865SOL    HW172000   8.226  10.587   6.121 -1.3414 -0.7860 -0.3441
22865SOL    HW272001   8.188  10.509   6.245  0.5000  1.6551  1.8231
22866SOL     OW72002   9.238   3.009   7.447  0.7281  0.1723 -0.6569
22866SOL    HW172003   9.306   3.018   7.513  0.0320 -0.0852  0.1057
22866SOL    HW272004   9.228   2.914   7.436  0.5595  0.2109 -0.8427
22867SOL     OW72005   1.162   7.254   1.625 -0.0982  0.0318 -0.0838
22867SOL    HW172006   1.214   7.179   1.653  1.0959  1.0433  0.4537
22867SOL    HW272007   1.183   7.323   1.688 -0.1255  1.2379 -1.3762
22868SOL     OW72008  10.794   8.436   9.874  0.1376  0.3018  0.1336
22868SOL    HW172009  10.805   8.494   9.950  0.0963  2.6211 -1.5604
22868SOL    HW272010  10.726   8.374   9.900  0.3410  0.8731  2.0947
22869SOL     OW72011   1.120   1.577   2.785 -0.0170 -0.5399 -0.5692
22869SOL    HW172012   1.212   1.553   2.794  0.1665  0.5937  0.7401
22869SOL    HW272013   1.108   1.593   2.691  1.0993 -0.7127 -0.7464
22870SOL     OW72014   0.709   7.003  10.881 -0.4085  0.0852 -0.0872
22870SOL    HW172015   0.671   6.952  10.953  1.1044  0.3164  0.8921
22870SOL    HW272016   0.800   6.975  10.877 -0.1474  1.0383 -1.0499
22871SOL     OW72017   2.439  10.478   2.459  0.0716 -0.0323  0.1430
22871SOL    HW172018   2.500  10.406   2.476  2.8305  2.1871 -0.0260
22871SOL    HW272019   2.402  10.499   2.545 -0.2725 -1.2024  0.2910
22872SOL     OW72020  10.898   4.063   0.240 -0.2498  0.1368 -0.2295
22872SOL    HW172021  10.992   4.084   0.241  0.0470 -0.9927 -1.7970
22872SOL    HW272022  10.869   4.076   0.330  2.1214 -2.6678  0.9977
22873SOL     OW72023   1.760   4.076   3.630  0.3141 -0.4328  0.0577
22873SOL    HW172024   1.674   4.115   3.644  1.2441  1.8724 -0.5310
22873SOL    HW272025   1.756   4.041   3.541  0.1084 -0.0240 -0.0941
22874SOL     OW72026   0.683   7.046   8.145  0.1916 -0.1853  0.4940
22874SOL    HW172027   0.670   7.077   8.055  0.9977  1.2605  0.8638
22874SOL    HW272028   0.692   6.951   8.136 -0.9893 -0.1929 -0.8118
22875SOL     OW72029   5.873   4.053   7.233  0.1019 -0.4025  0.0408
22875SOL    HW172030   5.958   4.059   7.275 -0.1819  1.1889  0.4103
22875SOL    HW272031   5.891   4.013   7.148  0.8434 -2.5178  1.1610
22876SOL     OW72032   8.904   8.587   9.625  0.0099 -0.7643  0.2624
22876SOL    HW172033   8.813   8.583   9.597 -0.4165  1.7726  1.0978
22876SOL    HW272034   8.899   8.616   9.716  1.6838  0.9344 -0.1582
22877SOL     OW72035  10.205   1.154   6.004  0.3495  0.2412 -0.1990
22877SOL    HW172036  10.163   1.220   6.059  2.2120  1.3616 -0.0737
22877SOL    HW272037  10.203   1.191   5.916 -0.1851 -0.3263 -0.4278
22878SOL     OW72038   7.455   1.702   1.510 -0.0353  0.1550 -0.0789
22878SOL    HW172039   7.459   1.785   1.557  0.1877 -0.3864  0.8813
22878SOL    HW272040   7.439   1.637   1.579  0.6151 -0.6859 -0.7170
22879SOL     OW72041   2.999   8.803   4.404  0.0576  0.9033 -0.1336
22879SOL    HW172042   2.999   8.750   4.483  0.4902  0.4782 -0.4163
22879SOL    HW272043   3.089   8.799   4.371 -0.2534  0.5938 -0.9624
22880SOL     OW72044  10.741   2.812   2.518  0.4617  0.1928  0.0773
22880SOL    HW172045  10.689   2.757   2.577  0.7903  0.4927  0.6380
22880SOL    HW272046  10.782   2.749   2.458  0.7197 -0.1710  0.6261
22881SOL     OW72047   8.062   2.293   1.306 -0.1376 -0.1808 -0.2239
22881SOL    HW172048   8.083   2.342   1.385 -1.1724  0.1983 -0.1637
22881SOL    HW272049   8.145   2.255   1.278  0.7516  1.7900 -0.3934
22882SOL     OW72050   7.561   0.959   5.298 -0.1802  0.1316  0.7884
22882SOL    HW172051   7.552   0.877   5.249  0.9589 -0.4516  1.5262
22882SOL    HW272052   7.605   1.018   5.237 -0.9385  0.1844  0.2799
22883SOL     OW72053   2.783   7.680   6.131  0.5452 -0.2325 -0.2425
22883SOL    HW172054   2.817   7.592   6.116 -0.1758 -0.5727  0.0789
22883SOL    HW272055   2.833   7.713   6.206  2.3035  0.4618 -1.6691
22884SOL     OW72056   5.938  10.827   2.249 -0.1573 -0.3013 -0.0894
22884SOL    HW172057   5.928  10.731   2.249 -0.9159 -0.2337 -0.5025
22884SOL    HW272058   5.865  10.857   2.194  2.5230  0.2410 -3.5187
22885SOL     OW72059   7.744   3.262   4.636  0.0632  0.3760  0.3474
22885SOL    HW172060   7.789   3.332   4.684  0.2050  0.2720  0.3650
22885SOL    HW272061   7.813   3.201   4.611 -0.1376 -0.0452  0.8193
22886SOL     OW72062   7.103   9.904  10.108 -0.2507 -0.2156  0.8071
22886SOL    HW172063   7.168   9.866  10.168  0.9404 -0.2404 -0.4557
22886SOL    HW272064   7.148   9.979  10.069  0.2676 -2.1379 -2.5515
22887SOL     OW72065   5.155   0.367   5.339 -0.1843  0.5643 -0.6065
22887SOL    HW172066   5.229   0.426   5.349  1.0468 -1.3350  2.1602
22887SOL    HW272067   5.083   0.423   5.309  1.2070  3.2647  0.9227
22888SOL     OW72068   0.979   4.177   9.724  0.1301 -0.2084 -0.1459
22888SOL    HW172069   0.972   4.171   9.628  0.2755  3.0300 -0.3989
22888SOL    HW272070   0.892   4.205   9.753  0.6308  0.6627  0.5078
22889SOL     OW72071   7.815   2.731   6.840 -0.0553 -0.0820  0.2311
22889SOL    HW172072   7.878   2.676   6.885 -1.1139 -1.7126 -0.2424
22889SOL    HW272073   7.770   2.672   6.779 -3.0910  0.6750  1.6477
22890SOL     OW72074   8.308   8.549   3.386  0.2688  0.0183  0.3377
22890SOL    HW172075   8.233   8.504   3.349  0.8748  0.0226 -0.9499
22890SOL    HW272076   8.376   8.482   3.392  0.3143  0.1262  1.0195
22891SOL     OW72077   0.006   9.042   7.182  0.4269 -0.1163  0.1764
22891SOL    HW172078  -0.052   9.097   7.234 -1.0947 -1.3341 -0.2191
22891SOL    HW272079   0.015   8.962   7.232  1.3039 -0.1629 -0.0466
22892SOL     OW72080   8.479   0.532   8.495 -0.2101  0.1273 -0.2987
22892SOL    HW172081   8.459   0.464   8.559  1.0078 -1.5218 -1.6120
22892SOL    HW272082   8.573   0.548   8.506 -0.0291 -0.0421 -1.5260
22893SOL     OW72083   7.681   0.861   5.537 -0.4526 -0.5613  0.2248
22893SOL    HW172084   7.698   0.779   5.493 -0.0889 -0.1785 -0.3550
22893SOL    HW272085   7.669   0.925   5.466  0.8774  0.2058  0.6752
22894SOL     OW72086   7.469   3.401   9.460  0.0188  0.1375 -0.2486
22894SOL    HW172087   7.387   3.353   9.469  0.1928  0.1635  1.5633
22894SOL    HW272088   7.444   3.493   9.470  0.1570  0.2088 -0.5333
22895SOL     OW72089   8.695   7.410   7.252  0.4830 -0.3334 -0.0492
22895SOL    HW172090   8.631   7.395   7.182  0.9453  0.6427 -0.6903
22895SOL    HW272091   8.643   7.410   7.332 -0.0498 -1.5010 -0.3826
22896SOL     OW72092   0.136   7.884   1.070 -0.5142  0.0573 -0.1467
22896SOL    HW172093   0.143   7.894   0.975 -1.3902 -1.6261 -0.4100
22896SOL    HW272094   0.055   7.929   1.093 -0.0470  0.8922 -0.1240
22897SOL     OW72095   0.435   6.828   2.614 -1.2171  0.0050 -0.6749
22897SOL    HW172096   0.354   6.782   2.634 -1.5271  0.6769 -0.3805
22897SOL    HW272097   0.464   6.863   2.698 -1.0574  0.4745 -0.9254
22898SOL     OW72098   3.769   7.895   0.045 -0.4045 -0.6704  0.0177
22898SOL    HW172099   3.788   7.818  -0.009 -0.8682 -0.7910  0.0266
22898SOL    HW272100   3.684   7.876   0.085 -1.5928  0.7897 -1.7130
22899SOL     OW72101   3.697   5.910   0.211  0.4379  0.6662 -0.0072
22899SOL    HW172102   3.701   5.820   0.178 -0.3968  0.7777 -0.4236
22899SOL    HW272103   3.754   5.959   0.152  0.1823  0.5769 -0.3282
22900SOL     OW72104   7.628   9.317   5.801  0.0061 -0.2657  0.6364
22900SOL    HW172105   7.680   9.242   5.831 -0.9245 -1.2399 -0.1781
22900SOL    HW272106   7.655   9.388   5.860  1.6180 -0.9683  0.8033
22901SOL     OW72107   3.669   2.763   6.775  0.0380 -0.1118 -0.1588
22901SOL    HW172108   3.684   2.842   6.826 -0.8223  0.1926 -0.3799
22901SOL    HW272109   3.754   2.719   6.773  0.0266 -0.2521  1.7490
22902SOL     OW72110   7.445   6.199   8.467 -0.4867  0.3968  0.7084
22902SOL    HW172111   7.493   6.281   8.470 -0.0700  0.2078 -0.5719
22902SOL    HW272112   7.434   6.180   8.374 -0.6815 -0.9408  0.9866
22903SOL     OW72113   8.090   3.742   8.440 -0.0088 -0.2280 -0.1789
22903SOL    HW172114   8.060   3.667   8.389 -1.2411 -0.2629  0.5728
22903SOL    HW272115   8.027   3.811   8.421  1.0041  0.5703 -0.7040
22904SOL     OW72116   6.706   4.587   3.183 -0.4883  0.2003  0.4873
22904SOL    HW172117   6.732   4.655   3.246  0.4214  1.3321 -1.0715
22904SOL    HW272118   6.637   4.626   3.131 -0.2209 -0.1907 -0.1779
22905SOL     OW72119   4.014   6.862   2.677  0.4008 -0.1554  0.5207
22905SOL    HW172120   4.045   6.871   2.586 -1.3039 -2.6533 -0.3515
22905SOL    HW272121   4.033   6.771   2.700  1.0767  0.5293  2.8084
22906SOL     OW72122   1.843   2.906  10.487 -0.3010  0.0727  0.3688
22906SOL    HW172123   1.814   2.975  10.428  1.3105 -0.1824 -0.7545
22906SOL    HW272124   1.846   2.949  10.573 -0.5838  1.0337 -0.0884
22907SOL     OW72125   4.646   6.273   5.142  0.2650 -0.5134  0.1729
22907SOL    HW172126   4.605   6.352   5.106  1.6028 -0.0686 -0.4015
22907SOL    HW272127   4.685   6.301   5.225  1.7603 -0.2830 -0.5990
22908SOL     OW72128   6.255  10.701   4.541 -0.0118  0.4486  0.8634
22908SOL    HW172129   6.179  10.757   4.556 -1.5851 -1.5514  0.4698
22908SOL    HW272130   6.324  10.740   4.596 -1.7379  1.3586  2.4362
22909SOL     OW72131   9.423   4.984  10.420  0.7174  0.3429  0.2337
22909SOL    HW172132   9.408   5.049  10.488 -0.5685  1.2146 -0.8675
22909SOL    HW272133   9.363   5.008  10.349 -0.3465 -2.4703  0.1100
22910SOL     OW72134   0.412  10.006   5.429  0.1198  0.2083  0.5515
22910SOL    HW172135   0.500  10.043   5.428 -0.0885  0.7047  0.4181
22910SOL    HW272136   0.357  10.077   5.464 -0.0531 -0.4701  1.6835
22911SOL     OW72137   4.916   3.329   7.560 -0.4232  0.2775 -0.0195
22911SOL    HW172138   4.862   3.274   7.504 -0.3178  0.5947 -0.4355
22911SOL    HW272139   5.004   3.322   7.523 -0.5267  1.2068 -0.4384
22912SOL     OW72140   9.765   4.211   7.510 -0.9923  0.0007  0.6770
22912SOL    HW172141   9.707   4.177   7.579 -1.1731 -2.0235 -0.4178
22912SOL    HW272142   9.710   4.268   7.457 -1.6447 -0.8362  0.4447
22913SOL     OW72143   1.052   0.713   0.936 -0.3610 -0.1508 -0.0751
22913SOL    HW172144   1.124   0.743   0.880 -0.1543  0.2843  0.4222
22913SOL    HW272145   1.079   0.736   1.025 -1.3179  0.4202  0.0716
22914SOL     OW72146   7.591   5.518   2.259 -0.3340 -0.5756  0.5165
22914SOL    HW172147   7.582   5.423   2.264  0.7987 -0.8795 -1.9351
22914SOL    HW272148   7.601   5.547   2.349  0.3852 -2.9227  1.2179
22915SOL     OW72149   8.399   1.658  10.434 -0.0461  0.5476  0.1473
22915SOL    HW172150   8.491   1.676  10.454  0.1613 -0.7992  0.4677
22915SOL    HW272151   8.361   1.629  10.517 -0.0573 -1.6247 -0.5816
22916SOL     OW72152   3.675   4.167  10.124  0.3316  0.7739  0.3193
22916SOL    HW172153   3.754   4.214  10.097 -0.1355  0.6295 -1.3920
22916SOL    HW272154   3.662   4.102  10.055 -2.3995  2.1095 -0.4840
22917SOL     OW72155   5.003   3.213   0.393  0.5856  0.1474 -0.2987
22917SOL    HW172156   5.000   3.118   0.403 -0.5862  0.1607 -0.4689
22917SOL    HW272157   4.950   3.231   0.316 -0.9849  1.0956  0.9595
22918SOL     OW72158   2.361   1.353   2.912 -0.0425  0.2176  0.1022
22918SOL    HW172159   2.365   1.283   2.847 -0.3455  0.6981 -0.4409
22918SOL    HW272160   2.367   1.308   2.996 -0.7000 -0.5068 -0.2302
22919SOL     OW72161   9.647   0.571  10.930 -0.3987  0.4726  0.2049
22919SOL    HW172162   9.651   0.503  10.863 -0.2876  1.1579 -0.4740
22919SOL    HW272163   9.669   0.525  11.011  0.4425 -0.1522 -0.3660
22920SOL     OW72164   1.374   9.037   6.210 -0.3667  0.2972 -0.7221
22920SOL    HW172165   1.353   8.951   6.173 -0.4990 -0.0629  0.1831
22920SOL    HW272166   1.429   9.018   6.286 -0.7429  0.9983 -0.2703
22921SOL     OW72167   9.752   9.898   8.370  0.0994 -0.3644 -0.3414
22921SOL    HW172168   9.737   9.835   8.440  0.4561 -1.4591 -1.2376
22921SOL    HW272169   9.843   9.886   8.345  0.0458  0.1918 -0.8236
22922SOL     OW72170   2.801   4.467   4.569 -0.1803 -0.6159 -0.0898
22922SOL    HW172171   2.885   4.423   4.580 -1.4143 -2.4930  2.0834
22922SOL    HW272172   2.764   4.429   4.490  0.0921 -1.2970  0.1112
22923SOL     OW72173   4.761  10.673   4.237 -0.8226  0.3511  0.1859
22923SOL    HW172174   4.791  10.664   4.327 -0.8582 -2.6760 -0.0607
22923SOL    HW272175   4.840  10.662   4.183 -0.8633  1.7770 -0.2104
22924SOL     OW72176   9.239   8.373   7.238 -0.2304 -0.0931 -0.1163
22924SOL    HW172177   9.158   8.407   7.200  0.5363  1.3214 -0.5336
22924SOL    HW272178   9.303   8.443   7.224  1.0598 -1.1819  0.2261
22925SOL     OW72179   6.811   8.589   7.242 -0.4057  0.1119  0.2662
22925SOL    HW172180   6.752   8.516   7.222 -0.7631 -0.1552  2.2439
22925SOL    HW272181   6.753   8.665   7.250 -0.2745  0.1949  0.4110
22926SOL     OW72182   3.390   2.385   6.084  0.0031  0.0060  0.1743
22926SOL    HW172183   3.464   2.446   6.094  0.5922 -0.2704 -2.2515
22926SOL    HW272184   3.346   2.414   6.005 -2.3654 -0.0170  1.4413
22927SOL     OW72185   7.925   6.439   3.971 -0.2286 -0.6153  0.0218
22927SOL    HW172186   7.927   6.364   4.030  0.8248 -1.8122 -1.4788
22927SOL    HW272187   7.861   6.415   3.904 -1.2627  0.6369  0.5452
22928SOL     OW72188   4.575   3.578   8.182  0.3441 -0.4461 -0.8581
22928SOL    HW172189   4.629   3.505   8.211  0.2315  0.6987  2.3707
22928SOL    HW272190   4.490   3.539   8.162  1.0817 -1.5887 -1.7909
22929SOL     OW72191   3.928  10.892   3.558 -0.0597 -0.3502  0.5253
22929SOL    HW172192   3.876  10.947   3.616  1.4970 -2.0096  3.6038
22929SOL    HW272193   4.019  10.913   3.578  0.5094 -1.1283 -1.1276
22930SOL     OW72194  10.924   7.990   2.254  0.1550  0.2088  0.3569
22930SOL    HW172195  10.832   8.000   2.231 -0.4045 -2.1426  1.4064
22930SOL    HW272196  10.949   7.905   2.217  1.8185  0.7083  0.2989
22931SOL     OW72197   4.956   4.771   3.141 -0.0938  0.0968 -0.3686
22931SOL    HW172198   5.002   4.758   3.059 -0.9613  1.2362 -1.0616
22931SOL    HW272199   4.870   4.731   3.127 -0.8539  1.7589 -0.6453
22932SOL     OW72200   2.391   6.284   5.096  0.1260  0.2937  0.1363
22932SOL    HW172201   2.326   6.215   5.084  0.7814 -0.3723  0.3338
22932SOL    HW272202   2.419   6.305   5.007 -0.5774  0.8022  0.0313
22933SOL     OW72203   0.268   1.755   1.525 -0.6439  0.2728  0.6531
22933SOL    HW172204   0.249   1.715   1.610  1.5426 -2.2887  0.0275
22933SOL    HW272205   0.362   1.776   1.530  0.0534 -2.0293 -1.8867
22934SOL     OW72206   4.573   1.552   1.133 -0.1463 -0.3604  0.4964
22934SOL    HW172207   4.512   1.589   1.069  0.8650  0.8294  0.1998
22934SOL    HW272208   4.520   1.540   1.212 -0.8161  0.4751  0.1884
22935SOL     OW72209   1.801   6.993   7.480  0.2147  0.0522  0.5042
22935SOL    HW172210   1.706   6.995   7.490  0.1295  0.0460 -0.2369
22935SOL    HW272211   1.821   6.902   7.459  0.2165  0.3441 -0.8166
22936SOL     OW72212   4.513   4.805   6.615  0.3864 -0.1120 -0.8252
22936SOL    HW172213   4.447   4.872   6.633 -2.9448 -3.2767 -0.7318
22936SOL    HW272214   4.539   4.822   6.524  0.5053  1.9856 -0.4350
22937SOL     OW72215   0.903   1.185   2.982  0.0307 -0.3659 -0.1588
22937SOL    HW172216   0.960   1.252   2.945 -0.6410  0.1248 -0.3173
22937SOL    HW272217   0.886   1.125   2.909  0.8038 -0.8301  0.0386
22938SOL     OW72218   1.547   8.903   5.456  0.0431  0.4199 -0.3977
22938SOL    HW172219   1.579   8.858   5.534 -0.8085  0.9492  0.2647
22938SOL    HW272220   1.600   8.982   5.450 -1.1308  1.3172  0.7242
22939SOL     OW72221   9.650   5.426  10.426  0.2068 -0.3888  0.0688
22939SOL    HW172222   9.578   5.489  10.430  0.6655  0.0493  3.1333
22939SOL    HW272223   9.674   5.411  10.518  2.7991 -1.9418 -0.7852
22940SOL     OW72224   8.271   0.411   8.332 -0.1143  0.0132 -0.1013
22940SOL    HW172225   8.314   0.483   8.379  1.2513 -0.0546 -1.2031
22940SOL    HW272226   8.184   0.405   8.371 -0.0974  2.0034  0.2827
22941SOL     OW72227   1.191   3.014   6.204 -0.0897 -0.9893 -0.0077
22941SOL    HW172228   1.146   2.959   6.140  2.1529 -1.2084 -1.4498
22941SOL    HW272229   1.269   3.044   6.159  1.0447 -0.3242  2.3183
22942SOL     OW72230   8.475   7.636   3.528  0.1157  0.1282 -0.6684
22942SOL    HW172231   8.503   7.654   3.617 -2.1192  2.4517 -0.3888
22942SOL    HW272232   8.466   7.540   3.524 -1.8557  0.1445  2.2302
22943SOL     OW72233   8.604   1.678   0.699 -0.0242 -0.9503 -0.2662
22943SOL    HW172234   8.517   1.639   0.710 -1.8138  2.0729 -2.9269
22943SOL    HW272235   8.614   1.689   0.605  1.8957  1.6155  0.1766
22944SOL     OW72236   3.173   7.327   3.336 -0.5651  0.3247 -0.6548
22944SOL    HW172237   3.254   7.378   3.334 -0.0641 -0.4671 -1.5281
22944SOL    HW272238   3.109   7.384   3.377 -0.1129  1.7897 -1.9251
22945SOL     OW72239   9.222   2.339   3.131 -0.3683 -0.5232  0.1168
22945SOL    HW172240   9.285   2.375   3.193 -1.5080 -0.0483  1.0158
22945SOL    HW272241   9.168   2.279   3.184  0.4611 -2.3107 -1.0085
22946SOL     OW72242   1.404   7.171   1.833 -0.1428  0.7032 -0.0515
22946SOL    HW172243   1.352   7.251   1.828 -0.6465  0.4521  0.9968
22946SOL    HW272244   1.495   7.200   1.826 -0.3779  1.2344 -0.9563
22947SOL     OW72245   6.410   3.423   1.588  0.3631 -0.1017  0.0546
22947SOL    HW172246   6.477   3.411   1.520 -0.9365 -2.0588 -0.9089
22947SOL    HW272247   6.421   3.348   1.646  0.0978  0.4711  0.8534
22948SOL     OW72248  10.140  10.007   0.083  0.1729  0.5009  0.3771
22948SOL    HW172249  10.082   9.948   0.132  1.7232 -0.2229  1.3511
22948SOL    HW272250  10.167   9.955   0.007  0.9387  0.2221  0.8405
22949SOL     OW72251   5.212   7.686   9.175 -0.3874  0.0763 -0.1832
22949SOL    HW172252   5.205   7.752   9.245 -0.1471 -1.2381  1.1060
22949SOL    HW272253   5.123   7.651   9.167 -0.3281 -0.0597 -0.2542
22950SOL     OW72254   4.440   0.268  10.491 -0.0453  0.2655 -0.1036
22950SOL    HW172255   4.362   0.320  10.475 -0.5627 -0.7031 -0.7829
22950SOL    HW272256   4.418   0.214  10.567  1.4914  3.0194  2.4072
22951SOL     OW72257   6.232   8.965   5.099  0.4490  0.9030 -0.2555
22951SOL    HW172258   6.236   9.050   5.056 -0.6673  0.1264 -1.9605
22951SOL    HW272259   6.323   8.943   5.120  0.7363  2.4938  0.1881
22952SOL     OW72260   2.000   9.054   1.630  0.2790  0.1783 -0.2905
22952SOL    HW172261   1.913   9.016   1.647  0.7544 -1.3176 -1.1133
22952SOL    HW272262   2.019   9.105   1.709 -1.0666 -0.0067  0.1807
22953SOL     OW72263   1.019   7.058   9.439  0.6190 -0.4562  0.3351
22953SOL    HW172264   0.982   7.146   9.447 -0.0933 -0.7903  0.6827
22953SOL    HW272265   1.038   7.031   9.529  0.6437 -0.7428  0.2456
22954SOL     OW72266  10.641   3.508   2.558  1.1135 -0.4166 -0.0635
22954SOL    HW172267  10.716   3.472   2.604  1.7154 -1.4563 -1.8242
22954SOL    HW272268  10.669   3.515   2.467 -1.4834 -2.5240 -1.1129
22955SOL     OW72269  10.482   1.927   4.148  0.3377 -0.2147 -0.6752
22955SOL    HW172270  10.451   1.883   4.228 -0.9265  2.8582  0.6206
22955SOL    HW272271  10.572   1.953   4.169  0.6885 -1.1368 -1.0099
22956SOL     OW72272   1.007   9.085   5.249  0.3412  0.6539 -0.0098
22956SOL    HW172273   1.034   9.117   5.163 -2.1052  0.2688 -0.9619
22956SOL    HW272274   1.011   8.990   5.243 -1.1472  0.5868 -0.1712
22957SOL     OW72275   7.694   7.855  10.817 -0.0952  0.2247 -0.4568
22957SOL    HW172276   7.677   7.804  10.738 -1.1601  1.6755 -1.2012
22957SOL    HW272277   7.781   7.827  10.846  0.0029 -0.8369 -1.7410
22958SOL     OW72278   7.108   2.481   3.049  0.1374 -0.4777 -0.1766
22958SOL    HW172279   7.098   2.415   2.980  0.3391 -0.6138 -0.0762
22958SOL    HW272280   7.029   2.471   3.103  0.9477 -1.7532  0.7884
22959SOL     OW72281   0.227   7.091   2.714  0.4386 -0.2575  0.9179
22959SOL    HW172282   0.315   7.069   2.744  0.5813 -1.8418 -0.5174
22959SOL    HW272283   0.214   7.182   2.740  2.5853  0.0675  0.9795
22960SOL     OW72284   9.264  10.025   8.880 -0.4404 -0.1398 -0.3594
22960SOL    HW172285   9.329  10.034   8.810 -1.0759  0.1877 -0.9161
22960SOL    HW272286   9.213  10.106   8.876 -1.1699 -0.5866 -0.2272
22961SOL     OW72287   7.601   1.872   9.813 -0.1559 -0.0781  0.0058
22961SOL    HW172288   7.640   1.819   9.882  1.2746 -0.3980 -1.0155
22961SOL    HW272289   7.514   1.896   9.846 -1.0124 -3.4451  0.2891
22962SOL     OW72290   0.786   0.940   3.120 -0.0258 -0.0174 -0.1653
22962SOL    HW172291   0.788   1.036   3.118 -0.6109  0.0122  0.4372
22962SOL    HW272292   0.736   0.919   3.198 -0.8329 -0.8091 -0.8768
22963SOL     OW72293   0.064   6.084   4.650 -0.6098  0.4964  0.3914
22963SOL    HW172294   0.111   6.050   4.726 -0.2570  0.5280  0.1899
22963SOL    HW272295   0.114   6.054   4.575 -1.0398  0.3429  0.1644
22964SOL     OW72296   4.055   5.942   7.013  0.1793 -0.0595  0.2420
22964SOL    HW172297   3.998   5.979   6.945  0.6803 -0.6944 -0.5416
22964SOL    HW272298   4.016   5.857   7.033 -0.0022  0.1566  0.7919
22965SOL     OW72299   1.589   1.137   7.489 -0.1311  0.2336  0.6814
22965SOL    HW172300   1.542   1.115   7.408  0.3309  1.5666  0.0426
22965SOL    HW272301   1.675   1.168   7.459 -0.0810  1.0651  1.6663
22966SOL     OW72302   8.738   6.357   3.116  0.2618 -0.2839  0.2203
22966SOL    HW172303   8.651   6.326   3.142  0.3005 -1.0102 -0.5034
22966SOL    HW272304   8.754   6.433   3.172 -0.3554 -0.8322  1.1562
22967SOL     OW72305   6.732   4.076   2.588 -0.0605  0.2230 -0.0475
22967SOL    HW172306   6.792   4.151   2.592  0.4730 -0.3134  2.4695
22967SOL    HW272307   6.645   4.115   2.578  0.3768  1.1170 -0.4032
22968SOL     OW72308   1.668   3.081   7.740  0.3156 -0.1246 -0.3219
22968SOL    HW172309   1.697   3.169   7.716 -0.4865  0.3147  0.2959
22968SOL    HW272310   1.617   3.094   7.820  2.2099 -1.4605  1.1357
22969SOL     OW72311  10.258   2.491   1.679  0.3320 -0.1185  0.3883
22969SOL    HW172312  10.309   2.445   1.612 -0.8797  0.7402 -1.1432
22969SOL    HW272313  10.231   2.421   1.740  1.4948 -0.8946  0.0359
22970SOL     OW72314   1.339   9.637   4.516  0.2653 -0.0229 -0.5497
22970SOL    HW172315   1.322   9.661   4.607 -0.6079 -0.5933 -0.5590
22970SOL    HW272316   1.374   9.716   4.476  0.9719  0.1377  0.3661
22971SOL     OW72317   8.702   3.220   5.471  0.1078  0.4630  0.0392
22971SOL    HW172318   8.662   3.216   5.384 -0.0879  0.2453  0.1380
22971SOL    HW272319   8.785   3.264   5.457  0.0143  0.5504 -0.2362
22972SOL     OW72320   8.579   4.958   6.388  0.0065 -0.4590 -0.6664
22972SOL    HW172321   8.571   4.966   6.483  0.3573 -1.1870 -0.5695
22972SOL    HW272322   8.493   4.928   6.360  0.4325 -2.0666 -0.3520
22973SOL     OW72323   1.546   0.799   9.370  0.2721  0.3948 -0.0340
22973SOL    HW172324   1.635   0.769   9.393  0.3932 -0.1394 -1.1609
22973SOL    HW272325   1.491   0.765   9.441  1.0447  1.2585  1.0064
22974SOL     OW72326   0.551   3.724   7.401  0.1472  0.4044 -0.2350
22974SOL    HW172327   0.492   3.683   7.338 -0.8514  0.5909  0.5778
22974SOL    HW272328   0.497   3.786   7.449  0.8987  0.2727  0.8085
22975SOL     OW72329   4.779   1.575   6.905 -0.2198 -0.2790 -0.8936
22975SOL    HW172330   4.872   1.600   6.896 -0.0792  0.4217  2.1531
22975SOL    HW272331   4.782   1.482   6.928 -0.3223 -0.4711 -1.6445
22976SOL     OW72332  10.683   7.857   4.915  0.4450 -0.2405 -0.1516
22976SOL    HW172333  10.639   7.808   4.984  0.5349 -0.1115 -0.0044
22976SOL    HW272334  10.635   7.834   4.835 -0.4410  0.5948  0.1394
22977SOL     OW72335   1.052   3.515   2.910  0.0766  0.6250  0.1509
22977SOL    HW172336   1.147   3.521   2.907  0.2354 -0.5415  1.8622
22977SOL    HW272337   1.023   3.551   2.826  2.0973 -0.5103 -1.0855
22978SOL     OW72338   5.407   5.176   3.176 -0.2050  0.0886 -0.0603
22978SOL    HW172339   5.399   5.227   3.257  1.4178  3.0126 -1.6965
22978SOL    HW272340   5.498   5.144   3.177 -1.1285 -2.6957  0.8314
22979SOL     OW72341   5.379   0.713   3.091  0.4703  0.3535  0.3675
22979SOL    HW172342   5.308   0.745   3.147  0.6826 -0.7382  1.2635
22979SOL    HW272343   5.350   0.625   3.064  0.8137  0.4866 -0.4646
22980SOL     OW72344   3.029   7.644   8.444  0.5936 -0.0757  0.1881
22980SOL    HW172345   3.047   7.735   8.421 -1.7684  0.4994  0.4612
22980SOL    HW272346   3.068   7.593   8.374 -0.5887  1.3049 -1.5226
22981SOL     OW72347   7.291   8.258   0.114  0.0703 -0.2940 -0.4362
22981SOL    HW172348   7.214   8.312   0.093  0.1702 -0.2411 -0.6699
22981SOL    HW272349   7.328   8.299   0.192  0.5176  0.3607 -0.9928
22982SOL     OW72350   4.617   4.115   8.838 -0.0166 -0.7157 -0.5860
22982SOL    HW172351   4.549   4.149   8.780 -1.3826 -0.9424  0.8551
22982SOL    HW272352   4.635   4.027   8.805 -1.4568 -1.1986 -0.1412
22983SOL     OW72353   6.849   7.957   7.499  0.1734  0.0745 -0.1684
22983SOL    HW172354   6.821   7.946   7.408 -0.2912  0.2708 -0.0481
22983SOL    HW272355   6.833   7.872   7.539  0.4158 -0.0239 -0.2816
22984SOL     OW72356   0.150   3.580   8.457 -0.0028 -0.0042 -0.0169
22984SOL    HW172357   0.084   3.511   8.455  0.1503 -0.1881  1.0663
22984SOL    HW272358   0.228   3.540   8.418  0.7388 -1.1650  2.5138
22985SOL     OW72359   1.889   9.959   0.606  0.2658 -0.4064  0.3610
22985SOL    HW172360   1.904  10.027   0.672  0.0297 -1.8479  1.9489
22985SOL    HW272361   1.964   9.900   0.616 -0.0626 -0.9353 -0.2930
22986SOL     OW72362   7.494   5.273   0.076 -0.2444 -0.6508 -0.4534
22986SOL    HW172363   7.528   5.214   0.009 -1.1486 -0.4801 -1.0677
22986SOL    HW272364   7.533   5.242   0.158  0.6467 -1.0255 -1.0170
22987SOL     OW72365   3.123   5.000   0.429  0.3507  0.5468 -0.0824
22987SOL    HW172366   3.197   4.966   0.479  1.5543  1.0733 -1.4750
22987SOL    HW272367   3.129   5.095   0.439  0.9966  0.7048 -1.7263
22988SOL     OW72368  10.486   0.590  10.415 -0.0448 -0.1616  0.1399
22988SOL    HW172369  10.423   0.614  10.483 -0.8711  0.5755 -0.8694
22988SOL    HW272370  10.534   0.670  10.397 -0.6134 -0.0616 -0.9548
22989SOL     OW72371   9.171   1.774   2.022 -0.3904 -0.4004  0.5912
22989SOL    HW172372   9.178   1.694   1.969  0.2847 -0.4589  0.7511
22989SOL    HW272373   9.112   1.750   2.093  0.5885 -1.0923  1.1972
22990SOL     OW72374   6.144   0.539   7.192  0.3972  0.9061 -0.1147
22990SOL    HW172375   6.229   0.513   7.226 -0.5536 -2.3694 -0.0130
22990SOL    HW272376   6.161   0.566   7.102  1.5780  0.3912 -0.0500
22991SOL     OW72377  10.524   3.485   4.356  0.2977  0.2567 -0.0491
22991SOL    HW172378  10.613   3.486   4.390  0.0603  1.4274  0.6005
22991SOL    HW272379  10.469   3.464   4.432 -0.1938  2.3928  0.2306
22992SOL     OW72380   4.377   5.362   1.331 -0.2338 -0.4400  0.2823
22992SOL    HW172381   4.328   5.412   1.396 -1.4366  0.5603 -1.3504
22992SOL    HW272382   4.349   5.271   1.345 -1.7613 -0.0197  0.1114
22993SOL     OW72383   5.211   4.478   8.782  0.2776 -0.0350  0.2206
22993SOL    HW172384   5.118   4.456   8.783  0.1357  0.4325 -1.5909
22993SOL    HW272385   5.240   4.464   8.872 -0.8940 -2.9486  0.1817
22994SOL     OW72386   2.121   9.035   1.256  0.5538  0.5356 -0.0193
22994SOL    HW172387   2.043   9.089   1.257  0.4408  0.3582  0.6728
22994SOL    HW272388   2.106   8.968   1.323  0.4385 -0.7081 -1.2634
22995SOL     OW72389   4.021   0.662   0.098 -0.4587 -0.3994 -0.7516
22995SOL    HW172390   3.966   0.637   0.172  0.9492 -3.7123 -0.7461
22995SOL    HW272391   4.105   0.619   0.115  0.6862  0.8779 -3.0128
22996SOL     OW72392   6.459   2.356   7.988 -0.0457  0.0419 -0.1037
22996SOL    HW172393   6.415   2.441   7.990  0.7929  0.4791 -0.2192
22996SOL    HW272394   6.544   2.371   8.029  1.1463 -0.1241 -2.4072
22997SOL     OW72395   0.618   6.602   1.243  0.9047  0.0795  0.0043
22997SOL    HW172396   0.605   6.693   1.269  2.7447  0.2671  0.2872
22997SOL    HW272397   0.596   6.550   1.321  0.2212  0.2934 -0.0447
22998SOL     OW72398   9.163   6.839   3.472  0.1830 -0.3193  0.1681
22998SOL    HW172399   9.160   6.794   3.556  0.6646  1.2305  1.0375
22998SOL    HW272400   9.253   6.870   3.465 -0.3151  1.1184 -0.0649
22999SOL     OW72401   3.166   5.500   8.439 -0.0539  0.3539  0.4998
22999SOL    HW172402   3.135   5.410   8.453 -1.2448  0.9079  1.5114
22999SOL    HW272403   3.104   5.554   8.487  0.4229  1.7604 -0.4454
23000SOL     OW72404   9.489   6.499   1.982  0.4493  0.1760 -0.2090
23000SOL    HW172405   9.533   6.567   1.931  1.0660 -1.5900 -2.0924
23000SOL    HW272406   9.560   6.445   2.016 -0.0990 -0.7191 -0.4600
23001SOL     OW72407   3.495   7.766   4.946 -0.3519  0.0448  0.3947
23001SOL    HW172408   3.560   7.806   4.888  0.1134  0.3896  1.1439
23001SOL    HW272409   3.414   7.764   4.894 -0.3127  1.7009  0.2317
23002SOL     OW72410   7.987   9.777   8.996  0.0597 -0.2206  0.4391
23002SOL    HW172411   8.025   9.695   8.962 -0.6435 -1.4968  2.5982
23002SOL    HW272412   7.900   9.781   8.956  0.7827  0.4506 -1.1127
23003SOL     OW72413   5.490   8.319  10.711  1.1605  0.4477 -0.2454
23003SOL    HW172414   5.504   8.289  10.621  2.1487 -0.1951  0.1061
23003SOL    HW272415   5.442   8.247  10.752 -0.1501  1.1540 -0.5085
23004SOL     OW72416   0.840   8.906   9.768  0.4579  0.1704 -0.0320
23004SOL    HW172417   0.907   8.923   9.703  1.3820 -0.4139  0.7505
23004SOL    HW272418   0.790   8.832   9.732  1.2779 -0.4784  0.1466
23005SOL     OW72419   5.101   7.541  10.820 -0.2273 -0.0186  0.1298
23005SOL    HW172420   5.171   7.500  10.769  1.1102  0.8749  1.2464
23005SOL    HW272421   5.022   7.525  10.768  0.9472 -0.1131 -1.6682
23006SOL     OW72422   2.392   0.573  10.666  0.2999 -0.5006 -0.0859
23006SOL    HW172423   2.326   0.504  10.672  0.2641 -0.4646 -0.0635
23006SOL    HW272424   2.361   0.641  10.725  0.1816 -0.3388 -0.3334
23007SOL     OW72425   3.910   5.049   9.402 -0.8651  0.3407 -0.2104
23007SOL    HW172426   3.899   4.963   9.442 -1.0933  0.8689  0.8712
23007SOL    HW272427   3.851   5.106   9.450  0.0913  1.3363 -0.1918
23008SOL     OW72428   2.615   5.798   7.535  0.3693  0.0288 -0.3570
23008SOL    HW172429   2.607   5.811   7.441 -0.1047  1.1698 -0.1679
23008SOL    HW272430   2.676   5.725   7.545 -0.1183 -0.5463 -1.5618
23009SOL     OW72431   0.073  10.914   0.147 -0.5484  0.1168 -0.0297
23009SOL    HW172432  -0.018  10.896   0.170 -0.0919 -0.8428  1.0609
23009SOL    HW272433   0.123  10.845   0.189  0.7498  0.9743 -0.1282
23010SOL     OW72434   6.665  10.924  10.275 -0.5140 -0.1585 -0.2611
23010SOL    HW172435   6.583  10.890  10.312 -0.0752 -0.1414  0.7415
23010SOL    HW272436   6.645  11.014  10.249 -0.1827  0.6639  2.1989
23011SOL     OW72437   1.121   6.949   1.563 -0.0204 -0.2862  0.1503
23011SOL    HW172438   1.106   6.985   1.650 -1.7450 -2.4600  0.7954
23011SOL    HW272439   1.034   6.936   1.526  0.6674 -0.2817 -1.5202
23012SOL     OW72440   1.064   7.077   0.110  0.1538 -0.3344 -0.3073
23012SOL    HW172441   1.151   7.111   0.131 -0.0995 -0.7509  1.4444
23012SOL    HW272442   1.007   7.154   0.112  0.4059 -0.1220 -1.0770
23013SOL     OW72443   6.309   5.818   8.835  0.1673 -0.0258 -0.4093
23013SOL    HW172444   6.318   5.749   8.902 -0.0622 -0.5919 -0.9573
23013SOL    HW272445   6.222   5.854   8.851  0.0949 -0.1895 -0.4305
23014SOL     OW72446  10.923   1.014   9.373 -0.2434 -0.0493 -1.0405
23014SOL    HW172447  10.889   0.938   9.326  0.2604 -0.7095 -0.3517
23014SOL    HW272448  11.006   1.035   9.330  0.4354 -0.9285 -0.1749
23015SOL     OW72449   1.627   1.128   8.374 -0.0791  0.3651 -0.2890
23015SOL    HW172450   1.583   1.088   8.299 -0.5776 -2.0027  1.2205
23015SOL    HW272451   1.557   1.154   8.433  0.3682  0.7344  0.0889
23016SOL     OW72452   0.560   1.452   0.269  0.2791 -0.0680 -0.2843
23016SOL    HW172453   0.634   1.425   0.215  1.9321  1.8084  0.9415
23016SOL    HW272454   0.505   1.504   0.210  1.3731  0.8336 -0.5411
23017SOL     OW72455   9.978   0.778  10.083 -0.1110 -0.3707 -0.2478
23017SOL    HW172456   9.900   0.827  10.107  0.0692 -0.0179 -0.3619
23017SOL    HW272457   9.963   0.689  10.114 -0.7721 -0.4241 -0.7144
23018SOL     OW72458   0.570   8.414   0.472 -0.1892 -0.0621  0.2642
23018SOL    HW172459   0.483   8.375   0.482  0.0558 -0.2102  1.9499
23018SOL    HW272460   0.620   8.380   0.545  1.3862 -0.1761 -0.8373
23019SOL     OW72461   9.724   6.007   6.627 -0.8758  0.2157 -0.0808
23019SOL    HW172462   9.714   6.001   6.722  0.5203 -1.6433 -0.0287
23019SOL    HW272463   9.635   6.019   6.594 -1.2990  1.5534  1.4965
23020SOL     OW72464   1.627   0.349   6.304  0.2834  0.0332 -0.5381
23020SOL    HW172465   1.665   0.351   6.216  1.0881  0.4344 -0.1900
23020SOL    HW272466   1.666   0.272   6.345  0.0610 -0.0403 -0.4644
23021SOL     OW72467   7.618   4.140   9.407  0.5517 -0.3432 -0.0607
23021SOL    HW172468   7.623   4.235   9.413  0.2765 -0.3284 -0.0476
23021SOL    HW272469   7.705   4.109   9.433  0.1458 -0.1756  1.5651
23022SOL     OW72470   7.870   4.678   5.089 -0.2720  0.2150 -0.2802
23022SOL    HW172471   7.800   4.713   5.145 -1.3334 -2.4081  0.1101
23022SOL    HW272472   7.949   4.686   5.142 -1.0084 -0.7551  1.0139
23023SOL     OW72473  10.006   9.218   8.857  0.0601  0.1569 -0.2200
23023SOL    HW172474   9.964   9.283   8.914 -0.1563  0.3181 -0.5651
23023SOL    HW272475   9.965   9.135   8.882  0.0997  0.1986 -0.0104
23024SOL     OW72476   8.277   5.560   4.461  0.1024  0.3664 -0.2765
23024SOL    HW172477   8.281   5.601   4.375 -1.3209  2.1405  0.4460
23024SOL    HW272478   8.363   5.575   4.499  0.2046  1.0564 -0.7674
23025SOL     OW72479   2.441   2.120   6.632 -0.4590  0.6498 -0.0800
23025SOL    HW172480   2.369   2.181   6.647 -2.5904 -1.8514  0.2187
23025SOL    HW272481   2.441   2.063   6.709  2.3300  1.0205  0.2539
23026SOL     OW72482   2.817   3.956   7.469  0.0250  0.0637  0.3916
23026SOL    HW172483   2.832   3.969   7.375  0.2157  0.0267  0.4179
23026SOL    HW272484   2.899   3.980   7.510  0.8023 -2.4271  0.3461
23027SOL     OW72485   0.203   0.924   0.294 -0.3787  0.3192 -0.2865
23027SOL    HW172486   0.109   0.906   0.283 -0.9594  1.5448  2.2759
23027SOL    HW272487   0.226   0.978   0.219 -1.4445 -0.9781 -1.5743
23028SOL     OW72488   7.099   9.499   0.258  0.0897  0.4328 -0.3026
23028SOL    HW172489   7.105   9.594   0.257 -1.4378  0.5561  0.1734
23028SOL    HW272490   7.071   9.477   0.347 -1.6015 -0.2919 -0.9820
23029SOL     OW72491  10.233   3.887   5.435 -0.3554 -0.1712  0.1399
23029SOL    HW172492  10.185   3.952   5.383  1.2045  0.1965 -0.8827
23029SOL    HW272493  10.165   3.833   5.475 -1.6210  0.6036 -0.9164
23030SOL     OW72494   1.950   8.782  10.180 -0.1165  0.3870 -0.2365
23030SOL    HW172495   1.892   8.851  10.213  0.3424  1.9444 -2.5500
23030SOL    HW272496   2.003   8.825  10.113 -0.0688 -2.3243 -2.0136
23031SOL     OW72497   1.204   0.063   4.106  0.1092 -0.0839 -0.7223
23031SOL    HW172498   1.250   0.064   4.190 -0.6727 -0.2407 -0.2884
23031SOL    HW272499   1.241  -0.012   4.060  1.7148  0.9618 -1.1899
23032SOL     OW72500   4.936   7.584   9.840  0.3573 -0.0330 -0.0254
23032SOL    HW172501   4.994   7.519   9.801  1.7250 -0.1402  2.0732
23032SOL    HW272502   4.848   7.546   9.831  0.9939 -1.5707  0.0009
23033SOL     OW72503   3.953   1.984   2.500 -0.0051  0.6073  0.2614
23033SOL    HW172504   3.870   1.980   2.452 -1.1718 -0.5801  2.3132
23033SOL    HW272505   4.014   1.934   2.446 -1.5742 -1.6296  0.4672
23034SOL     OW72506   9.156   7.478   5.702 -0.1638 -0.1081  0.5793
23034SOL    HW172507   9.184   7.566   5.678 -0.6193  0.5023  2.2122
23034SOL    HW272508   9.094   7.452   5.633  0.4621  0.5833 -0.2476
23035SOL     OW72509   0.752   8.446   1.727 -0.1461  0.5815  0.1500
23035SOL    HW172510   0.682   8.387   1.756  0.6055  0.3679  1.6160
23035SOL    HW272511   0.787   8.405   1.647  0.7917 -1.3569  1.4829
23036SOL     OW72512   5.390   3.523   3.901 -0.1412  0.3740  0.8077
23036SOL    HW172513   5.298   3.549   3.910  0.1766  1.3593  1.2512
23036SOL    HW272514   5.438   3.605   3.893  0.6365 -0.1548 -0.1343
23037SOL     OW72515   6.542   3.960   5.633 -0.2951 -0.6534 -0.3538
23037SOL    HW172516   6.527   4.009   5.553  0.3796  0.3939  0.1511
23037SOL    HW272517   6.525   3.869   5.609  0.8401 -0.4773 -1.9478
23038SOL     OW72518   4.066   1.812   7.998  0.5095  0.3641  0.2114
23038SOL    HW172519   4.008   1.777   8.066 -0.1721  2.0973  0.5524
23038SOL    HW272520   4.063   1.907   8.010  2.4196  0.5490 -0.6032
23039SOL     OW72521   4.800   3.020   6.172 -0.1071  0.5689  0.7638
23039SOL    HW172522   4.719   2.970   6.180  0.1314 -0.2017 -1.3861
23039SOL    HW272523   4.778   3.092   6.113  1.1065 -0.4517 -0.9853
23040SOL     OW72524   4.681   5.315   6.519  0.2857 -0.0087 -0.3321
23040SOL    HW172525   4.704   5.226   6.546 -0.1049 -0.3972 -1.2536
23040SOL    HW272526   4.698   5.316   6.425 -0.3769  0.6876 -0.4454
23041SOL     OW72527   0.498   5.131   0.981 -0.2935  0.1419 -0.2509
23041SOL    HW172528   0.428   5.127   1.047 -0.5537 -0.3770 -0.5579
23041SOL    HW272529   0.456   5.172   0.905 -0.2364 -0.0886 -0.4044
23042SOL     OW72530   7.891   1.114   7.905  0.0624  0.1371 -0.4367
23042SOL    HW172531   7.969   1.065   7.879  0.4354  1.3167 -1.5900
23042SOL    HW272532   7.920   1.171   7.976  0.3470  0.8259 -1.0977
23043SOL     OW72533   5.441   8.252   4.896 -0.0979 -0.5642  0.4716
23043SOL    HW172534   5.473   8.302   4.822  1.1804 -0.6858  0.9355
23043SOL    HW272535   5.357   8.292   4.917 -0.6070 -0.7122 -1.2102
23044SOL     OW72536   8.474   2.791   8.476  0.6669 -0.0403  0.1728
23044SOL    HW172537   8.521   2.789   8.559 -0.5543 -1.1598  0.8638
23044SOL    HW272538   8.470   2.699   8.448  0.5165  0.2528 -0.7987
23045SOL     OW72539   4.958   7.580   5.531  0.1267 -0.3657  0.3602
23045SOL    HW172540   4.896   7.575   5.458 -3.0531 -1.1501  2.9587
23045SOL    HW272541   5.038   7.539   5.499 -0.2692  1.6462 -3.4877
23046SOL     OW72542   0.487   8.388   3.947 -0.1490  0.6618 -0.1477
23046SOL    HW172543   0.523   8.299   3.949  0.5240  0.8732 -1.4918
23046SOL    HW272544   0.552   8.441   3.994 -0.4302  0.4798  0.4436
23047SOL     OW72545   7.954  10.652   1.147  0.3338  0.1217  0.1554
23047SOL    HW172546   7.885  10.616   1.091 -0.2012 -1.1358  1.5677
23047SOL    HW272547   7.955  10.746   1.126 -1.1904  0.0127 -0.5398
23048SOL     OW72548   5.742   3.193   9.875 -0.4706 -0.4005  0.5965
23048SOL    HW172549   5.756   3.150   9.790 -2.9970  1.5462 -0.8414
23048SOL    HW272550   5.817   3.164   9.928  1.9038 -0.6015 -2.6888
23049SOL     OW72551   0.436   0.487   8.889  0.9069 -0.1184 -0.0677
23049SOL    HW172552   0.452   0.408   8.837 -0.0663 -0.3938  0.0347
23049SOL    HW272553   0.523   0.517   8.915  1.2256 -2.2095  1.4270
23050SOL     OW72554   9.296   6.654   8.085  0.5100 -0.2883 -0.3667
23050SOL    HW172555   9.317   6.728   8.028  0.6349 -1.2004 -1.5188
23050SOL    HW272556   9.225   6.609   8.039  1.2365 -1.5482 -0.2475
23051SOL     OW72557   2.056   4.222   7.572  0.3074 -0.1186  0.6514
23051SOL    HW172558   2.046   4.317   7.577  0.8133 -0.0118 -0.2018
23051SOL    HW272559   1.967   4.188   7.582 -0.0055  0.4860 -0.0336
23052SOL     OW72560   6.845   6.254   5.128  0.2318  0.4924 -0.1895
23052SOL    HW172561   6.793   6.174   5.133 -0.0296  0.6678 -0.0931
23052SOL    HW272562   6.811   6.300   5.051 -1.7843  2.0211  1.5634
23053SOL     OW72563  10.846   6.411   3.312  0.1161 -0.3581  0.1186
23053SOL    HW172564  10.845   6.424   3.407  0.8299 -2.1135  0.3823
23053SOL    HW272565  10.887   6.490   3.277 -0.7511  0.5945  1.2141
23054SOL     OW72566   1.344   4.736   6.352 -0.4315  0.0412  0.0831
23054SOL    HW172567   1.346   4.706   6.443 -0.4346  0.0535  0.0869
23054SOL    HW272568   1.373   4.660   6.302 -1.5168 -0.3326 -0.0056
23055SOL     OW72569   8.661   8.695   8.413  0.1532 -0.4802 -0.0687
23055SOL    HW172570   8.750   8.729   8.422 -0.2875  0.6475  0.0663
23055SOL    HW272571   8.670   8.618   8.356  1.2867 -0.7249  0.4433
23056SOL     OW72572   0.177   6.434   9.819 -0.2165 -0.9085  0.4026
23056SOL    HW172573   0.243   6.485   9.866  0.2257 -0.2285 -0.9227
23056SOL    HW272574   0.224   6.359   9.783 -0.6960 -1.8084  1.6343
23057SOL     OW72575   5.939   9.062   8.050 -0.1862 -0.0224  0.2643
23057SOL    HW172576   6.026   9.078   8.086 -0.5887  0.7222  0.9146
23057SOL    HW272577   5.948   9.083   7.957  0.4504 -0.4118  0.2364
23058SOL     OW72578   9.654  10.121   9.513  0.2674  0.7128  0.1926
23058SOL    HW172579   9.746  10.100   9.531  0.0506  1.5171  2.4405
23058SOL    HW272580   9.642  10.100   9.421  2.7815  0.8214 -0.1937
23059SOL     OW72581   2.984   5.449   9.652 -0.0737 -0.0063 -0.2119
23059SOL    HW172582   2.945   5.362   9.640 -0.3495 -0.0386  0.9224
23059SOL    HW272583   3.041   5.460   9.575  1.4112 -1.9590  0.5831
23060SOL     OW72584   0.422   3.627   5.038  0.2212  0.3061  0.4180
23060SOL    HW172585   0.438   3.701   4.980 -0.8680 -0.9415 -1.5412
23060SOL    HW272586   0.479   3.558   5.004 -1.4971 -0.8854 -0.1268
23061SOL     OW72587  10.081   1.486   4.714  0.0247  0.2788 -0.1074
23061SOL    HW172588  10.068   1.580   4.721  3.3877  0.8220 -0.4482
23061SOL    HW272589  10.061   1.465   4.623  0.0736  0.7843 -0.2308
23062SOL     OW72590   9.533   2.403   9.954 -0.1142 -0.4147  0.1919
23062SOL    HW172591   9.626   2.424   9.958 -0.1439 -0.3101  0.2885
23062SOL    HW272592   9.490   2.476   9.998 -0.1751 -0.8986  0.9358
23063SOL     OW72593   2.781   1.794   7.785 -0.1874 -0.3616 -0.0327
23063SOL    HW172594   2.755   1.844   7.862  0.7187  0.3869 -0.2074
23063SOL    HW272595   2.728   1.714   7.789 -0.7500  0.0570  0.9060
23064SOL     OW72596  10.949   2.279   7.894 -0.0233 -0.4725 -0.0634
23064SOL    HW172597  10.990   2.338   7.957  2.4302 -1.4405 -0.7026
23064SOL    HW272598  10.980   2.309   7.809 -3.1684  0.7038 -0.8747
23065SOL     OW72599   1.220   6.738   2.712  0.3068 -0.1850  0.2976
23065SOL    HW172600   1.223   6.689   2.630 -0.1260 -0.2595  0.3244
23065SOL    HW272601   1.243   6.828   2.687  0.5840 -0.2904  0.1655
23066SOL     OW72602   1.324   7.512   2.544  0.4618  0.0238 -0.0359
23066SOL    HW172603   1.303   7.576   2.476  0.7541 -0.8464 -0.9545
23066SOL    HW272604   1.396   7.552   2.593  0.7684  0.3185 -0.7181
23067SOL     OW72605   9.915   8.039   3.475  0.4952 -0.1904 -0.0653
23067SOL    HW172606   9.932   8.124   3.515 -0.9735  0.3034 -0.4478
23067SOL    HW272607   9.866   7.990   3.541 -0.8213  0.1681 -0.7523
23068SOL     OW72608   1.221   3.741   0.558 -0.7871  0.4897 -0.2387
23068SOL    HW172609   1.234   3.828   0.596 -1.8288  0.3462  0.4683
23068SOL    HW272610   1.245   3.680   0.627 -0.0489  0.2053 -0.7378
23069SOL     OW72611   0.984  10.922   1.077 -0.0327 -0.4286  0.0866
23069SOL    HW172612   0.899  10.880   1.067 -0.4212  0.0212  1.3159
23069SOL    HW272613   0.986  10.951   1.169  2.2865 -2.2470  0.6610
23070SOL     OW72614   5.379   0.596   7.526 -0.5480 -0.2863  0.0661
23070SOL    HW172615   5.472   0.616   7.516 -0.4293 -0.6758  0.3972
23070SOL    HW272616   5.353   0.561   7.441  0.4783 -3.6478  1.0592
23071SOL     OW72617  10.153   9.863   1.994 -0.2190 -0.6026 -0.0957
23071SOL    HW172618  10.117   9.800   1.931 -0.5875 -0.0290 -0.4647
23071SOL    HW272619  10.162   9.944   1.944  0.6117 -0.4568  0.2732
23072SOL     OW72620  10.459   1.102   1.329  0.3945  0.4903 -0.4284
23072SOL    HW172621  10.462   1.146   1.414  0.2627 -0.7189  0.2182
23072SOL    HW272622  10.369   1.115   1.298 -0.6832 -2.2354  1.3647
23073SOL     OW72623   7.822  10.885  10.734  0.1160 -0.4750 -0.5593
23073SOL    HW172624   7.849  10.952  10.671  1.0666 -0.3602 -0.0421
23073SOL    HW272625   7.732  10.908  10.755  0.1702  0.1693 -1.0007
23074SOL     OW72626   0.120   7.581   9.620  0.2840 -0.1767  0.0406
23074SOL    HW172627   0.106   7.489   9.641  1.8042 -0.1228  1.3383
23074SOL    HW272628   0.090   7.590   9.529 -1.1458 -1.6340  0.3411
23075SOL     OW72629   7.243   2.053  10.378 -0.6571  0.2026  0.4647
23075SOL    HW172630   7.189   2.042  10.300 -0.2146 -0.4132  0.2383
23075SOL    HW272631   7.312   2.113  10.351 -1.0348  0.7219  0.6538
23076SOL     OW72632   9.247   7.661   9.747  0.0683 -0.4685  0.2706
23076SOL    HW172633   9.165   7.656   9.797  0.1750 -0.5173  0.4426
23076SOL    HW272634   9.289   7.741   9.779 -1.1200  0.9558 -1.6902
23077SOL     OW72635   7.331  10.267   1.346 -0.1135  0.2077  0.0622
23077SOL    HW172636   7.424  10.252   1.329 -0.3579 -1.1767 -0.1159
23077SOL    HW272637   7.330  10.332   1.416  0.9513  2.4032 -1.8730
23078SOL     OW72638   6.316   4.338   9.936  0.3108 -0.1960 -0.4007
23078SOL    HW172639   6.276   4.418   9.900  0.0165 -0.9739 -1.8569
23078SOL    HW272640   6.371   4.369  10.007  1.0983  1.4476 -1.6847
23079SOL     OW72641   9.403   4.070   6.439  0.3338 -0.0085  0.3686
23079SOL    HW172642   9.349   4.071   6.360 -1.7431 -2.1130  1.6632
23079SOL    HW272643   9.487   4.035   6.411  0.5237  1.8524 -1.4112
23080SOL     OW72644  10.883   6.677   2.060  0.2258  0.6680 -0.4389
23080SOL    HW172645  10.860   6.755   2.111 -0.7185  0.1404 -0.0362
23080SOL    HW272646  10.838   6.689   1.977 -1.3490 -0.2428  0.2545
23081SOL     OW72647   4.270  10.430  10.528 -0.0132  0.5039 -0.3839
23081SOL    HW172648   4.342  10.366  10.526 -0.6986 -0.2953 -0.1040
23081SOL    HW272649   4.192  10.379  10.503 -0.4457  1.4146 -0.9253
23082SOL     OW72650   3.506   2.033  10.396  0.0676  0.8038 -0.1072
23082SOL    HW172651   3.544   2.099  10.454  0.0783 -0.9599  1.9700
23082SOL    HW272652   3.413   2.058  10.389  0.0553  1.0214  0.7191
23083SOL     OW72653   1.910   7.211   6.594 -0.2347  0.1920  1.1330
23083SOL    HW172654   1.912   7.142   6.660  0.8759 -0.7981  0.0840
23083SOL    HW272655   1.972   7.183   6.527 -3.2953 -0.1763 -1.6805
23084SOL     OW72656   2.855   7.373   6.862 -0.2695 -0.3757 -0.8782
23084SOL    HW172657   2.897   7.348   6.944  1.3583 -0.7401 -1.7945
23084SOL    HW272658   2.805   7.296   6.836 -0.1383 -0.5445 -0.6308
23085SOL     OW72659   7.233   9.617   6.894  0.1325 -0.4815  0.0024
23085SOL    HW172660   7.172   9.613   6.967 -1.5933  0.2057 -1.3647
23085SOL    HW272661   7.226   9.531   6.852  0.2332 -0.4651 -0.0485
23086SOL     OW72662   1.315   9.960   6.023 -0.1459 -0.1719  0.4019
23086SOL    HW172663   1.333   9.892   6.088 -2.3458 -0.8782  0.3175
23086SOL    HW272664   1.373   9.939   5.949  0.4506 -0.9165  1.0729
23087SOL     OW72665   8.352   5.713   8.820  0.4799 -0.3237  0.0487
23087SOL    HW172666   8.386   5.628   8.794 -1.7942 -1.1161 -0.4290
23087SOL    HW272667   8.349   5.763   8.739 -1.5667 -0.9996 -0.3017
23088SOL     OW72668   3.082   4.513   8.490 -0.6147 -0.3634 -0.2976
23088SOL    HW172669   3.116   4.425   8.511  0.3212 -0.0634 -0.5308
23088SOL    HW272670   3.039   4.541   8.571 -0.1692 -0.6893  0.0617
23089SOL     OW72671   6.997   6.808   9.484  0.0137 -0.3409 -0.1765
23089SOL    HW172672   7.067   6.744   9.470 -0.7640 -1.0214 -0.9353
23089SOL    HW272673   6.988   6.812   9.579  1.2607 -0.0513 -0.0545
23090SOL     OW72674   9.462   1.290   5.156 -0.0456  0.3274  0.3933
23090SOL    HW172675   9.416   1.328   5.081  0.1544  1.1128  0.6671
23090SOL    HW272676   9.402   1.222   5.188  0.5040 -1.0082 -1.3459
23091SOL     OW72677   6.218   8.616   3.968  0.1182  0.6636 -0.3542
23091SOL    HW172678   6.285   8.683   3.956  1.0319 -0.3543 -1.0491
23091SOL    HW272679   6.266   8.533   3.966 -1.2180 -0.1054 -1.3364
23092SOL     OW72680   1.608   5.836   7.668  0.1950 -0.2711 -0.3735
23092SOL    HW172681   1.519   5.840   7.704 -0.3867  0.4024 -1.8725
23092SOL    HW272682   1.660   5.796   7.738 -0.5053  2.8674  2.0448
23093SOL     OW72683   9.155   7.179  10.035  0.1706 -0.0897  0.4466
23093SOL    HW172684   9.075   7.148   9.992 -0.5192  0.8815  1.0234
23093SOL    HW272685   9.224   7.125   9.997 -0.8665 -1.5467  0.5967
23094SOL     OW72686   5.536   0.990   9.925 -0.2883 -0.1362  0.1526
23094SOL    HW172687   5.487   1.042   9.861 -2.0795 -0.4234  1.2417
23094SOL    HW272688   5.507   1.023  10.010  0.1666 -1.4592  0.8326
23095SOL     OW72689   1.591   8.325  10.772 -0.4498 -0.0057 -0.2017
23095SOL    HW172690   1.535   8.316  10.850  0.5734  0.5673  0.6208
23095SOL    HW272691   1.613   8.235  10.747 -1.9638 -0.2411 -0.7060
23096SOL     OW72692   0.803   7.064   2.634  0.5198 -0.3647  0.2827
23096SOL    HW172693   0.755   7.121   2.694  1.0001  1.3237 -0.8932
23096SOL    HW272694   0.783   7.100   2.547  1.1530 -1.7552 -0.4513
23097SOL     OW72695   3.677  10.212   3.894 -0.0321 -0.2856  0.0121
23097SOL    HW172696   3.739  10.143   3.915  2.0902  1.4176 -0.4807
23097SOL    HW272697   3.591  10.170   3.899  1.0153 -2.2716  2.4359
23098SOL     OW72698   3.683   8.868   5.664 -0.0303 -0.3546  0.5117
23098SOL    HW172699   3.649   8.779   5.658  0.3003 -0.3810 -1.4059
23098SOL    HW272700   3.606   8.924   5.657 -0.2835 -0.4903  2.1533
23099SOL     OW72701   7.892   0.252   9.245 -0.5722  0.2830 -0.1268
23099SOL    HW172702   7.839   0.182   9.207  1.6023 -1.4498 -0.0699
23099SOL    HW272703   7.908   0.224   9.335 -0.7990  1.5269  0.3183
23100SOL     OW72704   8.865   7.184   6.437  0.1292 -0.0822 -0.0311
23100SOL    HW172705   8.809   7.255   6.405 -0.0913 -0.8291 -1.3839
23100SOL    HW272706   8.806   7.129   6.488  0.1641  0.3894  0.5180
23101SOL     OW72707   0.697   2.984   3.295 -0.4507  0.1746  0.1485
23101SOL    HW172708   0.742   2.944   3.221 -0.6976  0.5084 -0.1903
23101SOL    HW272709   0.618   3.022   3.256  0.2209  1.7641  0.3009
23102SOL     OW72710   9.286  10.282  10.207  0.3876 -0.0597  0.0749
23102SOL    HW172711   9.301  10.370  10.242  0.8690 -0.8802  1.9367
23102SOL    HW272712   9.349  10.227  10.252 -0.0340 -1.4165 -0.9656
23103SOL     OW72713  10.219   4.414   2.195 -0.3017  0.4239 -0.6764
23103SOL    HW172714  10.248   4.401   2.285  0.4207 -0.9814 -1.0957
23103SOL    HW272715  10.126   4.390   2.197 -0.3133  0.4887 -0.3009
23104SOL     OW72716   6.814   0.018   9.470  0.6960  0.2696 -0.1493
23104SOL    HW172717   6.847  -0.047   9.409  0.1469  0.9661 -1.2035
23104SOL    HW272718   6.789  -0.032   9.548 -0.7772 -0.9484 -1.3727
23105SOL     OW72719   1.750   5.035   1.631  0.3520  0.2209 -0.3094
23105SOL    HW172720   1.670   5.080   1.658  0.7745  0.7302  0.1080
23105SOL    HW272721   1.797   5.019   1.712  0.9676  0.4838 -0.6090
23106SOL     OW72722   6.014   7.795   3.226  0.1860  0.2597 -0.4830
23106SOL    HW172723   5.929   7.826   3.194  0.3631  1.5176  0.2143
23106SOL    HW272724   6.060   7.875   3.252  0.2266 -0.6602  2.4604
23107SOL     OW72725   8.426   7.734   1.597  0.5848 -1.0136  0.1484
23107SOL    HW172726   8.437   7.773   1.510  0.4795  1.7099  1.2916
23107SOL    HW272727   8.333   7.711   1.601  0.6890 -1.5794 -0.6288
23108SOL     OW72728   5.547   3.559   8.582 -0.2576  0.6791  0.1056
23108SOL    HW172729   5.497   3.493   8.631  0.3054  0.8367  0.9171
23108SOL    HW272730   5.550   3.635   8.641 -1.6570  1.7643 -1.1728
23109SOL     OW72731   5.229   8.769   2.701 -0.1054 -0.0987  0.2918
23109SOL    HW172732   5.254   8.757   2.793 -0.3455  2.9517  0.7854
23109SOL    HW272733   5.162   8.838   2.703  0.1147  0.2121 -2.2109
23110SOL     OW72734   0.476   0.530   4.407 -0.2898  0.3634  0.6651
23110SOL    HW172735   0.428   0.449   4.422  3.6222 -2.2166 -0.0370
23110SOL    HW272736   0.473   0.542   4.312  0.0739  0.4716  0.6683
23111SOL     OW72737   4.517   4.139   6.351 -0.3511 -0.8200  0.9463
23111SOL    HW172738   4.586   4.075   6.335 -1.1858 -1.6394  0.5696
23111SOL    HW272739   4.463   4.136   6.272 -0.4749  0.2628  0.9752
23112SOL     OW72740   0.805   2.936   6.994 -0.2584 -0.4500 -0.3814
23112SOL    HW172741   0.824   2.948   7.087 -0.6850  0.4792 -0.4006
23112SOL    HW272742   0.788   3.025   6.962  0.1255 -0.7366 -1.3992
23113SOL     OW72743   1.957   2.680   5.701 -0.3965 -0.0746  0.1665
23113SOL    HW172744   1.902   2.702   5.776 -0.7535  1.5854 -0.5585
23113SOL    HW272745   2.028   2.744   5.704  0.2741 -0.7858 -0.2021
23114SOL     OW72746   6.639   5.361   0.025 -0.1013 -0.4674 -0.1357
23114SOL    HW172747   6.654   5.323  -0.061 -0.0382 -0.6327 -0.0523
23114SOL    HW272748   6.723   5.351   0.070  0.4883  1.4675 -0.7586
23115SOL     OW72749   5.820   2.085   2.901  0.1096 -0.0616 -0.2797
23115SOL    HW172750   5.823   2.114   2.810  3.2264  0.8111  0.0226
23115SOL    HW272751   5.846   1.993   2.898  0.6390  0.0856 -0.2357
23116SOL     OW72752   2.185   3.110   1.080 -0.8159 -0.2111 -0.1411
23116SOL    HW172753   2.141   3.167   1.143 -1.3772 -0.5011 -0.2606
23116SOL    HW272754   2.138   3.027   1.088  1.2098 -1.2379  1.3913
23117SOL     OW72755   8.288   8.261   0.257  0.4598 -0.3061  0.2283
23117SOL    HW172756   8.361   8.298   0.208  0.5406 -0.1492  0.4665
23117SOL    HW272757   8.233   8.219   0.191  0.0352  0.7768 -0.1256
23118SOL     OW72758   9.267   2.108   1.127  0.5631 -0.2983  0.9217
23118SOL    HW172759   9.251   2.040   1.192  1.0720  0.1764  1.5448
23118SOL    HW272760   9.362   2.117   1.124  0.6658 -1.6041 -1.2196
23119SOL     OW72761   0.578   7.766   6.981 -0.5051  0.3118 -0.4648
23119SOL    HW172762   0.543   7.681   6.955 -1.0598  0.6138 -0.7159
23119SOL    HW272763   0.645   7.745   7.046 -0.3669 -0.3411 -0.8116
23120SOL     OW72764   7.457   9.106   3.020  0.3756  0.5983 -0.1718
23120SOL    HW172765   7.438   9.191   3.060 -0.4255  0.0304  0.6632
23120SOL    HW272766   7.532   9.072   3.069  0.2584  0.5183 -0.0473
23121SOL     OW72767   2.219   9.100   7.327  0.5466 -0.4011 -0.9597
23121SOL    HW172768   2.172   9.029   7.282 -1.1138  0.4183 -0.5631
23121SOL    HW272769   2.198   9.086   7.420  2.6240 -1.1161 -0.5688
23122SOL     OW72770   6.551  10.220   6.523 -0.5706  0.1843  0.4287
23122SOL    HW172771   6.555  10.294   6.583 -1.5751  0.7068 -0.1245
23122SOL    HW272772   6.458  10.207   6.507 -0.4103 -1.3142  0.6427
23123SOL     OW72773   6.262   7.199   6.457 -0.5634  0.2077 -0.0836
23123SOL    HW172774   6.353   7.203   6.429 -0.1205  2.1580  1.5525
23123SOL    HW272775   6.214   7.172   6.378  1.1127  1.7408 -1.6752
23124SOL     OW72776   5.909   0.622   2.738  0.3461 -0.4944 -0.4367
23124SOL    HW172777   5.974   0.613   2.809  0.1240 -1.1066 -0.3098
23124SOL    HW272778   5.946   0.570   2.666 -1.1595 -2.8848  0.4532
23125SOL     OW72779  10.228   0.301   3.126  0.4630 -0.2984  0.0456
23125SOL    HW172780  10.136   0.326   3.134  0.2831  0.1212 -2.9729
23125SOL    HW272781  10.231   0.210   3.157 -1.3725 -1.0361 -1.8329
23126SOL     OW72782   9.438   5.920   2.838  0.6543 -0.4511  0.2521
23126SOL    HW172783   9.395   5.837   2.820  0.5083 -0.3813  0.2803
23126SOL    HW272784   9.385   5.985   2.792  0.4052 -0.2970  0.7590
23127SOL     OW72785   0.103   6.957   7.671 -0.1799  0.0461 -0.3195
23127SOL    HW172786   0.145   6.877   7.704  1.1043  0.7126 -0.3216
23127SOL    HW272787   0.028   6.970   7.729  0.5485 -0.2610  0.7024
23128SOL     OW72788   3.264   4.483   4.281 -0.4042 -0.5867 -0.1316
23128SOL    HW172789   3.343   4.443   4.317  0.1386 -0.8404 -1.5493
23128SOL    HW272790   3.214   4.409   4.246 -0.3947 -0.2475 -0.8793
23129SOL     OW72791  10.699   4.706   0.032 -0.1056 -0.0184  0.2639
23129SOL    HW172792  10.763   4.706  -0.040 -0.9076  3.9730 -0.5295
23129SOL    HW272793  10.620   4.670  -0.007 -0.6647  2.5213 -1.0526
23130SOL     OW72794   7.330   6.516   6.043 -0.3786  0.1497  0.3585
23130SOL    HW172795   7.306   6.425   6.064  2.6081 -0.2717  2.2464
23130SOL    HW272796   7.328   6.519   5.948  0.2628 -2.1654  0.2212
23131SOL     OW72797   5.240   2.450   7.293 -0.2113 -0.1817  0.1331
23131SOL    HW172798   5.209   2.440   7.203  1.7972  1.7431 -0.8305
23131SOL    HW272799   5.161   2.441   7.347 -1.6178 -0.2583 -1.8869
23132SOL     OW72800  10.396   3.145   6.087  0.1449  0.7145 -0.0100
23132SOL    HW172801  10.377   3.218   6.029  1.6419  0.2960 -1.0527
23132SOL    HW272802  10.490   3.149   6.102  0.2980 -1.1141 -0.2695
23133SOL     OW72803   0.645   3.490  10.287 -0.3029 -0.0322 -0.0444
23133SOL    HW172804   0.560   3.487  10.329  0.0087  0.9133  0.6737
23133SOL    HW272805   0.654   3.581  10.258  0.4204 -0.1506 -0.2034
23134SOL     OW72806  10.154   3.718   8.937  0.0427  0.4041  0.2090
23134SOL    HW172807  10.138   3.811   8.924  1.1228  0.4939 -0.6304
23134SOL    HW272808  10.236   3.714   8.986  0.9445 -0.1158 -1.2942
23135SOL     OW72809   5.876   8.180   0.028 -1.4141 -0.5246  0.2669
23135SOL    HW172810   5.910   8.268   0.013  1.2806 -1.5045  0.3283
23135SOL    HW272811   5.814   8.166  -0.044  0.0647  0.4689 -1.2467
23136SOL     OW72812   1.973   9.222   5.426 -0.4516 -0.0528 -0.0997
23136SOL    HW172813   1.980   9.289   5.493 -0.1486  0.1694 -0.3557
23136SOL    HW272814   2.054   9.230   5.375 -0.4817 -0.5094 -0.2208
23137SOL     OW72815   3.718   6.750   8.005  0.1888  0.1008 -0.6142
23137SOL    HW172816   3.770   6.671   7.991  0.2220 -0.1969  1.0289
23137SOL    HW272817   3.782   6.816   8.032 -0.2583 -0.3128  1.5911
23138SOL     OW72818  10.387   2.307   5.644 -0.0541 -0.1280 -0.1758
23138SOL    HW172819  10.325   2.240   5.672 -1.8986  1.2568 -0.8710
23138SOL    HW272820  10.394   2.366   5.719  0.5164 -0.3411 -0.0591
23139SOL     OW72821   4.473   7.880   0.236  0.3758 -0.0907 -0.3972
23139SOL    HW172822   4.531   7.819   0.281 -0.2887 -0.5219 -0.1116
23139SOL    HW272823   4.490   7.964   0.278 -1.3099 -0.7642  1.7355
23140SOL     OW72824   3.384   3.529   3.502  0.4241 -0.0255  0.0095
23140SOL    HW172825   3.382   3.624   3.486  0.1862  0.4757  2.9000
23140SOL    HW272826   3.459   3.516   3.559  1.2417 -1.7941 -1.4167
23141SOL     OW72827   7.115   5.603   0.489 -0.2938 -0.0565 -0.3265
23141SOL    HW172828   7.070   5.597   0.573  0.3933  1.5806  0.1721
23141SOL    HW272829   7.196   5.650   0.508  0.2862 -0.4695 -1.7370
23142SOL     OW72830   8.976   3.645   0.620 -0.1874  0.1259  0.3639
23142SOL    HW172831   8.998   3.719   0.563  0.6143 -0.5147 -0.1503
23142SOL    HW272832   8.972   3.570   0.562  1.4160 -0.6711  1.2742
23143SOL     OW72833   3.438   1.168  10.301 -0.4404 -0.2358  0.0520
23143SOL    HW172834   3.520   1.122  10.282 -1.0557 -0.9985 -0.7780
23143SOL    HW272835   3.443   1.248  10.249 -0.4168 -0.4928 -0.3420
23144SOL     OW72836   9.411   4.099   7.311  0.3124  0.1008 -0.2910
23144SOL    HW172837   9.429   4.075   7.402 -1.0358 -0.4120 -0.1417
23144SOL    HW272838   9.409   4.194   7.311  1.8402  0.1474 -0.0991
23145SOL     OW72839   7.735   7.004   5.167  0.2880  0.1849  0.5258
23145SOL    HW172840   7.714   7.097   5.174  1.8327  0.5801  0.1334
23145SOL    HW272841   7.725   6.984   5.074 -0.4801 -0.1527  0.6790
23146SOL     OW72842   4.704   7.195  10.576 -0.0966 -1.0280 -0.1746
23146SOL    HW172843   4.664   7.126  10.630  0.3396 -1.4163 -0.3385
23146SOL    HW272844   4.657   7.191  10.493  1.0474 -2.2734 -0.7816
23147SOL     OW72845   5.755   3.207   4.052  0.5944 -0.3483  0.5253
23147SOL    HW172846   5.750   3.210   4.148 -0.4119  0.9992  0.4555
23147SOL    HW272847   5.663   3.198   4.024  0.9555 -1.5774 -0.2893
23148SOL     OW72848   8.813   2.668   9.166  0.3863  1.1349 -0.5637
23148SOL    HW172849   8.802   2.573   9.169  0.5501  1.1427  0.9033
23148SOL    HW272850   8.908   2.680   9.161  0.5622  1.2176  1.9586
23149SOL     OW72851   3.649   1.002   1.922 -0.1791 -0.5235  0.0138
23149SOL    HW172852   3.663   0.942   1.849  0.5232 -0.6826  0.2807
23149SOL    HW272853   3.669   1.088   1.886  0.5466 -0.6448  0.1244
23150SOL     OW72854   3.577   6.229   3.243  0.4983  0.0556 -0.2895
23150SOL    HW172855   3.508   6.199   3.302  1.1377  0.6023  0.7364
23150SOL    HW272856   3.551   6.318   3.219 -0.2770 -0.5126 -1.6369
23151SOL     OW72857   0.212   9.541   6.765  0.7229  0.2958  0.1794
23151SOL    HW172858   0.220   9.498   6.851 -2.3483 -1.3744 -0.2622
23151SOL    HW272859   0.127   9.585   6.769  1.3018  1.6008 -1.4330
23152SOL     OW72860   1.179   2.106   2.553 -0.4131  0.5703 -0.8421
23152SOL    HW172861   1.148   2.175   2.612 -1.1439 -0.5201  0.0724
23152SOL    HW272862   1.201   2.033   2.611 -2.0190 -0.8448 -1.9581
23153SOL     OW72863   4.536   7.708   7.729 -0.3948 -0.8211  0.5065
23153SOL    HW172864   4.571   7.631   7.774  0.1313 -0.7057  0.2898
23153SOL    HW272865   4.442   7.690   7.722 -0.2222 -1.5988  0.1511
23154SOL     OW72866   8.011   2.532   4.346 -0.1968  0.6516 -0.4668
23154SOL    HW172867   8.000   2.599   4.278 -0.3330  0.7893 -0.3088
23154SOL    HW272868   8.005   2.580   4.428  0.3729  0.5447 -0.3622
23155SOL     OW72869   9.167   9.707   0.280  0.8050 -0.2131 -0.5950
23155SOL    HW172870   9.119   9.754   0.212  2.9894  2.7784 -0.1389
23155SOL    HW272871   9.230   9.653   0.232  0.2601 -0.4996 -1.0041
23156SOL     OW72872   3.401   6.002   0.899 -0.1009 -0.5140 -0.9120
23156SOL    HW172873   3.413   5.909   0.878  3.6143 -0.5615  0.9370
23156SOL    HW272874   3.485   6.042   0.875 -1.4575  2.2754 -1.1299
23157SOL     OW72875   6.526   3.864   0.625 -1.0138  0.4035 -0.0642
23157SOL    HW172876   6.433   3.861   0.650 -0.6486 -1.4352  1.1972
23157SOL    HW272877   6.545   3.776   0.593  0.6966  0.2633  1.2665
23158SOL     OW72878   3.562   4.202   8.770  0.0189  0.5061  0.1552
23158SOL    HW172879   3.538   4.109   8.765  0.2293  0.4969 -0.6555
23158SOL    HW272880   3.508   4.244   8.704  1.0394  0.7337 -0.5389
23159SOL     OW72881   0.263   5.505   9.484  0.0256  0.3066  0.2288
23159SOL    HW172882   0.297   5.593   9.469 -0.6267  0.5883  0.3978
23159SOL    HW272883   0.219   5.510   9.568  2.5822 -0.9609  1.6998
23160SOL     OW72884   8.494   5.224   6.235  0.0439 -0.3217  0.5273
23160SOL    HW172885   8.438   5.150   6.257  0.6059 -1.4973 -1.7653
23160SOL    HW272886   8.582   5.188   6.232  0.2140  0.1928 -1.5562
23161SOL     OW72887   4.232   9.166   0.426  0.2726  0.0033  0.1107
23161SOL    HW172888   4.323   9.188   0.406  0.4011 -1.1007 -0.5705
23161SOL    HW272889   4.206   9.108   0.355 -1.3875  1.3465 -0.4124
23162SOL     OW72890   3.708   1.334   3.835  0.6630 -0.2668  0.1729
23162SOL    HW172891   3.660   1.337   3.918  0.3348  0.2742 -0.0311
23162SOL    HW272892   3.705   1.242   3.809  0.0833 -0.3046  0.3693
23163SOL     OW72893   2.995   1.299   3.339 -0.4331 -0.8254 -0.6098
23163SOL    HW172894   2.986   1.239   3.413  0.7801 -0.1404  0.1223
23163SOL    HW272895   2.988   1.244   3.262 -0.9368 -1.6753  0.0372
23164SOL     OW72896   6.959   0.921   6.060 -0.0289 -0.2670 -0.0431
23164SOL    HW172897   6.989   0.835   6.090  0.8315 -0.4065 -1.2513
23164SOL    HW272898   7.004   0.983   6.117 -0.0347 -0.5955  0.3192
23165SOL     OW72899   8.371   0.538   1.109  0.5817  0.4593 -0.2646
23165SOL    HW172900   8.384   0.559   1.202  0.3235 -0.5818  0.0040
23165SOL    HW272901   8.360   0.624   1.068 -0.6358  0.8683  0.8677
23166SOL     OW72902   0.883   7.307   4.928 -0.1295 -0.1078  0.1941
23166SOL    HW172903   0.865   7.381   4.871  2.0219 -0.3380 -0.8631
23166SOL    HW272904   0.804   7.254   4.925 -0.9838  1.1882 -0.5421
23167SOL     OW72905   9.136   8.970   8.923 -0.2775 -0.3005 -0.0305
23167SOL    HW172906   9.117   8.937   9.010 -0.1389 -1.4128 -0.4087
23167SOL    HW272907   9.052   8.967   8.877 -0.2197 -0.3690 -0.1345
23168SOL     OW72908   6.047   5.728   0.085  0.0120 -0.2042  0.5005
23168SOL    HW172909   5.969   5.706   0.137  1.0273 -0.4592  1.9511
23168SOL    HW272910   6.112   5.663   0.111  0.4524 -0.5311 -1.3530
23169SOL     OW72911   2.106   5.675   4.640  0.3723 -0.1401 -0.1294
23169SOL    HW172912   2.092   5.644   4.729  1.3861 -0.1485  0.0250
23169SOL    HW272913   2.060   5.611   4.585 -3.3824  1.8136  0.5455
23170SOL     OW72914   8.887   2.446  10.166 -0.1460  0.1264  0.3328
23170SOL    HW172915   8.843   2.445  10.081 -0.6901 -0.1757  0.6150
23170SOL    HW272916   8.924   2.534  10.173 -0.2276  0.2035 -0.1490
23171SOL     OW72917   7.678   0.732   2.368 -0.5869 -0.1926 -0.1901
23171SOL    HW172918   7.600   0.713   2.316  0.1672 -1.5246 -0.8647
23171SOL    HW272919   7.677   0.667   2.438 -0.1830 -0.1080 -0.1051
23172SOL     OW72920   3.018   2.893   7.595 -0.1331  0.1001 -0.1095
23172SOL    HW172921   2.956   2.846   7.539  0.9987 -0.0382 -1.2908
23172SOL    HW272922   2.964   2.938   7.659 -1.7126  2.7347 -3.1333
23173SOL     OW72923  10.085   2.569   8.242  0.1994  0.1947  0.1262
23173SOL    HW172924  10.112   2.618   8.320 -2.6985  1.4546  0.3797
23173SOL    HW272925  10.058   2.635   8.179 -1.5185 -0.9544 -0.3935
23174SOL     OW72926  10.873   8.407  10.699 -0.6889 -0.4750 -0.1641
23174SOL    HW172927  10.840   8.328  10.742  2.7229 -2.6880 -1.3616
23174SOL    HW272928  10.919   8.454  10.769 -2.5220  0.3756  0.4969
23175SOL     OW72929   6.279   1.573   4.172  0.0181  0.2456 -0.1049
23175SOL    HW172930   6.195   1.529   4.181  0.0730  0.3791  1.1629
23175SOL    HW272931   6.303   1.560   4.081 -1.3840  0.2266 -0.4796
23176SOL     OW72932   3.681   8.521   1.062 -0.2815 -0.2297  0.3972
23176SOL    HW172933   3.619   8.460   1.103 -0.2089  0.5025  1.6206
23176SOL    HW272934   3.767   8.493   1.094 -0.2367  0.4372  0.8575
23177SOL     OW72935   5.122   9.477   4.124  0.0774 -0.4815 -0.3574
23177SOL    HW172936   5.114   9.429   4.206 -1.0255  1.6469  0.8053
23177SOL    HW272937   5.043   9.455   4.075 -0.9397  0.9916  0.6238
23178SOL     OW72938   4.120   4.645   3.544  0.3681  0.3278 -0.1452
23178SOL    HW172939   4.057   4.576   3.562 -0.0623  1.0953  1.2988
23178SOL    HW272940   4.120   4.652   3.448 -1.5398  0.1495 -0.1721
23179SOL     OW72941   8.222   8.485   2.865 -0.6309 -0.6333 -0.4890
23179SOL    HW172942   8.172   8.495   2.946 -0.4177  0.9479 -0.5310
23179SOL    HW272943   8.244   8.575   2.839 -0.3235 -1.1433 -2.0640
23180SOL     OW72944  10.414   1.058   2.142  0.3260  0.1994 -0.1436
23180SOL    HW172945  10.406   1.080   2.234 -0.3587 -0.7652  0.0376
23180SOL    HW272946  10.473   0.983   2.140  0.3401  0.2171 -0.4852
23181SOL     OW72947   3.470   0.026   2.257 -0.2169 -0.1066 -0.2929
23181SOL    HW172948   3.443  -0.010   2.342 -1.1638 -0.6529 -0.8171
23181SOL    HW272949   3.491   0.117   2.275 -0.8570 -0.1004  0.4537
23182SOL     OW72950   3.371   4.571   1.559 -0.6145 -0.6837  0.0218
23182SOL    HW172951   3.434   4.512   1.518 -0.4337 -0.0777 -0.5850
23182SOL    HW272952   3.417   4.656   1.564 -0.6335 -0.7374  1.4697
23183SOL     OW72953   4.367   3.497   4.632  0.2433  0.0719  0.2879
23183SOL    HW172954   4.391   3.417   4.586  0.6381 -0.6726  1.7481
23183SOL    HW272955   4.446   3.521   4.680 -0.0769  0.9711  0.3694
23184SOL     OW72956   8.989   1.711   7.145 -0.4534 -0.4050 -0.1320
23184SOL    HW172957   8.932   1.662   7.086  1.4701 -0.5822 -1.9043
23184SOL    HW272958   9.064   1.654   7.158  0.5743  0.9454 -0.0509
23185SOL     OW72959   5.802   9.843   1.465  0.3211  0.1162  0.1071
23185SOL    HW172960   5.824   9.934   1.486  2.2334  0.2527 -2.2373
23185SOL    HW272961   5.764   9.848   1.377  1.3372 -1.4625 -0.4286
23186SOL     OW72962   5.653   6.542   4.299  0.1984  0.4101  0.3627
23186SOL    HW172963   5.650   6.591   4.381 -0.5263  1.0176 -0.0206
23186SOL    HW272964   5.740   6.501   4.298 -0.2976 -0.7006  2.0582
23187SOL     OW72965   9.993   8.227   6.208  0.2289 -0.1903  0.0383
23187SOL    HW172966   9.916   8.205   6.156  1.5077 -2.3492 -0.9946
23187SOL    HW272967  10.003   8.153   6.269  0.7322  0.6967  1.0561
23188SOL     OW72968   5.937   4.331   9.824  0.5681 -0.2008  0.5818
23188SOL    HW172969   5.959   4.304   9.735 -0.3277  1.2797 -0.1143
23188SOL    HW272970   6.006   4.391   9.850  0.2219  0.2619  0.4421
23189SOL     OW72971   6.183  10.507   7.045 -0.2694 -0.0187 -0.3518
23189SOL    HW172972   6.216  10.591   7.076 -0.7909  0.1885 -0.3412
23189SOL    HW272973   6.261  10.458   7.018  0.1405  0.0174  0.7459
23190SOL     OW72974   1.427   0.990   3.956 -0.9026 -0.4790  0.3439
23190SOL    HW172975   1.356   1.051   3.936 -0.5295 -0.9452 -2.6538
23190SOL    HW272976   1.504   1.027   3.913  0.1080 -1.2637  1.4401
23191SOL     OW72977   7.268   0.411   3.194  0.4324  0.0133 -0.6384
23191SOL    HW172978   7.242   0.369   3.112  2.6694  0.1278 -1.4426
23191SOL    HW272979   7.222   0.495   3.194 -0.9976 -0.7739 -0.8961
23192SOL     OW72980   5.339   8.192   0.176  0.7003 -0.8912  0.5607
23192SOL    HW172981   5.263   8.163   0.125 -0.9345  1.4887  1.4937
23192SOL    HW272982   5.414   8.155   0.131 -0.9900 -2.9416 -0.6824
23193SOL     OW72983   8.590   4.602   5.152 -0.4534 -0.4265 -0.1567
23193SOL    HW172984   8.509   4.568   5.115  0.4193 -0.6166 -1.9732
23193SOL    HW272985   8.629   4.654   5.082 -0.5917  2.4330  1.7940
23194SOL     OW72986   3.418   1.409   6.068 -0.0403 -0.0888 -0.2818
23194SOL    HW172987   3.395   1.355   6.144 -2.6683  0.5267 -0.5796
23194SOL    HW272988   3.374   1.493   6.085 -0.5517  0.1005 -2.3952
23195SOL     OW72989   9.306   8.275   8.514 -0.1375 -0.0249  0.3743
23195SOL    HW172990   9.282   8.184   8.498  1.6556 -0.6489  1.0871
23195SOL    HW272991   9.222   8.320   8.527 -1.1395 -1.1723 -1.9142
23196SOL     OW72992   0.918   6.403   4.234  0.1826 -0.2943  0.6022
23196SOL    HW172993   0.892   6.388   4.325  0.5293  3.2446  1.3252
23196SOL    HW272994   0.915   6.316   4.194  0.4007 -1.9715  4.0802
23197SOL     OW72995   2.831   2.817   2.679  0.2952  0.3805 -0.1893
23197SOL    HW172996   2.865   2.904   2.661 -0.6812  1.1447  1.6333
23197SOL    HW272997   2.891   2.758   2.633  1.5473  1.9491 -0.5881
23198SOL     OW72998   2.632   4.427   1.094 -0.1596  0.0938  0.1883
23198SOL    HW172999   2.672   4.486   1.031 -2.1128  0.7042 -0.5126
23198SOL    HW273000   2.582   4.484   1.152 -0.2552 -0.6723  0.8658
23199SOL     OW73001   5.230   6.121   5.028 -0.0797  0.3341 -0.2794
23199SOL    HW173002   5.181   6.189   4.983 -2.2791  0.0573  1.6232
23199SOL    HW273003   5.226   6.045   4.970 -1.6668  0.4127 -0.2953
23200SOL     OW73004   1.692   8.779   1.146  0.1202 -0.1337 -0.5006
23200SOL    HW173005   1.720   8.709   1.086  1.5224  0.1240 -0.1804
23200SOL    HW273006   1.728   8.753   1.231  0.3383  0.7854 -0.3057
23201SOL     OW73007   8.490   4.741   0.800 -0.4080 -0.2608 -0.5878
23201SOL    HW173008   8.574   4.783   0.821 -0.9769  0.4279  0.3651
23201SOL    HW273009   8.438   4.811   0.762 -1.4132 -0.0531  1.1364
23202SOL     OW73010  10.428   3.607   9.614 -0.3943 -0.1742 -0.0616
23202SOL    HW173011  10.334   3.624   9.613 -0.2519  0.6902  0.4530
23202SOL    HW273012  10.460   3.657   9.689  0.8479  1.5235 -1.6796
23203SOL     OW73013   0.621   0.700   6.617 -0.3247  0.1402 -0.2030
23203SOL    HW173014   0.540   0.671   6.574 -0.7906 -2.1558  2.0785
23203SOL    HW273015   0.613   0.667   6.707  2.8085  0.5312  0.2686
23204SOL     OW73016   4.081   6.512   0.193  0.2610 -0.4342  0.4508
23204SOL    HW173017   4.047   6.589   0.240 -4.8174 -0.6097 -2.4998
23204SOL    HW273018   4.100   6.545   0.105 -0.1288 -2.1440 -0.2936
23205SOL     OW73019   3.464   6.697   4.680 -0.4609  0.0020 -0.5327
23205SOL    HW173020   3.418   6.629   4.630 -2.1305 -1.7255  3.1008
23205SOL    HW273021   3.522   6.648   4.739 -1.0870  1.7418  1.5953
23206SOL     OW73022  10.971   0.626   2.940 -0.1300  0.5371  0.3891
23206SOL    HW173023  10.919   0.696   2.979  0.0222  0.1742  1.2419
23206SOL    HW273024  11.041   0.671   2.892 -1.0325  1.0164 -0.4989
23207SOL     OW73025  10.318   2.168   7.099  0.5742  0.0175  0.5128
23207SOL    HW173026  10.399   2.116   7.108  0.1124 -0.7789  0.0852
23207SOL    HW273027  10.330   2.217   7.018 -0.4637 -2.0558 -0.9142
23208SOL     OW73028   0.645  10.076   9.801  0.3331 -0.1913 -0.0390
23208SOL    HW173029   0.669  10.106   9.713 -0.3615 -0.4574 -0.3193
23208SOL    HW273030   0.702  10.127   9.859  1.0365 -0.2657 -0.6566
23209SOL     OW73031   0.636   5.453   6.244 -0.1623  0.1953  0.4485
23209SOL    HW173032   0.695   5.526   6.261  0.3569 -0.5806  2.1074
23209SOL    HW273033   0.677   5.379   6.288 -1.6258 -0.6847  0.3574
23210SOL     OW73034   4.532   9.993   0.978  0.0641 -0.3648 -0.1741
23210SOL    HW173035   4.533  10.055   0.905  0.7182 -0.3780 -0.1804
23210SOL    HW273036   4.466   9.929   0.954 -0.4510  0.2002 -0.2803
23211SOL     OW73037   0.339   9.314   4.072 -0.4951  0.4204 -0.2323
23211SOL    HW173038   0.357   9.408   4.073  0.9063  0.1594  0.7891
23211SOL    HW273039   0.424   9.273   4.090 -0.7822 -1.0980 -2.1339
23212SOL     OW73040   0.170  10.876   2.504 -0.3655 -0.3132  0.3575
23212SOL    HW173041   0.099  10.840   2.557 -0.4826  0.5984  0.8174
23212SOL    HW273042   0.211  10.799   2.464 -2.4250 -0.7604 -0.9720
23213SOL     OW73043   9.668   9.975   6.755 -0.1213 -0.0069 -0.0360
23213SOL    HW173044   9.695   9.902   6.810  0.7304  0.1053 -0.3052
23213SOL    HW273045   9.609  10.027   6.810  1.0971  0.3606  0.9341
23214SOL     OW73046   5.412   2.221   8.051  0.2208  0.4537  0.1098
23214SOL    HW173047   5.486   2.263   8.094  0.2668 -0.5470  1.0331
23214SOL    HW273048   5.356   2.293   8.023  1.6115  1.2199 -0.7253
23215SOL     OW73049   0.113   8.262   3.365  0.1416 -0.4067  0.0876
23215SOL    HW173050   0.183   8.282   3.302 -0.4509  0.5275 -0.2797
23215SOL    HW273051   0.145   8.296   3.448  1.0997 -1.9885  0.4055
23216SOL     OW73052   5.215   4.292   8.160 -0.2653  0.5993  0.2090
23216SOL    HW173053   5.161   4.320   8.086  2.4731  2.7722 -1.0539
23216SOL    HW273054   5.269   4.221   8.125 -0.3742  0.2717  0.6989
23217SOL     OW73055   3.382   9.222   4.524 -0.7028 -0.1098 -0.2366
23217SOL    HW173056   3.350   9.169   4.451 -1.4259 -0.2648  0.1963
23217SOL    HW273057   3.324   9.298   4.527 -0.8171 -0.2174  0.3267
23218SOL     OW73058   5.702   5.125   5.269 -0.0103  0.0145  0.2875
23218SOL    HW173059   5.647   5.047   5.276 -1.4726  0.8272 -1.6414
23218SOL    HW273060   5.682   5.175   5.348  1.3074 -1.7528  1.7786
23219SOL     OW73061  10.962   4.370   4.885 -0.2414  0.4864  0.6761
23219SOL    HW173062  11.009   4.323   4.954 -0.1378 -2.0795 -1.1047
23219SOL    HW273063  10.915   4.439   4.932  1.9692  0.4975  2.9896
23220SOL     OW73064   3.167   6.478   1.074  0.2512  0.6271  0.4594
23220SOL    HW173065   3.096   6.490   1.138 -0.7809  0.4316 -0.6276
23220SOL    HW273066   3.131   6.417   1.010  0.4560  2.4825 -1.4980
23221SOL     OW73067   0.566   5.358   9.575 -0.3209 -0.1628 -0.3460
23221SOL    HW173068   0.643   5.330   9.526  0.0029 -0.6104  0.4161
23221SOL    HW273069   0.600   5.414   9.644 -0.5145 -1.5105  0.8794
23222SOL     OW73070   9.697   3.970   3.495 -0.0945  0.3588 -0.2522
23222SOL    HW173071   9.715   4.060   3.522 -2.0294 -0.2689  3.4853
23222SOL    HW273072   9.768   3.919   3.534 -0.0411  0.0444 -0.7636
23223SOL     OW73073   3.947   7.095   2.018 -0.5985 -0.2699  0.6431
23223SOL    HW173074   3.997   7.039   1.959 -2.5987  0.9855 -2.3520
23223SOL    HW273075   3.905   7.035   2.079  0.5246 -1.7117  0.0068
23224SOL     OW73076  10.314   0.587   4.148 -0.1837  0.0020  0.2461
23224SOL    HW173077  10.338   0.511   4.095 -0.7091  0.4053 -0.5743
23224SOL    HW273078  10.231   0.563   4.189  0.2328 -0.3187  0.9047
23225SOL     OW73079   9.507   1.866   8.768 -0.4390  0.2091  1.0693
23225SOL    HW173080   9.519   1.849   8.675  0.3044  0.0932  1.1845
23225SOL    HW273081   9.536   1.786   8.811  0.0056  0.5678  1.4410
23226SOL     OW73082   0.305   7.733   7.410 -0.1855 -0.2460  0.1143
23226SOL    HW173083   0.259   7.792   7.469  0.3439 -1.5635  1.8820
23226SOL    HW273084   0.283   7.646   7.441  1.0447 -0.9454 -0.9186
23227SOL     OW73085   1.676   8.933   1.692 -0.1214 -0.1586  0.3386
23227SOL    HW173086   1.624   8.975   1.761 -0.7467  0.6136 -0.5922
23227SOL    HW273087   1.732   8.871   1.739 -2.3500 -1.4837  1.3020
23228SOL     OW73088   2.831   8.198   7.676  0.2695  0.3824 -0.2506
23228SOL    HW173089   2.910   8.248   7.695  0.9171 -0.2997 -1.1297
23228SOL    HW273090   2.823   8.199   7.581  0.0783 -0.8389 -0.2606
23229SOL     OW73091  10.694   7.877   9.323 -0.1657 -0.1772  0.1558
23229SOL    HW173092  10.671   7.790   9.290  2.3691 -0.1772 -1.7399
23229SOL    HW273093  10.707   7.930   9.244  1.9106  0.9427  1.2237
23230SOL     OW73094   8.430   5.352   7.983  0.1784  0.0644  0.5843
23230SOL    HW173095   8.342   5.343   8.018 -1.6424  1.4544 -3.2945
23230SOL    HW273096   8.450   5.445   7.992  0.5506  0.0534 -0.0914
23231SOL     OW73097   5.637   7.020  10.292  0.1963 -0.1040  0.2434
23231SOL    HW173098   5.607   6.935  10.259  0.7135 -0.5618  0.9573
23231SOL    HW273099   5.557   7.061  10.326  0.0180 -0.4602  0.2572
23232SOL     OW73100   6.783   4.246   4.696  0.2486  0.0997  0.1663
23232SOL    HW173101   6.735   4.329   4.696 -1.2066 -0.7342  0.1491
23232SOL    HW273102   6.748   4.197   4.770  0.5840 -0.7898 -0.2531
23233SOL     OW73103   2.424   2.637   6.464  0.2525  0.2655  0.5246
23233SOL    HW173104   2.468   2.562   6.505  1.0800  0.6494  0.3393
23233SOL    HW273105   2.458   2.638   6.375  1.4057  1.7855  0.9683
23234SOL     OW73106   3.309   9.826   5.138 -0.2248  0.5709  0.3737
23234SOL    HW173107   3.270   9.873   5.212  1.0783 -0.7529  1.9793
23234SOL    HW273108   3.378   9.884   5.107  0.9739  0.0414  1.9516
23235SOL     OW73109   3.369   6.332   1.779  0.3219  0.4616 -0.5150
23235SOL    HW173110   3.289   6.309   1.733  1.8213 -2.7535 -1.6578
23235SOL    HW273111   3.340   6.364   1.864 -2.1327 -1.4626 -0.5868
23236SOL     OW73112   6.742   1.326   9.883 -0.3394 -0.1020 -0.3853
23236SOL    HW173113   6.757   1.312   9.977 -2.2111 -0.2001 -0.0938
23236SOL    HW273114   6.670   1.389   9.879  0.1602  0.4048 -1.7660
23237SOL     OW73115   6.395   7.292   3.459 -0.3742  0.6067  0.2349
23237SOL    HW173116   6.337   7.323   3.529 -0.7849  1.9520 -0.6766
23237SOL    HW273117   6.367   7.340   3.382  0.8935  0.0570 -0.5848
23238SOL     OW73118  10.082   5.638   5.940 -0.1592  0.0440  0.9539
23238SOL    HW173119  10.002   5.619   5.989  0.3615  2.3236  2.7819
23238SOL    HW273120  10.124   5.553   5.930 -1.4770 -0.8176  2.3712
23239SOL     OW73121   6.008   5.737  10.682  0.3394  0.1681 -0.1403
23239SOL    HW173122   5.993   5.768  10.593 -1.1891 -3.2818 -1.1765
23239SOL    HW273123   6.076   5.670  10.672  0.7141  0.3076  1.3986
23240SOL     OW73124   7.223  10.297   7.540 -0.1373  0.3173  0.0457
23240SOL    HW173125   7.205  10.277   7.448  1.7699 -0.5556 -0.1486
23240SOL    HW273126   7.265  10.383   7.537  0.1543  0.1735  0.0872
23241SOL     OW73127   5.977   8.496   8.362 -0.8348  0.0430  0.0176
23241SOL    HW173128   6.039   8.568   8.352  0.7320 -1.3960 -0.8019
23241SOL    HW273129   5.979   8.477   8.456  0.8791 -0.7688 -0.1618
23242SOL     OW73130   4.254   3.593   2.086  0.1707  0.2925 -0.2092
23242SOL    HW173131   4.222   3.670   2.133  0.7259  0.6513 -0.4084
23242SOL    HW273132   4.276   3.531   2.155 -1.1058 -0.0225 -0.0815
23243SOL     OW73133   3.339   0.659   1.030  0.5641  0.5219  0.2086
23243SOL    HW173134   3.399   0.729   1.057  2.0411 -1.2894  1.7238
23243SOL    HW273135   3.377   0.579   1.065 -1.3976 -1.0145 -1.0209
23244SOL     OW73136   6.915   0.778   3.007 -0.1342 -0.2845 -0.7510
23244SOL    HW173137   6.941   0.778   2.915 -1.7140  3.4542 -1.3008
23244SOL    HW273138   6.984   0.827   3.052  0.6777 -2.1680  0.1005
23245SOL     OW73139   5.474   8.104   2.739  0.6256 -0.2138  0.5100
23245SOL    HW173140   5.443   8.047   2.668 -0.2272 -0.1874  0.8577
23245SOL    HW273141   5.531   8.048   2.791  0.7648 -0.4057  0.1541
23246SOL     OW73142   7.653   6.277   0.977 -0.0741  0.2234  0.0270
23246SOL    HW173143   7.702   6.241   1.051 -0.2908 -0.8380 -0.3378
23246SOL    HW273144   7.675   6.220   0.904 -0.8139  0.5310 -0.4429
23247SOL     OW73145   9.648   2.975  10.390  0.3701 -0.0465 -0.2893
23247SOL    HW173146   9.586   3.030  10.438  0.7046  1.5800 -1.6648
23247SOL    HW273147   9.684   2.916  10.456 -2.1357 -0.5691  0.6539
23248SOL     OW73148  10.256   1.599   3.971  0.4502  0.4503 -0.5330
23248SOL    HW173149  10.330   1.573   4.026  1.1377  0.9005 -1.2253
23248SOL    HW273150  10.181   1.554   4.009  1.1346 -0.2817 -0.0207
23249SOL     OW73151   2.794   5.968   1.075 -0.2734 -0.1144  0.1317
23249SOL    HW173152   2.876   6.016   1.062  0.2693 -1.0364  0.1074
23249SOL    HW273153   2.733   6.033   1.108  0.3853  0.6496 -0.1363
23250SOL     OW73154   7.103   1.466   6.789  0.1864 -0.4278  0.0086
23250SOL    HW173155   7.057   1.407   6.849  0.5116  0.3202  1.0180
23250SOL    HW273156   7.053   1.548   6.793  0.6605 -0.1289 -0.1399
23251SOL     OW73157   8.674   8.854   7.403  0.2853 -0.7172 -0.2167
23251SOL    HW173158   8.743   8.917   7.381 -0.8654  0.3813 -0.7301
23251SOL    HW273159   8.620   8.900   7.467 -1.1614 -0.7950 -1.3650
23252SOL     OW73160  10.531   8.993   5.865 -0.1743  0.1021 -0.2058
23252SOL    HW173161  10.612   9.021   5.821 -0.0845 -0.3414 -0.3324
23252SOL    HW273162  10.463   9.048   5.827  0.4392  2.4042  1.8536
23253SOL     OW73163   5.192   7.442   4.590 -0.0576 -0.0836  0.2610
23253SOL    HW173164   5.157   7.378   4.528 -1.9812  1.6523 -0.4850
23253SOL    HW273165   5.194   7.524   4.541  1.1724  0.7055  1.5986
23254SOL     OW73166  10.530   9.214  10.465 -0.4555 -0.8949  0.3689
23254SOL    HW173167  10.480   9.160  10.404 -1.4776 -1.2467  1.4947
23254SOL    HW273168  10.464   9.271  10.505  0.3851  0.1637  0.2737
23255SOL     OW73169   1.648  10.224   9.509 -0.2954 -0.6742 -0.0585
23255SOL    HW173170   1.729  10.179   9.529 -0.2111 -0.6012 -0.2317
23255SOL    HW273171   1.671  10.284   9.437  0.1647  1.4012  1.7750
23256SOL     OW73172   8.822   5.368   8.127  0.0035 -0.0983 -0.3467
23256SOL    HW173173   8.790   5.456   8.107 -1.5189 -0.6688 -0.4671
23256SOL    HW273174   8.765   5.310   8.077 -0.9695 -1.2997  2.1086
23257SOL     OW73175   5.520   0.381  10.472 -0.1988  0.1519 -0.3310
23257SOL    HW173176   5.503   0.398  10.565 -2.0499 -0.0506 -0.6249
23257SOL    HW273177   5.529   0.468  10.433 -0.1717  0.2507 -0.1057
23258SOL     OW73178   1.504   1.755   5.729 -0.1282  0.0213  0.0383
23258SOL    HW173179   1.490   1.841   5.770  1.5557  0.7318 -0.8524
23258SOL    HW273180   1.415   1.722   5.715 -0.8191  1.7952  0.0090
23259SOL     OW73181   8.699   0.267   9.265 -0.0777  0.3394  0.4997
23259SOL    HW173182   8.612   0.236   9.291 -0.0130 -0.1483  0.1229
23259SOL    HW273183   8.697   0.270   9.169  1.3390 -2.6665  0.3159
23260SOL     OW73184   9.840   5.646   3.290 -0.2985 -0.3816 -0.5030
23260SOL    HW173185   9.846   5.741   3.282 -0.6902 -0.2794  0.3543
23260SOL    HW273186   9.772   5.620   3.227 -1.7369  0.1503  0.8049
23261SOL     OW73187   5.674   7.991   2.495 -0.2137 -0.0531  0.2068
23261SOL    HW173188   5.618   8.067   2.478 -0.3531 -0.5003 -1.3698
23261SOL    HW273189   5.614   7.924   2.526 -0.6258 -0.6710 -1.9004
23262SOL     OW73190   8.200   0.248   9.354 -0.0549  0.1730  0.5325
23262SOL    HW173191   8.121   0.243   9.300  0.9394 -1.1814 -0.8234
23262SOL    HW273192   8.201   0.167   9.404  0.2800  0.3568  0.8307
23263SOL     OW73193   7.215   7.399   7.342  0.0501  0.2885 -0.3286
23263SOL    HW173194   7.152   7.464   7.373  0.6584  1.8018 -2.1712
23263SOL    HW273195   7.194   7.320   7.392 -2.4411  1.1310  0.0571
23264SOL     OW73196   7.960   7.912   9.831  0.4929 -0.4592 -0.2376
23264SOL    HW173197   7.988   7.997   9.795 -2.1056 -0.0119 -1.2923
23264SOL    HW273198   7.991   7.848   9.768 -1.8607  0.1329 -2.0874
23265SOL     OW73199   8.294   7.999   9.554  0.4183 -0.0929 -0.6211
23265SOL    HW173200   8.340   8.071   9.512 -0.0801  0.7542  0.2604
23265SOL    HW273201   8.300   7.927   9.491  1.1617  0.6202 -1.3889
23266SOL     OW73202   9.115   9.347   2.254  0.2303 -0.6114 -0.2153
23266SOL    HW173203   9.190   9.311   2.300 -0.0254  0.3807  1.0064
23266SOL    HW273204   9.148   9.426   2.211  0.6299 -1.8979 -2.3285
23267SOL     OW73205  10.295   8.891   4.971  0.0483 -0.3447 -0.2792
23267SOL    HW173206  10.360   8.907   4.902 -0.3236  1.5728 -0.2143
23267SOL    HW273207  10.318   8.805   5.006  1.2803 -0.6017 -1.6485
23268SOL     OW73208  10.712   3.095   5.430  0.4198  0.3695  0.1306
23268SOL    HW173209  10.775   3.126   5.365  0.4396 -1.6241 -0.8531
23268SOL    HW273210  10.740   3.135   5.512  1.5570  1.3844 -0.7278
23269SOL     OW73211  10.289   7.263   8.871  0.0004  0.3487  0.0159
23269SOL    HW173212  10.382   7.286   8.880  0.7065 -1.6625 -1.6059
23269SOL    HW273213  10.263   7.300   8.787 -0.8071  1.2462  0.6443
23270SOL     OW73214   4.723   4.042   8.343 -0.1811 -0.0034  0.0129
23270SOL    HW173215   4.712   3.976   8.275 -0.2944 -0.0195  0.0471
23270SOL    HW273216   4.663   4.015   8.413 -0.3603  0.2325 -0.0486
23271SOL     OW73217   6.772   8.971   1.194 -0.1168 -0.1775  0.8055
23271SOL    HW173218   6.740   8.887   1.159  0.0959  1.4128 -3.4711
23271SOL    HW273219   6.695   9.009   1.237 -1.4187 -0.6892 -0.9781
23272SOL     OW73220   7.849  10.208   8.546  0.2816 -0.9097 -0.3852
23272SOL    HW173221   7.829  10.122   8.511  0.3509 -0.9264 -0.3806
23272SOL    HW273222   7.792  10.218   8.622 -1.0859 -0.1819 -1.4835
23273SOL     OW73223   1.608   5.619   3.200 -0.3290 -0.1086  0.4516
23273SOL    HW173224   1.569   5.697   3.242 -0.2458  0.2860 -0.2035
23273SOL    HW273225   1.697   5.645   3.179 -0.1914 -0.5019  0.5410
23274SOL     OW73226   4.298   2.671   4.767 -0.1254 -0.1031  0.4373
23274SOL    HW173227   4.311   2.650   4.859 -0.2520  0.0473  0.4882
23274SOL    HW273228   4.227   2.614   4.738 -0.2398  0.0134  0.4899
23275SOL     OW73229   7.571   4.393   1.183  0.0734 -0.6677 -0.8233
23275SOL    HW173230   7.531   4.470   1.143  0.9752  1.6002  2.4473
23275SOL    HW273231   7.516   4.375   1.260  1.1558 -1.9201 -0.3374
23276SOL     OW73232   6.407   8.242   1.659  0.2843  0.6567 -0.6189
23276SOL    HW173233   6.324   8.203   1.688  0.1798  1.8405  0.7441
23276SOL    HW273234   6.386   8.286   1.577  0.0963 -0.9800 -1.4692
23277SOL     OW73235   4.062   9.402   2.390 -0.1817 -0.0028 -0.2884
23277SOL    HW173236   4.117   9.331   2.357 -0.5207 -0.5420  0.2940
23277SOL    HW273237   4.005   9.424   2.316  1.1308  0.9012 -1.0654
23278SOL     OW73238   9.645  10.335   2.677  0.0173  0.0632  0.1338
23278SOL    HW173239   9.710  10.319   2.609 -0.7366 -0.0229 -0.5812
23278SOL    HW273240   9.609  10.421   2.656  0.2860  0.3546  0.8483
23279SOL     OW73241   3.566   4.604   0.453 -0.1170  0.2624 -0.0260
23279SOL    HW173242   3.549   4.602   0.359 -1.3818  2.0371  0.1391
23279SOL    HW273243   3.604   4.691   0.469 -0.0970  0.0549  1.1343
23280SOL     OW73244   3.531   9.184   1.128 -0.1338  0.0935  0.0562
23280SOL    HW173245   3.588   9.121   1.085  0.5259  0.5129  0.3067
23280SOL    HW273246   3.444   9.168   1.091 -0.1128 -1.4411  0.6409
23281SOL     OW73247   3.297   0.761   5.139  0.4117  0.0723 -0.6515
23281SOL    HW173248   3.218   0.713   5.114  0.9196 -0.5568 -1.0838
23281SOL    HW273249   3.363   0.734   5.074  1.1924 -0.0227  0.1634
23282SOL     OW73250   3.561   6.786   5.108  0.3113  0.0225 -0.1163
23282SOL    HW173251   3.602   6.853   5.053 -0.3510 -0.8846 -1.7477
23282SOL    HW273252   3.563   6.823   5.196  0.3977  1.9791 -0.9147
23283SOL     OW73253   6.932   8.108  10.270 -0.4676 -0.0662  0.2465
23283SOL    HW173254   6.848   8.064  10.258  0.2429 -1.4617  0.3474
23283SOL    HW273255   6.946   8.110  10.365 -0.0608 -0.4554  0.1974
23284SOL     OW73256   0.371   1.352   3.194  0.2757  0.0394  0.3099
23284SOL    HW173257   0.329   1.289   3.252 -0.2199 -0.9501 -1.1101
23284SOL    HW273258   0.312   1.359   3.119  2.4984 -1.2311 -1.6226
23285SOL     OW73259   2.076   9.156   6.181 -0.4403  0.1534  0.3804
23285SOL    HW173260   2.163   9.193   6.170 -0.3159 -0.0089  0.7913
23285SOL    HW273261   2.036   9.209   6.251 -0.7875  0.4348 -0.0267
23286SOL     OW73262   3.879   4.550  10.265  0.4706  0.1331  0.0515
23286SOL    HW173263   3.858   4.557  10.172 -1.2271  0.5066  0.4330
23286SOL    HW273264   3.947   4.483  10.270  1.5772  1.1033 -1.5877
23287SOL     OW73265   5.593   2.014   2.028 -0.4314 -0.2127 -0.4906
23287SOL    HW173266   5.637   1.936   2.062 -2.7718 -1.5160 -0.3205
23287SOL    HW273267   5.626   2.024   1.939  0.0681 -1.2649 -0.4272
23288SOL     OW73268   1.026   9.977   5.199 -0.6821  0.3965 -0.1140
23288SOL    HW173269   0.988   9.890   5.187 -0.7106  0.4652 -0.5469
23288SOL    HW273270   1.112   9.961   5.237 -1.3839  0.2685  1.4574
23289SOL     OW73271   0.519   1.543   7.533 -0.1725 -0.0453 -0.2324
23289SOL    HW173272   0.601   1.589   7.512 -1.1942  1.2233 -1.4810
23289SOL    HW273273   0.499   1.571   7.622  0.1719  0.4982 -0.3204
23290SOL     OW73274   1.766   2.253   6.797 -0.1586 -0.0754  0.1526
23290SOL    HW173275   1.850   2.211   6.816 -0.5054 -1.0014 -0.3663
23290SOL    HW273276   1.779   2.294   6.711 -0.5279 -1.0201 -0.3655
23291SOL     OW73277   9.684  10.786   7.938 -0.0387 -0.9926 -0.3380
23291SOL    HW173278   9.608  10.802   7.882  0.4838 -1.6020 -1.2328
23291SOL    HW273279   9.747  10.854   7.913 -0.7138  0.2401  1.2170
23292SOL     OW73280   9.496   4.895   0.708 -0.1535  0.8391  0.6735
23292SOL    HW173281   9.585   4.886   0.674 -1.2835  0.0403 -2.2241
23292SOL    HW273282   9.508   4.909   0.802  2.9321 -1.7509  0.7681
23293SOL     OW73283   6.130   2.451   3.496  0.5054 -0.0151 -0.2428
23293SOL    HW173284   6.075   2.503   3.437 -0.1562 -1.9025 -1.3400
23293SOL    HW273285   6.073   2.429   3.569  0.1752 -0.9470 -0.7854
23294SOL     OW73286   9.533   4.300   2.639 -0.0116  0.4655  0.3220
23294SOL    HW173287   9.493   4.374   2.686 -0.3360  1.1775 -1.0386
23294SOL    HW273288   9.590   4.259   2.703  0.6822  2.3129  0.9263
23295SOL     OW73289   0.659   4.147  10.230  0.4225  0.3305 -0.3059
23295SOL    HW173290   0.676   4.168  10.322  0.2299 -1.1037  0.0727
23295SOL    HW273291   0.637   4.232  10.190  0.1434  0.9188  1.0479
23296SOL     OW73292   3.858   7.485   4.568 -0.1974 -0.2586 -0.3048
23296SOL    HW173293   3.909   7.406   4.548 -1.3780 -0.6367 -1.9919
23296SOL    HW273294   3.805   7.498   4.490 -0.7049  1.6784  0.3569
23297SOL     OW73295  10.026   2.254   6.201  0.1027 -0.1072  0.1620
23297SOL    HW173296  10.060   2.341   6.223 -2.8605  0.6972  1.8765
23297SOL    HW273297  10.032   2.205   6.282 -2.2275 -0.1056  0.3597
23298SOL     OW73298  10.074   8.437   9.908  0.6072  0.6099 -0.3489
23298SOL    HW173299  10.021   8.408   9.983  2.9841 -1.0323  0.7699
23298SOL    HW273300  10.029   8.400   9.832 -1.5422  1.8193  0.2862
23299SOL     OW73301   4.885  10.296   4.741 -0.0233 -0.1084 -0.0766
23299SOL    HW173302   4.799  10.279   4.704 -0.2083 -1.4577  0.9325
23299SOL    HW273303   4.926  10.210   4.747  1.2170  0.4665 -0.1108
23300SOL     OW73304   3.990   6.941   9.248 -0.3905 -0.2102 -0.2787
23300SOL    HW173305   4.009   6.885   9.172 -0.3391  1.0157 -1.1977
23300SOL    HW273306   3.914   6.900   9.289 -1.9741  0.4393 -2.4307
23301SOL     OW73307   9.231   4.764   3.707  0.4290 -0.3112  0.1683
23301SOL    HW173308   9.167   4.820   3.751  0.9863  0.8773 -0.4953
23301SOL    HW273309   9.306   4.822   3.691  2.4877 -2.1358  2.6926
23302SOL     OW73310   4.746   7.328   3.393  0.6879  0.1240  0.5434
23302SOL    HW173311   4.721   7.356   3.481  1.3233  1.8315  0.1964
23302SOL    HW273312   4.792   7.246   3.406 -1.4359 -0.9511  1.5742
23303SOL     OW73313   6.821   4.360   9.925  0.9757 -0.3273 -0.1300
23303SOL    HW173314   6.904   4.371   9.971  0.7026  0.1379  0.2609
23303SOL    HW273315   6.841   4.299   9.854  2.0015  0.9298 -0.9558
23304SOL     OW73316   8.708  10.111   4.460  0.0701  0.1937  0.0708
23304SOL    HW173317   8.655  10.058   4.519 -0.9221 -0.2195 -1.1659
23304SOL    HW273318   8.764  10.163   4.518 -0.9917 -0.0750  1.3669
23305SOL     OW73319   1.513   6.164  10.650  0.1936 -0.4214  0.3043
23305SOL    HW173320   1.520   6.174  10.745 -1.0860 -0.5260  0.4210
23305SOL    HW273321   1.570   6.089  10.629  1.4005  0.3340  0.8202
23306SOL     OW73322   0.397   2.582   1.014  0.4189  0.0710  0.1904
23306SOL    HW173323   0.357   2.514   0.960  1.5033  0.5287 -1.2173
23306SOL    HW273324   0.462   2.536   1.067 -0.0452 -0.2421  0.4946
23307SOL     OW73325   2.183   9.734   5.518 -0.2750 -0.9337  0.1240
23307SOL    HW173326   2.103   9.764   5.474  0.6610 -0.4458 -1.2481
23307SOL    HW273327   2.234   9.691   5.450  1.1439 -0.2778  0.7596
23308SOL     OW73328   9.043  10.277   6.500 -0.0788  0.1079 -0.4304
23308SOL    HW173329   9.103  10.327   6.556 -0.5354  1.9263 -1.5375
23308SOL    HW273330   9.085  10.276   6.414 -0.4629 -0.7598 -0.6196
23309SOL     OW73331   9.592   3.025   5.525 -0.3206  0.8012 -0.0082
23309SOL    HW173332   9.663   3.037   5.588 -0.4568  0.8756  0.1330
23309SOL    HW273333   9.515   3.007   5.579 -0.6016  1.6566 -0.1192
23310SOL     OW73334   2.984   6.374   8.044 -0.1597 -0.0932 -0.2896
23310SOL    HW173335   2.903   6.383   7.995 -0.4386 -0.9804  0.0056
23310SOL    HW273336   3.041   6.443   8.009 -0.7296 -0.0306 -1.1044
23311SOL     OW73337   8.469   2.055   2.407  0.2190  0.1092 -0.1766
23311SOL    HW173338   8.423   2.087   2.484 -0.0246 -1.0574  0.1608
23311SOL    HW273339   8.404   2.058   2.337  0.2992  0.6812 -0.2356
23312SOL     OW73340   7.620   3.225   3.206 -0.4897 -0.3520  0.2469
23312SOL    HW173341   7.621   3.287   3.134 -2.3367  1.3991  1.6703
23312SOL    HW273342   7.536   3.179   3.197 -0.3031 -0.7964  0.7295
23313SOL     OW73343   4.554   3.492   2.962  0.2522  0.0672  0.1778
23313SOL    HW173344   4.637   3.480   3.008  0.1625 -1.0656  0.0487
23313SOL    HW273345   4.546   3.415   2.906  0.3117  1.3680 -1.6896
23314SOL     OW73346   5.684   4.237   9.855  0.1643 -0.4459  0.5767
23314SOL    HW173347   5.776   4.259   9.844 -0.3645  1.9431  0.7867
23314SOL    HW273348   5.657   4.285   9.934 -1.5162 -0.2943 -0.0789
23315SOL     OW73349   6.551   8.455   8.246  0.1079 -0.0088  0.0171
23315SOL    HW173350   6.578   8.441   8.155 -2.5541 -0.5434 -0.7447
23315SOL    HW273351   6.569   8.547   8.264  1.9969 -0.2582 -0.5688
23316SOL     OW73352  10.685   6.533   5.949  0.2502  0.2115  0.1532
23316SOL    HW173353  10.675   6.627   5.960  0.9233  0.4488 -1.2684
23316SOL    HW273354  10.637   6.513   5.869  1.2182 -0.4589 -0.2627
23317SOL     OW73355   6.584   9.020  10.881  0.2677 -0.1010 -0.9431
23317SOL    HW173356   6.585   8.931  10.845  0.8414 -0.2168 -0.6519
23317SOL    HW273357   6.669   9.057  10.858  0.0186  0.3859 -1.0873
23318SOL     OW73358   8.723   7.898   0.764  0.3486 -0.1106  0.0688
23318SOL    HW173359   8.651   7.836   0.765  0.5539 -0.3408  1.6977
23318SOL    HW273360   8.801   7.845   0.745  0.5090 -0.3736  1.3664
23319SOL     OW73361   0.888   8.697   0.253 -0.0944 -0.0970 -0.5159
23319SOL    HW173362   0.914   8.723   0.341  0.1805  1.1535 -0.9495
23319SOL    HW273363   0.792   8.696   0.255 -0.0625 -1.6896  0.2442
23320SOL     OW73364   0.386   3.099  10.065  0.1287  0.3137  0.1642
23320SOL    HW173365   0.479   3.083  10.077 -0.2546 -2.0607  0.1343
23320SOL    HW273366   0.368   3.073   9.975 -0.1985  2.6924 -0.5013
23321SOL     OW73367   8.670   7.422   2.211  0.0482  0.1262 -0.0176
23321SOL    HW173368   8.642   7.511   2.234 -2.1076 -0.9007  1.6139
23321SOL    HW273369   8.653   7.415   2.117  0.7433  1.6077 -0.2676
23322SOL     OW73370   5.752   1.030   1.615 -0.6426  0.1643 -0.6521
23322SOL    HW173371   5.828   0.986   1.578  1.0963  2.9734 -0.5461
23322SOL    HW273372   5.743   1.110   1.564 -0.6727  2.1399  2.3146
23323SOL     OW73373   2.294   7.823   6.123 -0.5726  0.5671 -0.6515
23323SOL    HW173374   2.285   7.914   6.155 -0.5617 -0.0544  1.2031
23323SOL    HW273375   2.374   7.791   6.164  0.4308  0.3026 -2.8017
23324SOL     OW73376   9.135   9.257   3.518 -0.0499 -0.2109 -0.2893
23324SOL    HW173377   9.099   9.345   3.530  1.5980  0.7695 -2.1890
23324SOL    HW273378   9.059   9.199   3.526 -1.4630  1.5170 -0.7261
23325SOL     OW73379   3.334  10.136   1.036  0.7853  0.1780 -0.5070
23325SOL    HW173380   3.335  10.230   1.019 -1.4001 -0.0994 -2.4838
23325SOL    HW273381   3.247  10.120   1.074  0.8185 -1.1658 -0.9718
23326SOL     OW73382   6.156   9.797   1.426 -0.3615 -0.3862  0.2996
23326SOL    HW173383   6.136   9.887   1.453  1.1301 -0.2473  0.9854
23326SOL    HW273384   6.150   9.799   1.330  1.7332  0.9970  0.1412
23327SOL     OW73385  10.737   9.043   1.704 -0.3940 -0.0801  0.2344
23327SOL    HW173386  10.694   9.121   1.666  0.9212  0.2004 -0.7191
23327SOL    HW273387  10.681   9.019   1.778 -2.2359  0.2434 -1.0003
23328SOL     OW73388   4.024   9.533   0.799 -0.0959  0.3499  0.4728
23328SOL    HW173389   4.108   9.526   0.844 -0.6418  1.5822  1.7633
23328SOL    HW273390   4.027   9.618   0.755 -0.1936 -0.1422 -0.5000
23329SOL     OW73391   4.165   0.866  10.262  0.5592  0.8584 -0.3285
23329SOL    HW173392   4.226   0.860  10.336 -0.7540 -0.8430  0.6599
23329SOL    HW273393   4.215   0.830  10.188  0.6763 -0.9086  0.5621
23330SOL     OW73394   7.828   0.822   5.244  0.3090  0.6616  0.2259
23330SOL    HW173395   7.887   0.874   5.190  2.1152 -1.7760 -0.1872
23330SOL    HW273396   7.755   0.799   5.186  0.4847  1.0392 -0.1402
23331SOL     OW73397   3.095  10.294   4.836 -0.2589  0.3447 -0.5761
23331SOL    HW173398   3.014  10.280   4.884  0.3088 -0.0997  0.2606
23331SOL    HW273399   3.155  10.331   4.901 -0.3867  2.5388 -1.6563
23332SOL     OW73400   6.085   8.025  10.331 -0.2583 -0.0541  0.0422
23332SOL    HW173401   5.996   8.005  10.358  0.1613 -1.1714  0.6329
23332SOL    HW273402   6.121   8.077  10.403 -0.2734 -0.0169  0.0221
23333SOL     OW73403   8.233   7.620   6.593  0.2989  0.4287 -1.1672
23333SOL    HW173404   8.257   7.636   6.685  1.1892 -0.7209 -1.1878
23333SOL    HW273405   8.148   7.577   6.598 -0.4885  1.9698 -0.9681
23334SOL     OW73406   7.301   3.494   4.567  0.6609 -0.1260  0.6527
23334SOL    HW173407   7.280   3.408   4.602  1.0698  0.0879  1.4475
23334SOL    HW273408   7.387   3.483   4.526 -0.6065 -0.8099 -1.8963
23335SOL     OW73409   2.761   3.560   1.791  0.1653  0.2988 -0.4524
23335SOL    HW173410   2.732   3.481   1.745 -1.2426  1.6770 -2.0100
23335SOL    HW273411   2.845   3.581   1.750 -0.1836  0.4590 -1.0924
23336SOL     OW73412   6.853   5.389   0.405  0.6235  0.4311 -0.4210
23336SOL    HW173413   6.883   5.301   0.382  3.0141  1.0638  0.1137
23336SOL    HW273414   6.924   5.447   0.376  0.1015  1.9713  1.2554
23337SOL     OW73415   3.461   5.425   6.342 -0.5899 -0.1840  0.1000
23337SOL    HW173416   3.555   5.440   6.356 -0.7702  1.5423 -0.3976
23337SOL    HW273417   3.440   5.350   6.398  1.0938 -0.6103  0.1889
23338SOL     OW73418   4.912  10.668   1.426  0.6448  0.0838  0.2730
23338SOL    HW173419   4.929  10.761   1.408 -0.0522 -0.2719 -2.4259
23338SOL    HW273420   4.904  10.628   1.340 -1.1516 -2.1020  1.4048
23339SOL     OW73421   5.797   8.655  10.307  0.4261 -0.5067 -0.3183
23339SOL    HW173422   5.721   8.614  10.348 -0.3912  0.3136 -0.9785
23339SOL    HW273423   5.857   8.673  10.380 -1.1257  1.2046  0.5842
23340SOL     OW73424   9.027   7.412   5.425 -0.1588  0.4064  0.0947
23340SOL    HW173425   9.045   7.467   5.348  0.2304  2.3454  1.5538
23340SOL    HW273426   9.037   7.322   5.392  1.2724  1.2276 -1.8114
23341SOL     OW73427   1.585  10.860   6.467  0.4248  0.6234  0.3290
23341SOL    HW173428   1.541  10.833   6.386 -0.1444  0.2981  0.7395
23341SOL    HW273429   1.514  10.870   6.530  0.7889  1.6490  0.5802
23342SOL     OW73430   0.340   0.324   0.004  0.1781 -0.0060 -0.2040
23342SOL    HW173431   0.290   0.372  -0.061  1.1451  1.0610 -0.1650
23342SOL    HW273432   0.273   0.285   0.062 -0.6235  0.4658 -0.8056
23343SOL     OW73433   1.122   0.846  10.029  0.5041  0.2189 -0.3289
23343SOL    HW173434   1.031   0.839  10.001 -0.2189  3.0173  1.1739
23343SOL    HW273435   1.144   0.759  10.063 -1.4169 -0.6152 -1.1827
23344SOL     OW73436   8.338   5.162   6.630 -0.1546  0.0709 -0.3242
23344SOL    HW173437   8.309   5.136   6.718 -1.5102  0.2318 -0.7148
23344SOL    HW273438   8.286   5.109   6.570 -0.5719  1.2847 -1.0643
23345SOL     OW73439   3.478   8.343   1.299  0.4990  0.0738  0.3702
23345SOL    HW173440   3.558   8.391   1.322  1.1941 -0.0299 -1.7100
23345SOL    HW273441   3.484   8.261   1.348  2.0721 -0.2678 -0.3708
23346SOL     OW73442   1.262   7.103   2.062 -0.0910  0.2618 -0.0173
23346SOL    HW173443   1.306   7.110   1.977  0.4800 -0.4770  0.2154
23346SOL    HW273444   1.172   7.130   2.044  0.0560  0.2306 -0.8340
23347SOL     OW73445   0.464   5.981  10.405  0.5131  0.0199  0.6579
23347SOL    HW173446   0.459   6.019  10.493  1.5693 -1.2293  1.2844
23347SOL    HW273447   0.557   5.989  10.382  0.2810  0.0987 -0.2364
23348SOL     OW73448   6.562   0.382   5.077  0.0163 -0.7106  0.0282
23348SOL    HW173449   6.489   0.380   5.016  1.8834 -0.4560 -2.3024
23348SOL    HW273450   6.555   0.467   5.121  1.3650  1.2395 -3.3619
23349SOL     OW73451   3.005   0.737   4.854  0.4149 -0.6032  0.4309
23349SOL    HW173452   2.913   0.716   4.868  0.1928  0.5402  0.6886
23349SOL    HW273453   3.052   0.680   4.915 -0.2342  0.2816  1.7696
23350SOL     OW73454   5.616   4.225   1.653  0.4633  0.4710  0.4434
23350SOL    HW173455   5.589   4.143   1.695  0.3671  0.6789  0.7863
23350SOL    HW273456   5.656   4.197   1.571 -0.0553  0.1119  0.3107
23351SOL     OW73457   8.729   1.508   9.079 -0.7102  0.3357 -0.5640
23351SOL    HW173458   8.796   1.477   9.139 -2.8740 -5.0595 -0.6269
23351SOL    HW273459   8.765   1.491   8.992 -0.6115  1.0521 -0.6635
23352SOL     OW73460   9.913   7.722   7.771 -0.6359 -0.7798  0.2792
23352SOL    HW173461   9.925   7.627   7.773 -0.2008 -0.7023  1.6761
23352SOL    HW273462   9.844   7.739   7.835  0.2096 -0.0315  0.9995
23353SOL     OW73463   3.818   4.925   3.835  0.4108  0.3907 -0.0278
23353SOL    HW173464   3.727   4.908   3.809  0.5524  1.9243 -1.6461
23353SOL    HW273465   3.830   4.875   3.916 -1.4386 -0.9618 -0.5603
23354SOL     OW73466   0.023   7.243  10.925 -0.2347  0.5648  0.1153
23354SOL    HW173467  -0.015   7.155  10.920 -1.3968  0.9551  1.6195
23354SOL    HW273468   0.108   7.235  10.881 -0.7422 -1.0705 -0.6156
23355SOL     OW73469   0.666   7.647   9.745  1.3080 -0.2258  0.4301
23355SOL    HW173470   0.630   7.734   9.760 -1.1603 -1.2643  0.7820
23355SOL    HW273471   0.670   7.607   9.832  1.6609 -0.7632  0.1732
23356SOL     OW73472   2.842   6.179   3.490  0.0686 -0.0270  0.4928
23356SOL    HW173473   2.748   6.174   3.472  0.0513  0.1311  0.5428
23356SOL    HW273474   2.884   6.148   3.410 -0.0714 -2.4038  1.2941
23357SOL     OW73475   5.984   6.038   2.300 -0.3231  0.1512  0.3506
23357SOL    HW173476   6.023   6.088   2.228  0.5276  0.1073  0.7796
23357SOL    HW273477   5.894   6.070   2.305  0.1059  1.3634  0.3700
23358SOL     OW73478  10.063   1.884   9.212 -0.2169  0.3847 -0.1692
23358SOL    HW173479  10.047   1.931   9.295 -1.0209  1.1101 -0.7287
23358SOL    HW273480  10.055   1.792   9.235 -1.4301  0.6110  0.3584
23359SOL     OW73481   2.244   8.081   1.437 -0.2531 -1.0412 -0.0600
23359SOL    HW173482   2.227   8.087   1.531 -0.6501 -0.5044 -0.1705
23359SOL    HW273483   2.290   7.997   1.428 -1.3875 -1.7441  0.4396
23360SOL     OW73484   1.100   0.182   0.997  0.0315  0.0620 -0.5032
23360SOL    HW173485   1.061   0.095   1.007 -0.7875  0.5287  0.4126
23360SOL    HW273486   1.046   0.239   1.050  2.8479  0.4924  2.0363
23361SOL     OW73487   4.756   3.172   0.922 -0.2681 -0.0611  0.0817
23361SOL    HW173488   4.824   3.112   0.955  1.0007  0.9541 -0.6529
23361SOL    HW273489   4.773   3.254   0.967 -1.3419  0.0587  0.2781
23362SOL     OW73490   4.893   3.704   9.955 -0.0642  0.0089 -0.1311
23362SOL    HW173491   4.948   3.739   9.885 -0.1411 -3.3898 -1.9975
23362SOL    HW273492   4.806   3.696   9.917 -0.7514  0.7405  1.2404
23363SOL     OW73493   0.128   8.655   5.691  0.0327 -0.5285 -0.1396
23363SOL    HW173494   0.052   8.651   5.749  0.0591 -0.6642 -0.1148
23363SOL    HW273495   0.153   8.748   5.691 -0.4418 -0.4019 -0.5470
23364SOL     OW73496   1.255   7.799   3.281 -0.2955 -0.3340 -0.2381
23364SOL    HW173497   1.328   7.823   3.224 -0.8303  2.5259  0.1921
23364SOL    HW273498   1.179   7.842   3.243 -0.9532  0.2988  1.7235
23365SOL     OW73499   1.058   6.934   8.059 -0.5015  0.8728  0.2600
23365SOL    HW173500   1.000   6.859   8.045  2.7795 -1.7624  0.0823
23365SOL    HW273501   1.061   6.979   7.974 -0.8391 -0.0537 -0.2499
23366SOL     OW73502   3.004   1.655   6.072 -0.0463 -0.1601  0.2713
23366SOL    HW173503   2.981   1.734   6.120  1.0854 -0.0999  0.7381
23366SOL    HW273504   2.985   1.583   6.133 -1.4231 -0.2864 -0.2860
23367SOL     OW73505   1.623   7.172   6.416  0.6156  0.4794 -0.3095
23367SOL    HW173506   1.688   7.222   6.466 -1.7359  3.1040  0.2453
23367SOL    HW273507   1.569   7.129   6.483  0.2714  0.2835 -0.7143
23368SOL     OW73508   6.460   3.446   2.505  0.0022 -0.0538  0.9033
23368SOL    HW173509   6.511   3.468   2.427 -0.9390  0.5807  0.4549
23368SOL    HW273510   6.502   3.494   2.576  0.6075 -0.3019  0.7129
23369SOL     OW73511   0.959   5.753   8.139 -0.2853 -0.3419 -0.2696
23369SOL    HW173512   0.990   5.703   8.063 -1.0254 -0.8097 -0.2674
23369SOL    HW273513   0.926   5.687   8.199  0.9509 -0.0240  0.7835
23370SOL     OW73514   4.967   1.087   6.841  0.1266  0.2174 -0.0858
23370SOL    HW173515   5.018   1.072   6.761  2.9126  1.2727  1.4199
23370SOL    HW273516   5.023   1.053   6.911 -1.7305  0.4458  1.5293
23371SOL     OW73517   7.029   7.160   5.982  0.4219  0.1879  0.2157
23371SOL    HW173518   6.997   7.153   6.072  3.4229 -0.5630  1.2750
23371SOL    HW273519   7.022   7.072   5.947  1.1404  0.0582  0.3935
23372SOL     OW73520   7.239   3.707   3.516 -0.0329  0.3695 -0.0474
23372SOL    HW173521   7.222   3.744   3.430  0.6101  0.6246 -0.0632
23372SOL    HW273522   7.294   3.772   3.560 -0.8097  0.4937  0.7524
23373SOL     OW73523  10.641   7.750   2.951  0.5379 -0.3099 -0.4906
23373SOL    HW173524  10.614   7.827   2.901  0.8878 -0.4978 -0.9745
23373SOL    HW273525  10.641   7.779   3.042 -0.5778 -0.1074 -0.5485
23374SOL     OW73526  10.066   2.505   7.926  0.1222 -0.1345 -0.3972
23374SOL    HW173527  10.155   2.483   7.897 -0.1171 -0.7777 -0.6391
23374SOL    HW273528  10.019   2.422   7.924 -0.4783  0.2048 -0.2362
23375SOL     OW73529   8.028   4.368   1.566  0.2727 -0.0795 -0.5001
23375SOL    HW173530   7.966   4.372   1.639  0.4610 -0.1565 -0.3352
23375SOL    HW273531   8.114   4.357   1.608  0.2308 -1.5638 -0.7953
23376SOL     OW73532   3.638   6.307  10.044 -0.3717  0.0255 -0.1802
23376SOL    HW173533   3.657   6.355  10.124  0.0527 -0.9416  0.3043
23376SOL    HW273534   3.718   6.313   9.992  0.7719 -2.6785  1.1713
23377SOL     OW73535   6.782   2.872   5.637 -0.5272 -0.5878 -0.0668
23377SOL    HW173536   6.728   2.902   5.564  0.8802  0.6937 -0.6126
23377SOL    HW273537   6.868   2.910   5.621 -0.3678  0.3455  2.6599
23378SOL     OW73538   1.552  10.721   1.470  0.0015  0.1653  0.0699
23378SOL    HW173539   1.596  10.664   1.407  0.8298  0.6503  0.1958
23378SOL    HW273540   1.554  10.808   1.430  1.1963  0.6171  1.0779
23379SOL     OW73541   5.287  10.932   3.848 -0.0212 -0.2705  1.1359
23379SOL    HW173542   5.305  11.023   3.823 -0.8153 -0.8943 -1.8938
23379SOL    HW273543   5.325  10.880   3.778 -3.1558 -2.0898  0.6843
23380SOL     OW73544   4.868   6.644   3.992  0.0978 -0.4362 -0.9766
23380SOL    HW173545   4.828   6.726   3.963  1.6548  0.6542 -0.0448
23380SOL    HW273546   4.834   6.579   3.930 -0.0080  1.1358 -2.6232
23381SOL     OW73547   0.817   2.926  10.469  0.0725  0.4545  0.1293
23381SOL    HW173548   0.807   2.875  10.550  0.6561 -0.0586 -0.1165
23381SOL    HW273549   0.728   2.936  10.435  0.1573 -2.3042 -0.9807
23382SOL     OW73550  10.075  10.901  10.023 -0.3163  0.8962  0.3394
23382SOL    HW173551  10.103  10.821  10.067 -1.2103 -1.0653 -2.4215
23382SOL    HW273552   9.979  10.898  10.027 -0.3694  1.4832 -0.3022
23383SOL     OW73553   3.650   0.628   9.386 -0.0344  0.3053  0.0181
23383SOL    HW173554   3.580   0.566   9.409  0.5816  0.1023  1.4037
23383SOL    HW273555   3.730   0.586   9.417  1.0197 -0.4878 -3.5773
23384SOL     OW73556   1.018   4.951   5.147  0.1513  0.2619 -0.1526
23384SOL    HW173557   0.993   4.955   5.240  0.7722 -0.5503  0.0537
23384SOL    HW273558   1.000   5.039   5.114  0.4079  0.7072  0.8607
23385SOL     OW73559   5.144   2.198   3.857  0.5455 -0.7030 -0.0345
23385SOL    HW173560   5.177   2.117   3.896  3.0886 -0.4284 -1.5368
23385SOL    HW273561   5.190   2.268   3.905 -0.4898 -0.1902  0.2203
23386SOL     OW73562   6.083   6.134   9.935 -0.4956  0.0772 -0.0262
23386SOL    HW173563   6.124   6.219   9.917 -1.0549  0.4744  0.5507
23386SOL    HW273564   6.124   6.104  10.016 -0.1491 -0.3047 -0.3383
23387SOL     OW73565   3.063   6.143   7.222  0.6284 -0.5694 -0.0775
23387SOL    HW173566   2.978   6.136   7.178  0.5135  0.0299  0.0389
23387SOL    HW273567   3.045   6.195   7.300  1.1455 -0.2146 -0.1878
23388SOL     OW73568   0.970   6.227  10.758  0.2147 -0.7193  0.1067
23388SOL    HW173569   0.879   6.257  10.755  0.7451  1.0220  0.8331
23388SOL    HW273570   0.973   6.169  10.834 -0.2359 -0.5878  0.2310
23389SOL     OW73571   2.580   0.491   4.760  0.2282  0.1938 -0.9564
23389SOL    HW173572   2.563   0.397   4.750  3.0437 -0.4514 -0.1401
23389SOL    HW273573   2.539   0.531   4.683 -0.0549 -1.8301 -1.8920
23390SOL     OW73574   9.358  10.173   7.190  0.6543 -0.5099  0.2723
23390SOL    HW173575   9.305  10.141   7.263 -2.2454  0.3549 -1.3696
23390SOL    HW273576   9.339  10.267   7.186  0.8645 -0.5166 -1.4844
23391SOL     OW73577   5.492   6.217   4.989  0.3550 -0.3243 -0.6860
23391SOL    HW173578   5.534   6.131   4.982  0.2174 -0.4849  0.4288
23391SOL    HW273579   5.399   6.198   4.996  0.2204 -0.0285 -1.6240
23392SOL     OW73580   5.066   7.347   8.323 -0.1501  0.2193 -0.8113
23392SOL    HW173581   5.156   7.319   8.341  0.1662  1.9902  0.4494
23392SOL    HW273582   5.075   7.419   8.261 -0.6218  1.2034  0.2546
23393SOL     OW73583   6.750   1.846   5.180  0.2478 -0.2184 -0.1148
23393SOL    HW173584   6.696   1.783   5.227 -0.6896  0.9685  0.4269
23393SOL    HW273585   6.832   1.849   5.228 -0.6373  0.8594  1.3769
23394SOL     OW73586   7.740   5.278   4.923  0.0446 -0.5140  0.6930
23394SOL    HW173587   7.831   5.278   4.893 -0.1508 -0.1460  0.0912
23394SOL    HW273588   7.693   5.232   4.853 -0.4388  0.4733  0.3713
23395SOL     OW73589   6.202   7.515   3.620  0.1810 -0.4911 -0.0955
23395SOL    HW173590   6.196   7.578   3.548  1.5009 -0.6588 -0.3612
23395SOL    HW273591   6.111   7.502   3.648 -0.0801  1.6997  0.1178
23396SOL     OW73592   3.605   0.613   3.471  0.2954 -0.5148 -0.2572
23396SOL    HW173593   3.601   0.708   3.461 -0.9709 -0.6633 -1.3084
23396SOL    HW273594   3.529   0.580   3.423  0.1170 -2.0004  0.9741
23397SOL     OW73595   1.547   2.810   2.506  0.1747 -0.0818 -0.1696
23397SOL    HW173596   1.454   2.802   2.485  0.2151 -3.0485  0.5500
23397SOL    HW273597   1.550   2.879   2.572 -1.6292 -0.4698  0.3644
23398SOL     OW73598   1.101   4.086   3.611 -0.4900 -0.1989  0.3973
23398SOL    HW173599   1.118   4.177   3.636  0.1405 -0.2377  0.1359
23398SOL    HW273600   1.006   4.077   3.612 -0.5266  0.2597  1.1435
23399SOL     OW73601   0.134  10.340   9.295  0.2928  0.3709 -0.2574
23399SOL    HW173602   0.183  10.302   9.222  0.3893  0.1763 -0.0924
23399SOL    HW273603   0.042  10.326   9.272  0.3096  0.8813 -0.6465
23400SOL     OW73604   1.968   2.459   9.785  0.0889  0.1309  0.0538
23400SOL    HW173605   1.995   2.483   9.873  0.4505 -1.2516  0.3223
23400SOL    HW273606   1.974   2.541   9.735  0.5635  0.7625  1.1354
23401SOL     OW73607   9.359   3.715   3.904 -0.5793  0.3848 -0.2051
23401SOL    HW173608   9.314   3.698   3.987  1.2786 -2.0607  0.3461
23401SOL    HW273609   9.447   3.742   3.929 -0.5846  1.5161 -1.3643
23402SOL     OW73610   4.920   2.755   6.240 -0.1403  0.1599 -0.6788
23402SOL    HW173611   4.858   2.701   6.190  0.1075  0.2873 -1.1253
23402SOL    HW273612   4.896   2.845   6.219 -0.5811  0.2309  0.1058
23403SOL     OW73613   7.268   4.724   8.155 -0.7868 -0.4850 -0.1423
23403SOL    HW173614   7.264   4.760   8.066 -2.0270  0.3604  0.2272
23403SOL    HW273615   7.177   4.724   8.184 -0.2762  0.3704  1.5529
23404SOL     OW73616   7.920   6.938   3.735  0.2032 -0.0294 -0.2508
23404SOL    HW173617   7.853   6.908   3.675 -0.3702 -0.9016  0.8072
23404SOL    HW273618   7.917   6.876   3.808 -0.6788  2.3028  1.7583
23405SOL     OW73619   1.875   7.484  10.745  0.2707 -0.0925  0.0749
23405SOL    HW173620   1.873   7.388  10.740  1.9907 -0.0158 -2.6791
23405SOL    HW273621   1.813   7.513  10.679  0.6285  0.7071  0.0891
23406SOL     OW73622   1.674   2.786  10.816 -0.2197 -0.3126 -0.3701
23406SOL    HW173623   1.743   2.728  10.848 -0.7830 -0.5530  0.4221
23406SOL    HW273624   1.655   2.755  10.728  1.6478  0.6178 -1.1067
23407SOL     OW73625   4.632   6.221  10.349 -0.3882  0.0732 -0.6398
23407SOL    HW173626   4.692   6.285  10.387 -2.1521  0.5644  1.3975
23407SOL    HW273627   4.673   6.137  10.363 -0.4491  0.3577  1.2960
23408SOL     OW73628   5.738  10.833   5.347  0.1305  0.1858 -0.0500
23408SOL    HW173629   5.802  10.790   5.290  0.2658  0.0467  0.2068
23408SOL    HW273630   5.691  10.893   5.289 -0.2768 -0.5376 -0.4758
23409SOL     OW73631   1.084   7.687   3.595 -0.0220 -0.1347 -0.6165
23409SOL    HW173632   1.030   7.611   3.571 -2.9674  1.2485  1.3478
23409SOL    HW273633   1.125   7.663   3.678  1.1539 -0.5497 -1.2996
23410SOL     OW73634   6.617   0.430   4.226 -0.2662 -0.2875  0.1024
23410SOL    HW173635   6.592   0.513   4.266  0.4755 -0.2396  0.4693
23410SOL    HW273636   6.609   0.366   4.297  0.9034 -0.2283  0.2866
23411SOL     OW73637   5.166   5.847   2.776  0.5480 -0.1768  0.0414
23411SOL    HW173638   5.158   5.800   2.693  0.8292 -0.4859  0.1896
23411SOL    HW273639   5.105   5.921   2.768  0.2431 -0.4628 -0.2600
23412SOL     OW73640   9.543   9.490  10.918  0.7042  0.4132 -0.0764
23412SOL    HW173641   9.619   9.518  10.969  0.3442 -0.2119  0.8149
23412SOL    HW273642   9.580   9.464  10.833  1.6734 -1.0992  0.7812
23413SOL     OW73643   9.330   5.212   1.654 -0.7615 -0.9063  0.1312
23413SOL    HW173644   9.369   5.196   1.740  0.3089 -2.6617 -0.6579
23413SOL    HW273645   9.402   5.244   1.600 -1.7796  1.7898  0.2873
23414SOL     OW73646   5.906   8.084   0.749  0.0541  0.0812  0.0808
23414SOL    HW173647   6.001   8.080   0.756  0.1619 -0.7031 -1.5637
23414SOL    HW273648   5.879   7.992   0.740 -0.7775  0.3664 -0.3450
23415SOL     OW73649   0.657   9.386  10.237  0.0643 -0.5862 -1.0973
23415SOL    HW173650   0.690   9.468  10.275  0.9498 -0.9872 -0.9785
23415SOL    HW273651   0.614   9.341  10.310  2.9415 -1.9762 -0.1755
23416SOL     OW73652   2.452   7.874   7.616 -0.2367 -0.0300  0.1790
23416SOL    HW173653   2.491   7.831   7.541  0.4511  0.7940  0.0552
23416SOL    HW273654   2.387   7.812   7.649  1.7033 -1.7259  0.8460
23417SOL     OW73655   1.363   2.450   1.052  0.0650 -0.4365  0.2155
23417SOL    HW173656   1.376   2.545   1.056  0.5781 -0.4255 -1.3929
23417SOL    HW273657   1.407   2.417   1.131  2.1753  0.4327 -0.5474
23418SOL     OW73658   5.859   4.491   3.591 -0.8006 -0.0885  0.0472
23418SOL    HW173659   5.768   4.475   3.569 -1.2799 -0.4394  2.1507
23418SOL    HW273660   5.863   4.480   3.686  1.3087  0.5093  0.0571
23419SOL     OW73661   8.643   1.457   3.473 -0.3136 -0.0560 -0.2521
23419SOL    HW173662   8.624   1.452   3.379 -1.7154  2.6169 -0.1593
23419SOL    HW273663   8.573   1.406   3.514  0.0775 -0.9027 -0.6245
23420SOL     OW73664   3.993   4.158   3.240  0.0241  0.0934 -1.0482
23420SOL    HW173665   3.981   4.184   3.332  0.6967 -1.4413 -0.4964
23420SOL    HW273666   3.904   4.152   3.206 -0.2869 -0.1703 -0.2238
23421SOL     OW73667   2.490   8.184   9.087  0.4862  0.2670 -0.0216
23421SOL    HW173668   2.451   8.097   9.090 -0.7297  0.8080  0.4240
23421SOL    HW273669   2.523   8.199   9.176  0.8820  0.1885 -0.1523
23422SOL     OW73670   1.348   7.447   1.748 -0.1403  0.1093  0.8709
23422SOL    HW173671   1.372   7.468   1.658 -1.9369 -0.8750  0.1468
23422SOL    HW273672   1.362   7.529   1.796  0.3120  0.7821 -0.3856
23423SOL     OW73673   4.319   0.405   9.927  0.5783 -0.6747  0.5194
23423SOL    HW173674   4.354   0.364  10.006 -1.8879 -0.5450  1.7255
23423SOL    HW273675   4.316   0.499   9.947  0.7001 -0.5540 -0.0215
23424SOL     OW73676   8.933   9.239   0.270  0.2790  0.2086 -0.2334
23424SOL    HW173677   8.953   9.325   0.308 -1.3231 -0.4110  2.1273
23424SOL    HW273678   8.840   9.227   0.287  0.2464 -1.5364 -1.5478
23425SOL     OW73679   8.923   6.962   3.367 -0.5468  0.5142 -0.4170
23425SOL    HW173680   8.968   7.045   3.385 -0.0047  0.2702 -0.6275
23425SOL    HW273681   8.983   6.895   3.400 -1.1772  0.2167  0.1520
23426SOL     OW73682   6.385   8.617   1.252  0.1089  0.1385  0.1265
23426SOL    HW173683   6.467   8.585   1.216 -0.1280  0.6227 -0.8848
23426SOL    HW273684   6.401   8.709   1.272 -0.0910  0.1535  0.2318
23427SOL     OW73685   9.154   3.582   8.105  0.8733  0.1003 -0.0859
23427SOL    HW173686   9.148   3.614   8.195 -0.8293  0.3356 -0.2706
23427SOL    HW273687   9.219   3.512   8.109  1.5826  0.8106  1.1173
23428SOL     OW73688   8.780   3.111   3.621 -0.7843  0.0629  0.7056
23428SOL    HW173689   8.833   3.183   3.656  1.8729 -1.9130  0.8718
23428SOL    HW273690   8.714   3.155   3.566  1.4430  2.5628 -0.0800
23429SOL     OW73691   9.626   3.151   3.723  0.1624 -0.7036  0.8719
23429SOL    HW173692   9.691   3.085   3.697  0.8295 -0.0879  0.9553
23429SOL    HW273693   9.587   3.181   3.641 -0.5287 -1.5850  0.8698
23430SOL     OW73694   1.610   9.194  10.372  0.2089 -0.1990 -0.7003
23430SOL    HW173695   1.553   9.188  10.449 -1.0042 -1.1668 -1.6622
23430SOL    HW273696   1.557   9.242  10.308  1.2747  0.7366 -0.8807
23431SOL     OW73697   8.603   4.459   9.043 -0.0039  0.6570 -0.6205
23431SOL    HW173698   8.554   4.377   9.031 -1.0101  0.9877  1.2214
23431SOL    HW273699   8.593   4.504   8.959 -0.6945 -0.4387 -1.1485
23432SOL     OW73700  10.267   9.122   1.435  0.4459 -0.0919  0.0502
23432SOL    HW173701  10.195   9.174   1.471 -0.0968  0.1008 -1.2783
23432SOL    HW273702  10.234   9.091   1.351  1.1847 -1.6461  0.3007
23433SOL     OW73703   4.741   1.187   8.672 -0.4075  0.0928 -0.3639
23433SOL    HW173704   4.759   1.106   8.719  0.9199 -0.1188 -1.1847
23433SOL    HW273705   4.760   1.256   8.735 -0.3975 -0.2185 -0.0252
23434SOL     OW73706   7.420   0.170  10.388  0.4272  0.4351 -0.0777
23434SOL    HW173707   7.423   0.095  10.448  3.4521  0.1205 -0.5702
23434SOL    HW273708   7.364   0.234  10.432 -1.5661 -1.7694  0.7205
23435SOL     OW73709   2.921   9.682   3.748  0.0483 -0.6623 -0.4709
23435SOL    HW173710   2.895   9.589   3.750 -1.2577 -0.2871  0.4502
23435SOL    HW273711   2.989   9.686   3.680 -0.5223 -2.1299 -1.1515
23436SOL     OW73712   4.075   1.859   9.750  0.1422 -0.3951 -0.4516
23436SOL    HW173713   4.055   1.775   9.792 -0.9162 -0.1679 -0.4912
23436SOL    HW273714   4.131   1.905   9.813 -1.5331 -0.0047  0.7940
23437SOL     OW73715   1.406   5.401   3.437 -0.5443 -0.4456  0.5620
23437SOL    HW173716   1.325   5.357   3.409 -0.5590  0.2444 -0.5274
23437SOL    HW273717   1.451   5.421   3.355 -0.6021  1.7055  1.0453
23438SOL     OW73718   4.633  10.111   1.214  0.2528 -0.1061 -0.2087
23438SOL    HW173719   4.555  10.137   1.262  0.1380 -1.0074  0.0998
23438SOL    HW273720   4.604  10.100   1.124 -0.0752 -0.8788 -0.0108
23439SOL     OW73721   6.881   2.656   1.226  0.3707  0.1472  0.1851
23439SOL    HW173722   6.795   2.683   1.260 -0.9709 -2.4884 -1.0080
23439SOL    HW273723   6.925   2.617   1.302  0.3025  0.9427  0.6465
23440SOL     OW73724  10.060   7.503   5.285  0.3147  0.3959  0.5505
23440SOL    HW173725  10.098   7.543   5.207  0.9337 -0.0837  0.5951
23440SOL    HW273726  10.130   7.447   5.319 -0.8171 -1.4027  0.0054
23441SOL     OW73727   5.478   6.563   2.711  0.3934 -0.1321 -0.0889
23441SOL    HW173728   5.573   6.562   2.722  0.3661 -2.3398  0.0043
23441SOL    HW273729   5.464   6.544   2.618  0.0112 -0.2778 -0.0035
23442SOL     OW73730   3.227   1.287   9.641 -0.4524 -0.0263  0.1553
23442SOL    HW173731   3.151   1.344   9.635 -0.4511 -0.2115 -2.0429
23442SOL    HW273732   3.245   1.261   9.551  2.0036 -0.2771  0.6744
23443SOL     OW73733   3.226   7.734   5.729  0.5461  0.0379  0.0187
23443SOL    HW173734   3.317   7.731   5.758  0.6886  1.1576 -0.2955
23443SOL    HW273735   3.231   7.758   5.636  0.0302 -2.2435 -0.6314
23444SOL     OW73736   4.231   7.864  10.189 -0.0964  0.0473 -0.2313
23444SOL    HW173737   4.195   7.789  10.142  0.7315 -1.5909  1.6672
23444SOL    HW273738   4.196   7.856  10.278  0.0354  1.8829  0.0024
23445SOL     OW73739   4.118   3.870   3.725 -0.5319  0.1993  0.0543
23445SOL    HW173740   4.088   3.863   3.635 -1.0288  0.3216  0.2099
23445SOL    HW273741   4.144   3.781   3.749  0.5131  0.3420 -0.5235
23446SOL     OW73742   6.212  10.533   9.434  0.4059 -0.2610  0.2742
23446SOL    HW173743   6.216  10.622   9.468  1.5149 -0.6478  1.1975
23446SOL    HW273744   6.164  10.484   9.502  0.7651 -0.5922  0.2905
23447SOL     OW73745   3.379   0.379   6.448  0.0585  0.2431  0.2074
23447SOL    HW173746   3.467   0.410   6.429  0.0740  0.5064  0.7063
23447SOL    HW273747   3.360   0.412   6.536 -1.0057  1.2250 -0.3755
23448SOL     OW73748  10.406   4.326   7.045  0.0741  0.1011 -0.1774
23448SOL    HW173749  10.447   4.340   7.130  0.9988 -0.1348 -0.5746
23448SOL    HW273750  10.391   4.414   7.011  1.0511  0.1903 -0.3990
23449SOL     OW73751  10.089   9.499  10.511  0.0213  0.1362 -0.1322
23449SOL    HW173752  10.017   9.513  10.572  0.3543  0.1628  0.2543
23449SOL    HW273753  10.048   9.505  10.424 -0.2966  0.9963  0.0669
23450SOL     OW73754   8.503   3.155   8.265  0.2603 -0.3057 -0.7305
23450SOL    HW173755   8.513   3.243   8.299  2.1425 -0.7044 -0.2276
23450SOL    HW273756   8.588   3.113   8.280 -0.2922 -1.8807 -1.8666
23451SOL     OW73757   5.407   6.264   3.534 -0.6600  0.5538  0.1940
23451SOL    HW173758   5.449   6.219   3.461 -1.6403 -1.3921  0.7976
23451SOL    HW273759   5.468   6.335   3.557  0.2678  0.3727 -1.6417
23452SOL     OW73760   3.727   6.566   5.280  0.3773  0.7343 -0.0938
23452SOL    HW173761   3.809   6.568   5.328 -0.8571  1.4148  2.0626
23452SOL    HW273762   3.682   6.647   5.305 -2.1229 -0.9028  0.9049
23453SOL     OW73763   1.184   6.929   8.998  0.5465  0.1098  0.8121
23453SOL    HW173764   1.199   6.975   9.081  0.6972 -0.9798  1.3997
23453SOL    HW273765   1.135   6.851   9.023 -0.7409  0.5431 -0.3229
23454SOL     OW73766   4.895   5.132   0.779  0.6862 -0.2913  0.0587
23454SOL    HW173767   4.897   5.208   0.721  0.2670 -2.0807 -2.3617
23454SOL    HW273768   4.852   5.164   0.859  0.8009  2.0768 -0.7931
23455SOL     OW73769   0.291   4.058   7.268  0.2897  0.3681  0.0250
23455SOL    HW173770   0.329   4.121   7.206  0.9513  0.6444  0.7030
23455SOL    HW273771   0.249   4.112   7.335 -0.1760  0.0728 -0.0326
23456SOL     OW73772   2.021   3.295   4.063 -0.1453  0.2256  0.4682
23456SOL    HW173773   1.943   3.252   4.098  0.1241 -0.5652  0.1151
23456SOL    HW273774   1.995   3.386   4.050 -1.1214 -0.1226 -0.0132
23457SOL     OW73775   8.320   5.875   8.615 -0.3268 -0.0223 -0.6211
23457SOL    HW173776   8.414   5.875   8.598 -0.5209 -2.6629 -1.8719
23457SOL    HW273777   8.280   5.901   8.532 -0.7692 -0.4964 -0.5585
23458SOL     OW73778   8.875   2.525   3.255 -0.0247  0.2812  0.2166
23458SOL    HW173779   8.799   2.576   3.226 -0.9037 -1.4285 -0.5665
23458SOL    HW273780   8.911   2.489   3.174 -0.5415 -1.8671  0.9297
23459SOL     OW73781   5.739   5.178   0.230  0.2418  0.1464  0.0409
23459SOL    HW173782   5.700   5.093   0.251 -0.4967  0.5134  0.1976
23459SOL    HW273783   5.664   5.238   0.230  0.7465  0.7736 -0.1712
23460SOL     OW73784   4.080   2.017  10.570  0.5681  0.0962  0.4490
23460SOL    HW173785   3.989   2.046  10.567  0.3488 -0.2690  2.4615
23460SOL    HW273786   4.075   1.927  10.603  1.6051 -0.2018 -0.2001
23461SOL     OW73787  10.667  10.663   8.267 -0.7127  0.5090 -0.1613
23461SOL    HW173788  10.578  10.673   8.300  0.2585 -1.8162  3.3881
23461SOL    HW273789  10.715  10.737   8.304 -0.4097 -0.1534  0.7794
23462SOL     OW73790   5.406   2.607   4.227  0.3164  0.5029 -0.1268
23462SOL    HW173791   5.476   2.656   4.271  0.4597  0.5959 -0.4602
23462SOL    HW273792   5.395   2.651   4.143 -0.3409  0.6595  0.0428
23463SOL     OW73793   6.690   6.067   5.315 -0.0632 -0.3478  0.1027
23463SOL    HW173794   6.721   6.075   5.405 -1.1537  1.2977  0.3485
23463SOL    HW273795   6.599   6.095   5.318  0.3190  1.2234 -1.7979
23464SOL     OW73796   8.354   4.624  10.166 -0.3376 -0.0725  0.0027
23464SOL    HW173797   8.263   4.651  10.180 -0.5316 -0.9516  0.4254
23464SOL    HW273798   8.355   4.590  10.076 -0.3252  0.3674 -0.1642
23465SOL     OW73799   4.594   6.695   0.085 -0.0559 -0.0653 -0.0612
23465SOL    HW173800   4.542   6.617   0.103  0.7385 -0.4597  0.5734
23465SOL    HW273801   4.685   6.666   0.095  0.2693  0.7523 -0.5833
23466SOL     OW73802  10.945   6.125   3.437 -0.3755  0.1868 -0.3725
23466SOL    HW173803  10.888   6.085   3.372 -0.4429 -0.7101  0.2202
23466SOL    HW273804  11.031   6.129   3.395 -0.2473 -1.0955 -0.2483
23467SOL     OW73805   8.613   4.650   2.800  0.3344 -0.0026 -0.2796
23467SOL    HW173806   8.539   4.708   2.818  0.1263  0.2427 -1.8483
23467SOL    HW273807   8.690   4.703   2.820  0.1047  0.0304  0.5254
23468SOL     OW73808   6.051   0.244   7.913  0.3428 -0.2597 -0.0203
23468SOL    HW173809   6.004   0.315   7.957  3.0283  2.1046 -0.7760
23468SOL    HW273810   5.986   0.204   7.855 -1.4809  0.9292  1.1539
23469SOL     OW73811   2.560   3.667   2.016  0.2043  0.4856  0.6155
23469SOL    HW173812   2.654   3.685   2.007  0.6037 -1.1529  1.4003
23469SOL    HW273813   2.536   3.704   2.101  0.4018 -0.0929  0.9290
23470SOL     OW73814   9.350   4.926   8.163 -0.1383 -0.4245 -0.8820
23470SOL    HW173815   9.280   4.861   8.171  1.0577 -1.7475 -0.9845
23470SOL    HW273816   9.334   4.986   8.236 -3.0699  0.9733 -2.5875
23471SOL     OW73817   5.667   0.092   8.404 -0.0793 -0.1684  0.0894
23471SOL    HW173818   5.633   0.059   8.487  0.3515  1.0158  0.7442
23471SOL    HW273819   5.742   0.036   8.385 -0.4543 -0.7329  0.2608
23472SOL     OW73820  10.091   7.098   9.917 -0.1188  0.1953 -0.5294
23472SOL    HW173821  10.157   7.157   9.882  0.3729 -1.6529 -2.8908
23472SOL    HW273822  10.022   7.098   9.850 -0.7344 -0.8551  0.0969
23473SOL     OW73823   6.372   1.812   8.590 -0.1020 -0.2465 -0.0740
23473SOL    HW173824   6.438   1.878   8.611 -0.7344  0.0428  1.0568
23473SOL    HW273825   6.289   1.852   8.616 -0.4811 -1.5138  0.6970
23474SOL     OW73826   2.617   6.226   4.847  0.1347  0.0360  0.0050
23474SOL    HW173827   2.682   6.254   4.783 -0.4037 -3.2270 -2.0778
23474SOL    HW273828   2.533   6.250   4.808 -0.1374 -0.6588  0.1589
23475SOL     OW73829   0.281   4.251   4.332 -0.1589 -0.6175  0.5133
23475SOL    HW173830   0.195   4.217   4.308  0.0900 -1.6647  1.0619
23475SOL    HW273831   0.340   4.218   4.264  0.1296 -1.5112  1.1948
23476SOL     OW73832   8.428   5.642   3.654 -0.2675  0.2092  0.0184
23476SOL    HW173833   8.376   5.663   3.732 -1.6722 -0.7119 -0.6551
23476SOL    HW273834   8.384   5.687   3.583  0.3744  0.1355 -0.4259
23477SOL     OW73835   3.815  10.191   5.046 -0.2596  0.0874 -0.5050
23477SOL    HW173836   3.807  10.227   5.134 -1.2834 -0.4674 -0.3636
23477SOL    HW273837   3.887  10.127   5.054  0.4171  0.8510 -0.3589
23478SOL     OW73838   2.612   7.239   9.898 -0.3352  0.0516  0.3361
23478SOL    HW173839   2.652   7.307   9.953 -0.6306 -0.6230  1.3955
23478SOL    HW273840   2.665   7.238   9.819 -0.5606  1.7929  0.1459
23479SOL     OW73841   9.436  10.016   0.939  0.2321  0.1029  0.6368
23479SOL    HW173842   9.398   9.968   0.865 -0.3221  0.7153  0.5186
23479SOL    HW273843   9.388   9.985   1.016  0.9897 -0.7303  0.7841
23480SOL     OW73844   2.404  10.303   1.376 -0.3409 -0.1437 -0.2948
23480SOL    HW173845   2.332  10.360   1.352 -0.4852 -0.0950  0.2663
23480SOL    HW273846   2.395  10.289   1.470  0.4999  0.0309 -0.1808
23481SOL     OW73847   9.805   0.110   0.780  0.7558 -0.0088 -0.5941
23481SOL    HW173848   9.870   0.126   0.848  0.3724 -2.4517  0.4129
23481SOL    HW273849   9.833   0.029   0.737 -1.3978 -0.9217 -0.3636
23482SOL     OW73850   9.208   4.691   6.170  0.3720  0.0525  0.0322
23482SOL    HW173851   9.249   4.650   6.246  1.0432 -0.8230 -0.7871
23482SOL    HW273852   9.248   4.647   6.095  1.3069  2.3936 -0.8806
23483SOL     OW73853   1.575   4.624   0.235  0.4264 -0.3673 -0.4240
23483SOL    HW173854   1.661   4.662   0.214  0.8470 -1.7784 -1.2935
23483SOL    HW273855   1.516   4.660   0.169  0.5603 -0.2569 -0.4847
23484SOL     OW73856   2.369  10.293   5.762 -0.1860 -0.0501 -0.0709
23484SOL    HW173857   2.375  10.388   5.778  1.8056 -0.4647  1.9194
23484SOL    HW273858   2.287  10.267   5.804  0.2621  0.4780  1.1665
23485SOL     OW73859   1.427   4.301   6.430  0.0444  0.4607 -0.4148
23485SOL    HW173860   1.334   4.284   6.447 -0.3839  0.5687 -2.4387
23485SOL    HW273861   1.468   4.215   6.430  0.2601  0.5257  2.0225
23486SOL     OW73862  10.783  10.450   6.191 -0.1048  0.0800 -0.0605
23486SOL    HW173863  10.839  10.373   6.199 -0.7019 -0.2183  1.2268
23486SOL    HW273864  10.779  10.487   6.279  0.5120  1.8320 -0.7317
23487SOL     OW73865   1.190   5.825   5.767 -0.2668  0.2769 -0.4931
23487SOL    HW173866   1.202   5.734   5.796 -0.1106  0.2043 -0.7843
23487SOL    HW273867   1.192   5.820   5.671  0.4998  0.6966 -0.4993
23488SOL     OW73868   8.866   8.997  10.036  0.4512 -0.0156  0.0133
23488SOL    HW173869   8.945   9.051  10.034  0.6505 -0.2948  0.3128
23488SOL    HW273870   8.833   9.005  10.126 -0.8924  1.5801 -0.6156
23489SOL     OW73871   3.933   6.928  10.379  0.0894 -0.2449  0.2532
23489SOL    HW173872   3.975   7.003  10.338  1.1387 -1.1518 -0.3686
23489SOL    HW273873   3.844   6.929  10.345 -0.0431  0.9859  0.6177
23490SOL     OW73874   8.955   3.693  10.337 -0.5656  0.2577  0.2173
23490SOL    HW173875   9.001   3.641  10.403  0.4504  1.5858  0.5963
23490SOL    HW273876   9.012   3.690  10.260 -0.8736  0.1723 -0.0076
23491SOL     OW73877   3.928   1.829   5.622 -0.4531 -0.3678 -0.0038
23491SOL    HW173878   3.862   1.792   5.563 -0.1147 -0.8379 -0.0952
23491SOL    HW273879   3.966   1.901   5.572 -0.1831 -0.7503 -0.3566
23492SOL     OW73880   3.555   2.694   7.411  0.4124 -0.0012  0.1762
23492SOL    HW173881   3.611   2.691   7.334  0.1638  0.9696 -0.0547
23492SOL    HW273882   3.479   2.641   7.388  0.4310  0.1223 -0.1792
23493SOL     OW73883   1.600   5.363   3.645 -0.1404  0.2500 -0.2758
23493SOL    HW173884   1.661   5.306   3.599 -2.4156 -1.4348 -1.2777
23493SOL    HW273885   1.538   5.392   3.578 -2.5089 -0.9216  1.3237
23494SOL     OW73886  10.226   0.184   3.696 -0.0689  0.1295 -0.3447
23494SOL    HW173887  10.135   0.204   3.717 -0.0064  0.9077 -0.8240
23494SOL    HW273888  10.228   0.181   3.601  0.5807  0.9412 -0.3594
23495SOL     OW73889  10.502   4.737   0.793  0.7171  0.9087  0.2712
23495SOL    HW173890  10.517   4.653   0.837 -2.4108  0.1009 -0.0669
23495SOL    HW273891  10.566   4.739   0.722  2.5217 -0.0246  1.8408
23496SOL     OW73892   7.554   7.248   8.723  0.4170 -0.2992 -0.2641
23496SOL    HW173893   7.485   7.310   8.745 -0.0080 -0.1618 -1.9460
23496SOL    HW273894   7.553   7.243   8.628  2.4999 -0.5645 -0.2973
23497SOL     OW73895   6.110   9.014   9.722  0.3363 -0.1990  0.1646
23497SOL    HW173896   6.075   9.063   9.797  0.3681 -1.6595  1.1494
23497SOL    HW273897   6.089   8.923   9.741  0.4975 -0.6007 -1.5354
23498SOL     OW73898   4.565   7.422   9.958  0.3171 -0.2945 -0.3943
23498SOL    HW173899   4.606   7.410   9.873  0.6173  0.4721 -0.3647
23498SOL    HW273900   4.544   7.516   9.962 -0.4251 -0.4686  0.0443
23499SOL     OW73901   2.725   5.300   2.365  0.3358  0.0634 -0.0801
23499SOL    HW173902   2.722   5.386   2.325  0.9064 -0.4574 -1.2760
23499SOL    HW273903   2.642   5.259   2.340  0.7981 -0.3517 -0.9414
23500SOL     OW73904   5.390   1.917   3.467  0.3604 -0.4089  0.0641
23500SOL    HW173905   5.301   1.936   3.437  0.5912  1.7926  0.6855
23500SOL    HW273906   5.444   1.926   3.388  0.1459 -0.9752 -0.1528
23501SOL     OW73907   4.371   5.440   6.400  0.0491  0.0251 -0.1787
23501SOL    HW173908   4.396   5.523   6.440 -0.7467  0.1516  0.0837
23501SOL    HW273909   4.276   5.446   6.390 -0.1453 -1.2107  0.7029
23502SOL     OW73910   4.126   8.938   5.903  0.2006 -0.6776 -0.2005
23502SOL    HW173911   4.100   9.031   5.900  2.8713  0.0831 -1.6631
23502SOL    HW273912   4.050   8.891   5.869 -1.1798  0.9833  0.5230
23503SOL     OW73913   3.515   6.879   1.673 -0.2007  0.0592 -0.1694
23503SOL    HW173914   3.500   6.944   1.742 -1.2416 -0.6950  0.3198
23503SOL    HW273915   3.444   6.895   1.610  0.3593  0.3088 -0.7429
23504SOL     OW73916   3.049   6.836   6.960 -0.5954 -0.9016  0.0654
23504SOL    HW173917   3.061   6.829   7.055  2.6267 -0.1550 -0.2517
23504SOL    HW273918   3.120   6.785   6.922  0.6046  2.0962 -1.9566
23505SOL     OW73919   7.178   5.062   0.069  0.3228  0.0034  0.3085
23505SOL    HW173920   7.237   5.137   0.052 -0.4251  0.6575  0.5846
23505SOL    HW273921   7.100   5.082   0.017  0.0398 -0.4926  0.5493
23506SOL     OW73922   4.670   3.144   8.657 -0.0023  0.8349 -0.3213
23506SOL    HW173923   4.582   3.107   8.662  0.4583 -0.3653 -1.0679
23506SOL    HW273924   4.729   3.072   8.680  0.7743  1.7183  0.5248
23507SOL     OW73925   2.929   7.123   6.029 -0.2673  0.1224 -0.6073
23507SOL    HW173926   2.886   7.066   5.966  0.5652 -0.5127 -0.6079
23507SOL    HW273927   2.870   7.198   6.038 -1.4822 -0.8325 -0.4457
23508SOL     OW73928   5.929   1.939   6.410 -0.1469  0.1411 -0.3474
23508SOL    HW173929   5.885   1.855   6.423  0.1868  0.0030 -0.1166
23508SOL    HW273930   5.879   2.001   6.463  0.2790 -0.1255  0.3766
23509SOL     OW73931   6.097   6.331   5.027  0.4028  1.1002 -0.2383
23509SOL    HW173932   6.081   6.420   5.060  0.0619  0.6462  0.8483
23509SOL    HW273933   6.047   6.326   4.946 -0.0112  1.7348 -0.0258
23510SOL     OW73934   9.683   1.060   6.176  0.2829  0.2168  0.5401
23510SOL    HW173935   9.589   1.066   6.161 -0.0519 -0.4518  2.2197
23510SOL    HW273936   9.722   1.121   6.114 -1.1238 -1.0134 -1.6057
23511SOL     OW73937   0.444   0.430   1.944 -0.1765  0.0810 -0.6307
23511SOL    HW173938   0.370   0.391   1.897  0.9872 -0.0536 -2.3779
23511SOL    HW273939   0.505   0.357   1.956 -0.7568 -0.0644  1.7720
23512SOL     OW73940   4.184   3.659   7.823  0.0165  0.4036 -0.2417
23512SOL    HW173941   4.262   3.710   7.844 -0.7079  1.1424  0.6390
23512SOL    HW273942   4.114   3.698   7.875 -0.3142 -2.2093  1.3670
23513SOL     OW73943   8.247  10.243   7.644  0.0394  0.2439  0.6969
23513SOL    HW173944   8.310  10.292   7.592 -0.0644  0.4102  0.7289
23513SOL    HW273945   8.165  10.291   7.634  0.1854  0.6948  1.6092
23514SOL     OW73946   9.259   5.618   8.187 -1.1205  0.2714  0.3872
23514SOL    HW173947   9.285   5.599   8.277 -0.9020 -0.2976  0.2064
23514SOL    HW273948   9.209   5.700   8.193  0.0814  0.9746  0.8344
23515SOL     OW73949   2.759  10.623  10.265  0.1313 -0.4790 -0.4062
23515SOL    HW173950   2.681  10.676  10.281  0.4661 -0.7000  2.0481
23515SOL    HW273951   2.807  10.672  10.198 -2.2204 -0.4948 -2.2013
23516SOL     OW73952   6.995   3.981   5.949 -0.6949  0.0058  0.3786
23516SOL    HW173953   7.031   3.917   5.887  2.0843  2.6071 -0.8358
23516SOL    HW273954   6.975   3.931   6.027  0.9892 -2.4464 -0.6972
23517SOL     OW73955   3.988  10.601   5.206 -0.2883 -0.4494  0.1854
23517SOL    HW173956   3.982  10.541   5.280  1.3142  0.0284  0.7071
23517SOL    HW273957   4.013  10.685   5.245 -0.0251 -0.0537 -0.8284
23518SOL     OW73958   5.973  10.945   2.495  0.3983 -0.4623 -0.1028
23518SOL    HW173959   6.013  10.872   2.542 -0.7218  0.4092  2.3035
23518SOL    HW273960   5.948  10.909   2.410  0.5263 -2.6809  0.7855
23519SOL     OW73961   4.078   9.374   5.125 -0.2125 -0.2395 -0.2723
23519SOL    HW173962   4.042   9.457   5.155  1.0965  0.2506 -0.0209
23519SOL    HW273963   4.151   9.399   5.068  0.5223 -1.2113  0.2283
23520SOL     OW73964   2.173   4.316   6.320 -0.2842  0.0854 -0.6634
23520SOL    HW173965   2.087   4.342   6.287 -0.0763  2.6937  0.7048
23520SOL    HW273966   2.235   4.369   6.270  0.3483  0.2790  0.3146
23521SOL     OW73967   2.481   1.192   8.036 -0.5023 -0.1299 -0.2372
23521SOL    HW173968   2.485   1.138   7.957 -0.0384 -0.7230  0.1948
23521SOL    HW273969   2.553   1.255   8.025  0.2905 -0.9433  0.2493
23522SOL     OW73970   6.260   7.921   1.457 -0.0899  0.4413  0.2302
23522SOL    HW173971   6.324   7.864   1.414  1.0752 -0.4637  3.0527
23522SOL    HW273972   6.282   8.009   1.427  2.1578  0.0813  0.7024
23523SOL     OW73973   4.688   7.653   2.996  0.1913 -0.0325 -0.4793
23523SOL    HW173974   4.707   7.747   2.999  1.8515 -0.3002 -1.7845
23523SOL    HW273975   4.704   7.622   3.085  0.8156  0.7060 -0.3288
23524SOL     OW73976  10.357   8.498   5.244  0.1991 -0.2299 -0.2507
23524SOL    HW173977  10.316   8.570   5.291 -0.6559  0.2170 -1.6502
23524SOL    HW273978  10.354   8.524   5.152  0.3436 -1.8168 -0.7258
23525SOL     OW73979   3.696  10.429   1.679  0.0608 -0.0888  0.3118
23525SOL    HW173980   3.731  10.365   1.617  0.1445 -1.3047  1.5925
23525SOL    HW273981   3.603  10.407   1.687 -0.0268  0.2844  0.3473
23526SOL     OW73982   5.607   0.749   1.201  0.1037 -0.1839  0.4052
23526SOL    HW173983   5.555   0.818   1.160 -0.3533 -1.8086 -1.7838
23526SOL    HW273984   5.593   0.762   1.295  1.5501  3.8702  0.1692
23527SOL     OW73985   6.973   0.308   9.381  0.7278 -0.0585  0.3764
23527SOL    HW173986   6.939   0.239   9.439  0.0031 -1.1973 -1.3747
23527SOL    HW273987   6.960   0.388   9.431 -1.5806 -0.8215  1.1050
23528SOL     OW73988  10.980   2.886  10.344  0.5914  0.6760 -0.4074
23528SOL    HW173989  11.043   2.928  10.285  1.1077 -0.8345 -0.9569
23528SOL    HW273990  10.983   2.793  10.320 -0.7934  0.3758  0.5394
23529SOL     OW73991   6.501   5.910   9.753 -0.1621  0.0351  0.4195
23529SOL    HW173992   6.481   5.897   9.660  1.8407  0.8797 -0.1446
23529SOL    HW273993   6.470   5.998   9.773 -0.9322 -0.2840  0.6654
23530SOL     OW73994   6.138   5.617   0.994  0.3952  0.0266 -0.4390
23530SOL    HW173995   6.230   5.602   1.016  0.9684 -0.1433 -2.8404
23530SOL    HW273996   6.130   5.712   0.988  0.2210  0.0785  0.4811
23531SOL     OW73997   8.649   3.044   5.663  1.1566  0.0328 -0.3975
23531SOL    HW173998   8.712   3.080   5.726  1.6825  0.1293 -0.9708
23531SOL    HW273999   8.660   3.098   5.585 -0.6749  0.9675 -0.0174
23532SOL     OW74000   5.740   1.435   9.307  0.5245 -0.2337  0.0693
23532SOL    HW174001   5.662   1.383   9.325  0.3168 -0.8989 -2.5550
23532SOL    HW274002   5.732   1.511   9.364 -1.1419 -1.1640  1.1130
23533SOL     OW74003   2.007   7.466   5.324 -0.0333 -0.0483 -0.0204
23533SOL    HW174004   2.076   7.531   5.310  1.5877 -1.9486 -1.1170
23533SOL    HW274005   2.003   7.417   5.242 -1.2109 -1.3500  0.7952
23534SOL     OW74006   9.310   2.248  10.663 -0.4249 -0.1565 -0.7020
23534SOL    HW174007   9.370   2.198  10.719 -2.5422  0.1262  1.9526
23534SOL    HW274008   9.248   2.183  10.630 -1.2344  0.1892  0.1106
23535SOL     OW74009   2.850   0.001   1.223  0.0036 -0.1017  0.4441
23535SOL    HW174010   2.907   0.075   1.240  0.6359 -1.0117  2.3797
23535SOL    HW274011   2.790   0.032   1.155  2.4685  1.0184 -1.3085
23536SOL     OW74012   4.143  10.280   4.861  0.0826 -0.4675  0.5853
23536SOL    HW174013   4.107  10.362   4.895  0.8078 -0.0993  0.4890
23536SOL    HW274014   4.074  10.216   4.874 -0.2309  0.0133  1.2994
23537SOL     OW74015   8.554   0.382   4.817 -1.0336  0.2442 -0.3133
23537SOL    HW174016   8.639   0.401   4.777 -1.7000 -0.2839 -2.0239
23537SOL    HW274017   8.533   0.293   4.788 -1.4978 -0.1872  1.3010
23538SOL     OW74018   2.859   9.156   4.637  0.2640  0.6846  0.1138
23538SOL    HW174019   2.852   9.222   4.706 -1.1429 -1.0627  1.7261
23538SOL    HW274020   2.950   9.125   4.642 -0.5573 -1.4737  3.2265
23539SOL     OW74021   3.567   2.462   6.313 -0.1503  0.5786 -0.5192
23539SOL    HW174022   3.608   2.488   6.396 -1.8943  1.1525  0.1928
23539SOL    HW274023   3.556   2.367   6.320 -0.3279  0.6310 -0.0589
23540SOL     OW74024   6.692   8.402   5.551 -0.3296  0.1402 -0.0894
23540SOL    HW174025   6.727   8.397   5.462 -1.6015  0.7436 -0.6264
23540SOL    HW274026   6.658   8.315   5.569 -2.9035  0.8247 -1.3855
23541SOL     OW74027   4.019  10.843   9.744  0.6920 -0.2010  0.0019
23541SOL    HW174028   4.095  10.816   9.795 -0.2773 -2.0272  0.5216
23541SOL    HW274029   3.944  10.827   9.801 -0.2918 -0.9481 -1.4536
23542SOL     OW74030  10.529   0.435   5.508  0.0981  0.4938 -0.1077
23542SOL    HW174031  10.515   0.510   5.450 -1.8094 -0.3963 -0.8324
23542SOL    HW274032  10.590   0.379   5.461 -1.5795 -0.3126 -1.3874
23543SOL     OW74033   2.773   6.946   8.397 -0.0454  0.4412 -0.1136
23543SOL    HW174034   2.868   6.946   8.387  0.1055  1.4172  1.1442
23543SOL    HW274035   2.754   7.025   8.448 -1.3725 -0.5842  1.0333
23544SOL     OW74036   3.556   1.297   0.846 -0.0214 -0.4005  0.0819
23544SOL    HW174037   3.590   1.371   0.897 -1.6797  0.6229 -0.2398
23544SOL    HW274038   3.469   1.326   0.818  1.0481 -0.6724 -3.7848
23545SOL     OW74039   2.840   2.707   2.326 -0.5723 -0.0894 -0.3797
23545SOL    HW174040   2.880   2.783   2.368  2.3504 -0.3842 -2.4522
23545SOL    HW274041   2.857   2.720   2.232 -3.4315 -1.3860 -1.1345
23546SOL     OW74042   9.349   6.398   0.512  0.3999  0.7131  0.0992
23546SOL    HW174043   9.417   6.455   0.548 -0.1760  0.1325  2.1191
23546SOL    HW274044   9.360   6.406   0.417  2.8243  1.1709  0.3796
23547SOL     OW74045   0.717   7.335   4.451  0.0889  0.3090  0.0237
23547SOL    HW174046   0.637   7.361   4.405  0.6970  0.1917 -1.1345
23547SOL    HW274047   0.780   7.318   4.380  1.3333  1.0581  0.9409
23548SOL     OW74048   8.522  10.471   9.504 -0.3036 -0.2684 -0.2748
23548SOL    HW174049   8.557  10.404   9.563 -0.5878 -0.0331  0.1711
23548SOL    HW274050   8.461  10.521   9.559  1.9123  2.0720  0.2073
23549SOL     OW74051   6.294   0.220   7.779  0.1679  0.5677 -0.0505
23549SOL    HW174052   6.261   0.308   7.759 -3.0905 -0.7384 -0.7472
23549SOL    HW274053   6.244   0.193   7.856  2.0072 -0.2132  0.8782
23550SOL     OW74054   2.187   0.205  10.257  0.8082  0.5601 -0.2094
23550SOL    HW174055   2.275   0.242  10.263  0.2347  2.2401 -1.6433
23550SOL    HW274056   2.180   0.174  10.167  0.4861 -1.0703  0.3510
23551SOL     OW74057  10.955   2.871   7.227  0.7876 -1.0288  0.6700
23551SOL    HW174058  11.019   2.923   7.275 -1.2034  0.8605  1.3289
23551SOL    HW274059  10.874   2.921   7.232  0.0098 -1.8226 -2.8986
23552SOL     OW74060   1.416  10.006   0.801  0.1485  0.0083 -0.3615
23552SOL    HW174061   1.379  10.048   0.724  0.5652  2.7072  0.8752
23552SOL    HW274062   1.491  10.060   0.825 -0.0573 -0.6894  2.0072
23553SOL     OW74063  10.505   0.986   0.531 -0.2437 -0.1683  0.7731
23553SOL    HW174064  10.421   0.949   0.504 -0.2865  0.3861  0.1463
23553SOL    HW274065  10.539   1.030   0.454  0.0433  0.6722  1.3657
23554SOL     OW74066   9.705   7.819  10.952  0.6948 -0.5440  0.1082
23554SOL    HW174067   9.766   7.892  10.959  0.8721 -0.5476 -1.1301
23554SOL    HW274068   9.744   7.749  11.004 -0.0428  0.5927  2.2371
23555SOL     OW74069  10.196   8.636   3.521 -0.5790 -0.1866  0.2096
23555SOL    HW174070  10.283   8.649   3.483 -1.6584 -0.6646 -2.4637
23555SOL    HW274071  10.189   8.706   3.587  1.2830  0.6935 -0.4809
23556SOL     OW74072   5.862   5.654   0.583  0.1823  0.5013 -0.1160
23556SOL    HW174073   5.939   5.607   0.552 -0.3754  0.2686 -1.2086
23556SOL    HW274074   5.849   5.624   0.673  0.8310 -0.1446 -0.2369
23557SOL     OW74075   9.921   6.424   5.725  0.1263  0.5211 -0.2929
23557SOL    HW174076   9.956   6.387   5.805  1.4290  1.6935 -0.2989
23557SOL    HW274077   9.830   6.446   5.746 -0.2152 -1.2208  0.1582
23558SOL     OW74078   3.015   1.022   6.493  0.1947 -0.2424 -0.9575
23558SOL    HW174079   3.029   0.994   6.583  0.0882 -0.9357 -1.1572
23558SOL    HW274080   3.084   0.978   6.443  0.8121  0.8543 -1.0826
23559SOL     OW74081   2.785   4.132   3.822 -0.0108  0.4172 -0.1161
23559SOL    HW174082   2.841   4.055   3.832  0.3893  0.4300 -1.9967
23559SOL    HW274083   2.696   4.101   3.837  0.3463  0.0172  1.1341
23560SOL     OW74084   6.307   8.612   8.828  0.5803 -0.3207  0.4219
23560SOL    HW174085   6.300   8.633   8.921 -0.5717 -0.3556  0.3580
23560SOL    HW274086   6.255   8.679   8.784  2.5337  0.7253 -0.3511
23561SOL     OW74087   5.055   8.805   5.449  0.2590 -0.0171 -1.1274
23561SOL    HW174088   5.123   8.830   5.511 -2.4298  0.3155  1.8491
23561SOL    HW274089   5.027   8.888   5.409 -1.4118  0.4686  0.9623
23562SOL     OW74090   0.850   7.203   8.660 -0.2483 -0.6384 -0.2138
23562SOL    HW174091   0.761   7.187   8.690  0.1158 -0.0816  1.2061
23562SOL    HW274092   0.845   7.285   8.610 -0.3097  0.0371  0.8987
23563SOL     OW74093   3.009   8.002   0.549  0.3374 -0.2187 -0.1799
23563SOL    HW174094   2.995   8.092   0.521  0.6499 -0.9336 -2.7096
23563SOL    HW274095   2.939   7.985   0.612  0.6868  1.9822  0.8681
23564SOL     OW74096   5.240   5.768   7.467  0.8007  0.2329 -0.1490
23564SOL    HW174097   5.147   5.769   7.491  0.6565 -1.3761 -0.5768
23564SOL    HW274098   5.241   5.795   7.376  0.4174 -2.6221 -1.0672
23565SOL     OW74099   9.523   3.102   7.042 -0.2597  0.2631 -0.3689
23565SOL    HW174100   9.450   3.136   7.092  0.0432  1.3163 -0.6325
23565SOL    HW274101   9.485   3.035   6.986 -0.7557 -0.2630  0.5921
23566SOL     OW74102   8.712   5.725   9.215  0.1648 -0.1328  0.0036
23566SOL    HW174103   8.689   5.632   9.213  0.2672 -0.1788  0.7085
23566SOL    HW274104   8.773   5.732   9.288  1.0001  0.3000 -0.7405
23567SOL     OW74105   5.910   0.571   9.694  0.1740  0.4538 -0.2236
23567SOL    HW174106   5.822   0.595   9.724 -1.2153 -1.0500 -2.8996
23567SOL    HW274107   5.956   0.546   9.774 -2.1857  0.1917  1.1195
23568SOL     OW74108   2.975   9.859   5.323 -0.3276 -0.1112 -0.4088
23568SOL    HW174109   2.900   9.894   5.371  0.4051  0.0075  0.6870
23568SOL    HW274110   2.956   9.878   5.231 -1.1150  0.9208 -0.0502
23569SOL     OW74111   4.828   3.073   6.422  0.7832 -0.0571  0.1504
23569SOL    HW174112   4.899   3.135   6.437  0.9275 -0.2594  0.3125
23569SOL    HW274113   4.827   3.060   6.327  0.9479 -0.0320  0.1452
23570SOL     OW74114   3.030   3.183   3.336 -0.2163 -0.0106 -0.2406
23570SOL    HW174115   3.058   3.274   3.328 -1.3058  0.3245 -0.2616
23570SOL    HW274116   2.935   3.187   3.341 -0.2402 -1.1026  0.4028
23571SOL     OW74117  10.663   9.869   1.552 -0.1183 -0.3791  0.0167
23571SOL    HW174118  10.630   9.954   1.582 -0.4033 -0.5849  0.2759
23571SOL    HW274119  10.603   9.805   1.589  0.2503 -0.7132  0.0352
23572SOL     OW74120   0.402   3.447   1.370  0.0638 -0.3431 -0.1962
23572SOL    HW174121   0.472   3.470   1.309  0.0479 -0.9099 -0.4363
23572SOL    HW274122   0.379   3.357   1.346  0.9524 -1.0298  1.4986
23573SOL     OW74123   1.990   6.283   6.121 -0.3759  0.1479 -0.1424
23573SOL    HW174124   2.018   6.366   6.160 -0.5947 -0.3999  1.2151
23573SOL    HW274125   1.943   6.308   6.042 -0.8771  1.3482  0.5327
23574SOL     OW74126   4.293  10.131  10.620  0.0034  0.0501  0.5841
23574SOL    HW174127   4.354  10.175  10.679 -0.4540 -0.0328  1.1225
23574SOL    HW274128   4.293  10.040  10.650  0.0106 -0.0578  0.2554
23575SOL     OW74129   7.023   5.804   3.234 -0.5471  0.9070 -0.2832
23575SOL    HW174130   7.003   5.758   3.315 -0.5410 -0.4545 -1.0478
23575SOL    HW274131   6.938   5.834   3.202 -0.7977 -0.4839 -0.9202
23576SOL     OW74132   9.022   2.318   7.342  0.3492  0.0899  0.4845
23576SOL    HW174133   8.942   2.339   7.294 -0.2029 -1.6738  0.5953
23576SOL    HW274134   9.088   2.303   7.274  0.1097 -0.2800  0.3299
23577SOL     OW74135   3.396  10.254   4.031 -0.0493  0.1624 -0.1751
23577SOL    HW174136   3.447  10.278   4.108  0.4327 -0.3828 -0.3225
23577SOL    HW274137   3.321  10.314   4.032  0.1919  0.4538  0.4654
23578SOL     OW74138   9.216   6.029   2.397 -0.4072 -0.0801 -0.1251
23578SOL    HW174139   9.138   6.076   2.427  0.0352  0.2631  0.4871
23578SOL    HW274140   9.183   5.944   2.367 -1.3423  0.8968 -2.0202
23579SOL     OW74141   8.214   4.636   4.300 -1.0476  0.0142 -0.0519
23579SOL    HW174142   8.172   4.675   4.224 -1.2305 -0.9677 -0.4565
23579SOL    HW274143   8.168   4.553   4.314  0.5766 -0.9708 -0.3564
23580SOL     OW74144   0.874   9.246   3.963 -0.2631  0.0554  0.7980
23580SOL    HW174145   0.920   9.172   3.924 -0.7407 -0.2139  0.7467
23580SOL    HW274146   0.943   9.306   3.990  0.0267  1.0815 -2.0866
23581SOL     OW74147   5.414   3.345   4.379  0.0749  0.0360 -0.2709
23581SOL    HW174148   5.392   3.347   4.286  0.2996 -1.1427 -0.3522
23581SOL    HW274149   5.395   3.434   4.410 -0.7234  0.2171 -1.2677
23582SOL     OW74150   0.522   6.729   2.121 -0.4599  0.1593 -0.0042
23582SOL    HW174151   0.438   6.684   2.109 -1.2308  1.1881  1.4315
23582SOL    HW274152   0.573   6.670   2.177 -0.3335 -0.2984 -0.5863
23583SOL     OW74153   6.772   9.568   1.716 -0.3563  0.3770  0.3053
23583SOL    HW174154   6.785   9.508   1.643 -1.5999  1.8482 -1.1482
23583SOL    HW274155   6.845   9.629   1.710 -0.1318  0.1526  0.6675
23584SOL     OW74156   9.810   5.054   9.140 -0.1080 -0.3137  0.1226
23584SOL    HW174157   9.898   5.052   9.177 -0.0409  1.0718  0.0419
23584SOL    HW274158   9.753   5.027   9.212  0.4779 -2.4688 -0.1728
23585SOL     OW74159   2.753   0.569   0.830 -0.5963 -0.5460 -0.0476
23585SOL    HW174160   2.748   0.660   0.860 -4.8096 -1.2614  1.7198
23585SOL    HW274161   2.792   0.522   0.904 -1.6355 -0.7276  0.3830
23586SOL     OW74162   9.211   5.514   7.316  0.3184  0.0157 -0.1401
23586SOL    HW174163   9.284   5.539   7.372  0.0251  0.7414 -0.0736
23586SOL    HW274164   9.238   5.541   7.228 -0.4331  1.5471  0.0826
23587SOL     OW74165   1.534   1.374   0.454  0.6150  0.0654  0.1618
23587SOL    HW174166   1.603   1.440   0.464  0.1582  1.1754 -3.2951
23587SOL    HW274167   1.457   1.424   0.427 -0.5504 -1.5762  0.4171
23588SOL     OW74168   6.304   8.835   1.695 -0.1439 -0.1056  0.4393
23588SOL    HW174169   6.233   8.877   1.744 -0.8000  0.3216 -0.8549
23588SOL    HW274170   6.302   8.744   1.724 -1.0875 -0.0444  0.5875
23589SOL     OW74171   7.755   6.164   7.341 -0.2187  0.2077  0.3620
23589SOL    HW174172   7.739   6.092   7.281  1.9076 -1.3113  1.5418
23589SOL    HW274173   7.802   6.229   7.289  0.8870 -0.7508  0.1543
23590SOL     OW74174   2.505   5.326   2.719 -0.2665 -0.5312  0.5740
23590SOL    HW174175   2.455   5.407   2.718 -2.2127 -1.6965 -0.1808
23590SOL    HW274176   2.581   5.344   2.663 -0.2604  1.0110  1.0712
23591SOL     OW74177   4.846  10.003   5.138  0.0264 -0.2168  0.3545
23591SOL    HW174178   4.821   9.938   5.204  0.6122  1.3497  2.1926
23591SOL    HW274179   4.805  10.084   5.169  0.2154  0.5277 -1.3074
23592SOL     OW74180   8.906  10.215   9.307 -0.4324  0.0652  0.4536
23592SOL    HW174181   8.967  10.274   9.263 -0.7082  0.0216  0.0100
23592SOL    HW274182   8.906  10.136   9.254 -0.9369  0.0942  0.4074
23593SOL     OW74183   8.188   9.142   1.802 -0.0729 -0.0914  0.2089
23593SOL    HW174184   8.134   9.069   1.772  0.9205 -0.9553  0.4789
23593SOL    HW274185   8.126   9.211   1.823 -0.8604  0.1608 -2.8139
23594SOL     OW74186   8.570  10.675  10.211  0.1451  0.5716  0.4323
23594SOL    HW174187   8.609  10.588  10.211 -1.1681 -0.0214  0.3618
23594SOL    HW274188   8.478  10.661  10.234  0.1144  2.0231  1.2817
23595SOL     OW74189   1.721   6.571  10.593  0.0375 -0.6567 -0.6504
23595SOL    HW174190   1.653   6.535  10.650 -1.0027  1.1862 -0.6762
23595SOL    HW274191   1.755   6.646  10.641 -0.0720  0.2515 -1.9468
23596SOL     OW74192   6.596   3.661   3.761  0.6286  0.5153  0.6204
23596SOL    HW174193   6.609   3.744   3.714  0.8250 -0.3465 -0.8835
23596SOL    HW274194   6.649   3.598   3.712  0.9835 -0.3773  2.1348
23597SOL     OW74195   6.176   0.142   8.129  0.0406  0.3458  0.5492
23597SOL    HW174196   6.127   0.185   8.198  0.6698  0.7728  0.7419
23597SOL    HW274197   6.131   0.166   8.048 -1.2971 -0.9989  0.8947
23598SOL     OW74198   7.177   4.604   7.164 -0.3752 -0.3571 -0.3573
23598SOL    HW174199   7.091   4.645   7.162 -0.6741 -0.9989 -1.2605
23598SOL    HW274200   7.235   4.666   7.119 -0.1471  0.5312  1.1377
23599SOL     OW74201   3.323   3.953   2.451  0.5806  0.4024  0.7829
23599SOL    HW174202   3.274   4.021   2.498 -0.2008 -0.6663  1.5159
23599SOL    HW274203   3.270   3.937   2.372  0.4261  0.1571  0.9392
23600SOL     OW74204   8.625   7.759   1.748 -0.0237 -0.1047 -0.0737
23600SOL    HW174205   8.554   7.763   1.684 -0.5643  2.5116  0.5983
23600SOL    HW274206   8.587   7.797   1.828  1.5276 -0.5623  0.9025
23601SOL     OW74207   5.373   1.717   8.898  0.2354 -0.4308  0.2172
23601SOL    HW174208   5.468   1.711   8.907  0.2525 -1.0716 -0.3588
23601SOL    HW274209   5.359   1.772   8.820  0.1014  2.9555  2.5175
23602SOL     OW74210   8.722   7.020   0.504 -0.8082 -0.2594  0.5608
23602SOL    HW174211   8.695   7.053   0.591 -2.4355 -0.0761  0.0104
23602SOL    HW274212   8.733   6.926   0.516  1.3666  0.0853  1.5361
23603SOL     OW74213   6.718   8.885   9.845  0.1432 -0.0655 -0.5076
23603SOL    HW174214   6.813   8.893   9.836  0.2325 -0.4590  0.0645
23603SOL    HW274215   6.706   8.838   9.927 -0.5542  0.2830 -0.4053
23604SOL     OW74216   5.304   9.112   2.172  0.3788  0.0843 -0.5325
23604SOL    HW174217   5.295   9.062   2.091  2.3163 -0.2020 -0.6118
23604SOL    HW274218   5.372   9.176   2.153  1.6813 -0.7273  1.2029
23605SOL     OW74219   3.587   6.231   8.146  0.2827 -0.1757  0.8402
23605SOL    HW174220   3.525   6.274   8.086 -0.5139  2.0080  3.1489
23605SOL    HW274221   3.610   6.149   8.102 -1.4235  0.6736 -1.7500
23606SOL     OW74222   9.467   8.329   6.316 -0.4345  0.1882  0.0878
23606SOL    HW174223   9.380   8.288   6.311 -0.2116 -0.4060  1.0300
23606SOL    HW274224   9.519   8.268   6.369 -0.0149  1.5275  1.2378
23607SOL     OW74225   2.716   8.826   1.991  0.2954 -0.4892 -0.0244
23607SOL    HW174226   2.778   8.854   2.059  1.3847 -0.9693 -0.7913
23607SOL    HW274227   2.654   8.898   1.983 -0.5669 -0.9401  2.3250
23608SOL     OW74228  10.450   9.649  10.246  0.1629  0.1650 -0.1400
23608SOL    HW174229  10.436   9.586  10.316 -1.8484 -0.4378 -1.0412
23608SOL    HW274230  10.403   9.728  10.274  1.6922  0.8952  0.4470
23609SOL     OW74231   8.097   4.105   3.592 -0.4557  0.2613  0.0374
23609SOL    HW174232   8.053   4.184   3.560  0.0492  1.1735  1.5052
23609SOL    HW274233   8.058   4.090   3.678 -1.3560 -1.7615 -0.7075
23610SOL     OW74234   4.525   6.594   6.597  0.4764 -0.3218  0.2322
23610SOL    HW174235   4.503   6.626   6.509 -0.4906  0.5727  0.7846
23610SOL    HW274236   4.595   6.531   6.583 -0.8303 -1.4771 -1.3813
23611SOL     OW74237   9.165   8.337   5.489  0.4855 -0.4538  0.3187
23611SOL    HW174238   9.156   8.409   5.426 -0.9864 -1.9883 -1.2673
23611SOL    HW274239   9.242   8.289   5.460  0.0746 -0.9007 -0.0300
23612SOL     OW74240   4.348   1.955  10.388  0.8870 -0.1019 -0.3642
23612SOL    HW174241   4.285   2.026  10.400  1.1144  0.4312 -2.1657
23612SOL    HW274242   4.309   1.881  10.435  0.5047  1.1091  1.2832
23613SOL     OW74243   3.757   4.043   7.842  0.3376 -0.6404  0.6989
23613SOL    HW174244   3.688   4.073   7.784 -0.2539 -1.5235  0.9298
23613SOL    HW274245   3.725   3.960   7.877  1.9259 -1.5570  0.0737
23614SOL     OW74246   4.578   5.865   8.781  0.0069  0.0269 -0.1118
23614SOL    HW174247   4.606   5.819   8.861  0.3231  0.9072  0.2872
23614SOL    HW274248   4.565   5.955   8.809 -0.9914  0.1077 -0.8184
23615SOL     OW74249   8.547  10.135  10.285  0.0329 -0.0455  0.5995
23615SOL    HW174250   8.451  10.138  10.280  0.1567  0.7658 -1.9575
23615SOL    HW274251   8.572  10.070  10.220  1.2661  0.5728  0.4441
23616SOL     OW74252   9.653   2.838   2.669 -0.0897  0.2170  0.0484
23616SOL    HW174253   9.637   2.896   2.594 -2.6733  0.0071  0.4174
23616SOL    HW274254   9.658   2.750   2.630 -2.5567 -0.0214  0.2322
23617SOL     OW74255   7.157   3.455   8.968  0.2637  0.0393  0.9549
23617SOL    HW174256   7.063   3.469   8.961  0.1688 -0.7668  0.4661
23617SOL    HW274257   7.166   3.376   9.022  0.6901  0.5920  1.7088
23618SOL     OW74258   4.832   7.011   1.536  0.6096 -0.2690  0.3403
23618SOL    HW174259   4.926   7.010   1.554  0.0472 -1.6069  3.5171
23618SOL    HW274260   4.802   7.093   1.575  0.3333 -0.1576 -0.1037
23619SOL     OW74261   5.593   4.554   5.557 -0.4271 -0.3289 -0.0625
23619SOL    HW174262   5.668   4.523   5.507 -0.3020  1.8108 -1.2370
23619SOL    HW274263   5.630   4.615   5.621 -0.8048 -1.6778  1.4769
23620SOL     OW74264   2.179   0.739   9.447  0.5042 -0.6377  0.1759
23620SOL    HW174265   2.250   0.753   9.510  1.9659 -1.4331 -1.2769
23620SOL    HW274266   2.178   0.644   9.434  1.4464 -0.3074 -2.4194
23621SOL     OW74267   2.343   7.105   7.300  0.1710  0.1147  0.2884
23621SOL    HW174268   2.298   7.021   7.293 -0.2026  0.3530 -0.2062
23621SOL    HW274269   2.432   7.087   7.269 -0.5114  0.3786 -1.9046
23622SOL     OW74270   4.252  10.714   9.843  1.0790 -0.4473  0.1197
23622SOL    HW174271   4.309  10.755   9.778  0.4610  1.6099  0.8187
23622SOL    HW274272   4.200  10.651   9.793  2.7892 -1.1396 -0.8120
23623SOL     OW74273   0.619   0.457   9.639  0.3596 -0.2222 -0.4064
23623SOL    HW174274   0.689   0.519   9.657  0.7746 -0.6673 -0.4778
23623SOL    HW274275   0.657   0.395   9.577 -0.0282 -0.5844 -0.2877
23624SOL     OW74276   9.294   4.426   4.896 -0.0092 -0.0242  0.1372
23624SOL    HW174277   9.202   4.400   4.888 -0.4651  1.1639  1.2718
23624SOL    HW274278   9.315   4.411   4.988 -0.1204  3.0304  0.6882
23625SOL     OW74279   3.247   2.492   4.817 -0.5024  0.0384  0.3247
23625SOL    HW174280   3.197   2.418   4.783  0.2267  0.7182 -2.4244
23625SOL    HW274281   3.220   2.501   4.908 -2.3314 -2.1362  0.0239
23626SOL     OW74282   4.700   0.311  10.635  0.1353  0.0385 -0.2571
23626SOL    HW174283   4.709   0.217  10.619  0.2306 -0.0089  0.0765
23626SOL    HW274284   4.669   0.347  10.552  0.4636 -0.2333 -0.4934
23627SOL     OW74285  10.366   7.415   3.072  0.2439  0.0061 -0.0403
23627SOL    HW174286  10.296   7.443   3.014  1.0096  0.2536 -0.8516
23627SOL    HW274287  10.416   7.352   3.021  0.0373 -0.9158  0.8783
23628SOL     OW74288   6.238  10.174  10.824  0.0120 -0.2606 -0.4764
23628SOL    HW174289   6.217  10.129  10.741  0.6736  0.4112 -1.0169
23628SOL    HW274290   6.283  10.254  10.797 -2.0176  1.2342  0.4413
23629SOL     OW74291   2.803   4.397   5.797  0.3036 -0.2337 -0.0038
23629SOL    HW174292   2.758   4.412   5.881  0.7528 -1.5597  0.4814
23629SOL    HW274293   2.749   4.333   5.752  0.9812 -0.8133  0.0035
23630SOL     OW74294   3.185   6.596   0.735  0.0916  0.8069 -0.2799
23630SOL    HW174295   3.100   6.573   0.773 -0.1293  0.2512 -1.0782
23630SOL    HW274296   3.249   6.567   0.799 -0.2580 -0.4911 -0.5016
23631SOL     OW74297   3.662   4.850   0.547  0.2964  0.0570  0.0139
23631SOL    HW174298   3.676   4.858   0.641  1.8218 -2.6608  0.0435
23631SOL    HW274299   3.730   4.905   0.508 -0.2677  1.0972  0.4624
23632SOL     OW74300   1.394   8.452   4.219  0.0597 -0.1918 -0.1489
23632SOL    HW174301   1.307   8.492   4.224 -0.1004 -0.5882  0.2770
23632SOL    HW274302   1.388   8.390   4.147  0.1728  0.2239 -0.5167
23633SOL     OW74303   6.204   4.049   7.908 -0.5207 -0.4166  0.5701
23633SOL    HW174304   6.290   4.073   7.873 -0.0308  0.0548  2.0723
23633SOL    HW274305   6.176   4.126   7.957 -1.6704 -0.6882  0.3606
23634SOL     OW74306   0.813   8.308   1.986  0.0690 -0.4584 -0.3463
23634SOL    HW174307   0.877   8.364   1.943  0.1079 -1.2098 -1.2972
23634SOL    HW274308   0.862   8.230   2.010 -0.3706 -0.8262 -0.6272
23635SOL     OW74309   0.937   9.727   5.128  0.3275  0.0920  0.6207
23635SOL    HW174310   0.960   9.639   5.155  2.1669  0.4228  0.1996
23635SOL    HW274311   0.912   9.719   5.036  0.1738 -0.0392  0.6736
23636SOL     OW74312   7.607   4.016   7.714  0.1974  0.2596  0.3804
23636SOL    HW174313   7.661   4.067   7.774  1.7575 -0.5490 -0.3224
23636SOL    HW274314   7.578   4.080   7.649  1.1395  0.5083  0.1970
23637SOL     OW74315   8.352   0.559   4.107  0.0014  0.3617 -0.3723
23637SOL    HW174316   8.365   0.649   4.138  2.8124  0.6244 -2.0924
23637SOL    HW274317   8.311   0.568   4.022 -0.2193 -0.0034 -0.3071
23638SOL     OW74318   6.978   9.767   0.459 -0.1308 -0.0835 -0.3871
23638SOL    HW174319   6.953   9.756   0.551  0.8357  0.3168 -0.0753
23638SOL    HW274320   6.899   9.742   0.410 -0.7039 -0.1450  0.5503
23639SOL     OW74321   9.787   5.621   9.026  0.3535  0.5868 -0.2966
23639SOL    HW174322   9.739   5.646   9.105  1.2759  1.9743 -0.1774
23639SOL    HW274323   9.720   5.623   8.957 -0.0963  0.9889  0.1430
23640SOL     OW74324   9.316   0.509   2.842 -0.1915  0.3119  0.1428
23640SOL    HW174325   9.287   0.569   2.773  3.7274  1.6522 -0.4266
23640SOL    HW274326   9.284   0.549   2.923 -0.5170  1.3549 -0.4903
23641SOL     OW74327   9.800   6.047   0.932  0.4859  0.0124 -0.4740
23641SOL    HW174328   9.844   6.090   0.858 -1.4203  0.7034 -1.2275
23641SOL    HW274329   9.741   6.113   0.967 -1.6739 -1.5974 -0.9450
23642SOL     OW74330   4.582   4.023   9.148 -0.3912 -0.4128 -0.0560
23642SOL    HW174331   4.657   3.969   9.170 -0.2311  0.7265  2.4067
23642SOL    HW274332   4.607   4.068   9.067  1.2957 -0.5725  0.3633
23643SOL     OW74333   3.809   6.511   7.908 -0.0100 -0.6017 -0.4060
23643SOL    HW174334   3.796   6.416   7.901 -1.6609 -0.5201  1.2250
23643SOL    HW274335   3.889   6.527   7.859 -1.1458 -2.4687 -2.9803
23644SOL     OW74336   0.947   1.927   6.980 -0.1585  0.1856  0.2228
23644SOL    HW174337   0.870   1.939   7.037 -0.1406 -0.3791  0.3728
23644SOL    HW274338   0.994   2.009   6.986 -1.5439  1.0999 -1.0553
23645SOL     OW74339   9.943   9.056   0.787  0.1695 -0.1997 -0.2491
23645SOL    HW174340   9.977   8.994   0.852 -0.1543 -0.0121  0.1039
23645SOL    HW274341   9.850   9.034   0.779 -0.2894  1.1937  0.9961
23646SOL     OW74342   4.216   0.757   1.396  0.0014 -0.1787 -0.5484
23646SOL    HW174343   4.240   0.835   1.447 -1.9190  0.7530 -1.0421
23646SOL    HW274344   4.300   0.719   1.371  0.9676  1.0419  0.7544
23647SOL     OW74345   4.490   2.963   7.940 -0.1163  0.1416 -0.4103
23647SOL    HW174346   4.480   3.027   8.010 -0.8107  0.8039 -1.1091
23647SOL    HW274347   4.576   2.982   7.902  1.2635 -1.6291  1.6455
23648SOL     OW74348   3.528   8.734   5.280  0.7162 -1.1465  0.0362
23648SOL    HW174349   3.612   8.778   5.268 -0.3287  0.7489 -0.5868
23648SOL    HW274350   3.496   8.768   5.364 -0.1109 -0.6964 -0.4576
23649SOL     OW74351   0.175   9.372   2.239  0.1953  0.2791 -0.2149
23649SOL    HW174352   0.261   9.410   2.221  0.4902 -0.0836  0.4366
23649SOL    HW274353   0.156   9.319   2.162 -0.1877  1.6842 -1.1099
23650SOL     OW74354   0.569   6.176   2.976 -0.0628 -0.4114 -0.2991
23650SOL    HW174355   0.583   6.107   3.041 -0.6225 -0.4190 -0.1864
23650SOL    HW274356   0.658   6.203   2.951  0.1648  0.4433  1.3524
23651SOL     OW74357   2.661   3.425   6.718 -0.6333 -0.0861  0.6191
23651SOL    HW174358   2.620   3.364   6.657 -0.4446  1.2954 -0.9648
23651SOL    HW274359   2.622   3.510   6.696 -1.2630  0.2960  3.1130
23652SOL     OW74360   7.059   9.994   9.753  0.1017 -0.1822  0.4073
23652SOL    HW174361   6.964   9.998   9.764  0.0810  1.9800 -0.3556
23652SOL    HW274362   7.093  10.034   9.833  0.3724 -0.9632  0.6828
23653SOL     OW74363   0.569   8.399   4.812 -0.3420  0.1854  0.0758
23653SOL    HW174364   0.535   8.473   4.762  0.1718  1.2904  1.3454
23653SOL    HW274365   0.662   8.396   4.791 -0.2062  0.3961  0.6348
23654SOL     OW74366   0.511  10.505   2.758 -0.0607 -0.4825  0.0086
23654SOL    HW174367   0.502  10.503   2.854  1.3405 -3.0093  0.1261
23654SOL    HW274368   0.432  10.461   2.726 -1.1748  1.5224 -0.0902
23655SOL     OW74369   8.490   6.907   1.701 -0.1839 -0.0158 -0.1581
23655SOL    HW174370   8.539   6.836   1.660  1.1188  0.2423  0.9151
23655SOL    HW274371   8.398   6.884   1.687  0.2230 -1.5794 -0.3782
23656SOL     OW74372   3.514  10.664   2.714  0.0927 -0.8633  0.1622
23656SOL    HW174373   3.501  10.678   2.808 -0.7403 -0.0135 -0.0794
23656SOL    HW274374   3.448  10.598   2.690 -0.5956 -0.0800 -0.0988
23657SOL     OW74375   9.404   2.824   8.046  0.0352  0.1028  0.1806
23657SOL    HW174376   9.400   2.793   7.955 -1.4284 -0.1605  0.3327
23657SOL    HW274377   9.407   2.744   8.098  0.3967  0.2561  0.3988
23658SOL     OW74378   3.419   3.229   7.406  0.5705  0.2022  0.1772
23658SOL    HW174379   3.430   3.301   7.468  0.0231  0.1351  0.3582
23658SOL    HW274380   3.328   3.201   7.418 -0.2392  1.6276 -2.2046
23659SOL     OW74381   4.169   8.285   6.439  0.3073  0.0806  0.1131
23659SOL    HW174382   4.202   8.198   6.417 -0.3194  0.0879 -0.9100
23659SOL    HW274383   4.243   8.344   6.424  0.3373 -0.1130 -0.5356
23660SOL     OW74384   3.691   2.563   3.196 -0.5052 -0.1470 -0.0340
23660SOL    HW174385   3.736   2.574   3.112 -0.3237  0.8259  0.1847
23660SOL    HW274386   3.607   2.523   3.173 -0.4586  0.1205 -0.6795
23661SOL     OW74387   4.388   6.961   3.424  0.1817  0.2046 -0.5188
23661SOL    HW174388   4.296   6.975   3.404 -0.3167 -0.8849  0.9767
23661SOL    HW274389   4.410   6.877   3.383  0.8701  1.0677 -1.9753
23662SOL     OW74390   7.948  10.798   5.157 -0.0487 -0.3215  0.1739
23662SOL    HW174391   7.986  10.837   5.078 -0.6099  0.1081  0.1167
23662SOL    HW274392   8.024  10.775   5.211  0.3355 -0.5276 -0.4424
23663SOL     OW74393   0.092  10.112   1.647 -0.5155 -0.4421 -0.5485
23663SOL    HW174394   0.008  10.141   1.682 -1.7871 -3.2127 -1.1672
23663SOL    HW274395   0.130  10.191   1.608 -2.8466  0.8569 -0.2991
23664SOL     OW74396   4.781   4.755  10.305  0.2290  0.3252 -0.2351
23664SOL    HW174397   4.814   4.730  10.391 -0.6516  0.8809  0.2803
23664SOL    HW274398   4.686   4.743  10.311  0.0269  1.5329 -0.7207
23665SOL     OW74399   2.140   0.437   5.398 -0.7588 -0.0317  0.1161
23665SOL    HW174400   2.094   0.510   5.438  1.0498  0.7639  0.7835
23665SOL    HW274401   2.232   0.449   5.424 -0.3553 -2.2087 -0.2474
23666SOL     OW74402   9.566   1.611   3.224  0.8194  0.1549 -0.5660
23666SOL    HW174403   9.556   1.659   3.142  0.3113 -1.7219 -1.6403
23666SOL    HW274404   9.480   1.571   3.239  1.3235 -0.6774  0.1149
23667SOL     OW74405  10.823   7.919   8.255  0.7171  0.2750 -0.3365
23667SOL    HW174406  10.809   7.996   8.310  2.1491 -0.4589  1.0882
23667SOL    HW274407  10.880   7.951   8.184  0.0891  0.8727 -0.5737
23668SOL     OW74408   4.589   5.621   0.054 -0.6745  0.2601  0.1870
23668SOL    HW174409   4.510   5.658   0.092 -0.5690  1.4501 -0.7234
23668SOL    HW274410   4.660   5.668   0.098 -0.4853 -0.4285  0.6201
23669SOL     OW74411   7.347   1.399   5.924 -0.0891  0.1458 -0.4691
23669SOL    HW174412   7.356   1.436   5.836  1.9771  0.9985  0.0552
23669SOL    HW274413   7.293   1.322   5.912  0.0217  0.3466 -2.4778
23670SOL     OW74414   9.209   4.094   4.804 -0.3030  0.1532  0.3426
23670SOL    HW174415   9.213   4.027   4.735  0.0955  0.4473  0.0748
23670SOL    HW274416   9.129   4.074   4.853 -0.0167 -0.7256  0.4703
23671SOL     OW74417  10.541   9.329  10.809  0.1846  0.3728 -0.0053
23671SOL    HW174418  10.602   9.402  10.816  0.9762 -0.2075 -0.7247
23671SOL    HW274419  10.570   9.267  10.877  0.8447 -0.2162 -0.8110
23672SOL     OW74420   7.335   4.932   1.482  0.0417  0.3558  0.5563
23672SOL    HW174421   7.358   4.844   1.512 -0.6334  0.2259  0.6988
23672SOL    HW274422   7.252   4.922   1.436  1.3550  0.4715 -1.8990
23673SOL     OW74423   6.279   8.184   8.527 -0.1047  0.5250 -0.1071
23673SOL    HW174424   6.311   8.129   8.598 -0.0917  0.1945 -0.3673
23673SOL    HW274425   6.237   8.258   8.570  0.0840  0.4265  0.2411
23674SOL     OW74426   5.163   7.305   2.576 -0.0701 -0.1620  0.5172
23674SOL    HW174427   5.168   7.399   2.591  0.3063  0.2629 -1.9968
23674SOL    HW274428   5.084   7.277   2.623 -1.0403  1.6680  0.0147
23675SOL     OW74429   0.302   2.294  10.954  0.0053  0.1590 -0.2778
23675SOL    HW174430   0.345   2.373  10.987  0.0277  0.0627 -0.0755
23675SOL    HW274431   0.364   2.257  10.892 -1.5801  2.3674 -3.2998
23676SOL     OW74432   4.890   6.221   6.656 -0.1227  0.4169  0.0431
23676SOL    HW174433   4.969   6.234   6.708  0.4827 -1.4110 -0.3723
23676SOL    HW274434   4.917   6.162   6.586 -1.9191 -0.4326  0.0297
23677SOL     OW74435   3.130   2.185   0.289 -0.1688  0.2042 -0.1253
23677SOL    HW174436   3.150   2.132   0.367  2.1378  1.0191 -0.1400
23677SOL    HW274437   3.036   2.203   0.297  0.0733  0.5385  2.6461
23678SOL     OW74438   0.464   0.901   5.377 -0.7345  0.2440  0.0271
23678SOL    HW174439   0.457   0.985   5.422 -0.6376 -0.2562  0.9809
23678SOL    HW274440   0.451   0.923   5.285 -1.0919  1.2503  0.3054
23679SOL     OW74441   9.225   1.152   9.845 -0.3392 -0.8399 -0.1574
23679SOL    HW174442   9.169   1.090   9.892 -1.3619  0.3491  0.2052
23679SOL    HW274443   9.187   1.237   9.863  0.1450 -0.2373 -1.9450
23680SOL     OW74444   1.276   7.122   9.598  0.2865 -0.4779 -0.1182
23680SOL    HW174445   1.300   7.033   9.573 -1.1310 -0.3672 -2.0137
23680SOL    HW274446   1.187   7.113   9.633 -0.9897  0.5651 -2.9938
23681SOL     OW74447   2.794   8.106  10.282 -1.0162 -0.4495  0.0256
23681SOL    HW174448   2.879   8.090  10.323 -0.1339 -0.7408 -1.8844
23681SOL    HW274449   2.739   8.140  10.353  0.2791 -1.5762  1.6060
23682SOL     OW74450   5.418   8.807   2.191  0.0207 -0.1563 -0.6218
23682SOL    HW174451   5.402   8.885   2.139 -0.5452 -0.0138 -0.2336
23682SOL    HW274452   5.412   8.837   2.282  2.9534  0.0167 -0.4406
23683SOL     OW74453   1.119   4.667  10.264 -0.5892  0.1258 -0.0861
23683SOL    HW174454   1.072   4.583  10.266 -0.2692 -0.0417  0.7350
23683SOL    HW274455   1.074   4.718  10.197 -0.9992 -0.5813 -0.3582
23684SOL     OW74456   3.329   4.523   9.135  0.7697  0.0904  0.6134
23684SOL    HW174457   3.237   4.500   9.151  0.6178 -0.1055 -0.5060
23684SOL    HW274458   3.369   4.443   9.102  1.1726  0.3658  0.4243
23685SOL     OW74459   0.206   0.845   7.695 -0.3878 -0.0416 -0.6960
23685SOL    HW174460   0.209   0.927   7.645  0.2225 -0.4738 -1.3839
23685SOL    HW274461   0.190   0.777   7.629 -0.0669 -0.5649 -0.2418
23686SOL     OW74462  10.360  10.537   3.646 -0.1274  0.0692 -0.3876
23686SOL    HW174463  10.442  10.543   3.598 -0.4286 -0.2700 -0.9433
23686SOL    HW274464  10.293  10.525   3.579 -0.7433  1.3123 -0.0128
23687SOL     OW74465  10.680   9.535   4.390  0.5252 -0.3820 -0.6331
23687SOL    HW174466  10.765   9.538   4.346  0.1196 -1.1335 -1.4766
23687SOL    HW274467  10.692   9.589   4.468  1.2154  1.0277 -1.7022
23688SOL     OW74468   9.230   8.269   6.541 -0.1313 -0.0705  0.5146
23688SOL    HW174469   9.248   8.291   6.449  1.4150 -1.4177  0.4750
23688SOL    HW274470   9.171   8.194   6.536 -0.6989  0.3609  0.6430
23689SOL     OW74471   9.780   4.076   5.625  0.2528  0.1046  0.0331
23689SOL    HW174472   9.872   4.055   5.634 -0.3382 -2.0855  1.2151
23689SOL    HW274473   9.763   4.071   5.531  0.7791 -1.9743  0.0282
23690SOL     OW74474   5.213   4.637   6.159 -1.0635  0.4056  0.2913
23690SOL    HW174475   5.144   4.600   6.103 -1.4249 -0.1340  1.0698
23690SOL    HW274476   5.182   4.725   6.179 -1.0525  0.5139 -0.1596
23691SOL     OW74477   4.216  10.057   5.484  0.6158  0.1930  0.1603
23691SOL    HW174478   4.161  10.134   5.473 -0.8782 -0.7899  0.5866
23691SOL    HW274479   4.156   9.983   5.474  2.1434 -0.9314 -0.9343
23692SOL     OW74480   6.892   8.491   9.344 -0.3666 -0.0398 -0.7005
23692SOL    HW174481   6.922   8.579   9.365 -0.7831  0.0644 -0.5326
23692SOL    HW274482   6.960   8.433   9.379 -0.7647  0.1571  0.4072
23693SOL     OW74483   2.038   9.042   0.207  0.2639  0.2728  0.3336
23693SOL    HW174484   1.974   8.971   0.205  2.6506 -1.9731  1.0745
23693SOL    HW274485   2.072   9.047   0.118 -0.1489  0.7279  0.1999
23694SOL     OW74486   8.601  10.832   7.554  0.2749 -0.1658 -0.4000
23694SOL    HW174487   8.669  10.832   7.621 -1.1616  0.2643  1.0989
23694SOL    HW274488   8.566  10.921   7.555  0.8659  0.1038 -2.3918
23695SOL     OW74489   1.819   1.679   3.306 -0.3760 -0.2625  0.6845
23695SOL    HW174490   1.908   1.644   3.312 -0.9816 -2.0199 -0.2116
23695SOL    HW274491   1.800   1.679   3.212 -1.1779  0.4651  0.8469
23696SOL     OW74492   9.696   9.765   3.011  0.5770 -0.4455  0.0609
23696SOL    HW174493   9.725   9.688   2.963 -2.6999 -0.5043 -1.9575
23696SOL    HW274494   9.614   9.738   3.053  0.6591  1.2153  1.3503
23697SOL     OW74495   0.951  10.164   1.960 -0.1703  0.1605 -0.2242
23697SOL    HW174496   0.943  10.195   2.050  0.3962 -1.4228  0.3843
23697SOL    HW274497   0.861  10.139   1.936 -0.2202 -0.0029  0.1238
23698SOL     OW74498   2.033  10.759   0.601 -0.0812 -0.1166 -0.1855
23698SOL    HW174499   2.047  10.840   0.651 -1.5373 -0.5988  1.0572
23698SOL    HW274500   2.098  10.762   0.531  1.2684  1.1292  1.0888
23699SOL     OW74501   4.023   9.206  10.603  0.3281 -0.5342  0.0425
23699SOL    HW174502   4.046   9.118  10.576 -0.0073 -0.7345  0.4107
23699SOL    HW274503   3.943   9.196  10.654 -0.1002  0.0572 -0.5018
23700SOL     OW74504   5.086   1.278   7.466  0.1609 -0.0647 -0.4940
23700SOL    HW174505   5.048   1.300   7.381  0.3725 -0.0564 -0.5881
23700SOL    HW274506   5.172   1.240   7.444 -0.0267 -0.5943 -0.3137
23701SOL     OW74507   1.327   7.639   2.954  0.0815  0.2428  0.4481
23701SOL    HW174508   1.382   7.698   3.006  0.9598 -0.9584  0.9200
23701SOL    HW274509   1.385   7.568   2.928 -0.5009  0.5106 -1.7054
23702SOL     OW74510   5.467   2.072   2.415 -0.9005  0.0838 -0.3280
23702SOL    HW174511   5.436   2.081   2.325 -1.2840  0.7442 -0.1306
23702SOL    HW274512   5.389   2.044   2.464 -0.7869  0.1067 -0.1333
23703SOL     OW74513   4.241   9.882   9.499  0.3395 -0.0810  0.0107
23703SOL    HW174514   4.146   9.878   9.482  0.4989  0.8213 -1.1881
23703SOL    HW274515   4.281   9.845   9.420  0.9882 -0.1212  0.3600
23704SOL     OW74516   6.867   4.680   4.802 -0.1468  1.0858 -0.4777
23704SOL    HW174517   6.890   4.676   4.709 -1.9988  0.6052 -0.9348
23704SOL    HW274518   6.771   4.674   4.804 -0.0349 -1.4042  1.5673
23705SOL     OW74519   5.715   7.647   7.695 -0.3682  0.1235 -0.1304
23705SOL    HW174520   5.762   7.604   7.767  1.4565  0.5384 -1.0287
23705SOL    HW274521   5.757   7.612   7.616 -0.2877  1.9656 -0.9212
23706SOL     OW74522   4.064   2.886   5.308 -0.4810  0.4566 -0.2365
23706SOL    HW174523   4.021   2.802   5.322 -3.0448  1.7818  0.1948
23706SOL    HW274524   4.064   2.898   5.213 -1.6142  0.6955 -0.2156
23707SOL     OW74525   0.417  10.787   6.632  0.3657 -0.0652  0.5047
23707SOL    HW174526   0.362  10.808   6.557 -1.8633 -1.3539  1.7427
23707SOL    HW274527   0.395  10.852   6.698  1.4827  0.3572  0.4822
23708SOL     OW74528   4.381   2.601   2.473 -0.3822 -0.1715  0.1795
23708SOL    HW174529   4.342   2.554   2.547 -0.7641  0.0827  0.1364
23708SOL    HW274530   4.358   2.693   2.487  0.9495  0.1182  0.6385
23709SOL     OW74531   5.848   6.014   6.255  0.1318 -0.2332  0.0911
23709SOL    HW174532   5.891   6.100   6.253 -1.3469  0.5294  0.1055
23709SOL    HW274533   5.853   5.983   6.165  1.0822 -0.3490  0.1776
23710SOL     OW74534   7.895   8.870   8.731 -0.0458  0.2110 -0.9276
23710SOL    HW174535   7.816   8.908   8.693 -0.2161  1.3798  0.5527
23710SOL    HW274536   7.967   8.918   8.691 -0.2217  1.4170  0.1867
23711SOL     OW74537   2.916   2.278   4.940 -0.7211  0.1745 -0.3924
23711SOL    HW174538   2.844   2.282   4.877 -0.1305 -1.1752 -1.1993
23711SOL    HW274539   2.875   2.291   5.025 -2.1529 -1.9019 -0.7155
23712SOL     OW74540  10.453   3.679   6.508 -0.7596 -0.0927  0.4770
23712SOL    HW174541  10.420   3.671   6.419 -0.9131  0.6808  0.4653
23712SOL    HW274542  10.377   3.661   6.563 -0.9590  0.6824  0.4517
23713SOL     OW74543   9.908   2.031   5.176 -0.5691  0.3630  0.4387
23713SOL    HW174544   9.899   2.106   5.117  0.8287 -0.6108 -1.0354
23713SOL    HW274545   9.990   2.047   5.222  1.0678 -1.5093 -1.7368
23714SOL     OW74546   2.372   3.501   2.136  0.5807 -0.5049 -0.2259
23714SOL    HW174547   2.434   3.509   2.064 -2.1930  2.3942 -2.4088
23714SOL    HW274548   2.296   3.552   2.109 -1.2907 -0.7976  4.0021
23715SOL     OW74549   8.930   3.424   8.636 -0.4180  0.4793  0.0461
23715SOL    HW174550   9.007   3.480   8.637 -1.6444  2.2421 -0.3506
23715SOL    HW274551   8.906   3.418   8.543  0.7248 -2.2010 -0.1083
23716SOL     OW74552   9.805   2.340  10.127 -0.3186 -0.2304  0.0149
23716SOL    HW174553   9.748   2.399  10.177  0.0263  1.5064 -1.6068
23716SOL    HW274554   9.893   2.358  10.160 -0.5898 -2.7001  2.3045
23717SOL     OW74555   0.881   6.136   9.097 -0.6705  0.0297  0.0316
23717SOL    HW174556   0.890   6.213   9.153 -0.4367 -0.1029  0.1794
23717SOL    HW274557   0.880   6.170   9.008 -2.9389  0.4133  0.1837
23718SOL     OW74558   5.056   3.562   9.706  0.0543  0.1968 -0.1289
23718SOL    HW174559   5.150   3.544   9.697  0.1545  0.6691 -0.0359
23718SOL    HW274560   5.052   3.645   9.753 -0.4338 -0.6995  1.4603
23719SOL     OW74561   0.972   6.402   2.416  0.9691 -0.0776 -0.4791
23719SOL    HW174562   0.959   6.416   2.322  2.3214  0.3919 -0.6158
23719SOL    HW274563   0.935   6.480   2.457  2.0431  0.5873 -0.7559
23720SOL     OW74564   6.011   2.393   5.845  0.4534 -0.4859  0.1873
23720SOL    HW174565   6.050   2.444   5.915 -0.7705 -0.3472  0.7837
23720SOL    HW274566   5.963   2.457   5.793  2.3445 -0.3886 -1.5055
23721SOL     OW74567   5.567  10.364   6.534 -0.4081 -0.5351 -0.0116
23721SOL    HW174568   5.579  10.409   6.451  0.8580 -1.4407 -0.3361
23721SOL    HW274569   5.513  10.288   6.513 -3.5951  1.4502  0.7554
23722SOL     OW74570   8.029   6.565   5.656 -0.1358  0.4362  0.4865
23722SOL    HW174571   7.938   6.585   5.677 -0.5106 -1.2081  0.4957
23722SOL    HW274572   8.067   6.536   5.738  0.7224  2.1753  0.7345
23723SOL     OW74573   6.504  10.420   2.548 -0.5294  0.1221  0.2554
23723SOL    HW174574   6.454  10.342   2.575  0.0120 -0.3171  0.0090
23723SOL    HW274575   6.443  10.470   2.494 -0.5055 -0.7210 -0.5585
23724SOL     OW74576   6.383   5.432   3.605 -0.5619 -0.3111 -0.1272
23724SOL    HW174577   6.431   5.367   3.656  0.2582 -0.1583 -0.6822
23724SOL    HW274578   6.299   5.441   3.649 -0.0993 -0.6361  0.8270
23725SOL     OW74579   2.581   0.676   1.990 -0.0979 -0.0927 -0.1602
23725SOL    HW174580   2.596   0.606   1.927  0.0508  0.1521 -0.3979
23725SOL    HW274581   2.531   0.742   1.942 -1.1235 -0.4863  0.3529
23726SOL     OW74582   8.341   3.962   6.777 -0.7449 -0.1693  0.2398
23726SOL    HW174583   8.369   4.014   6.702 -0.3460 -0.0028  0.5040
23726SOL    HW274584   8.293   3.888   6.739 -0.5552 -0.0761 -0.1746
23727SOL     OW74585   8.713   3.332   3.886 -0.0040 -0.0615  0.2852
23727SOL    HW174586   8.802   3.368   3.883 -0.3092  0.6572 -0.0916
23727SOL    HW274587   8.710   3.284   3.969  0.8812 -0.4812  0.0866
23728SOL     OW74588   1.299   4.144   0.073 -0.0268  0.2722 -0.0218
23728SOL    HW174589   1.209   4.127   0.045  0.5066 -1.3877 -0.8161
23728SOL    HW274590   1.314   4.082   0.144 -0.1913  2.0286  1.5799
23729SOL     OW74591   8.703   0.357   5.063 -0.1882  0.1240  0.5584
23729SOL    HW174592   8.646   0.374   4.988  1.4898  0.3548 -0.6744
23729SOL    HW274593   8.770   0.426   5.059 -0.9522  1.1079  3.1723
23730SOL     OW74594   1.803  10.336   6.371  0.5630 -0.2245  0.6986
23730SOL    HW174595   1.713  10.323   6.399  0.7076 -0.4436  1.0681
23730SOL    HW274596   1.811  10.286   6.290  0.4645 -0.5421  0.8831
23731SOL     OW74597   2.159   8.854   1.515 -0.2372  0.4763  0.0766
23731SOL    HW174598   2.105   8.925   1.552  0.6290  2.0434 -1.6067
23731SOL    HW274599   2.235   8.850   1.573 -1.1370 -0.3181  1.2274
23732SOL     OW74600   7.838   9.231  10.243 -0.5056 -0.6154  0.1018
23732SOL    HW174601   7.780   9.214  10.169  0.1330 -0.3127 -0.4638
23732SOL    HW274602   7.874   9.318  10.226 -2.0840  0.4330  1.8939
23733SOL     OW74603   5.836   0.855   4.668 -0.1737 -0.4424 -0.0610
23733SOL    HW174604   5.871   0.916   4.602 -2.2743 -0.8343 -1.5732
23733SOL    HW274605   5.859   0.768   4.635  1.9014 -0.5490  1.5698
23734SOL     OW74606   1.400   5.014   0.731 -1.3166 -0.0410  0.1800
23734SOL    HW174607   1.318   4.968   0.714 -0.6782 -1.2395  0.3205
23734SOL    HW274608   1.463   4.973   0.673 -0.7983  0.8806  0.0730
23735SOL     OW74609   9.326   5.195   2.866 -0.0891  0.1742  0.3387
23735SOL    HW174610   9.281   5.279   2.874 -0.2336 -0.0404  2.1108
23735SOL    HW274611   9.390   5.196   2.938  1.4849 -0.2837 -1.0112
23736SOL     OW74612  10.785   9.904   9.320  0.3292 -0.0376  0.0905
23736SOL    HW174613  10.735   9.828   9.349  1.2798 -0.6231  0.2405
23736SOL    HW274614  10.869   9.867   9.293  0.0550  0.7095 -1.8162
23737SOL     OW74615   1.742   8.156   7.799  0.2367 -0.0898  0.2698
23737SOL    HW174616   1.719   8.152   7.706  2.3215  1.6344 -0.3418
23737SOL    HW274617   1.834   8.132   7.802  0.1810 -0.1621  1.9166
23738SOL     OW74618   1.685   6.160  10.903  0.6504 -0.3093  0.2483
23738SOL    HW174619   1.758   6.157  10.841 -0.0844  0.0648 -0.6260
23738SOL    HW274620   1.633   6.082  10.882 -0.9588  1.1561 -1.2594
23739SOL     OW74621   2.430   0.586   2.208  0.8723  0.4970  0.6950
23739SOL    HW174622   2.503   0.607   2.151 -0.9037  0.0314 -1.8329
23739SOL    HW274623   2.445   0.495   2.235 -0.7641 -1.0175 -3.1113
23740SOL     OW74624   7.313   9.643   7.937 -0.3019 -0.0594 -0.3857
23740SOL    HW174625   7.244   9.694   7.894 -0.9070  0.3174  0.9979
23740SOL    HW274626   7.311   9.672   8.028  1.2398 -0.5469 -0.1825
23741SOL     OW74627   3.168   3.583   9.610 -0.1772  0.7047 -0.4093
23741SOL    HW174628   3.197   3.644   9.678 -1.3011  2.2374 -1.2655
23741SOL    HW274629   3.084   3.618   9.581 -0.7238 -1.1272 -1.1145
23742SOL     OW74630   4.731   5.726   9.660 -0.1525  0.3561  0.7087
23742SOL    HW174631   4.712   5.661   9.728 -0.6452  0.8749  1.0658
23742SOL    HW274632   4.827   5.733   9.660 -0.1234  0.0170  1.0262
23743SOL     OW74633   7.090   8.297   7.371 -0.3210  0.6318 -0.0975
23743SOL    HW174634   7.101   8.364   7.304 -2.3881  1.6299  0.5319
23743SOL    HW274635   7.031   8.336   7.435  0.5723 -0.8040  1.6540
23744SOL     OW74636   5.053   0.204   5.569  0.0089 -0.5739  0.4237
23744SOL    HW174637   5.072   0.279   5.512 -0.6156  0.2698  1.2969
23744SOL    HW274638   5.139   0.178   5.604  0.4181 -1.2126 -1.0170
23745SOL     OW74639   4.003   0.944   5.389  0.1175  0.3333  0.4060
23745SOL    HW174640   4.006   1.012   5.456  0.6580  0.5367  0.1775
23745SOL    HW274641   4.036   0.865   5.433  0.4855  0.4701  0.3767
23746SOL     OW74642   9.096   7.436   2.082 -0.5785  0.0818 -0.3892
23746SOL    HW174643   9.049   7.428   2.165 -0.2379  0.6669 -0.1326
23746SOL    HW274644   9.136   7.351   2.068  0.2853  0.3134  0.6173
23747SOL     OW74645   8.080   4.497   6.805 -0.0695 -0.1689  0.7677
23747SOL    HW174646   8.037   4.582   6.816 -1.1929 -0.8860  2.0679
23747SOL    HW274647   8.042   4.461   6.725 -0.5681 -0.0101  0.9296
23748SOL     OW74648   7.120   2.295   8.218  0.0846  0.3977 -0.1399
23748SOL    HW174649   7.083   2.207   8.226  0.5526  0.1678 -0.4526
23748SOL    HW274650   7.215   2.281   8.220  0.1488  1.0452  1.2440
23749SOL     OW74651   9.961   6.985   6.607  0.3369  0.0870  0.3200
23749SOL    HW174652   9.950   6.909   6.550  0.8602  1.7194 -1.9899
23749SOL    HW274653   9.989   6.947   6.691  2.0177 -2.1662 -1.1935
23750SOL     OW74654   8.877   2.048   9.739 -0.0904 -0.2000  0.0845
23750SOL    HW174655   8.858   2.142   9.746 -2.4325 -0.5475 -1.1128
23750SOL    HW274656   8.912   2.038   9.651 -0.0363 -0.4709  0.1390
23751SOL     OW74657   5.233   4.842   7.739 -0.1716  0.2320  0.0340
23751SOL    HW174658   5.316   4.821   7.697  0.2959  0.6498  0.7396
23751SOL    HW274659   5.194   4.909   7.683 -0.3442 -0.4304 -0.6562
23752SOL     OW74660   6.744   6.309   4.589 -0.1703 -0.1331  0.2731
23752SOL    HW174661   6.732   6.216   4.570  0.7650 -0.0818 -0.5589
23752SOL    HW274662   6.685   6.354   4.528 -0.6013 -0.1687  0.6565
23753SOL     OW74663   7.674   1.859   3.378 -0.1180 -0.0583 -0.1377
23753SOL    HW174664   7.756   1.901   3.349 -0.1458  0.7501  0.9248
23753SOL    HW274665   7.605   1.914   3.340 -0.1550  1.0804  1.5148
23754SOL     OW74666   8.293   4.314   3.362  0.5371  0.1850 -0.0462
23754SOL    HW174667   8.226   4.255   3.396 -0.6170  0.3645 -1.9483
23754SOL    HW274668   8.365   4.256   3.338  0.1391 -0.2626 -0.1793
23755SOL     OW74669   8.569   2.976   3.467  0.1699  0.4323 -0.4019
23755SOL    HW174670   8.502   2.941   3.408  0.3090 -1.3970  0.5104
23755SOL    HW274671   8.542   2.945   3.554  0.3413  2.5294  0.4252
23756SOL     OW74672   6.250   9.142   7.133 -0.5070 -0.5857  0.4112
23756SOL    HW174673   6.195   9.220   7.140 -0.5263 -0.3897 -1.5771
23756SOL    HW274674   6.198   9.081   7.081  0.5798 -0.9133 -0.3099
23757SOL     OW74675   4.139   1.814   7.241  0.2658  0.1964  0.2866
23757SOL    HW174676   4.061   1.847   7.197  0.9456  1.4092 -0.0084
23757SOL    HW274677   4.165   1.884   7.300  1.1093 -0.2239  0.4174
23758SOL     OW74678   1.847   4.217   9.302 -0.1325  0.2019  0.3328
23758SOL    HW174679   1.837   4.311   9.286  1.2785  0.1689 -0.9000
23758SOL    HW274680   1.761   4.180   9.282 -0.8704  1.2937  1.4074
23759SOL     OW74681   9.317   7.284  10.498 -0.6432 -0.0367 -0.4166
23759SOL    HW174682   9.304   7.201  10.453  0.8058  0.2044 -1.3538
23759SOL    HW274683   9.359   7.261  10.580 -0.8625 -0.2812 -0.3717
23760SOL     OW74684   8.957   6.551   4.837  0.0282 -0.2735  0.1491
23760SOL    HW174685   8.894   6.590   4.777 -0.0687  0.2591  0.5889
23760SOL    HW274686   9.042   6.576   4.802 -0.0158 -0.4951 -0.1167
23761SOL     OW74687   5.806   0.682  10.025 -0.2798  0.1768  0.0592
23761SOL    HW174688   5.781   0.617  10.091  1.8065 -0.5697  0.1557
23761SOL    HW274689   5.745   0.668   9.953  0.4401 -2.2498 -0.1368
23762SOL     OW74690   5.748   2.599   1.535  0.1109 -0.0049 -0.1184
23762SOL    HW174691   5.808   2.670   1.511  0.4892 -0.2669  0.0430
23762SOL    HW274692   5.722   2.562   1.451 -0.0420  0.2867 -0.2016
23763SOL     OW74693   1.982   9.381   1.176 -0.0464  0.3690  0.2607
23763SOL    HW174694   1.929   9.310   1.213  0.6115  0.5419  1.5495
23763SOL    HW274695   2.069   9.344   1.167  0.3354  1.0459  1.0769
23764SOL     OW74696   6.291   5.864   9.148  0.1286  0.3388 -0.1596
23764SOL    HW174697   6.295   5.772   9.120  0.7421 -0.9051  3.6526
23764SOL    HW274698   6.373   5.902   9.119  0.2786 -0.5969 -0.9871
23765SOL     OW74699   9.406   8.296  10.243  0.0600  0.5158  0.4076
23765SOL    HW174700   9.493   8.302  10.203 -0.3047  1.1425 -0.2924
23765SOL    HW274701   9.380   8.205  10.229  0.4502  0.4170  0.2968
23766SOL     OW74702   7.719   6.947   3.310 -0.0392 -0.2096  0.2597
23766SOL    HW174703   7.684   7.028   3.272  3.4698  1.7741  0.9750
23766SOL    HW274704   7.759   6.901   3.236  1.2483  0.5856  0.4368
23767SOL     OW74705   0.396   5.712   3.276  0.4108  0.4263  0.2091
23767SOL    HW174706   0.307   5.678   3.290  0.6805 -0.2238  0.3468
23767SOL    HW274707   0.452   5.635   3.278  1.0160  0.8698  0.3922
23768SOL     OW74708   1.971   2.079   1.182 -0.6884  0.2691 -0.2754
23768SOL    HW174709   2.063   2.096   1.163 -0.6826  0.4072 -0.1260
23768SOL    HW274710   1.972   2.026   1.262 -0.7019 -0.5685 -0.8294
23769SOL     OW74711   0.983   4.290   6.884 -0.4209  0.3911  0.1875
23769SOL    HW174712   1.024   4.290   6.970  0.5371 -0.2448 -0.2561
23769SOL    HW274713   1.043   4.239   6.829 -1.9813 -0.8582 -0.4043
23770SOL     OW74714   3.013   7.332   4.318  0.0348 -0.1349  0.1317
23770SOL    HW174715   3.022   7.427   4.316  0.0979 -0.1478 -0.3043
23770SOL    HW274716   3.057   7.302   4.239  0.7853 -0.5971  0.7154
23771SOL     OW74717   8.239   0.280   3.288 -0.1744  0.5940 -0.2919
23771SOL    HW174718   8.145   0.299   3.283 -0.0700  1.6798  1.5211
23771SOL    HW274719   8.257   0.276   3.382  2.1248  3.1101 -0.5922
23772SOL     OW74720   4.111   4.750   9.121 -0.5811  0.4755 -0.0589
23772SOL    HW174721   4.187   4.719   9.170 -0.7558  2.0588  1.2375
23772SOL    HW274722   4.144   4.825   9.071 -1.2083  0.9199  0.1956
23773SOL     OW74723   0.875   6.283   5.214  0.3395  0.2484 -0.4248
23773SOL    HW174724   0.812   6.278   5.286  0.8307  0.0834 -0.0057
23773SOL    HW274725   0.895   6.377   5.206  0.6218  0.2183 -0.0576
23774SOL     OW74726   4.531   2.279   8.206 -0.0163  0.2815 -0.2681
23774SOL    HW174727   4.618   2.288   8.166  0.2925  0.7359  0.4870
23774SOL    HW274728   4.475   2.338   8.156  0.4970  1.2870  0.3070
23775SOL     OW74729   0.066   7.126   4.413  0.0774 -0.2953 -0.6399
23775SOL    HW174730   0.120   7.098   4.338 -0.3251 -0.9315 -0.7000
23775SOL    HW274731   0.067   7.050   4.472  3.2044  1.3971  1.6104
23776SOL     OW74732   3.752   5.631   8.029  0.3979 -0.1454 -0.9517
23776SOL    HW174733   3.727   5.661   7.941 -1.1184  0.0144 -0.4860
23776SOL    HW274734   3.701   5.550   8.041  0.8928 -0.3704 -0.3656
23777SOL     OW74735   4.562   3.187   5.603  0.1908  0.7096 -0.4747
23777SOL    HW174736   4.481   3.202   5.554  0.2539 -0.0189 -0.8014
23777SOL    HW274737   4.546   3.228   5.688 -0.4047  0.8440 -0.6477
23778SOL     OW74738  10.904   4.178   8.391 -0.5138 -0.5331 -0.6726
23778SOL    HW174739  10.855   4.250   8.352  0.8106 -0.2294 -1.8238
23778SOL    HW274740  10.902   4.196   8.485  1.1159  1.8893 -1.0440
23779SOL     OW74741   8.074   1.854   0.806  0.8021  0.6418  0.2426
23779SOL    HW174742   8.121   1.771   0.809  1.0154  0.6365 -2.0604
23779SOL    HW274743   8.094   1.889   0.719 -0.9828  2.1026  0.4021
23780SOL     OW74744   7.647   0.258   0.288  0.0064  0.8391 -0.1445
23780SOL    HW174745   7.696   0.243   0.369  0.6011 -0.9807 -0.8297
23780SOL    HW274746   7.557   0.271   0.317  0.4173  1.4022  0.9061
23781SOL     OW74747   5.770   4.744   4.255  0.5043 -0.0818  0.3557
23781SOL    HW174748   5.747   4.652   4.260 -1.5242  0.3781 -0.2185
23781SOL    HW274749   5.812   4.754   4.169 -0.3027 -0.2557 -0.0635
23782SOL     OW74750   4.621   3.746   9.803 -0.4138  0.2150 -0.2353
23782SOL    HW174751   4.529   3.727   9.790  0.3571 -3.5530 -0.6556
23782SOL    HW274752   4.667   3.671   9.767  2.8317  1.8495  0.2694
23783SOL     OW74753   7.534  10.838   3.670 -0.1270 -1.4306  0.2790
23783SOL    HW174754   7.496  10.924   3.689 -0.4032 -1.7433  1.1659
23783SOL    HW274755   7.628  10.851   3.680 -0.1556 -1.1815  0.2330
23784SOL     OW74756   4.304   6.250   7.072  0.6566  0.8859  0.1722
23784SOL    HW174757   4.397   6.229   7.071  0.9821  2.1467  1.6975
23784SOL    HW274758   4.286   6.276   7.163 -1.3747 -0.2014  0.1238
23785SOL     OW74759   5.924   0.252   2.453  0.5226  0.2153  0.3032
23785SOL    HW174760   5.860   0.261   2.524  1.5086  0.8499  1.1131
23785SOL    HW274761   5.962   0.165   2.466  0.4709  0.1992  0.3471
23786SOL     OW74762   1.801   4.480   7.836  0.0795  1.0896 -0.3074
23786SOL    HW174763   1.799   4.469   7.931  2.9536 -0.1922 -0.3426
23786SOL    HW274764   1.791   4.391   7.801  2.6019  1.0416 -1.0666
23787SOL     OW74765   8.038   5.077   5.177 -0.3183 -0.1289 -0.4725
23787SOL    HW174766   8.108   5.142   5.179  1.1517 -1.5679 -2.3457
23787SOL    HW274767   8.031   5.053   5.084 -2.5054 -0.8487 -0.1362
23788SOL     OW74768   0.016   3.111   3.203  0.4386 -0.3694  0.2683
23788SOL    HW174769   0.083   3.115   3.134  1.0796 -1.5281  0.8114
23788SOL    HW274770  -0.067   3.113   3.156  0.8763 -0.8478 -0.5378
23789SOL     OW74771   1.786   5.393   6.213  0.1751  0.2422 -0.0532
23789SOL    HW174772   1.717   5.458   6.228 -0.2054 -0.0410 -0.5532
23789SOL    HW274773   1.863   5.445   6.190  0.1825  0.5674  0.7033
23790SOL     OW74774   5.164   1.149   2.013  0.3179 -0.4115 -0.5023
23790SOL    HW174775   5.086   1.192   2.048  0.7563 -0.6056  0.7336
23790SOL    HW274776   5.157   1.058   2.044  2.2528  0.1454  1.6975
23791SOL     OW74777   7.889   7.294   9.441  0.2574  0.1455 -1.1985
23791SOL    HW174778   7.832   7.369   9.459  0.4773  0.2307 -0.8385
23791SOL    HW274779   7.977   7.333   9.432  0.2505  0.0230 -1.8153
23792SOL     OW74780   0.878   5.970   9.976 -0.7651 -0.0829 -0.3287
23792SOL    HW174781   0.974   5.967   9.978 -0.7339  0.1876 -1.2134
23792SOL    HW274782   0.857   6.058   9.945 -1.2703 -0.7249 -1.8200
23793SOL     OW74783   9.727   0.205   6.137 -0.5743  0.5927  0.3320
23793SOL    HW174784   9.742   0.226   6.229  1.1759  0.6301  0.0516
23793SOL    HW274785   9.814   0.204   6.098 -1.0074 -2.4359 -0.6844
23794SOL     OW74786   4.205   0.746   4.042 -0.2769  0.1013  0.3869
23794SOL    HW174787   4.143   0.790   3.984 -0.1799  1.0225  0.9740
23794SOL    HW274788   4.281   0.728   3.987 -0.6668 -0.1291 -0.0796
23795SOL     OW74789   9.637  10.933   1.145 -0.4982 -0.5814 -0.0765
23795SOL    HW174790   9.613  11.026   1.137  2.4394  0.3178  0.9736
23795SOL    HW274791   9.623  10.898   1.058  0.1549  1.3245 -0.9868
23796SOL     OW74792   1.199   8.452   1.079  0.4671  0.4164 -0.3466
23796SOL    HW174793   1.138   8.418   1.145 -0.1860  1.7672 -0.2316
23796SOL    HW274794   1.284   8.416   1.104 -0.2277 -1.2811 -0.3576
23797SOL     OW74795   5.393   7.814   9.729  0.2086 -0.0533 -0.5354
23797SOL    HW174796   5.319   7.874   9.725  0.9946  0.9370 -0.1356
23797SOL    HW274797   5.411   7.792   9.637  0.1581  0.6104 -0.7041
23798SOL     OW74798   4.965   5.871   4.960 -0.4319 -0.5186  0.1444
23798SOL    HW174799   4.931   5.786   4.988 -0.4083  0.3560  3.0048
23798SOL    HW274800   4.899   5.934   4.988  0.4856  0.5996 -0.1613
23799SOL     OW74801   0.628   1.140   7.601  0.0316  0.1256  0.2686
23799SOL    HW174802   0.692   1.198   7.560  0.5219  0.4357  1.4267
23799SOL    HW274803   0.589   1.193   7.671 -0.7281 -0.4037  0.2540
23800SOL     OW74804   0.684   3.728   2.298  0.5067 -0.0547 -0.4824
23800SOL    HW174805   0.611   3.756   2.243 -1.0705 -1.8906  0.6170
23800SOL    HW274806   0.717   3.809   2.337 -1.4728  0.7258 -0.3737
23801SOL     OW74807   7.248   8.946   7.515  0.3530 -0.1976 -0.5093
23801SOL    HW174808   7.159   8.967   7.545  0.5903 -0.4340  0.3797
23801SOL    HW274809   7.236   8.906   7.429 -0.2400  1.8562 -1.4222
23802SOL     OW74810   6.557  10.278   6.186 -0.1738 -0.2129 -0.4861
23802SOL    HW174811   6.620  10.211   6.160 -0.1783 -0.7112  0.7990
23802SOL    HW274812   6.574  10.292   6.279 -1.2744  0.3974 -0.3784
23803SOL     OW74813   7.696   7.382   7.844  0.3592  0.4302  0.8974
23803SOL    HW174814   7.663   7.373   7.755  0.1844 -1.3848  1.1309
23803SOL    HW274815   7.766   7.318   7.852  0.6832  0.8859  1.9336
23804SOL     OW74816   3.669   2.802   2.337  0.1946 -0.0266  0.3739
23804SOL    HW174817   3.676   2.863   2.411  0.5068  0.6630 -0.2146
23804SOL    HW274818   3.580   2.768   2.342  0.4920 -0.6511  1.5835
23805SOL     OW74819   3.882   6.358   9.119 -0.3810 -0.3351 -0.0898
23805SOL    HW174820   3.814   6.388   9.059  1.5465  0.4936 -1.8890
23805SOL    HW274821   3.918   6.439   9.157  0.4116 -0.7068 -0.0407
23806SOL     OW74822   3.103   0.096   5.110  0.6235 -0.4217  0.3561
23806SOL    HW174823   3.099   0.050   5.026 -2.0520 -0.3098  0.3945
23806SOL    HW274824   3.125   0.186   5.087  0.4272 -0.5109 -0.1828
23807SOL     OW74825   9.693   0.382   5.863 -0.3332  0.3824 -0.6568
23807SOL    HW174826   9.680   0.299   5.910 -1.0303  0.6776 -0.3251
23807SOL    HW274827   9.640   0.445   5.911 -0.1801  0.9201 -1.1960
23808SOL     OW74828  10.668   5.122   6.609  0.1939 -0.0420  0.7349
23808SOL    HW174829  10.707   5.089   6.528 -0.6539 -1.0734  0.7285
23808SOL    HW274830  10.574   5.112   6.597 -0.1986  3.5667  0.2600
23809SOL     OW74831   1.094   4.353   1.193 -0.0572 -0.3885 -0.1524
23809SOL    HW174832   1.097   4.440   1.155 -0.6373 -0.4190 -0.2737
23809SOL    HW274833   1.005   4.345   1.227  0.3437 -0.4915  0.8924
23810SOL     OW74834   4.618   3.347   9.817 -0.2000  0.5215  0.1208
23810SOL    HW174835   4.575   3.275   9.772  0.5167  1.2457 -1.7861
23810SOL    HW274836   4.613   3.324   9.910 -0.0614 -1.9280 -0.4453
23811SOL     OW74837   8.735   0.662   4.650  0.1444  0.3164  0.8673
23811SOL    HW174838   8.802   0.694   4.589 -0.5574 -0.8080 -0.5195
23811SOL    HW274839   8.759   0.570   4.665 -2.1484 -0.6713 -1.1744
23812SOL     OW74840   4.480   2.581   4.425  0.2584  0.4740  0.3640
23812SOL    HW174841   4.402   2.609   4.377  0.9615  1.5875 -0.1478
23812SOL    HW274842   4.458   2.494   4.458 -0.5526  0.0417 -1.2650
23813SOL     OW74843   4.765   3.166   7.391  0.0617 -0.7338  0.5758
23813SOL    HW174844   4.782   3.111   7.314 -0.0107 -1.1381  0.8473
23813SOL    HW274845   4.671   3.186   7.387  0.4741  1.0996 -0.6608
23814SOL     OW74846   5.101   6.910   9.854  0.8757 -0.1644  0.4379
23814SOL    HW174847   5.126   6.996   9.888  0.0331 -0.1168  0.9476
23814SOL    HW274848   5.172   6.886   9.794  0.1001  1.8487 -1.3694
23815SOL     OW74849   4.004   1.229   0.831  0.0382 -0.1426 -0.3834
23815SOL    HW174850   3.942   1.159   0.849  0.3185 -0.4971 -0.7948
23815SOL    HW274851   4.087   1.184   0.815  0.5621  0.3510  0.8348
23816SOL     OW74852   7.642   1.721   7.067 -0.2926 -0.0643  0.4239
23816SOL    HW174853   7.713   1.768   7.111  0.6372 -1.1095  0.0734
23816SOL    HW274854   7.620   1.776   6.992 -0.7539  0.9142  1.2685
23817SOL     OW74855   4.203   2.697   0.370 -0.1066 -0.2497  0.1596
23817SOL    HW174856   4.252   2.779   0.373  1.8157 -1.3747  0.2765
23817SOL    HW274857   4.207   2.664   0.460 -0.5521 -0.6749  0.0261
23818SOL     OW74858   5.595   9.646   9.582 -0.5335  0.5897  0.6313
23818SOL    HW174859   5.609   9.583   9.512  0.2302  0.7360  0.6492
23818SOL    HW274860   5.662   9.626   9.647 -0.6938  1.0043  0.9315
23819SOL     OW74861   7.299   6.193   9.042  0.7628  0.3363  0.0287
23819SOL    HW174862   7.349   6.274   9.035  1.4141 -0.0447  0.2505
23819SOL    HW274863   7.296   6.175   9.136  0.6342  0.0953 -0.0211
23820SOL     OW74864   6.782   1.701   0.810  0.0139  0.2141 -0.1024
23820SOL    HW174865   6.740   1.751   0.879  0.5261 -1.2206  1.2856
23820SOL    HW274866   6.855   1.756   0.781 -1.8549  2.0260 -1.4417
23821SOL     OW74867   4.439   8.705   4.545  0.1599  0.2389 -0.2307
23821SOL    HW174868   4.505   8.655   4.593  0.5301 -0.1470 -1.1320
23821SOL    HW274869   4.487   8.781   4.511 -0.5904  1.6981  1.8809
23822SOL     OW74870   6.734  10.968   2.532  0.4403  0.3323 -0.1019
23822SOL    HW174871   6.789  11.046   2.541  0.2683  0.3195  1.1819
23822SOL    HW274872   6.646  10.999   2.553  0.2507 -0.0427 -0.3542
23823SOL     OW74873   7.254   2.529   8.686 -0.4640  0.4222  0.0052
23823SOL    HW174874   7.324   2.500   8.744 -0.4954 -0.6743 -0.5021
23823SOL    HW274875   7.196   2.454   8.678 -1.0521  0.9268 -0.5689
23824SOL     OW74876   4.167   6.022   5.089  0.0208  0.2035  0.2564
23824SOL    HW174877   4.129   5.975   5.014 -0.5364  0.8200  0.1473
23824SOL    HW274878   4.261   6.023   5.071 -0.0637 -0.0319 -0.2224
23825SOL     OW74879   7.776   6.075   7.604  0.0882 -0.1116 -0.3423
23825SOL    HW174880   7.777   6.106   7.513  0.7293  0.9455  0.0161
23825SOL    HW274881   7.801   5.983   7.599 -0.6609 -0.2685 -1.3126
23826SOL     OW74882   8.943   0.276   3.572 -0.1412 -0.5543 -0.2100
23826SOL    HW174883   8.933   0.313   3.659  0.9539 -0.2500 -0.2088
23826SOL    HW274884   9.011   0.209   3.581 -0.5958 -1.0901 -0.6626
23827SOL     OW74885   0.778   2.886   0.357 -0.3718  0.4003 -0.7790
23827SOL    HW174886   0.863   2.928   0.363 -0.2342  0.0927 -0.5657
23827SOL    HW274887   0.794   2.804   0.312 -0.1762 -0.6855  1.2290
23828SOL     OW74888   9.492   9.307   0.311  0.0555  0.2325 -0.3393
23828SOL    HW174889   9.492   9.239   0.243  0.3213  2.3720 -2.5125
23828SOL    HW274890   9.583   9.334   0.318 -0.4855  2.4623 -1.6259
23829SOL     OW74891   6.993  10.702   0.046 -0.1450  0.5397 -0.1990
23829SOL    HW174892   7.080  10.717   0.009 -0.3172  1.5979 -0.2099
23829SOL    HW274893   6.975  10.609   0.031 -0.1442  0.8915 -2.6167
23830SOL     OW74894   1.614   6.425   4.020 -0.2100  0.1358  0.0943
23830SOL    HW174895   1.640   6.419   3.928  1.1456  1.7042  0.3582
23830SOL    HW274896   1.689   6.391   4.068 -0.9191 -0.6847  0.6403
23831SOL     OW74897   6.206   9.881   3.230 -0.0272  0.3632 -0.1766
23831SOL    HW174898   6.136   9.818   3.216  0.8777 -0.3555 -1.5292
23831SOL    HW274899   6.171   9.941   3.297 -0.7600 -1.7493  1.3783
23832SOL     OW74900   3.934   6.108   0.629  0.6659 -0.0365 -0.3503
23832SOL    HW174901   4.009   6.048   0.619 -0.0080 -0.9462 -0.0026
23832SOL    HW274902   3.858   6.050   0.627  0.0734  0.6743  1.3932
23833SOL     OW74903   5.774   4.549   7.508 -0.2498  0.4457  0.0540
23833SOL    HW174904   5.772   4.473   7.450  1.4932 -0.2414  0.8583
23833SOL    HW274905   5.818   4.617   7.457  2.1084 -0.4327  0.8245
23834SOL     OW74906   9.944   3.379   9.515 -0.2237 -0.4004 -0.6972
23834SOL    HW174907   9.965   3.292   9.481  0.3220 -0.0849 -1.1825
23834SOL    HW274908   9.952   3.369   9.610  2.2432 -0.2969 -0.8552
23835SOL     OW74909   4.446   6.903   1.416 -0.1985 -0.0173 -0.1109
23835SOL    HW174910   4.466   6.891   1.509  0.1780  0.5869 -0.1087
23835SOL    HW274911   4.528   6.882   1.372 -0.4486 -0.5451 -0.3265
23836SOL     OW74912   8.548  10.637   4.936 -0.2148  0.7384 -0.2243
23836SOL    HW174913   8.525  10.567   4.875  2.8203 -2.2674  1.8610
23836SOL    HW274914   8.630  10.608   4.975 -1.3355  3.1786  4.2725
23837SOL     OW74915   6.237   9.152   4.765 -0.4965  0.3321  0.2587
23837SOL    HW174916   6.229   9.082   4.700  0.7254 -0.9030  1.4037
23837SOL    HW274917   6.153   9.151   4.812 -1.1830  0.8838 -0.9423
23838SOL     OW74918   9.092   5.697   6.463 -0.6409  0.3524  0.0371
23838SOL    HW174919   9.037   5.774   6.447 -2.1205 -0.7174 -0.0804
23838SOL    HW274920   9.096   5.653   6.379 -0.5417 -0.1951  0.3292
23839SOL     OW74921   3.489   7.749   5.800  0.9122 -0.0699 -0.3403
23839SOL    HW174922   3.561   7.774   5.742  0.9447  0.4132 -0.0982
23839SOL    HW274923   3.519   7.773   5.888  0.2561  0.6248 -0.2944
23840SOL     OW74924   8.237   2.451   4.813 -0.0061 -0.2225 -0.3004
23840SOL    HW174925   8.320   2.470   4.769 -0.2261  1.4824 -0.0266
23840SOL    HW274926   8.186   2.531   4.803 -1.1616 -0.8311  0.5878
23841SOL     OW74927   4.037   6.526   7.734  0.4518 -0.3701  0.3023
23841SOL    HW174928   4.084   6.452   7.695  0.5333 -0.9656  1.5098
23841SOL    HW274929   3.968   6.546   7.672 -0.0938 -2.0155  0.3496
23842SOL     OW74930   2.751   1.477   5.171 -0.3973 -0.1708 -0.3410
23842SOL    HW174931   2.677   1.475   5.110 -1.3357  2.0205  0.6669
23842SOL    HW274932   2.825   1.442   5.121 -2.0548 -2.2023 -1.4227
23843SOL     OW74933   9.209   0.124   8.203 -0.3356  0.7544  0.2911
23843SOL    HW174934   9.219   0.184   8.128 -0.7700  1.4686  0.7936
23843SOL    HW274935   9.152   0.171   8.263 -0.4546 -0.0631  0.8210
23844SOL     OW74936   7.698  10.292   5.450 -0.1329  0.6873  0.2133
23844SOL    HW174937   7.640  10.307   5.525 -0.3147 -0.4437  0.2994
23844SOL    HW274938   7.639  10.270   5.378 -0.0929  3.4936 -0.7379
23845SOL     OW74939   5.765   3.543   7.288 -0.3711  0.7895 -0.7296
23845SOL    HW174940   5.814   3.485   7.346  1.7836  0.4049 -2.8323
23845SOL    HW274941   5.800   3.631   7.306  0.3836  0.6543 -1.4831
23846SOL     OW74942   7.718   7.242   8.145 -0.6034  0.2659  0.0769
23846SOL    HW174943   7.763   7.244   8.230  0.9985 -1.2020 -0.7208
23846SOL    HW274944   7.730   7.331   8.110  1.8815 -0.1331 -0.1985
23847SOL     OW74945   0.214   1.323   0.017  0.1469  0.2930  0.5060
23847SOL    HW174946   0.139   1.283   0.059 -1.4946  4.1228  1.3852
23847SOL    HW274947   0.190   1.330  -0.075 -0.3335  0.9044  0.6733
23848SOL     OW74948   6.098   7.419   5.975 -0.2040 -0.1270  0.4893
23848SOL    HW174949   6.059   7.503   5.948  0.6541  0.3633  0.7731
23848SOL    HW274950   6.134   7.437   6.062 -0.2010 -0.8523  0.6347
23849SOL     OW74951   4.219   1.507   8.869  0.0665 -0.0060  0.1437
23849SOL    HW174952   4.285   1.458   8.820  1.6107  0.5494  1.6464
23849SOL    HW274953   4.170   1.555   8.801  1.8979  0.4189 -0.9173
23850SOL     OW74954   0.068   0.297   3.809 -0.1684  0.4397 -0.3242
23850SOL    HW174955  -0.006   0.264   3.756  0.2758 -3.9846  1.5845
23850SOL    HW274956   0.035   0.296   3.899  1.4209  0.8673  0.2708
23851SOL     OW74957   8.112   2.894   5.504  0.0684 -0.1806 -0.3350
23851SOL    HW174958   8.119   2.815   5.558  0.7677 -0.0592 -0.2441
23851SOL    HW274959   8.026   2.886   5.462  0.3946 -1.3066 -0.8255
23852SOL     OW74960   6.823   3.161  10.854  0.4139  0.3425  0.4858
23852SOL    HW174961   6.818   3.100  10.781  0.3793 -0.4734  1.1657
23852SOL    HW274962   6.907   3.142  10.896 -0.8686 -1.2271  2.4213
23853SOL     OW74963   8.586   4.514   6.063 -0.2031 -0.4597  0.4735
23853SOL    HW174964   8.598   4.591   6.009  0.5542 -0.8314  0.1058
23853SOL    HW274965   8.531   4.544   6.136 -1.0547  0.0867 -0.3817
23854SOL     OW74966  10.222   2.752   1.816 -0.1079 -0.6626  0.7031
23854SOL    HW174967  10.188   2.781   1.732  0.2540  0.1799  0.8426
23854SOL    HW274968  10.250   2.662   1.802  0.7515 -0.2418 -0.3048
23855SOL     OW74969   5.960   3.594   9.189  0.4207  0.5306  0.0092
23855SOL    HW174970   5.920   3.635   9.112 -1.3439 -3.9764 -1.6275
23855SOL    HW274971   6.050   3.575   9.162  0.2363  0.2759 -0.4285
23856SOL     OW74972   5.261   7.670   7.223  0.6746 -0.1366  0.2117
23856SOL    HW174973   5.334   7.729   7.205  1.2554 -0.9527 -0.1278
23856SOL    HW274974   5.183   7.722   7.204  1.1210  1.1286  1.7093
23857SOL     OW74975   5.973   5.282   5.388  0.0278 -0.1176  0.1380
23857SOL    HW174976   5.965   5.252   5.297 -0.1850  0.2696  0.0286
23857SOL    HW274977   6.052   5.238   5.420 -1.1569 -2.0720  0.4919
23858SOL     OW74978   4.762   4.172   9.519 -0.0722  0.1852 -0.2990
23858SOL    HW174979   4.764   4.258   9.560 -3.6015 -0.0435  0.5078
23858SOL    HW274980   4.782   4.189   9.427  0.5558  1.6805  0.1048
23859SOL     OW74981  10.786   2.677   8.681  0.2444  0.5080 -0.0947
23859SOL    HW174982  10.758   2.680   8.590  1.0191 -0.1192 -0.3620
23859SOL    HW274983  10.715   2.633   8.727  1.6758 -3.0738 -1.1413
23860SOL     OW74984   9.281   6.761   1.994  0.5333 -0.3789 -0.3932
23860SOL    HW174985   9.310   6.851   2.001 -2.1453  0.4773  0.2840
23860SOL    HW274986   9.318   6.717   2.071 -0.7457  0.9147  0.9937
23861SOL     OW74987  10.553   0.243  10.860  0.4545 -0.4986  0.0202
23861SOL    HW174988  10.551   0.321  10.804 -0.0729 -2.0557 -2.1659
23861SOL    HW274989  10.467   0.242  10.901  0.2338 -0.2925 -0.4332
23862SOL     OW74990   8.639   3.957   8.645 -0.4167  0.4273 -0.0044
23862SOL    HW174991   8.559   3.979   8.694 -0.4939  0.6153 -0.2143
23862SOL    HW274992   8.612   3.886   8.587 -0.5853  0.8852 -0.4963
23863SOL     OW74993   1.542   9.632   7.726  0.3143  0.5418  0.2250
23863SOL    HW174994   1.535   9.586   7.643  2.3391  1.5535 -0.5248
23863SOL    HW274995   1.476   9.590   7.782  1.3032 -2.4661 -0.7711
23864SOL     OW74996   1.816   3.574   5.434  0.1273 -0.2627  0.0464
23864SOL    HW174997   1.746   3.531   5.481  0.6763 -0.3764  0.7616
23864SOL    HW274998   1.834   3.653   5.484  0.4173 -0.1658 -0.2079
23865SOL     OW74999   9.514   1.981  10.047  0.2615 -0.1281  0.3853
23865SOL    HW175000   9.509   2.003  10.140  1.1427  1.1539  0.1554
23865SOL    HW275001   9.506   2.066  10.002  0.8192 -0.6167 -0.6590
23866SOL     OW75002   1.761   0.150   7.412  0.3962 -0.0341 -0.4122
23866SOL    HW175003   1.701   0.127   7.483 -0.2832  0.2131 -0.8963
23866SOL    HW275004   1.784   0.066   7.372 -0.7783 -0.0225 -1.1388
23867SOL     OW75005   9.929   6.321   0.470 -0.3529  0.1319  0.0669
23867SOL    HW175006   9.866   6.327   0.541  0.5318  1.4946  0.7595
23867SOL    HW275007   9.989   6.394   0.485  1.7488 -1.5051 -0.2178
23868SOL     OW75008   4.457   5.425   3.151 -0.4404 -0.4607 -0.2151
23868SOL    HW175009   4.370   5.460   3.172 -0.0143  0.9414 -0.7269
23868SOL    HW275010   4.472   5.358   3.218 -0.5827  1.5087  1.8571
23869SOL     OW75011   7.901   6.475   1.592  0.0374 -0.0089 -0.3069
23869SOL    HW175012   7.964   6.473   1.665 -1.0175 -0.3434  0.5988
23869SOL    HW275013   7.911   6.563   1.556  0.3535  0.2640  0.4269
23870SOL     OW75014   8.253   2.701   3.633 -0.7594 -0.3249 -0.0594
23870SOL    HW175015   8.272   2.769   3.698  1.4044 -0.3031 -0.6819
23870SOL    HW275016   8.219   2.748   3.557 -2.5218 -0.2786  0.7258
23871SOL     OW75017   0.550   4.614  10.610 -0.3500 -0.2114 -0.2288
23871SOL    HW175018   0.601   4.585  10.686 -0.6034 -2.1670 -0.7895
23871SOL    HW275019   0.509   4.696  10.639  1.5321  0.3629  0.8813
23872SOL     OW75020   7.920   7.482   9.992 -0.1902 -0.1734 -0.0623
23872SOL    HW175021   7.875   7.477  10.076 -0.7950  1.6537 -0.2510
23872SOL    HW275022   7.958   7.395   9.979 -2.5327 -1.3500  0.7331
23873SOL     OW75023   9.979   4.455   8.473  0.2053 -0.2999 -0.0193
23873SOL    HW175024   9.905   4.511   8.496 -0.2522  0.4762 -3.1052
23873SOL    HW275025   9.939   4.374   8.443  0.7796 -1.3004  1.8298
23874SOL     OW75026   0.325   9.738   4.762 -0.1550 -0.0543 -0.2607
23874SOL    HW175027   0.323   9.804   4.692 -0.2212 -0.6834 -0.8531
23874SOL    HW275028   0.348   9.657   4.718  2.1336 -0.0289  0.7976
23875SOL     OW75029   6.648   4.847   5.003 -0.2610  0.0331 -0.1871
23875SOL    HW175030   6.700   4.820   5.079 -0.9555  0.0683  0.3000
23875SOL    HW275031   6.677   4.788   4.933 -0.9706 -1.2634  0.5864
23876SOL     OW75032   1.684   4.114   1.436 -0.2893 -0.1576 -0.7013
23876SOL    HW175033   1.608   4.163   1.467 -0.3938 -1.0380  0.4532
23876SOL    HW275034   1.758   4.173   1.450 -0.1952 -0.9042  2.1943
23877SOL     OW75035   2.103   3.650   1.291 -0.2695 -0.0755 -0.5089
23877SOL    HW175036   2.156   3.570   1.294  0.3141  0.3783  2.5632
23877SOL    HW275037   2.166   3.721   1.291 -0.8301  0.4358 -1.2972
23878SOL     OW75038   8.922   1.003   2.148  0.0626 -0.2123 -1.2057
23878SOL    HW175039   8.961   0.993   2.235 -0.9621  0.6562 -0.6327
23878SOL    HW275040   8.970   1.075   2.108  0.1354 -0.2199 -1.1297
23879SOL     OW75041   4.267   3.133   8.136 -0.6228 -0.3201 -0.5712
23879SOL    HW175042   4.350   3.096   8.166 -1.6327 -1.0606  1.4280
23879SOL    HW275043   4.203   3.064   8.153 -2.0259  1.1432  0.2232
23880SOL     OW75044   4.923   1.795   9.934 -0.4967  0.3377 -0.0624
23880SOL    HW175045   4.867   1.753   9.869 -0.6256 -0.6026  0.6546
23880SOL    HW275046   4.888   1.884   9.942  0.1192  0.7731 -1.9906
23881SOL     OW75047  10.609   1.308   2.561 -0.2818 -0.5688 -0.6677
23881SOL    HW175048  10.522   1.339   2.534 -1.0127 -0.8166  1.3289
23881SOL    HW275049  10.592   1.224   2.605  0.6699  0.5134  1.8582
23882SOL     OW75050   6.793   9.099   2.162  0.3061 -0.5031 -0.0808
23882SOL    HW175051   6.731   9.042   2.117  1.0250 -0.4310 -1.1552
23882SOL    HW275052   6.840   9.145   2.092 -0.9223  2.1296  0.7509
23883SOL     OW75053   5.345   2.678   9.218  0.3728  0.1350  0.0759
23883SOL    HW175054   5.295   2.750   9.256  1.0870  0.2641  0.7814
23883SOL    HW275055   5.430   2.682   9.263 -0.0866 -2.0563  1.1874
23884SOL     OW75056  10.612   1.114   9.193 -0.3691 -0.0483  0.1405
23884SOL    HW175057  10.695   1.104   9.147 -0.0444 -1.6580  1.0542
23884SOL    HW275058  10.600   1.031   9.240 -2.0825  0.4779  0.6752
23885SOL     OW75059   6.987  10.673  10.644 -0.4591 -0.4581 -0.1640
23885SOL    HW175060   6.938  10.592  10.629  2.0393 -2.1419  0.5173
23885SOL    HW275061   6.922  10.734  10.680 -2.2128 -2.3597 -0.0320
23886SOL     OW75062  10.492   8.387   6.494 -0.3898  0.4273 -0.2882
23886SOL    HW175063  10.531   8.451   6.553 -0.1411  0.7011 -0.7434
23886SOL    HW275064  10.409   8.426   6.467  0.2099  1.0244 -1.3446
23887SOL     OW75065  10.075   6.586   1.777 -0.2109  0.3884  0.3505
23887SOL    HW175066  10.070   6.676   1.743  0.5444  0.3220  0.0503
23887SOL    HW275067  10.169   6.567   1.780 -0.3613 -0.3267  0.5897
23888SOL     OW75068   9.279   6.233   1.368  0.0260 -0.2076 -0.0943
23888SOL    HW175069   9.256   6.142   1.388  0.6330 -0.0507  1.4208
23888SOL    HW275070   9.340   6.227   1.294  0.8571 -1.1119  0.6480
23889SOL     OW75071   0.547  10.937   2.335 -0.2068  0.7072  0.0516
23889SOL    HW175072   0.564  10.845   2.354 -1.6214 -0.1550 -2.6017
23889SOL    HW275073   0.451  10.944   2.333 -0.1217  2.2498  0.2662
23890SOL     OW75074   4.397   4.728   5.271 -0.2334  0.4237  0.3728
23890SOL    HW175075   4.410   4.640   5.305  2.2816  0.3039 -0.7899
23890SOL    HW275076   4.330   4.718   5.203  0.2715 -0.6512  0.0296
23891SOL     OW75077   9.956   7.317  10.301  0.5881  0.3863  0.4287
23891SOL    HW175078  10.036   7.278  10.266  0.3808  0.6621 -0.3724
23891SOL    HW275079   9.917   7.248  10.354  0.9450 -0.0156  0.1763
23892SOL     OW75080   9.529   9.421   2.961  0.7112 -1.1850 -0.4732
23892SOL    HW175081   9.614   9.383   2.940  0.3383 -1.8676 -0.7954
23892SOL    HW275082   9.478   9.413   2.880  0.3379 -0.7922 -0.2825
23893SOL     OW75083   4.101   4.982   6.555  0.0764 -0.3185 -0.0223
23893SOL    HW175084   4.127   4.908   6.501  0.9991  0.9425 -1.3670
23893SOL    HW275085   4.036   4.947   6.615 -0.0101 -2.0539 -1.0991
23894SOL     OW75086  10.000   2.453  10.842  0.2303 -0.1078  0.0065
23894SOL    HW175087   9.951   2.480  10.920  0.1671  2.8560 -1.0295
23894SOL    HW275088  10.084   2.498  10.850  1.3511 -2.0848 -0.2208
23895SOL     OW75089   8.494   5.291   9.537 -0.2214 -0.1289  0.5216
23895SOL    HW175090   8.485   5.376   9.581  0.5833  0.9046 -1.2271
23895SOL    HW275091   8.587   5.285   9.515 -0.8523  0.2285 -2.5356
23896SOL     OW75092   1.140   8.559   7.730  0.4154  0.0049  0.5785
23896SOL    HW175093   1.093   8.479   7.755 -0.6195 -0.3575 -2.3278
23896SOL    HW275094   1.233   8.536   7.741  0.0798 -1.0537  1.2738
23897SOL     OW75095   1.856   9.124   9.235  0.1463 -0.1036 -0.4296
23897SOL    HW175096   1.821   9.060   9.298  0.2634 -0.7242 -0.9913
23897SOL    HW275097   1.937   9.084   9.204 -0.3019 -0.1427 -1.5441
23898SOL     OW75098   7.651   5.111   2.674 -0.2731  0.1347  0.4662
23898SOL    HW175099   7.676   5.187   2.726  2.0239 -2.5542  3.4722
23898SOL    HW275100   7.732   5.081   2.633 -1.2067 -0.5236 -0.9546
23899SOL     OW75101   2.431   8.513   5.375 -0.5650  0.3716  0.0603
23899SOL    HW175102   2.481   8.568   5.315  2.2076 -0.8824  1.1554
23899SOL    HW275103   2.427   8.428   5.332 -1.6971  0.4397  0.0263
23900SOL     OW75104   4.698   0.872  10.660 -0.4797  0.0411  0.6174
23900SOL    HW175105   4.709   0.837  10.572 -0.4471 -1.1954  1.0979
23900SOL    HW275106   4.605   0.858  10.680 -0.2974 -0.4794  1.1104
23901SOL     OW75107   6.371   1.231   9.720 -0.1720 -0.1593  0.2238
23901SOL    HW175108   6.314   1.173   9.670  1.3140 -0.0155 -1.7331
23901SOL    HW275109   6.395   1.300   9.658  1.8070 -0.0224  1.0900
23902SOL     OW75110   7.540   3.366   1.214  0.1808  0.5092  0.0672
23902SOL    HW175111   7.587   3.298   1.262 -1.2124  1.2991  2.6919
23902SOL    HW275112   7.559   3.447   1.263  1.1958  1.9097 -2.5494
23903SOL     OW75113   0.805   8.363   4.751 -0.3134  0.5265 -0.0570
23903SOL    HW175114   0.893   8.338   4.778  0.0948  0.2012 -1.6282
23903SOL    HW275115   0.805   8.353   4.655 -2.2743 -0.2074 -0.0166
23904SOL     OW75116   6.776  10.438   6.711  0.2279  0.0951 -0.0288
23904SOL    HW175117   6.815  10.525   6.702  1.3253 -0.4907 -1.0999
23904SOL    HW275118   6.775  10.423   6.806  2.7336  0.1119  0.0516
23905SOL     OW75119   2.412   7.234   7.017 -0.1688 -0.0871 -0.8908
23905SOL    HW175120   2.409   7.140   7.033 -1.0532 -0.0506 -0.7746
23905SOL    HW275121   2.320   7.260   7.013  0.0715  0.8629 -0.3980
23906SOL     OW75122   8.504   7.901   5.367  0.4316 -0.8420 -0.0851
23906SOL    HW175123   8.504   7.871   5.458 -2.5207  0.2998  0.3133
23906SOL    HW275124   8.542   7.989   5.370 -0.5423 -0.4346  0.1611
23907SOL     OW75125   8.146   9.761   5.872 -0.5313  0.1192 -0.0171
23907SOL    HW175126   8.080   9.802   5.816 -0.2217 -0.5941 -0.9158
23907SOL    HW275127   8.211   9.830   5.887 -1.2073  0.6673  0.4442
23908SOL     OW75128   5.918   6.838  10.176  0.2988  0.2174 -0.7162
23908SOL    HW175129   5.829   6.804  10.181  0.2974 -0.1224 -2.6446
23908SOL    HW275130   5.938   6.867  10.265 -1.7169  0.2700 -0.2644
23909SOL     OW75131   1.677   9.174   2.520  0.5632  0.3655 -0.4589
23909SOL    HW175132   1.629   9.097   2.549  0.9435  0.0832 -0.5709
23909SOL    HW275133   1.617   9.220   2.461 -0.2753  1.0193  0.8775
23910SOL     OW75134   0.649   0.036   6.675 -0.3916  0.0922 -0.3018
23910SOL    HW175135   0.678  -0.041   6.725 -1.7793  0.1385  0.5875
23910SOL    HW275136   0.667   0.110   6.732 -0.6897  0.2679 -0.4338
23911SOL     OW75137   1.501   7.628  10.131 -0.7427 -0.3169 -0.2727
23911SOL    HW175138   1.422   7.580  10.106  0.2159 -2.5363  0.9117
23911SOL    HW275139   1.573   7.568  10.112  0.3808  0.0018  2.6980
23912SOL     OW75140   3.838   5.161   6.120 -0.6123  0.4991 -0.1733
23912SOL    HW175141   3.819   5.088   6.061  0.7971 -0.9867  1.1441
23912SOL    HW275142   3.753   5.187   6.155 -0.9755 -1.6932  0.6526
23913SOL     OW75143   6.972   6.208   0.349  0.0528  0.5771  0.3795
23913SOL    HW175144   6.909   6.260   0.299 -0.1455 -1.9529 -2.1220
23913SOL    HW275145   7.055   6.255   0.340 -0.1354  0.5363 -1.8077
23914SOL     OW75146   7.328   2.585   7.751  0.2786 -0.2005  0.0613
23914SOL    HW175147   7.283   2.535   7.818 -1.0649 -0.3889 -0.9627
23914SOL    HW275148   7.301   2.676   7.765 -0.7066 -0.3534 -0.7444
23915SOL     OW75149   1.399   7.888   7.055 -0.2061 -0.0665 -0.6146
23915SOL    HW175150   1.421   7.828   7.126 -0.8208 -0.7941 -1.0247
23915SOL    HW275151   1.440   7.850   6.977 -0.7623 -0.0645 -0.9122
23916SOL     OW75152   9.376   3.347   9.680 -0.2832 -0.2220 -0.4111
23916SOL    HW175153   9.464   3.351   9.642  0.3649  1.4449  1.1545
23916SOL    HW275154   9.389   3.304   9.765 -0.7951  0.9036  0.2461
23917SOL     OW75155   4.499   1.508   8.326 -0.8366  0.0335  0.1128
23917SOL    HW175156   4.509   1.435   8.388  1.0374  0.7499  0.6891
23917SOL    HW275157   4.550   1.481   8.249  1.7578  1.6239  1.1811
23918SOL     OW75158   7.619   0.813   2.784  0.2124 -0.8707  0.2059
23918SOL    HW175159   7.647   0.894   2.827 -0.0952 -1.2800  1.2012
23918SOL    HW275160   7.699   0.775   2.749  0.3383 -0.0652 -0.4051
23919SOL     OW75161   6.759   7.974   2.207  0.2254 -0.6234  0.3376
23919SOL    HW175162   6.692   8.043   2.214  2.7673  2.0036 -0.3160
23919SOL    HW275163   6.737   7.912   2.277 -1.1159  1.7657  2.1127
23920SOL     OW75164  10.659   4.580   3.345  0.2577 -0.1850  0.3631
23920SOL    HW175165  10.574   4.621   3.363  1.2561  1.9159  0.5070
23920SOL    HW275166  10.714   4.652   3.312  1.7160 -1.6930 -0.6114
23921SOL     OW75167   5.972   6.334   4.525  0.3524  0.2269 -0.2698
23921SOL    HW175168   5.963   6.351   4.431  0.8487 -1.3963 -0.6306
23921SOL    HW275169   6.045   6.272   4.531  0.9561  1.0661  1.2742
23922SOL     OW75170   2.818  10.368   5.662 -0.2561  0.3556 -0.1386
23922SOL    HW175171   2.728  10.401   5.652 -1.0586 -1.7407  0.0060
23922SOL    HW275172   2.807  10.281   5.698  1.6803 -1.4278 -3.6183
23923SOL     OW75173   9.460   2.150   2.441 -0.2121 -0.9763 -0.0338
23923SOL    HW175174   9.434   2.187   2.526  0.7526 -1.1172  0.3285
23923SOL    HW275175   9.397   2.079   2.426 -1.9871  0.6747 -0.6715
23924SOL     OW75176   4.968   7.704   6.937  0.0543  0.2351  0.2246
23924SOL    HW175177   4.991   7.611   6.936 -0.1594  0.1761  0.9938
23924SOL    HW275178   4.890   7.711   6.882  1.1625  0.2526 -1.4129
23925SOL     OW75179  10.568   5.122   3.302 -0.3432  0.6509  0.0892
23925SOL    HW175180  10.474   5.106   3.294 -0.2189  0.1931 -0.4791
23925SOL    HW275181  10.607   5.077   3.227  0.4168  0.0229  0.8421
23926SOL     OW75182   5.817   4.315   7.335 -0.5654  0.0489  0.0830
23926SOL    HW175183   5.825   4.232   7.288  0.7975 -0.5261  1.2990
23926SOL    HW275184   5.759   4.295   7.409 -1.5424  0.5959 -0.5197
23927SOL     OW75185   3.799   7.029   0.324 -0.4941 -0.1941  0.0358
23927SOL    HW175186   3.813   7.095   0.392 -0.3022  1.2658 -1.4021
23927SOL    HW275187   3.780   6.949   0.373  0.3954  0.6466  1.8299
23928SOL     OW75188   1.011   1.968   1.625 -0.1032  0.0345 -0.3042
23928SOL    HW175189   0.979   2.057   1.614  1.3438  0.4004 -1.6616
23928SOL    HW275190   1.105   1.974   1.610  0.2683 -1.4476  1.2102
23929SOL     OW75191   0.691  10.189  10.690 -0.1699 -0.0417  0.3943
23929SOL    HW175192   0.767  10.134  10.711  0.1352  0.5310  0.7974
23929SOL    HW275193   0.649  10.143  10.617  1.1767  0.1856 -0.5523
23930SOL     OW75194   1.269   2.611   6.320  0.1425 -0.3023 -0.4312
23930SOL    HW175195   1.285   2.541   6.383 -1.5147 -1.6502 -1.4637
23930SOL    HW275196   1.220   2.676   6.370 -0.0665 -0.7954  0.0122
23931SOL     OW75197   5.486   3.444   0.300  0.4628  0.1695 -0.1137
23931SOL    HW175198   5.524   3.402   0.223  0.3892  1.0296 -0.6254
23931SOL    HW275199   5.534   3.526   0.309  1.7145 -0.7381  1.8329
23932SOL     OW75200   9.077   0.244   4.095 -0.0586 -0.1881  0.1352
23932SOL    HW175201   9.119   0.171   4.049  0.6892  0.8690 -0.9013
23932SOL    HW275202   8.984   0.236   4.072  0.1293 -0.3746 -0.5972
23933SOL     OW75203   9.627   6.749   2.211  0.2150 -0.3460  0.8121
23933SOL    HW175204   9.614   6.843   2.209  2.1860 -0.0240  2.1175
23933SOL    HW275205   9.699   6.734   2.149  0.6410 -0.8563  1.4237
23934SOL     OW75206   5.675   6.898   6.737 -0.2344  0.0248 -0.2447
23934SOL    HW175207   5.592   6.866   6.771  1.9091 -4.1826  1.4177
23934SOL    HW275208   5.687   6.853   6.654  0.2786  0.7247 -0.5563
23935SOL     OW75209   0.444   9.423   2.195  0.0927 -0.0956 -0.0296
23935SOL    HW175210   0.512   9.491   2.194  0.7981 -0.7671  0.8344
23935SOL    HW275211   0.458   9.375   2.113 -0.2102  0.6112 -0.4955
23936SOL     OW75212   1.055   7.930   5.883  0.1218  0.5584  0.0086
23936SOL    HW175213   1.062   7.882   5.965  3.3159  1.0467  0.1014
23936SOL    HW275214   1.051   7.862   5.816 -0.1807  0.1568  0.4376
23937SOL     OW75215   5.552  10.241   9.068  0.4723  0.2851  0.2056
23937SOL    HW175216   5.624  10.179   9.057  1.5069  1.2395  1.4092
23937SOL    HW275217   5.595  10.323   9.094 -1.1369  0.6019  1.9599
23938SOL     OW75218   2.842   1.579   3.601  0.6362  0.3470  0.8701
23938SOL    HW175219   2.861   1.551   3.512 -0.8349  0.0770  0.6249
23938SOL    HW275220   2.898   1.525   3.656  0.0435 -0.9463  0.2219
23939SOL     OW75221   5.067   7.889   4.803 -0.3122 -0.0337 -0.1907
23939SOL    HW175222   4.983   7.914   4.765 -0.1929 -1.4056 -1.3878
23939SOL    HW275223   5.053   7.800   4.836 -0.0263  0.6246  1.7906
23940SOL     OW75224   5.281   5.620  10.479 -0.7533  0.6025 -0.2763
23940SOL    HW175225   5.298   5.628  10.573  0.4987  0.3915 -0.4791
23940SOL    HW275226   5.337   5.686  10.439 -0.0690 -0.4041 -0.9920
23941SOL     OW75227  10.047   7.327   2.850  0.1571  0.2740  0.6982
23941SOL    HW175228  10.124   7.345   2.797  0.3099  0.9719  1.1503
23941SOL    HW275229  10.026   7.235   2.833  0.8025  0.2192  0.2138
23942SOL     OW75230   4.898   1.727   9.333  0.9824  0.0762  0.0164
23942SOL    HW175231   4.846   1.710   9.255  1.3732  1.6254 -0.6085
23942SOL    HW275232   4.981   1.682   9.318  0.2443 -1.4900  0.5353
23943SOL     OW75233   5.263   0.810   4.802 -0.1382 -0.5166  0.1581
23943SOL    HW175234   5.287   0.824   4.894 -1.3265 -0.7722  0.5185
23943SOL    HW275235   5.279   0.895   4.760 -0.4967 -0.1190  0.8088
23944SOL     OW75236   3.023   1.038   3.158  0.5567  0.8834  0.0396
23944SOL    HW175237   2.931   1.052   3.140  0.8628  2.1462 -0.6010
23944SOL    HW275238   3.064   1.029   3.072  1.0853  0.7543  0.3008
23945SOL     OW75239   0.718   3.282   0.984 -0.5098  0.2307 -0.0583
23945SOL    HW175240   0.748   3.373   0.985  0.8482 -0.1558 -1.6530
23945SOL    HW275241   0.624   3.288   0.972 -0.5823  1.4403  0.9853
23946SOL     OW75242   9.887   0.282   7.186 -0.2905  0.6286 -0.4083
23946SOL    HW175243   9.906   0.241   7.101 -0.2865  0.1719 -0.1841
23946SOL    HW275244   9.966   0.333   7.205  0.3990 -0.6088  0.1201
23947SOL     OW75245   3.910   1.913   3.859  0.0141  0.8097  0.1347
23947SOL    HW175246   3.848   1.937   3.927  0.2384  1.0420  0.2570
23947SOL    HW275247   3.991   1.959   3.882  0.5489 -0.3471  0.5661
23948SOL     OW75248   8.638   2.159   0.012  0.0536  0.1268  0.7502
23948SOL    HW175249   8.694   2.119  -0.054 -0.7546  0.3623 -0.0899
23948SOL    HW275250   8.662   2.252   0.011  2.1509 -0.3358  2.9203
23949SOL     OW75251   9.527   2.530   4.828  0.1220 -0.1318  0.3138
23949SOL    HW175252   9.433   2.529   4.808  0.4053 -0.3385 -1.0962
23949SOL    HW275253   9.569   2.517   4.743  1.4045 -1.4501  1.1352
23950SOL     OW75254   1.868   0.794   5.259  0.8838  0.4357  0.2916
23950SOL    HW175255   1.893   0.819   5.170  0.7189  1.9880  0.6620
23950SOL    HW275256   1.776   0.767   5.252  1.2139 -0.5849 -0.2067
23951SOL     OW75257   4.232  10.418   9.439  0.3920 -0.3316  0.4085
23951SOL    HW175258   4.199  10.329   9.427 -1.2980  0.3640 -0.1997
23951SOL    HW275259   4.196  10.468   9.366  1.1514  0.9130  0.8621
23952SOL     OW75260   7.066   2.067   0.876  0.1384  0.0434  0.2514
23952SOL    HW175261   7.019   2.150   0.871 -0.8187 -0.5885 -1.4017
23952SOL    HW275262   7.157   2.092   0.890 -0.1105  1.3780 -0.4404
23953SOL     OW75263   9.818   3.546   4.414 -0.9311 -0.1683 -0.3521
23953SOL    HW175264   9.832   3.484   4.485  1.8956  0.6171 -0.1728
23953SOL    HW275265   9.869   3.511   4.341 -2.7101 -0.2373 -1.6149
23954SOL     OW75266   4.847   6.121   4.997  0.3708  0.3015  0.6056
23954SOL    HW175267   4.847   6.140   4.903 -1.5691  1.0317  0.7243
23954SOL    HW275268   4.779   6.178   5.033 -0.7270 -1.8697  2.0684
23955SOL     OW75269   9.512   1.860   8.470 -0.1574 -0.2737  0.2848
23955SOL    HW175270   9.448   1.926   8.442 -0.3434 -1.1765 -1.4881
23955SOL    HW275271   9.521   1.802   8.394  2.1022 -0.6694  0.8401
23956SOL     OW75272   1.432   9.029   9.284 -0.0527 -0.1760  0.2749
23956SOL    HW175273   1.424   8.940   9.318  0.7949 -0.2568  0.2673
23956SOL    HW275274   1.441   9.083   9.363 -1.6932  0.0389  0.3399
23957SOL     OW75275   0.870   9.541   5.404 -0.0770  0.4071 -0.3429
23957SOL    HW175276   0.890   9.460   5.451  1.8750  0.6362 -0.7196
23957SOL    HW275277   0.927   9.606   5.444  1.1020  0.7722 -2.5291
23958SOL     OW75278   5.439   2.366   8.607  0.8392 -0.1896  0.0455
23958SOL    HW175279   5.464   2.452   8.572 -1.6205  0.0255 -1.3032
23958SOL    HW275280   5.426   2.382   8.701  2.1683  0.4687  0.1408
23959SOL     OW75281   7.751   9.548   5.891 -0.0006  0.8588  0.0151
23959SOL    HW175282   7.812   9.568   5.821  1.5599 -3.0703  0.1297
23959SOL    HW275283   7.801   9.564   5.971  0.4831 -0.9406  0.1123
23960SOL     OW75284   0.117   0.360   1.011 -0.0162 -0.3058  0.4680
23960SOL    HW175285   0.184   0.370   1.079  1.1383 -1.2914 -0.5066
23960SOL    HW275286   0.042   0.409   1.044  0.9953  0.3514  1.8319
23961SOL     OW75287   3.886   0.794   6.292 -0.4449  0.0310  0.1607
23961SOL    HW175288   3.839   0.795   6.208 -3.9365 -0.4089  2.0073
23961SOL    HW275289   3.889   0.702   6.317  0.5791  0.1646  0.5554
23962SOL     OW75290   0.655  10.294   7.715 -0.0667  0.0089 -0.3219
23962SOL    HW175291   0.561  10.297   7.732 -0.2874 -0.5097 -1.4124
23962SOL    HW275292   0.695  10.332   7.793 -1.1632 -0.1447  0.3211
23963SOL     OW75293   5.674   7.961   3.993  0.1101 -0.0934 -0.6589
23963SOL    HW175294   5.721   7.878   3.982  1.3931  0.2315  1.9633
23963SOL    HW275295   5.726   8.024   3.942 -1.0249 -0.9128 -2.8868
23964SOL     OW75296   7.852   4.698   6.626 -0.0261  0.0189  0.6858
23964SOL    HW175297   7.924   4.652   6.583  0.1346  1.5396 -0.6807
23964SOL    HW275298   7.814   4.632   6.684  1.8277 -1.0965  0.6882
23965SOL     OW75299   9.694   5.549   3.873 -0.0497  0.3764  0.5193
23965SOL    HW175300   9.730   5.634   3.845  0.2083  0.2697  0.5214
23965SOL    HW275301   9.680   5.559   3.967 -1.3775  0.8999  0.2689
23966SOL     OW75302   0.372   5.559   7.892 -0.1535 -0.4533 -0.7616
23966SOL    HW175303   0.318   5.536   7.817 -0.7410 -1.8935  0.0674
23966SOL    HW275304   0.455   5.590   7.855 -0.1374 -1.9234 -2.0006
23967SOL     OW75305   2.787   0.192   3.264 -0.4783  0.8244 -0.2656
23967SOL    HW175306   2.720   0.245   3.305 -0.1790 -0.4639  1.9686
23967SOL    HW275307   2.776   0.105   3.302  0.7021 -0.0787 -1.9122
23968SOL     OW75308   1.516   1.382   4.203  0.2883  0.1745  0.2229
23968SOL    HW175309   1.600   1.357   4.241  0.8464 -0.0669 -1.1654
23968SOL    HW275310   1.522   1.477   4.192  1.0976 -0.0694 -1.5778
23969SOL     OW75311   6.996   5.789  10.327 -0.0222 -0.1911  0.2564
23969SOL    HW175312   6.904   5.817  10.331  0.0233  0.1575 -0.8926
23969SOL    HW275313   6.996   5.713  10.269  0.5656  0.5436 -0.7409
23970SOL     OW75314   5.960   9.006   2.585 -0.3982  0.1500  0.4726
23970SOL    HW175315   5.978   9.099   2.573 -1.4552  0.5955  2.1486
23970SOL    HW275316   5.976   8.967   2.499  1.3370  1.6653  0.0761
23971SOL     OW75317   5.464   9.642   0.834 -0.1535 -0.0252  0.4165
23971SOL    HW175318   5.500   9.569   0.885  2.0467 -0.0681 -1.1330
23971SOL    HW275319   5.417   9.600   0.762  0.4483  0.0700 -0.0353
23972SOL     OW75320   5.159   3.345   6.192  0.5740  0.1844  0.0775
23972SOL    HW175321   5.101   3.302   6.129 -0.2336  0.5437  0.5642
23972SOL    HW275322   5.244   3.304   6.178 -0.3955 -2.3025  1.2107
23973SOL     OW75323   0.752  10.398   2.672  0.4153  0.1047  0.4579
23973SOL    HW175324   0.811  10.472   2.691  0.1889  0.6839 -1.0253
23973SOL    HW275325   0.668  10.425   2.710  0.3497  0.5890 -0.0178
23974SOL     OW75326   2.589   3.370   2.721  0.1183  0.2327 -0.6368
23974SOL    HW175327   2.626   3.283   2.724  1.0217  0.5391 -2.0919
23974SOL    HW275328   2.516   3.363   2.658  0.6372  0.6683 -1.3003
23975SOL     OW75329   3.580   9.537  10.352  0.6086 -0.1061  0.2815
23975SOL    HW175330   3.491   9.518  10.321 -0.2495  0.8805  2.1056
23975SOL    HW275331   3.591   9.630  10.335  0.2822  0.3560  2.5184
23976SOL     OW75332   0.724   7.904   3.848  0.5332  0.4984  0.4346
23976SOL    HW175333   0.750   7.911   3.940  2.4533  1.5219 -0.1520
23976SOL    HW275334   0.761   7.821   3.818  1.1997  0.8667  0.2127
23977SOL     OW75335   1.925   6.752   4.297  0.0068  0.4718 -0.2203
23977SOL    HW175336   1.906   6.843   4.320  0.6379  0.1566  1.6432
23977SOL    HW275337   2.019   6.750   4.283  0.2982 -0.2728  1.6719
23978SOL     OW75338   7.544   2.967   1.170  0.0844  0.1043 -0.1908
23978SOL    HW175339   7.546   2.988   1.263 -0.0192  0.5906 -0.2986
23978SOL    HW275340   7.619   3.014   1.132  1.1283 -1.4422 -0.0744
23979SOL     OW75341   6.499   9.069   9.762  0.4180 -0.3861  0.5365
23979SOL    HW175342   6.563   9.019   9.813  0.6624 -0.9665 -0.3433
23979SOL    HW275343   6.460   9.005   9.703 -0.3944  0.1422  0.4957
23980SOL     OW75344   9.513   2.550   2.855 -0.5385  0.6263  0.2380
23980SOL    HW175345   9.432   2.503   2.839 -0.9014  1.8444 -1.6014
23980SOL    HW275346   9.552   2.561   2.769  0.8397  1.3854  0.9434
23981SOL     OW75347   3.577   3.060   2.511 -0.1588  0.4901 -0.3782
23981SOL    HW175348   3.628   3.044   2.590  2.4073  0.6674 -1.9505
23981SOL    HW275349   3.640   3.095   2.448 -1.8714 -0.7538 -2.8819
23982SOL     OW75350   8.498   4.883   0.023  0.1183  0.2053 -0.2893
23982SOL    HW175351   8.565   4.943  -0.010  0.5358 -0.0185  0.1285
23982SOL    HW275352   8.474   4.919   0.109 -1.3790  1.1085 -1.0762
23983SOL     OW75353   9.305   1.934   2.420  0.5300  0.3899 -0.8696
23983SOL    HW175354   9.342   1.850   2.396 -0.9671 -0.4290 -0.3661
23983SOL    HW275355   9.216   1.934   2.384  0.1010  1.2630  0.1114
23984SOL     OW75356   2.760   1.503   5.964 -0.1523 -0.4951 -0.7666
23984SOL    HW175357   2.714   1.543   6.038 -0.8970 -2.2023 -0.2590
23984SOL    HW275358   2.823   1.443   6.005  1.7948  1.0194 -1.4805
23985SOL     OW75359   3.397   1.664   8.540  0.2429 -0.8332 -0.1348
23985SOL    HW175360   3.481   1.690   8.503 -0.4268 -1.0226 -1.8136
23985SOL    HW275361   3.420   1.609   8.615  1.6125 -0.5203 -0.3136
23986SOL     OW75362   6.339   9.401   3.480  0.6494  0.2449  0.2910
23986SOL    HW175363   6.428   9.407   3.514  0.0363  0.6213  1.8852
23986SOL    HW275364   6.286   9.449   3.544 -0.9093 -1.3219  0.2209
23987SOL     OW75365   9.787   0.332   7.474 -0.2957  0.1208 -0.4282
23987SOL    HW175366   9.721   0.398   7.454 -1.1815 -0.7617 -0.4913
23987SOL    HW275367   9.782   0.271   7.400 -0.9939 -1.1545  0.6451
23988SOL     OW75368   0.310   8.027   9.175  0.4374 -0.3494  0.0810
23988SOL    HW175369   0.217   8.042   9.159  0.6173  2.0822  1.0682
23988SOL    HW275370   0.314   7.942   9.218 -1.2292 -0.8645 -0.7268
23989SOL     OW75371   4.754   1.343   1.052 -0.5147  0.4208 -0.5265
23989SOL    HW175372   4.772   1.306   1.139  0.2394 -0.6164 -1.1127
23989SOL    HW275373   4.707   1.424   1.070 -0.4814  0.1490  0.8525
23990SOL     OW75374   8.930   6.962   7.860 -0.5844  0.2386  0.2262
23990SOL    HW175375   8.864   6.970   7.790 -0.1347 -1.8178 -0.4541
23990SOL    HW275376   8.879   6.948   7.939 -1.0024 -0.3191 -0.1379
23991SOL     OW75377   7.298   3.948   7.704  0.5246 -0.0437 -0.1190
23991SOL    HW175378   7.388   3.918   7.697  0.5665 -0.1666  0.8159
23991SOL    HW275379   7.275   3.980   7.616  0.6630 -2.2709 -0.9812
23992SOL     OW75380   9.027   3.756   9.729  0.5515  0.5720 -0.6529
23992SOL    HW175381   9.091   3.685   9.725  0.0754  0.1702 -1.3323
23992SOL    HW275382   8.969   3.739   9.655 -0.9385  0.3663  0.5589
23993SOL     OW75383   0.249   0.879   0.672  0.3014  0.0582  0.1109
23993SOL    HW175384   0.287   0.815   0.732  0.2456  0.5140  0.6296
23993SOL    HW275385   0.168   0.838   0.641  1.7096 -1.3837 -1.8307
23994SOL     OW75386   5.444   2.752   0.898 -0.5030  0.0356 -0.3851
23994SOL    HW175387   5.384   2.678   0.911 -0.4782 -0.0677 -0.8364
23994SOL    HW275388   5.497   2.726   0.822 -0.6996  0.6454 -0.7320
23995SOL     OW75389   0.051   4.825   6.088 -0.6788 -0.1001 -0.4772
23995SOL    HW175390   0.063   4.769   6.165  0.1350  0.0977 -0.4518
23995SOL    HW275391   0.081   4.912   6.117 -0.7983  0.0769 -0.8831
23996SOL     OW75392   2.583   1.523   3.690 -0.1859 -0.4741 -0.8056
23996SOL    HW175393   2.675   1.531   3.666  0.0737 -0.2820  0.2568
23996SOL    HW275394   2.572   1.432   3.717 -0.5964 -0.8257 -2.1145
23997SOL     OW75395   2.601   8.168   2.837  0.8921 -0.2500 -0.0046
23997SOL    HW175396   2.655   8.163   2.758  1.8538  1.8181  0.4995
23997SOL    HW275397   2.519   8.124   2.812  0.8989  1.0106 -2.4101
23998SOL     OW75398   8.780   2.914   3.824 -0.0556  0.0570 -0.0582
23998SOL    HW175399   8.848   2.859   3.785  1.1567 -0.5405  2.8110
23998SOL    HW275400   8.774   2.990   3.765  0.8834 -1.3484 -2.0143
23999SOL     OW75401   5.361  10.888   2.459 -0.2996  0.1250 -0.0637
23999SOL    HW175402   5.277  10.845   2.475  0.0570 -0.7340 -0.4794
23999SOL    HW275403   5.346  10.980   2.484 -0.6423 -0.5137  2.1978
24000SOL     OW75404   5.877   4.574   5.406 -0.1094  0.4350  0.4186
24000SOL    HW175405   5.906   4.486   5.381 -0.7331  0.6005 -0.9192
24000SOL    HW275406   5.833   4.608   5.328 -1.6863  1.1503  1.6031
24001SOL     OW75407   9.692   5.671   8.194  0.5578 -0.1372 -0.8376
24001SOL    HW175408   9.733   5.630   8.119  0.0117 -1.0813 -0.6261
24001SOL    HW275409   9.609   5.624   8.205  0.7070 -0.1288  0.4486
24002SOL     OW75410   2.002  10.164   4.849 -0.3242  0.4637 -0.2526
24002SOL    HW175411   1.936  10.110   4.891  0.0605  0.6114  0.5352
24002SOL    HW275412   1.966  10.182   4.762 -1.0759  0.1015 -0.0181
24003SOL     OW75413   7.189  10.090   8.808  0.3772  0.4277 -0.4666
24003SOL    HW175414   7.258  10.156   8.794 -0.4478  1.2835 -0.5847
24003SOL    HW275415   7.141  10.122   8.884 -1.1968  0.9677 -1.6663
24004SOL     OW75416   0.334  10.702   9.353  0.0667  0.1958 -0.2767
24004SOL    HW175417   0.260  10.688   9.294  0.0735 -2.5632  0.2977
24004SOL    HW275418   0.295  10.737   9.433 -0.6326 -1.1477 -0.0151
24005SOL     OW75419   5.927   6.130   3.155 -0.3612 -0.0046  0.2233
24005SOL    HW175420   5.849   6.076   3.165 -0.7192  0.7384  1.4828
24005SOL    HW275421   5.897   6.219   3.170  0.3511  0.4954 -1.2478
24006SOL     OW75422   7.813   9.086   4.540 -0.4206 -0.4404  0.2361
24006SOL    HW175423   7.766   9.146   4.482  0.1283 -0.1301  0.1161
24006SOL    HW275424   7.815   9.131   4.624 -0.9774 -0.7729  0.4333
24007SOL     OW75425   7.443  10.956   9.955 -0.3414 -0.7195 -0.6430
24007SOL    HW175426   7.468  10.957  10.047 -0.9921 -2.0809 -0.4373
24007SOL    HW275427   7.401  10.871   9.942 -2.1152  0.2749 -1.7027
24008SOL     OW75428   0.738   8.249   1.230 -0.7342  0.1051  0.1501
24008SOL    HW175429   0.727   8.248   1.135  1.2290  1.5687 -0.1242
24008SOL    HW275430   0.770   8.162   1.252  0.1776  0.2180 -0.7082
24009SOL     OW75431   4.950   0.565   9.783  0.6237  0.3712  0.4731
24009SOL    HW175432   5.013   0.555   9.855  0.1473 -1.4232  0.6696
24009SOL    HW275433   4.865   0.566   9.827  0.4353  1.1484  0.0814
24010SOL     OW75434   9.985   3.332  10.066  0.4426 -0.1517 -0.2489
24010SOL    HW175435   9.923   3.377  10.124  0.2740 -0.7173  0.0058
24010SOL    HW275436  10.044   3.286  10.125 -2.0027 -3.8312 -0.5432
24011SOL     OW75437   2.233   2.683   0.114  0.2820 -0.2148 -0.1646
24011SOL    HW175438   2.325   2.655   0.114  0.1077 -0.8490 -1.4177
24011SOL    HW275439   2.218   2.718   0.201  2.0046  0.8046 -0.2504
24012SOL     OW75440   2.124  10.287   5.069 -0.2531  0.0963  0.2422
24012SOL    HW175441   2.077  10.262   4.989 -0.5964 -2.5878  1.2181
24012SOL    HW275442   2.056  10.297   5.135  0.0848  1.7118  0.3641
24013SOL     OW75443   5.211   9.330  10.912 -0.2408  0.2872  0.7056
24013SOL    HW175444   5.191   9.242  10.879  0.6675 -0.1406  1.2767
24013SOL    HW275445   5.154   9.388  10.861  0.0115 -0.5148 -0.5181
24014SOL     OW75446   1.355   7.821  10.491 -0.1149 -0.0045  0.2959
24014SOL    HW175447   1.263   7.820  10.465 -0.3498  1.1833  1.0434
24014SOL    HW275448   1.367   7.906  10.533  1.7535  0.6159 -1.3839
24015SOL     OW75449   0.874  10.590   7.973 -0.3876  0.0224 -0.2479
24015SOL    HW175450   0.814  10.516   7.970 -0.2835 -0.1026  0.6257
24015SOL    HW275451   0.948  10.559   8.025 -0.7286  1.0143  0.8683
24016SOL     OW75452   8.807   5.271   3.539 -0.2730 -0.2732 -0.1088
24016SOL    HW175453   8.786   5.323   3.462 -2.8804  1.6074  1.7700
24016SOL    HW275454   8.823   5.336   3.608 -0.9481 -1.8979  1.6280
24017SOL     OW75455   5.300   4.728   4.442 -0.6370  0.0246  0.5397
24017SOL    HW175456   5.239   4.670   4.396  1.8390 -1.8078 -0.5787
24017SOL    HW275457   5.289   4.813   4.401 -1.9405 -0.4514 -0.1083
24018SOL     OW75458   1.274   2.093   6.519 -0.1739 -0.3102 -0.1950
24018SOL    HW175459   1.213   2.049   6.460 -1.3659  0.2399  0.6214
24018SOL    HW275460   1.298   2.027   6.584 -0.6847 -0.2307  0.0741
24019SOL     OW75461   2.096   6.566   7.225  0.6714  0.0005  0.1416
24019SOL    HW175462   2.033   6.499   7.198 -0.4760  0.5942  1.2612
24019SOL    HW275463   2.124   6.608   7.143  0.0683 -0.6759 -0.4137
24020SOL     OW75464   8.053   0.387   8.462 -0.7000 -0.3410  0.0809
24020SOL    HW175465   7.976   0.444   8.466 -0.4486 -0.0006  0.1566
24020SOL    HW275466   8.080   0.377   8.554  0.9969  1.8371 -0.1401
24021SOL     OW75467  10.556   4.173   0.584 -0.1773  0.1459  0.2956
24021SOL    HW175468  10.480   4.116   0.592 -1.6791  2.1941  1.2587
24021SOL    HW275469  10.526   4.257   0.619  2.5842  0.9558  0.8162
24022SOL     OW75470   8.617   5.073   2.608 -0.1812 -0.1830  0.3032
24022SOL    HW175471   8.707   5.063   2.576 -0.1383  0.7050  0.1376
24022SOL    HW275472   8.628   5.111   2.696 -0.3974 -0.0637  0.2770
24023SOL     OW75473  10.189   7.982   9.243  0.0936  0.1526  0.1021
24023SOL    HW175474  10.147   7.902   9.275 -0.9727  0.8107  0.3846
24023SOL    HW275475  10.235   8.017   9.319  0.5713 -0.1902 -0.0250
24024SOL     OW75476   6.201   5.737   4.817  0.2583 -0.2763 -1.3184
24024SOL    HW175477   6.146   5.770   4.889  1.6016  0.3096 -0.5388
24024SOL    HW275478   6.251   5.665   4.857  0.4122 -0.4847 -1.8874
24025SOL     OW75479   0.280   5.654  10.866  0.8040  0.3447 -0.6028
24025SOL    HW175480   0.247   5.739  10.839  1.7889  0.7770 -0.4695
24025SOL    HW275481   0.208   5.614  10.915  1.3697  2.3583  2.0135
24026SOL     OW75482   7.244   5.444  10.601 -0.1900 -0.1367  0.3586
24026SOL    HW175483   7.335   5.438  10.629  0.1898 -1.2762 -1.0475
24026SOL    HW275484   7.217   5.533  10.623  1.4129  0.3696  0.3103
24027SOL     OW75485   5.297   1.881   6.041 -0.4225 -0.1878  0.1501
24027SOL    HW175486   5.275   1.904   5.951  0.4787  0.7198  0.1442
24027SOL    HW275487   5.339   1.960   6.076 -2.1252 -0.0021  1.8384
24028SOL     OW75488   8.764   3.587   1.544  0.5132  0.1504  0.1670
24028SOL    HW175489   8.782   3.674   1.508  0.1390 -0.1942 -0.8822
24028SOL    HW275490   8.669   3.585   1.555  0.4490 -0.3956 -0.5080
24029SOL     OW75491   2.218   6.244   7.418  0.0995 -0.2861  0.5319
24029SOL    HW175492   2.254   6.199   7.495 -0.2085 -0.1774  0.7434
24029SOL    HW275493   2.137   6.197   7.399 -0.2357  0.1946  0.7671
24030SOL     OW75494   0.187   1.545   3.379 -0.1219 -0.2379 -0.2425
24030SOL    HW175495   0.199   1.609   3.309  1.0899 -0.1642  0.0339
24030SOL    HW275496   0.125   1.587   3.439  0.1663  0.4094 -0.3921
24031SOL     OW75497   3.301   7.356   1.275  0.1608  0.2999  0.2380
24031SOL    HW175498   3.252   7.434   1.299 -0.5297 -0.3676  1.0311
24031SOL    HW275499   3.294   7.351   1.179 -3.4557 -1.1624  0.5271
24032SOL     OW75500   8.692   0.556   7.092  0.0840 -0.0367  0.3557
24032SOL    HW175501   8.768   0.608   7.067 -0.0965 -0.0093 -0.1410
24032SOL    HW275502   8.717   0.516   7.175  0.4780  0.3106  0.4073
24033SOL     OW75503   6.343   6.576   9.391  0.3426  0.0879  0.3765
24033SOL    HW175504   6.271   6.516   9.409  1.8622 -2.0579 -0.4669
24033SOL    HW275505   6.384   6.541   9.312  1.2940  2.2428 -0.1352
24034SOL     OW75506   4.342  10.180   3.937  0.0081  0.3757  0.4476
24034SOL    HW175507   4.423  10.131   3.952 -1.8971 -2.5292  1.6838
24034SOL    HW275508   4.326  10.225   4.020  0.3201  0.9261  0.2133
24035SOL     OW75509   1.094  10.141   0.494  0.5880  0.1716  0.7334
24035SOL    HW175510   1.073  10.052   0.468  0.7413  0.9875 -2.3768
24035SOL    HW275511   1.020  10.168   0.549 -0.8556 -0.9158 -0.6467
24036SOL     OW75512   9.498   2.680   4.588 -0.0125 -0.3431 -0.4287
24036SOL    HW175513   9.554   2.746   4.548 -0.0613  0.1728  0.3502
24036SOL    HW275514   9.467   2.628   4.514  0.2094  0.3627 -1.0296
24037SOL     OW75515   0.359   4.579   7.376  0.0549 -0.7706 -0.0006
24037SOL    HW175516   0.410   4.635   7.434 -0.7271 -0.1794  0.1180
24037SOL    HW275517   0.425   4.530   7.327  0.7306 -0.7810  0.8926
24038SOL     OW75518   7.136  10.855   5.646  0.1403 -0.8586  0.3730
24038SOL    HW175519   7.147  10.760   5.646  1.4886 -0.7241 -0.9005
24038SOL    HW275520   7.201  10.887   5.708  1.4421 -0.6158 -1.0809
24039SOL     OW75521   3.653   4.542   1.055 -0.0720  0.9267 -0.3050
24039SOL    HW175522   3.612   4.507   0.976 -0.1961 -0.2219  0.2557
24039SOL    HW275523   3.743   4.561   1.029 -0.0245  0.2480 -0.6353
24040SOL     OW75524   8.210   4.031   3.043  0.5316  0.0455  0.4688
24040SOL    HW175525   8.212   4.095   2.971  0.1317 -0.1219  0.3113
24040SOL    HW275526   8.139   4.060   3.099  0.9295  0.2492  0.8701
24041SOL     OW75527   6.626   2.653   4.246 -0.1099  0.2906 -0.2590
24041SOL    HW175528   6.649   2.684   4.333 -0.1257  1.2985 -0.6030
24041SOL    HW275529   6.587   2.729   4.203  1.7487  0.3899 -1.8424
24042SOL     OW75530   8.862   5.051   0.547 -0.0969 -0.2773 -0.2134
24042SOL    HW175531   8.791   5.116   0.542  0.6517  0.4942 -1.0528
24042SOL    HW275532   8.898   5.062   0.635 -0.0960  0.3137 -0.2837
24043SOL     OW75533   2.142   7.931   5.800 -0.0238  0.2364 -0.5970
24043SOL    HW175534   2.205   8.000   5.822  0.3888  0.4852 -2.5211
24043SOL    HW275535   2.067   7.949   5.856  1.1593  0.6099  0.9068
24044SOL     OW75536   2.177   3.931   8.710 -0.1113  0.0126  0.5700
24044SOL    HW175537   2.234   3.906   8.783  0.3205 -1.9688 -0.3967
24044SOL    HW275538   2.099   3.878   8.723 -0.4962  0.4930  0.2024
24045SOL     OW75539   4.103   4.526   4.440  0.1719  0.1849 -0.4291
24045SOL    HW175540   4.199   4.528   4.443  0.1447  0.5560  0.4017
24045SOL    HW275541   4.082   4.519   4.347  1.0046  0.5235 -0.6489
24046SOL     OW75542   9.030  10.557   7.238 -0.1714  0.1169 -0.4444
24046SOL    HW175543   8.981  10.631   7.275  1.1461  1.0710 -0.5368
24046SOL    HW275544   9.034  10.576   7.144 -1.1476 -0.8749 -0.6911
24047SOL     OW75545   7.689   3.577   1.743  0.4509 -0.3748 -0.3300
24047SOL    HW175546   7.643   3.659   1.724  0.1270 -0.5468 -0.2836
24047SOL    HW275547   7.713   3.584   1.835  1.1250  0.0136 -0.5286
24048SOL     OW75548   0.265   4.272   1.178 -0.3097  0.3145 -0.4944
24048SOL    HW175549   0.318   4.211   1.127  0.1114  0.1990  0.0744
24048SOL    HW275550   0.314   4.284   1.259 -0.8466  0.6976 -0.2239
24049SOL     OW75551   9.521   6.073   3.803  0.1835  0.9669 -0.3969
24049SOL    HW175552   9.499   6.149   3.748  0.1996 -0.3967 -2.3672
24049SOL    HW275553   9.461   6.004   3.772  1.1873 -0.2359  0.3180
24050SOL     OW75554  10.928   9.239   8.364  0.2367 -0.5874 -0.0521
24050SOL    HW175555  10.894   9.325   8.391  0.4262 -0.6926  0.5228
24050SOL    HW275556  10.887   9.224   8.278 -0.8571 -0.5325  0.4491
24051SOL     OW75557   6.218   3.261   7.066 -0.6338  0.4148 -0.1808
24051SOL    HW175558   6.171   3.313   7.000 -2.3971 -1.4844 -0.4601
24051SOL    HW275559   6.275   3.204   7.015 -1.6448 -0.7154 -0.0651
24052SOL     OW75560   0.914   2.694   0.688 -0.5389 -0.2602 -0.2662
24052SOL    HW175561   0.932   2.788   0.681  0.1380 -0.1002  2.9805
24052SOL    HW275562   0.993   2.651   0.654  0.1999  0.3687  0.6440
24053SOL     OW75563   8.509   7.367   5.074  0.2137  0.3297  0.2282
24053SOL    HW175564   8.577   7.386   5.009 -0.5649 -0.5695 -0.8742
24053SOL    HW275565   8.437   7.425   5.049 -0.1762 -0.1933  0.1348
24054SOL     OW75566   3.180   3.113  10.096  0.5794  0.0674  0.9930
24054SOL    HW175567   3.237   3.037  10.084  1.3999  0.5101  1.9348
24054SOL    HW275568   3.241   3.184  10.120  0.0232  1.4248 -1.4996
24055SOL     OW75569   2.619   7.581   1.528  0.2810 -0.2459  0.8208
24055SOL    HW175570   2.595   7.551   1.616 -0.8397  1.2592  1.0278
24055SOL    HW275571   2.558   7.537   1.470 -0.0366  0.0401  0.9397
24056SOL     OW75572   8.425   7.329   0.326 -0.0547 -0.1292  0.5370
24056SOL    HW175573   8.455   7.296   0.241 -0.0425 -1.0014  0.8728
24056SOL    HW275574   8.358   7.266   0.353  0.4984 -0.2950  1.5379
24057SOL     OW75575   5.328   3.085   2.395  0.6068  0.2605  0.3218
24057SOL    HW175576   5.238   3.100   2.368  0.4000 -1.0159  0.2713
24057SOL    HW275577   5.374   3.166   2.373  0.2420 -0.3634 -2.8850
24058SOL     OW75578  10.534   7.578  10.250 -0.3620  0.0941 -1.2155
24058SOL    HW175579  10.547   7.510  10.184  4.2505 -1.0226  0.6360
24058SOL    HW275580  10.517   7.530  10.331  2.0991  1.0823 -0.0635
24059SOL     OW75581   1.160   0.035   4.496  0.2096 -0.4923  0.2021
24059SOL    HW175582   1.091   0.088   4.457  0.5839 -0.3163 -0.2322
24059SOL    HW275583   1.196   0.089   4.566 -0.7050 -0.9506  1.0510
24060SOL     OW75584   4.606   8.329   7.175  0.0076  0.2269 -0.6207
24060SOL    HW175585   4.554   8.347   7.097 -0.2325  0.0302 -0.5070
24060SOL    HW275586   4.543   8.329   7.247 -0.2147 -2.2701 -0.7643
24061SOL     OW75587   4.590   7.644   3.820 -0.1100 -0.3631  0.5738
24061SOL    HW175588   4.560   7.734   3.809 -0.7272 -0.6373 -0.0004
24061SOL    HW275589   4.645   7.647   3.898  0.1882  0.5885  0.3338
24062SOL     OW75590   6.835   3.597  10.418  0.2833  0.0296  0.2290
24062SOL    HW175591   6.747   3.560  10.423  0.1151  0.3573 -0.2635
24062SOL    HW275592   6.821   3.691  10.403  0.7123  0.0225 -0.2536
24063SOL     OW75593   4.891   9.246   4.746 -0.0667  0.0015 -0.3330
24063SOL    HW175594   4.954   9.183   4.780  2.9500  2.0008 -1.9713
24063SOL    HW275595   4.873   9.305   4.819 -0.2339 -0.7086  0.2041
24064SOL     OW75596   1.692   6.945   8.391 -0.2835 -0.0979 -0.2160
24064SOL    HW175597   1.730   7.020   8.346 -1.9705  1.0113  0.1564
24064SOL    HW275598   1.714   6.957   8.483  2.0345 -1.6744 -0.5284
24065SOL     OW75599   8.361   0.685   0.623  0.4280  0.2617 -0.5615
24065SOL    HW175600   8.318   0.765   0.592  0.6881  0.2181 -1.0351
24065SOL    HW275601   8.454   0.699   0.603  0.5838  0.1844  0.0882
24066SOL     OW75602  10.931   9.274  10.712  0.4146  0.3122 -0.0459
24066SOL    HW175603  10.884   9.353  10.738  0.8623 -0.0083  1.7504
24066SOL    HW275604  10.862   9.213  10.683 -0.2156  0.1170  1.8447
24067SOL     OW75605   3.025   7.360   0.443 -0.2752 -0.1040 -0.3696
24067SOL    HW175606   3.019   7.265   0.450 -0.0571  0.0048  1.7973
24067SOL    HW275607   3.096   7.375   0.380 -0.4805 -1.3663 -0.9162
24068SOL     OW75608  10.040   2.773  10.606 -0.3771  0.4844  0.5284
24068SOL    HW175609  10.103   2.839  10.634  1.1452 -1.2792  1.3539
24068SOL    HW275610  10.087   2.690  10.612 -2.4097 -0.7583  0.0181
24069SOL     OW75611   4.054   9.302   1.104  0.0667  0.0356  0.0590
24069SOL    HW175612   4.074   9.211   1.081 -1.0368  0.3660 -2.3589
24069SOL    HW275613   3.958   9.304   1.110  0.1384  0.8443  1.0017
24070SOL     OW75614   3.060   8.337   4.538 -0.9276 -0.5710 -0.4158
24070SOL    HW175615   3.129   8.395   4.504 -0.6008 -1.2886 -1.0032
24070SOL    HW275616   2.998   8.395   4.581 -1.2656  0.3443 -2.1269
24071SOL     OW75617   8.465   6.448   4.473  0.2253  0.2365 -0.2278
24071SOL    HW175618   8.560   6.446   4.469  0.2167 -0.6280 -0.0609
24071SOL    HW275619   8.440   6.359   4.498 -0.6683  0.1373 -1.4180
24072SOL     OW75620   0.253   7.475   4.073 -0.1343 -0.4588  0.0176
24072SOL    HW175621   0.228   7.568   4.067 -2.2085 -0.8356  2.1284
24072SOL    HW275622   0.184   7.429   4.026 -0.9783 -1.1538  1.8679
24073SOL     OW75623   7.162   2.031   3.502  0.4247  0.2483 -0.7664
24073SOL    HW175624   7.220   2.042   3.577 -2.7724 -1.8615  2.1644
24073SOL    HW275625   7.127   2.118   3.485  0.8803  0.6922  0.5007
24074SOL     OW75626   0.382   9.774   5.309 -0.7590  0.5752 -0.4169
24074SOL    HW175627   0.473   9.743   5.317 -0.9633  0.2230  0.7032
24074SOL    HW275628   0.387   9.867   5.331 -0.4599  0.8880 -1.7594
24075SOL     OW75629   2.056   7.230   5.653  0.0157 -0.4516 -0.2039
24075SOL    HW175630   1.967   7.251   5.624  0.2889  0.4054 -0.4507
24075SOL    HW275631   2.110   7.301   5.618  0.8744 -1.2200 -0.4639
24076SOL     OW75632   4.709   3.033   7.834 -0.3270 -0.3092 -0.5905
24076SOL    HW175633   4.767   2.994   7.899 -0.3701  0.3662 -0.1431
24076SOL    HW275634   4.748   3.009   7.750  0.8466  0.5061 -0.2896
24077SOL     OW75635   0.097  10.880   3.165  0.5030  0.8609 -0.0425
24077SOL    HW175636   0.004  10.871   3.186  0.9634  0.6981  2.0391
24077SOL    HW275637   0.121  10.965   3.202  1.6662 -0.0520  1.3503
24078SOL     OW75638   2.652   9.351   2.680 -0.1780 -0.3029  0.2052
24078SOL    HW175639   2.714   9.322   2.612  0.6553 -1.7881  1.5607
24078SOL    HW275640   2.566   9.342   2.639  0.3679 -0.3306 -0.9545
24079SOL     OW75641   5.439   8.717   3.866 -0.3973 -0.7069 -0.1020
24079SOL    HW175642   5.372   8.726   3.798 -0.0042 -0.5865 -0.4717
24079SOL    HW275643   5.522   8.730   3.821 -0.2267  1.5865  0.7758
24080SOL     OW75644   7.129   9.040   0.983  0.3054 -0.6971 -0.1821
24080SOL    HW175645   7.118   9.124   1.027  2.7663  1.8850 -4.1313
24080SOL    HW275646   7.047   9.025   0.936 -0.0174 -0.3060  0.2696
24081SOL     OW75647   7.752   4.337   7.359  0.2176 -0.2262 -0.1569
24081SOL    HW175648   7.696   4.294   7.295 -1.4691  1.1029  0.3859
24081SOL    HW275649   7.699   4.410   7.392  1.0677 -0.8426  2.7027
24082SOL     OW75650   2.425   6.678   8.213  0.2130  0.2657  0.3240
24082SOL    HW175651   2.369   6.655   8.287 -1.1076  0.9178 -0.4512
24082SOL    HW275652   2.448   6.770   8.226  2.0748 -0.2964  1.2360
24083SOL     OW75653   7.712   5.106  10.929 -0.2610 -0.6211 -0.0849
24083SOL    HW175654   7.724   5.028  10.983  0.8456 -0.8770 -0.7062
24083SOL    HW275655   7.769   5.172  10.968 -0.2003 -0.5095 -0.3618
24084SOL     OW75656  10.361   8.745   5.962 -0.0274 -0.1016 -0.6841
24084SOL    HW175657  10.297   8.808   5.994  0.3334  0.0000 -0.1610
24084SOL    HW275658  10.332   8.725   5.873 -1.8528 -1.4868  0.1901
24085SOL     OW75659  10.091   3.081   6.885 -0.0847 -0.0225 -0.5643
24085SOL    HW175660  10.067   3.142   6.816 -1.6937 -0.2272 -0.1964
24085SOL    HW275661  10.087   2.995   6.844  0.2010 -0.0400 -0.5541
24086SOL     OW75662   9.550   2.444   2.041  0.1057  0.4300  0.3927
24086SOL    HW175663   9.592   2.524   2.008  0.1275 -0.3111 -1.3891
24086SOL    HW275664   9.608   2.415   2.112  0.9596  1.0988 -0.0127
24087SOL     OW75665   9.573   4.419   3.370 -0.5626  0.1758  0.3043
24087SOL    HW175666   9.520   4.414   3.449 -1.1058 -1.3014 -0.1405
24087SOL    HW275667   9.516   4.389   3.299  0.5562 -0.5177 -0.3279
24088SOL     OW75668   8.646   3.089   7.668  0.5733  0.2216  0.0810
24088SOL    HW175669   8.731   3.046   7.662 -0.5955 -2.2678  0.6941
24088SOL    HW275670   8.616   3.070   7.757 -0.5100  1.3335 -0.0281
24089SOL     OW75671   2.054   1.020   9.941  0.1530 -0.0276  0.0738
24089SOL    HW175672   2.143   1.045   9.913 -0.9991  1.2179 -2.6640
24089SOL    HW275673   2.006   1.010   9.859 -2.7606  1.3439  1.5638
24090SOL     OW75674   2.900   2.369   2.418 -0.4816 -0.3293  0.3289
24090SOL    HW175675   2.877   2.279   2.442  1.5823 -1.4192 -1.6595
24090SOL    HW275676   2.834   2.394   2.353 -0.2615 -0.9057 -0.1225
24091SOL     OW75677   4.241   8.563   9.968  0.7520 -0.4842 -0.2301
24091SOL    HW175678   4.171   8.501   9.948 -1.2971  2.6264 -3.1255
24091SOL    HW275679   4.199   8.629  10.024  1.6305  0.8292 -1.0929
24092SOL     OW75680   9.362   6.358   4.172 -0.2754  0.4007  0.7334
24092SOL    HW175681   9.375   6.266   4.195 -1.9066  0.5007  2.1939
24092SOL    HW275682   9.388   6.364   4.080 -0.8586 -1.6772  0.4064
24093SOL     OW75683   7.204  10.284   5.352 -0.0953  0.3245  0.0282
24093SOL    HW175684   7.244  10.300   5.437 -1.1056  1.5112  0.2916
24093SOL    HW275685   7.262  10.220   5.310  0.6557  0.0717  1.4154
24094SOL     OW75686   0.010  10.019   0.668  0.0751 -0.3478 -0.1956
24094SOL    HW175687   0.060   9.938   0.677  1.4552  0.3219 -1.6181
24094SOL    HW275688   0.026  10.067   0.749  1.4766 -0.3028 -0.4871
24095SOL     OW75689   6.785   3.326   4.681  0.3344  0.6358 -0.1803
24095SOL    HW175690   6.789   3.270   4.758 -2.1771 -0.5169 -0.8544
24095SOL    HW275691   6.821   3.410   4.710  1.5993 -0.4750  1.5727
24096SOL     OW75692   8.279  10.743   5.630  0.0915  0.1878 -0.4597
24096SOL    HW175693   8.195  10.781   5.657 -0.1197 -0.6832  0.1538
24096SOL    HW275694   8.254  10.674   5.568  0.5357  1.7285 -2.3730
24097SOL     OW75695   0.502   7.321  10.021 -0.2072 -0.3305 -0.3114
24097SOL    HW175696   0.587   7.278  10.024  0.0818  0.2673  0.1897
24097SOL    HW275697   0.450   7.275  10.088 -0.2007 -0.5211 -0.4354
24098SOL     OW75698  10.086   3.357   4.655 -0.1581 -0.0418 -0.4207
24098SOL    HW175699  10.010   3.385   4.603 -0.5144 -1.2373 -0.5551
24098SOL    HW275700  10.159   3.361   4.594 -0.3204  0.0041 -0.6136
24099SOL     OW75701   1.955  10.359   3.935  0.1651 -0.0768 -0.5901
24099SOL    HW175702   1.948  10.393   3.846  1.2181 -1.3562 -1.1902
24099SOL    HW275703   1.865  10.344   3.963 -0.1206 -1.2041 -2.0638
24100SOL     OW75704   4.135   5.193   9.359 -0.1226 -0.3908  0.2875
24100SOL    HW175705   4.123   5.279   9.401  0.2634 -0.8314  1.3107
24100SOL    HW275706   4.058   5.143   9.386  0.7937 -1.1159  1.5817
24101SOL     OW75707   8.322   6.908   0.621  0.3477 -0.2136 -0.0938
24101SOL    HW175708   8.286   6.856   0.692  3.2458 -1.7325  0.3211
24101SOL    HW275709   8.386   6.966   0.663  1.3579 -0.4157 -1.3164
24102SOL     OW75710   1.478   0.568   6.400  0.5015  0.1150  0.1702
24102SOL    HW175711   1.531   0.496   6.364 -0.0858  0.2147 -0.9282
24102SOL    HW275712   1.487   0.560   6.494 -1.0248 -2.5217  0.1350
24103SOL     OW75713   0.078   8.722   6.994 -0.1439 -0.4985  0.4019
24103SOL    HW175714   0.069   8.773   6.913  0.6716  2.3034  2.0430
24103SOL    HW275715  -0.012   8.702   7.019 -0.5617  1.4105  0.5109
24104SOL     OW75716   4.523   2.416   9.376 -0.0254 -0.4488 -0.0547
24104SOL    HW175717   4.560   2.369   9.451  2.6877  2.1245  0.3261
24104SOL    HW275718   4.456   2.473   9.414  0.1541 -0.3855  0.1644
24105SOL     OW75719   8.496   9.961   9.117  0.1879 -0.4685  0.1498
24105SOL    HW175720   8.409   9.935   9.146 -0.3212  0.6352 -0.3826
24105SOL    HW275721   8.552   9.887   9.141 -0.5882 -0.4514  2.0655
24106SOL     OW75722   9.014   6.059  10.500  0.0489 -0.9020  0.3646
24106SOL    HW175723   8.975   6.008  10.571  1.0962 -0.7113  1.0888
24106SOL    HW275724   8.942   6.113  10.467 -0.9441 -2.4223 -0.0484
24107SOL     OW75725   1.469   0.169   2.289 -0.4253  0.5237  0.1726
24107SOL    HW175726   1.511   0.255   2.295 -0.6529  0.6979 -0.6899
24107SOL    HW275727   1.538   0.112   2.254  0.0193  0.1350  1.6254
24108SOL     OW75728   8.578   3.543   3.743 -0.5009 -0.4399  0.0450
24108SOL    HW175729   8.628   3.518   3.821  2.6143  1.0600 -1.3623
24108SOL    HW275730   8.554   3.634   3.758 -2.9601 -1.1407  0.7035
24109SOL     OW75731   0.595   3.448   8.276  0.3494 -0.1818 -0.1177
24109SOL    HW175732   0.569   3.443   8.368  2.5391 -1.6529  0.4811
24109SOL    HW275733   0.682   3.489   8.278  0.5118 -0.4260 -1.5066
24110SOL     OW75734   3.011  10.876   6.098  0.1615 -0.4909  0.0623
24110SOL    HW175735   2.983  10.959   6.136 -0.8881 -0.5658 -0.5388
24110SOL    HW275736   2.979  10.879   6.008  1.1346 -1.0525 -0.3044
24111SOL     OW75737   0.340   4.112   3.512 -0.1104 -0.2667 -0.3355
24111SOL    HW175738   0.278   4.040   3.495 -0.6030  0.1975 -0.5069
24111SOL    HW275739   0.415   4.091   3.457 -0.3875 -0.4781 -0.6422
24112SOL     OW75740   0.045   1.909   9.884  0.1575 -0.0016 -0.2386
24112SOL    HW175741  -0.050   1.918   9.891  0.3737  1.0683  1.4802
24112SOL    HW275742   0.061   1.815   9.890 -0.6677 -0.0539  1.3378
24113SOL     OW75743   6.623   0.170   8.359 -0.0027 -0.3769 -0.0245
24113SOL    HW175744   6.643   0.252   8.404 -0.1561  0.2165 -1.0256
24113SOL    HW275745   6.707   0.127   8.348 -0.2494 -1.9652  3.5073
24114SOL     OW75746   2.367   4.493   1.778  0.6568  0.2081  0.0770
24114SOL    HW175747   2.294   4.486   1.840 -0.2621  2.1800 -0.7388
24114SOL    HW275748   2.432   4.547   1.822 -0.2650  2.1547 -0.8533
24115SOL     OW75749   7.136   1.663   8.271  0.0152  0.1198  0.4834
24115SOL    HW175750   7.159   1.729   8.207 -2.8290  1.6210  0.9047
24115SOL    HW275751   7.102   1.590   8.219  0.4233  0.1756  0.1414
24116SOL     OW75752   1.992   9.397   5.623 -0.4342 -0.1782  0.6711
24116SOL    HW175753   1.973   9.363   5.710 -0.8231 -1.6645  0.0150
24116SOL    HW275754   2.085   9.422   5.627 -0.1134 -1.3970  1.1438
24117SOL     OW75755   5.717   1.346   9.947 -0.1484 -0.4331 -0.0940
24117SOL    HW175756   5.790   1.284   9.955 -0.3268 -0.6383 -0.0301
24117SOL    HW275757   5.665   1.331  10.026  0.1515  0.2514  0.2344
24118SOL     OW75758   3.722   2.506   8.763 -0.0888  0.3016  0.3051
24118SOL    HW175759   3.767   2.439   8.711  1.3813  1.5937 -0.1197
24118SOL    HW275760   3.748   2.488   8.853  0.2064  0.2344  0.2059
24119SOL     OW75761   9.651   9.486  10.105  0.2170  0.5021  0.0406
24119SOL    HW175762   9.636   9.468  10.198 -1.0517 -1.8306 -0.5790
24119SOL    HW275763   9.687   9.405  10.070 -1.1485  0.7023 -1.9046
24120SOL     OW75764   5.908   6.511   8.402  0.0726  0.0919 -0.7719
24120SOL    HW175765   5.896   6.417   8.383 -0.4180  0.0157 -0.1011
24120SOL    HW275766   5.994   6.516   8.444 -0.8944 -0.3880  1.3530
24121SOL     OW75767   5.792   6.181  10.022 -0.3261  0.2945 -0.7214
24121SOL    HW175768   5.879   6.160   9.988 -0.1899  0.1983 -0.3170
24121SOL    HW275769   5.791   6.276  10.030 -1.0729  0.5015 -2.9178
24122SOL     OW75770   9.257  10.002   7.715 -0.0278  0.3271 -0.0900
24122SOL    HW175771   9.302  10.037   7.792 -0.1398 -0.1593  0.1939
24122SOL    HW275772   9.308   9.924   7.690 -1.1569 -0.6689  0.6885
24123SOL     OW75773   1.836  10.956  10.952 -0.1983  0.0388 -0.6372
24123SOL    HW175774   1.926  10.969  10.979  0.5048 -1.5320 -2.0970
24123SOL    HW275775   1.797  11.043  10.953  1.6860  0.9064 -1.2193
24124SOL     OW75776   8.950   2.484   6.514 -0.4783  0.2003  0.3778
24124SOL    HW175777   8.949   2.409   6.455 -0.8776 -0.3485  1.0676
24124SOL    HW275778   9.035   2.480   6.558 -0.0208  0.8388 -0.4466
24125SOL     OW75779   6.235  10.165  10.014 -0.0231  0.3806  0.1834
24125SOL    HW175780   6.168  10.167   9.946  0.9622 -0.3983 -0.8386
24125SOL    HW275781   6.308  10.214   9.977 -0.6483  2.7068  1.9776
24126SOL     OW75782   9.525   7.211   3.291 -0.2603 -0.0022 -0.2374
24126SOL    HW175783   9.581   7.203   3.214  0.4635 -0.9201  0.3713
24126SOL    HW275784   9.473   7.290   3.275  1.9201  1.4486 -0.3355
24127SOL     OW75785   5.362   7.803   3.756 -0.0099  0.2171 -0.3522
24127SOL    HW175786   5.419   7.877   3.739 -0.6785  0.7557 -0.2921
24127SOL    HW275787   5.274   7.835   3.732 -0.3202 -0.5017 -0.1868
24128SOL     OW75788   6.758   1.804   6.894 -0.1868  0.2867  0.5476
24128SOL    HW175789   6.757   1.745   6.969 -0.6385 -0.0909  0.2458
24128SOL    HW275790   6.665   1.817   6.872 -0.0570  0.3065 -0.0100
24129SOL     OW75791   6.440   2.476   2.122 -0.0444 -0.1827  0.3126
24129SOL    HW175792   6.460   2.539   2.053 -1.3480  1.3449  1.2745
24129SOL    HW275793   6.349   2.453   2.108 -0.5073  0.6032  1.8318
24130SOL     OW75794  10.226   6.024   7.656 -0.2950  0.1895 -0.5772
24130SOL    HW175795  10.318   5.997   7.656  0.0850  1.4724 -1.0667
24130SOL    HW275796  10.182   5.957   7.708  1.1905  0.5171  1.1437
24131SOL     OW75797   8.594   4.937   6.990  0.1104 -0.1535 -0.0084
24131SOL    HW175798   8.608   4.843   7.003 -0.4141 -0.1243  0.7783
24131SOL    HW275799   8.613   4.976   7.075  0.0883  0.4299 -0.2726
24132SOL     OW75800   0.142   5.789   5.918  0.1249 -0.5157 -0.5750
24132SOL    HW175801   0.048   5.807   5.913 -0.3626 -2.7752 -0.1414
24132SOL    HW275802   0.167   5.764   5.830 -0.4414 -3.3143  0.0261
24133SOL     OW75803   2.892   1.234   5.191  0.1513 -0.3327 -0.1859
24133SOL    HW175804   2.958   1.165   5.182 -0.4887 -0.9427 -0.2667
24133SOL    HW275805   2.888   1.274   5.104  1.5123  0.7325  0.2192
24134SOL     OW75806   3.422   1.972   6.858  0.4482 -0.2476 -0.2815
24134SOL    HW175807   3.394   1.882   6.876  0.0036 -0.0143  0.2066
24134SOL    HW275808   3.388   2.023   6.932 -0.6660  0.5840 -1.3615
24135SOL     OW75809   0.572   6.521   8.149 -0.0400 -0.1131 -0.0526
24135SOL    HW175810   0.647   6.462   8.155  1.5398  1.6488 -1.6341
24135SOL    HW275811   0.510   6.475   8.091  0.3663 -1.0160  0.2206
24136SOL     OW75812   7.714   7.159  10.605  0.3863  0.1679 -0.4489
24136SOL    HW175813   7.781   7.193  10.664  0.4291 -0.4161 -0.1599
24136SOL    HW275814   7.738   7.067  10.592 -0.0669  0.0900 -0.7542
24137SOL     OW75815   7.438   9.987   0.453 -0.4502 -0.3455 -0.1163
24137SOL    HW175816   7.372   9.918   0.460 -0.7153 -0.0550  0.2968
24137SOL    HW275817   7.407  10.055   0.513  1.0536 -0.8801  1.3076
24138SOL     OW75818  10.179   0.576   2.290 -0.7351  0.1796  0.6495
24138SOL    HW175819  10.143   0.550   2.206 -0.2192  0.0437  0.4657
24138SOL    HW275820  10.274   0.579   2.275 -0.6905  0.7851  1.0488
24139SOL     OW75821   9.336  10.014   2.217  0.8320  0.1405 -0.5232
24139SOL    HW175822   9.287  10.068   2.155 -0.6500 -1.1470 -0.5046
24139SOL    HW275823   9.273   9.997   2.288  1.7012 -0.5273  0.0941
24140SOL     OW75824   6.342   6.475   6.466 -0.0713 -0.3461  0.3870
24140SOL    HW175825   6.260   6.505   6.428 -0.4000 -1.0278  0.5463
24140SOL    HW275826   6.410   6.529   6.425 -0.2792 -1.9002 -2.1154
24141SOL     OW75827   3.594   8.383   2.448 -0.6031 -0.1956 -0.4086
24141SOL    HW175828   3.553   8.326   2.382  0.5803 -1.6107  0.0492
24141SOL    HW275829   3.526   8.394   2.515 -0.9393 -0.8561 -0.6360
24142SOL     OW75830   6.722   5.904  10.323  0.1241  0.2952  0.6137
24142SOL    HW175831   6.734   5.968  10.254 -0.7294 -0.2475 -0.0501
24142SOL    HW275832   6.628   5.885  10.322  0.4266 -1.2215  0.5751
24143SOL     OW75833  10.002   0.975   8.991 -0.1566  0.0412  0.1511
24143SOL    HW175834  10.071   1.022   9.038  1.2226  0.6760 -2.3519
24143SOL    HW275835   9.935   0.957   9.056  0.2886  3.5393  1.6943
24144SOL     OW75836   9.078   0.084   6.111 -0.3543  0.4495 -0.4235
24144SOL    HW175837   9.152   0.110   6.165 -1.4287  0.5958  1.0219
24144SOL    HW275838   9.026   0.164   6.101 -0.5972  0.2284 -0.9583
24145SOL     OW75839   6.569   2.069   7.378  0.3275  0.7319 -0.0342
24145SOL    HW175840   6.529   2.139   7.430  2.3571  0.8971  1.3626
24145SOL    HW275841   6.515   1.992   7.395 -0.0741  1.2243  0.9305
24146SOL     OW75842   2.024   5.652  10.136  0.1375  0.8963 -0.0526
24146SOL    HW175843   2.043   5.664  10.043 -1.2839  1.1838 -0.3084
24146SOL    HW275844   2.064   5.728  10.178 -1.7715  2.3341 -0.7771
24147SOL     OW75845  10.917   2.873  10.611  0.2396 -0.0651 -0.7057
24147SOL    HW175846  10.916   2.912  10.523  1.0167  1.5586 -0.0060
24147SOL    HW275847  11.008   2.877  10.638 -0.3048  1.2762  0.9766
24148SOL     OW75848   1.174   8.177   5.086 -0.0972 -0.0519 -0.6165
24148SOL    HW175849   1.114   8.207   5.153  1.7021  0.4389  0.8226
24148SOL    HW275850   1.261   8.189   5.124  0.8701 -2.6899 -1.8164
24149SOL     OW75851   7.918   8.806   5.644  0.1040 -0.0028 -0.0649
24149SOL    HW175852   7.938   8.719   5.610  1.2585  0.1488  0.1864
24149SOL    HW275853   7.967   8.866   5.588 -0.0961  0.4296  0.2186
24150SOL     OW75854   6.213   8.749   5.271 -0.2357  0.0140 -0.5324
24150SOL    HW175855   6.130   8.725   5.312  0.3674  0.1740  0.7879
24150SOL    HW275856   6.206   8.843   5.255  0.4719  0.4000  1.3885
24151SOL     OW75857   7.325  10.097   1.893  0.1159 -0.3623 -0.6651
24151SOL    HW175858   7.409  10.091   1.847  0.6374 -2.0190  0.4353
24151SOL    HW275859   7.265  10.046   1.839 -0.3672  1.3277 -1.7749
24152SOL     OW75860   0.120   3.268   1.501  0.9905 -0.6807 -0.6848
24152SOL    HW175861   0.079   3.284   1.416 -0.5984  0.7203  0.3152
24152SOL    HW275862   0.121   3.173   1.509 -3.3210 -0.7842 -0.2087
24153SOL     OW75863   2.524   8.876   5.468  0.0720 -0.1652 -0.0117
24153SOL    HW175864   2.475   8.796   5.451 -1.8574  0.7090  1.2752
24153SOL    HW275865   2.472   8.945   5.425  0.1099  0.7834  1.4407
24154SOL     OW75866   6.002   3.377   8.925 -0.3727 -0.7323  0.4088
24154SOL    HW175867   6.081   3.323   8.918  0.1317  0.0452  0.1480
24154SOL    HW275868   5.942   3.323   8.978 -0.4812 -2.2531 -1.2070
24155SOL     OW75869   5.685   1.833   9.927 -0.2103  0.1022  0.6244
24155SOL    HW175870   5.739   1.772   9.875 -0.9834 -0.9651  1.0512
24155SOL    HW275871   5.661   1.782  10.004  0.5483  1.5345  1.8128
24156SOL     OW75872   6.705   6.722   0.344  0.1570 -0.1124 -0.5082
24156SOL    HW175873   6.735   6.789   0.283  2.1126 -0.3562  0.1370
24156SOL    HW275874   6.730   6.755   0.430 -0.3280 -0.9295 -0.0489
24157SOL     OW75875   5.912   9.293   4.009 -0.2972 -0.3018 -0.2407
24157SOL    HW175876   5.831   9.242   3.999 -0.3292 -0.3524  0.2505
24157SOL    HW275877   5.982   9.230   3.989 -0.3357 -0.5575  0.3966
24158SOL     OW75878   2.201   5.492   7.086 -0.0472  0.1542 -0.3527
24158SOL    HW175879   2.121   5.442   7.072  0.1700 -0.8031  1.6628
24158SOL    HW275880   2.268   5.445   7.036 -0.5328  0.4113 -1.2613
24159SOL     OW75881  10.464   1.347   3.237  0.1858 -0.1636 -0.1482
24159SOL    HW175882  10.424   1.390   3.312 -0.8434  0.6390 -1.1528
24159SOL    HW275883  10.401   1.279   3.212  1.5976 -1.9901  1.1573
24160SOL     OW75884   4.973   7.619  10.121 -0.1183  0.1733  0.6766
24160SOL    HW175885   5.050   7.562  10.121  0.0730  0.4334  1.1835
24160SOL    HW275886   4.953   7.631  10.028  0.7388  0.4868  0.5194
24161SOL     OW75887   7.066   3.604   1.877 -0.3002 -0.6215  0.2364
24161SOL    HW175888   7.062   3.510   1.895  0.8672 -0.3529  2.1126
24161SOL    HW275889   7.123   3.638   1.946  1.6755  1.0559 -2.1479
24162SOL     OW75890   4.940   7.977   6.876 -0.3863  0.5528 -0.0892
24162SOL    HW175891   4.977   7.891   6.896  3.1619  2.0401 -0.0287
24162SOL    HW275892   4.929   7.977   6.781  2.1548  0.9885 -0.4026
24163SOL     OW75893   1.729  10.329   0.162 -0.1085  0.7329 -0.4938
24163SOL    HW175894   1.653  10.294   0.115  0.3989 -0.1863 -0.6655
24163SOL    HW275895   1.736  10.275   0.240 -0.1605  1.3942 -0.0324
24164SOL     OW75896   6.369   8.964   3.442  0.2335 -0.0634 -0.3632
24164SOL    HW175897   6.287   9.012   3.452 -0.5473 -1.4015 -0.2016
24164SOL    HW275898   6.352   8.904   3.369  2.3078  2.1968 -2.8115
24165SOL     OW75899   5.215  10.867   4.099  1.1529  0.4013 -0.0897
24165SOL    HW175900   5.276  10.812   4.148 -0.8591 -2.4998 -0.7078
24165SOL    HW275901   5.256  10.881   4.014  0.9504 -1.6319 -0.5412
24166SOL     OW75902   8.657   1.511   0.437 -0.8263 -0.0288 -0.3488
24166SOL    HW175903   8.745   1.542   0.456 -0.8316  0.1992 -0.7140
24166SOL    HW275904   8.652   1.426   0.482 -0.4111 -0.0607 -0.3616
24167SOL     OW75905   4.613   1.734   5.145  0.0813  0.3715  0.6355
24167SOL    HW175906   4.630   1.649   5.185  0.9660  0.2112 -0.0841
24167SOL    HW275907   4.638   1.797   5.213  4.1493  0.1574 -0.5724
24168SOL     OW75908   9.845   3.978   8.818 -0.0927 -0.7250 -0.5911
24168SOL    HW175909   9.934   4.007   8.838 -0.2083 -0.0218 -1.0428
24168SOL    HW275910   9.805   3.960   8.903 -0.2717  1.2725 -0.2150
24169SOL     OW75911   4.480   9.475   9.561  0.5920  0.0096  0.2148
24169SOL    HW175912   4.566   9.449   9.529  1.3397  0.5126  1.8049
24169SOL    HW275913   4.482   9.457   9.654 -1.3952 -0.9425  0.0968
24170SOL     OW75914  10.241  10.646   7.140 -0.6081  0.1702 -0.3296
24170SOL    HW175915  10.173  10.645   7.208 -0.6857 -0.6879 -0.4141
24170SOL    HW275916  10.202  10.696   7.068 -1.4586 -0.9733 -0.6764
24171SOL     OW75917   4.233   7.542   3.095  0.3065  0.3634 -0.4436
24171SOL    HW175918   4.319   7.554   3.056  1.3675 -1.2605  1.3068
24171SOL    HW275919   4.242   7.576   3.185 -1.6879  2.7494 -1.0635
24172SOL     OW75920   7.880   4.988   2.578 -0.2186 -0.1577 -0.1962
24172SOL    HW175921   7.939   5.055   2.543 -0.7393  0.4950  0.1804
24172SOL    HW275922   7.881   4.919   2.511 -0.1590  0.4898 -0.8677
24173SOL     OW75923   3.097   7.494   5.651  0.3383  0.1283 -0.1068
24173SOL    HW175924   3.134   7.581   5.668  1.1015 -0.0033 -1.0466
24173SOL    HW275925   3.168   7.433   5.669 -0.2246 -0.3205  0.6463
24174SOL     OW75926   6.047   7.526   5.603  0.2928 -0.1200  0.7645
24174SOL    HW175927   6.109   7.564   5.666 -0.0057  0.8750  0.4566
24174SOL    HW275928   6.079   7.555   5.518  1.9480 -3.2132  0.2642
24175SOL     OW75929   4.243   3.608  10.050  0.1064  0.4282 -0.2624
24175SOL    HW175930   4.296   3.563  10.116 -0.2465 -1.3001 -1.1131
24175SOL    HW275931   4.289   3.591   9.968 -0.5258  0.8805 -0.7150
24176SOL     OW75932   1.549  10.912  10.015 -0.3032 -0.2787  0.1628
24176SOL    HW175933   1.625  10.859   9.990 -0.1081  0.3483 -0.6129
24176SOL    HW275934   1.529  10.885  10.104  1.2674  0.0272  0.6351
24177SOL     OW75935   9.908   7.246   3.940  0.0999 -0.3535 -0.1313
24177SOL    HW175936   9.947   7.243   4.028  0.7291 -0.0618 -0.4032
24177SOL    HW275937   9.814   7.239   3.956  0.1701  0.3111  0.6067
24178SOL     OW75938   3.849   1.655   5.168  0.3938 -0.1437 -0.6755
24178SOL    HW175939   3.842   1.560   5.162  0.4228 -0.2868  1.1151
24178SOL    HW275940   3.942   1.673   5.160  0.2128 -0.1025 -2.8275
24179SOL     OW75941   7.920   4.847  10.837 -0.1553  0.6618 -0.3384
24179SOL    HW175942   8.005   4.804  10.843 -0.7896 -0.7801 -1.6299
24179SOL    HW275943   7.894   4.860  10.928  0.4980 -0.7807  0.0661
24180SOL     OW75944   6.865   6.503   9.260  0.1724  0.1607 -0.6941
24180SOL    HW175945   6.930   6.487   9.192  0.2038 -1.0174 -0.4035
24180SOL    HW275946   6.787   6.533   9.213  1.1958  2.4550 -0.9704
24181SOL     OW75947   7.757   2.767   2.842 -0.1466  0.2181  0.3272
24181SOL    HW175948   7.679   2.818   2.862 -0.4202  0.2909 -0.9136
24181SOL    HW275949   7.744   2.736   2.753  1.9104  1.4807 -0.4480
24182SOL     OW75950   0.503   7.512   1.764 -0.1932  0.3566  1.0198
24182SOL    HW175951   0.498   7.471   1.677  0.6345 -1.4598  1.7942
24182SOL    HW275952   0.597   7.521   1.781 -0.3487  0.6365  1.7402
24183SOL     OW75953   0.686   0.213   6.887 -0.0283 -1.0277 -0.1685
24183SOL    HW175954   0.748   0.284   6.873 -0.0956 -0.4859  2.1993
24183SOL    HW275955   0.678   0.205   6.982 -2.9459 -1.6530 -0.4125
24184SOL     OW75956   4.459   7.869   4.387  0.6230  0.0477 -0.1933
24184SOL    HW175957   4.378   7.817   4.385 -1.0349  2.4821  0.5003
24184SOL    HW275958   4.495   7.854   4.474 -0.2326  0.6163  0.2621
24185SOL     OW75959   0.824   1.756   9.747  0.4762 -0.2249 -0.1184
24185SOL    HW175960   0.828   1.746   9.652  1.1908  0.3040 -0.1548
24185SOL    HW275961   0.790   1.845   9.760  1.3781  0.0947  0.1018
24186SOL     OW75962   1.021   2.942  10.911 -0.5229  0.4164  0.4705
24186SOL    HW175963   1.036   2.914  11.001 -1.6229 -1.8359 -0.0116
24186SOL    HW275964   0.998   3.035  10.919 -0.8052  0.2041  2.5193
24187SOL     OW75965   3.354   5.393   2.194  0.0677  0.2358 -0.5655
24187SOL    HW175966   3.275   5.436   2.160  0.0450  0.0730 -0.7196
24187SOL    HW275967   3.328   5.301   2.205  0.0744  0.2871 -0.1115
24188SOL     OW75968   7.838   4.509   2.533 -0.1500  0.2917  0.0889
24188SOL    HW175969   7.844   4.413   2.531  4.1647  0.4340  1.0113
24188SOL    HW275970   7.799   4.529   2.618  1.3419 -0.6205  1.0174
24189SOL     OW75971   6.927   8.306   8.131  0.3040  0.0308 -0.4979
24189SOL    HW175972   7.006   8.349   8.097 -0.7339  1.0317 -1.7228
24189SOL    HW275973   6.907   8.353   8.212  1.2639 -0.5874  0.1060
24190SOL     OW75974   4.111   0.209   9.494 -0.3410  0.6558 -0.7823
24190SOL    HW175975   4.040   0.185   9.554  0.2432  2.9022  0.8772
24190SOL    HW275976   4.170   0.134   9.494 -1.5681 -0.3240 -0.4460
24191SOL     OW75977   0.118   3.467   7.288 -0.9585 -0.0864  0.0423
24191SOL    HW175978   0.166   3.409   7.347 -0.4234 -0.7804 -1.0445
24191SOL    HW275979   0.086   3.409   7.218  0.8850  1.1355 -1.8859
24192SOL     OW75980   0.992   9.365   4.613 -0.0228  0.1189  0.4977
24192SOL    HW175981   1.063   9.348   4.551 -1.3099  0.3680 -1.0628
24192SOL    HW275982   0.970   9.457   4.600 -1.1911 -0.1761  0.4048
24193SOL     OW75983   8.356   9.867   4.711  0.0780 -0.6399  0.5061
24193SOL    HW175984   8.449   9.876   4.691 -0.0136  0.9757  0.7267
24193SOL    HW275985   8.317   9.831   4.631  0.9820 -1.9664  0.6470
24194SOL     OW75986   9.152  10.029  10.494  0.0870  0.2897  0.1564
24194SOL    HW175987   9.105  10.001  10.573  1.2445 -1.9601  0.1119
24194SOL    HW275988   9.090  10.017  10.423 -0.3421  0.4850  0.4987
24195SOL     OW75989   8.385   7.781   2.146  0.1080  0.1548 -0.0466
24195SOL    HW175990   8.367   7.701   2.097 -1.9137  0.6184 -0.0985
24195SOL    HW275991   8.454   7.825   2.096 -1.5661  0.3791 -2.2306
24196SOL     OW75992   5.733   0.230   2.238 -0.1235 -0.3959  0.0756
24196SOL    HW175993   5.790   0.266   2.307  0.8230 -0.5837 -0.5992
24196SOL    HW275994   5.709   0.143   2.270 -1.4208  0.3243  1.1421
24197SOL     OW75995   9.762   7.481   4.324  0.1939  0.2681 -0.2023
24197SOL    HW175996   9.756   7.522   4.238  1.8161  1.2868  0.1509
24197SOL    HW275997   9.672   7.479   4.356  0.0306  3.6574 -0.2296
24198SOL     OW75998   2.245   2.807   8.613 -0.1300  0.2628 -0.3593
24198SOL    HW175999   2.268   2.714   8.612 -0.6428  0.0873  1.5796
24198SOL    HW276000   2.196   2.821   8.533  1.8214 -0.6453 -1.7576
24199SOL     OW76001   9.683   2.336   8.375  0.0741  0.7757  0.4050
24199SOL    HW176002   9.674   2.251   8.418 -0.4680  0.8783  0.4892
24199SOL    HW276003   9.683   2.399   8.447 -2.4845  1.0822  0.1797
24200SOL     OW76004   8.676   2.761   1.885  0.0500  0.2039 -0.1153
24200SOL    HW176005   8.617   2.688   1.867  0.1746  0.2946 -0.9310
24200SOL    HW276006   8.680   2.810   1.802 -0.0568  1.1535  0.4251
24201SOL     OW76007   7.243   2.247   0.596  0.3629  0.0479  0.0158
24201SOL    HW176008   7.311   2.227   0.532  0.6925  1.9201 -0.2488
24201SOL    HW276009   7.276   2.210   0.678  0.6918 -0.9294 -0.5453
24202SOL     OW76010   4.782   8.123   5.127  0.1363 -0.0094  0.1683
24202SOL    HW176011   4.694   8.102   5.158 -0.1136 -1.5995 -1.5322
24202SOL    HW276012   4.839   8.101   5.201 -0.5036 -3.1587 -0.1861
24203SOL     OW76013  10.108   1.219   4.779 -0.1339 -0.1803  0.3675
24203SOL    HW176014  10.038   1.198   4.841  0.5512  2.5752  2.1580
24203SOL    HW276015  10.089   1.309   4.751  2.0543  0.2082  0.0467
24204SOL     OW76016   9.368   3.604   1.097 -0.1882 -0.0789  0.0751
24204SOL    HW176017   9.358   3.528   1.039 -1.0608  0.4580 -0.5028
24204SOL    HW276018   9.341   3.572   1.183 -0.6773 -0.4006 -0.1897
24205SOL     OW76019   4.457   1.113   7.052 -0.0383 -0.4142  0.1177
24205SOL    HW176020   4.414   1.197   7.068 -0.0233 -0.0161 -1.7960
24205SOL    HW276021   4.449   1.066   7.135 -0.7143  1.1734  0.9822
24206SOL     OW76022   3.843   0.679   3.221 -0.2853 -0.5503 -0.4053
24206SOL    HW176023   3.758   0.721   3.204  0.0581  0.4208  0.2156
24206SOL    HW276024   3.845   0.604   3.162 -1.3176 -0.2244 -0.8685
24207SOL     OW76025   7.621   7.389   7.590  0.1666  0.4526  0.7946
24207SOL    HW176026   7.541   7.420   7.546  0.0807  0.0194  0.6399
24207SOL    HW276027   7.613   7.294   7.589  1.6045  0.3101 -0.9584
24208SOL     OW76028   1.008   5.335   7.697  0.1221  0.0963  0.1377
24208SOL    HW176029   1.062   5.264   7.663  1.1223  0.7383  0.3658
24208SOL    HW276030   1.044   5.414   7.657 -0.0230  0.6287  1.0504
24209SOL     OW76031   6.444   2.284   9.452  0.0792 -0.6575  0.1098
24209SOL    HW176032   6.382   2.232   9.400  0.6636 -1.0560 -0.2017
24209SOL    HW276033   6.523   2.288   9.398 -0.4485  1.8672 -0.5487
24210SOL     OW76034  10.066   1.884   3.043  0.4647  0.4561 -0.1360
24210SOL    HW176035   9.994   1.862   2.985  0.7574 -0.3675 -0.1881
24210SOL    HW276036  10.133   1.818   3.025  2.6401  3.1718 -2.5752
24211SOL     OW76037   7.482   9.833   0.698  0.2909 -0.2185  0.1275
24211SOL    HW176038   7.433   9.872   0.626  0.5120 -2.2607 -1.1500
24211SOL    HW276039   7.457   9.885   0.775 -1.7664  0.4798 -0.9830
24212SOL     OW76040   7.614   6.208   2.497  0.6024  0.3013 -0.3496
24212SOL    HW176041   7.616   6.302   2.479  0.7859  0.3161 -0.2494
24212SOL    HW276042   7.628   6.167   2.412 -2.7401  0.3342 -0.9659
24213SOL     OW76043   2.986   7.110   0.858  0.1569 -0.2019 -0.5707
24213SOL    HW176044   2.892   7.098   0.844 -0.4392  1.1899  1.9163
24213SOL    HW276045   3.007   7.049   0.929  0.9781  0.0236 -0.6179
24214SOL     OW76046   7.963   7.928   0.125 -0.7565  0.1866 -0.5276
24214SOL    HW176047   7.879   7.973   0.124 -1.2850 -0.7693  0.3123
24214SOL    HW276048   7.953   7.856   0.063 -0.6385 -0.0851 -0.2309
24215SOL     OW76049   0.336   3.875   7.493 -0.2848 -0.0874 -0.1077
24215SOL    HW176050   0.324   3.903   7.402 -3.2637 -1.0641 -0.0803
24215SOL    HW276051   0.249   3.885   7.532  0.8769 -0.0180  2.5554
24216SOL     OW76052   1.807   1.900   7.797 -0.3618 -0.3984  0.4889
24216SOL    HW176053   1.815   1.919   7.704  2.4278 -1.2404  0.5100
24216SOL    HW276054   1.733   1.840   7.804  0.8141 -2.1489 -1.4910
24217SOL     OW76055   0.829   2.186   9.329  0.6301 -0.0054 -0.2002
24217SOL    HW176056   0.765   2.183   9.400 -0.2470 -0.2219 -0.9927
24217SOL    HW276057   0.913   2.200   9.373  0.0734  0.0333  0.8638
24218SOL     OW76058   1.018   6.713   8.562  0.2235  0.0380  0.7870
24218SOL    HW176059   0.975   6.797   8.545  1.1749  0.7091  1.6398
24218SOL    HW276060   1.068   6.695   8.483  0.3933  0.5097  0.7859
24219SOL     OW76061  10.434   4.281   0.109 -0.5403  0.3680  0.5320
24219SOL    HW176062  10.406   4.370   0.089  0.4312  0.4233 -0.6285
24219SOL    HW276063  10.396   4.227   0.040 -0.6728 -0.0525  0.9262
24220SOL     OW76064   5.555   1.497   8.505  0.2034 -0.6779  0.1834
24220SOL    HW176065   5.514   1.583   8.505  0.7446 -0.4129 -0.8239
24220SOL    HW276066   5.565   1.475   8.412  0.9638 -1.3919  0.4277
24221SOL     OW76067   2.660   4.110   6.242 -0.3982 -0.2704 -0.1245
24221SOL    HW176068   2.674   4.124   6.149  0.5625 -0.7707 -0.0544
24221SOL    HW276069   2.702   4.185   6.285 -2.5075  0.9800 -0.1801
24222SOL     OW76070   7.198   3.839   8.613 -0.0455  0.0291 -0.1019
24222SOL    HW176071   7.123   3.782   8.598 -0.4986  0.7879 -0.7552
24222SOL    HW276072   7.184   3.876   8.700 -0.5248  0.2991 -0.2908
24223SOL     OW76073   9.440   3.066  10.543  0.5084  0.1732 -0.4601
24223SOL    HW176074   9.377   2.996  10.527  0.4822  0.4030 -1.3795
24223SOL    HW276075   9.451   3.068  10.639 -0.6036 -0.1056 -0.3282
24224SOL     OW76076   5.258   8.708   3.638  0.1280 -0.3844 -0.2591
24224SOL    HW176077   5.271   8.803   3.633 -0.0105 -0.3848 -0.6180
24224SOL    HW276078   5.264   8.678   3.548  2.4905 -1.0344  0.0759
24225SOL     OW76079   9.849   9.740   2.386 -0.1873 -0.3482 -0.1341
24225SOL    HW176080   9.880   9.650   2.393  0.3282 -0.2266 -0.8192
24225SOL    HW276081   9.837   9.755   2.292  0.8299  0.6654 -0.1124
24226SOL     OW76082   7.371   9.395   9.727  0.0554  0.4700  0.1186
24226SOL    HW176083   7.299   9.365   9.782  0.5156  0.5671  0.7803
24226SOL    HW276084   7.445   9.403   9.787  0.4995  0.8008 -0.4707
24227SOL     OW76085   0.395   4.472   0.722  0.1155 -0.6204  1.0113
24227SOL    HW176086   0.458   4.540   0.748 -1.6018  0.5479  2.2644
24227SOL    HW276087   0.418   4.452   0.632  1.7089  0.4378  1.1442
24228SOL     OW76088   7.658   1.687   6.235  0.1678  0.0829  0.2982
24228SOL    HW176089   7.726   1.721   6.177 -1.2524  1.0229 -0.8613
24228SOL    HW276090   7.601   1.762   6.253 -0.0325 -0.4693  2.0221
24229SOL     OW76091   8.064   4.448   9.492 -0.4238  0.4134 -0.3009
24229SOL    HW176092   7.983   4.428   9.539 -0.8125  1.5407 -0.4731
24229SOL    HW276093   8.134   4.423   9.553 -0.8541 -2.0707 -0.7661
24230SOL     OW76094   6.850   9.890   7.497 -0.6224  0.0527 -0.1577
24230SOL    HW176095   6.913   9.851   7.437  1.8452  1.0548  1.6853
24230SOL    HW276096   6.805   9.815   7.536  1.9078 -0.8978  1.0701
24231SOL     OW76097   7.203  10.299   3.959  0.5372  0.2380 -0.1990
24231SOL    HW176098   7.168  10.388   3.948  0.1316  0.1477  0.3733
24231SOL    HW276099   7.163  10.249   3.887 -0.8645  0.0321  0.7136
24232SOL     OW76100   9.195   2.518   6.668  0.4658 -0.5571 -0.4976
24232SOL    HW176101   9.237   2.480   6.745  0.6167  0.9206  0.1805
24232SOL    HW276102   9.246   2.597   6.651 -1.5671  0.8705 -0.1265
24233SOL     OW76103  10.720   9.062  10.651 -0.2348  0.4724  0.2059
24233SOL    HW176104  10.720   9.080  10.745  1.1011  1.4382  0.0395
24233SOL    HW276105  10.645   9.112  10.617 -0.1171  0.9283  0.6097
24234SOL     OW76106   7.612   2.890   4.840  0.5640 -0.0850  0.3717
24234SOL    HW176107   7.582   2.954   4.775  1.4497 -0.4904 -0.4538
24234SOL    HW276108   7.592   2.931   4.924  0.4972  0.9877 -0.1461
24235SOL     OW76109  10.120   2.287   1.931 -0.4893 -0.4708  0.1888
24235SOL    HW176110  10.160   2.228   1.867 -0.9202 -1.4572  0.8163
24235SOL    HW276111  10.028   2.261   1.933 -0.4183 -0.6609  1.4371
24236SOL     OW76112   6.469   9.720   3.805 -0.0551 -0.1213 -0.3506
24236SOL    HW176113   6.493   9.633   3.773  0.1384  0.5135 -1.9737
24236SOL    HW276114   6.391   9.705   3.858  0.0342 -1.2899 -0.5322
24237SOL     OW76115  10.754   3.390  10.418  0.2754  0.0092 -0.4094
24237SOL    HW176116  10.813   3.317  10.436 -0.0203 -0.7804 -2.4325
24237SOL    HW276117  10.726   3.375  10.327  0.3318  2.7272 -0.9006
24238SOL     OW76118   1.112   6.241   6.509  0.5483  0.4123  0.2262
24238SOL    HW176119   1.117   6.167   6.448 -2.9784 -1.1315  1.6632
24238SOL    HW276120   1.033   6.288   6.481  0.0672  0.8570  2.2623
24239SOL     OW76121   9.786  10.428   9.156  0.3926  0.2295  0.4768
24239SOL    HW176122   9.838  10.448   9.079 -1.3920 -0.2509 -0.8785
24239SOL    HW276123   9.802  10.335   9.172 -0.1679  0.0457 -0.0319
24240SOL     OW76124   3.331   4.579   3.891  0.6436  0.5480  0.4781
24240SOL    HW176125   3.257   4.598   3.948 -0.4602  0.7571 -1.0127
24240SOL    HW276126   3.358   4.664   3.856 -0.0623  0.1737 -0.9949
24241SOL     OW76127   1.465   4.677   1.319 -0.0569  0.0873  0.3582
24241SOL    HW176128   1.549   4.663   1.275 -0.1066  0.6268  0.0942
24241SOL    HW276129   1.406   4.707   1.250 -1.5465 -3.9921 -0.3012
24242SOL     OW76130  10.076   9.894   5.568 -0.2484  0.2038  0.3063
24242SOL    HW176131  10.094   9.903   5.661  3.5311 -0.5951 -0.2597
24242SOL    HW276132  10.085   9.983   5.532 -2.5186  0.6603  0.7549
24243SOL     OW76133  10.683   9.930   5.986  0.0879  0.4847  0.1012
24243SOL    HW176134  10.620   9.870   6.026  0.0948 -0.4783 -1.2837
24243SOL    HW276135  10.765   9.913   6.033 -0.1454  0.1223  0.3795
24244SOL     OW76136   6.039   6.541   9.065  0.0695  0.0064  0.4833
24244SOL    HW176137   6.022   6.545   9.159  0.4135 -1.6579  0.6286
24244SOL    HW276138   5.952   6.537   9.025 -0.0718  0.5043  0.7396
24245SOL     OW76139   8.781   7.579   5.904 -0.4686 -0.2748  0.3085
24245SOL    HW176140   8.772   7.558   5.997 -0.0865  0.5025  0.5265
24245SOL    HW276141   8.818   7.499   5.865 -0.2304 -0.4535  0.8941
24246SOL     OW76142   0.333   7.181   6.547 -0.2737 -0.1938 -0.1169
24246SOL    HW176143   0.361   7.090   6.559  0.2488  0.0986  0.9514
24246SOL    HW276144   0.299   7.206   6.633 -1.3046  0.3243 -0.6693
24247SOL     OW76145   3.691   8.919   2.390 -0.5201  0.1652  0.5782
24247SOL    HW176146   3.689   8.995   2.332 -0.3472  0.9490  1.5759
24247SOL    HW276147   3.604   8.917   2.430 -0.1753  0.4959  1.3664
24248SOL     OW76148   9.767   5.235   6.488  0.6141 -0.7038 -0.0657
24248SOL    HW176149   9.719   5.259   6.409  1.2529  0.3942 -0.1315
24248SOL    HW276150   9.788   5.319   6.530  0.8892 -1.2455  0.8984
24249SOL     OW76151   4.231   5.476   8.049 -0.0337 -0.5974  0.1582
24249SOL    HW176152   4.166   5.445   7.985 -0.0421 -1.7336  0.7048
24249SOL    HW276153   4.183   5.484   8.131  0.0427  0.6013  0.0973
24250SOL     OW76154   4.279   4.465   3.061  0.5209  0.4665  0.2977
24250SOL    HW176155   4.184   4.453   3.058  0.5789  0.3480 -1.2936
24250SOL    HW276156   4.314   4.380   3.034  1.0716  0.7064  0.2719
24251SOL     OW76157   6.149   0.563   6.408 -0.3031 -0.1618  0.0077
24251SOL    HW176158   6.076   0.509   6.438 -1.1713  1.3655  0.7175
24251SOL    HW276159   6.149   0.639   6.467  1.9146 -0.1721  0.0725
24252SOL     OW76160   5.173   4.945   4.337 -0.6822  0.4058  0.1034
24252SOL    HW176161   5.133   4.973   4.255 -1.1807 -0.9330 -0.1380
24252SOL    HW276162   5.108   4.887   4.376  0.0549  0.0778  0.8536
24253SOL     OW76163   7.799   7.983   7.847  0.4735  0.1868 -0.2493
24253SOL    HW176164   7.752   8.033   7.914 -0.0624 -0.8168  0.1164
24253SOL    HW276165   7.800   8.042   7.771  1.5779  1.5624  0.7840
24254SOL     OW76166   8.981   2.962   2.432 -0.1737 -0.3066  0.0117
24254SOL    HW176167   9.063   2.914   2.444  0.1077  0.5032  1.3371
24254SOL    HW276168   8.968   3.011   2.513  0.0798  2.7113 -1.6940
24255SOL     OW76169   6.329   1.774   0.230 -0.1813  0.3091 -0.1147
24255SOL    HW176170   6.267   1.842   0.202  1.1688  1.1061 -1.2096
24255SOL    HW276171   6.361   1.804   0.315  0.8007  1.3183 -0.8324
24256SOL     OW76172   7.430   1.511   6.216  0.1375  0.0751 -0.0007
24256SOL    HW176173   7.497   1.562   6.262 -0.2120  1.6201 -1.1778
24256SOL    HW276174   7.473   1.483   6.135 -0.6329  1.1412 -0.7960
24257SOL     OW76175   8.143   8.843   9.079 -0.2586 -0.1569  0.2161
24257SOL    HW176176   8.131   8.781   9.151 -3.9997 -2.5300 -2.2864
24257SOL    HW276177   8.065   8.897   9.080  0.8636  1.5220 -0.4977
24258SOL     OW76178   4.353   8.154   3.723  0.1080 -0.6646  0.0922
24258SOL    HW176179   4.346   8.174   3.816 -0.5124  0.9323 -0.2685
24258SOL    HW276180   4.270   8.182   3.686  1.0214  0.4495 -1.2083
24259SOL     OW76181   4.655   2.040   8.206 -0.1750 -0.7607  0.1295
24259SOL    HW176182   4.743   2.071   8.226 -0.8433 -0.9425  3.7761
24259SOL    HW276183   4.598   2.111   8.233 -1.2290 -0.9948 -1.3886
24260SOL     OW76184   0.937   2.502   6.718  0.3261  0.2684 -0.7328
24260SOL    HW176185   0.986   2.423   6.698 -0.3943 -0.3682 -0.0679
24260SOL    HW276186   0.967   2.527   6.806 -0.8027 -0.3591 -0.1495
24261SOL     OW76187   3.562   6.899   7.847  0.0574 -0.4547  0.0442
24261SOL    HW176188   3.596   6.869   7.764 -0.9547 -0.9523 -0.2040
24261SOL    HW276189   3.623   6.865   7.913 -0.3984 -2.0102 -0.3273
24262SOL     OW76190   3.246   5.880   8.795 -0.0595 -0.1375 -1.3003
24262SOL    HW176191   3.266   5.791   8.823  1.6037 -0.1841 -2.4956
24262SOL    HW276192   3.256   5.933   8.874 -0.6918 -0.9573 -0.6620
24263SOL     OW76193   5.484   7.795   8.438 -0.2795  0.2756  0.3032
24263SOL    HW176194   5.461   7.885   8.415 -1.1270 -0.0265 -0.0507
24263SOL    HW276195   5.438   7.741   8.374  0.9857 -0.3763 -0.0686
24264SOL     OW76196   8.791   2.121   6.751 -0.0395  0.2772 -0.4389
24264SOL    HW176197   8.760   2.105   6.840 -1.0506 -1.2826 -1.0598
24264SOL    HW276198   8.728   2.183   6.714 -0.6741 -0.5101 -0.6786
24265SOL     OW76199  10.647   0.312   0.414 -0.3938  0.5122 -0.3857
24265SOL    HW176200  10.637   0.224   0.450 -0.3853  0.7962  0.3327
24265SOL    HW276201  10.736   0.338   0.440 -0.3740  0.7123 -0.6459
24266SOL     OW76202   8.809   3.131   2.658 -0.3076  0.4945 -0.0392
24266SOL    HW176203   8.793   3.062   2.723 -1.9745  1.0547  0.1582
24266SOL    HW276204   8.825   3.210   2.710  1.9528  0.2245 -0.2576
24267SOL     OW76205   5.464   6.410   6.837 -0.3116  0.1000 -0.3077
24267SOL    HW176206   5.390   6.379   6.785  0.5145  0.4117 -1.7156
24267SOL    HW276207   5.521   6.334   6.846 -0.6272 -0.0456  0.4570
24268SOL     OW76208   7.180   6.669   4.556  0.1028 -0.6446  0.0625
24268SOL    HW176209   7.098   6.633   4.521  0.4030 -1.1563 -0.1245
24268SOL    HW276210   7.222   6.594   4.599  0.5294 -0.4150  0.0446
24269SOL     OW76211   2.511   9.298   9.870 -0.8716 -0.0780 -0.0892
24269SOL    HW176212   2.457   9.350   9.810  0.6941 -0.6854 -2.0683
24269SOL    HW276213   2.596   9.291   9.826  0.6201  0.2600  2.6516
24270SOL     OW76214   2.374   4.292   0.453  0.0220  0.1413  0.1678
24270SOL    HW176215   2.463   4.323   0.468  0.6112 -1.5465  0.2788
24270SOL    HW276216   2.330   4.303   0.537  0.2631  0.5078  0.2486
24271SOL     OW76217   9.433   3.751   0.381  0.4479  0.1984 -0.2646
24271SOL    HW176218   9.388   3.826   0.419  1.0681  0.2914  0.2751
24271SOL    HW276219   9.468   3.703   0.456  2.7743  1.0714 -0.7596
24272SOL     OW76220   5.754   7.093   7.085  0.1488 -0.1199  0.6578
24272SOL    HW176221   5.816   7.112   7.155 -0.1324 -0.1972  0.9335
24272SOL    HW276222   5.674   7.066   7.131 -0.2751  0.5441  0.3277
24273SOL     OW76223   3.765   5.631   8.561 -0.1154 -0.1013 -1.1446
24273SOL    HW176224   3.746   5.644   8.654 -1.5064 -1.4900 -1.2227
24273SOL    HW276225   3.859   5.611   8.559 -0.0107  0.2339 -0.0767
24274SOL     OW76226   7.395   1.439   9.787 -0.5765 -0.4549 -0.0888
24274SOL    HW176227   7.477   1.411   9.745  0.4005  1.0406  0.7932
24274SOL    HW276228   7.329   1.428   9.719  0.8729  1.3028 -1.8560
24275SOL     OW76229   5.982   3.567   6.056 -0.2034  0.5987 -0.6418
24275SOL    HW176230   5.924   3.491   6.056 -0.7234  0.9843  0.4987
24275SOL    HW276231   5.995   3.587   6.149 -0.4034  2.1424 -0.9321
24276SOL     OW76232   8.898   3.226   9.918 -0.1475 -0.2567  0.7400
24276SOL    HW176233   8.810   3.246   9.885  0.0235  0.7582  0.8843
24276SOL    HW276234   8.922   3.146   9.872 -0.3550  0.5410 -0.8242
24277SOL     OW76235   6.936   0.470   6.299 -0.0187  1.2778 -0.3432
24277SOL    HW176236   6.852   0.491   6.340  0.0446  0.2642  0.3278
24277SOL    HW276237   6.918   0.391   6.247  1.0185 -0.2935  1.5939
24278SOL     OW76238   1.411   1.424   6.988  0.1565 -0.7406 -0.0133
24278SOL    HW176239   1.451   1.472   7.062 -1.7073 -0.1814  0.6482
24278SOL    HW276240   1.418   1.485   6.915 -0.3338 -0.2749  0.3254
24279SOL     OW76241   8.270   9.786   1.613  0.0552  0.3302  0.1249
24279SOL    HW176242   8.316   9.844   1.553  0.7672 -0.6545 -0.2942
24279SOL    HW276243   8.214   9.733   1.556 -0.7319  0.7191  0.5236
24280SOL     OW76244   5.671   3.041   1.880  0.2928  0.6045  0.1414
24280SOL    HW176245   5.685   2.970   1.942  0.6402  0.1157 -0.4887
24280SOL    HW276246   5.576   3.049   1.873  0.2544 -0.4065 -0.4737
24281SOL     OW76247   1.279   5.227   4.012 -0.4722 -0.2027 -0.1856
24281SOL    HW176248   1.184   5.222   4.025 -0.2890 -1.7552  0.6424
24281SOL    HW276249   1.316   5.203   4.097  0.6709 -0.4877 -0.7515
24282SOL     OW76250   8.666   4.725   4.923 -0.1062 -0.8027  0.0582
24282SOL    HW176251   8.607   4.734   4.849  0.5469 -1.1467 -0.5130
24282SOL    HW276252   8.721   4.803   4.919 -0.9945 -0.1091  1.0273
24283SOL     OW76253   7.863   1.151   2.684 -0.6702 -0.5912 -0.1921
24283SOL    HW176254   7.846   1.067   2.642  1.7497 -1.8769  1.3248
24283SOL    HW276255   7.841   1.137   2.776  0.9970  0.0269  0.3185
24284SOL     OW76256   1.853   0.409   9.379 -0.1302 -0.6506  0.3474
24284SOL    HW176257   1.941   0.378   9.359 -0.4144 -0.5575 -1.1067
24284SOL    HW276258   1.802   0.390   9.300 -0.9065  1.2374  0.3668
24285SOL     OW76259   1.108   3.332   2.272  0.0496  0.0713 -0.2082
24285SOL    HW176260   1.151   3.407   2.231  0.3797  1.3360  2.3430
24285SOL    HW276261   1.021   3.363   2.296  0.7549  0.2107  2.3473
24286SOL     OW76262   4.190  10.374   2.353 -0.2243 -0.3574 -0.3286
24286SOL    HW176263   4.272  10.330   2.373 -0.3289 -0.3547  0.1262
24286SOL    HW276264   4.155  10.327   2.277  0.7595  0.3937 -1.2495
24287SOL     OW76265   1.519   2.268   1.212 -0.3705  0.0492 -0.1775
24287SOL    HW176266   1.596   2.241   1.160  0.8810  2.0051  0.5952
24287SOL    HW276267   1.544   2.352   1.249 -3.5839  1.5975 -1.3422
24288SOL     OW76268   8.052   3.788  10.513  0.2056  0.1885  0.0235
24288SOL    HW176269   7.997   3.752  10.583  2.0885 -2.2324  0.2982
24288SOL    HW276270   8.056   3.720  10.447  1.8405  0.8404 -0.5801
24289SOL     OW76271   5.384   2.713   8.964  0.3181 -0.0682  0.0051
24289SOL    HW176272   5.364   2.695   9.056  0.3942 -0.5157 -0.0637
24289SOL    HW276273   5.460   2.657   8.945  0.8598  0.6836 -0.0807
24290SOL     OW76274   6.341   7.162   8.192 -0.1911 -0.0861  0.6615
24290SOL    HW176275   6.367   7.186   8.103  1.3924 -0.2695  1.0709
24290SOL    HW276276   6.303   7.074   8.183 -0.8378  0.2457  0.0486
24291SOL     OW76277   7.314   7.845   3.228 -0.5923 -0.5140  0.2886
24291SOL    HW176278   7.310   7.934   3.194  0.4319 -0.1360  1.1191
24291SOL    HW276279   7.392   7.807   3.188 -0.9409 -0.9881  0.0567
24292SOL     OW76280   2.742   4.764   5.434 -0.1102 -0.8033  0.1712
24292SOL    HW176281   2.767   4.752   5.526  0.0916  0.0761  0.2321
24292SOL    HW276282   2.790   4.695   5.388 -0.6976 -1.6457  0.8016
24293SOL     OW76283   9.749   0.622   0.721  0.2585  0.1526 -0.4952
24293SOL    HW176284   9.657   0.598   0.726 -0.1251  1.7787  0.8806
24293SOL    HW276285   9.748   0.711   0.685  1.3032  0.1259 -0.6039
24294SOL     OW76286   1.867   4.582   4.380  0.5238  1.1644 -0.1633
24294SOL    HW176287   1.960   4.560   4.370  0.8732  1.7792  1.5892
24294SOL    HW276288   1.860   4.671   4.347 -0.0377  0.1100 -3.0530
24295SOL     OW76289   1.491   9.209   0.748 -0.2203  0.1522  0.4462
24295SOL    HW176290   1.463   9.235   0.835  0.0591 -1.6618  1.1128
24295SOL    HW276291   1.459   9.119   0.739  1.4713 -0.3782 -0.5277
24296SOL     OW76292   4.357   1.743   7.033  0.1342 -0.5204  0.0545
24296SOL    HW176293   4.386   1.656   7.004 -1.2978 -0.9406 -0.1725
24296SOL    HW276294   4.302   1.726   7.109  2.7812  0.4893  2.2561
24297SOL     OW76295   7.819   3.054   2.779 -0.5702 -0.5788 -0.1190
24297SOL    HW176296   7.854   3.131   2.824 -0.3302  0.9862 -2.8847
24297SOL    HW276297   7.831   2.982   2.842  0.7654  1.3050  1.8516
24298SOL     OW76298   1.742   1.251   1.824  0.2564  0.1723 -0.0357
24298SOL    HW176299   1.784   1.257   1.910  0.2981  2.1815 -0.1649
24298SOL    HW276300   1.715   1.341   1.805  1.8753  0.1052 -2.9236
24299SOL     OW76301   8.920   5.360   0.340 -0.3921  0.4840  0.2712
24299SOL    HW176302   8.975   5.374   0.264 -1.5737  1.8899 -0.3496
24299SOL    HW276303   8.858   5.432   0.339 -0.7411  0.2662  2.2979
24300SOL     OW76304   0.805   2.382   5.280  0.2820  0.2367  0.4353
24300SOL    HW176305   0.738   2.350   5.220  0.1196  0.6096  0.4176
24300SOL    HW276306   0.872   2.313   5.280  0.5187  0.4605 -0.5594
24301SOL     OW76307   2.559   5.440   8.677 -0.1649 -0.1931  0.2769
24301SOL    HW176308   2.628   5.444   8.612  0.1390 -3.1630  0.3416
24301SOL    HW276309   2.598   5.478   8.756  1.7186 -2.5883  0.5499
24302SOL     OW76310   1.160   4.897   8.229 -0.7631  0.2842  0.0943
24302SOL    HW176311   1.223   4.827   8.214 -0.9101  0.3171 -0.7020
24302SOL    HW276312   1.100   4.892   8.155 -0.8339  1.1827  0.0788
24303SOL     OW76313   1.132   5.873   1.592  0.0007 -0.1726 -0.3632
24303SOL    HW176314   1.059   5.814   1.611  0.2819 -0.6582 -0.7881
24303SOL    HW276315   1.103   5.924   1.517  0.1799 -0.5017 -0.6537
24304SOL     OW76316   2.586   3.580   7.723  0.1425 -0.1446  0.3847
24304SOL    HW176317   2.657   3.553   7.665  0.1431  0.6553  0.0075
24304SOL    HW276318   2.596   3.675   7.731 -0.1050 -0.1927  1.3737
24305SOL     OW76319   7.391   3.211  10.929  0.0322  0.3060 -0.2249
24305SOL    HW176320   7.424   3.299  10.909  2.2534 -0.4887 -0.0788
24305SOL    HW276321   7.330   3.225  11.002 -1.0428  1.9440 -1.3770
24306SOL     OW76322   4.038   5.123   0.829  0.3428  0.8928 -0.2082
24306SOL    HW176323   4.040   5.215   0.857 -2.7788  0.1535  2.7630
24306SOL    HW276324   3.968   5.084   0.880  1.8142 -3.2818 -1.1766
24307SOL     OW76325   9.363  10.726   1.324  0.0038  0.0511  0.3565
24307SOL    HW176326   9.345  10.820   1.317 -1.0895 -0.3181 -2.0779
24307SOL    HW276327   9.329  10.702   1.410 -0.6897  1.6791  0.5523
24308SOL     OW76328   3.146   2.148   3.068  0.1463 -0.3425  0.0278
24308SOL    HW176329   3.066   2.101   3.044 -1.4852  2.1089  0.4985
24308SOL    HW276330   3.124   2.194   3.148  1.8133  0.9323 -0.2153
24309SOL     OW76331  10.609  10.623   4.272  0.0446  0.3388 -0.2516
24309SOL    HW176332  10.519  10.605   4.298 -0.3426  1.0966 -1.0090
24309SOL    HW276333  10.605  10.627   4.176  1.1863 -1.1793 -0.3671
24310SOL     OW76334   4.033   1.029   6.301 -0.0171  0.0899 -0.2714
24310SOL    HW176335   3.963   0.966   6.283 -0.8796  0.8127  0.4725
24310SOL    HW276336   4.007   1.109   6.255  0.7941  0.0831 -0.7583
24311SOL     OW76337   8.789   2.202  10.622  0.3457 -0.0106  0.4583
24311SOL    HW176338   8.816   2.200  10.530  0.5274  0.1939  0.5076
24311SOL    HW276339   8.704   2.245  10.621  0.3993  0.0933  0.4002
24312SOL     OW76340  10.758   9.704   4.614 -0.0535  0.0043  0.0753
24312SOL    HW176341  10.716   9.676   4.696  0.9928  1.4092  1.1270
24312SOL    HW276342  10.736   9.797   4.607 -1.4128 -0.4481 -2.0653
24313SOL     OW76343   8.606   3.592   4.914 -0.4086 -0.0957 -0.2623
24313SOL    HW176344   8.514   3.592   4.890 -0.3184  0.3945 -0.6198
24313SOL    HW276345   8.653   3.570   4.834 -0.2197 -0.4662 -0.0537
24314SOL     OW76346   8.944   7.248   3.007 -0.5568  0.1708  0.7649
24314SOL    HW176347   8.997   7.188   2.954 -0.7132 -0.1565  0.9772
24314SOL    HW276348   8.901   7.304   2.942  0.0128  0.4090  0.5916
24315SOL     OW76349   0.836   0.062   8.431  0.3029  0.2091 -0.1673
24315SOL    HW176350   0.758   0.075   8.484 -0.1588  0.4422 -0.8958
24315SOL    HW276351   0.882  -0.011   8.473 -0.1892  0.2209  0.3929
24316SOL     OW76352  10.613   7.160   6.949 -0.0279 -0.1459  0.7303
24316SOL    HW176353  10.699   7.160   6.906 -0.4603  2.0933 -0.1669
24316SOL    HW276354  10.571   7.080   6.917  0.9130 -0.1708 -0.5078
24317SOL     OW76355   5.675  10.127   1.258  0.1717 -0.4716 -0.1360
24317SOL    HW176356   5.733  10.152   1.187 -1.9110  2.7391 -0.8625
24317SOL    HW276357   5.676  10.203   1.317 -2.3467 -0.7678  0.3677
24318SOL     OW76358   4.491   1.728   8.500  0.5779  0.2941  0.2228
24318SOL    HW176359   4.470   1.652   8.445 -0.2711  0.4102  0.3763
24318SOL    HW276360   4.580   1.752   8.474  1.3121 -1.4813  1.0373
24319SOL     OW76361   3.476   7.658   1.824  0.3551 -0.0277 -0.6113
24319SOL    HW176362   3.397   7.704   1.852 -0.3165 -1.5488  0.0889
24319SOL    HW276363   3.451   7.615   1.743  0.5916 -0.1639 -0.6130
24320SOL     OW76364   0.430   2.258   7.890 -0.4883 -0.5729 -0.3187
24320SOL    HW176365   0.397   2.193   7.953  0.9899 -0.3111  0.7424
24320SOL    HW276366   0.423   2.342   7.937 -0.0827 -0.2822 -0.7772
24321SOL     OW76367   0.388   1.980   9.276 -0.4795  0.1146 -0.3223
24321SOL    HW176368   0.369   1.939   9.192 -0.2532  1.5102 -1.0572
24321SOL    HW276369   0.303   1.988   9.319 -1.2061  3.3395 -2.2311
24322SOL     OW76370   3.160   1.528   9.043  0.6719 -0.1077  0.2061
24322SOL    HW176371   3.158   1.499   9.134 -0.9510 -2.9585 -0.6770
24322SOL    HW276372   3.237   1.484   9.006 -1.4027 -2.9348 -0.9601
24323SOL     OW76373   8.295   0.964   9.738  0.0830  0.4491 -0.5058
24323SOL    HW176374   8.248   0.949   9.820 -0.9072 -2.9845 -1.6376
24323SOL    HW276375   8.245   0.916   9.672  0.6105  3.4828 -3.2559
24324SOL     OW76376   6.706   2.510   6.515 -0.2312 -0.7295 -0.6730
24324SOL    HW176377   6.662   2.425   6.507  1.1258 -1.5385  0.3749
24324SOL    HW276378   6.636   2.571   6.536 -0.8309 -2.0626  1.3385
24325SOL     OW76379   3.047   1.638   7.883  0.9311 -0.1839 -0.1449
24325SOL    HW176380   2.980   1.692   7.925 -0.2143  0.4473 -2.6863
24325SOL    HW276381   3.128   1.658   7.931 -0.3378  0.3983  1.7951
24326SOL     OW76382   7.645   4.168   5.382 -0.3513  0.5283 -0.1894
24326SOL    HW176383   7.724   4.151   5.433  0.4731 -0.5986 -1.7977
24326SOL    HW276384   7.648   4.104   5.311 -2.4353  0.8314 -0.5831
24327SOL     OW76385   5.422   0.804   7.081  0.3736 -0.1934 -0.5106
24327SOL    HW176386   5.365   0.776   7.009  0.1671 -0.1666 -0.3594
24327SOL    HW276387   5.507   0.766   7.061  0.5478  0.5728 -1.2541
24328SOL     OW76388   1.574   3.556   8.176 -0.3499  0.1047 -0.3798
24328SOL    HW176389   1.581   3.533   8.268  1.0427  0.0417 -0.4974
24328SOL    HW276390   1.480   3.570   8.162 -1.0615 -3.7430  0.0984
24329SOL     OW76391   4.584   1.344   8.520  0.6079 -0.4445 -0.8201
24329SOL    HW176392   4.646   1.416   8.529  0.0229 -0.1086  0.8295
24329SOL    HW276393   4.632   1.267   8.549  0.4780 -0.2951 -0.1942
24330SOL     OW76394   7.734   4.666   6.305  0.3543 -0.3660 -0.3042
24330SOL    HW176395   7.651   4.619   6.303  1.3420 -2.3823  2.0082
24330SOL    HW276396   7.785   4.620   6.371  3.1648  1.0968 -1.3773
24331SOL     OW76397   8.815   0.829   9.967 -0.1550  0.0312  0.1354
24331SOL    HW176398   8.779   0.754   9.920  2.2730 -0.3165 -1.2709
24331SOL    HW276399   8.738   0.880   9.993 -1.7985 -2.5477  0.5066
24332SOL     OW76400   4.917   3.253   6.750 -0.2316 -0.1455  0.1570
24332SOL    HW176401   4.913   3.158   6.755 -1.0423 -0.0935  0.6314
24332SOL    HW276402   5.008   3.275   6.769  0.0270 -0.8367 -0.2587
24333SOL     OW76403   3.038   0.697   9.172 -0.6024 -0.3747  0.2839
24333SOL    HW176404   3.097   0.708   9.246 -0.0087 -1.1145 -0.0769
24333SOL    HW276405   3.083   0.636   9.114 -1.8130 -1.1200  0.1102
24334SOL     OW76406   9.971   5.018   6.981  0.2407 -0.1401  0.3370
24334SOL    HW176407  10.065   5.032   6.972  0.2444 -0.2814  0.1241
24334SOL    HW276408   9.940   5.091   7.034  0.2784  0.5938 -0.6269
24335SOL     OW76409   0.259   7.467   7.476  0.0385  0.6817  0.4052
24335SOL    HW176410   0.255   7.385   7.524 -3.5595  0.8714  0.5696
24335SOL    HW276411   0.276   7.440   7.385  1.1336 -0.0582  0.8161
24336SOL     OW76412   8.404   0.553   7.864 -0.0131  0.7377 -0.0726
24336SOL    HW176413   8.347   0.505   7.924 -1.2464  1.1366 -0.9186
24336SOL    HW276414   8.370   0.532   7.777  0.3453  1.9825 -0.5184
24337SOL     OW76415   2.174   0.980   7.606  0.6127  0.5946  0.4342
24337SOL    HW176416   2.167   1.075   7.611  2.1512  0.6802  0.9685
24337SOL    HW276417   2.178   0.951   7.697 -1.4106 -0.1247  0.3279
24338SOL     OW76418   0.338   3.152   7.807  0.1285 -0.3954  0.1121
24338SOL    HW176419   0.368   3.131   7.895  0.0084  1.4923  0.6269
24338SOL    HW276420   0.403   3.113   7.749  2.7759  2.2885  1.1565
24339SOL     OW76421   4.895   9.706   1.573 -0.1330  0.4341  0.4411
24339SOL    HW176422   4.836   9.756   1.517  1.1640  1.3036 -0.1504
24339SOL    HW276423   4.875   9.614   1.553  1.2484  0.7218 -2.4558
24340SOL     OW76424   4.756   5.225   7.454  0.0136  0.4068 -0.4207
24340SOL    HW176425   4.761   5.141   7.501 -1.3329  0.6641  0.2028
24340SOL    HW276426   4.759   5.201   7.362 -0.1449 -0.3147 -0.2431
24341SOL     OW76427   0.379   6.618   9.929 -0.0384  0.7111  0.1774
24341SOL    HW176428   0.465   6.605   9.889  0.3766  4.1391 -0.1907
24341SOL    HW276429   0.396   6.615  10.023  0.3568  0.6756  0.1084
24342SOL     OW76430   7.861   1.374   4.941  0.3407  0.1471 -0.5816
24342SOL    HW176431   7.938   1.360   4.886  0.6293  0.7245 -0.3203
24342SOL    HW276432   7.791   1.327   4.895  0.3573  1.4364 -1.9763
24343SOL     OW76433   8.198   7.073   8.711 -0.4337 -0.0685  0.3052
24343SOL    HW176434   8.137   7.146   8.726 -1.7666 -1.5394  2.3379
24343SOL    HW276435   8.277   7.097   8.760 -0.5329  0.4193  0.2307
24344SOL     OW76436   5.773   9.015   4.143 -0.0668 -0.1378 -0.5319
24344SOL    HW176437   5.685   9.045   4.165 -0.2914 -1.7723  0.8807
24344SOL    HW276438   5.777   9.020   4.047 -0.9039  2.0487 -0.4794
24345SOL     OW76439   2.463   9.138   1.812  0.3151  0.7310 -0.1605
24345SOL    HW176440   2.432   9.227   1.798 -1.5325 -0.0679 -1.3676
24345SOL    HW276441   2.442   9.092   1.730  0.8535 -0.9070  0.6016
24346SOL     OW76442   4.814   3.109   5.722 -0.7167  0.5527 -0.3102
24346SOL    HW176443   4.855   3.188   5.756 -1.6884  1.5098 -1.3142
24346SOL    HW276444   4.749   3.086   5.788 -0.5465  0.6919 -0.0930
24347SOL     OW76445   1.436  10.761   8.462  0.1898 -0.6883  0.6874
24347SOL    HW176446   1.343  10.747   8.444  0.3152  0.0075 -0.5767
24347SOL    HW276447   1.479  10.681   8.432  0.2141 -0.1883 -0.6716
24348SOL     OW76448   9.261   1.440   0.819 -0.0230  0.5670 -0.2606
24348SOL    HW176449   9.227   1.487   0.896 -0.6938  1.4087 -1.0607
24348SOL    HW276450   9.343   1.401   0.849 -1.3242 -0.8968  1.5063
24349SOL     OW76451   6.698   0.380   7.693  0.6919  0.5758  0.8808
24349SOL    HW176452   6.688   0.376   7.788  0.4174 -0.2319  0.8171
24349SOL    HW276453   6.617   0.342   7.658  0.8336  0.7738  0.3223
24350SOL     OW76454   2.579   2.292   8.259  0.2163  0.5615  0.1006
24350SOL    HW176455   2.527   2.368   8.231  0.5361  0.6420 -0.2833
24350SOL    HW276456   2.633   2.325   8.331  1.6850  1.1880 -1.2584
24351SOL     OW76457   9.217   1.115   0.839 -0.3681  0.7221  0.5015
24351SOL    HW176458   9.277   1.146   0.770  0.1705 -0.2868  0.5013
24351SOL    HW276459   9.145   1.178   0.838  0.2803  1.4681 -0.0883
24352SOL     OW76460   7.844   1.854   6.098  0.3885 -0.2014  0.1036
24352SOL    HW176461   7.867   1.833   6.008 -1.0633 -1.1365 -0.0689
24352SOL    HW276462   7.789   1.932   6.091  0.1270 -0.3793  0.1551
24353SOL     OW76463   5.671   4.797   8.633  0.2111 -0.0967 -0.0899
24353SOL    HW176464   5.702   4.735   8.567  0.3074 -1.0042  0.7890
24353SOL    HW276465   5.578   4.807   8.615 -0.4955 -2.9137  1.6483
24354SOL     OW76466   8.022   7.730  10.489 -0.4053  0.0045 -0.4751
24354SOL    HW176467   8.063   7.814  10.468 -0.8356  0.2552 -0.3042
24354SOL    HW276468   7.929   7.750  10.501 -0.4464 -0.4253 -0.0465
24355SOL     OW76469   8.049   7.087   0.696 -0.4217 -0.2787  0.2497
24355SOL    HW176470   8.080   6.996   0.693  0.3427 -0.0320  0.7001
24355SOL    HW276471   7.954   7.079   0.709 -0.2478 -0.9957  1.0795
24356SOL     OW76472   8.224   1.412   9.008  0.6545 -0.1419 -0.0607
24356SOL    HW176473   8.162   1.418   9.080  0.9764  1.3434  0.0999
24356SOL    HW276474   8.265   1.326   9.019  0.5189 -0.0336  1.3764
24357SOL     OW76475   6.863   4.825   0.124  0.7007  0.0727  0.3881
24357SOL    HW176476   6.812   4.905   0.112  0.8095 -0.3727 -3.4752
24357SOL    HW276477   6.898   4.833   0.213 -0.5049  3.5777  0.6465
24358SOL     OW76478   6.187   8.179   0.216  0.3245  0.1339 -0.4619
24358SOL    HW176479   6.112   8.122   0.196  1.4282 -1.0816 -1.2572
24358SOL    HW276480   6.263   8.130   0.184  1.2868  2.1728 -1.4091
24359SOL     OW76481   7.157   8.789   1.155 -0.8643  0.3248 -0.1310
24359SOL    HW176482   7.167   8.865   1.096  1.3012 -0.5324 -0.9300
24359SOL    HW276483   7.111   8.823   1.231 -1.4647  2.0566 -1.2530
24360SOL     OW76484   3.838   7.600   9.238  0.6854  0.6610  0.6698
24360SOL    HW176485   3.789   7.631   9.162  2.4209 -0.2997 -0.9028
24360SOL    HW276486   3.782   7.619   9.313 -0.2556  3.3314 -0.6702
24361SOL     OW76487   0.792   4.825   3.072 -0.4673  0.0075  0.0866
24361SOL    HW176488   0.816   4.918   3.068 -1.7512  0.3593  0.3963
24361SOL    HW276489   0.712   4.823   3.125  0.0933 -1.3880  0.9045
24362SOL     OW76490   5.137   7.450   7.312  0.1791 -0.6635  0.0036
24362SOL    HW176491   5.055   7.438   7.264 -1.2289  3.5113  1.1498
24362SOL    HW276492   5.180   7.523   7.268  1.6947 -0.6983  1.4002
24363SOL     OW76493   7.725   9.617   2.647 -0.2316  0.1223 -0.0197
24363SOL    HW176494   7.799   9.678   2.637  0.7010 -1.2475 -1.5829
24363SOL    HW276495   7.739   9.577   2.733  0.5992  0.2078 -0.1104
24364SOL     OW76496   1.957   1.058   9.203 -0.4517 -0.6539 -0.3153
24364SOL    HW176497   1.864   1.074   9.188 -0.7018 -2.2567 -0.6239
24364SOL    HW276498   1.993   1.043   9.116  0.2731  0.8406 -0.2735
24365SOL     OW76499   3.974   9.847   4.492  0.5558  0.0443 -0.5250
24365SOL    HW176500   3.949   9.794   4.568 -1.4597  0.5488 -0.8270
24365SOL    HW276501   4.047   9.798   4.452  0.8161 -0.8573  1.0090
24366SOL     OW76502   6.945   4.764   3.982 -0.0481  0.1126  0.4396
24366SOL    HW176503   6.936   4.825   3.909 -1.9696  1.6193  1.8974
24366SOL    HW276504   6.995   4.691   3.946 -0.3081  1.1750 -2.1568
24367SOL     OW76505   2.292   8.722   5.514 -0.4767  0.2190  0.0833
24367SOL    HW176506   2.315   8.651   5.454  0.3419  1.0500 -0.5998
24367SOL    HW276507   2.226   8.684   5.572 -0.2088 -1.0294 -0.4172
24368SOL     OW76508   7.809   9.803   3.524  0.3789  0.3334 -0.2827
24368SOL    HW176509   7.745   9.798   3.453 -1.3543  0.3254  1.2589
24368SOL    HW276510   7.883   9.751   3.493 -0.7245 -0.4098 -1.7163
24369SOL     OW76511   0.460   7.388   4.767  0.0974  0.3919  0.2683
24369SOL    HW176512   0.403   7.461   4.789  0.9125  0.9460  0.5968
24369SOL    HW276513   0.405   7.327   4.719 -0.7348  0.9621  0.5002
24370SOL     OW76514   9.863   3.804   3.197  0.1596  1.4713 -1.0263
24370SOL    HW176515   9.912   3.781   3.118  1.9552  0.6153  0.3255
24370SOL    HW276516   9.857   3.900   3.194  2.6514  1.6509 -0.7868
24371SOL     OW76517   8.919   4.258   1.117 -0.1638 -0.0685  0.7685
24371SOL    HW176518   8.833   4.269   1.157  0.1373 -0.7499  1.6148
24371SOL    HW276519   8.971   4.212   1.183  1.2797  1.5788  0.7944
24372SOL     OW76520   2.183   4.839   7.021 -0.6807 -0.0077  0.1889
24372SOL    HW176521   2.185   4.811   6.930  0.3395 -1.1856  0.5535
24372SOL    HW276522   2.185   4.934   7.017 -0.5658 -0.0590 -1.0238
24373SOL     OW76523   9.320   7.948   7.418  0.2770  0.0912  0.2736
24373SOL    HW176524   9.384   8.006   7.459 -0.8517  1.2309  0.4951
24373SOL    HW276525   9.333   7.960   7.324  1.7254 -1.2181  0.3017
24374SOL     OW76526   1.364   4.909   3.598  0.5653  0.4679 -0.4130
24374SOL    HW176527   1.440   4.860   3.631  0.5976 -0.8345 -2.3089
24374SOL    HW276528   1.307   4.842   3.561 -0.0354  1.7378 -1.8395
24375SOL     OW76529   3.267   7.751   2.592 -0.6247 -0.4781 -0.3941
24375SOL    HW176530   3.363   7.745   2.585 -0.6643 -0.7280 -0.7192
24375SOL    HW276531   3.244   7.690   2.662 -0.3776  0.8995  0.9198
24376SOL     OW76532   2.619   2.910   6.474  0.2721 -0.6562 -0.5094
24376SOL    HW176533   2.590   2.820   6.483 -1.1521 -0.2608 -0.9414
24376SOL    HW276534   2.709   2.904   6.443  0.6862 -1.9217  0.9069
24377SOL     OW76535   0.384   0.987   8.818  0.3280 -0.1022  0.1532
24377SOL    HW176536   0.473   0.978   8.854  0.9466  1.5141 -0.9263
24377SOL    HW276537   0.348   0.898   8.821  1.1963 -0.4165  2.5760
24378SOL     OW76538   1.874  10.123   9.051  0.1593  0.5264 -0.1719
24378SOL    HW176539   1.792  10.154   9.090 -0.5032  0.5366 -1.5687
24378SOL    HW276540   1.922  10.203   9.029  0.7148  0.5201  0.9652
24379SOL     OW76541   3.470   0.839   1.243 -0.1845  0.7607 -0.0702
24379SOL    HW176542   3.473   0.923   1.197  1.1489  1.3811  1.1335
24379SOL    HW276543   3.378   0.829   1.269 -1.2929 -0.2920 -4.0821
24380SOL     OW76544   3.166   0.850   2.368  0.5100 -0.1763 -0.0591
24380SOL    HW176545   3.115   0.928   2.392 -1.1799 -0.6480 -1.9581
24380SOL    HW276546   3.236   0.883   2.312 -0.4147 -0.0420 -1.1532
24381SOL     OW76547   9.450   1.101   8.276 -0.3703  0.2027 -0.9845
24381SOL    HW176548   9.493   1.044   8.339  0.3385 -0.7945 -2.3312
24381SOL    HW276549   9.521   1.138   8.224 -0.9493  0.9435 -1.2625
24382SOL     OW76550   8.726   8.482   8.273 -0.0255  0.6471 -0.1340
24382SOL    HW176551   8.766   8.466   8.187 -1.2222  1.5709 -0.8700
24382SOL    HW276552   8.801   8.492   8.332  0.8123  0.2852 -1.1162
24383SOL     OW76553   6.785   1.392  10.758  0.3316  0.0212 -0.2970
24383SOL    HW176554   6.768   1.476  10.801 -0.3480  0.0132 -0.5353
24383SOL    HW276555   6.807   1.415  10.668 -0.1891 -0.0721 -0.4501
24384SOL     OW76556   6.439   8.216   5.661 -0.0111  0.2088 -0.5405
24384SOL    HW176557   6.399   8.231   5.747  0.2000 -1.7252 -0.0838
24384SOL    HW276558   6.391   8.274   5.602 -1.5156  0.0776  0.5248
24385SOL     OW76559   9.056   8.479   1.239  0.3699  0.2941 -0.5662
24385SOL    HW176560   9.109   8.452   1.315  1.8614 -0.2503 -1.7765
24385SOL    HW276561   9.074   8.573   1.230 -0.8439  0.6475  0.5436
24386SOL     OW76562   1.561   5.518   6.310  0.4064 -0.3067  0.2550
24386SOL    HW176563   1.545   5.438   6.360 -1.5690 -0.7726 -1.0822
24386SOL    HW276564   1.482   5.570   6.321  0.5802  0.2618 -1.1303
24387SOL     OW76565   6.671   9.892   0.021  0.6138  0.0120 -0.0942
24387SOL    HW176566   6.613   9.925   0.089  0.8591  0.7629 -0.2452
24387SOL    HW276567   6.615   9.886  -0.057  0.4924 -0.2314  0.0099
24388SOL     OW76568   2.736   8.524   4.305 -0.1434 -0.3187  0.2158
24388SOL    HW176569   2.793   8.583   4.255 -0.5824  1.1332  1.4021
24388SOL    HW276570   2.770   8.436   4.285  0.3568  0.3029 -1.7625
24389SOL     OW76571   4.799   1.649   8.002 -0.5933  0.0672  0.2508
24389SOL    HW176572   4.804   1.730   7.950 -0.8740  0.5701  1.0006
24389SOL    HW276573   4.851   1.586   7.953  2.2791  1.5546  1.2327
24390SOL     OW76574   8.250   3.601   3.630 -0.1542 -0.1375 -0.8384
24390SOL    HW176575   8.187   3.557   3.572  0.6575  0.2619 -2.0513
24390SOL    HW276576   8.335   3.571   3.599  0.3113  0.6171 -0.2802
24391SOL     OW76577   2.155  10.727   9.104  0.9542 -0.1801 -0.9450
24391SOL    HW176578   2.109  10.810   9.113  1.8471  0.4035 -1.7591
24391SOL    HW276579   2.142  10.703   9.012 -0.4110 -1.5970 -0.4103
24392SOL     OW76580   2.570   8.938   4.381 -0.3549  0.0289 -0.0019
24392SOL    HW176581   2.484   8.966   4.414 -1.0357 -2.5398  0.4795
24392SOL    HW276582   2.558   8.928   4.287 -0.0803  1.3170 -0.1957
24393SOL     OW76583  10.055   8.927   4.422  0.1162  0.2844 -0.1331
24393SOL    HW176584  10.037   9.005   4.369 -0.2959  1.5396  1.7912
24393SOL    HW276585  10.145   8.939   4.452 -0.6068  1.0265  1.7927
24394SOL     OW76586   0.184   0.981   3.107  0.6869  0.2315  0.0742
24394SOL    HW176587   0.135   1.060   3.082 -1.2554 -0.3208  1.9761
24394SOL    HW276588   0.227   1.005   3.189  0.3023 -0.5847  0.5212
24395SOL     OW76589   3.194   7.371   8.583  0.2140  0.0021  0.0230
24395SOL    HW176590   3.256   7.399   8.650  1.0327  0.1672 -0.7810
24395SOL    HW276591   3.235   7.294   8.544 -0.5174 -0.4219  0.0865
24396SOL     OW76592   9.149   0.415   3.286  0.3312 -0.2331  0.1509
24396SOL    HW176593   9.066   0.368   3.277  1.1397 -1.9471  1.3126
24396SOL    HW276594   9.157   0.433   3.380  0.5548  1.2523 -0.1517
24397SOL     OW76595   2.305  10.649   3.974  0.2488 -0.5037 -0.8973
24397SOL    HW176596   2.315  10.609   4.061 -1.6978 -1.8133 -1.2243
24397SOL    HW276597   2.389  10.634   3.931  1.2148  0.0908  0.7195
24398SOL     OW76598   1.750   2.211   0.643 -0.2565  0.4279 -0.2726
24398SOL    HW176599   1.790   2.280   0.590 -0.9350  0.7537 -0.3609
24398SOL    HW276600   1.737   2.138   0.582 -0.6086  0.6359 -0.4459
24399SOL     OW76601   0.756   5.606   3.972  0.2115 -0.2470 -0.5447
24399SOL    HW176602   0.673   5.651   3.989  0.3182 -0.1345 -0.3199
24399SOL    HW276603   0.730   5.526   3.927 -0.2299 -1.3724  1.6318
24400SOL     OW76604   0.423   1.619   6.830 -0.2354  0.0521  0.8029
24400SOL    HW176605   0.446   1.527   6.842 -0.0292  0.0674  0.5351
24400SOL    HW276606   0.335   1.617   6.791 -0.1976 -0.0314  0.7230
24401SOL     OW76607   1.299   3.823   8.732 -0.8781 -0.0306 -0.0466
24401SOL    HW176608   1.300   3.754   8.800 -0.0347 -0.7005 -0.7239
24401SOL    HW276609   1.319   3.903   8.780  2.2217 -0.8600  0.1491
24402SOL     OW76610   3.976   4.588   2.491 -0.8087 -0.1832  0.2828
24402SOL    HW176611   4.057   4.586   2.542 -0.7104 -0.0470  0.1303
24402SOL    HW276612   3.978   4.672   2.447  0.8882 -1.7689 -2.8188
24403SOL     OW76613   2.450   3.248   4.404  0.1751  0.1764  0.3209
24403SOL    HW176614   2.361   3.248   4.368 -0.0582 -3.3296  0.7245
24403SOL    HW276615   2.446   3.186   4.477  3.0265 -0.3394  0.0864
24404SOL     OW76616   0.074   0.091   7.400  0.1475  0.1268 -0.0843
24404SOL    HW176617   0.165   0.063   7.396  0.2082  0.4630 -1.3425
24404SOL    HW276618   0.057   0.130   7.314 -1.1924  0.0360  0.1257
24405SOL     OW76619   6.908   9.398   4.110 -0.1482  0.1615  0.3278
24405SOL    HW176620   6.863   9.339   4.171 -1.1784 -0.8159 -1.3044
24405SOL    HW276621   6.998   9.367   4.109 -0.6211 -1.2613 -0.3199
24406SOL     OW76622   1.129   6.132  10.516 -0.4016  0.1814  0.2574
24406SOL    HW176623   1.171   6.199  10.570 -0.5012  1.8302 -1.6301
24406SOL    HW276624   1.042   6.167  10.499 -1.0174 -1.1789  0.5140
24407SOL     OW76625   6.873   4.744   9.460 -0.3806 -0.3238  0.2079
24407SOL    HW176626   6.833   4.686   9.525  0.2251 -0.2782  0.6347
24407SOL    HW276627   6.882   4.828   9.505  1.2017 -0.6309  0.5090
24408SOL     OW76628   2.467  10.554   0.941  0.7512  0.1305 -0.1407
24408SOL    HW176629   2.510  10.553   0.855  2.8779  1.0688  0.8829
24408SOL    HW276630   2.533  10.519   1.001 -0.6036 -0.1794  1.1745
24409SOL     OW76631   5.611   5.802  10.100  0.1920 -1.1175  0.2582
24409SOL    HW176632   5.521   5.795  10.068  0.4162 -0.5969 -0.4902
24409SOL    HW276633   5.664   5.756  10.035  0.6996  0.3642 -0.4097
24410SOL     OW76634   7.832   9.563   4.770  0.6601  0.3362  0.5016
24410SOL    HW176635   7.747   9.536   4.804  1.0763 -1.0441  0.4526
24410SOL    HW276636   7.892   9.552   4.844  0.8695  0.9767  0.4344
24411SOL     OW76637   7.871  10.684   6.327  0.7867 -0.2600  0.9519
24411SOL    HW176638   7.909  10.706   6.242  0.1800  0.9040  0.9734
24411SOL    HW276639   7.910  10.600   6.350  2.3070  0.2696  0.3508
24412SOL     OW76640  10.401   7.013   5.099  0.1595 -0.4093  0.5408
24412SOL    HW176641  10.486   7.024   5.055 -0.1759 -0.1490 -0.0615
24412SOL    HW276642  10.423   7.001   5.191  0.9725 -2.6633  0.0882
24413SOL     OW76643   0.341   1.040   7.973 -0.0305 -0.0635 -0.0802
24413SOL    HW176644   0.344   1.057   7.879 -1.4112 -1.0967 -0.3278
24413SOL    HW276645   0.333   0.945   7.980 -2.4755  0.1937  1.0057
24414SOL     OW76646   7.626   3.886   5.656  0.0790 -0.3064  0.3157
24414SOL    HW176647   7.563   3.881   5.728 -1.1400 -2.7458 -0.8379
24414SOL    HW276648   7.711   3.888   5.698 -0.7268  1.5834  1.8807
24415SOL     OW76649   7.566   7.954   8.133 -0.1671  0.1970 -0.4324
24415SOL    HW176650   7.474   7.976   8.145 -0.1887 -0.1759  0.1296
24415SOL    HW276651   7.614   8.023   8.179 -0.2028 -0.2351  0.2705
24416SOL     OW76652   9.245   2.637   3.156 -0.3506 -0.4181 -0.5543
24416SOL    HW176653   9.202   2.563   3.112 -0.3189 -0.1815 -0.9788
24416SOL    HW276654   9.172   2.689   3.191 -0.4106 -0.0504 -1.2210
24417SOL     OW76655   6.039   3.906  10.583  0.1597  0.4814  0.0922
24417SOL    HW176656   6.076   3.834  10.531 -1.7394 -0.1028 -0.4987
24417SOL    HW276657   6.039   3.872  10.673 -0.8422 -0.3113 -0.2008
24418SOL     OW76658   3.966   7.003  10.633 -0.1196 -0.3846 -0.4490
24418SOL    HW176659   3.974   6.971  10.543  0.6035  1.5583 -1.0900
24418SOL    HW276660   3.949   6.924  10.685  3.3247 -2.0672 -1.7562
24419SOL     OW76661   0.849   2.195   3.772 -0.1277  0.7784  0.2599
24419SOL    HW176662   0.893   2.128   3.720  2.4549  0.9799  2.1092
24419SOL    HW276663   0.773   2.220   3.719  0.4463 -1.5486 -1.7506
24420SOL     OW76664   4.896   9.050   1.525  0.4667  0.1319 -0.4201
24420SOL    HW176665   4.922   9.106   1.597  0.9737  0.0066 -0.5080
24420SOL    HW276666   4.951   8.972   1.533  0.8163  0.2954 -1.1844
24421SOL     OW76667   0.298   9.212   4.874  0.7989  0.0691 -0.1712
24421SOL    HW176668   0.214   9.219   4.829  0.4718 -2.2963  0.0162
24421SOL    HW276669   0.334   9.301   4.872 -1.9289  1.2233  0.2012
24422SOL     OW76670   7.961   5.353   7.650  0.1884 -0.4152  0.0305
24422SOL    HW176671   8.047   5.388   7.670  0.7118  0.3048 -3.1900
24422SOL    HW276672   7.971   5.258   7.656  0.9046 -0.2920  0.7773
24423SOL     OW76673   2.172   9.501   6.227 -0.3098 -0.1577  0.0403
24423SOL    HW176674   2.215   9.424   6.190  1.1062  0.2849  0.7429
24423SOL    HW276675   2.080   9.491   6.203  0.1964 -1.0691 -1.5464
24424SOL     OW76676   1.519   0.783   5.505  0.2823 -0.1407 -0.1213
24424SOL    HW176677   1.542   0.761   5.415  1.2074 -0.8957  0.3023
24424SOL    HW276678   1.595   0.758   5.557  0.6521  2.3112  0.6148
24425SOL     OW76679   2.042   2.038   1.585 -0.0933  0.7603  0.2427
24425SOL    HW176680   2.026   1.959   1.637  0.6822  0.8873  0.6921
24425SOL    HW276681   2.034   2.109   1.648  1.2768  0.8877  0.2972
24426SOL     OW76682   3.139   7.028   8.687  0.2660 -0.2169 -0.0478
24426SOL    HW176683   3.143   6.984   8.772 -1.0119 -0.0667  0.1032
24426SOL    HW276684   3.227   7.017   8.650 -0.4109 -4.1792 -0.6704
24427SOL     OW76685   9.058   9.768   4.247 -0.0371 -0.0787 -0.3652
24427SOL    HW176686   8.989   9.820   4.289 -0.3874  0.1069 -1.1648
24427SOL    HW276687   9.012   9.718   4.180  0.1830 -1.9430  0.8504
24428SOL     OW76688   9.699   2.306   1.222 -0.4319  0.3251  0.4402
24428SOL    HW176689   9.777   2.253   1.242 -0.2939  0.7927  1.1730
24428SOL    HW276690   9.651   2.255   1.158  0.3939 -0.0567  0.1166
24429SOL     OW76691   7.473   2.017   8.285 -0.5920  0.4009 -0.3372
24429SOL    HW176692   7.472   2.106   8.321  0.9998  0.3507 -0.0980
24429SOL    HW276693   7.458   2.029   8.191  0.3641  1.0091 -0.4238
24430SOL     OW76694   0.303   9.339   5.874 -0.3521 -0.1249 -0.6173
24430SOL    HW176695   0.395   9.351   5.851 -0.8061  1.3928 -1.6971
24430SOL    HW276696   0.303   9.263   5.932  1.5645 -0.2192 -0.7002
24431SOL     OW76697   6.094   1.929   4.154 -0.3119 -0.4237  0.2611
24431SOL    HW176698   6.044   1.962   4.079 -0.1985  0.1538  0.4440
24431SOL    HW276699   6.118   2.006   4.204  0.0750 -0.7671  0.6122
24432SOL     OW76700   0.497   5.948   4.669 -0.2679 -0.3891 -0.2789
24432SOL    HW176701   0.450   6.027   4.696 -0.9099 -0.9068  0.1356
24432SOL    HW276702   0.474   5.883   4.735 -0.0060 -1.0210 -0.8086
24433SOL     OW76703   6.914   2.561   4.458  0.0720 -0.6282  0.0857
24433SOL    HW176704   6.840   2.622   4.464  0.6386 -0.0431  1.1735
24433SOL    HW276705   6.880   2.480   4.495  0.0067 -0.3109  0.7479
24434SOL     OW76706   8.780   2.138  10.013 -0.1289  0.0075 -0.4807
24434SOL    HW176707   8.871   2.109  10.016 -0.2706 -0.3886 -0.1813
24434SOL    HW276708   8.786   2.234  10.015  0.1746 -0.0362  2.1836
24435SOL     OW76709  10.802  10.783   0.518 -0.8040  0.5057  0.5244
24435SOL    HW176710  10.867  10.770   0.587  1.2134  0.2372 -1.3564
24435SOL    HW276711  10.761  10.696   0.507  0.6770 -0.0905 -0.3630
24436SOL     OW76712   9.397   5.826   3.737 -0.4443 -0.3042 -0.2449
24436SOL    HW176713   9.326   5.799   3.678 -1.5999  0.7998  0.6077
24436SOL    HW276714   9.378   5.780   3.819  0.8154 -1.3654 -0.5430
24437SOL     OW76715   6.649   3.862   8.743  0.2457  0.1136  0.1390
24437SOL    HW176716   6.686   3.910   8.817 -1.2834  0.0535  0.9698
24437SOL    HW276717   6.595   3.794   8.784  0.4897 -0.8072 -1.0349
24438SOL     OW76718   1.145   2.214   7.450  0.2866  0.0475  0.3927
24438SOL    HW176719   1.216   2.152   7.431 -1.4879 -1.1223 -2.9036
24438SOL    HW276720   1.190   2.296   7.470  2.6242 -1.4852  1.6863
24439SOL     OW76721   9.989   9.615   3.865 -0.2294  0.6276  0.1418
24439SOL    HW176722   9.905   9.659   3.880 -0.2724  1.3766 -2.1709
24439SOL    HW276723   9.975   9.563   3.786  1.0815 -0.3574  0.5402
24440SOL     OW76724   6.924   9.408   9.109 -0.4046  0.2798 -0.3021
24440SOL    HW176725   6.843   9.448   9.078 -1.4540 -0.4667  1.3974
24440SOL    HW276726   6.942   9.451   9.192 -0.2133 -0.9955  0.3407
24441SOL     OW76727   9.381  10.127   8.647  0.1425 -0.3289  0.1834
24441SOL    HW176728   9.453  10.124   8.583 -1.0017 -0.2582 -1.1390
24441SOL    HW276729   9.325  10.199   8.617  0.0600  0.2883  1.7973
24442SOL     OW76730   3.126   9.240   6.654  0.3343 -0.1299  0.2534
24442SOL    HW176731   3.092   9.329   6.659  3.2170  1.0288  0.4890
24442SOL    HW276732   3.167   9.234   6.568  1.6544 -0.6112  0.8858
24443SOL     OW76733   6.902   4.723   4.485  0.4717  0.3053  0.4321
24443SOL    HW176734   6.905   4.761   4.397  1.5962  0.0700  0.3589
24443SOL    HW276735   6.886   4.629   4.470  0.8811  0.2308  0.4753
24444SOL     OW76736   4.297   8.199   0.315 -0.0369 -0.0778  0.0640
24444SOL    HW176737   4.228   8.179   0.251  0.4785 -0.4493 -0.3746
24444SOL    HW276738   4.274   8.147   0.392 -1.7228  1.8114  0.8835
24445SOL     OW76739   6.785   6.577   6.421 -0.2690  0.4540 -0.5552
24445SOL    HW176740   6.804   6.662   6.381  0.0453 -0.1421 -1.6867
24445SOL    HW276741   6.722   6.537   6.362 -2.1407  0.8093  1.1529
24446SOL     OW76742   9.064   9.724   7.932 -0.3302 -0.1015  0.0309
24446SOL    HW176743   9.025   9.784   7.996 -0.3200 -0.3730  0.2968
24446SOL    HW276744   8.998   9.655   7.921  0.1872 -0.7194  0.7092
24447SOL     OW76745   6.242   9.096   8.926  0.6018 -0.6100  0.5328
24447SOL    HW176746   6.252   9.129   8.837  0.2024 -0.3870  0.5713
24447SOL    HW276747   6.275   9.167   8.982  0.9168 -0.7763  0.5580
24448SOL     OW76748  10.344   1.903   2.733  0.3635  0.8209  0.2057
24448SOL    HW176749  10.278   1.860   2.787  2.1508 -2.7096 -0.2923
24448SOL    HW276750  10.337   1.861   2.648  2.3767  1.3360 -0.2401
24449SOL     OW76751   1.157   8.850   7.764  0.5242 -0.5638  0.4816
24449SOL    HW176752   1.166   8.883   7.675 -1.1427  0.0370  0.5365
24449SOL    HW276753   1.180   8.757   7.757 -2.1543 -1.1503 -1.0788
24450SOL     OW76754   4.905   4.940   3.650 -0.1252 -0.0598  0.7667
24450SOL    HW176755   4.997   4.918   3.640 -0.0747 -0.7308  2.5621
24450SOL    HW276756   4.901   5.034   3.632  0.5335 -0.4289 -1.4619
24451SOL     OW76757   7.044   3.543   5.526  0.0025 -0.2241 -0.0676
24451SOL    HW176758   6.987   3.541   5.603  0.6086 -1.5043  0.3563
24451SOL    HW276759   7.007   3.612   5.471 -0.3643  0.7941  1.4213
24452SOL     OW76760   2.266   4.302   0.704  0.3547 -0.2080  0.2963
24452SOL    HW176761   2.250   4.374   0.765 -2.7662 -0.6909  0.1279
24452SOL    HW276762   2.252   4.223   0.757  2.9683 -0.7594  0.2731
24453SOL     OW76763  10.714   5.359  10.788  0.1952 -0.7468  0.1338
24453SOL    HW176764  10.712   5.452  10.765  0.9536  0.1340  3.2733
24453SOL    HW276765  10.625   5.340  10.817  0.3589 -0.6310  0.7259
24454SOL     OW76766   6.291   3.827   0.201 -0.2334  0.3276 -0.2404
24454SOL    HW176767   6.297   3.756   0.265 -0.1156  1.0573  0.5670
24454SOL    HW276768   6.381   3.838   0.169  0.0556  1.2717  0.9021
24455SOL     OW76769   5.005   5.882   7.645 -1.0197 -0.4008  0.2376
24455SOL    HW176770   4.971   5.927   7.567 -0.6423 -0.8029 -0.1631
24455SOL    HW276771   4.963   5.796   7.643 -1.7010 -0.0844  0.9738
24456SOL     OW76772  10.131   1.351   4.171  1.2467  0.0541 -0.3051
24456SOL    HW176773  10.123   1.287   4.101  2.3605 -0.1533 -0.2474
24456SOL    HW276774  10.097   1.432   4.133  0.3851 -0.4173 -0.5661
24457SOL     OW76775   0.068   2.212   4.269  0.1157 -0.2705 -0.3614
24457SOL    HW176776   0.114   2.287   4.305 -0.5814 -0.3224  0.6491
24457SOL    HW276777   0.092   2.139   4.327 -0.8057 -0.4076 -0.1440
24458SOL     OW76778  10.599   6.768   5.257  0.1448 -0.0181  0.4021
24458SOL    HW176779  10.598   6.828   5.332 -1.3780  0.7543 -0.2046
24458SOL    HW276780  10.666   6.805   5.198 -0.9176  1.2504 -0.0591
24459SOL     OW76781   0.727   4.736   1.814 -0.7210  0.0487 -0.0410
24459SOL    HW176782   0.750   4.692   1.896  0.1988  2.3037  0.9601
24459SOL    HW276783   0.805   4.730   1.760 -0.2450  1.2652  0.4858
24460SOL     OW76784   7.383   6.705   1.090  0.3330  0.7260  0.6115
24460SOL    HW176785   7.466   6.658   1.081 -0.7936 -0.9301 -1.5453
24460SOL    HW276786   7.400   6.792   1.054  0.9097  0.1097 -0.6250
24461SOL     OW76787  10.064   5.294   8.063  0.1240  0.0920 -0.4610
24461SOL    HW176788  10.029   5.287   8.151  0.4109 -0.7271 -0.4084
24461SOL    HW276789  10.113   5.377   8.062 -0.1691  0.2687  0.0372
24462SOL     OW76790   8.059   5.765   5.451  0.2334 -0.5530  0.1788
24462SOL    HW176791   8.039   5.782   5.359 -1.1195  0.7130  0.6726
24462SOL    HW276792   8.111   5.841   5.478 -1.4330  0.2937  1.0726
24463SOL     OW76793   6.501   6.052   1.555 -0.5103  0.4417  0.4131
24463SOL    HW176794   6.532   6.110   1.486 -1.5490  0.0876 -0.3732
24463SOL    HW276795   6.574   6.044   1.616  1.0473 -0.6821 -1.5697
24464SOL     OW76796   4.783  10.472   2.421 -0.2989  0.0898  0.1045
24464SOL    HW176797   4.790  10.465   2.326  0.1490  0.7934  0.0800
24464SOL    HW276798   4.819  10.390   2.454  3.0494  1.3127 -0.2217
24465SOL     OW76799   7.608   4.833   2.262  0.4101  0.4164  0.3842
24465SOL    HW176800   7.582   4.907   2.316  1.3788  0.9423  0.1506
24465SOL    HW276801   7.551   4.761   2.290 -2.0383  1.8209 -0.9486
24466SOL     OW76802   0.758   4.284   3.519 -0.1773 -0.2642 -0.4955
24466SOL    HW176803   0.754   4.278   3.424 -0.1479 -1.6040 -0.4262
24466SOL    HW276804   0.670   4.313   3.545 -0.2886 -0.2276 -0.9098
24467SOL     OW76805   7.280   2.546   5.296 -0.3618  0.0721  0.0820
24467SOL    HW176806   7.259   2.638   5.283  1.8767  0.5573 -0.3549
24467SOL    HW276807   7.361   2.547   5.347  0.7570 -1.6356 -1.6211
24468SOL     OW76808   0.204   1.860   0.798  0.0729  0.3696  0.1761
24468SOL    HW176809   0.122   1.887   0.757 -0.1371  0.8155  0.8838
24468SOL    HW276810   0.184   1.777   0.840 -0.2601  0.9157  1.1085
24469SOL     OW76811   5.256   0.284   0.694 -0.4246  0.3868 -0.7279
24469SOL    HW176812   5.180   0.230   0.718 -0.4014  0.1079 -1.2686
24469SOL    HW276813   5.299   0.303   0.777 -0.8314  0.1667 -0.4617
24470SOL     OW76814  10.030   4.507   3.184 -0.2588  0.2730 -0.2304
24470SOL    HW176815   9.983   4.433   3.223 -2.5135  1.8108  0.0664
24470SOL    HW276816  10.060   4.475   3.099  0.0206 -1.4026  0.4766
24471SOL     OW76817  10.719   4.515   8.478 -0.5161 -0.3002 -0.0033
24471SOL    HW176818  10.706   4.596   8.527  2.2022  0.3810 -0.3215
24471SOL    HW276819  10.734   4.449   8.546  0.5356  0.1219  0.1904
24472SOL     OW76820   1.725   3.385   9.035 -0.4159  0.5821  0.1969
24472SOL    HW176821   1.701   3.419   8.949  0.4439  0.2104 -0.1865
24472SOL    HW276822   1.665   3.430   9.095 -2.1101 -0.3584 -0.7455
24473SOL     OW76823   7.333  10.692   8.602  0.1890  0.0938  0.3052
24473SOL    HW176824   7.357  10.661   8.515 -0.4267  1.7197 -0.4747
24473SOL    HW276825   7.242  10.665   8.613  0.1456  0.2268  0.2769
24474SOL     OW76826  10.050   3.959   1.223  0.3948 -0.4729 -0.4294
24474SOL    HW176827  10.086   3.891   1.280  0.1202  0.3020  0.6875
24474SOL    HW276828  10.109   3.961   1.148  1.8502 -0.2202  0.7054
24475SOL     OW76829   6.975   2.844   7.674  0.1738  0.1158  0.3349
24475SOL    HW176830   6.904   2.891   7.718  0.6931  1.1818  0.0421
24475SOL    HW276831   6.934   2.808   7.595 -0.0203  0.8070  0.1162
24476SOL     OW76832   8.473   9.183   5.541  0.0681  0.2190 -0.3173
24476SOL    HW176833   8.503   9.201   5.631 -0.9542 -0.9558  0.2810
24476SOL    HW276834   8.552   9.193   5.487  0.9843 -0.3512  0.8831
24477SOL     OW76835   3.528   7.224   1.405 -1.1978  0.2757  0.4621
24477SOL    HW176836   3.441   7.211   1.367 -0.5103  0.7951 -1.3350
24477SOL    HW276837   3.515   7.290   1.473 -1.9139  1.6490 -0.9662
24478SOL     OW76838   7.102   0.793   7.116  0.4921  0.2401  0.3452
24478SOL    HW176839   7.163   0.719   7.121  0.0169 -0.1755  0.1088
24478SOL    HW276840   7.140   0.860   7.171 -0.1397 -0.9621  2.2950
24479SOL     OW76841   4.028   1.651   3.170 -0.7064 -0.1727 -0.5151
24479SOL    HW176842   4.035   1.566   3.128 -2.1438 -0.6891  0.2824
24479SOL    HW276843   4.018   1.631   3.263 -0.6064  0.8783 -0.2751
24480SOL     OW76844   6.687   2.047   8.120 -0.7260 -0.8928  0.0683
24480SOL    HW176845   6.717   2.029   8.031  0.1323 -1.5265  0.4702
24480SOL    HW276846   6.731   2.128   8.144 -0.7964 -0.8307 -0.0140
24481SOL     OW76847   4.301   7.984   8.586  0.1929  0.4303 -0.2542
24481SOL    HW176848   4.341   8.070   8.571 -0.0187  0.7206  0.7616
24481SOL    HW276849   4.365   7.936   8.639 -0.7058  0.8473  1.2512
24482SOL     OW76850   5.340   7.100   2.464  0.4416  0.5858  0.1740
24482SOL    HW176851   5.319   7.186   2.500 -0.8704 -0.6048  2.3438
24482SOL    HW276852   5.409   7.066   2.520 -0.1598 -0.4232  0.3293
24483SOL     OW76853   1.920   8.436   5.263 -0.4328 -0.1569  0.4259
24483SOL    HW176854   1.968   8.483   5.196 -1.0723 -0.0650  0.0309
24483SOL    HW276855   1.828   8.455   5.245 -0.5782  0.4591  1.7537
24484SOL     OW76856   0.304   9.872   4.521  0.1803  0.1783  0.5861
24484SOL    HW176857   0.341   9.846   4.436  0.7953 -1.3809  1.3194
24484SOL    HW276858   0.210   9.873   4.507  0.1894 -1.6035  0.2901
24485SOL     OW76859   5.388   3.328   7.462  0.1771  0.1256  0.1950
24485SOL    HW176860   5.422   3.382   7.390  1.5847 -0.4123  0.4421
24485SOL    HW276861   5.447   3.253   7.466 -1.3708 -1.1126  0.2981
24486SOL     OW76862  10.228   9.390   3.832  0.0949  0.0005  0.0212
24486SOL    HW176863  10.278   9.471   3.837 -1.5203  1.0005  0.1292
24486SOL    HW276864  10.254   9.342   3.912  1.2392  0.2702 -0.1695
24487SOL     OW76865   5.766   0.727   2.321  0.1128  0.1416  0.7740
24487SOL    HW176866   5.753   0.822   2.331 -2.4683 -0.4000  3.0761
24487SOL    HW276867   5.856   0.712   2.347  0.4078  1.8931  0.8402
24488SOL     OW76868   2.517   5.320   8.207 -0.6725  0.5449  0.1742
24488SOL    HW176869   2.464   5.371   8.147  0.0405 -2.1753 -2.8749
24488SOL    HW276870   2.607   5.348   8.190 -0.6999  1.9977  2.2341
24489SOL     OW76871   9.999   6.700  10.078  0.9572 -0.7288 -0.6845
24489SOL    HW176872  10.046   6.727  10.157 -1.4667  2.0486 -0.1150
24489SOL    HW276873  10.051   6.735  10.006  1.3655 -0.2957 -0.1848
24490SOL     OW76874   1.724  10.716   4.504  0.1361 -0.2549  0.2833
24490SOL    HW176875   1.674  10.642   4.471 -0.2249  0.7829 -1.5790
24490SOL    HW276876   1.808  10.678   4.532 -0.6005 -1.5687  0.7511
24491SOL     OW76877   9.436   1.592   2.851  0.0084  0.3886 -0.1024
24491SOL    HW176878   9.358   1.547   2.818  1.0454 -0.3604 -1.5996
24491SOL    HW276879   9.404   1.677   2.880 -1.8140 -0.9040  1.8327
24492SOL     OW76880   7.105  10.723   1.424  0.5512  0.1809 -0.2090
24492SOL    HW176881   7.140  10.666   1.355  0.0224  1.2964 -1.4241
24492SOL    HW276882   7.051  10.787   1.377 -0.6712  0.3266  1.3438
24493SOL     OW76883   4.125   1.751   1.970  0.3660  0.0182  0.1250
24493SOL    HW176884   4.191   1.800   2.018 -0.0591  1.3988 -0.6792
24493SOL    HW276885   4.083   1.695   2.036  1.8170 -0.3117  0.7757
24494SOL     OW76886   9.597   9.465   2.641 -0.1633 -0.4627  0.0224
24494SOL    HW176887   9.608   9.377   2.605 -1.1509  0.0543 -1.5644
24494SOL    HW276888   9.573   9.519   2.566 -1.9814  0.7003  1.3986
24495SOL     OW76889  10.751   9.435  10.129 -0.8292 -0.2957  0.4511
24495SOL    HW176890  10.675   9.412  10.181  0.6599 -3.1316  1.4462
24495SOL    HW276891  10.727   9.414  10.039 -2.5192  2.3469  0.2211
24496SOL     OW76892   0.569   1.582   4.826  0.5565  0.6510 -0.2375
24496SOL    HW176893   0.489   1.533   4.844  0.5000  0.3299 -1.3254
24496SOL    HW276894   0.638   1.534   4.873  0.9084 -1.9020 -3.1636
24497SOL     OW76895   4.878   3.465   0.808  0.0259 -0.0274  0.0120
24497SOL    HW176896   4.845   3.544   0.853  1.2132 -0.0374  0.9145
24497SOL    HW276897   4.962   3.447   0.850  0.3251 -1.0792 -1.0254
24498SOL     OW76898   6.108   2.582   6.410 -0.4528  0.3569  0.2409
24498SOL    HW176899   6.017   2.612   6.417 -0.1114  1.6559 -0.7153
24498SOL    HW276900   6.142   2.628   6.334  1.1900  0.3548  0.9639
24499SOL     OW76901   6.616   4.658   3.482 -0.2739  0.2414  0.5411
24499SOL    HW176902   6.673   4.610   3.542 -0.5972 -2.4034 -1.2179
24499SOL    HW276903   6.659   4.743   3.470  1.6381 -0.5555  1.6535
24500SOL     OW76904   4.295  10.736   3.747  0.2089 -0.1437  0.2001
24500SOL    HW176905   4.371  10.677   3.745 -0.7211 -1.3248 -1.9097
24500SOL    HW276906   4.308  10.794   3.672 -1.1000 -0.5416 -0.3393
24501SOL     OW76907   5.039   7.678   8.408  0.2067  0.5263 -0.5091
24501SOL    HW176908   4.953   7.692   8.448  0.7098  1.8612  0.1175
24501SOL    HW276909   5.062   7.762   8.370  0.6002 -0.2199 -1.9683
24502SOL     OW76910   9.953   6.433   3.304 -0.0596  0.2261 -0.0468
24502SOL    HW176911   9.977   6.462   3.217  0.2366  0.2261  0.0328
24502SOL    HW276912  10.036   6.407   3.345 -0.4631 -2.2180 -0.6604
24503SOL     OW76913   7.477   9.946   6.029  0.3215  0.4514  0.3525
24503SOL    HW176914   7.461   9.923   6.121  0.4352 -0.7959  0.0633
24503SOL    HW276915   7.534   9.877   5.996 -2.3298 -0.9194 -1.5537
24504SOL     OW76916   7.267   5.017   0.447  0.1279  0.1480  0.0422
24504SOL    HW176917   7.314   4.942   0.484 -1.9541 -0.9325  0.5410
24504SOL    HW276918   7.192   4.978   0.402 -1.3666  1.9726  0.9223
24505SOL     OW76919   0.277   7.182   4.689 -0.0064 -0.2919 -0.5988
24505SOL    HW176920   0.306   7.097   4.656  0.3192  0.2823 -1.8170
24505SOL    HW276921   0.183   7.171   4.704 -0.1716 -0.5581 -1.7704
24506SOL     OW76922   2.869   6.011   4.633 -0.1306 -0.5844 -0.2083
24506SOL    HW176923   2.810   5.967   4.573  1.8890 -2.5136 -0.8499
24506SOL    HW276924   2.929   5.942   4.662  0.9958  1.0420  1.3976
24507SOL     OW76925   1.816   5.779   2.227  0.5559 -0.3394  0.3456
24507SOL    HW176926   1.846   5.825   2.148  0.6535 -1.6820 -0.4017
24507SOL    HW276927   1.721   5.788   2.225  0.4297 -1.7474 -0.7947
24508SOL     OW76928  10.495   6.696   7.818  0.3697  0.5493 -0.2658
24508SOL    HW176929  10.422   6.757   7.818  0.4343  0.6868  2.0146
24508SOL    HW276930  10.457   6.613   7.844  1.0131  0.6250  0.9500
24509SOL     OW76931   6.303   0.495   8.262 -0.0717  0.3714  0.1526
24509SOL    HW176932   6.225   0.441   8.248 -0.5792  1.4050 -1.1085
24509SOL    HW276933   6.373   0.432   8.279 -0.7449 -0.6856 -0.8658
24510SOL     OW76934   7.131   1.595   8.818 -0.3428 -0.0600 -0.5269
24510SOL    HW176935   7.173   1.627   8.738 -0.2156  1.6677  0.2129
24510SOL    HW276936   7.038   1.608   8.803 -0.2035  2.1186  0.3696
24511SOL     OW76937   0.484   4.029   4.710  0.3868 -0.2963  0.4454
24511SOL    HW176938   0.422   3.958   4.727 -0.2149  0.3563  1.0277
24511SOL    HW276939   0.469   4.091   4.781  3.0851 -1.0410  1.7493
24512SOL     OW76940   3.424   7.620   1.555  0.0304  0.1075  0.0068
24512SOL    HW176941   3.385   7.683   1.493 -0.6707  1.1982  1.5140
24512SOL    HW276942   3.444   7.543   1.502  0.3182  1.3706 -1.7570
24513SOL     OW76943   9.410   8.153   4.259  0.0801  0.4792 -0.4127
24513SOL    HW176944   9.484   8.117   4.308 -0.2668  1.7131  1.0514
24513SOL    HW276945   9.430   8.132   4.168  3.0748  2.1583 -0.2417
24514SOL     OW76946   4.924   6.874   8.150 -0.4351  0.1078  0.2278
24514SOL    HW176947   5.015   6.875   8.120 -0.9504 -2.2764 -1.5671
24514SOL    HW276948   4.926   6.921   8.233  1.9074  2.6666 -1.1980
24515SOL     OW76949   9.292   8.298  10.497 -0.3028  0.0632  0.4651
24515SOL    HW176950   9.325   8.226  10.551 -0.9347 -1.1673 -0.7346
24515SOL    HW276951   9.346   8.295  10.418  1.3576  2.5464  1.4506
24516SOL     OW76952   8.311   5.412   2.412  0.4930 -0.0342  0.2236
24516SOL    HW176953   8.308   5.507   2.400  0.3103 -0.1546 -0.7209
24516SOL    HW276954   8.259   5.377   2.339  1.5044 -0.9067 -0.0856
24517SOL     OW76955   6.445   8.159   1.195 -0.0488  0.1329  0.4283
24517SOL    HW176956   6.501   8.104   1.250  0.5952  1.9877  1.6937
24517SOL    HW276957   6.364   8.169   1.246  0.4960  1.7478  1.0159
24518SOL     OW76958  10.852   0.564   1.774  0.4920 -0.6223  0.1389
24518SOL    HW176959  10.893   0.595   1.693  0.5890  0.9093  0.7547
24518SOL    HW276960  10.869   0.634   1.837 -1.5816 -0.7404  0.8706
24519SOL     OW76961   1.452   8.756   2.707 -0.1878  0.0593  0.2456
24519SOL    HW176962   1.404   8.684   2.665  1.5964 -0.5679 -0.7719
24519SOL    HW276963   1.542   8.725   2.712  1.2748  3.4277 -3.0982
24520SOL     OW76964   1.199   2.578   9.143  0.7242 -0.1460  0.2106
24520SOL    HW176965   1.279   2.615   9.181  0.5584  0.6037 -0.1635
24520SOL    HW276966   1.168   2.645   9.083 -0.2655 -0.3778  0.4567
24521SOL     OW76967   3.404   0.228   2.583  0.1830 -0.3675 -0.4718
24521SOL    HW176968   3.345   0.269   2.646  1.1469 -1.4269  1.1757
24521SOL    HW276969   3.400   0.134   2.604  0.9221 -0.6781 -1.6564
24522SOL     OW76970   4.737   6.312   4.492  0.4426  0.5891 -0.0134
24522SOL    HW176971   4.832   6.319   4.488  0.4909  0.6701  1.0595
24522SOL    HW276972   4.718   6.285   4.582 -0.5718  1.0667 -0.0653
24523SOL     OW76973   1.578   7.780   7.300  0.7249  0.0061 -0.3538
24523SOL    HW176974   1.554   7.695   7.339 -0.0234  0.2575 -0.2649
24523SOL    HW276975   1.674   7.781   7.304  0.7269 -0.6862 -0.0347
24524SOL     OW76976   7.800   7.093   7.241 -0.0841 -0.0836 -0.0708
24524SOL    HW176977   7.873   7.155   7.236 -1.0763  1.0345 -0.9563
24524SOL    HW276978   7.786   7.065   7.151  0.8570 -2.2049  0.4323
24525SOL     OW76979   5.313   1.960   2.983  0.6894  0.2488 -0.5339
24525SOL    HW176980   5.258   2.027   2.941 -1.1371 -0.8657  0.0355
24525SOL    HW276981   5.352   1.913   2.909  0.0277  0.3627 -0.9691
24526SOL     OW76982   0.751   7.549   2.869  0.1243 -0.2938 -0.2266
24526SOL    HW176983   0.810   7.599   2.925  0.8765 -0.8357 -0.5366
24526SOL    HW276984   0.664   7.567   2.905  0.7567 -2.2037  2.3746
24527SOL     OW76985  10.896   8.640   8.166 -0.0723  0.0932  0.3346
24527SOL    HW176986  10.957   8.661   8.237  0.7223  2.6803 -1.0511
24527SOL    HW276987  10.948   8.648   8.086 -1.5890 -0.2256 -0.7003
24528SOL     OW76988  10.069   4.093   5.268  0.2418 -0.4110 -0.1607
24528SOL    HW176989  10.058   4.125   5.358 -4.3577  0.1946 -0.7964
24528SOL    HW276990  10.107   4.167   5.221  0.0362  0.2610  0.7147
24529SOL     OW76991   2.780   8.715   5.514  0.4216  0.2993 -0.4070
24529SOL    HW176992   2.756   8.710   5.606  0.9402  3.4733 -0.0530
24529SOL    HW276993   2.699   8.739   5.469 -0.2934 -3.1234 -1.0896
24530SOL     OW76994   7.204   8.683   1.452 -0.8841 -0.1154 -0.5859
24530SOL    HW176995   7.202   8.757   1.513  1.1778  0.1717 -0.8212
24530SOL    HW276996   7.117   8.682   1.412 -1.4475  1.1972  0.5766
24531SOL     OW76997   3.640   0.779  10.383 -0.1948 -0.1931  0.0541
24531SOL    HW176998   3.713   0.759  10.324 -1.4338 -1.6911 -1.0256
24531SOL    HW276999   3.674   0.761  10.471  0.7118 -1.0022 -0.4519
24532SOL     OW77000   4.942   7.291   7.936 -0.4990 -0.1379  0.4437
24532SOL    HW177001   4.986   7.216   7.896 -1.7896 -0.7771  0.2102
24532SOL    HW277002   4.888   7.327   7.866 -2.3173 -0.9048  1.4375
24533SOL     OW77003   6.990   7.437   5.164  0.1197 -0.0638 -0.2247
24533SOL    HW177004   6.916   7.452   5.105  0.3465 -0.0350 -0.5036
24533SOL    HW277005   7.047   7.378   5.115  1.9543  2.6073 -1.4375
24534SOL     OW77006   8.055   2.579   2.596  0.0870 -0.1599 -0.2678
24534SOL    HW177007   8.130   2.636   2.612 -1.2650  1.5427  0.1025
24534SOL    HW277008   8.055   2.518   2.670 -1.2123  2.3693  1.8932
24535SOL     OW77009   9.442   0.223   8.807  0.0538 -0.0294 -0.3194
24535SOL    HW177010   9.451   0.314   8.835 -1.0274  0.7041 -2.2544
24535SOL    HW277011   9.501   0.214   8.733  0.8821 -1.1892  0.4675
24536SOL     OW77012   7.697  10.000   2.159 -0.6993  0.2987 -0.4629
24536SOL    HW177013   7.731   9.974   2.073  0.2354 -0.3946  0.1024
24536SOL    HW277014   7.675   9.917   2.201 -0.5401  0.6015  0.2154
24537SOL     OW77015   5.283   7.463   1.034  0.2476  0.3274 -0.7779
24537SOL    HW177016   5.265   7.454   0.940 -0.2930  0.4276 -0.6806
24537SOL    HW277017   5.282   7.557   1.050 -2.7251  0.2176 -0.0647
24538SOL     OW77018   3.197   3.594   1.431  0.6925  1.0189 -0.2698
24538SOL    HW177019   3.238   3.566   1.349  0.2642 -1.2770  0.2542
24538SOL    HW277020   3.261   3.571   1.499  0.0729  0.7470  0.2325
24539SOL     OW77021   7.185  10.010   2.134 -0.4126 -0.1002 -0.5857
24539SOL    HW177022   7.246  10.047   2.069 -0.1676 -0.5208 -0.5938
24539SOL    HW277023   7.228   9.930   2.164 -0.5407  0.0770  0.0701
24540SOL     OW77024   6.623   1.247   2.532 -0.2910  0.1342  0.1478
24540SOL    HW177025   6.670   1.242   2.449  0.1936  1.6856  0.3088
24540SOL    HW277026   6.573   1.329   2.526 -1.8056 -0.7279  0.5950
24541SOL     OW77027   7.223   2.736   6.624  0.3988  0.2141  0.7252
24541SOL    HW177028   7.144   2.768   6.580  0.4074 -0.6940  0.0442
24541SOL    HW277029   7.275   2.815   6.641 -0.6985  0.8238  1.2695
24542SOL     OW77030   4.331   3.761  10.597  0.1551  0.0341 -0.0420
24542SOL    HW177031   4.322   3.714  10.680 -0.5305  1.5891  0.7727
24542SOL    HW277032   4.422   3.790  10.596 -0.1784  1.1620  0.8098
24543SOL     OW77033   5.622   3.131   0.288  0.0100  0.1542  0.3683
24543SOL    HW177034   5.614   3.208   0.232  0.2477 -0.4356 -0.4937
24543SOL    HW277035   5.629   3.058   0.227 -0.3974 -0.5691  1.1827
24544SOL     OW77036   1.375   6.119   9.390 -0.0584  0.1775 -0.3705
24544SOL    HW177037   1.430   6.154   9.320  1.0611 -1.5253 -0.3922
24544SOL    HW277038   1.371   6.025   9.372 -0.7262 -0.1101  1.1900
24545SOL     OW77039   9.928   7.839   9.024 -0.1668  0.1828  0.6053
24545SOL    HW177040   9.961   7.825   9.113 -1.2035  0.6731  1.0765
24545SOL    HW277041   9.893   7.753   8.998 -0.1257  0.1157  0.7729
24546SOL     OW77042   5.650   9.956  10.041  0.4811  0.5170  0.0775
24546SOL    HW177043   5.572   9.970   9.988  0.6349 -0.8252 -0.5117
24546SOL    HW277044   5.644  10.021  10.111 -0.1619  1.7037 -1.0824
24547SOL     OW77045   3.110   9.781  10.148 -0.4832  0.1061  0.2632
24547SOL    HW177046   3.091   9.723  10.075 -0.1009 -0.2169  0.4209
24547SOL    HW277047   3.089   9.729  10.226 -1.1695  0.5489  0.3790
24548SOL     OW77048   1.294   5.384   0.178  0.2392  0.3892 -0.7562
24548SOL    HW177049   1.284   5.311   0.238 -1.3327 -0.0124 -1.4989
24548SOL    HW277050   1.315   5.344   0.094  1.4022  0.9057 -0.7376
24549SOL     OW77051   1.907   6.992   6.793  0.1153  0.0078 -0.0617
24549SOL    HW177052   1.815   7.017   6.781 -0.3910 -2.9572 -3.1732
24549SOL    HW277053   1.904   6.901   6.823  2.0444  0.6826  2.3841
24550SOL     OW77054   9.248   5.583   1.343  0.3623  0.5097 -0.1627
24550SOL    HW177055   9.158   5.552   1.335  0.2828  0.9290 -1.0069
24550SOL    HW277056   9.283   5.579   1.254  0.6538  1.8984 -0.1194
24551SOL     OW77057   9.375   3.557   4.145  0.2482 -0.4110 -0.0878
24551SOL    HW177058   9.434   3.617   4.190  1.2800 -1.9608  0.6664
24551SOL    HW277059   9.289   3.577   4.181  0.1881  2.1589 -1.5097
24552SOL     OW77060   4.771   6.956   2.497 -0.0861 -0.6909  0.4849
24552SOL    HW177061   4.865   6.939   2.505  0.2204  0.9391  0.4173
24552SOL    HW277062   4.764   7.051   2.493 -1.6559 -0.8513 -0.7485
24553SOL     OW77063   8.271  10.730   8.180 -0.4422  0.2993  0.6825
24553SOL    HW177064   8.292  10.704   8.090 -0.2748 -1.5024  1.2259
24553SOL    HW277065   8.185  10.691   8.196 -1.8656  3.1537  0.2986
24554SOL     OW77066   9.839   6.356   4.189  0.5970  0.0588 -0.0425
24554SOL    HW177067   9.754   6.388   4.221  0.6602 -0.5759  0.7773
24554SOL    HW277068   9.850   6.398   4.104 -0.4154  0.3659 -0.0283
24555SOL     OW77069  10.767   7.385   1.825  0.3740 -0.1032  0.1326
24555SOL    HW177070  10.737   7.349   1.742  0.9504  1.0728 -0.5945
24555SOL    HW277071  10.819   7.462   1.801 -2.1850  2.2032  1.7303
24556SOL     OW77072   5.713   7.497   2.943  0.5144  0.5909  0.0635
24556SOL    HW177073   5.747   7.494   2.854  2.4067 -0.7729  0.7979
24556SOL    HW277074   5.764   7.567   2.985  0.6423  0.2530  0.4699
24557SOL     OW77075  10.046  10.919   0.140  0.4180 -0.5808  0.0050
24557SOL    HW177076   9.980  10.873   0.089 -0.5026  0.3156  0.3871
24557SOL    HW277077  10.114  10.942   0.076  0.0927 -0.9861 -0.4883
24558SOL     OW77078   9.240   2.538  10.673  0.5341  0.0716  0.5979
24558SOL    HW177079   9.187   2.551  10.594 -1.6031  0.7407  2.1301
24558SOL    HW277080   9.280   2.452  10.660 -0.8150 -0.3967 -0.6519
24559SOL     OW77081   6.943   7.174   2.245 -0.3930  0.5117 -0.1747
24559SOL    HW177082   6.929   7.175   2.340  1.3156  0.4720  0.0862
24559SOL    HW277083   6.881   7.108   2.213  0.1009 -0.5893  1.0995
24560SOL     OW77084   6.564   8.741   8.662  0.4665  0.7518 -0.1749
24560SOL    HW177085   6.640   8.684   8.651 -0.2892 -0.6712  1.6342
24560SOL    HW277086   6.490   8.688   8.629  0.1641  1.9131 -1.4233
24561SOL     OW77087   5.078   7.374  10.034  0.1199  0.4054  0.0391
24561SOL    HW177088   5.074   7.372   9.938 -0.6144  0.8645  0.0620
24561SOL    HW277089   5.079   7.281  10.060 -2.7706  0.2343 -0.2821
24562SOL     OW77090   9.612   0.029   7.188 -0.4454 -0.7524 -0.3978
24562SOL    HW177091   9.673   0.019   7.115 -0.0882  2.2268 -0.5614
24562SOL    HW277092   9.605  -0.059   7.225  2.6846 -1.4906 -1.3943
24563SOL     OW77093   1.452  10.755   7.489 -0.1091 -0.2015 -0.2382
24563SOL    HW177094   1.443  10.667   7.526 -0.5398 -0.0370  0.0447
24563SOL    HW277095   1.435  10.744   7.396 -1.7347 -0.1488  0.0378
24564SOL     OW77096   8.202  10.273   4.678 -0.1469  0.6030  0.8901
24564SOL    HW177097   8.199  10.356   4.726 -1.2444  0.6395  0.7724
24564SOL    HW277098   8.295  10.259   4.660 -0.0827  2.7289 -0.6735
24565SOL     OW77099   6.794   2.339  10.861 -0.3923  0.0068  0.0311
24565SOL    HW177100   6.838   2.254  10.859 -2.1861 -0.9317 -1.6403
24565SOL    HW277101   6.719   2.326  10.918 -0.8834  0.3350 -0.5288
24566SOL     OW77102   3.071   5.813   3.838  0.1346 -0.2607 -0.4232
24566SOL    HW177103   3.074   5.891   3.893 -1.4569  0.5395 -1.4132
24566SOL    HW277104   3.159   5.805   3.802  0.7064  0.2220  0.8395
24567SOL     OW77105   6.744   9.590   7.149 -0.0108 -0.1429  0.4944
24567SOL    HW177106   6.810   9.611   7.083 -0.4443 -0.2154  0.0348
24567SOL    HW277107   6.783   9.618   7.232 -0.5436  2.5008 -0.0831
24568SOL     OW77108  10.806   1.556   6.759  0.0467  0.0428 -0.3927
24568SOL    HW177109  10.786   1.598   6.843 -1.2580 -0.9081 -0.2100
24568SOL    HW277110  10.833   1.628   6.702  0.6418  0.7365  0.7482
24569SOL     OW77111   6.172   6.416   7.457  0.1334  0.2415 -0.2155
24569SOL    HW177112   6.201   6.507   7.462 -0.4875  0.4944 -1.0713
24569SOL    HW277113   6.081   6.419   7.485  0.6839 -0.4249  1.7008
24570SOL     OW77114   3.951   7.909   9.989 -0.0800  0.7528  0.0823
24570SOL    HW177115   4.032   7.877   9.949 -0.7806  0.0870 -0.8568
24570SOL    HW277116   3.905   7.829  10.017 -0.3861  1.1219  0.6343
24571SOL     OW77117   6.163   9.774   0.464  0.4328 -0.2777  0.1333
24571SOL    HW177118   6.114   9.735   0.537 -0.7987  1.7518  0.4449
24571SOL    HW277119   6.111   9.753   0.387  0.2333 -0.0169  0.1947
24572SOL     OW77120   4.624   2.087   8.558  0.0736  0.3856  0.2876
24572SOL    HW177121   4.692   2.155   8.555 -0.4456  0.8859 -0.4071
24572SOL    HW277122   4.654   2.020   8.496 -0.9524  1.4729 -1.4393
24573SOL     OW77123   5.188   7.927   0.939 -0.0992  0.6273 -0.7101
24573SOL    HW177124   5.222   7.984   0.870  0.7156  1.0274  0.0143
24573SOL    HW277125   5.169   7.986   1.012 -1.4770  0.2796 -0.7845
24574SOL     OW77126   1.752   1.354   4.485 -0.0338  0.0384 -0.0560
24574SOL    HW177127   1.697   1.276   4.485 -0.9865  0.6708 -1.4817
24574SOL    HW277128   1.832   1.327   4.440 -0.4083 -0.1124 -0.6513
24575SOL     OW77129   7.350   8.824   7.715 -0.5600 -0.1670  0.2825
24575SOL    HW177130   7.433   8.796   7.677 -0.7283 -1.4616  0.8579
24575SOL    HW277131   7.320   8.894   7.656  0.0990 -0.8537 -0.8987
24576SOL     OW77132   6.838  10.535   3.174 -0.5287  0.2308 -0.3010
24576SOL    HW177133   6.882  10.455   3.202 -0.0516  0.2457 -0.9950
24576SOL    HW277134   6.752  10.506   3.144 -0.9936  0.2004  1.0657
24577SOL     OW77135   3.565   7.518   2.822  0.0096 -0.5492  0.6298
24577SOL    HW177136   3.479   7.481   2.804  0.9450 -2.1386 -0.7214
24577SOL    HW277137   3.625   7.445   2.812  1.8765  1.2129 -1.6291
24578SOL     OW77138   8.653   2.168   7.465  0.3436  0.2514  0.1450
24578SOL    HW177139   8.654   2.254   7.506  1.5097  0.0786  0.5077
24578SOL    HW277140   8.607   2.181   7.382 -1.9192  0.6290  1.4254
24579SOL     OW77141   9.602  10.047   7.263 -0.2862 -0.1513  0.0915
24579SOL    HW177142   9.514  10.083   7.247 -0.9032 -2.1904 -1.3261
24579SOL    HW277143   9.653  10.073   7.186  0.9712  2.6831  1.7798
24580SOL     OW77144   8.021   9.941   5.041 -0.4193  0.3085  0.1981
24580SOL    HW177145   8.087   9.970   4.979 -0.6577  1.7077  0.5921
24580SOL    HW277146   7.955   9.896   4.987  0.0757  0.2722 -0.3766
24581SOL     OW77147   5.112   2.158  10.076 -0.4300 -0.0119 -0.5012
24581SOL    HW177148   5.042   2.220  10.056  0.9397  1.5715 -0.4266
24581SOL    HW277149   5.164   2.154   9.996  0.5259  0.3274  0.0979
24582SOL     OW77150   4.234   2.810   6.538 -0.0474  0.0742  0.2703
24582SOL    HW177151   4.139   2.801   6.536 -0.0081 -0.3974  0.6194
24582SOL    HW277152   4.252   2.881   6.476 -0.7662  1.4334  1.6054
24583SOL     OW77153   8.250   0.190   1.363 -0.3730  0.2422 -0.2424
24583SOL    HW177154   8.236   0.281   1.390 -1.1233  0.0158  0.1517
24583SOL    HW277155   8.301   0.152   1.435 -1.0836  0.0383  0.1607
24584SOL     OW77156  10.577   1.242   6.438 -0.0767 -0.3247  0.1173
24584SOL    HW177157  10.518   1.268   6.510 -0.9423  1.2627 -1.1277
24584SOL    HW277158  10.526   1.177   6.389  0.6691 -1.7063  1.1385
24585SOL     OW77159   2.693   7.046   2.213 -0.9723 -0.0073 -0.1156
24585SOL    HW177160   2.715   7.095   2.292 -1.8362 -0.4787  0.4270
24585SOL    HW277161   2.652   7.111   2.156  0.9081  0.6522 -0.7450
24586SOL     OW77162   9.092   4.329   6.358  0.3598 -0.3493  0.2091
24586SOL    HW177163   9.018   4.276   6.331  2.9257 -3.9775 -0.0594
24586SOL    HW277164   9.133   4.357   6.276  1.1145 -1.0641  0.3367
24587SOL     OW77165   0.761   0.039   4.534  0.3671 -0.1184 -0.5395
24587SOL    HW177166   0.842   0.021   4.485  0.1201 -0.7007 -0.7302
24587SOL    HW277167   0.700  -0.028   4.505  0.3243 -0.6601  0.8061
24588SOL     OW77168   3.285   4.658   4.897  0.1517 -0.1601 -0.5187
24588SOL    HW177169   3.319   4.717   4.829 -1.5846  0.3233 -1.0052
24588SOL    HW277170   3.236   4.715   4.956 -1.0721 -1.0253 -0.6814
24589SOL     OW77171   1.224   2.193   2.925  1.0202 -0.1321 -0.2739
24589SOL    HW177172   1.226   2.238   3.010  0.8452  0.1074 -0.3953
24589SOL    HW277173   1.171   2.250   2.870 -0.3203 -1.1471 -0.0558
24590SOL     OW77174   5.037   1.088   9.582  0.4112  0.0669  0.1556
24590SOL    HW177175   5.120   1.106   9.626 -0.0789 -0.7429  1.4290
24590SOL    HW277176   5.032   1.154   9.513  2.4398 -0.3217 -0.3831
24591SOL     OW77177   3.880   6.219   4.050  0.1374  0.5083 -0.0814
24591SOL    HW177178   3.886   6.222   4.145 -0.8046  2.2242 -0.0589
24591SOL    HW277179   3.790   6.192   4.032  0.6971 -1.1513 -0.5016
24592SOL     OW77180   2.007   7.339   3.028 -0.5485  0.2952 -0.3228
24592SOL    HW177181   2.011   7.422   3.076  0.0037  0.3139 -0.4009
24592SOL    HW277182   2.036   7.273   3.091 -0.9784  0.1604 -0.2637
24593SOL     OW77183   1.595   0.875  10.436  0.2686  0.5773  0.2485
24593SOL    HW177184   1.544   0.853  10.358  0.9241  2.1068 -0.6384
24593SOL    HW277185   1.581   0.801  10.495 -2.1048  0.4768 -0.3883
24594SOL     OW77186   9.028   7.981   1.099 -0.3833 -0.0393  0.2323
24594SOL    HW177187   9.065   8.058   1.141 -1.3320  0.0745  0.8656
24594SOL    HW277188   9.065   7.907   1.146  1.0081 -0.0016 -0.7712
24595SOL     OW77189   1.407   7.338   3.509  0.4886  0.2532  0.1907
24595SOL    HW177190   1.372   7.414   3.462  0.4091  0.8357  1.1856
24595SOL    HW277191   1.374   7.348   3.598  1.9838  0.0266  0.7884
24596SOL     OW77192   4.993   8.163   4.132  0.0847 -0.1559 -0.1479
24596SOL    HW177193   4.958   8.251   4.124 -0.0214 -0.2061 -0.2394
24596SOL    HW277194   5.017   8.138   4.043  2.1161  0.5958  0.1799
24597SOL     OW77195   5.796   1.690   8.770 -0.2764 -0.0650  0.2948
24597SOL    HW177196   5.804   1.684   8.675  1.3205  1.2394  0.3315
24597SOL    HW277197   5.754   1.776   8.785 -2.3539 -1.1119  0.7034
24598SOL     OW77198   0.078   9.533   4.570 -0.2856 -0.2505  0.0321
24598SOL    HW177199   0.040   9.546   4.658  0.3498  0.7094  0.1778
24598SOL    HW277200   0.025   9.589   4.513  0.8027  0.9898  0.2136
24599SOL     OW77201   9.499   8.456  10.812 -1.0364  0.5155 -0.2847
24599SOL    HW177202   9.499   8.523  10.881 -1.7180 -0.0335  0.2575
24599SOL    HW277203   9.564   8.487  10.749 -0.3920  1.0172  0.6089
24600SOL     OW77204   8.057   1.229   9.347  0.3297 -0.3565 -0.1762
24600SOL    HW177205   8.028   1.145   9.383 -0.2171  0.4224  1.2207
24600SOL    HW277206   8.127   1.257   9.405  0.7083  0.0276 -0.8136
24601SOL     OW77207   7.569   0.484   1.302  0.1729 -0.1918  0.0648
24601SOL    HW177208   7.485   0.529   1.304  0.5359  0.4285  1.5947
24601SOL    HW277209   7.595   0.486   1.210 -2.2842 -1.9119 -0.7243
24602SOL     OW77210   9.650   6.780  10.258  0.1047  0.6041  0.1824
24602SOL    HW177211   9.700   6.793  10.339 -1.2586  1.5385  0.8986
24602SOL    HW277212   9.655   6.864  10.213 -0.9547  0.7429  0.3312
24603SOL     OW77213   4.522   7.912   3.368 -0.2416  0.0957  0.2373
24603SOL    HW177214   4.486   7.953   3.289  0.6671 -1.4904 -1.0282
24603SOL    HW277215   4.502   7.819   3.358  0.2748 -0.1792  1.6662
24604SOL     OW77216   8.821   3.137   8.101 -0.2205 -0.6133 -0.3090
24604SOL    HW177217   8.837   3.231   8.108  0.9880 -0.8194 -0.2023
24604SOL    HW277218   8.893   3.104   8.048 -0.7297 -1.4627 -0.4897
24605SOL     OW77219   7.063   0.248   1.709  0.8285 -0.0970 -0.3945
24605SOL    HW177220   7.096   0.214   1.792  3.2579  0.1347 -1.2185
24605SOL    HW277221   7.067   0.174   1.649  0.7941  0.1977 -0.7663
24606SOL     OW77222   5.797   0.547   5.698  0.4881  0.2684  0.4535
24606SOL    HW177223   5.774   0.575   5.786  3.1684  0.7426  1.0475
24606SOL    HW277224   5.809   0.453   5.704  0.5185  0.2802  0.5692
24607SOL     OW77225   7.995   4.268   8.130 -0.0752  0.7972 -0.5646
24607SOL    HW177226   8.073   4.221   8.101  0.5570  1.0530  0.7008
24607SOL    HW277227   7.925   4.236   8.072  0.7342 -0.2508 -0.9837
24608SOL     OW77228   3.359   0.800   9.975 -0.2473 -0.1453  0.3812
24608SOL    HW177229   3.451   0.777   9.985 -0.6724 -0.7983  3.1197
24608SOL    HW277230   3.354   0.892   9.999 -0.1607  0.1377 -0.6824
24609SOL     OW77231   1.555   3.156   2.388 -0.3072 -0.3938 -0.3916
24609SOL    HW177232   1.503   3.148   2.307 -0.7608  1.4908 -0.3105
24609SOL    HW277233   1.617   3.226   2.369 -0.8355  0.4906  1.1292
24610SOL     OW77234   3.503   5.952   6.258 -0.5116 -0.2454  0.1469
24610SOL    HW177235   3.541   5.933   6.172  0.8659 -0.4555  0.8005
24610SOL    HW277236   3.482   5.866   6.294  1.7163 -0.3353  1.2833
24611SOL     OW77237   6.049   8.980   3.180 -0.0288 -0.0973 -0.1681
24611SOL    HW177238   6.066   9.071   3.200  1.4435 -0.5117  0.4821
24611SOL    HW277239   6.020   8.942   3.263  0.5466 -0.4986 -0.1494
24612SOL     OW77240   0.790   4.076   2.984  0.1029 -0.7026 -0.8016
24612SOL    HW177241   0.835   4.135   3.044  2.0473 -0.8804 -2.0390
24612SOL    HW277242   0.812   3.989   3.015  0.9897 -0.7935 -1.6482
24613SOL     OW77243   2.629   8.476   8.664  0.1304 -0.0547  0.4654
24613SOL    HW177244   2.612   8.419   8.739 -0.7726 -0.8931 -0.3479
24613SOL    HW277245   2.724   8.478   8.656  0.1634 -2.7369 -0.4289
24614SOL     OW77246   7.541   2.996   2.109  0.0361 -0.1964  0.3711
24614SOL    HW177247   7.562   2.904   2.095  0.4761  0.0782 -0.8667
24614SOL    HW277248   7.584   3.019   2.191 -0.0415 -1.0739  0.6596
24615SOL     OW77249  10.709  10.797   1.087  0.2722  0.6355  0.4287
24615SOL    HW177250  10.672  10.814   1.001  2.1067 -0.1571 -0.5482
24615SOL    HW277251  10.634  10.790   1.145 -1.0778 -0.5935 -1.4317
24616SOL     OW77252   6.260   9.122   9.354 -0.1669 -0.0065 -0.4541
24616SOL    HW177253   6.278   9.056   9.288  0.8255  0.1846 -0.3790
24616SOL    HW277254   6.310   9.199   9.326  0.0848  0.1441  0.3899
24617SOL     OW77255   1.738   1.223   3.142 -0.1267 -0.6154  0.3708
24617SOL    HW177256   1.682   1.145   3.147 -2.1718  0.8384  0.8063
24617SOL    HW277257   1.767   1.237   3.233 -0.4677 -0.3733  0.4436
24618SOL     OW77258   6.355   4.146   6.143  0.0975 -0.2988 -0.2347
24618SOL    HW177259   6.380   4.144   6.051 -0.0128  3.6854 -0.4222
24618SOL    HW277260   6.281   4.085   6.148 -0.6900  0.3367 -3.0368
24619SOL     OW77261   0.334   8.553  10.427  0.7946  0.4455 -0.0943
24619SOL    HW177262   0.393   8.493  10.380  0.2729  0.0979 -0.3107
24619SOL    HW277263   0.262   8.498  10.456  1.4705  0.5283  1.7625
24620SOL     OW77264   4.809   6.905   4.995 -0.4118  0.3495 -0.1274
24620SOL    HW177265   4.802   6.881   4.902 -0.9538  0.0217 -0.0069
24620SOL    HW277266   4.864   6.837   5.033 -0.3667  0.3642 -0.1666
24621SOL     OW77267   7.171   1.440   1.393  0.0779 -0.2339 -0.2611
24621SOL    HW177268   7.132   1.364   1.350  2.3448 -1.3566 -0.3955
24621SOL    HW277269   7.228   1.403   1.460  3.1159  1.2299 -1.9566
24622SOL     OW77270   0.843   0.599   9.706 -0.4329 -0.4261  0.3436
24622SOL    HW177271   0.803   0.666   9.762 -0.5452  0.2850 -0.5714
24622SOL    HW277272   0.934   0.625   9.698 -0.4392 -0.4719  0.1192
24623SOL     OW77273  10.487   8.649   0.467 -0.2791  0.2245  0.7871
24623SOL    HW177274  10.560   8.662   0.407 -1.8891  0.6969 -1.1554
24623SOL    HW277275  10.513   8.695   0.546  2.1929 -0.9900  0.7274
24624SOL     OW77276   8.432   3.861   4.789 -0.1063  0.4053  0.3734
24624SOL    HW177277   8.470   3.827   4.870  0.4261 -1.7193 -0.7165
24624SOL    HW277278   8.337   3.858   4.804 -0.0192 -0.2013  0.8430
24625SOL     OW77279   1.357   2.784   4.548 -0.5547 -0.3466 -0.0916
24625SOL    HW177280   1.304   2.710   4.579  0.8280 -0.0444  3.1902
24625SOL    HW277281   1.311   2.861   4.581 -1.4192  0.2625 -2.6140
24626SOL     OW77282   7.634   2.577   7.999 -0.5958 -0.0480  0.1056
24626SOL    HW177283   7.639   2.663   7.958 -1.4297  0.0042  0.0914
24626SOL    HW277284   7.552   2.580   8.050  0.5910  0.0371  2.0711
24627SOL     OW77285   8.879   2.159   2.961 -0.1384  0.3776 -0.0771
24627SOL    HW177286   8.894   2.110   3.042  2.6618 -0.1599 -0.8719
24627SOL    HW277287   8.824   2.102   2.908  1.0640 -0.8641 -0.0054
24628SOL     OW77288   7.478   8.960   9.162  0.0317  0.0289  0.1310
24628SOL    HW177289   7.414   8.978   9.093 -0.1340  0.9419  0.5116
24628SOL    HW277290   7.445   8.882   9.206 -2.2562  1.9424  1.9818
24629SOL     OW77291   6.439   4.339   6.750  0.5264 -0.2534  0.4830
24629SOL    HW177292   6.450   4.285   6.671 -0.9076 -0.5839  0.4977
24629SOL    HW277293   6.410   4.424   6.717  1.6352  0.1522  0.5406
24630SOL     OW77294  10.749  10.570   6.431 -0.3246  0.4201  0.1972
24630SOL    HW177295  10.655  10.563   6.416 -0.4838  0.7427  1.0122
24630SOL    HW277296  10.761  10.541   6.521  0.8353 -3.2069 -1.0295
24631SOL     OW77297   3.580   6.172   0.704 -0.1437  0.0947  0.1009
24631SOL    HW177298   3.595   6.189   0.797 -0.4877 -1.1059  0.3780
24631SOL    HW277299   3.631   6.240   0.659  0.7746  0.1174  1.1500
24632SOL     OW77300   5.970   3.477   1.412 -0.0633 -0.3753  0.3788
24632SOL    HW177301   6.020   3.411   1.460  0.1894  0.0345  0.6866
24632SOL    HW277302   6.019   3.491   1.331 -0.1717 -0.6374  0.2674
24633SOL     OW77303   5.352   9.250   4.018  0.0012 -0.1156  0.3122
24633SOL    HW177304   5.258   9.231   4.013 -0.1885  0.8412  0.2674
24633SOL    HW277305   5.360   9.342   3.994  0.8544  0.0668  1.2502
24634SOL     OW77306   8.993   8.836  10.962  0.2002  0.9293 -0.1444
24634SOL    HW177307   8.987   8.740  10.968 -0.3380  1.0247  0.9740
24634SOL    HW277308   8.925   8.860  10.899 -0.3615  0.6538  0.3503
24635SOL     OW77309   0.462   9.436   7.052 -0.3087 -0.2088  0.0037
24635SOL    HW177310   0.384   9.391   7.020  1.2378 -1.0210 -2.7478
24635SOL    HW277311   0.455   9.431   7.147 -3.0982 -1.1268 -0.1988
24636SOL     OW77312   0.650   1.376   8.278  0.0428  0.8307  0.2910
24636SOL    HW177313   0.690   1.393   8.193 -1.3252  1.3371 -0.2768
24636SOL    HW277314   0.641   1.281   8.282  0.6786  0.7659  0.1228
24637SOL     OW77315   9.675   9.147   4.037  0.0664  0.2442 -0.0596
24637SOL    HW177316   9.631   9.062   4.031  1.0803 -0.2263 -0.9911
24637SOL    HW277317   9.607   9.210   4.014 -0.0375 -0.5161 -1.9287
24638SOL     OW77318   1.394   6.158   2.527 -0.1171 -0.1506 -0.0840
24638SOL    HW177319   1.417   6.066   2.527 -0.9852 -0.3752  0.7499
24638SOL    HW277320   1.300   6.160   2.544 -0.2589  0.8483 -0.9060
24639SOL     OW77321   7.683   5.644  10.265  0.6147  0.0721  0.2066
24639SOL    HW177322   7.762   5.656  10.212 -0.0139  0.3293 -0.6795
24639SOL    HW277323   7.688   5.553  10.296  0.7902 -0.2069 -0.6220
24640SOL     OW77324   5.582  10.630   5.088  0.1612  0.1663  0.5553
24640SOL    HW177325   5.659  10.683   5.111  0.7379 -0.1030 -0.7091
24640SOL    HW277326   5.586  10.554   5.146 -0.1149  1.0115  1.6870
24641SOL     OW77327   7.164   6.166   3.838 -0.1447  0.5076 -0.0201
24641SOL    HW177328   7.247   6.118   3.833 -1.3124 -1.6759  1.1456
24641SOL    HW277329   7.140   6.182   3.747  0.0093 -1.5853 -0.4374
24642SOL     OW77330  10.876   9.868   2.308  0.1935  0.0751 -0.3350
24642SOL    HW177331  10.953   9.821   2.341  0.7663 -0.1349 -1.9614
24642SOL    HW277332  10.906   9.910   2.227 -1.1963  0.6279 -0.5777
24643SOL     OW77333   7.930   5.636   3.225 -0.3309  0.4608 -0.2957
24643SOL    HW177334   7.860   5.699   3.241 -1.1058 -0.4947  0.1096
24643SOL    HW277335   7.895   5.552   3.255 -0.2107 -0.6248 -2.9827
24644SOL     OW77336   2.376   5.915   9.594 -0.1761 -0.7117 -0.7881
24644SOL    HW177337   2.399   5.823   9.584  1.3209 -0.2145 -2.4841
24644SOL    HW277338   2.453   5.962   9.559 -0.3246  1.1945  1.3054
24645SOL     OW77339   4.306   3.565   7.116  0.0165  0.2495  0.2382
24645SOL    HW177340   4.265   3.516   7.188 -0.4445  2.4137  1.4690
24645SOL    HW277341   4.400   3.557   7.132 -0.0208 -1.0615 -0.1404
24646SOL     OW77342   3.899   0.524   6.316 -0.0175  0.7692 -0.4933
24646SOL    HW177343   3.838   0.517   6.243  0.2770  1.4355 -0.8088
24646SOL    HW277344   3.974   0.470   6.290 -1.5966 -2.3626  1.1028
24647SOL     OW77345  10.324   7.776   5.967 -0.0377  0.1111 -0.3095
24647SOL    HW177346  10.246   7.781   6.023  1.2155 -1.4051  1.6677
24647SOL    HW277347  10.379   7.850   5.994  1.3663 -1.6422  1.8008
24648SOL     OW77348   4.260   2.405   7.652 -0.1895 -0.3854  0.5211
24648SOL    HW177349   4.217   2.410   7.566  0.5376  0.0846  0.1812
24648SOL    HW277350   4.339   2.353   7.635  1.7484  2.5618  0.1528
24649SOL     OW77351   7.099  10.933   9.076 -0.7192 -0.0826  0.0212
24649SOL    HW177352   7.106  10.838   9.090 -0.5126 -0.3181 -1.5764
24649SOL    HW277353   7.166  10.971   9.133 -0.3603 -0.9400  0.1796
24650SOL     OW77354   3.349   9.390   5.408  0.6643  0.1959  0.0555
24650SOL    HW177355   3.269   9.438   5.387  0.3128  0.3951  1.7257
24650SOL    HW277356   3.412   9.416   5.341 -0.2389  1.1853 -0.4082
24651SOL     OW77357   3.087  10.207   2.966  0.2129  0.0536 -0.0977
24651SOL    HW177358   3.012  10.181   2.912 -0.3133 -0.6498  0.9426
24651SOL    HW277359   3.066  10.296   2.995  0.5447  0.4690 -1.1276
24652SOL     OW77360   6.037   4.907   1.200 -0.0560  0.2325  0.0305
24652SOL    HW177361   6.130   4.896   1.180 -0.0858 -0.6887  0.3581
24652SOL    HW277362   6.001   4.953   1.124  1.0408  2.3964  0.7664
24653SOL     OW77363   9.113   1.152   3.764  0.4659  0.3376 -0.5117
24653SOL    HW177364   9.137   1.242   3.782  0.5796 -0.0423  1.3383
24653SOL    HW277365   9.064   1.124   3.842 -0.0106 -1.0286 -1.2805
24654SOL     OW77366   2.412   8.131   4.265  0.5043 -0.2418  0.3372
24654SOL    HW177367   2.386   8.088   4.183 -3.3669  0.4727  1.0824
24654SOL    HW277368   2.414   8.061   4.330  2.7727 -0.6717 -0.1589
24655SOL     OW77369   5.789   7.363  10.411 -0.3558 -0.2481 -1.3232
24655SOL    HW177370   5.768   7.390  10.321 -1.0540 -0.3864 -1.2051
24655SOL    HW277371   5.878   7.396  10.425 -1.5154  2.8746 -0.8405
24656SOL     OW77372   1.900   4.546   5.095 -0.0450 -0.1325 -0.1761
24656SOL    HW177373   1.888   4.597   5.175  1.8316  0.4438 -0.2321
24656SOL    HW277374   1.899   4.610   5.024 -0.2733 -0.4685 -0.4784
24657SOL     OW77375   3.704   0.209   4.068  0.7059  0.1005  0.0833
24657SOL    HW177376   3.781   0.232   4.121  0.1895  1.4802  0.2624
24657SOL    HW277377   3.677   0.292   4.029  0.2202 -0.6529 -1.2113
24658SOL     OW77378   1.861   4.203   3.117  0.7001  0.2185 -0.4963
24658SOL    HW177379   1.877   4.281   3.065  0.4631  0.0434 -0.8378
24658SOL    HW277380   1.854   4.132   3.052  0.1613  0.0379 -0.2457
24659SOL     OW77381   6.981   4.858   8.797  0.8347  0.3026  0.7743
24659SOL    HW177382   6.910   4.850   8.860 -0.1932 -1.3747 -0.5595
24659SOL    HW277383   7.005   4.768   8.775  0.9340  0.8212 -1.4566
24660SOL     OW77384   5.135   4.277   0.414 -0.6506  0.6688  0.5271
24660SOL    HW177385   5.082   4.203   0.444 -0.3714 -0.6050 -1.9538
24660SOL    HW277386   5.071   4.340   0.381 -0.7055 -0.6729 -2.0425
24661SOL     OW77387   5.993   7.303   1.364  0.0260 -0.1355  0.6134
24661SOL    HW177388   5.982   7.396   1.344 -0.6505 -0.8577 -2.6645
24661SOL    HW277389   6.087   7.288   1.354 -0.2692 -0.4296 -1.9823
24662SOL     OW77390   1.387   0.700   5.857 -0.4512 -0.4704 -0.2820
24662SOL    HW177391   1.316   0.643   5.829 -0.4714 -0.6878  0.2023
24662SOL    HW277392   1.411   0.750   5.779 -0.5642 -1.0067 -0.6600
24663SOL     OW77393   4.241   0.050   3.227  0.3118 -0.5916  0.1132
24663SOL    HW177394   4.182   0.111   3.182  1.3298  0.6299  0.3903
24663SOL    HW277395   4.184  -0.003   3.282 -0.6438 -0.1548 -0.4485
24664SOL     OW77396   3.344   4.971   3.036 -0.6424  0.6886  0.8582
24664SOL    HW177397   3.293   4.893   3.013 -0.7182  1.1842 -0.7039
24664SOL    HW277398   3.435   4.944   3.025 -0.6475  0.6191  0.9834
24665SOL     OW77399   8.167   4.761   3.578 -0.2868 -0.0326  0.1834
24665SOL    HW177400   8.209   4.745   3.663 -2.4168 -1.9450  0.9578
24665SOL    HW277401   8.108   4.835   3.593  0.4452  0.5913 -0.0299
24666SOL     OW77402   8.067   6.674   7.105  0.5252 -0.1641  0.2191
24666SOL    HW177403   7.976   6.663   7.080  0.5020  0.1439  0.1649
24666SOL    HW277404   8.115   6.609   7.052  0.4350  0.2367 -0.3666
24667SOL     OW77405   3.994   5.182  10.570 -0.1042 -0.4882 -0.3351
24667SOL    HW177406   4.027   5.270  10.555  0.4283 -0.6715 -0.2425
24667SOL    HW277407   4.059   5.124  10.530 -0.1757 -0.8615  0.0810
24668SOL     OW77408   2.336  10.486   4.474  0.0783 -0.2300 -0.8262
24668SOL    HW177409   2.299  10.523   4.555  0.4743 -0.7624 -0.3995
24668SOL    HW277410   2.390  10.413   4.504  0.0391 -0.5728 -1.5977
24669SOL     OW77411   3.600   3.658   4.635 -0.2474  0.3551  0.6371
24669SOL    HW177412   3.556   3.738   4.665 -0.8331 -0.4632  2.0226
24669SOL    HW277413   3.542   3.623   4.567 -1.0441  0.0375  1.4633
24670SOL     OW77414   8.423   4.801   8.388 -0.1357 -0.0798 -0.0698
24670SOL    HW177415   8.452   4.805   8.296 -1.4989  0.0534 -0.5006
24670SOL    HW277416   8.442   4.711   8.414 -0.2221 -0.2682 -0.6403
24671SOL     OW77417   2.265  10.841   0.413 -0.1811 -0.4547 -0.0029
24671SOL    HW177418   2.205  10.815   0.344  0.4346 -1.5054 -0.1612
24671SOL    HW277419   2.241  10.931   0.434 -1.2228 -0.5703 -0.6722
24672SOL     OW77420   4.482  10.452   9.557  0.2469 -0.0212 -0.2017
24672SOL    HW177421   4.444  10.476   9.641  0.7457  0.1196 -0.0169
24672SOL    HW277422   4.406  10.437   9.500 -0.0916 -0.3060  0.3231
24673SOL     OW77423   3.315   3.484  10.573 -0.1039  0.4159 -0.1691
24673SOL    HW177424   3.255   3.516  10.506 -2.2808 -0.3318  1.3638
24673SOL    HW277425   3.336   3.561  10.626  0.2429  0.6533 -0.6437
24674SOL     OW77426   8.539   1.086   9.827 -0.3013  0.4047  0.3107
24674SOL    HW177427   8.481   1.048   9.761 -0.0366 -0.8497  0.7732
24674SOL    HW277428   8.549   1.016   9.892  1.0499  0.9077  0.6526
24675SOL     OW77429   0.905   1.994   5.546  0.4333 -0.0378  0.0048
24675SOL    HW177430   0.838   2.058   5.522 -0.6602 -1.2309 -0.1126
24675SOL    HW277431   0.879   1.964   5.633  1.5532  0.4699  0.5261
24676SOL     OW77432   5.304  10.340   6.034 -0.4855  0.4312  0.9142
24676SOL    HW177433   5.228  10.287   6.011 -0.8485  0.2596  2.4087
24676SOL    HW277434   5.291  10.423   5.988 -0.6356 -0.2749 -0.3059
24677SOL     OW77435   8.882   0.993   2.456  0.3436  0.5585  0.0347
24677SOL    HW177436   8.861   0.953   2.541 -0.9176  0.0005 -0.5244
24677SOL    HW277437   8.972   1.023   2.465  0.4735 -0.1849  1.3145
24678SOL     OW77438   8.799   6.563   1.963  0.7629  0.8128  0.2613
24678SOL    HW177439   8.719   6.531   2.006  1.0848  0.5812  0.6889
24678SOL    HW277440   8.867   6.502   1.990  0.7121 -0.1418 -1.6790
24679SOL     OW77441   0.362   6.301   9.426  0.0276 -0.6904 -0.1031
24679SOL    HW177442   0.383   6.361   9.498 -0.4724 -0.3352 -0.2500
24679SOL    HW277443   0.357   6.215   9.467  0.9680 -0.6647  0.0714
24680SOL     OW77444  10.386   4.397   3.847 -0.1245  0.0633  0.2646
24680SOL    HW177445  10.291   4.410   3.847 -0.1639 -0.1852  0.5673
24680SOL    HW277446  10.405   4.366   3.936 -0.1767 -2.8129 -0.6632
24681SOL     OW77447   7.039  10.198   7.861  0.2169  0.2481  0.5457
24681SOL    HW177448   7.122  10.152   7.877  1.4743  2.2815  0.0846
24681SOL    HW277449   6.981  10.131   7.824  1.0272 -1.6582  2.6181
24682SOL     OW77450   4.553   1.484   3.226 -0.3386  1.0026 -0.1658
24682SOL    HW177451   4.494   1.468   3.300 -0.8685  2.0229 -0.3633
24682SOL    HW277452   4.497   1.525   3.160  0.2727  0.6453 -0.9029
24683SOL     OW77453   1.343  10.249   5.492  0.1687  0.2936  0.5672
24683SOL    HW177454   1.340  10.248   5.396  1.5646  2.6042  0.4549
24683SOL    HW277455   1.393  10.328   5.513 -0.2091 -0.1377  3.2083
24684SOL     OW77456   3.190   9.870   0.492  0.1841  0.0362 -0.4070
24684SOL    HW177457   3.096   9.866   0.473  0.2764 -0.6300 -0.7387
24684SOL    HW277458   3.223   9.941   0.436 -0.6165  2.2638  1.8495
24685SOL     OW77459   3.817   8.477   9.211 -0.0982  0.1543  0.2221
24685SOL    HW177460   3.827   8.572   9.205  2.5454 -0.0647  0.2764
24685SOL    HW277461   3.792   8.462   9.302 -1.4700  0.8327 -0.0223
24686SOL     OW77462   5.190   9.107   1.150  0.1321  0.6097  0.4301
24686SOL    HW177463   5.182   9.113   1.245  0.9703 -1.3901  0.6682
24686SOL    HW277464   5.100   9.104   1.118 -0.1526  1.0055  1.1858
24687SOL     OW77465   5.040  10.350   5.611  0.5688 -0.4117 -0.0596
24687SOL    HW177466   4.976  10.399   5.662  0.3880 -0.3937 -0.3007
24687SOL    HW277467   4.987  10.300   5.548  0.6877 -1.6205  0.7726
24688SOL     OW77468   6.774  10.074   2.404  0.1824  0.2872  0.2949
24688SOL    HW177469   6.749  10.043   2.317  1.6611 -1.2084  0.3763
24688SOL    HW277470   6.764  10.169   2.400  0.9693  0.2989 -1.7556
24689SOL     OW77471   6.111   4.499   0.876 -0.6171  0.2200 -0.0954
24689SOL    HW177472   6.135   4.587   0.848  0.7764  0.0730  0.5919
24689SOL    HW277473   6.023   4.509   0.914 -0.8304  1.1378 -0.7986
24690SOL     OW77474   0.297   6.521   6.665 -0.5297  0.3894 -0.2102
24690SOL    HW177475   0.341   6.535   6.749 -0.2454  0.8055 -0.4304
24690SOL    HW277476   0.352   6.565   6.601  0.6232 -2.0828 -0.9678
24691SOL     OW77477   5.388   2.318   1.708  0.2031  0.2550  0.3570
24691SOL    HW177478   5.346   2.296   1.625 -2.3863 -1.5070  2.0679
24691SOL    HW277479   5.380   2.238   1.761  2.5022  1.0814  2.0483
24692SOL     OW77480   6.502   3.930   3.180  0.1502 -0.3913 -0.0139
24692SOL    HW177481   6.546   3.952   3.097 -1.3308  0.2392 -0.6457
24692SOL    HW277482   6.462   4.012   3.209  1.8174 -0.2731  2.0776
24693SOL     OW77483   2.617   4.931   7.436  0.2932 -0.4234 -0.1734
24693SOL    HW177484   2.615   4.987   7.513  1.4948  0.2099 -0.5923
24693SOL    HW277485   2.628   4.842   7.472 -2.2187 -0.4886  0.5125
24694SOL     OW77486   2.137   9.540   8.901 -0.4123  0.1574  0.1367
24694SOL    HW177487   2.232   9.530   8.900 -0.5877 -1.7719  0.2935
24694SOL    HW277488   2.120   9.598   8.976  0.6143  0.2259  0.3224
24695SOL     OW77489   5.073   4.795   0.587 -0.3594 -0.2908 -0.1779
24695SOL    HW177490   5.043   4.726   0.529 -0.8448  0.7065 -1.1256
24695SOL    HW277491   5.039   4.771   0.673  0.0367 -1.5680 -0.3709
24696SOL     OW77492   7.769   7.395   6.948 -0.2164  0.1129 -0.1621
24696SOL    HW177493   7.719   7.469   6.913  0.9184  0.8922 -0.1288
24696SOL    HW277494   7.829   7.434   7.011  1.3471 -0.6797 -1.1532
24697SOL     OW77495   7.303   4.090   1.255  0.3600 -0.0868 -0.5582
24697SOL    HW177496   7.225   4.082   1.309  0.6949 -1.0355 -0.1985
24697SOL    HW277497   7.327   4.183   1.260  0.3251 -0.1421  0.8327
24698SOL     OW77498   5.036   0.290   3.253  0.0790  0.0749 -0.0560
24698SOL    HW177499   4.949   0.259   3.277 -0.1069 -0.8413 -1.8295
24698SOL    HW277500   5.036   0.383   3.275 -0.1829 -0.6291  3.0923
24699SOL     OW77501   3.675   1.997   8.200 -0.1802  0.0914 -0.1552
24699SOL    HW177502   3.636   2.019   8.115  0.1628 -1.0039 -0.6102
24699SOL    HW277503   3.762   2.038   8.198 -0.2383  0.2089 -0.2666
24700SOL     OW77504   0.186   8.400   4.468  0.2282  0.1141  0.0407
24700SOL    HW177505   0.116   8.348   4.507 -0.5939  2.5751  2.0019
24700SOL    HW277506   0.262   8.341   4.467 -1.1482 -1.7104  0.3911
24701SOL     OW77507   9.932   7.318   8.967  0.3730  0.2873 -0.4270
24701SOL    HW177508   9.942   7.288   9.058  0.5036  0.1321 -0.4931
24701SOL    HW277509   9.999   7.386   8.957 -0.4048  1.1205 -0.0575
24702SOL     OW77510   5.646   8.545   0.971  0.4865 -0.3765  0.4723
24702SOL    HW177511   5.612   8.527   0.884  1.2774 -0.0649  0.0980
24702SOL    HW277512   5.724   8.489   0.979  1.1087  0.4820  0.5168
24703SOL     OW77513   6.481   5.974  10.708 -0.6626 -0.0981 -0.0746
24703SOL    HW177514   6.392   5.945  10.726 -0.9616  0.6507 -0.3352
24703SOL    HW277515   6.505   6.026  10.785 -0.5012 -0.1849 -0.0667
24704SOL     OW77516   5.323   9.584   9.664  0.3289 -0.2820 -0.4873
24704SOL    HW177517   5.410   9.621   9.647  0.8699 -1.5117 -0.5046
24704SOL    HW277518   5.305   9.605   9.756  0.6556 -0.0369 -0.4799
24705SOL     OW77519   9.166   0.340   0.754  0.4766 -0.1558  0.1487
24705SOL    HW177520   9.132   0.368   0.669 -0.1967 -1.7996 -0.1450
24705SOL    HW277521   9.099   0.369   0.817  0.4563  0.1047  0.0100
24706SOL     OW77522   0.124  10.424   8.515 -0.0922 -1.0597  0.0797
24706SOL    HW177523   0.167  10.508   8.531 -0.7528 -1.0912  2.1179
24706SOL    HW277524   0.051  10.446   8.457 -0.7782 -0.0673  1.2965
24707SOL     OW77525   6.437   4.597  10.654 -0.1597 -0.2240 -0.2887
24707SOL    HW177526   6.345   4.572  10.654 -0.3350  0.4147 -0.0586
24707SOL    HW277527   6.436   4.693  10.661  0.5060 -0.1761 -0.7776
24708SOL     OW77528  10.354   1.831   7.719 -0.1291 -0.1810 -0.0985
24708SOL    HW177529  10.352   1.855   7.627 -0.1118 -0.6433 -0.2227
24708SOL    HW277530  10.313   1.744   7.722  0.8914 -0.6542  0.1738
24709SOL     OW77531   1.931   6.595   9.223  0.5081 -0.0075  0.7814
24709SOL    HW177532   2.008   6.584   9.278  0.0951  0.8203  1.5426
24709SOL    HW277533   1.913   6.689   9.224 -0.5587 -0.1939  0.6945
24710SOL     OW77534  10.488   5.338   9.059 -0.0635  0.5557 -0.2607
24710SOL    HW177535  10.532   5.418   9.031 -1.4951  1.2818 -0.5156
24710SOL    HW277536  10.475   5.289   8.978 -2.1945  1.6329 -0.6196
24711SOL     OW77537   2.446   3.523   1.776 -0.1674  0.4199 -0.5309
24711SOL    HW177538   2.422   3.439   1.816 -1.5158  1.5536  1.1517
24711SOL    HW277539   2.488   3.572   1.847  0.3697  1.2608 -1.4207
24712SOL     OW77540  10.620   2.543   3.534  0.1754  0.5546  0.2179
24712SOL    HW177541  10.564   2.553   3.458 -1.5611 -1.0292  1.2590
24712SOL    HW277542  10.565   2.503   3.601  1.4517  2.5454  2.5855
24713SOL     OW77543  10.038   5.141   9.570 -0.0319  0.3392  0.2343
24713SOL    HW177544  10.050   5.209   9.504 -0.6281  1.5892  1.3929
24713SOL    HW277545  10.015   5.188   9.650 -1.7392 -1.2976  0.7559
24714SOL     OW77546   3.763   5.686   3.717 -0.5637  0.3232 -0.0441
24714SOL    HW177547   3.669   5.694   3.731 -0.8980 -1.6336 -0.9468
24714SOL    HW277548   3.802   5.739   3.786 -2.2956 -0.1343  1.3338
24715SOL     OW77549   7.661  10.960   3.068  0.0871  0.5645 -0.2019
24715SOL    HW177550   7.575  10.989   3.097  0.8057  2.3176  0.2725
24715SOL    HW277551   7.669  10.870   3.100 -0.7205  1.1208  1.6106
24716SOL     OW77552   6.127   6.584   7.898 -0.2053  0.2996  0.2003
24716SOL    HW177553   6.090   6.621   7.979  0.5539  0.3824  0.5116
24716SOL    HW277554   6.067   6.615   7.830 -0.2071  1.2003  0.5896
24717SOL     OW77555   5.875   5.792   1.547  0.2906 -0.1876 -0.4341
24717SOL    HW177556   5.886   5.852   1.473 -0.2276 -0.7386 -0.9560
24717SOL    HW277557   5.896   5.706   1.512  1.5599 -0.2529  0.4526
24718SOL     OW77558   1.606   0.712   5.237  0.3896  0.2595 -0.7390
24718SOL    HW177559   1.560   0.746   5.160 -0.6641 -2.2171 -1.2565
24718SOL    HW277560   1.627   0.622   5.215 -0.8172 -0.8220  2.2471
24719SOL     OW77561   8.829   7.783   9.960 -0.1302  0.0838  0.2826
24719SOL    HW177562   8.874   7.717  10.012 -2.4249 -2.0673 -0.3628
24719SOL    HW277563   8.736   7.768   9.978 -0.7160  3.0066 -0.0702
24720SOL     OW77564   0.300   8.643   7.403  0.0197 -0.2769  0.1239
24720SOL    HW177565   0.301   8.573   7.338  0.1798  1.0845 -1.3771
24720SOL    HW277566   0.231   8.618   7.464 -2.8395  0.3006 -2.7169
24721SOL     OW77567   5.285   7.455   9.486 -0.0515  0.4094 -0.1128
24721SOL    HW177568   5.347   7.492   9.423 -0.6247  1.7857  0.1126
24721SOL    HW277569   5.271   7.365   9.456  0.6589  0.6530 -1.2101
24722SOL     OW77570   2.557   2.746   6.248 -0.1472  0.4622  0.7476
24722SOL    HW177571   2.633   2.712   6.202 -1.7982 -0.4374 -1.4139
24722SOL    HW277572   2.578   2.838   6.264  1.7933 -0.0207  1.1041
24723SOL     OW77573   5.832   6.778   2.632  0.0623  0.2749 -0.2889
24723SOL    HW177574   5.790   6.694   2.651  0.7427 -0.2769 -1.1354
24723SOL    HW277575   5.898   6.788   2.701  0.4229 -0.2122 -0.5544
24724SOL     OW77576   6.169   3.487   2.119 -1.0589 -0.3506  0.5607
24724SOL    HW177577   6.127   3.573   2.126 -1.4985 -0.6772  2.1588
24724SOL    HW277578   6.263   3.506   2.125 -0.9995  0.2607 -1.8097
24725SOL     OW77579   9.141   0.532   0.282 -0.3157  0.5166  0.1558
24725SOL    HW177580   9.203   0.459   0.273 -0.1825  0.7656 -1.0722
24725SOL    HW277581   9.194   0.605   0.314 -0.2816  0.3132  0.5691
24726SOL     OW77582   5.437   2.021  10.058 -0.1374 -0.3584  0.2108
24726SOL    HW177583   5.483   1.939  10.076 -0.8290 -0.7910  0.0280
24726SOL    HW277584   5.388   2.004   9.978 -0.9534 -0.0442  0.6409
24727SOL     OW77585  10.319   8.568   9.280 -0.2467  0.0271  0.0976
24727SOL    HW177586  10.390   8.581   9.218  0.2232 -0.1630  0.5958
24727SOL    HW277587  10.247   8.533   9.227 -0.2594  1.0290 -0.5588
24728SOL     OW77588   8.009  10.901   1.053  0.3828  0.2413  0.4570
24728SOL    HW177589   8.030  10.946   1.134 -1.2866  0.8877  0.5643
24728SOL    HW277590   7.939  10.954   1.014 -0.0879 -1.0409 -0.5012
24729SOL     OW77591   2.544   5.690   9.449 -0.0316 -0.5743  0.0927
24729SOL    HW177592   2.518   5.614   9.396  0.1997 -1.5267  1.3318
24729SOL    HW277593   2.622   5.723   9.404 -1.2087  0.0894 -1.5295
24730SOL     OW77594   5.304   2.339   7.000 -0.0314 -0.5182  0.1740
24730SOL    HW177595   5.380   2.367   6.949 -0.1929 -1.1316 -0.4083
24730SOL    HW277596   5.247   2.295   6.937  0.1154 -1.9559  1.0060
24731SOL     OW77597   9.765   3.104   3.314  0.3549  0.5821 -0.2207
24731SOL    HW177598   9.733   3.016   3.333 -1.2473  1.6275  2.1721
24731SOL    HW277599   9.793   3.100   3.223 -0.4337 -2.1900 -0.3864
24732SOL     OW77600   9.901  10.143   6.074  0.0651 -0.0624  0.0232
24732SOL    HW177601   9.931  10.217   6.126 -2.4388 -0.4024  2.0701
24732SOL    HW277602   9.806  10.155   6.067 -0.4028 -3.0924  0.4889
24733SOL     OW77603   5.553   3.245   7.173  0.2197 -0.2901  0.3235
24733SOL    HW177604   5.619   3.237   7.242 -0.2593  1.0048  0.9491
24733SOL    HW277605   5.555   3.338   7.149 -0.1953 -0.5701 -0.8443
24734SOL     OW77606   6.476   6.341   8.939 -0.0188  0.1483  0.5008
24734SOL    HW177607   6.418   6.304   8.873  0.1452  0.2569  0.2913
24734SOL    HW277608   6.563   6.310   8.914  0.1490  0.8365  0.1992
24735SOL     OW77609   8.586   7.551  10.185  0.4920  0.1655  1.2143
24735SOL    HW177610   8.581   7.540  10.280  0.5326 -0.3562  1.1623
24735SOL    HW277611   8.549   7.470  10.150  0.5522  0.3219  0.7855
24736SOL     OW77612   9.835   5.651   0.408  0.4995 -0.4682  0.3544
24736SOL    HW177613   9.900   5.581   0.403  0.9063 -0.1025  0.4643
24736SOL    HW277614   9.764   5.623   0.350 -0.3958 -2.0841  2.1635
24737SOL     OW77615   3.068   8.362   5.434 -0.0929 -0.3867 -0.4214
24737SOL    HW177616   3.158   8.336   5.454 -0.1921 -0.0254  0.5492
24737SOL    HW277617   3.075   8.451   5.400 -0.2199  0.3213  1.3227
24738SOL     OW77618  10.783   9.520   3.428 -0.2890  0.2461 -0.1181
24738SOL    HW177619  10.802   9.604   3.470 -2.3918  1.3105 -1.1880
24738SOL    HW277620  10.689   9.507   3.442  0.0447 -1.9987  0.1379
24739SOL     OW77621   5.017   0.561   4.778  0.4218 -0.3368  0.3707
24739SOL    HW177622   5.070   0.640   4.788  1.5351 -0.9223 -0.6294
24739SOL    HW277623   4.951   0.584   4.712 -0.7254  0.4631  1.7773
24740SOL     OW77624   8.651   2.142   0.587 -0.7046  0.4305 -0.0213
24740SOL    HW177625   8.640   2.133   0.492 -0.6463  0.3220 -0.0172
24740SOL    HW277626   8.741   2.170   0.598 -0.3278 -0.7887  0.0781
24741SOL     OW77627   9.996   7.485   1.358  0.4475  0.4778  0.2403
24741SOL    HW177628  10.013   7.391   1.368 -0.6803  0.1236 -1.0476
24741SOL    HW277629   9.902   7.494   1.372  0.4703  1.3493 -0.1234
24742SOL     OW77630   7.777   4.495   7.981  0.1146 -0.2775  0.0151
24742SOL    HW177631   7.797   4.409   7.945 -1.0166 -0.5808  0.0925
24742SOL    HW277632   7.798   4.488   8.074 -0.7293 -0.7162  0.1747
24743SOL     OW77633   8.470   1.394   4.102  0.2092  0.3849 -0.4117
24743SOL    HW177634   8.385   1.360   4.072 -0.2566  0.0515  1.2124
24743SOL    HW277635   8.534   1.336   4.062 -0.4622 -0.8252  0.1977
24744SOL     OW77636   2.604   9.840   0.560  0.1040 -0.1850 -1.0052
24744SOL    HW177637   2.519   9.823   0.521  0.4524  0.0385 -1.8785
24744SOL    HW277638   2.658   9.765   0.536 -0.5788 -1.6506  1.8118
24745SOL     OW77639   1.774   8.843   7.150  0.5273  0.0663 -0.1210
24745SOL    HW177640   1.718   8.900   7.098 -1.2116 -0.6314  0.9431
24745SOL    HW277641   1.714   8.778   7.187  2.4274 -2.3976 -1.2151
24746SOL     OW77642   6.117   2.163   4.397 -0.1521  0.5139 -0.5900
24746SOL    HW177643   6.161   2.227   4.453  0.2792  1.3152 -1.8294
24746SOL    HW277644   6.160   2.172   4.312  0.8546 -2.3275 -0.4768
24747SOL     OW77645   6.618   1.692   7.100 -0.3033 -0.0791 -0.9820
24747SOL    HW177646   6.544   1.750   7.119  0.0448 -0.3137  1.2700
24747SOL    HW277647   6.579   1.612   7.067 -1.0582 -0.1215  0.0001
24748SOL     OW77648  10.484   9.702   9.966 -0.3858 -0.1660 -0.0472
24748SOL    HW177649  10.487   9.682  10.059  1.5346  1.0349  0.1632
24748SOL    HW277650  10.417   9.643   9.931 -0.8270 -0.9127  2.0031
24749SOL     OW77651   4.348   1.866   2.096 -0.0044  0.3034  0.3235
24749SOL    HW177652   4.369   1.955   2.068  2.4649 -0.3888 -0.1368
24749SOL    HW277653   4.343   1.872   2.192 -1.6516  1.2773  0.1985
24750SOL     OW77654   5.981   0.661   0.779 -0.4981  0.0803  0.1854
24750SOL    HW177655   5.928   0.728   0.736 -0.7756  0.9933  1.9302
24750SOL    HW277656   5.921   0.618   0.840  0.6499  0.8192  1.8534
24751SOL     OW77657  10.691   1.739   7.726 -0.3558 -0.0555  0.3673
24751SOL    HW177658  10.741   1.728   7.807 -0.6182 -1.3402  0.3619
24751SOL    HW277659  10.601   1.749   7.754 -0.3006  0.6246  0.2951
24752SOL     OW77660   4.385   4.309   4.556  0.3076  0.3613  0.1131
24752SOL    HW177661   4.398   4.261   4.474 -1.1350  0.8285 -0.3953
24752SOL    HW277662   4.399   4.400   4.533 -0.4430  0.5297  0.3109
24753SOL     OW77663   2.521   6.207  10.790  0.6652 -0.0784 -0.2110
24753SOL    HW177664   2.547   6.154  10.865  1.0791  0.1354 -0.2034
24753SOL    HW277665   2.548   6.155  10.714  0.3241 -0.2544 -0.2158
24754SOL     OW77666  10.150   2.003   8.010 -0.7381  0.2952 -0.0309
24754SOL    HW177667  10.128   1.916   8.044 -0.3779  0.1807 -0.0910
24754SOL    HW277668  10.164   1.989   7.916  0.0121  0.2863  0.0775
24755SOL     OW77669   1.012   8.971   9.595  0.2464  0.3195 -0.1978
24755SOL    HW177670   1.026   8.932   9.509  3.5806 -1.1642  0.9227
24755SOL    HW277671   1.088   9.028   9.609 -0.1424  0.3917  1.8271
24756SOL     OW77672   0.289   7.115  10.439  0.0199 -0.0605  0.7100
24756SOL    HW177673   0.274   7.109  10.344  0.6452  1.6508  0.4878
24756SOL    HW277674   0.275   7.207  10.460 -1.8604 -0.7352  2.6098
24757SOL     OW77675   0.936   0.800  10.370  0.2901  0.1252  0.5442
24757SOL    HW177676   0.899   0.886  10.391 -0.1368  0.1648 -0.3430
24757SOL    HW277677   0.975   0.770  10.452  0.9091  1.3994  0.7323
24758SOL     OW77678   5.331   6.518   6.444 -0.0795  0.1239  0.1165
24758SOL    HW177679   5.355   6.607   6.470  0.2586  0.1949 -0.4290
24758SOL    HW277680   5.397   6.493   6.380  1.8740 -1.8362  2.7821
24759SOL     OW77681   1.767   7.657   8.402 -0.3188  0.3674 -0.0879
24759SOL    HW177682   1.775   7.579   8.456  2.4678  0.2377 -0.6366
24759SOL    HW277683   1.763   7.624   8.312  1.5803  0.8690 -0.3718
24760SOL     OW77684   3.475   0.415   3.146  0.0263 -0.0776 -0.0771
24760SOL    HW177685   3.501   0.500   3.111  0.7631  0.2162  1.1300
24760SOL    HW277686   3.434   0.435   3.230 -1.1368 -0.8092 -0.4581
24761SOL     OW77687  10.467   3.353   2.030 -0.6540  0.9831 -0.2902
24761SOL    HW177688  10.495   3.293   2.099 -0.1413  1.8939  0.3055
24761SOL    HW277689  10.440   3.296   1.958 -0.8879  0.0295  0.5416
24762SOL     OW77690   0.044   3.141   8.568 -0.3826 -0.1899 -0.6798
24762SOL    HW177691   0.040   3.055   8.609  1.4345 -0.2358 -0.5626
24762SOL    HW277692  -0.004   3.131   8.486  0.4099 -1.5032 -0.9911
24763SOL     OW77693   9.761   9.565   5.786  0.4336 -0.0619  0.4146
24763SOL    HW177694   9.722   9.488   5.744  1.5774  0.3896 -1.5411
24763SOL    HW277695   9.842   9.580   5.738  2.0632  0.1852  3.1421
24764SOL     OW77696   8.631   4.650   6.971 -0.1641 -0.1655  0.6130
24764SOL    HW177697   8.726   4.657   6.980  0.0048 -0.3520 -0.9456
24764SOL    HW277698   8.611   4.561   7.002  0.4031 -0.7857 -0.7494
24765SOL     OW77699   5.483   1.284   1.529 -0.2835 -0.3763 -0.2197
24765SOL    HW177700   5.400   1.319   1.560  0.1693  0.8810 -0.3675
24765SOL    HW277701   5.547   1.314   1.593 -0.0702 -2.1657  0.4225
24766SOL     OW77702   2.858   0.869   2.918  0.6455 -0.2409  0.1488
24766SOL    HW177703   2.894   0.811   2.985 -0.4914 -1.7761 -0.5309
24766SOL    HW277704   2.893   0.835   2.836 -1.3723 -1.0508 -0.4115
24767SOL     OW77705   6.428   0.680   7.618 -0.0100 -0.6786  0.8672
24767SOL    HW177706   6.450   0.652   7.530 -1.8075 -1.3673  0.6000
24767SOL    HW277707   6.512   0.696   7.661  0.8863 -0.8616 -0.7909
24768SOL     OW77708   9.264   5.511   0.796 -0.2816  0.1821  0.1250
24768SOL    HW177709   9.297   5.470   0.716 -1.2635 -0.8844  0.2609
24768SOL    HW277710   9.180   5.549   0.771  0.3418  1.6116  0.1527
24769SOL     OW77711  10.099   6.412  10.464 -0.5266  0.4542  0.0054
24769SOL    HW177712  10.118   6.380  10.376  1.4067 -0.0228  0.5584
24769SOL    HW277713  10.028   6.356  10.495  3.0289 -3.7592  1.0945
24770SOL     OW77714   2.013   8.102   7.774 -0.5419  0.2019 -0.1636
24770SOL    HW177715   2.008   8.192   7.741 -1.4537  1.3138  2.8172
24770SOL    HW277716   2.105   8.091   7.798 -0.5327  0.5118 -0.0528
24771SOL     OW77717   3.720   7.747   5.593  0.0638  0.1686  0.1733
24771SOL    HW177718   3.792   7.764   5.533  0.6648  1.3084  1.1999
24771SOL    HW277719   3.697   7.656   5.577  2.4675 -0.5487  0.5925
24772SOL     OW77720   3.679   0.897   9.305  0.0748  0.0942  0.2594
24772SOL    HW177721   3.675   0.962   9.375 -0.6282 -0.2422  0.5393
24772SOL    HW277722   3.683   0.813   9.351 -1.0118 -0.1630 -0.0947
24773SOL     OW77723   2.376   6.190   9.136  0.5363 -0.6552  0.3150
24773SOL    HW177724   2.461   6.233   9.128  0.9399 -1.3222  0.9377
24773SOL    HW277725   2.377   6.150   9.223 -0.5673 -0.3483  0.4736
24774SOL     OW77726   5.228   2.408  10.878 -0.1982 -0.1072 -0.4575
24774SOL    HW177727   5.209   2.373  10.966 -1.6779  0.0785 -0.6826
24774SOL    HW277728   5.273   2.337  10.833  0.0071 -0.4327  0.2603
24775SOL     OW77729   7.014   9.451   1.273  0.3297 -0.4435 -0.4997
24775SOL    HW177730   7.109   9.444   1.267  0.5631  0.2184  1.9227
24775SOL    HW277731   6.981   9.378   1.220  2.1527 -0.3857 -1.7691
24776SOL     OW77732   5.746   0.267   8.608 -0.4519 -0.1456  0.3029
24776SOL    HW177733   5.725   0.262   8.515 -0.2625  3.2510  0.0141
24776SOL    HW277734   5.675   0.318   8.647 -0.4813 -1.4353  2.0118
24777SOL     OW77735   2.583   8.792   3.141 -0.2187 -0.2370  0.0909
24777SOL    HW177736   2.631   8.793   3.223  3.2057 -0.3814 -1.8237
24777SOL    HW277737   2.583   8.884   3.112  0.4323 -0.4976 -0.7547
24778SOL     OW77738   7.626   7.732   4.508 -0.2458 -0.5557 -0.2741
24778SOL    HW177739   7.698   7.715   4.447  0.1427  3.8159 -1.2391
24778SOL    HW277740   7.613   7.827   4.503 -3.5178 -0.7421  2.8005
24779SOL     OW77741   9.254   5.321   6.930  0.4126 -0.4730 -0.0492
24779SOL    HW177742   9.252   5.251   6.864 -0.9864 -1.7951  1.3541
24779SOL    HW277743   9.240   5.276   7.013  0.5756  1.3656  0.9926
24780SOL     OW77744  10.324   8.443   8.655 -0.1529 -0.4607 -0.3990
24780SOL    HW177745  10.292   8.390   8.728  0.5189  0.6913  0.7349
24780SOL    HW277746  10.405   8.482   8.687  0.0242  0.2389 -1.6830
24781SOL     OW77747   4.025   0.198  10.832  0.2031 -0.3875  0.0453
24781SOL    HW177748   4.002   0.272  10.888 -0.6450  1.6226 -2.8625
24781SOL    HW277749   3.947   0.185  10.777  1.1970 -1.9753 -1.0124
24782SOL     OW77750   2.981   8.800   5.265 -0.4187 -0.1865  0.4351
24782SOL    HW177751   3.014   8.793   5.175  0.8678 -0.6032  0.9178
24782SOL    HW277752   3.041   8.745   5.316 -0.2728  1.1932  1.7701
24783SOL     OW77753   5.276   0.662   5.792  0.1569 -0.0385 -0.0736
24783SOL    HW177754   5.303   0.586   5.742  1.2585  0.5499 -0.3835
24783SOL    HW277755   5.354   0.718   5.795 -0.4483  0.7765  0.6976
24784SOL     OW77756   4.708   5.266   7.171 -0.7624  0.1891 -0.2180
24784SOL    HW177757   4.736   5.202   7.105 -1.4134 -0.6014  0.2676
24784SOL    HW277758   4.627   5.302   7.135 -1.0730 -0.1819  0.0959
24785SOL     OW77759   0.407   6.574   0.113  0.1923  0.2502  0.1585
24785SOL    HW177760   0.414   6.661   0.074  0.5705  0.4275  0.6232
24785SOL    HW277761   0.460   6.578   0.192  0.5000 -0.5042  0.0013
24786SOL     OW77762   5.228   2.865   2.743 -0.4029  0.4037 -0.2818
24786SOL    HW177763   5.206   2.934   2.806 -0.2864  0.7623 -0.6336
24786SOL    HW277764   5.145   2.819   2.729 -1.1440  2.2436 -2.1896
24787SOL     OW77765   7.396   2.322   8.183 -0.3969 -0.3339 -0.1024
24787SOL    HW177766   7.391   2.413   8.153 -0.2992 -0.1796  0.3470
24787SOL    HW277767   7.484   2.293   8.156  0.3755  0.3744  1.6305
24788SOL     OW77768   3.851   8.421   8.786 -0.3197  0.0544  0.0071
24788SOL    HW177769   3.846   8.330   8.757 -0.7991  0.4183 -1.0792
24788SOL    HW277770   3.883   8.415   8.876  0.8640 -1.1158 -0.4733
24789SOL     OW77771   6.676   5.621  10.136  0.2966  0.2137  0.3069
24789SOL    HW177772   6.750   5.630  10.076  0.0476 -0.7498 -0.1554
24789SOL    HW277773   6.602   5.661  10.089  0.1519 -0.3382  0.0580
24790SOL     OW77774   1.168   1.309   7.078  0.0251 -0.3902  0.1806
24790SOL    HW177775   1.251   1.347   7.050 -0.1435 -0.2490 -0.1350
24790SOL    HW277776   1.184   1.278   7.167  1.2500 -2.9565 -0.8989
24791SOL     OW77777   4.055   8.516   0.224 -0.0857  0.2188  0.1768
24791SOL    HW177778   4.050   8.532   0.130 -1.7393  0.1458  0.2321
24791SOL    HW277779   4.119   8.579   0.256  0.7914 -0.0399 -1.0568
24792SOL     OW77780   1.789   2.830   8.948 -0.2120 -0.0267  0.0397
24792SOL    HW177781   1.734   2.753   8.936  0.4835 -0.9128  2.3225
24792SOL    HW277782   1.866   2.812   8.895 -0.1473 -0.8246  0.3897
24793SOL     OW77783   6.507  10.719   3.817 -0.6222  0.0119  0.3524
24793SOL    HW177784   6.470  10.646   3.867 -1.6365 -1.9178 -3.0502
24793SOL    HW277785   6.432  10.773   3.793 -0.3269  0.1718 -0.2241
24794SOL     OW77786   0.853   9.653   6.447 -0.1329 -0.2108  0.5120
24794SOL    HW177787   0.912   9.594   6.402  0.9571  1.5355 -0.4124
24794SOL    HW277788   0.803   9.597   6.506  1.6722 -1.8716  0.5159
24795SOL     OW77789  10.231  10.208   4.766  0.0625 -0.5113 -0.6540
24795SOL    HW177790  10.185  10.290   4.750 -1.0401 -0.8048  0.8340
24795SOL    HW277791  10.222  10.159   4.684 -0.5029  0.2739 -1.0700
24796SOL     OW77792   3.545   2.888   0.351  0.3751 -0.1420 -0.3923
24796SOL    HW177793   3.599   2.929   0.418 -2.1072  1.0025  0.9869
24796SOL    HW277794   3.508   2.811   0.394 -1.1176  0.5211 -0.4376
24797SOL     OW77795   2.713  10.936   3.361  0.2276  0.4396  0.3157
24797SOL    HW177796   2.670  10.945   3.446  0.4538  0.9076  0.3836
24797SOL    HW277797   2.773  10.862   3.372 -1.2123 -0.8016 -0.0581
24798SOL     OW77798   0.211   4.235   6.660  0.3546  0.0450  0.2230
24798SOL    HW177799   0.265   4.238   6.739 -0.0467  1.1996  0.4524
24798SOL    HW277800   0.274   4.229   6.588  0.7343 -0.3545  0.5834
24799SOL     OW77801   9.057   9.851   1.077 -0.6167 -0.5018  0.5260
24799SOL    HW177802   9.013   9.875   0.996 -0.5134  0.0120  0.6193
24799SOL    HW277803   8.989   9.810   1.131 -0.6224 -1.0841  0.0814
24800SOL     OW77804   1.597   4.024   8.052 -0.3709 -0.0002  0.5372
24800SOL    HW177805   1.571   4.114   8.073 -1.1369  0.3597 -1.7615
24800SOL    HW277806   1.545   3.970   8.112 -0.4268  1.0451  1.4559
24801SOL     OW77807  10.013   2.209   4.874 -0.1766 -0.1130 -0.5526
24801SOL    HW177808   9.976   2.147   4.810  0.2918 -2.0762  1.0417
24801SOL    HW277809   9.938   2.259   4.905 -0.6363 -0.1807 -1.5349
24802SOL     OW77810   6.108   0.636   2.923 -0.2956 -0.5325 -0.2770
24802SOL    HW177811   6.175   0.687   2.878 -0.2685  1.6001  2.0675
24802SOL    HW277812   6.156   0.567   2.969  0.1978  0.3672  0.5675
24803SOL     OW77813   3.092   0.399   6.373  0.1328 -0.0028 -0.0736
24803SOL    HW177814   3.081   0.493   6.361  1.2942  0.5806  2.8176
24803SOL    HW277815   3.178   0.390   6.413  0.1339 -2.3254 -0.5189
24804SOL     OW77816   8.344   0.805   8.492 -0.2174  1.0629 -0.1384
24804SOL    HW177817   8.269   0.779   8.439 -1.3034  1.1818  1.3246
24804SOL    HW277818   8.377   0.723   8.529  0.0731  1.0755 -0.3605
24805SOL     OW77819   5.243   2.400  10.478 -0.2628  0.0350  0.0493
24805SOL    HW177820   5.301   2.360  10.413 -1.5326 -1.7105 -0.0394
24805SOL    HW277821   5.285   2.483  10.499  1.2749 -0.3345 -1.4265
24806SOL     OW77822   5.574   9.766   4.716  0.8568 -0.4054  0.2916
24806SOL    HW177823   5.656   9.716   4.717  0.9027 -0.5733 -3.5802
24806SOL    HW277824   5.505   9.700   4.707  0.5630 -0.0559 -0.0269
24807SOL     OW77825   6.746   8.204   1.148 -0.1039 -0.5934  0.1055
24807SOL    HW177826   6.777   8.259   1.076 -0.9917 -0.7966 -0.4292
24807SOL    HW277827   6.734   8.266   1.221  1.0421 -0.4286  0.1636
24808SOL     OW77828   8.552   6.805  10.342 -0.1179 -0.3729  0.2273
24808SOL    HW177829   8.617   6.756  10.291 -1.3747  0.3846 -2.1390
24808SOL    HW277830   8.470   6.758  10.329 -1.2247  1.9830 -1.5859
24809SOL     OW77831   3.955   6.315   9.501  0.1938 -0.3681 -0.7723
24809SOL    HW177832   4.001   6.244   9.546  0.1498 -0.0445 -0.2077
24809SOL    HW277833   3.879   6.273   9.461 -0.1063 -0.5607 -0.0162
24810SOL     OW77834   1.186   6.698   0.010 -0.3337  0.2246 -0.1566
24810SOL    HW177835   1.146   6.718   0.094  0.6396  1.3610  0.0500
24810SOL    HW277836   1.280   6.703   0.027 -0.0110 -4.0245 -0.2287
24811SOL     OW77837   1.726   0.273   0.675  0.3152  0.0061 -0.1729
24811SOL    HW177838   1.758   0.211   0.741  0.3988 -1.2723 -1.3957
24811SOL    HW277839   1.786   0.263   0.601 -0.4600  0.5968 -0.8917
24812SOL     OW77840   7.409   5.176   6.618  0.4354 -0.5084 -1.0533
24812SOL    HW177841   7.486   5.122   6.630  1.0044  0.7924  1.6932
24812SOL    HW277842   7.349   5.148   6.688 -0.3677  0.4718 -1.3308
24813SOL     OW77843   3.081   1.158   6.022  0.3784 -0.3640 -0.7617
24813SOL    HW177844   3.159   1.175   6.074  0.2987 -0.5926 -0.5648
24813SOL    HW277845   3.049   1.073   6.053 -0.0370 -0.2018 -0.7336
24814SOL     OW77846   6.911   3.944   9.517  0.0257  0.1274 -0.3130
24814SOL    HW177847   6.817   3.925   9.522  0.3343 -1.2695  0.5012
24814SOL    HW277848   6.954   3.860   9.538  1.4448  1.0250  0.4855
24815SOL     OW77849   9.173   3.648  10.135 -0.4830  0.0617 -0.3971
24815SOL    HW177850   9.255   3.698  10.133  0.5448 -1.5194  0.9781
24815SOL    HW277851   9.192   3.571  10.082 -0.7387 -0.7968  0.7493
24816SOL     OW77852   4.169   8.669   0.427  0.3475 -0.1970  0.4787
24816SOL    HW177853   4.096   8.730   0.421  1.1506  0.7788  0.3054
24816SOL    HW277854   4.145   8.609   0.497 -0.8681 -0.2462  0.0303
24817SOL     OW77855   0.021   0.154   5.021  0.2170 -0.0129  0.4530
24817SOL    HW177856  -0.053   0.183   4.967 -0.5029  1.1793  2.0327
24817SOL    HW277857   0.005   0.061   5.034  1.1091 -0.6407 -2.4396
24818SOL     OW77858   9.186   7.059   7.848 -0.0980 -0.0123  0.0633
24818SOL    HW177859   9.097   7.027   7.867 -0.4872  0.9075 -0.1684
24818SOL    HW277860   9.229   7.062   7.934  0.1773 -1.7932  0.0132
24819SOL     OW77861   5.692   6.216   0.539 -0.0122  0.1255 -0.2489
24819SOL    HW177862   5.602   6.214   0.570  0.2336  1.4459  0.5800
24819SOL    HW277863   5.729   6.132   0.567 -0.6265  0.0975  0.4729
24820SOL     OW77864   0.896   4.541   3.039  0.1071 -0.0401  0.2723
24820SOL    HW177865   0.841   4.558   3.115  0.3556  1.4187  0.1311
24820SOL    HW277866   0.908   4.626   2.998  1.4633 -0.5291 -0.3855
24821SOL     OW77867  10.195   4.906   6.701 -0.3044 -0.2822  0.2598
24821SOL    HW177868  10.161   4.888   6.788 -1.2865 -2.1171 -0.4682
24821SOL    HW277869  10.285   4.872   6.703 -0.9380 -2.0049  0.0145
24822SOL     OW77870   6.904   7.767   5.002 -0.4471 -0.3659 -0.2648
24822SOL    HW177871   6.847   7.841   4.982 -0.1746  0.2514  1.2452
24822SOL    HW277872   6.962   7.798   5.071 -1.0696 -2.3355  1.1960
24823SOL     OW77873   5.197   2.169   1.031 -0.2693 -0.0570 -0.0149
24823SOL    HW177874   5.289   2.188   1.013 -0.5480  0.2120 -1.1748
24823SOL    HW277875   5.178   2.091   0.980 -0.4890 -0.5496  0.8105
24824SOL     OW77876   4.894   6.063   1.013  0.0417 -0.4526  0.0647
24824SOL    HW177877   4.877   6.013   0.933 -0.6530  1.0850 -0.7833
24824SOL    HW277878   4.883   6.000   1.084 -2.2100 -1.1922 -0.8903
24825SOL     OW77879  10.128   7.296   1.662 -0.4749 -0.0779 -0.4429
24825SOL    HW177880  10.062   7.255   1.607 -0.9715 -2.3546  1.7475
24825SOL    HW277881  10.207   7.298   1.607 -1.9937  1.4927 -2.6250
24826SOL     OW77882   4.902   4.165   8.145 -0.3030 -0.3026 -0.0979
24826SOL    HW177883   4.895   4.260   8.142  2.7133 -0.0545 -2.2328
24826SOL    HW277884   4.867   4.136   8.061  1.3274 -0.8021 -0.6404
24827SOL     OW77885   2.601   1.336   6.359  0.3410 -0.6095  0.0755
24827SOL    HW177886   2.571   1.250   6.388  0.1618  0.0001  1.7698
24827SOL    HW277887   2.667   1.361   6.423  1.0037  0.1443 -0.8984
24828SOL     OW77888   2.462   0.573   8.577 -0.0622  0.4727  0.6074
24828SOL    HW177889   2.511   0.507   8.528 -1.6475  0.7083 -1.3864
24828SOL    HW277890   2.468   0.546   8.668  2.2400 -0.4840  0.2053
24829SOL     OW77891   5.621   0.823   6.142 -0.5404 -0.4437 -0.1037
24829SOL    HW177892   5.635   0.756   6.210 -1.1106 -0.9616 -0.4939
24829SOL    HW277893   5.573   0.892   6.187  0.1618 -0.2270  0.3349
24830SOL     OW77894   3.919   9.948  10.398 -0.4681  0.6511 -0.0367
24830SOL    HW177895   3.927   9.903  10.314 -3.7248  1.2848 -0.7693
24830SOL    HW277896   3.889  10.036  10.375  0.6885  1.5176  1.6917
24831SOL     OW77897   9.652   4.759   0.123 -0.8167  0.8449 -0.8640
24831SOL    HW177898   9.626   4.738   0.213 -2.1644  1.7542 -1.0355
24831SOL    HW277899   9.609   4.693   0.069  0.0418  0.2622 -0.8421
24832SOL     OW77900   0.375   0.669   9.643 -0.7262 -0.3097  0.2628
24832SOL    HW177901   0.440   0.739   9.645  0.6779 -1.5733 -0.2720
24832SOL    HW277902   0.293   0.713   9.620  0.2667  1.0536 -0.7333
24833SOL     OW77903   6.160   4.120   4.680 -0.3754 -0.5226  0.4053
24833SOL    HW177904   6.207   4.181   4.624 -0.7729  1.5061  2.2199
24833SOL    HW277905   6.194   4.137   4.768 -2.5270 -0.9528  1.3451
24834SOL     OW77906   0.051   8.840   5.365 -0.4292 -0.3600  0.8464
24834SOL    HW177907   0.133   8.874   5.400  0.4480 -1.9848  0.4023
24834SOL    HW277908  -0.017   8.892   5.408  0.8839  2.4185 -0.3488
24835SOL     OW77909   0.428   0.881   2.271 -0.3432 -0.0210  0.2262
24835SOL    HW177910   0.471   0.805   2.232  0.9985  1.4326 -1.2410
24835SOL    HW277911   0.501   0.938   2.297 -1.3349  1.3170  0.1180
24836SOL     OW77912   1.007   0.033  10.512 -0.4220 -0.2710  0.4243
24836SOL    HW177913   1.040   0.116  10.476  0.6205 -0.8633  0.0111
24836SOL    HW277914   0.939   0.006  10.450  0.2754 -0.4873 -0.2413
24837SOL     OW77915   2.022   3.638   7.153  0.3090 -0.5260 -0.4083
24837SOL    HW177916   1.937   3.594   7.146 -0.9227  1.7909 -0.3385
24837SOL    HW277917   2.022   3.701   7.081  1.0577  1.0248  0.9366
24838SOL     OW77918   6.704   1.697   7.850  0.2421 -0.5950 -0.3755
24838SOL    HW177919   6.799   1.704   7.859  0.0593  0.1321  1.1953
24838SOL    HW277920   6.674   1.788   7.840 -0.4998 -0.5924  1.6237
24839SOL     OW77921   0.887   0.264  10.212 -0.5619 -0.4932  0.7218
24839SOL    HW177922   0.812   0.318  10.188 -0.4761 -1.7577 -2.5949
24839SOL    HW277923   0.849   0.190  10.259 -1.1470 -0.0392  0.9702
24840SOL     OW77924   7.012   6.239  10.280  0.2755 -0.2367 -0.4206
24840SOL    HW177925   6.917   6.239  10.294  0.3541  0.3605  0.1503
24840SOL    HW277926   7.048   6.205  10.362  0.6762  1.9119  0.3202
24841SOL     OW77927   5.235   8.701   4.901  0.0484 -0.3539 -0.1034
24841SOL    HW177928   5.247   8.676   4.809  0.9880 -2.7104  0.6507
24841SOL    HW277929   5.142   8.721   4.908  0.3048  1.7623 -2.0138
24842SOL     OW77930   4.113   2.108   7.959 -0.2178 -0.1082  0.0761
24842SOL    HW177931   4.198   2.090   7.999 -0.4679  0.0259  0.6681
24842SOL    HW277932   4.122   2.197   7.923 -0.4958  0.3772  1.1898
24843SOL     OW77933   4.652   4.898   5.569  0.0032 -0.1568 -0.2370
24843SOL    HW177934   4.711   4.956   5.522 -1.0386 -0.8274 -2.4507
24843SOL    HW277935   4.687   4.810   5.554 -1.8051 -0.6074 -1.9994
24844SOL     OW77936   1.128   1.142   6.824  0.1643  0.5596 -0.3062
24844SOL    HW177937   1.043   1.100   6.840  1.0139 -0.6299  1.2349
24844SOL    HW277938   1.162   1.160   6.912  1.2326  1.6071 -0.9203
24845SOL     OW77939   7.001   3.477   7.308 -0.1296 -0.2734  0.1958
24845SOL    HW177940   6.998   3.445   7.398 -0.1518  1.3112  0.7798
24845SOL    HW277941   6.909   3.491   7.284 -0.0304  1.6814  0.8337
24846SOL     OW77942   6.642   0.237  10.965 -0.2391  0.3848 -0.0823
24846SOL    HW177943   6.680   0.162  11.009 -1.3206 -1.1646 -1.7146
24846SOL    HW277944   6.554   0.245  11.003 -1.5523 -1.5802 -2.5946
24847SOL     OW77945   7.780   6.698   7.567  0.4137 -0.1243  0.0347
24847SOL    HW177946   7.785   6.780   7.518 -4.9651  1.6540  2.0325
24847SOL    HW277947   7.744   6.635   7.505  0.5016  0.1727 -0.3196
24848SOL     OW77948  10.375   6.492   7.920 -0.0479  0.2322  0.1093
24848SOL    HW177949  10.295   6.522   7.964  0.0442  0.2658  0.2544
24848SOL    HW277950  10.398   6.411   7.966 -0.7102 -0.4626 -0.7586
24849SOL     OW77951   2.619   5.787   8.543  0.0852  0.2351 -0.2521
24849SOL    HW177952   2.585   5.741   8.466 -1.5826 -0.1567  0.7012
24849SOL    HW277953   2.595   5.878   8.529 -0.5472  0.1063 -0.0337
24850SOL     OW77954   6.684   8.180   1.959  0.4260  0.1842  0.2315
24850SOL    HW177955   6.696   8.105   1.900  1.0614  0.0318  0.5496
24850SOL    HW277956   6.769   8.225   1.957  0.5429  0.0088  1.2753
24851SOL     OW77957   2.036   8.607   0.482 -0.1861 -0.4225  0.6058
24851SOL    HW177958   2.051   8.631   0.391 -2.5275 -3.6644 -0.6975
24851SOL    HW277959   2.093   8.666   0.532  1.6557  0.9126 -2.9481
24852SOL     OW77960  10.351   9.221   3.607 -0.6181 -0.1866 -0.1469
24852SOL    HW177961  10.298   9.299   3.590  1.0968  0.9031 -0.5363
24852SOL    HW277962  10.319   9.188   3.691 -0.1162  1.9704  0.9052
24853SOL     OW77963   2.500   6.448   1.321 -0.2591 -0.5600  0.4005
24853SOL    HW177964   2.457   6.499   1.389 -1.7651  1.0209 -1.6461
24853SOL    HW277965   2.447   6.369   1.314  0.5535 -1.2407  1.8022
24854SOL     OW77966   7.899   2.346   4.173 -0.1682 -0.1930 -0.3363
24854SOL    HW177967   7.926   2.414   4.236  0.1586 -0.7251  0.1064
24854SOL    HW277968   7.838   2.391   4.115 -0.3877  0.3450  0.2916
24855SOL     OW77969   9.351   4.989   5.790  0.0091 -0.0803  0.3925
24855SOL    HW177970   9.301   4.907   5.782  0.8207 -0.7097  1.6854
24855SOL    HW277971   9.285   5.055   5.810 -0.7812 -0.2185 -1.5664
24856SOL     OW77972   6.204   4.377   7.811 -0.8986 -0.6440 -0.2875
24856SOL    HW177973   6.202   4.472   7.799 -1.7382 -0.4772  1.0895
24856SOL    HW277974   6.297   4.354   7.803 -0.4880  0.5053  0.9659
24857SOL     OW77975   3.043   3.065  10.350 -0.0187  1.2275 -0.1301
24857SOL    HW177976   2.978   2.996  10.364  0.1880  1.4566  2.0817
24857SOL    HW277977   3.048   3.073  10.255 -0.6473 -1.2205 -0.4122
24858SOL     OW77978   8.602   5.038   3.484 -0.4526 -0.3471  0.5060
24858SOL    HW177979   8.603   5.128   3.515  1.4784  0.4942 -1.8346
24858SOL    HW277980   8.517   5.027   3.443 -0.7648  0.3423  0.9626
24859SOL     OW77981   4.189   4.343  10.617 -0.2689  0.1625 -0.5195
24859SOL    HW177982   4.230   4.363  10.533  0.6285  1.0017  0.1103
24859SOL    HW277983   4.134   4.418  10.635 -1.3395 -0.5188 -0.8838
24860SOL     OW77984   0.318   3.295   8.927 -0.3339  0.2677 -0.5290
24860SOL    HW177985   0.242   3.321   8.979 -0.2826 -0.5621 -0.0200
24860SOL    HW277986   0.382   3.365   8.940  0.5054 -0.9380  2.2869
24861SOL     OW77987   4.751  10.286  10.030 -0.7416 -0.3415  0.2111
24861SOL    HW177988   4.778  10.262   9.941 -0.4836 -0.2705  0.2720
24861SOL    HW277989   4.739  10.381  10.026  1.6477  0.0148  0.8891
24862SOL     OW77990  10.102   1.745   2.161  0.1370  0.2215 -0.2073
24862SOL    HW177991  10.187   1.705   2.142  0.6505  1.5259 -0.7071
24862SOL    HW277992  10.115   1.838   2.143 -1.8962  0.2041 -1.9799
24863SOL     OW77993   5.633   9.173   9.877 -0.0453 -0.6031 -0.0472
24863SOL    HW177994   5.553   9.145   9.921 -0.9599 -0.8460 -1.8174
24863SOL    HW277995   5.680   9.092   9.859  0.0731 -0.5449 -0.0045
24864SOL     OW77996   9.739   1.599   0.455 -0.5258  0.5282 -0.6138
24864SOL    HW177997   9.686   1.593   0.535 -0.1885 -0.7506 -0.4750
24864SOL    HW277998   9.709   1.679   0.412 -1.3724  0.7223  0.3226
24865SOL     OW77999   9.753  10.740   3.946  0.3540  0.0359 -0.0296
24865SOL    HW178000   9.745  10.813   4.007  0.0395 -0.0472  0.0251
24865SOL    HW278001   9.758  10.662   4.001 -1.9612 -0.2330 -0.1432
24866SOL     OW78002   2.409   9.085   7.968  0.0845 -0.1442  0.1240
24866SOL    HW178003   2.434   9.004   8.011  1.4038 -0.0004 -0.3515
24866SOL    HW278004   2.354   9.057   7.895 -0.6404 -0.5055  0.8039
24867SOL     OW78005   5.092   6.464   5.506  0.6908  0.1247 -0.2563
24867SOL    HW178006   5.045   6.381   5.503 -1.3718  1.2813 -1.2638
24867SOL    HW278007   5.169   6.450   5.451  1.2303 -1.6149  0.9144
24868SOL     OW78008   1.972   7.776   9.816  0.1238 -0.2391  0.7107
24868SOL    HW178009   2.030   7.784   9.740  0.0430 -1.3795  0.5281
24868SOL    HW278010   1.894   7.825   9.792 -0.2568 -1.3170 -0.2961
24869SOL     OW78011   4.831   9.450   1.615 -0.3078 -0.1749 -0.1843
24869SOL    HW178012   4.778   9.461   1.694  0.1059 -1.2439  0.2560
24869SOL    HW278013   4.768   9.420   1.549 -0.6093  0.4781 -0.1956
24870SOL     OW78014   0.266   9.709   0.386  0.0196 -0.3076  0.2564
24870SOL    HW178015   0.338   9.647   0.398  0.3265  0.1180  0.6137
24870SOL    HW278016   0.187   9.655   0.393  0.3044 -0.8891 -0.7629
24871SOL     OW78017   7.541   9.333   8.967  0.1605 -0.0295 -0.4643
24871SOL    HW178018   7.517   9.273   8.896  0.3779 -0.7721  0.0831
24871SOL    HW278019   7.609   9.286   9.016 -0.6035  0.1173  0.7447
24872SOL     OW78020   8.999   1.336   4.157 -0.1236  0.1512  0.0070
24872SOL    HW178021   8.974   1.336   4.065 -0.4837  1.2147  0.0954
24872SOL    HW278022   9.063   1.407   4.165 -0.5910  0.5114  0.6896
24873SOL     OW78023   9.433   6.219   1.145 -0.5921  0.5542 -0.4836
24873SOL    HW178024   9.516   6.172   1.139  1.4452  3.6454  2.1513
24873SOL    HW278025   9.449   6.303   1.102 -3.1093  0.2744 -2.0680
24874SOL     OW78026  10.517   4.523   1.770  0.8935 -0.0974  0.0043
24874SOL    HW178027  10.465   4.554   1.695  1.9892 -1.3905 -1.3250
24874SOL    HW278028  10.454   4.517   1.842 -1.0495 -2.4294 -1.7859
24875SOL     OW78029   2.831   9.957   3.125 -0.3121 -0.1449 -0.7403
24875SOL    HW178030   2.802   9.955   3.034  0.7573  0.9190 -1.1188
24875SOL    HW278031   2.752   9.977   3.175 -0.6071  0.8148 -1.5777
24876SOL     OW78032   5.139   4.555   3.978  0.4592  1.0126  0.3935
24876SOL    HW178033   5.118   4.597   4.061 -0.3677  1.3804  0.0045
24876SOL    HW278034   5.054   4.527   3.943  0.9988 -1.2022  0.7653
24877SOL     OW78035   9.838  10.879   0.588 -0.5365 -0.0028 -0.1587
24877SOL    HW178036   9.748  10.846   0.581 -0.5310 -0.2515  0.8465
24877SOL    HW278037   9.892  10.808   0.554 -0.7314  0.2145 -0.9256
24878SOL     OW78038   5.356   0.403   4.922 -0.2301 -0.1328 -0.0920
24878SOL    HW178039   5.275   0.427   4.969 -0.7279 -0.7341 -0.6323
24878SOL    HW278040   5.387   0.324   4.966  1.0224  1.0586  1.2295
24879SOL     OW78041   0.492   5.468   1.459 -0.4920  0.3760  0.0281
24879SOL    HW178042   0.455   5.517   1.385  0.0997  1.1319  0.2274
24879SOL    HW278043   0.574   5.433   1.426  0.4940  1.9412  0.7565
24880SOL     OW78044  10.005   2.283   2.227 -0.0438  0.2176 -0.2900
24880SOL    HW178045   9.927   2.241   2.190  0.2222 -0.0020 -0.6051
24880SOL    HW278046  10.070   2.280   2.156 -0.5096  2.5634 -0.8471
24881SOL     OW78047   9.558   9.012   9.950 -0.6496 -0.5459 -0.5093
24881SOL    HW178048   9.608   9.012  10.032  1.0278 -0.1099 -1.4980
24881SOL    HW278049   9.517   8.926   9.946 -1.8049 -0.1007  1.4065
24882SOL     OW78050   8.531   7.737   9.473  0.6015  0.0870  0.0467
24882SOL    HW178051   8.583   7.818   9.469 -0.6814  0.8876 -0.7604
24882SOL    HW278052   8.574   7.679   9.410  0.7499  0.6029 -0.3304
24883SOL     OW78053   3.319   2.066   0.125  0.5758 -0.5565 -0.0334
24883SOL    HW178054   3.272   2.122   0.186  0.1326 -1.1018  0.1367
24883SOL    HW278055   3.395   2.034   0.175 -0.2946 -1.7551  0.5605
24884SOL     OW78056   9.570   4.347   9.346 -0.5142 -0.0864 -0.3911
24884SOL    HW178057   9.664   4.335   9.349 -0.5664 -0.3511  0.3856
24884SOL    HW278058   9.542   4.298   9.268 -0.2894 -1.9923  0.6893
24885SOL     OW78059   0.651   1.195   0.931  0.4206 -0.2003 -0.2209
24885SOL    HW178060   0.733   1.205   0.979 -0.0970 -0.5936  0.7577
24885SOL    HW278061   0.625   1.285   0.910  0.8625 -0.0471 -0.1280
24886SOL     OW78062   4.934   7.065   8.351  0.2413 -0.0407 -0.6035
24886SOL    HW178063   4.960   7.156   8.333 -1.3119  0.6823  0.6719
24886SOL    HW278064   4.980   7.042   8.431 -0.5421  0.1615 -0.0866
24887SOL     OW78065   6.970   3.187   5.116  0.3321  0.2640 -0.1289
24887SOL    HW178066   7.032   3.164   5.186  0.2809 -0.9096 -0.4645
24887SOL    HW278067   7.007   3.147   5.038 -0.6792 -0.1442 -0.3981
24888SOL     OW78068   6.929  10.128   5.489  0.0321 -0.0634  0.3498
24888SOL    HW178069   7.012  10.171   5.509  0.7680 -1.3486  0.1363
24888SOL    HW278070   6.943  10.088   5.403 -0.9047 -0.0631  0.1878
24889SOL     OW78071   4.101  10.924   3.837 -0.0607 -0.4744  0.5330
24889SOL    HW178072   4.152  10.985   3.892 -1.8106 -0.0060  1.6856
24889SOL    HW278073   4.166  10.863   3.803  1.4733  0.9152  0.8705
24890SOL     OW78074   8.256   3.560   5.970 -0.4202  0.1026 -0.2993
24890SOL    HW178075   8.176   3.579   5.920 -1.6932  0.8938  1.9606
24890SOL    HW278076   8.266   3.465   5.965 -2.9801 -0.3163  1.5077
24891SOL     OW78077   6.069   4.324   8.052 -0.1225 -0.1177 -0.0947
24891SOL    HW178078   6.046   4.413   8.078  0.0293  0.0109 -0.3991
24891SOL    HW278079   6.112   4.334   7.967 -3.7577 -0.8715 -2.1283
24892SOL     OW78080   0.907   9.087   6.583 -0.2235  0.0283  0.5398
24892SOL    HW178081   1.000   9.095   6.559 -0.6595  0.4647 -1.0585
24892SOL    HW278082   0.860   9.106   6.502 -1.6976 -1.2319  1.0852
24893SOL     OW78083   2.086   2.804   3.476  0.0542 -0.5963 -0.3317
24893SOL    HW178084   2.162   2.759   3.515  0.8742  1.2995  0.3369
24893SOL    HW278085   2.112   2.896   3.473 -0.5676 -0.4785 -4.1098
24894SOL     OW78086  10.182   4.339   0.608  0.1720  0.0603 -0.5367
24894SOL    HW178087  10.269   4.379   0.614 -0.5949  2.1391 -2.2017
24894SOL    HW278088  10.144   4.350   0.695  1.0830  0.3499 -0.1719
24895SOL     OW78089   4.632   3.067   5.933 -0.0242  0.1507  0.1910
24895SOL    HW178090   4.568   3.011   5.977 -0.1865 -1.0229 -1.4662
24895SOL    HW278091   4.582   3.144   5.906 -0.5115 -0.2664 -0.1261
24896SOL     OW78092  10.127   1.816   4.220  0.0352 -0.3479 -0.0318
24896SOL    HW178093  10.154   1.830   4.129  1.0497  0.2305  0.3537
24896SOL    HW278094  10.039   1.854   4.224 -0.5676 -1.5707 -1.0943
24897SOL     OW78095   8.740   5.743   8.912 -0.2310  0.4562 -0.0075
24897SOL    HW178096   8.801   5.670   8.921 -1.9507 -0.8709  1.2630
24897SOL    HW278097   8.686   5.739   8.991 -1.2956  2.2258 -0.6123
24898SOL     OW78098   7.463  10.385   3.029 -0.6634  0.0244 -0.0351
24898SOL    HW178099   7.424  10.468   3.005 -1.2733  0.1397  1.3250
24898SOL    HW278100   7.405  10.349   3.095  0.9601 -0.2927  1.2462
24899SOL     OW78101   0.439   1.021   0.986 -0.0273 -0.4818 -0.4313
24899SOL    HW178102   0.507   1.087   0.972 -0.7035  0.3324  0.0822
24899SOL    HW278103   0.481   0.938   0.962  0.9219  0.0960 -0.7959
24900SOL     OW78104   4.159   5.381   1.177  0.7172  0.3896  0.0417
24900SOL    HW178105   4.112   5.455   1.216  0.5629  0.4609 -0.2797
24900SOL    HW278106   4.249   5.392   1.207  0.7591  0.8784 -0.2522
24901SOL     OW78107   2.240   3.201   9.016 -0.0559 -0.1123 -0.0140
24901SOL    HW178108   2.334   3.218   9.008 -0.3957  1.0329 -2.1373
24901SOL    HW278109   2.231   3.106   9.008  0.9372 -0.2281  0.2438
24902SOL     OW78110   9.931   2.008   4.188  0.2334 -0.2524  0.0405
24902SOL    HW178111   9.880   2.066   4.131  0.4246 -0.3599 -0.2393
24902SOL    HW278112   9.953   2.063   4.263  0.3822  0.0295 -0.2085
24903SOL     OW78113   6.067   6.160   2.077 -1.1825  0.6539  1.0460
24903SOL    HW178114   6.114   6.109   2.011 -1.4865  0.0781  1.2770
24903SOL    HW278115   6.115   6.243   2.080 -0.7312  0.4178  0.6199
24904SOL     OW78116   5.220   2.446   3.545  0.0956  0.3169 -0.2617
24904SOL    HW178117   5.197   2.367   3.496  0.4262  0.7193 -1.0621
24904SOL    HW278118   5.270   2.499   3.484  1.0471  0.5494  0.7111
24905SOL     OW78119   7.646   5.354   6.608  0.1100 -0.2629 -0.2341
24905SOL    HW178120   7.614   5.404   6.533 -0.1798 -0.3703 -0.1829
24905SOL    HW278121   7.673   5.270   6.571  3.3137  0.9368 -0.7945
24906SOL     OW78122   9.197   1.188   2.668 -0.0095 -0.2459 -0.6622
24906SOL    HW178123   9.192   1.143   2.584 -0.4246 -0.8613 -0.3105
24906SOL    HW278124   9.151   1.131   2.729  2.7365 -1.2036  0.5936
24907SOL     OW78125   2.358   1.563   6.244  0.0943  0.0471 -0.0984
24907SOL    HW178126   2.274   1.536   6.206  0.6052 -1.8022  0.0070
24907SOL    HW278127   2.364   1.513   6.326  0.4429  1.6102  0.8554
24908SOL     OW78128   5.335   4.370   0.603 -0.2355 -0.3546 -0.7590
24908SOL    HW178129   5.258   4.345   0.551 -1.2410  1.3715 -0.1473
24908SOL    HW278130   5.377   4.438   0.551 -0.2636  0.1409 -0.1350
24909SOL     OW78131   2.703   9.521   5.643  0.2620 -0.7280 -0.2392
24909SOL    HW178132   2.682   9.593   5.703  1.6626  0.1378 -0.7581
24909SOL    HW278133   2.635   9.526   5.576 -0.6534 -0.9874  0.6472
24910SOL     OW78134   5.989   7.720   4.213  0.2886  0.3837 -0.5799
24910SOL    HW178135   6.063   7.780   4.215  2.8885 -2.7246  1.1437
24910SOL    HW278136   5.951   7.726   4.300 -1.3135  1.7353 -1.3592
24911SOL     OW78137   5.078   7.077   5.278  0.1866 -0.3555 -0.0513
24911SOL    HW178138   5.110   7.072   5.187  1.4965 -0.3557  0.3900
24911SOL    HW278139   5.134   7.016   5.326 -0.6226 -0.4919  0.7299
24912SOL     OW78140   1.109  10.879   5.470  0.2118 -0.3587  0.5504
24912SOL    HW178141   1.036  10.824   5.497  0.2989  0.2964  2.1808
24912SOL    HW278142   1.070  10.965   5.453  0.3964 -0.3689  0.0635
24913SOL     OW78143   6.422   6.668   8.066  0.4403 -0.0397  0.0891
24913SOL    HW178144   6.393   6.657   7.976 -0.3443 -0.9840  0.4451
24913SOL    HW278145   6.356   6.724   8.106  0.5395  0.0036  0.1927
24914SOL     OW78146   7.385   1.613   2.561 -0.0009  0.0214 -0.1133
24914SOL    HW178147   7.473   1.636   2.529  0.2642  0.4789  0.9165
24914SOL    HW278148   7.388   1.634   2.654 -1.0136 -0.5573  0.0499
24915SOL     OW78149   1.117   6.233   0.203  0.2456  0.3062  0.0271
24915SOL    HW178150   1.092   6.310   0.152  0.4533  0.9062  0.8320
24915SOL    HW278151   1.111   6.260   0.294  0.5342 -0.5644  0.3175
24916SOL     OW78152  10.175   2.396   9.570  0.6167  0.2396  0.4291
24916SOL    HW178153  10.213   2.316   9.606  0.6978 -0.2465 -0.7327
24916SOL    HW278154  10.156   2.450   9.647 -0.5145 -1.3680  1.3021
24917SOL     OW78155   4.502   5.197   7.901  0.5773  0.0173 -0.0977
24917SOL    HW178156   4.595   5.216   7.888  0.1807  2.6969  0.6568
24917SOL    HW278157   4.464   5.203   7.814  1.5254 -3.8844 -0.8619
24918SOL     OW78158  10.767   8.061   2.991 -0.0003 -0.1040 -0.4635
24918SOL    HW178159  10.737   8.151   2.996  1.8546  0.6235 -1.9256
24918SOL    HW278160  10.723   8.025   2.914 -1.0285 -0.5767  0.3326
24919SOL     OW78161   4.486   9.000   0.543  0.0476 -0.1178  0.5650
24919SOL    HW178162   4.406   8.983   0.593  0.2893 -1.0465  0.6393
24919SOL    HW278163   4.477   8.947   0.464  0.7312 -0.4643  0.7177
24920SOL     OW78164  10.181   9.125   2.512 -0.2716 -0.0498 -0.2711
24920SOL    HW178165  10.183   9.036   2.549 -0.5211  0.1767  0.2910
24920SOL    HW278166  10.145   9.113   2.424  1.0595 -0.6892 -0.7373
24921SOL     OW78167   9.551   4.642   5.329  0.0874  0.3798 -0.5309
24921SOL    HW178168   9.549   4.679   5.417 -0.5693  0.5543 -0.6186
24921SOL    HW278169   9.556   4.548   5.343 -0.4914  0.3795 -0.3015
24922SOL     OW78170   8.105   1.142   6.954 -0.1038 -0.1794  0.2165
24922SOL    HW178171   8.149   1.070   7.000 -2.4468 -0.1788  2.5177
24922SOL    HW278172   8.125   1.219   7.006 -0.5765  0.2733 -0.2742
24923SOL     OW78173   3.294   0.504   1.875 -0.7508 -0.0567 -0.2181
24923SOL    HW178174   3.204   0.477   1.892 -0.6455  0.7644  1.7426
24923SOL    HW278175   3.348   0.441   1.924 -0.2490 -0.6043 -1.4574
24924SOL     OW78176   9.811   4.129   7.053 -0.1923  0.5664  0.4430
24924SOL    HW178177   9.739   4.091   7.103 -0.6101  0.6383 -0.1011
24924SOL    HW278178   9.769   4.184   6.987  0.3293 -0.1114 -0.4742
24925SOL     OW78179   7.639   4.397   9.332 -0.0387  0.4605 -0.0991
24925SOL    HW178180   7.609   4.475   9.286  0.1589  1.0018  0.6774
24925SOL    HW278181   7.734   4.397   9.319 -0.2470 -0.7825 -1.8277
24926SOL     OW78182   9.931   5.454   1.734 -0.5108  0.5159 -0.7866
24926SOL    HW178183   9.930   5.537   1.686 -0.0919  0.7107 -0.4689
24926SOL    HW278184   9.846   5.451   1.778 -0.0118  1.4561  0.3111
24927SOL     OW78185   5.767   0.865   5.301  0.6388 -0.1263  0.4567
24927SOL    HW178186   5.826   0.845   5.373  1.4205  0.5858  0.0235
24927SOL    HW278187   5.807   0.823   5.225 -0.0062 -0.5883  0.3609
24928SOL     OW78188  10.050   7.644   1.758 -0.1843  0.3023  0.0185
24928SOL    HW178189   9.985   7.709   1.785 -0.9327  0.0829 -1.2305
24928SOL    HW278190  10.001   7.562   1.752  0.4140 -0.0581 -0.0007
24929SOL     OW78191   2.738   7.643   7.477  0.4777 -0.1533 -0.1165
24929SOL    HW178192   2.656   7.650   7.427  1.4383 -0.2588 -1.7165
24929SOL    HW278193   2.735   7.717   7.538 -1.7962 -1.3577  1.3284
24930SOL     OW78194   5.990   3.158   5.958 -0.1636 -0.0816  0.0440
24930SOL    HW178195   6.027   3.089   5.902  0.2022 -0.2886  0.5421
24930SOL    HW278196   5.904   3.125   5.983 -0.1959 -0.1323 -0.1290
24931SOL     OW78197   0.940   4.777  10.535  0.5584  0.0588 -0.4263
24931SOL    HW178198   0.890   4.764  10.454  0.5058  0.1856 -0.4127
24931SOL    HW278199   1.011   4.713  10.529 -0.5725 -1.3059  0.3521
24932SOL     OW78200   2.034   5.571   8.681  0.2303 -0.2111  0.1787
24932SOL    HW178201   2.011   5.574   8.774  3.0073 -1.5313  0.9578
24932SOL    HW278202   1.999   5.488   8.651 -0.0660 -0.0963  0.2025
24933SOL     OW78203   1.298   7.535   3.298  0.5766  0.0347 -0.1665
24933SOL    HW178204   1.285   7.629   3.289 -0.7267 -0.2286 -1.1635
24933SOL    HW278205   1.351   7.510   3.223  0.7205 -0.0580 -0.0336
24934SOL     OW78206   2.636   7.048   7.374  0.3411  1.0867  0.5242
24934SOL    HW178207   2.621   6.962   7.414  1.3283 -1.3572 -4.0146
24934SOL    HW278208   2.716   7.080   7.416  2.4108 -2.2354 -0.6904
24935SOL     OW78209   1.379   7.156   9.968 -0.0333  0.5209 -0.0715
24935SOL    HW178210   1.464   7.189   9.937 -0.2282  1.0508 -0.0366
24935SOL    HW278211   1.371   7.070   9.927  0.5317  0.4616 -0.0638
24936SOL     OW78212   4.429   1.334   0.897 -0.1755  0.0324  0.1174
24936SOL    HW178213   4.500   1.397   0.906 -1.5969  2.0053 -1.8872
24936SOL    HW278214   4.354   1.375   0.941 -0.6014 -1.1794  0.5547
24937SOL     OW78215   4.749   0.854   2.575 -0.3024 -0.6516 -0.1109
24937SOL    HW178216   4.726   0.937   2.616  0.7725 -0.7166  0.6267
24937SOL    HW278217   4.729   0.867   2.482 -0.8874  0.1588  0.1215
24938SOL     OW78218   7.641   6.225   4.475 -0.2081 -0.2403 -0.6413
24938SOL    HW178219   7.593   6.268   4.546 -1.2304  2.2953 -2.7821
24938SOL    HW278220   7.732   6.226   4.503 -0.5941  0.7861  0.6191
24939SOL     OW78221   7.668   1.405   3.447  0.3594  0.1735 -0.2964
24939SOL    HW178222   7.683   1.485   3.497  1.7059  0.4489 -1.1163
24939SOL    HW278223   7.681   1.334   3.510  1.4475  0.5316 -0.1037
24940SOL     OW78224   5.693   4.258   7.587 -0.1297  0.1444 -0.1236
24940SOL    HW178225   5.678   4.190   7.653 -1.3982  0.9310  0.4107
24940SOL    HW278226   5.691   4.340   7.635 -0.1455  0.6680 -1.0031
24941SOL     OW78227   8.466   3.626   8.889 -0.3694 -0.0476 -0.1345
24941SOL    HW178228   8.390   3.682   8.903  1.2921  2.0296  0.8299
24941SOL    HW278229   8.439   3.540   8.921 -1.9021  0.9550  1.3373
24942SOL     OW78230  10.789   9.232   4.862  0.1174 -0.5894 -1.0256
24942SOL    HW178231  10.843   9.310   4.878 -0.0266 -0.2694 -2.0418
24942SOL    HW278232  10.809   9.174   4.935  0.4751  0.2683 -0.4268
24943SOL     OW78233   4.801   9.236   0.387  0.1615  0.4701 -0.2487
24943SOL    HW178234   4.873   9.299   0.394 -0.7762  1.7248 -1.3648
24943SOL    HW278235   4.724   9.291   0.369 -1.0082 -0.8695  0.6106
24944SOL     OW78236   7.550   1.541   4.365 -0.0904  0.0061  0.0248
24944SOL    HW178237   7.594   1.517   4.283 -0.3365 -4.1435  0.9755
24944SOL    HW278238   7.620   1.544   4.430 -0.3782 -0.3307  0.3507
24945SOL     OW78239   9.103   2.672   3.521 -0.0665  0.3633 -0.2483
24945SOL    HW178240   9.096   2.722   3.440 -1.9790 -1.7468 -1.4435
24945SOL    HW278241   9.052   2.593   3.504  1.8219 -1.3919  2.0326
24946SOL     OW78242   8.031   6.141   1.197  0.1207 -0.5625  0.1525
24946SOL    HW178243   8.125   6.146   1.178  0.4084 -1.3453  1.2972
24946SOL    HW278244   8.021   6.190   1.279 -0.6856  0.6465 -0.6572
24947SOL     OW78245   6.383   4.486   5.921 -0.3956  0.2553 -0.1442
24947SOL    HW178246   6.436   4.446   5.852  0.5943  0.8916  0.2340
24947SOL    HW278247   6.297   4.498   5.882 -1.4821 -4.5007  0.4448
24948SOL     OW78248   7.814   6.205   6.515 -0.1566  0.2392 -0.3339
24948SOL    HW178249   7.783   6.125   6.558  2.1198 -0.5404 -0.1039
24948SOL    HW278250   7.808   6.185   6.421  0.0560 -0.0567 -0.2848
24949SOL     OW78251  10.048   4.351   0.885  0.6229  0.2802 -0.1059
24949SOL    HW178252   9.982   4.293   0.925 -0.3606  0.1713 -1.8423
24949SOL    HW278253  10.037   4.434   0.932  0.0537 -0.0906  0.4367
24950SOL     OW78254   5.398  10.891   4.523  0.1465 -0.0913 -0.3874
24950SOL    HW178255   5.423  10.799   4.518  0.8072  0.1191 -0.9136
24950SOL    HW278256   5.461  10.937   4.468 -0.1964  0.6762 -0.1510
24951SOL     OW78257   1.290   0.842   7.871  1.1351  0.1467 -0.1391
24951SOL    HW178258   1.335   0.889   7.801  0.3690  0.8501 -0.1671
24951SOL    HW278259   1.259   0.911   7.930 -2.4250 -0.0753 -1.6051
24952SOL     OW78260   3.193   9.786   4.626 -0.1179  0.2940 -0.3356
24952SOL    HW178261   3.264   9.759   4.568  1.0877  1.1419  0.7276
24952SOL    HW278262   3.192   9.881   4.621 -1.1578  0.2898 -0.3084
24953SOL     OW78263   8.800   7.368   2.814 -0.2878  0.5730  0.5325
24953SOL    HW178264   8.793   7.462   2.798 -0.0402  0.6979  1.1523
24953SOL    HW278265   8.712   7.341   2.840 -0.9877  0.1562 -2.0981
24954SOL     OW78266   5.585   2.678   5.549  0.2635 -0.0192 -0.1154
24954SOL    HW178267   5.582   2.765   5.510  0.1024 -0.1193 -0.3283
24954SOL    HW278268   5.504   2.673   5.601 -0.2693 -0.4494 -0.9789
24955SOL     OW78269   5.235   8.160   6.522 -0.1011 -0.1931 -0.1764
24955SOL    HW178270   5.202   8.091   6.464  0.9220 -0.9222  0.1008
24955SOL    HW278271   5.288   8.114   6.587 -0.5407  0.7050  0.8497
24956SOL     OW78272   7.126   7.449   2.502  0.6153  0.3346  0.4123
24956SOL    HW178273   7.214   7.470   2.470  0.0766 -0.0720 -1.4254
24956SOL    HW278274   7.136   7.367   2.550  1.2826  0.4199  0.4190
24957SOL     OW78275   2.271   3.086   0.832 -0.4495  0.1796  0.7504
24957SOL    HW178276   2.236   3.084   0.921  0.5204  0.5123  1.1430
24957SOL    HW278277   2.364   3.103   0.843  0.0136 -1.5533 -0.2553
24958SOL     OW78278   1.027   8.804   8.473  0.0397  0.6778 -0.3467
24958SOL    HW178279   1.098   8.819   8.411 -1.2235  1.7238 -1.5693
24958SOL    HW278280   1.011   8.890   8.513 -0.2138  0.3505  0.2678
24959SOL     OW78281   9.705   5.005  10.969  0.0239 -0.4656 -0.0683
24959SOL    HW178282   9.775   4.998  10.904 -0.2561  0.0752 -0.4331
24959SOL    HW278283   9.696   4.916  11.004  0.0316 -0.8097 -0.9185
24960SOL     OW78284   2.818   6.817   2.034  0.1884 -0.7094 -0.0093
24960SOL    HW178285   2.767   6.898   2.042  0.7866 -0.2309 -0.9207
24960SOL    HW278286   2.831   6.788   2.124 -1.2924 -0.5887  0.2561
24961SOL     OW78287   1.784   2.317   7.093 -1.1099 -0.2832  0.0511
24961SOL    HW178288   1.791   2.221   7.095 -1.0623 -0.2701  0.5747
24961SOL    HW278289   1.769   2.338   7.001 -1.1936 -0.8012 -0.0555
24962SOL     OW78290   9.323   6.013   7.244  0.4950 -0.0902 -0.3819
24962SOL    HW178291   9.275   5.935   7.215  2.3504 -1.1762 -0.6042
24962SOL    HW278292   9.284   6.084   7.193  0.3544 -1.2290 -1.9248
24963SOL     OW78293   0.261   3.442   5.244 -0.0967  0.0960  0.3081
24963SOL    HW178294   0.170   3.421   5.222  0.5320 -1.1524 -1.2666
24963SOL    HW278295   0.306   3.357   5.244  1.4455  0.8852 -0.8043
24964SOL     OW78296   6.163   7.498   4.784  0.2476  0.4197 -0.2313
24964SOL    HW178297   6.106   7.422   4.771  0.4948 -0.0528  1.3770
24964SOL    HW278298   6.116   7.554   4.846  1.4552  0.0856  1.0084
24965SOL     OW78299   6.394   5.083   5.710 -0.3887  0.3327 -0.2220
24965SOL    HW178300   6.437   5.161   5.675  0.6864 -0.5022 -0.7524
24965SOL    HW278301   6.446   5.058   5.786 -1.4709  0.8663  0.7200
24966SOL     OW78302   9.272   9.479   9.008 -0.4877  0.2338 -0.6081
24966SOL    HW178303   9.263   9.415   9.079  0.7892  1.4238  0.6724
24966SOL    HW278304   9.225   9.556   9.040  0.4404  0.9119 -0.8849
24967SOL     OW78305   5.210   5.660   8.748  0.2738  0.1592  0.2392
24967SOL    HW178306   5.294   5.616   8.764 -0.1916 -0.2327  1.5866
24967SOL    HW278307   5.150   5.589   8.725  0.1402  0.3674 -0.0541
24968SOL     OW78308   1.983  10.636   6.060  0.0338 -0.2872 -0.2243
24968SOL    HW178309   1.912  10.700   6.068 -1.4646 -1.9364  0.0340
24968SOL    HW278310   2.029  10.641   6.144 -2.3166 -2.0748  1.2584
24969SOL     OW78311   9.450   1.974   7.538  0.5612  0.2781 -0.3591
24969SOL    HW178312   9.372   1.990   7.485  0.5680  3.0249  0.3786
24969SOL    HW278313   9.521   2.013   7.488  0.7729  1.6467  0.9594
24970SOL     OW78314   2.886   6.234   4.308 -0.1486 -0.4285 -0.1293
24970SOL    HW178315   2.800   6.197   4.326  0.0492 -0.0198  1.7265
24970SOL    HW278316   2.948   6.168   4.341  0.2189  0.3611  0.7847
24971SOL     OW78317   5.398  10.108   8.564 -0.0378  0.2653  0.7053
24971SOL    HW178318   5.448  10.134   8.641 -0.3807  2.9117  0.0868
24971SOL    HW278319   5.465  10.087   8.499  0.2518 -1.4297  1.5303
24972SOL     OW78320   5.534  10.060   3.545  0.2160 -0.1287  0.1877
24972SOL    HW178321   5.614  10.061   3.492  2.0882  0.8377  2.9233
24972SOL    HW278322   5.565  10.070   3.635 -2.9649 -0.4228  1.3654
24973SOL     OW78323   8.922   2.798   6.449 -0.4878 -0.0262  0.2694
24973SOL    HW178324   8.888   2.805   6.360 -0.1933 -1.1585  0.0650
24973SOL    HW278325   8.994   2.735   6.443 -0.0313  0.3991  1.1820
24974SOL     OW78326   9.080   4.379   5.296  0.1247 -0.1936 -0.2199
24974SOL    HW178327   9.051   4.326   5.222  1.0118 -0.8532 -0.1115
24974SOL    HW278328   9.031   4.344   5.371 -1.3451  0.9910 -0.6298
24975SOL     OW78329   8.994   4.529   7.810 -0.3396 -0.2909  0.2086
24975SOL    HW178330   9.088   4.513   7.795 -0.4856 -0.4149 -0.5673
24975SOL    HW278331   8.953   4.514   7.725 -1.0267  0.0798  0.4708
24976SOL     OW78332   8.259   3.733   7.056  0.6713  0.3986 -0.7778
24976SOL    HW178333   8.295   3.724   6.968 -0.2356 -2.2705 -0.9144
24976SOL    HW278334   8.299   3.661   7.106  1.9943  2.4927  1.3155
24977SOL     OW78335   1.006  10.850   8.066  0.4723 -0.2964 -0.4630
24977SOL    HW178336   1.097  10.820   8.070  0.2993 -0.6173  1.7610
24977SOL    HW278337   0.964  10.792   8.002  1.7389 -0.3595 -1.2449
24978SOL     OW78338   6.663   3.853   1.263  0.4491  0.1578  0.1806
24978SOL    HW178339   6.718   3.919   1.305 -0.9632  1.4862  0.0050
24978SOL    HW278340   6.614   3.813   1.335  0.7071 -0.1242  0.1990
24979SOL     OW78341   0.403   0.321   6.241 -0.5983  0.4142  0.4866
24979SOL    HW178342   0.371   0.242   6.285  3.3200 -0.4154  2.0212
24979SOL    HW278343   0.427   0.292   6.153  1.2269 -0.2577  1.1809
24980SOL     OW78344   6.629   7.042   5.423 -0.2872 -0.1948  0.2030
24980SOL    HW178345   6.703   6.982   5.431 -0.9109 -0.8140  1.5094
24980SOL    HW278346   6.586   7.038   5.508 -0.8141  1.4980  0.0436
24981SOL     OW78347   9.709   2.609   6.092  0.0958  0.3501 -0.2937
24981SOL    HW178348   9.802   2.593   6.074 -0.4010 -0.1463 -2.5964
24981SOL    HW278349   9.699   2.704   6.083  0.3403  0.3812 -0.2500
24982SOL     OW78350   5.306   4.430   4.301  0.5253 -0.0429  0.1828
24982SOL    HW178351   5.256   4.410   4.381 -0.0366 -0.2769 -0.2239
24982SOL    HW278352   5.315   4.346   4.256  1.2074  0.0147  0.1997
24983SOL     OW78353   9.157   5.344  10.755 -0.2886  0.3169 -0.1552
24983SOL    HW178354   9.245   5.363  10.723  0.1383  1.1872  1.4317
24983SOL    HW278355   9.138   5.417  10.815 -1.8846 -0.1296 -0.0998
24984SOL     OW78356   5.775   8.286   6.765 -0.0284  0.0077 -0.0810
24984SOL    HW178357   5.735   8.373   6.755 -0.7143 -0.2655  0.2206
24984SOL    HW278358   5.700   8.226   6.769  0.4664 -0.7060 -1.3039
24985SOL     OW78359   9.394   8.019   3.538  0.4283 -0.2322 -0.0369
24985SOL    HW178360   9.375   8.027   3.445  1.2031  0.7896 -0.1176
24985SOL    HW278361   9.409   7.925   3.551 -2.9768 -0.8697 -0.2536
24986SOL     OW78362  10.154   9.609   4.082  0.7109 -0.2150 -0.3068
24986SOL    HW178363  10.234   9.572   4.044  0.4436 -1.2424  0.1038
24986SOL    HW278364  10.098   9.628   4.007  1.9198  1.9591 -0.7149
24987SOL     OW78365  10.656   2.860   1.165 -0.1650  0.5312 -0.5974
24987SOL    HW178366  10.602   2.799   1.114 -0.9294 -0.7673  1.6865
24987SOL    HW278367  10.595   2.929   1.192  0.0196  0.7002 -0.6134
24988SOL     OW78368   8.211   9.579   1.806  0.2964  0.6232 -0.1160
24988SOL    HW178369   8.248   9.648   1.751  0.3688 -0.5908 -1.6305
24988SOL    HW278370   8.265   9.502   1.787 -1.7908 -0.6756 -0.9065
24989SOL     OW78371   8.014   6.953   4.992  0.1590  0.4926  0.1332
24989SOL    HW178372   8.098   6.912   4.972  0.7539  2.0180 -0.5868
24989SOL    HW278373   8.037   7.031   5.043 -1.0281 -0.6382  2.4610
24990SOL     OW78374   2.959   7.811   8.831 -0.4573  0.1341  0.0229
24990SOL    HW178375   2.909   7.730   8.845 -0.9111  0.0796 -1.8672
24990SOL    HW278376   2.894   7.880   8.831 -0.4480  0.1468 -1.6657
24991SOL     OW78377   5.140   7.817  10.940 -0.3451 -0.1474 -0.2054
24991SOL    HW178378   5.125   7.733  10.896 -1.0810  0.0847 -0.4032
24991SOL    HW278379   5.218   7.852  10.898 -0.8861 -0.0510 -1.1528
24992SOL     OW78380   3.328   5.350   7.463 -0.2896 -0.2563  1.1986
24992SOL    HW178381   3.245   5.395   7.447  0.3982  0.3151 -0.9076
24992SOL    HW278382   3.395   5.416   7.445  0.7432 -2.1646 -2.2782
24993SOL     OW78383   9.351   4.581   1.628 -0.4142 -0.9808  0.4869
24993SOL    HW178384   9.314   4.501   1.591 -0.1050  0.4818 -3.1233
24993SOL    HW278385   9.354   4.643   1.555  3.2312  1.0039  2.1622
24994SOL     OW78386   7.025   4.347   3.302 -0.0881  0.6860  0.2546
24994SOL    HW178387   6.968   4.367   3.228 -0.8899  0.8440  0.9040
24994SOL    HW278388   7.070   4.429   3.321 -2.3833  1.6016  2.0648
24995SOL     OW78389   9.930   6.124   6.208 -0.1809  0.0710  0.2487
24995SOL    HW178390  10.020   6.096   6.223  0.7011  2.0437 -1.0806
24995SOL    HW278391   9.878   6.044   6.216  1.7883 -1.2493  0.2110
24996SOL     OW78392   9.444  10.475   2.392  0.3965  0.0311 -0.4395
24996SOL    HW178393   9.425  10.381   2.389  0.0963  0.1093 -1.0851
24996SOL    HW278394   9.540  10.481   2.390  0.5588 -0.3889  3.3147
24997SOL     OW78395   8.607   6.905   6.504  0.4536  0.1519 -0.0789
24997SOL    HW178396   8.693   6.905   6.547  0.3703 -1.2978  0.0933
24997SOL    HW278397   8.591   6.998   6.485  2.6843  0.3142 -1.3728
24998SOL     OW78398   9.020   2.781   5.888 -0.4401  0.2621  0.0120
24998SOL    HW178399   9.083   2.709   5.884 -0.0921  0.4633  1.6753
24998SOL    HW278400   8.966   2.771   5.809  1.4521 -0.1123 -1.2572
24999SOL     OW78401   3.638   1.746   8.437 -0.1062 -0.3971  0.1495
24999SOL    HW178402   3.681   1.824   8.473  0.7436 -0.9869  0.4186
24999SOL    HW278403   3.703   1.677   8.446 -1.1932 -1.3466  0.7430
25000SOL     OW78404   7.202   6.899   5.279 -0.2233  0.3668 -0.0020
25000SOL    HW178405   7.292   6.903   5.247 -0.2091  0.8587  0.0992
25000SOL    HW278406   7.186   6.985   5.317 -0.9545  0.5130 -0.6126
25001SOL     OW78407   9.933   4.655   5.109  0.6483 -0.1473 -0.3623
25001SOL    HW178408   9.897   4.637   5.022  0.3512  0.1521 -0.2990
25001SOL    HW278409   9.865   4.704   5.154  0.0394 -1.9421  0.7032
25002SOL     OW78410   8.247  10.030   8.601 -0.2976 -0.0361 -0.1599
25002SOL    HW178411   8.221  10.122   8.601 -0.4744 -0.0886 -0.6662
25002SOL    HW278412   8.339  10.032   8.629 -0.1772  0.3282 -0.5681
25003SOL     OW78413   1.103   5.762   9.663  0.1838  0.1508  0.1480
25003SOL    HW178414   1.155   5.690   9.626 -0.1615 -0.7908  1.4426
25003SOL    HW278415   1.118   5.755   9.757  2.4470  3.5702  0.1358
25004SOL     OW78416  10.348  10.548   5.860 -0.2197 -0.1099  0.1304
25004SOL    HW178417  10.419  10.574   5.919  1.4340 -2.4800 -0.7209
25004SOL    HW278418  10.278  10.520   5.917  0.0336  0.9270  0.9742
25005SOL     OW78419   3.061   5.607   6.078 -0.0265 -0.3053 -0.6769
25005SOL    HW178420   3.022   5.689   6.048 -0.9336  0.3718  2.1659
25005SOL    HW278421   3.152   5.611   6.048 -0.4156  1.0861 -1.7377
25006SOL     OW78422   9.733   7.993   2.994 -0.1298  0.0459 -0.0036
25006SOL    HW178423   9.658   7.965   2.942  0.2409 -1.2456  0.1300
25006SOL    HW278424   9.725   7.943   3.076  0.8361 -0.0693  0.0255
25007SOL     OW78425   4.814   9.941   0.980  0.2159  0.6805  0.0634
25007SOL    HW178426   4.722   9.965   0.991  0.3848  0.5167  1.9577
25007SOL    HW278427   4.816   9.846   0.984  0.5256  0.7038  0.4982
25008SOL     OW78428   3.581  10.184   6.878 -0.3949 -0.4125 -0.2162
25008SOL    HW178429   3.507  10.235   6.909 -0.0855 -0.5193  0.7210
25008SOL    HW278430   3.577  10.190   6.782  0.0391  1.9174 -0.1068
25009SOL     OW78431   2.641  10.441   1.462 -0.1703 -0.3413  0.0797
25009SOL    HW178432   2.614  10.533   1.458  0.6546 -0.1048 -0.1366
25009SOL    HW278433   2.567  10.393   1.425  0.2709  0.4226 -1.8774
25010SOL     OW78434   2.425   4.049  10.716  0.5146 -0.0164 -0.4237
25010SOL    HW178435   2.516   4.021  10.701  0.7190 -0.4475  1.4646
25010SOL    HW278436   2.397   3.997  10.791 -0.3626  2.1788  0.8069
25011SOL     OW78437   1.551   0.680  10.598 -0.1034 -0.0238 -0.2534
25011SOL    HW178438   1.512   0.593  10.587 -0.9433  0.5125 -1.7799
25011SOL    HW278439   1.480   0.733  10.635  0.1428  0.2191 -0.1271
25012SOL     OW78440   0.047   9.651   7.503  0.1431 -0.6387 -0.6328
25012SOL    HW178441   0.108   9.676   7.434  0.7774  2.0929  0.8404
25012SOL    HW278442  -0.039   9.673   7.469  0.4962  1.1960 -0.3805
25013SOL     OW78443   7.375   6.345   4.897  0.1025 -0.0306  0.0868
25013SOL    HW178444   7.294   6.307   4.931 -1.0630  1.6161 -0.8057
25013SOL    HW278445   7.431   6.355   4.975 -0.8845 -0.3041  0.8367
25014SOL     OW78446   3.585   2.434   5.354  0.6023 -0.0323 -0.7281
25014SOL    HW178447   3.563   2.375   5.426 -0.5897  1.3609  0.0618
25014SOL    HW278448   3.507   2.436   5.299 -0.1038  2.3102  0.3007
25015SOL     OW78449   6.181   8.391   8.667 -0.8921  0.0099  0.1059
25015SOL    HW178450   6.094   8.361   8.690 -1.1261  0.5701 -0.0429
25015SOL    HW278451   6.204   8.454   8.736 -1.1769  0.9138 -0.6136
25016SOL     OW78452   7.760  10.665   6.911 -0.5168  0.2744 -0.1308
25016SOL    HW178453   7.843  10.651   6.956 -1.3873  1.4293  1.8722
25016SOL    HW278454   7.757  10.597   6.844  1.3342 -0.7311  0.7809
25017SOL     OW78455   6.189   7.650   3.382  0.1903  0.0212  0.2293
25017SOL    HW178456   6.118   7.695   3.336  1.7747  2.1877 -0.1911
25017SOL    HW278457   6.201   7.568   3.333  1.6809  2.1688 -3.1975
25018SOL     OW78458  10.564   8.558   7.521 -0.0386 -0.0541 -0.5547
25018SOL    HW178459  10.473   8.553   7.491 -1.1771  0.1950  2.7139
25018SOL    HW278460  10.582   8.471   7.557  1.6262 -0.6492 -2.7359
25019SOL     OW78461   3.319   6.385   2.791 -0.6407 -0.2057  0.9594
25019SOL    HW178462   3.369   6.317   2.836 -0.4516 -0.1025  0.9075
25019SOL    HW278463   3.248   6.407   2.851 -2.0853 -2.1046 -0.0066
25020SOL     OW78464  10.517   5.293   2.991 -0.0550  1.0332 -0.5096
25020SOL    HW178465  10.521   5.382   3.026  0.4993  1.0828 -0.7003
25020SOL    HW278466  10.425   5.269   2.998  0.0191  1.0965  0.8631
25021SOL     OW78467   4.567   3.558   6.369 -0.3015 -0.0776  0.1377
25021SOL    HW178468   4.517   3.613   6.309 -1.2453 -1.0151  0.0400
25021SOL    HW278469   4.574   3.610   6.449 -2.7806 -0.5289  0.6777
25022SOL     OW78470   3.081   7.872   3.239  0.1647 -0.3439  0.9307
25022SOL    HW178471   3.090   7.965   3.260  2.0057  0.0385 -1.4510
25022SOL    HW278472   3.073   7.869   3.144  0.2231 -2.6461  0.9706
25023SOL     OW78473  10.875   5.919   3.262 -0.1796  0.3218 -0.0385
25023SOL    HW178474  10.850   5.960   3.179 -1.0558 -0.2061 -0.0466
25023SOL    HW278475  10.806   5.855   3.278  1.5078 -1.6248 -0.3497
25024SOL     OW78476   9.208   7.183   0.735 -0.5531  0.1503  0.1397
25024SOL    HW178477   9.238   7.224   0.654  0.1901  0.6621  0.6661
25024SOL    HW278478   9.149   7.113   0.707  1.3756 -1.0873 -0.9253
25025SOL     OW78479   6.368   5.900   8.397 -0.4893  0.1689  0.2506
25025SOL    HW178480   6.299   5.965   8.410  2.0936  2.9637  0.7948
25025SOL    HW278481   6.425   5.910   8.473  0.6752 -1.8347 -0.3308
25026SOL     OW78482   9.214   2.593   5.912  0.3560 -0.0158  0.2808
25026SOL    HW178483   9.150   2.523   5.918  1.2361 -0.8297  0.3370
25026SOL    HW278484   9.284   2.567   5.973  1.8416 -0.3418 -1.5166
25027SOL     OW78485   6.827   9.893   5.559  0.7220  0.4973 -0.2050
25027SOL    HW178486   6.829   9.986   5.537  2.1547  0.8098  1.1558
25027SOL    HW278487   6.914   9.875   5.594  0.2780 -1.2389  0.0275
25028SOL     OW78488   1.917   0.672   1.244  0.0598  0.2327  0.1955
25028SOL    HW178489   1.833   0.675   1.290  0.2836 -0.2020  0.6323
25028SOL    HW278490   1.940   0.579   1.242  0.0632  0.2494 -0.7736
25029SOL     OW78491   9.046   7.945   8.253  0.0947 -0.5003  0.6846
25029SOL    HW178492   9.133   7.983   8.256  0.0215 -0.2925  0.1596
25029SOL    HW278493   9.000   7.983   8.328  0.3123 -0.2678  0.6986
25030SOL     OW78494  10.863   6.643   5.698 -0.6118  0.0303  0.0960
25030SOL    HW178495  10.795   6.661   5.763  0.1210  0.6200  0.7160
25030SOL    HW278496  10.912   6.725   5.692 -0.3886 -0.1693 -0.8677
25031SOL     OW78497   3.398  10.109   2.778  0.3768 -0.0256  0.3168
25031SOL    HW178498   3.476  10.156   2.808  0.9399 -0.0537 -1.0660
25031SOL    HW278499   3.380  10.146   2.692 -0.9931 -0.2025  0.5107
25032SOL     OW78500   9.415   0.497   8.789 -0.0338  0.3254 -0.3222
25032SOL    HW178501   9.395   0.454   8.706 -2.0124  0.1329  0.2050
25032SOL    HW278502   9.467   0.573   8.765 -0.5530  0.2571 -1.7440
25033SOL     OW78503   3.524  10.593   2.417  0.5550  0.5657 -0.2660
25033SOL    HW178504   3.504  10.644   2.495  1.1931 -0.4067  0.5562
25033SOL    HW278505   3.495  10.647   2.344 -0.0644  1.4809  0.6475
25034SOL     OW78506   6.617   9.357   5.859 -0.4781 -0.0761 -0.4765
25034SOL    HW178507   6.602   9.326   5.770 -1.4356  0.2463 -0.4303
25034SOL    HW278508   6.545   9.417   5.877 -1.3400 -1.5142  1.1493
25035SOL     OW78509   8.528   7.013   2.248 -0.1300  0.0818  0.3419
25035SOL    HW178510   8.479   6.985   2.171  0.0737 -0.0043  0.2430
25035SOL    HW278511   8.615   7.033   2.215  0.3707 -1.2966  0.7657
25036SOL     OW78512   1.099   6.305   8.340 -0.5217  0.4629  0.2379
25036SOL    HW178513   1.127   6.349   8.420 -1.1245  1.2094  0.0508
25036SOL    HW278514   1.174   6.311   8.282  0.7738 -2.2053  1.5729
25037SOL     OW78515  10.629   5.891  10.441 -0.6638  0.3804 -0.1052
25037SOL    HW178516  10.678   5.831  10.498 -0.0533 -1.1692 -2.1542
25037SOL    HW278517  10.539   5.885  10.472 -0.5535 -1.3552 -0.0277
25038SOL     OW78518   9.488   7.439   1.289 -0.5739  0.5256 -0.3567
25038SOL    HW178519   9.440   7.483   1.360  0.0371 -0.2223  0.5445
25038SOL    HW278520   9.458   7.348   1.294  0.5783  0.1549 -0.0858
25039SOL     OW78521   1.378   7.808   3.552 -0.1241  1.0148 -0.3171
25039SOL    HW178522   1.431   7.825   3.474 -0.5236  0.7345 -0.6498
25039SOL    HW278523   1.297   7.771   3.518 -1.0796  2.6696  0.0737
25040SOL     OW78524   1.066  10.155   6.117  0.3660  0.1281 -0.4747
25040SOL    HW178525   1.137  10.100   6.085 -0.4708 -0.5478 -1.2129
25040SOL    HW278526   1.098  10.244   6.108  1.3193 -0.1967 -0.3073
25041SOL     OW78527  10.663   8.626   2.011  0.2443  0.3631  0.6784
25041SOL    HW178528  10.640   8.716   2.034  1.5035  1.4324 -2.0122
25041SOL    HW278529  10.619   8.612   1.927  0.6810 -1.2587  0.7192
25042SOL     OW78530  10.112   3.002   3.577  0.0136 -0.1624  0.2410
25042SOL    HW178531  10.115   2.942   3.651  1.1104  1.8066  1.8419
25042SOL    HW278532  10.030   3.051   3.589  1.5065  2.0549  1.7344
25043SOL     OW78533   5.984   4.014   3.596  0.3886 -0.0705 -0.3170
25043SOL    HW178534   6.013   3.967   3.674  1.1483  0.4452 -0.2901
25043SOL    HW278535   5.897   4.046   3.618 -0.4494 -2.0726 -0.5918
25044SOL     OW78536   9.361   1.826   1.407  0.0537 -0.5454 -0.4730
25044SOL    HW178537   9.351   1.828   1.502 -0.6077 -0.3817 -0.5450
25044SOL    HW278538   9.287   1.876   1.374  0.4521 -0.3389 -1.0655
25045SOL     OW78539   9.458   8.994   9.374 -0.4722 -0.1464 -0.1129
25045SOL    HW178540   9.445   8.911   9.421  1.7814  0.6867  2.1056
25045SOL    HW278541   9.373   9.038   9.380 -0.9400 -1.1544  1.0000
25046SOL     OW78542   2.117   2.108   9.612 -0.4044  0.2407 -0.3924
25046SOL    HW178543   2.095   2.017   9.634 -0.3386  0.4311  0.4648
25046SOL    HW278544   2.204   2.121   9.648  0.1635  0.2262 -1.7296
25047SOL     OW78545   6.272   1.641   9.415  0.0286 -0.3376 -0.0606
25047SOL    HW178546   6.205   1.709   9.411  0.6582  0.2246 -1.8186
25047SOL    HW278547   6.336   1.667   9.348  0.9701 -1.9287  0.1930
25048SOL     OW78548   5.932   0.247   9.450 -0.3002  0.3603  0.5860
25048SOL    HW178549   5.951   0.155   9.471 -0.7121  0.7039  2.5596
25048SOL    HW278550   5.934   0.292   9.535 -3.7864  1.5056  0.1364
25049SOL     OW78551   5.127   8.676   3.866 -0.0542  0.0863  0.3682
25049SOL    HW178552   5.171   8.700   3.784 -1.0616  0.6895 -0.0063
25049SOL    HW278553   5.072   8.601   3.842  0.1078 -0.1142  0.6276
25050SOL     OW78554   7.161   6.761   0.115  0.4782 -0.2281  0.0727
25050SOL    HW178555   7.085   6.795   0.069  0.4671  0.5356  0.6328
25050SOL    HW278556   7.229   6.755   0.048  0.2789  0.2576 -0.1742
25051SOL     OW78557   9.102   4.544   2.126 -0.3005  0.2163 -0.1377
25051SOL    HW178558   9.135   4.527   2.215  0.7867  1.3240 -0.3074
25051SOL    HW278559   9.176   4.586   2.081 -0.4703 -1.3062 -1.9047
25052SOL     OW78560  10.406   3.049   0.827  0.1998  0.2346 -0.2365
25052SOL    HW178561  10.314   3.076   0.829  0.1569  0.0638  0.0872
25052SOL    HW278562  10.404   2.956   0.804  0.2988  0.2706 -0.3933
25053SOL     OW78563   2.366   5.077  10.707  0.3506 -0.0499  0.3906
25053SOL    HW178564   2.328   5.111  10.626  1.6851  0.8824  0.1264
25053SOL    HW278565   2.327   5.131  10.776 -0.2353 -0.3582  0.3007
25054SOL     OW78566   5.024   1.837   3.170  0.9148  0.5277 -0.1007
25054SOL    HW178567   4.948   1.805   3.218 -0.0197  2.4980 -0.2309
25054SOL    HW278568   5.021   1.790   3.086  0.4745 -0.1895  0.3110
25055SOL     OW78569   0.873   0.781   2.475 -0.3796  0.1676 -0.0352
25055SOL    HW178570   0.872   0.732   2.558  1.2943  0.5025  0.2069
25055SOL    HW278571   0.834   0.721   2.412  0.1485 -0.8615  0.5949
25056SOL     OW78572   6.372   8.478   2.277 -0.6491  0.2321  0.4310
25056SOL    HW178573   6.418   8.426   2.212  0.0551  1.9748 -0.4951
25056SOL    HW278574   6.431   8.482   2.352 -0.5989 -0.0808  0.4067
25057SOL     OW78575   9.493   4.101   9.225  0.4873  0.7183 -0.1728
25057SOL    HW178576   9.442   4.085   9.305  1.1737 -0.8781 -0.0325
25057SOL    HW278577   9.428   4.127   9.160 -0.0486  2.3532  0.9735
25058SOL     OW78578   4.899   4.088   3.868  0.5261 -0.0719 -0.6091
25058SOL    HW178579   4.838   4.042   3.811  0.5588  0.6612 -1.2398
25058SOL    HW278580   4.983   4.046   3.852  0.2361 -0.9618  0.1264
25059SOL     OW78581  10.133   0.910  10.558  0.1336  0.8905  0.7216
25059SOL    HW178582  10.183   0.985  10.527 -1.0362  1.5568  0.4217
25059SOL    HW278583  10.062   0.901  10.495  0.7742 -1.0300  0.2376
25060SOL     OW78584   2.314   9.232   6.437 -0.1536 -0.1934 -0.2336
25060SOL    HW178585   2.239   9.266   6.485 -0.0328 -0.1858 -0.0508
25060SOL    HW278586   2.316   9.284   6.356  0.9193  1.2785  0.7150
25061SOL     OW78587   9.850   9.920   1.747 -0.1062 -0.0177 -0.0182
25061SOL    HW178588   9.816  10.002   1.713  0.8558 -0.4474 -2.1166
25061SOL    HW278589   9.925   9.945   1.801 -0.8256  0.5709  0.7358
25062SOL     OW78590   0.044   3.507   6.961  0.0660 -0.6098  0.1683
25062SOL    HW178591   0.131   3.502   6.920 -0.2537  0.3252 -0.6356
25062SOL    HW278592  -0.011   3.551   6.896 -0.7251 -0.1268  1.1500
25063SOL     OW78593   4.694   8.204   2.374  0.9036 -0.3574  0.0605
25063SOL    HW178594   4.674   8.267   2.304 -3.6258 -0.7748  0.8355
25063SOL    HW278595   4.707   8.121   2.328  0.1845 -0.1809 -0.4796
25064SOL     OW78596   2.612   4.293   9.473  0.4517  0.5337  0.0492
25064SOL    HW178597   2.539   4.332   9.520  0.8404 -0.3034  1.3889
25064SOL    HW278598   2.689   4.312   9.527  0.4692 -3.2230  1.5492
25065SOL     OW78599   8.371   0.959   5.686 -0.3598 -0.2728 -0.3381
25065SOL    HW178600   8.436   0.999   5.743 -2.5675 -0.4999  2.4627
25065SOL    HW278601   8.422   0.911   5.621  2.2587 -0.3238  1.6734
25066SOL     OW78602   1.348   8.562   7.976 -0.5216  0.2197 -0.7035
25066SOL    HW178603   1.393   8.634   8.020 -0.2480  0.4163 -1.3164
25066SOL    HW278604   1.259   8.593   7.962 -0.4916  0.3152 -0.6782
25067SOL     OW78605   1.166   0.953   2.420  0.2736  0.0409  0.0619
25067SOL    HW178606   1.098   0.980   2.358 -0.2933  0.9566  1.0649
25067SOL    HW278607   1.182   0.861   2.400 -2.2990 -0.5885  0.7454
25068SOL     OW78608   4.105   3.515   8.598 -0.1620  0.3417  0.3292
25068SOL    HW178609   4.068   3.493   8.512 -0.9608  0.5761  0.6114
25068SOL    HW278610   4.132   3.430   8.634 -1.0216  0.0960  0.4004
25069SOL     OW78611   9.948   1.074   1.767 -0.5029 -0.3927 -0.1421
25069SOL    HW178612   9.862   1.117   1.767  0.2472  1.1478  1.5321
25069SOL    HW278613   9.992   1.109   1.844  1.5636 -1.3311 -0.8741
25070SOL     OW78614   8.796   6.612   5.820 -0.2463 -0.4560 -0.3440
25070SOL    HW178615   8.770   6.527   5.857 -0.8339  0.1167  0.5590
25070SOL    HW278616   8.714   6.658   5.804  0.0876  0.0775 -0.5419
25071SOL     OW78617   0.725   1.439   7.156 -0.0044 -0.0022 -0.4732
25071SOL    HW178618   0.804   1.446   7.104  1.1631 -0.7214  1.1534
25071SOL    HW278619   0.687   1.527   7.154  1.2472  0.5468 -0.6449
25072SOL     OW78620   5.382   5.630   5.575 -0.2914  0.1740  0.2043
25072SOL    HW178621   5.378   5.587   5.660  1.1478 -2.6235 -1.0599
25072SOL    HW278622   5.387   5.558   5.512 -2.1442  2.1461 -2.3265
25073SOL     OW78623   7.864   4.899   5.735  0.1847 -0.4400 -0.3066
25073SOL    HW178624   7.926   4.828   5.719  1.1343  0.0517  1.0923
25073SOL    HW278625   7.912   4.961   5.789 -1.9697 -0.7039  2.0190
25074SOL     OW78626   5.166   0.308   2.271 -0.0782  0.0437 -0.0535
25074SOL    HW178627   5.261   0.313   2.276 -0.0461  0.2187 -0.8820
25074SOL    HW278628   5.148   0.260   2.191 -0.6922  0.3377 -0.0976
25075SOL     OW78629   9.439   3.427   2.958 -0.5366  0.4282 -0.5721
25075SOL    HW178630   9.354   3.437   2.915 -0.1616 -0.8385 -1.6241
25075SOL    HW278631   9.502   3.466   2.897  0.0824 -1.9949 -1.5444
25076SOL     OW78632   1.771   5.958   3.496  0.6016 -0.4256  0.8087
25076SOL    HW178633   1.804   5.870   3.515  0.4407 -0.8595 -0.7903
25076SOL    HW278634   1.704   5.943   3.428 -0.5949  0.7616  1.6980
25077SOL     OW78635   0.507   8.352   1.806  0.3236 -0.0244  0.0669
25077SOL    HW178636   0.435   8.346   1.868 -0.3857 -3.0873 -0.9516
25077SOL    HW278637   0.464   8.367   1.721  0.7910 -2.2672 -0.6049
25078SOL     OW78638   4.275   2.928   1.519 -0.0783 -0.2655 -0.3888
25078SOL    HW178639   4.363   2.892   1.529  0.9254  2.2415  0.2194
25078SOL    HW278640   4.236   2.921   1.606  0.6591  1.4427  0.0913
25079SOL     OW78641   9.451   1.154   9.392 -0.2011 -0.7467  0.3598
25079SOL    HW178642   9.420   1.140   9.482 -3.2676 -3.0049 -0.9851
25079SOL    HW278643   9.481   1.068   9.363  0.7196 -0.0402 -0.8365
25080SOL     OW78644   7.861   7.190   2.022 -0.1978 -0.0243 -0.3366
25080SOL    HW178645   7.794   7.177   1.955  0.0493 -0.2659 -0.5359
25080SOL    HW278646   7.817   7.172   2.104 -0.0745 -1.3215 -0.5440
25081SOL     OW78647   1.668   8.283   5.985 -0.1914 -0.1980  0.5733
25081SOL    HW178648   1.573   8.292   5.977 -0.4441 -2.5440  0.4564
25081SOL    HW278649   1.693   8.344   6.054 -1.9159 -0.2177  1.2299
25082SOL     OW78650   0.316   1.682   4.329 -0.0206  0.6318  0.1207
25082SOL    HW178651   0.402   1.640   4.333  0.1026  1.0475  2.6862
25082SOL    HW278652   0.261   1.620   4.281  1.3687 -0.2591 -0.3398
25083SOL     OW78653   0.994   9.048   8.987  0.6674  0.1708 -0.4772
25083SOL    HW178654   0.996   9.053   8.892  0.7083 -0.2730 -0.5024
25083SOL    HW278655   0.901   9.051   9.009  0.5903 -1.1075 -0.6162
25084SOL     OW78656   9.336   1.177   0.165  0.2844  0.0282 -0.3175
25084SOL    HW178657   9.405   1.126   0.208  1.3943  1.4430 -0.4185
25084SOL    HW278658   9.255   1.143   0.204  1.1504 -0.0278  1.5217
25085SOL     OW78659   6.848   2.778   6.723  0.1657  0.7336  1.0322
25085SOL    HW178660   6.904   2.764   6.647  0.3890 -0.3744  1.3778
25085SOL    HW278661   6.762   2.796   6.687  0.1885 -0.1711  0.5122
25086SOL     OW78662   9.883   6.939   4.051 -0.2202 -0.4117 -0.2032
25086SOL    HW178663   9.881   7.027   4.089  1.6708 -0.3626 -0.1716
25086SOL    HW278664   9.856   6.881   4.123 -0.7133  0.0679 -0.0014
25087SOL     OW78665   0.186   4.524   9.629 -0.2106  0.6125 -0.0574
25087SOL    HW178666   0.116   4.590   9.630 -2.6761 -1.9178  0.9070
25087SOL    HW278667   0.185   4.487   9.717  3.3018  1.4496  0.3695
25088SOL     OW78668   8.763   2.668   4.462 -0.0339 -0.7442 -0.0187
25088SOL    HW178669   8.816   2.744   4.437 -1.1895 -0.9754 -3.3056
25088SOL    HW278670   8.821   2.593   4.446  0.4224 -0.7089  1.3784
25089SOL     OW78671   4.044   7.171   9.641  0.5270  0.1135 -0.1096
25089SOL    HW178672   4.056   7.255   9.685  0.4890  0.1075 -0.0875
25089SOL    HW278673   4.088   7.182   9.556  0.5285  0.1522 -0.1024
25090SOL     OW78674   4.976   9.125   6.096 -0.8049 -0.1288  0.5170
25090SOL    HW178675   5.046   9.069   6.130 -0.2579  0.7542  0.8727
25090SOL    HW278676   5.020   9.186   6.037 -1.1438  0.8791  1.2688
25091SOL     OW78677   5.949   3.675  10.281  0.1449  0.2684 -0.6693
25091SOL    HW178678   5.902   3.751  10.315 -0.2926 -0.1955 -0.2207
25091SOL    HW278679   6.038   3.685  10.315 -0.2668 -0.1413  0.5464
25092SOL     OW78680   4.244   3.007   7.780  0.3703  0.7891  0.1216
25092SOL    HW178681   4.323   2.978   7.826  0.1643  1.7513  1.0997
25092SOL    HW278682   4.199   3.064   7.842 -0.4224  1.3126 -0.9077
25093SOL     OW78683  10.911   0.660   2.291 -0.4735  0.5374 -0.5851
25093SOL    HW178684  10.836   0.713   2.318  0.1699  0.1303  2.1413
25093SOL    HW278685  10.987   0.706   2.327  0.2819 -0.9301 -0.2553
25094SOL     OW78686   9.234   3.855   0.740 -0.1604  0.0546  0.3014
25094SOL    HW178687   9.152   3.815   0.709 -0.6099  1.0275  0.2082
25094SOL    HW278688   9.263   3.909   0.667 -0.9163  1.8934  1.3289
25095SOL     OW78689   7.417   0.128   5.464 -0.0751 -0.2303  0.2159
25095SOL    HW178690   7.461   0.207   5.435 -0.4141 -0.4546 -0.9086
25095SOL    HW278691   7.479   0.086   5.524  1.3667 -0.7155 -1.6077
25096SOL     OW78692   8.686   0.445   5.478 -0.4842 -0.0495 -0.2116
25096SOL    HW178693   8.648   0.489   5.554  0.0065  0.6381 -0.3651
25096SOL    HW278694   8.781   0.453   5.490 -0.3577 -2.0261  0.3325
25097SOL     OW78695   5.917   6.829   8.700 -0.3172 -0.2356  0.4876
25097SOL    HW178696   5.977   6.844   8.773 -0.0530 -0.4821  0.3243
25097SOL    HW278697   5.904   6.734   8.699 -0.3766 -0.2246  0.2610
25098SOL     OW78698   9.203   7.506   5.062 -0.0741  0.1749 -0.4377
25098SOL    HW178699   9.141   7.549   5.120 -1.4014  0.4239 -1.9855
25098SOL    HW278700   9.150   7.444   5.012  1.0777 -0.2337 -1.1822
25099SOL     OW78701   5.995   9.662   1.591  0.1036 -0.3216  0.6201
25099SOL    HW178702   6.063   9.701   1.536 -0.1905  0.4707  0.8054
25099SOL    HW278703   5.913   9.702   1.561 -0.1450 -0.4377  1.1278
25100SOL     OW78704  10.237   8.443   6.441  0.2352 -0.4580  0.0731
25100SOL    HW178705  10.241   8.450   6.346 -0.8578  0.6783  0.1017
25100SOL    HW278706  10.236   8.348   6.458  1.4075 -0.6681 -0.9874
25101SOL     OW78707   8.260   2.938  10.241  0.4423 -0.5018  0.5001
25101SOL    HW178708   8.218   3.019  10.211 -3.9120 -1.5678  3.2844
25101SOL    HW278709   8.251   2.878  10.167 -1.0417 -0.0153  0.2671
25102SOL     OW78710   9.528   2.039   3.535  0.6786 -0.7333 -0.1943
25102SOL    HW178711   9.619   2.023   3.510  1.0941  2.4118 -0.8672
25102SOL    HW278712   9.533   2.111   3.597 -1.3541 -0.7489  0.0075
25103SOL     OW78713   3.104   5.502   3.400  0.4531 -0.0610  0.5935
25103SOL    HW178714   3.048   5.424   3.399 -0.3847  0.5329 -0.1342
25103SOL    HW278715   3.088   5.542   3.485  1.0301 -0.7823  1.0454
25104SOL     OW78716   8.502   0.630   7.385 -0.3128 -0.2353 -0.6495
25104SOL    HW178717   8.576   0.647   7.444  0.1376  0.4963 -1.4160
25104SOL    HW278718   8.483   0.715   7.345  0.2285 -0.9760 -2.5169
25105SOL     OW78719   6.956   3.678   7.623 -0.3616  0.1117 -0.2873
25105SOL    HW178720   6.938   3.747   7.687 -1.8978  0.8784 -1.5151
25105SOL    HW278721   6.895   3.608   7.648 -0.4938  0.1499 -0.5045
25106SOL     OW78722   6.208   7.707   7.277  0.0048 -0.2178 -0.8201
25106SOL    HW178723   6.246   7.697   7.364 -1.4663  1.6074  0.0727
25106SOL    HW278724   6.271   7.762   7.230  0.8931 -1.3621 -0.9830
25107SOL     OW78725   3.339   7.806   1.311  0.1882 -0.2359  0.1157
25107SOL    HW178726   3.248   7.834   1.321 -0.0611 -1.1132  0.3205
25107SOL    HW278727   3.346   7.779   1.220 -0.0868 -1.3276  0.4115
25108SOL     OW78728   4.091   4.098   5.276 -0.2700  0.9067 -0.5107
25108SOL    HW178729   4.105   4.131   5.188  0.5555  0.4623 -0.5492
25108SOL    HW278730   4.122   4.007   5.274  0.0965  1.0045  0.3216
25109SOL     OW78731   8.522  10.639   0.805  0.8277 -0.7517  0.3081
25109SOL    HW178732   8.603  10.632   0.856  0.7160  0.5725  0.6953
25109SOL    HW278733   8.543  10.700   0.735  0.0987 -0.1982  0.5638
25110SOL     OW78734   3.246   2.328   2.663  0.6465 -0.2152 -0.3845
25110SOL    HW178735   3.221   2.392   2.597 -0.7375 -1.1285 -0.7555
25110SOL    HW278736   3.188   2.253   2.648  1.1747 -0.9354  1.0458
25111SOL     OW78737   1.369   6.819  10.452 -0.2820 -0.7618 -0.3920
25111SOL    HW178738   1.281   6.788  10.471 -0.3675  0.8872  2.0883
25111SOL    HW278739   1.358   6.913  10.433  0.6877 -0.9758 -2.1380
25112SOL     OW78740   6.436   5.813  10.309  0.5927  0.6478 -0.1107
25112SOL    HW178741   6.419   5.718  10.308  0.5421  0.6560 -0.0916
25112SOL    HW278742   6.355   5.851  10.342  1.8859  0.4111  3.6012
25113SOL     OW78743   1.938   3.065   4.305  0.4057  1.1899 -0.3360
25113SOL    HW178744   1.994   2.993   4.333 -1.0229 -0.2331 -1.0786
25113SOL    HW278745   1.900   3.099   4.387 -0.2628 -0.0394 -0.1234
25114SOL     OW78746   1.008   6.667   3.713 -0.3047 -0.5129 -0.0402
25114SOL    HW178747   1.007   6.705   3.801 -3.1121  3.3781 -1.6251
25114SOL    HW278748   1.072   6.720   3.665 -2.4792  0.7430 -1.6331
25115SOL     OW78749   5.936   9.009   7.004  0.4145  0.5644 -0.2057
25115SOL    HW178750   5.888   9.074   7.055 -0.9737 -2.7310  2.8511
25115SOL    HW278751   5.870   8.971   6.946  0.6491  0.1280 -0.1877
25116SOL     OW78752   9.358   5.061   0.510  0.1086 -0.2067  0.0192
25116SOL    HW178753   9.269   5.092   0.524 -0.4893 -2.1820  0.8339
25116SOL    HW278754   9.387   5.031   0.597  1.9933  1.4425  0.0052
25117SOL     OW78755   8.071   8.245   1.174 -0.2005  0.3186  0.2755
25117SOL    HW178756   8.020   8.235   1.255  0.5318 -0.2027  0.6781
25117SOL    HW278757   8.020   8.199   1.108 -0.8754  0.8665  0.3988
25118SOL     OW78758   6.022   4.316   8.817 -0.8910  0.0434 -0.5817
25118SOL    HW178759   6.108   4.344   8.848 -1.9862  2.0893  0.6503
25118SOL    HW278760   6.032   4.309   8.722  0.3866  1.1449 -0.5318
25119SOL     OW78761   7.844  10.878   2.475  0.1059 -0.0736  0.2626
25119SOL    HW178762   7.905  10.937   2.520  1.3608 -1.0286 -0.1406
25119SOL    HW278763   7.900  10.807   2.443 -1.1748 -0.7531 -0.4809
25120SOL     OW78764   9.350   7.521   2.961 -0.1658  0.4542  1.1201
25120SOL    HW178765   9.311   7.520   2.874  0.9687  1.7125  0.5769
25120SOL    HW278766   9.399   7.439   2.967  0.0288  0.5190  0.4347
25121SOL     OW78767   2.610   5.948   4.904  0.1262  0.0173 -0.3767
25121SOL    HW178768   2.630   6.041   4.919 -0.4539  0.2742 -1.1956
25121SOL    HW278769   2.569   5.946   4.818  2.3921 -1.3056 -1.4714
25122SOL     OW78770   8.856   5.261   1.694 -0.2926  0.4051 -0.1003
25122SOL    HW178771   8.949   5.281   1.677 -0.6032  1.6820 -0.3855
25122SOL    HW278772   8.812   5.279   1.611 -0.9524  0.8590  0.3401
25123SOL     OW78773   7.526   6.379   4.670 -0.3513 -0.1739  0.3379
25123SOL    HW178774   7.500   6.470   4.676  1.2235  0.2599  0.7543
25123SOL    HW278775   7.487   6.337   4.746  0.3875  0.5245  1.1054
25124SOL     OW78776   9.885   2.959   0.559 -0.1138 -0.3503  0.1066
25124SOL    HW178777   9.955   2.936   0.620  0.0422  1.9480  0.8755
25124SOL    HW278778   9.887   3.055   0.556 -1.3016 -0.3664 -2.1455
25125SOL     OW78779   3.501   4.907   1.867  0.2771  0.4424  0.3007
25125SOL    HW178780   3.526   4.979   1.810  0.3241 -0.2790 -0.6046
25125SOL    HW278781   3.471   4.949   1.948  0.1140  1.4731 -0.2910
25126SOL     OW78782   1.466   8.425   2.086  0.2690 -0.5051  0.0007
25126SOL    HW178783   1.423   8.359   2.031  2.0593 -1.9569  0.3012
25126SOL    HW278784   1.539   8.457   2.034 -1.5147  2.4998 -0.7904
25127SOL     OW78785  10.624   2.185   3.426 -0.6053  0.1845  0.3866
25127SOL    HW178786  10.569   2.228   3.360 -1.3744  0.5882  1.2839
25127SOL    HW278787  10.577   2.104   3.446  0.4556 -0.7270 -0.7423
25128SOL     OW78788   9.268   1.470  10.648  0.0224 -0.7021  0.3686
25128SOL    HW178789   9.357   1.464  10.682  0.1824 -2.6465 -0.3395
25128SOL    HW278790   9.278   1.492  10.556 -0.3256  1.1665  0.7364
25129SOL     OW78791   9.152   6.795   6.503 -0.6529  0.4663  0.2316
25129SOL    HW178792   9.209   6.842   6.442 -1.1083 -0.3481 -0.8505
25129SOL    HW278793   9.136   6.710   6.460 -1.0166 -0.1024  1.4652
25130SOL     OW78794   1.309   8.470  10.129 -0.1402 -0.3395 -0.9319
25130SOL    HW178795   1.262   8.410  10.187 -0.3355 -0.4721 -1.2235
25130SOL    HW278796   1.329   8.546  10.183 -0.6600 -0.2975 -0.7945
25131SOL     OW78797   5.892   4.685   6.767 -0.2299 -0.1806 -0.2659
25131SOL    HW178798   5.919   4.629   6.840  2.4703  1.4751  0.0686
25131SOL    HW278799   5.804   4.713   6.791 -0.2699 -1.4813  1.2592
25132SOL     OW78800   9.273   1.694   5.139  0.0587  0.0498  0.2030
25132SOL    HW178801   9.307   1.702   5.050 -2.2940  2.1910 -0.5578
25132SOL    HW278802   9.225   1.611   5.140 -3.7653  2.1275 -1.9474
25133SOL     OW78803  10.285   7.865   5.698  0.3962  0.0646  1.0594
25133SOL    HW178804  10.300   7.847   5.791  2.2176  1.4521  1.0561
25133SOL    HW278805  10.372   7.863   5.658  0.3646  4.9952  0.4196
25134SOL     OW78806   1.566   9.932   2.878  0.6628 -0.6184  0.0681
25134SOL    HW178807   1.586   9.840   2.890 -1.0247 -0.9160  0.7209
25134SOL    HW278808   1.648   9.977   2.897  1.2705 -1.9219  0.5843
25135SOL     OW78809   0.726   7.283   6.405  0.4105 -0.4408 -0.3898
25135SOL    HW178810   0.683   7.333   6.335 -3.5052 -0.0333  2.2055
25135SOL    HW278811   0.716   7.191   6.379  0.5720 -0.2219 -1.2381
25136SOL     OW78812  10.592  10.476  10.956 -0.2825  0.1256 -0.0023
25136SOL    HW178813  10.682  10.457  10.980 -0.1059  1.1447  0.1990
25136SOL    HW278814  10.576  10.426  10.876  0.7989  0.7501 -0.6155
25137SOL     OW78815  10.851  10.343   0.819 -0.4461  0.5233  0.0847
25137SOL    HW178816  10.822  10.271   0.875  1.7160  0.1091  0.7218
25137SOL    HW278817  10.816  10.322   0.732 -2.2858  0.2277  0.8732
25138SOL     OW78818   2.958   8.934   9.214 -0.6328  0.0176  0.4135
25138SOL    HW178819   2.963   8.948   9.308 -0.1484  2.6579  0.0476
25138SOL    HW278820   2.912   9.011   9.181  1.0894  0.1764 -1.7220
25139SOL     OW78821   4.018   0.762   7.014  0.8039 -0.0437  0.0187
25139SOL    HW178822   3.974   0.742   6.932 -0.3216  1.6646  0.1804
25139SOL    HW278823   4.090   0.819   6.990 -0.1157  1.2732  0.2850
25140SOL     OW78824   0.226  10.437   6.611 -0.2460 -0.0953  0.1624
25140SOL    HW178825   0.154  10.496   6.634 -0.4294 -0.7989  1.4568
25140SOL    HW278826   0.228  10.374   6.683  0.5439 -1.1139 -0.7532
25141SOL     OW78827   0.100   2.619   7.245 -0.2650  0.8759  0.2645
25141SOL    HW178828   0.191   2.646   7.236 -0.5718  2.0402  0.5181
25141SOL    HW278829   0.050   2.691   7.208 -1.0762  0.0662 -0.2374
25142SOL     OW78830   8.380   4.758   6.442  0.2232  0.4459  0.7090
25142SOL    HW178831   8.331   4.828   6.485  1.7509  1.9555  0.0431
25142SOL    HW278832   8.456   4.744   6.498  0.9788  0.7524 -0.2375
25143SOL     OW78833   3.914   3.545   6.921 -0.1747  0.0747 -0.4032
25143SOL    HW178834   3.915   3.508   6.832 -0.9069  0.9194 -0.7701
25143SOL    HW278835   3.949   3.476   6.976  0.4451 -0.4029 -1.3794
25144SOL     OW78836   1.913   2.243   9.051 -0.5344  0.4430  0.0113
25144SOL    HW178837   1.880   2.289   9.128 -0.1425 -1.1409  1.1521
25144SOL    HW278838   1.893   2.151   9.067  0.7378 -0.0656 -1.1604
25145SOL     OW78839   0.433   0.872   6.082 -0.0929 -0.2671  0.3509
25145SOL    HW178840   0.478   0.905   6.004  1.4350 -1.2993  0.7681
25145SOL    HW278841   0.485   0.796   6.110 -0.6716  0.0090  2.2964
25146SOL     OW78842   6.878   1.949   2.672 -0.1577  0.4862  0.1657
25146SOL    HW178843   6.881   2.045   2.665 -0.2637  0.4428 -0.4784
25146SOL    HW278844   6.805   1.932   2.732  0.1858  0.8251  0.6860
25147SOL     OW78845   7.514   2.605   5.101 -0.0768 -0.2331  1.0971
25147SOL    HW178846   7.480   2.695   5.103 -0.2481 -0.2709 -0.0272
25147SOL    HW278847   7.439   2.552   5.075  0.1601 -0.6413  1.2505
25148SOL     OW78848   3.023  10.371   3.232 -0.4449 -0.4219  0.2232
25148SOL    HW178849   3.033  10.399   3.323  0.0062  0.5055 -0.0950
25148SOL    HW278850   2.929  10.366   3.218 -0.5166 -0.3715  0.6831
25149SOL     OW78851   9.612   9.158   4.452  0.1098 -0.3387 -0.4602
25149SOL    HW178852   9.669   9.124   4.383  0.0599  0.3725 -0.8568
25149SOL    HW278853   9.656   9.133   4.533  0.9259  0.1008 -0.7615
25150SOL     OW78854   6.046   0.403  10.101  0.2817 -0.0662 -0.5369
25150SOL    HW178855   6.039   0.469  10.032 -0.5399  2.0826  1.5417
25150SOL    HW278856   6.103   0.443  10.167 -0.3150 -1.3957  0.8048
25151SOL     OW78857   0.532   5.613   5.899  0.3303  0.2540 -0.0292
25151SOL    HW178858   0.447   5.612   5.942  1.0102  0.9868  1.3803
25151SOL    HW278859   0.513   5.597   5.806 -1.0859 -2.0245  0.6417
25152SOL     OW78860   9.541   9.450  10.360  0.1213  0.0297  0.1147
25152SOL    HW178861   9.631   9.422  10.373 -0.2955 -0.9480  1.0180
25152SOL    HW278862   9.532   9.529  10.413 -0.0827 -0.9664  1.5936
25153SOL     OW78863   0.830   0.533   3.791 -0.2042  0.1374 -0.2116
25153SOL    HW178864   0.795   0.567   3.709 -0.6333 -0.2599 -0.2006
25153SOL    HW278865   0.785   0.583   3.859  0.1374  0.4536 -0.2195
25154SOL     OW78866   6.355  10.292   0.585  0.1490  0.2234  0.5616
25154SOL    HW178867   6.300  10.304   0.507  1.6469  1.3918 -0.3643
25154SOL    HW278868   6.344  10.200   0.608 -1.0874  0.0940 -0.4366
25155SOL     OW78869  10.246   2.688   2.260 -0.4174 -0.3127 -0.1399
25155SOL    HW178870  10.275   2.608   2.216 -2.3613 -1.3144  0.3118
25155SOL    HW278871  10.325   2.725   2.298  0.2207 -3.1300  1.4003
25156SOL     OW78872   5.231   9.224   6.298  0.1265  0.1137  0.6569
25156SOL    HW178873   5.283   9.179   6.365 -1.1568  0.2708  1.7889
25156SOL    HW278874   5.224   9.162   6.226  1.1655 -0.2300  0.8530
25157SOL     OW78875   6.222   4.962   8.471  0.4093  0.4627  0.2016
25157SOL    HW178876   6.144   4.938   8.422  0.6646  0.3966 -0.1741
25157SOL    HW278877   6.201   4.943   8.562  0.4443 -0.7435 -0.0379
25158SOL     OW78878   5.412   4.414  10.052 -0.1294 -0.2159 -0.0243
25158SOL    HW178879   5.324   4.408  10.015 -0.0573  1.4097 -0.4860
25158SOL    HW278880   5.405   4.480  10.120  1.3128  1.8290 -1.8025
25159SOL     OW78881   2.006   2.612   8.195  0.1004  0.0522 -0.2337
25159SOL    HW178882   2.011   2.525   8.235  1.1724  0.0977 -0.2530
25159SOL    HW278883   1.931   2.653   8.237  0.4472 -0.3618  0.8220
25160SOL     OW78884   5.286   1.296   1.761  0.0261  0.0162  1.0524
25160SOL    HW178885   5.373   1.267   1.790  0.2166 -2.4410 -1.7935
25160SOL    HW278886   5.226   1.232   1.798 -0.6280  1.5743  2.8062
25161SOL     OW78887   2.636   2.752   2.881 -0.4376 -0.0300 -0.4094
25161SOL    HW178888   2.706   2.783   2.823 -0.0899  0.5163  0.2896
25161SOL    HW278889   2.555   2.774   2.834 -0.1598  0.4056 -0.6936
25162SOL     OW78890   4.641   6.896   9.572  0.0519  0.0987  0.5966
25162SOL    HW178891   4.585   6.821   9.555  1.0741 -0.3179 -1.1305
25162SOL    HW278892   4.701   6.868   9.641  1.2604 -1.1552 -0.9135
25163SOL     OW78893   2.765   9.187   9.213 -0.7239 -0.3056 -0.4490
25163SOL    HW178894   2.709   9.186   9.136  0.6276 -1.1221 -1.4478
25163SOL    HW278895   2.705   9.186   9.287 -2.0685  1.5866 -1.4637
25164SOL     OW78896   7.786  10.380   4.453  0.1319  0.0376  0.3129
25164SOL    HW178897   7.878  10.354   4.451 -0.0003 -0.3095 -2.5249
25164SOL    HW278898   7.782  10.457   4.397 -1.2115  0.4460  0.9544
25165SOL     OW78899  10.755   6.951  10.810 -0.2254 -0.2541  0.0221
25165SOL    HW178900  10.718   7.021  10.863 -0.7782 -0.8338  0.4026
25165SOL    HW278901  10.708   6.957  10.726 -0.1176 -0.0353 -0.0228
25166SOL     OW78902   5.953   3.914   3.324  0.1822  0.0706 -0.2654
25166SOL    HW178903   5.959   3.940   3.416 -1.6105  1.3340 -0.4652
25166SOL    HW278904   5.904   3.832   3.325 -0.3126  0.3657 -0.1254
25167SOL     OW78905   6.859   6.654   5.680  0.3920  0.1193  0.5914
25167SOL    HW178906   6.816   6.688   5.759 -0.0528 -1.0847  0.8808
25167SOL    HW278907   6.949   6.683   5.688  0.9561 -2.0731  2.8049
25168SOL     OW78908   5.186   8.025   9.753 -0.5544  0.2147 -0.2340
25168SOL    HW178909   5.098   7.992   9.736 -0.1991 -0.0459 -1.6433
25168SOL    HW278910   5.173   8.104   9.805 -1.4848 -1.3555  2.0023
25169SOL     OW78911  10.286   3.227   7.842  0.0385 -0.5318  0.8219
25169SOL    HW178912  10.314   3.148   7.794 -0.8180 -1.3354  1.6303
25169SOL    HW278913  10.331   3.221   7.926  0.1047 -0.0747  0.8163
25170SOL     OW78914   0.167   5.734   6.402  0.1704 -0.0688 -0.2040
25170SOL    HW178915   0.148   5.811   6.455 -0.7142  0.1076 -0.7767
25170SOL    HW278916   0.095   5.729   6.339  1.0740 -0.4355 -1.2190
25171SOL     OW78917   6.441   9.139   4.948 -0.2801  0.0024 -0.2561
25171SOL    HW178918   6.515   9.091   4.910 -0.1423  0.3376 -0.4151
25171SOL    HW278919   6.381   9.153   4.875 -0.6066 -0.4725 -0.0778
25172SOL     OW78920   1.661   3.522   6.199 -0.1694 -0.3798 -0.2153
25172SOL    HW178921   1.734   3.511   6.260  0.4390 -0.6564 -0.9844
25172SOL    HW278922   1.681   3.603   6.151 -0.0322 -0.7980 -0.8740
25173SOL     OW78923   3.445   2.795  10.561 -0.2419 -0.5366 -0.1767
25173SOL    HW178924   3.537   2.820  10.568 -0.6614  0.4948  1.9744
25173SOL    HW278925   3.438   2.716  10.615 -1.3372  1.4674  2.7197
25174SOL     OW78926   0.236   8.897   5.687 -0.3674  0.0296  0.2162
25174SOL    HW178927   0.253   8.918   5.595  1.2387  0.9320  0.6942
25174SOL    HW278928   0.185   8.972   5.719  0.7843  0.6705  0.5629
25175SOL     OW78929   9.862   6.722   2.012  0.0762 -0.8560  0.0517
25175SOL    HW178930   9.875   6.687   2.099 -0.2331 -2.5437 -0.5672
25175SOL    HW278931   9.861   6.646   1.954  2.9104  0.3814 -1.7850
25176SOL     OW78932   5.755   6.237   7.455  0.4192  0.2763  0.5992
25176SOL    HW178933   5.841   6.197   7.463 -0.1877 -1.1675  0.1906
25176SOL    HW278934   5.742   6.245   7.360  0.0034  0.2332  0.6532
25177SOL     OW78935   5.652   8.213   0.397  0.1495  0.0134 -0.9565
25177SOL    HW178936   5.588   8.266   0.349 -1.2162 -1.0384 -0.3376
25177SOL    HW278937   5.692   8.156   0.331 -0.7169 -0.4488 -1.0881
25178SOL     OW78938   7.523   1.376   8.337 -0.6731 -0.0705 -0.3844
25178SOL    HW178939   7.545   1.462   8.300  1.2061 -0.1240  0.5425
25178SOL    HW278940   7.485   1.396   8.422  0.7223 -0.1771  0.2771
25179SOL     OW78941   7.942   8.167   5.956 -0.2006 -0.3644 -0.5684
25179SOL    HW178942   7.858   8.133   5.923 -0.2740 -0.1374 -0.6177
25179SOL    HW278943   7.951   8.253   5.914 -1.6563  1.1856  2.1793
25180SOL     OW78944   5.066   6.805   7.683 -0.4170 -0.5044 -0.0510
25180SOL    HW178945   5.047   6.730   7.738 -1.4906 -0.6102 -0.5566
25180SOL    HW278946   5.010   6.875   7.717 -0.7909 -0.4587 -0.7403
25181SOL     OW78947   9.442   5.023  10.924 -0.4195  0.1192  0.0288
25181SOL    HW178948   9.534   5.004  10.942  0.1643  2.0058 -0.7960
25181SOL    HW278949   9.395   4.990  11.000  0.8163 -1.9186 -0.0677
25182SOL     OW78950   8.866   6.899   8.967 -0.1404  0.0665 -0.2105
25182SOL    HW178951   8.943   6.936   8.924 -0.8718  2.3411  0.3651
25182SOL    HW278952   8.821   6.975   9.005 -1.0476 -1.5665  2.0777
25183SOL     OW78953   7.810  10.289   9.284  0.1836 -0.1297  0.2928
25183SOL    HW178954   7.787  10.210   9.235 -1.5138  0.2172  0.4996
25183SOL    HW278955   7.748  10.291   9.356 -2.0476  3.1455 -1.5682
25184SOL     OW78956   7.266   1.875   5.106 -0.3827  0.3531  0.1231
25184SOL    HW178957   7.257   1.793   5.155 -0.9953  0.9693  1.0684
25184SOL    HW278958   7.342   1.918   5.144  0.2634 -0.0211 -0.7392
25185SOL     OW78959   7.616  10.074   3.594 -0.2709  0.4265  0.6414
25185SOL    HW178960   7.631  10.047   3.685 -1.3992  0.3032  0.7984
25185SOL    HW278961   7.566  10.002   3.556 -0.8422  1.0205  0.2661
25186SOL     OW78962   4.253   7.511   5.812 -0.6410 -0.8000 -0.4571
25186SOL    HW178963   4.179   7.483   5.758 -0.8666  1.1572 -1.1998
25186SOL    HW278964   4.330   7.500   5.756 -0.7757  0.3994 -0.8957
25187SOL     OW78965   8.490   1.399   6.572  0.3344  0.0143 -0.1248
25187SOL    HW178966   8.417   1.371   6.626  0.9158 -0.3831  0.4590
25187SOL    HW278967   8.449   1.436   6.494 -0.4716 -0.7770 -0.0811
25188SOL     OW78968   4.309   9.678   0.510  0.4911 -0.0881  0.0886
25188SOL    HW178969   4.246   9.717   0.571 -0.0763  0.8419 -1.0977
25188SOL    HW278970   4.336   9.597   0.554  1.2694  1.3319  2.3118
25189SOL     OW78971   8.034   2.707   3.346 -0.4917  0.4341 -0.3200
25189SOL    HW178972   8.107   2.645   3.342 -0.3485  0.6337 -0.8748
25189SOL    HW278973   8.064   2.776   3.405 -1.3024 -0.8513  1.6373
25190SOL     OW78974  10.826   4.513   2.944  0.0624 -0.1305  0.1998
25190SOL    HW178975  10.731   4.521   2.951  0.1328 -1.0703  3.0577
25190SOL    HW278976  10.843   4.419   2.946  0.9682 -0.0698 -2.3950
25191SOL     OW78977   1.226   4.901   7.792  0.0321  0.2901 -0.6857
25191SOL    HW178978   1.271   4.985   7.781  1.2217 -0.1055  1.0404
25191SOL    HW278979   1.161   4.899   7.721  0.9270  2.0455 -1.5747
25192SOL     OW78980   9.307   5.631   6.682  0.1700  0.3894  0.3904
25192SOL    HW178981   9.256   5.663   6.608 -1.0034  0.0058  1.0254
25192SOL    HW278982   9.242   5.612   6.750  1.1060 -0.5377  1.0463
25193SOL     OW78983  10.917   3.374   1.243  0.1654  0.2405  0.3257
25193SOL    HW178984  10.877   3.291   1.267  2.2291 -0.8045  0.2571
25193SOL    HW278985  10.900   3.383   1.150  2.3191 -1.5021 -0.2806
25194SOL     OW78986   9.818   1.944   1.699 -0.1041  0.1220  0.2223
25194SOL    HW178987   9.727   1.934   1.729  0.5371  0.3461  2.3211
25194SOL    HW278988   9.844   1.855   1.674 -0.1761 -0.3707  1.8279
25195SOL     OW78989   0.893   5.260   8.808 -0.0714 -0.2521 -0.4413
25195SOL    HW178990   0.893   5.266   8.712  1.7622 -2.1950 -0.5999
25195SOL    HW278991   0.803   5.235   8.830 -0.4296 -0.0833 -1.6748
25196SOL     OW78992   6.288   5.207   8.288  0.1072 -0.1213 -0.0182
25196SOL    HW178993   6.256   5.143   8.351 -1.3611  0.4527 -0.1736
25196SOL    HW278994   6.349   5.262   8.337 -1.9758  1.1156  1.2323
25197SOL     OW78995   9.948   2.879   6.186  0.4537 -0.0438  0.2119
25197SOL    HW178996   9.877   2.923   6.233 -0.0190  0.8246 -1.2764
25197SOL    HW278997   9.980   2.945   6.124  1.3429 -1.0230 -0.3866
25198SOL     OW78998   1.375   6.932   4.151 -0.1375  0.2579 -0.2235
25198SOL    HW178999   1.432   6.998   4.111  1.0201 -0.2335  0.5921
25198SOL    HW279000   1.401   6.849   4.111  1.3423 -0.3018  1.8346
25199SOL     OW79001   4.582   2.791   4.997 -0.1213 -0.0465 -0.7626
25199SOL    HW179002   4.493   2.773   5.029  0.7140 -1.5261  0.7797
25199SOL    HW279003   4.625   2.835   5.071  0.6928 -0.1204 -1.1922
25200SOL     OW79004   8.451   1.955   1.587 -0.3604 -0.9854  0.5564
25200SOL    HW179005   8.487   2.044   1.586 -0.8284 -0.7638  2.0455
25200SOL    HW279006   8.515   1.904   1.635 -1.4828 -0.8249  2.2531
25201SOL     OW79007   8.611   8.681   9.299 -0.3471 -0.3245  0.2794
25201SOL    HW179008   8.673   8.737   9.345  0.3899 -1.3000  0.5131
25201SOL    HW279009   8.639   8.685   9.207 -2.6937  2.7500 -0.3720
25202SOL     OW79010   7.068   4.568   0.915  0.1869  0.1668  0.0085
25202SOL    HW179011   7.093   4.600   0.828 -3.1363  1.3711 -0.5705
25202SOL    HW279012   7.067   4.646   0.970 -1.7510  0.0761  0.1214
25203SOL     OW79013   2.769   7.805   8.353 -0.1041  0.8257  0.1168
25203SOL    HW179014   2.791   7.835   8.265 -0.6691  0.7681 -0.0463
25203SOL    HW279015   2.772   7.710   8.348  2.7840  0.8288  0.9151
25204SOL     OW79016   2.248   7.284  10.423  0.3513  0.2648 -0.3669
25204SOL    HW179017   2.259   7.218  10.492 -1.5032 -0.1768 -0.4878
25204SOL    HW279018   2.335   7.291  10.384  1.1841 -0.2391  1.3234
25205SOL     OW79019   5.102   9.265   2.761  0.9527  0.5054  0.2731
25205SOL    HW179020   5.159   9.332   2.798  2.3283 -0.2034 -0.4947
25205SOL    HW279021   5.125   9.185   2.808  1.5947 -0.0691 -0.9777
25206SOL     OW79022   5.856   7.824   0.699 -0.5964 -0.9229  0.4646
25206SOL    HW179023   5.931   7.774   0.667 -0.6572 -0.1713 -0.8315
25206SOL    HW279024   5.781   7.787   0.652 -1.2277 -2.4226  2.5463
25207SOL     OW79025   9.715   9.980  10.729  0.3246 -0.3075  0.2123
25207SOL    HW179026   9.766  10.061  10.730 -1.4433  0.8573 -1.2606
25207SOL    HW279027   9.628  10.006  10.701 -0.3003 -2.7145 -0.2531
25208SOL     OW79028   0.132   0.547   1.656 -0.1027  0.2720  0.4274
25208SOL    HW179029   0.174   0.628   1.625 -1.6428  1.3565  1.0999
25208SOL    HW279030   0.124   0.493   1.577  1.4418  0.5269  0.0688
25209SOL     OW79031   4.805   6.169   2.949  0.1008 -0.5297  0.3295
25209SOL    HW179032   4.797   6.126   2.863  0.6783 -1.3063  0.6606
25209SOL    HW279033   4.762   6.109   3.010 -0.6443  0.1997  0.5361
25210SOL     OW79034   7.188   8.800   0.355  1.0876  0.1350 -0.3948
25210SOL    HW179035   7.156   8.808   0.265 -1.2627 -2.0035  0.1866
25210SOL    HW279036   7.282   8.782   0.345  1.1305  1.3316 -2.3514
25211SOL     OW79037   7.154   3.328   1.850 -0.2332 -0.0529 -0.1408
25211SOL    HW179038   7.208   3.284   1.915  0.0872  0.1142 -0.2926
25211SOL    HW279039   7.078   3.270   1.839 -0.3305 -0.0343  0.4418
25212SOL     OW79040   5.013   5.819   6.694  0.5340  0.2114 -0.4162
25212SOL    HW179041   5.010   5.784   6.783  0.2857 -0.5829 -0.7393
25212SOL    HW279042   5.061   5.902   6.703 -1.2746  1.1508  0.7972
25213SOL     OW79043   6.213  10.070  10.596 -0.1289  0.2971 -0.1809
25213SOL    HW179044   6.183  10.145  10.544 -1.8899 -0.3827 -0.1805
25213SOL    HW279045   6.247  10.009  10.532  0.4843  0.7135 -0.2596
25214SOL     OW79046  10.498   5.460   1.858  0.0087 -0.1619  0.0772
25214SOL    HW179047  10.492   5.364   1.852 -3.0496  0.0048 -0.0658
25214SOL    HW279048  10.520   5.476   1.950  0.2341 -0.9737  0.1766
25215SOL     OW79049   4.147   1.246   3.194  0.8822 -0.0873  0.4432
25215SOL    HW179050   4.083   1.290   3.138  0.8550  1.1327  1.4135
25215SOL    HW279051   4.222   1.306   3.196  0.5169  0.3290  2.4677
25216SOL     OW79052   9.983   7.641  10.091  0.7050  0.6199 -0.1853
25216SOL    HW179053   9.892   7.664  10.077  0.4395 -0.1258  0.2512
25216SOL    HW279054  10.030   7.724  10.088  0.1356  0.9085 -1.3023
25217SOL     OW79055   8.524   9.362   4.601  0.0462  0.3122  0.2094
25217SOL    HW179056   8.478   9.313   4.668  0.0853 -0.7958 -0.5727
25217SOL    HW279057   8.617   9.354   4.625  0.0959 -0.4799 -0.2401
25218SOL     OW79058  10.712   5.372   8.206  0.1496 -0.2195  0.0083
25218SOL    HW179059  10.743   5.459   8.182  0.6500  0.0103  1.4131
25218SOL    HW279060  10.620   5.371   8.180  0.8027 -0.1974 -2.3495
25219SOL     OW79061  10.855   0.362   0.589  0.5453 -0.1719 -0.3038
25219SOL    HW179062  10.840   0.454   0.608  1.3912  0.0000 -0.4484
25219SOL    HW279063  10.824   0.316   0.667  0.0293  0.2211 -0.2720
25220SOL     OW79064   8.400   8.690   0.664 -0.5197 -0.0437 -0.3165
25220SOL    HW179065   8.412   8.785   0.673 -2.6587  0.0212  2.5698
25220SOL    HW279066   8.476   8.652   0.708 -0.6089  0.3471  0.1833
25221SOL     OW79067  10.048   9.755   8.041 -0.0452 -0.0573 -0.2334
25221SOL    HW179068  10.133   9.780   8.005  0.1009  0.7330  0.6454
25221SOL    HW279069   9.990   9.750   7.965  0.1058  2.2226 -0.5379
25222SOL     OW79070   3.409   5.671   2.855  0.1628  0.5531  0.9698
25222SOL    HW179071   3.471   5.714   2.914 -0.8795  1.6408  1.2759
25222SOL    HW279072   3.464   5.635   2.785  1.1289  1.6019  1.1748
25223SOL     OW79073   1.525   1.835   6.348  0.4000 -0.4954 -0.5838
25223SOL    HW179074   1.618   1.815   6.350  0.1937 -1.5000 -0.6263
25223SOL    HW279075   1.486   1.777   6.414 -0.2631 -0.5162 -0.9794
25224SOL     OW79076   2.289   9.788   1.223 -0.0081  0.5446 -0.6483
25224SOL    HW179077   2.345   9.858   1.256 -2.0718  1.1195  1.7946
25224SOL    HW279078   2.334   9.707   1.249  0.6526  0.9981 -0.3874
25225SOL     OW79079   4.082   4.492   4.161 -0.4510 -0.3327 -0.2926
25225SOL    HW179080   4.121   4.410   4.130  2.2660  1.2229 -1.1434
25225SOL    HW279081   4.082   4.549   4.085  0.7424  1.5488  1.0922
25226SOL     OW79082   5.936   8.061  10.650  0.4746 -0.2212  0.3389
25226SOL    HW179083   5.899   7.974  10.667 -0.2131 -0.1400 -0.6963
25226SOL    HW279084   6.031   8.046  10.651  0.3529 -1.3802 -1.7163
25227SOL     OW79085   4.259   7.052   5.306 -0.2921  0.8548  0.2993
25227SOL    HW179086   4.326   7.024   5.244  0.0162  0.8094  0.6477
25227SOL    HW279087   4.183   6.996   5.287 -0.0283  0.4947  0.2993
25228SOL     OW79088   2.979   7.615   1.616 -0.5251  0.6664 -0.2628
25228SOL    HW179089   2.979   7.544   1.680 -1.9691  0.5079 -0.4113
25228SOL    HW279090   2.886   7.635   1.603 -0.1659  2.0353 -0.8234
25229SOL     OW79091   6.199   6.638   2.566  0.0059 -1.0052  0.4028
25229SOL    HW179092   6.290   6.616   2.590  0.1418 -0.4472  0.4031
25229SOL    HW279093   6.147   6.567   2.603  0.3128 -0.6439  1.5529
25230SOL     OW79094   0.595   8.805   7.698 -0.3687  0.0382  0.5570
25230SOL    HW179095   0.504   8.807   7.726 -0.9247 -2.6951 -0.8909
25230SOL    HW279096   0.629   8.722   7.733  0.9459  0.0012 -0.7660
25231SOL     OW79097   7.996   6.963   5.954 -0.1148 -0.4868  0.5543
25231SOL    HW179098   8.014   6.904   6.027 -1.5340 -1.3804  0.2079
25231SOL    HW279099   7.957   6.907   5.887  0.1233  0.5370 -0.4519
25232SOL     OW79100   4.349   0.730  10.107 -0.0267 -0.6436  0.4269
25232SOL    HW179101   4.419   0.665  10.111 -0.2818 -0.8475  2.1565
25232SOL    HW279102   4.341   0.753  10.014  1.2181 -1.8212  0.0287
25233SOL     OW79103   5.871   2.225   8.163 -0.0568 -0.6689  0.0046
25233SOL    HW179104   5.882   2.132   8.140 -0.4741 -0.9656  0.9642
25233SOL    HW279105   5.959   2.261   8.158  0.1957 -1.2471  0.1501
25234SOL     OW79106   6.792   8.716   4.060 -0.2177 -0.7627  0.0300
25234SOL    HW179107   6.850   8.659   4.110  2.2655  1.5174 -0.1853
25234SOL    HW279108   6.820   8.704   3.969  0.5491  1.0356  0.0187
25235SOL     OW79109   0.898   6.962   3.611 -0.3395  0.1269  0.4525
25235SOL    HW179110   0.871   7.012   3.534 -1.3249  0.1600  0.8072
25235SOL    HW279111   0.860   7.009   3.685 -1.5938 -1.3188  0.7690
25236SOL     OW79112   0.099   4.881   7.521 -0.0706  0.0857 -0.4089
25236SOL    HW179113   0.065   4.805   7.568 -2.1275  0.8417 -0.6431
25236SOL    HW279114   0.125   4.847   7.435  0.5703 -0.6505  0.0696
25237SOL     OW79115   0.326   1.579   9.410 -0.4148 -0.2328 -0.2837
25237SOL    HW179116   0.336   1.671   9.387 -1.4905  0.0648  0.4161
25237SOL    HW279117   0.341   1.576   9.505 -2.9332 -0.3715  0.1288
25238SOL     OW79118   5.467   3.342   0.982 -0.3039  0.7110  0.4676
25238SOL    HW179119   5.441   3.251   1.002  3.0915 -0.2426  0.7537
25238SOL    HW279120   5.478   3.383   1.068 -0.6323  1.0684  0.3425
25239SOL     OW79121   7.288   9.249  10.580  0.3208 -0.3529  0.1041
25239SOL    HW179122   7.298   9.171  10.635 -2.5845 -1.3068 -0.6722
25239SOL    HW279123   7.264   9.319  10.641  0.4682 -0.6192  0.4671
25240SOL     OW79124   0.184   1.566   5.451 -0.1421  0.3456  0.1550
25240SOL    HW179125   0.107   1.621   5.436 -0.2043 -0.0319 -1.0155
25240SOL    HW279126   0.178   1.540   5.543 -0.7689  1.2952  0.3856
25241SOL     OW79127   5.794   6.565   8.944 -0.4531 -0.4412  0.0017
25241SOL    HW179128   5.723   6.629   8.940 -0.4383 -0.4197  0.0806
25241SOL    HW279129   5.830   6.565   8.855 -0.3147 -0.1766  0.0545
25242SOL     OW79130   2.166   9.441   3.543  0.3184 -0.0598  0.3134
25242SOL    HW179131   2.097   9.451   3.609  0.3421 -0.1779  0.3571
25242SOL    HW279132   2.121   9.455   3.460  0.1495 -0.5575  0.3145
25243SOL     OW79133   8.713  10.218   2.186 -0.2208  0.2888 -0.1119
25243SOL    HW179134   8.768  10.144   2.210  2.2326  1.0612 -2.9860
25243SOL    HW279135   8.766  10.295   2.207 -1.0485  1.1096 -0.9838
25244SOL     OW79136   4.896   0.055  10.734 -0.3730  0.1266 -0.6453
25244SOL    HW179137   4.888  -0.033  10.770 -0.8412  0.2774 -0.3727
25244SOL    HW279138   4.991   0.071  10.730 -0.3260  0.6232  1.8126
25245SOL     OW79139   8.032   9.345   4.650 -0.2064 -0.0026 -0.0802
25245SOL    HW179140   8.095   9.285   4.610 -0.8947 -1.9890  1.7301
25245SOL    HW279141   7.986   9.384   4.575  0.5321 -1.4300 -1.2967
25246SOL     OW79142   1.460  10.281   9.862  0.6344 -0.0846 -0.1754
25246SOL    HW179143   1.545  10.323   9.850  0.8907 -0.3783  0.5813
25246SOL    HW279144   1.475  10.189   9.839  0.3690 -0.0135 -0.6417
25247SOL     OW79145   2.239   6.556  10.521  0.1456  0.3054 -0.9635
25247SOL    HW179146   2.229   6.466  10.490  0.8050 -0.0804 -0.0890
25247SOL    HW279147   2.318   6.587  10.477  0.0065  0.3976 -1.1462
25248SOL     OW79148   3.376   1.916   1.270  0.5102 -0.3133  0.9099
25248SOL    HW179149   3.453   1.861   1.254  1.1637  1.2127 -1.5021
25248SOL    HW279150   3.310   1.883   1.209  0.1636  0.1446  1.0326
25249SOL     OW79151   1.245   1.001   9.675  0.3959  0.0325  0.5680
25249SOL    HW179152   1.229   1.064   9.604  2.0938  0.5112  0.5903
25249SOL    HW279153   1.294   0.930   9.633  3.0818  1.2018  1.6124
25250SOL     OW79154   1.170   1.889   4.579 -0.9399  0.2474 -0.4346
25250SOL    HW179155   1.172   1.976   4.617 -1.2508  0.3153 -0.5720
25250SOL    HW279156   1.116   1.898   4.500 -2.3688 -0.4225  0.4485
25251SOL     OW79157   9.930   0.220   0.192 -0.6829 -0.5072  0.2060
25251SOL    HW179158   9.879   0.171   0.128 -1.8547 -0.1223  0.8259
25251SOL    HW279159   9.928   0.166   0.271  0.7642 -0.9862 -0.0541
25252SOL     OW79160   3.992   9.475   9.923 -0.4124 -0.1453  0.7477
25252SOL    HW179161   4.022   9.524  10.000  0.7976 -0.0345  0.2232
25252SOL    HW279162   3.984   9.385   9.954 -2.4866  0.3389  1.6755
25253SOL     OW79163   6.819   0.225   4.637 -0.8739  0.3495 -0.2229
25253SOL    HW179164   6.895   0.167   4.623 -0.6884  0.8921 -1.6054
25253SOL    HW279165   6.835   0.266   4.722  0.1209  0.0427 -0.2558
25254SOL     OW79166   8.236   5.855   4.470 -0.0003  0.3177 -0.5728
25254SOL    HW179167   8.331   5.868   4.463 -0.1898  1.6501 -0.7319
25254SOL    HW279168   8.225   5.804   4.551  0.6108  3.2548  1.4276
25255SOL     OW79169   6.313   9.196   0.548  0.7903  0.1112 -0.1651
25255SOL    HW179170   6.289   9.105   0.562 -1.4188  0.7497  0.3948
25255SOL    HW279171   6.233   9.246   0.567  2.6038  2.3529  1.9333
25256SOL     OW79172   5.977   7.413   0.816 -0.3101 -0.3457  0.1812
25256SOL    HW179173   6.058   7.380   0.855 -0.4314  0.2246  0.9195
25256SOL    HW279174   5.966   7.500   0.853 -2.0232 -0.9755  1.2154
25257SOL     OW79175   6.145  10.008   4.317 -0.5465  0.7249  0.0123
25257SOL    HW179176   6.233   9.977   4.297 -0.7214  0.4895 -0.3932
25257SOL    HW279177   6.088   9.934   4.298 -0.5248 -0.2614  3.4305
25258SOL     OW79178   1.705   2.325   5.648  0.0736 -0.3639 -0.7811
25258SOL    HW179179   1.689   2.344   5.740 -0.5076  0.7387 -1.0965
25258SOL    HW279180   1.634   2.265   5.623  1.4017 -2.3084 -0.0091
25259SOL     OW79181   7.578   9.478  10.815  0.5086  0.3015 -0.4059
25259SOL    HW179182   7.659   9.448  10.856 -0.1330 -0.8047  0.0540
25259SOL    HW279183   7.509   9.457  10.877 -0.1652  1.0985 -0.8641
25260SOL     OW79184   2.941   9.040   6.618  0.6152 -0.3622  0.3250
25260SOL    HW179185   2.988   9.124   6.613  0.2504 -0.0822  1.4461
25260SOL    HW279186   3.009   8.977   6.642  0.6280 -0.1528  0.8397
25261SOL     OW79187   4.546   0.080   1.026 -0.5651  0.4195  0.1760
25261SOL    HW179188   4.487   0.010   1.054 -0.9408  0.2886 -0.9305
25261SOL    HW279189   4.494   0.159   1.031 -0.2808  0.5650  0.9653
25262SOL     OW79190   6.004   9.014   0.989 -0.5522 -0.8057  0.1138
25262SOL    HW179191   5.958   9.064   0.922  0.4498  0.1490  0.1227
25262SOL    HW279192   5.951   9.025   1.068 -0.6229 -0.2071 -0.0185
25263SOL     OW79193   5.766   1.996   2.542  0.0847  0.0838  0.0394
25263SOL    HW179194   5.842   2.023   2.492  0.9814 -1.1228  0.7273
25263SOL    HW279195   5.704   2.069   2.533  0.9364  0.6609 -1.2943
25264SOL     OW79196   0.063   2.284   1.962  0.2258  0.0681  0.7445
25264SOL    HW179197   0.096   2.261   1.875 -0.1217  1.2811  0.2835
25264SOL    HW279198   0.074   2.379   1.968 -0.1687  0.0531  1.8468
25265SOL     OW79199   4.091   5.215   4.494 -0.4778  0.4651 -0.1383
25265SOL    HW179200   4.133   5.190   4.412  0.3579  1.7484 -0.1161
25265SOL    HW279201   4.045   5.296   4.475 -0.9377  0.3527  0.4658
25266SOL     OW79202   4.516   9.427   2.871  0.0284 -0.2839  0.5532
25266SOL    HW179203   4.565   9.350   2.902 -0.6780 -0.7516  0.5258
25266SOL    HW279204   4.507   9.482   2.948  2.3846  0.7849  0.0999
25267SOL     OW79205   0.223   3.318   5.567 -0.1329  0.2237  0.4329
25267SOL    HW179206   0.305   3.329   5.519 -0.3859 -2.0978 -0.5702
25267SOL    HW279207   0.246   3.264   5.642 -0.1004  2.3750  2.0340
25268SOL     OW79208   6.875  10.379   6.981 -0.1892 -0.2221 -0.4129
25268SOL    HW179209   6.880  10.464   7.025 -0.4858  0.2669 -1.3086
25268SOL    HW279210   6.813  10.329   7.033  0.4628 -0.1048  0.4815
25269SOL     OW79211  10.605   3.165   5.903 -0.0441 -0.0100 -0.7150
25269SOL    HW179212  10.677   3.207   5.948 -0.5140 -0.0175  0.0526
25269SOL    HW279213  10.539   3.234   5.892  0.9166  0.5327 -3.2922
25270SOL     OW79214   2.008   6.063   7.367 -0.2444 -0.2191 -0.1542
25270SOL    HW179215   1.921   6.066   7.327 -0.7213  2.7728  1.0018
25270SOL    HW279216   1.992   6.029   7.456 -0.3983  1.2290  0.3863
25271SOL     OW79217   6.953   6.868   8.421 -0.1738  0.0512  0.0693
25271SOL    HW179218   6.999   6.803   8.474  0.5219  0.3315 -0.1902
25271SOL    HW279219   6.940   6.943   8.479 -0.9674 -0.3088  0.3665
25272SOL     OW79220   7.304   1.001   4.370  0.2701  0.2738 -0.1234
25272SOL    HW179221   7.305   0.910   4.341 -0.3429 -0.1567  1.1508
25272SOL    HW279222   7.269   1.050   4.296  0.3231 -0.5729 -0.7045
25273SOL     OW79223   7.986   4.843  10.127 -0.0745  0.0960 -0.3428
25273SOL    HW179224   8.010   4.777  10.061  0.5355  0.0720 -0.0978
25273SOL    HW279225   8.038   4.821  10.204  0.4176  1.0861 -0.3810
25274SOL     OW79226   8.453   3.718   6.647  0.3604  0.2267 -0.4487
25274SOL    HW179227   8.477   3.626   6.653 -0.3522 -0.0114 -1.1201
25274SOL    HW279228   8.357   3.717   6.648  0.3545  1.1508  2.2834
25275SOL     OW79229   9.268  10.395   2.171 -0.6183 -0.7050  0.1096
25275SOL    HW179230   9.267  10.386   2.267 -0.0705  1.3033  0.3292
25275SOL    HW279231   9.176  10.400   2.147 -0.7401 -0.2792  0.6447
25276SOL     OW79232  10.540   4.403   5.674 -0.6414  0.4827 -0.6516
25276SOL    HW179233  10.585   4.428   5.755 -1.1292 -1.2191  0.1848
25276SOL    HW279234  10.609   4.362   5.621 -0.4916  0.8911 -0.7751
25277SOL     OW79235   3.258   1.380   1.894 -0.2344 -0.1753 -0.1058
25277SOL    HW179236   3.241   1.408   1.984 -1.2616 -0.5918 -0.1600
25277SOL    HW279237   3.176   1.399   1.848 -0.6385 -2.3801 -0.3477
25278SOL     OW79238  10.726  10.895   4.091 -0.2363  0.1146 -0.0519
25278SOL    HW179239  10.631  10.886   4.102 -0.3188  1.1338  0.1304
25278SOL    HW279240  10.759  10.908   4.180  0.0758 -0.2804 -0.1120
25279SOL     OW79241   5.812  10.304   8.341  0.4030  0.0168  0.0072
25279SOL    HW179242   5.901  10.337   8.351 -0.4275  2.2865  0.1231
25279SOL    HW279243   5.798  10.301   8.246  0.7868 -0.9128 -0.0288
25280SOL     OW79244   3.597   9.866   3.593  0.0120  0.0440  0.4404
25280SOL    HW179245   3.680   9.865   3.641  0.9385  0.0222 -1.1212
25280SOL    HW279246   3.612   9.928   3.521 -1.9819  1.5133  1.2412
25281SOL     OW79247   7.049   0.571   3.158  0.3020  0.0235 -0.4559
25281SOL    HW179248   6.995   0.511   3.107  0.8944 -0.4185 -0.5722
25281SOL    HW279249   7.006   0.656   3.149 -1.0747 -0.5632  0.5087
25282SOL     OW79250   7.913  10.204   2.972 -0.1491  0.2604 -0.6931
25282SOL    HW179251   7.938  10.123   2.928 -2.0646 -0.5361 -0.3566
25282SOL    HW279252   7.996  10.240   3.006  0.4521 -2.6959  1.1086
25283SOL     OW79253   4.280   5.617   7.019  0.2698  0.0206  0.3427
25283SOL    HW179254   4.230   5.536   7.012 -0.0357  0.3904 -2.0458
25283SOL    HW279255   4.368   5.595   6.987 -0.2034  0.9367 -1.6792
25284SOL     OW79256   1.701   1.253   8.133 -0.1745 -0.3897  0.1269
25284SOL    HW179257   1.681   1.189   8.064  0.9037 -1.9067  1.1777
25284SOL    HW279258   1.687   1.205   8.215 -0.1001  0.9609  0.9506
25285SOL     OW79259   1.178   5.064   4.370 -0.4090  0.5355  0.1460
25285SOL    HW179260   1.083   5.056   4.362 -0.4040  0.7762 -0.2084
25285SOL    HW279261   1.198   5.034   4.458 -0.8356  0.6407  0.2804
25286SOL     OW79262   1.796   4.556   8.746  0.3643  0.3748  0.4678
25286SOL    HW179263   1.741   4.619   8.699 -0.4617 -0.9895 -0.4579
25286SOL    HW279264   1.856   4.523   8.680  0.2872 -0.3548  0.7580
25287SOL     OW79265  10.423   9.591   6.658  0.6376 -0.0074  0.5003
25287SOL    HW179266  10.471   9.652   6.714 -0.0958  0.2669  0.8461
25287SOL    HW279267  10.409   9.638   6.576  0.6854  0.0311  0.5148
25288SOL     OW79268   9.719   6.072   6.907  0.1337 -0.6944  0.0223
25288SOL    HW179269   9.647   6.129   6.935  0.1680 -1.0387  0.8143
25288SOL    HW279270   9.798   6.125   6.918  0.1467 -0.8306  0.5910
25289SOL     OW79271   5.234   3.486   4.679  0.3170 -0.1202 -0.3348
25289SOL    HW179272   5.297   3.558   4.673  0.2697 -0.0013  0.5413
25289SOL    HW279273   5.169   3.515   4.743 -0.4662 -0.3741 -0.9968
25290SOL     OW79274   3.916   6.963   3.521 -0.1388  0.0746  0.2582
25290SOL    HW179275   3.996   6.989   3.567 -0.0571 -0.2044  0.2745
25290SOL    HW279276   3.855   6.939   3.591  0.1683 -0.8850  0.2118
25291SOL     OW79277   6.415   1.519   8.698 -0.1108  0.3059 -0.7817
25291SOL    HW179278   6.387   1.605   8.665  1.3167  0.7803 -0.8138
25291SOL    HW279279   6.483   1.492   8.636  0.9414  0.1303  0.4390
25292SOL     OW79280   5.210   3.803  10.362  0.0231  0.0628 -0.5206
25292SOL    HW179281   5.158   3.746  10.306 -1.4128 -1.0420  1.8676
25292SOL    HW279282   5.187   3.892  10.335  0.9245 -0.4340 -3.0488
25293SOL     OW79283   6.197  10.007   2.423  0.1113 -0.8074 -0.0157
25293SOL    HW179284   6.254   9.977   2.352 -0.3843 -0.5414 -0.5333
25293SOL    HW279285   6.126   9.944   2.425  0.0618 -0.7457  0.1654
25294SOL     OW79286   4.637   5.129   2.457  0.1452  0.4388 -0.2726
25294SOL    HW179287   4.580   5.104   2.385 -0.2376  1.7002 -0.4118
25294SOL    HW279288   4.598   5.087   2.534  1.3605 -2.1317 -0.9701
25295SOL     OW79289   2.988   1.140   1.648  0.0534 -0.0032 -0.7706
25295SOL    HW179290   3.056   1.098   1.701 -1.0614 -1.2821 -0.3025
25295SOL    HW279291   2.906   1.115   1.691 -0.7774  0.5181 -2.0165
25296SOL     OW79292   8.547   3.023   6.529 -0.0915 -0.2392  0.3247
25296SOL    HW179293   8.530   2.931   6.548  0.8544 -0.0275  2.2938
25296SOL    HW279294   8.641   3.034   6.544 -0.0882  0.9249 -0.4422
25297SOL     OW79295   5.123   8.922   4.482 -0.0355  0.0310  0.0705
25297SOL    HW179296   5.174   9.002   4.494  0.4671 -0.0867 -1.1423
25297SOL    HW279297   5.034   8.953   4.466 -0.2243  0.2654  1.5507
25298SOL     OW79298   8.306   0.629   6.780 -0.0076 -0.2289  0.9118
25298SOL    HW179299   8.256   0.703   6.745  1.1517 -0.5599 -1.5998
25298SOL    HW279300   8.398   0.656   6.772  0.4234 -1.7821  0.2549
25299SOL     OW79301   5.039   9.962   3.334  0.4175  0.1216 -0.0494
25299SOL    HW179302   5.030  10.006   3.418  0.6347  0.2819 -0.1086
25299SOL    HW279303   5.008   9.873   3.350 -1.2183  0.6363 -0.2472
25300SOL     OW79304   9.552   8.476   9.637  0.3624  0.4938  0.1354
25300SOL    HW179305   9.506   8.424   9.702  0.3171  2.3636  1.6108
25300SOL    HW279306   9.645   8.457   9.652  0.2921 -0.0385 -0.0917
25301SOL     OW79307   0.225   8.391   7.582  0.7657 -0.2229 -0.2667
25301SOL    HW179308   0.185   8.476   7.563 -0.4742 -0.7643 -0.0973
25301SOL    HW279309   0.225   8.385   7.678  1.0935 -0.3070 -0.2709
25302SOL     OW79310   2.295   3.730   3.610  0.4274 -0.1521 -0.4005
25302SOL    HW179311   2.278   3.711   3.518  0.4376 -0.2006 -0.3919
25302SOL    HW279312   2.208   3.733   3.650  0.3792  0.5620 -0.5458
25303SOL     OW79313   4.472   6.811  10.454 -0.1129  0.1418 -0.1288
25303SOL    HW179314   4.464   6.889  10.398 -0.2445  0.6076  0.5332
25303SOL    HW279315   4.391   6.762  10.440  0.5184 -0.5331 -1.5253
25304SOL     OW79316   6.640   1.352   4.171  0.4646  0.3965 -0.0569
25304SOL    HW179317   6.709   1.340   4.106  0.1905 -0.5797 -0.1742
25304SOL    HW279318   6.574   1.287   4.149  0.3492  0.0809  1.1747
25305SOL     OW79319   2.388   3.345   3.021  0.2628  0.5314 -0.2292
25305SOL    HW179320   2.354   3.313   3.105  1.9148 -0.4406  0.0958
25305SOL    HW279321   2.424   3.267   2.979  0.8545  1.3001 -1.1520
25306SOL     OW79322   4.427   3.419   7.548 -0.2505 -0.1910 -0.3182
25306SOL    HW179323   4.495   3.460   7.495 -1.1022 -0.2769 -1.4871
25306SOL    HW279324   4.467   3.339   7.582  0.1436 -0.3578 -1.1833
25307SOL     OW79325   2.897   1.172   9.852 -0.1234  0.5567 -0.5235
25307SOL    HW179326   2.972   1.231   9.844 -1.5556  2.3865 -0.8689
25307SOL    HW279327   2.909   1.108   9.783  1.5860  0.2997  0.0006
25308SOL     OW79328   5.040   2.761   6.496  0.6741 -0.2022 -0.4810
25308SOL    HW179329   5.005   2.744   6.409 -0.1939 -1.9405  0.1869
25308SOL    HW279330   5.110   2.825   6.482  0.2230 -0.1069 -2.3804
25309SOL     OW79331   0.346   1.524   8.069  0.6688 -0.5404  0.4293
25309SOL    HW179332   0.329   1.462   8.140  2.5926 -0.8069  0.6912
25309SOL    HW279333   0.420   1.576   8.101 -0.7258  1.7064  0.0892
25310SOL     OW79334   5.255   8.157   4.572 -0.1757 -0.2143 -0.4655
25310SOL    HW179335   5.171   8.119   4.543 -0.0633 -1.4883  0.8077
25310SOL    HW279336   5.313   8.081   4.581  0.5195  0.4434  0.6123
25311SOL     OW79337   9.114  10.973   9.705  0.6625 -0.0388  0.3693
25311SOL    HW179338   9.086  10.885   9.680 -0.4394  0.3772  0.1058
25311SOL    HW279339   9.198  10.985   9.660  0.2163 -0.4892 -0.5979
25312SOL     OW79340   7.648   4.041   4.371  0.7501 -0.1993  0.1294
25312SOL    HW179341   7.601   4.052   4.454  0.5163 -0.3570  0.0193
25312SOL    HW279342   7.724   4.098   4.378 -0.2437  1.2200 -0.2713
25313SOL     OW79343   0.820   7.041   9.865  0.0826  0.4958  0.1069
25313SOL    HW179344   0.728   7.056   9.883 -0.3131 -1.4611 -0.2567
25313SOL    HW279345   0.866   7.076   9.941 -1.1840 -1.9822  2.0724
25314SOL     OW79346   2.985   7.518   9.469  0.2273 -0.0958  0.5464
25314SOL    HW179347   3.026   7.604   9.480 -0.2819  0.0185  1.6700
25314SOL    HW279348   3.014   7.488   9.383 -1.5726  2.2478 -0.9031
25315SOL     OW79349   9.918   2.976   2.475 -0.4387 -0.1026 -0.4909
25315SOL    HW179350   9.938   2.883   2.477 -1.3202 -0.3017 -0.9556
25315SOL    HW279351   9.872   2.990   2.393  1.2978  1.0822 -1.3036
25316SOL     OW79352   1.654   2.939   5.365 -0.2635 -0.1654 -0.3708
25316SOL    HW179353   1.624   3.027   5.386  0.1945 -0.1009  0.0234
25316SOL    HW279354   1.650   2.934   5.269 -0.5365  0.1939 -0.3764
25317SOL     OW79355   0.815   1.503   1.109  0.1971 -0.4169  0.6003
25317SOL    HW179356   0.860   1.427   1.073 -0.8286 -1.1504  0.8417
25317SOL    HW279357   0.777   1.546   1.032  0.2222 -0.5118  0.5344
25318SOL     OW79358   6.569   6.768   4.517 -0.6806 -0.2380 -0.3514
25318SOL    HW179359   6.648   6.763   4.572 -1.0292 -0.1481  0.1559
25318SOL    HW279360   6.600   6.808   4.435  0.3373 -2.4700 -1.1301
25319SOL     OW79361   1.094   6.107   0.513 -0.2187  0.3451  0.0284
25319SOL    HW179362   1.098   6.094   0.608 -1.7180 -1.8225 -0.1671
25319SOL    HW279363   1.155   6.178   0.496  2.4646 -1.3309  2.2470
25320SOL     OW79364   5.773   0.295   1.357  0.1469 -1.0975 -0.1542
25320SOL    HW179365   5.816   0.361   1.413  0.1874 -1.1896 -0.0755
25320SOL    HW279366   5.687   0.283   1.397  0.4188 -1.6523  0.2861
25321SOL     OW79367   7.006   2.388   7.555  0.0320  0.3051 -0.3524
25321SOL    HW179368   6.977   2.456   7.616  1.2719 -0.3759  1.0360
25321SOL    HW279369   6.953   2.311   7.578  1.7741 -0.4866  1.1417
25322SOL     OW79370   9.990   3.906   6.119 -0.1888 -0.3722 -0.2046
25322SOL    HW179371  10.045   3.828   6.121  0.7043  0.2733  0.8204
25322SOL    HW279372  10.011   3.953   6.200 -1.1001  0.6670 -0.5552
25323SOL     OW79373   7.214   0.521   8.614 -0.0024  0.0502 -0.2468
25323SOL    HW179374   7.251   0.433   8.605 -0.8801 -0.1923 -1.5405
25323SOL    HW279375   7.133   0.508   8.664  0.3259  0.2402  0.3361
25324SOL     OW79376   8.204   4.034   8.141 -0.6999  0.1584  0.0820
25324SOL    HW179377   8.176   4.019   8.231 -0.8894 -0.8770 -0.1410
25324SOL    HW279378   8.165   3.962   8.091  0.4748 -0.0097 -0.6137
25325SOL     OW79379   0.520   8.862   8.852 -0.3668 -0.4718  0.1412
25325SOL    HW179380   0.447   8.802   8.837 -0.1973 -0.7471  0.4138
25325SOL    HW279381   0.491   8.945   8.814 -1.0927 -0.4018  0.8376
25326SOL     OW79382   0.110   0.060   1.058 -0.0093 -0.6444  0.1117
25326SOL    HW179383   0.115   0.003   0.982  0.8136  0.1289 -0.4323
25326SOL    HW279384   0.093   0.147   1.022 -0.8714 -0.4764  0.8954
25327SOL     OW79385   7.924   4.505   8.225 -0.5656 -0.3538  0.0050
25327SOL    HW179386   7.958   4.427   8.181  0.6701  0.1309  0.1114
25327SOL    HW279387   7.912   4.477   8.316 -0.2883 -0.4697  0.0072
25328SOL     OW79388   3.966   6.931   3.071 -0.1388  0.3650  0.2327
25328SOL    HW179389   3.908   6.949   2.996 -0.9470 -0.1322  0.7358
25328SOL    HW279390   4.048   6.900   3.031 -1.0228 -1.2033 -0.4282
25329SOL     OW79391   7.190  10.942   8.595  0.0473 -0.0667  0.2677
25329SOL    HW179392   7.161  10.937   8.686  0.5793 -1.2809  0.3915
25329SOL    HW279393   7.249  10.868   8.586  1.4568  1.1503 -0.5613
25330SOL     OW79394   1.530  10.826   3.240  0.2016  0.5111 -0.8605
25330SOL    HW179395   1.438  10.832   3.212 -0.2864  1.0256  0.7643
25330SOL    HW279396   1.549  10.732   3.240 -1.0923  0.2037  1.0544
25331SOL     OW79397   8.924   2.776   1.980  0.2979  0.1169 -0.9670
25331SOL    HW179398   8.926   2.844   2.046  1.0691 -1.7460  0.9866
25331SOL    HW279399   8.831   2.761   1.963  0.0881  0.3866 -0.0568
25332SOL     OW79400   0.063   8.245   1.028 -0.2277 -0.1219  0.1403
25332SOL    HW179401   0.142   8.245   1.082 -0.3937  0.2364  0.3882
25332SOL    HW279402  -0.009   8.234   1.091 -0.7075  3.9732  0.4252
25333SOL     OW79403   1.596   3.957   4.250  0.2546  0.3106 -0.0886
25333SOL    HW179404   1.504   3.974   4.231 -0.2449 -1.3599  0.7186
25333SOL    HW279405   1.636   4.043   4.257 -0.4686  1.0455 -4.0161
25334SOL     OW79406   7.931   0.155   9.509  0.2369  0.3551  0.1973
25334SOL    HW179407   7.999   0.093   9.535  0.0463  0.4777  1.0219
25334SOL    HW279408   7.851   0.120   9.550  0.0781  0.9921  0.4381
25335SOL     OW79409   7.632   6.443   5.108  0.4520 -0.2159 -0.1333
25335SOL    HW179410   7.683   6.438   5.026 -0.6483 -0.1697 -0.8257
25335SOL    HW279411   7.637   6.354   5.144  1.7579  0.0031  0.2607
25336SOL     OW79412  10.905   8.327   0.322  0.1029 -0.3817 -0.1383
25336SOL    HW179413  10.973   8.264   0.347 -0.2178 -1.0039 -0.7892
25336SOL    HW279414  10.952   8.409   0.307  0.6900 -0.7608 -0.4036
25337SOL     OW79415   2.717   1.308   8.869 -0.3251  0.4989  0.5525
25337SOL    HW179416   2.693   1.384   8.923 -0.7025  0.3113  0.6553
25337SOL    HW279417   2.688   1.232   8.921 -1.3699  0.3397 -0.2331
25338SOL     OW79418   3.031   4.437   6.372 -0.3746  0.4403  0.5353
25338SOL    HW179419   3.115   4.477   6.394 -0.0541  0.7590 -1.1827
25338SOL    HW279420   3.001   4.484   6.295 -1.9610  0.0662  0.8955
25339SOL     OW79421  10.366   9.697   8.315 -0.0770  0.7980  0.1713
25339SOL    HW179422  10.272   9.682   8.307 -0.0955  0.8250  0.3534
25339SOL    HW279423  10.406   9.623   8.268 -0.2276  2.3096 -2.4121
25340SOL     OW79424  10.454   0.507   1.277  0.3009  0.6996 -0.0659
25340SOL    HW179425  10.493   0.563   1.210 -1.6520  0.5360 -1.3939
25340SOL    HW279426  10.434   0.425   1.230  2.7646 -0.9936  1.7393
25341SOL     OW79427   5.071   0.358   6.926 -0.0764 -0.1981 -0.5445
25341SOL    HW179428   5.128   0.281   6.934  0.6722  0.2795 -1.1478
25341SOL    HW279429   4.989   0.331   6.966  0.1389 -1.3515 -0.8511
25342SOL     OW79430   4.541   7.448   0.686  0.2432 -0.7295  0.3214
25342SOL    HW179431   4.504   7.441   0.598 -0.1942 -1.2770  0.5467
25342SOL    HW279432   4.609   7.381   0.689  2.4268  1.3739 -0.6547
25343SOL     OW79433   8.717   3.961   0.017 -0.0554  0.7663 -0.1034
25343SOL    HW179434   8.645   3.906   0.048 -0.0103  0.6578 -0.1873
25343SOL    HW279435   8.762   3.906  -0.049  0.5041  0.5721  0.4314
25344SOL     OW79436   5.806   2.207   3.453 -0.2751 -0.1944  0.7139
25344SOL    HW179437   5.826   2.289   3.498  0.3263  0.6709 -1.0939
25344SOL    HW279438   5.714   2.217   3.425 -0.6225 -0.6954  1.6696
25345SOL     OW79439   7.202   9.332   5.850 -0.3438 -0.0279 -0.3458
25345SOL    HW179440   7.226   9.347   5.758 -2.7329 -1.7515 -1.3190
25345SOL    HW279441   7.107   9.343   5.852 -0.2006  1.0135  2.1605
25346SOL     OW79442   0.230   2.017   6.692  0.1526  0.1061  0.3732
25346SOL    HW179443   0.225   2.068   6.611  0.9901  0.4301  0.5143
25346SOL    HW279444   0.156   2.047   6.744  0.4704  0.9818  0.3338
25347SOL     OW79445  10.422   7.752   2.126  0.1537 -0.1619 -0.7572
25347SOL    HW179446  10.359   7.723   2.192 -1.6314  1.8095 -1.5587
25347SOL    HW279447  10.505   7.711   2.153 -0.5039  0.6293  2.7207
25348SOL     OW79448   5.984   5.861   3.386  0.4504 -0.3400  0.4346
25348SOL    HW179449   5.932   5.891   3.311  0.9641 -0.3928  0.0526
25348SOL    HW279450   6.030   5.784   3.354  1.9844  0.6166  0.2682
25349SOL     OW79451   9.961   4.900   1.801  0.5405 -0.1211 -0.7445
25349SOL    HW179452   9.945   4.987   1.766 -0.0278  0.2813  0.4553
25349SOL    HW279453  10.046   4.906   1.844  1.7069 -0.8975 -2.9113
25350SOL     OW79454   7.561   5.228   4.134  0.0811 -0.1316 -0.2088
25350SOL    HW179455   7.543   5.305   4.079  1.1627  0.0035 -0.3871
25350SOL    HW279456   7.475   5.203   4.169 -0.6700 -0.3489 -2.1314
25351SOL     OW79457   2.380   5.764  10.860  0.0825  0.5161  0.3217
25351SOL    HW179458   2.404   5.780  10.951  1.7240 -1.1297  0.2106
25351SOL    HW279459   2.322   5.687  10.864 -1.0499  1.3467  0.1026
25352SOL     OW79460   1.214  10.605   3.292 -0.1249  0.9797 -0.0123
25352SOL    HW179461   1.227  10.677   3.231 -0.6626  0.3243 -0.9056
25352SOL    HW279462   1.207  10.527   3.237 -2.1930  0.5844  0.7664
25353SOL     OW79463   0.523   5.248   6.127  0.0446  0.5929  0.0438
25353SOL    HW179464   0.569   5.330   6.143  0.7261  0.0087  1.1820
25353SOL    HW279465   0.587   5.180   6.150 -0.2790 -0.2640 -1.5285
25354SOL     OW79466   1.331   8.431   9.677  0.1507 -0.4646  0.1871
25354SOL    HW179467   1.247   8.475   9.665 -0.3967 -1.7529 -0.8054
25354SOL    HW279468   1.379   8.487   9.738 -1.5242  0.1576  0.9567
25355SOL     OW79469   9.236   2.402   6.408  0.4110  0.0119 -0.5651
25355SOL    HW179470   9.252   2.379   6.499 -0.1335  1.4205 -0.1063
25355SOL    HW279471   9.268   2.491   6.400  1.3596 -0.4368 -2.0126
25356SOL     OW79472   1.093   1.487   5.441  0.3755 -0.1726 -0.1980
25356SOL    HW179473   1.063   1.567   5.484  0.3423  0.2832 -1.0544
25356SOL    HW279474   1.187   1.499   5.429  0.5361 -0.6681  0.5139
25357SOL     OW79475   4.076   2.337   8.882  0.4891  0.0600  0.1783
25357SOL    HW179476   3.981   2.336   8.891  0.6505  1.7917  2.4637
25357SOL    HW279477   4.109   2.362   8.969  3.0429 -0.7485 -0.4975
25358SOL     OW79478   6.525   9.672   6.964  0.1668  0.3892 -0.6501
25358SOL    HW179479   6.519   9.589   6.917  1.2521  0.5501 -1.0941
25358SOL    HW279480   6.581   9.653   7.039 -1.0270  0.2937  0.2161
25359SOL     OW79481   2.549   4.745   9.181  0.5454 -0.2878 -0.6143
25359SOL    HW179482   2.499   4.666   9.205 -0.2316 -0.1156 -1.6388
25359SOL    HW279483   2.587   4.725   9.096  0.9335  0.1740 -0.5470
25360SOL     OW79484  10.639   0.847   0.301 -0.5810  0.0968 -0.1487
25360SOL    HW179485  10.640   0.751   0.304 -0.9933 -0.0062 -2.5182
25360SOL    HW279486  10.569   0.868   0.239 -1.4226  1.9750  1.3952
25361SOL     OW79487   0.732   5.111   6.727 -0.1976 -0.0824 -0.5687
25361SOL    HW179488   0.689   5.100   6.812  1.2326  2.2675  0.5100
25361SOL    HW279489   0.705   5.034   6.677 -3.2213 -0.1886  1.0819
25362SOL     OW79490   1.511   9.724  10.692 -0.3258  0.0991 -0.8083
25362SOL    HW179491   1.466   9.741  10.775  0.7801  0.4696 -0.2735
25362SOL    HW279492   1.447   9.748  10.625 -0.9090  0.6720 -0.0585
25363SOL     OW79493   7.199   0.748   1.120 -0.2166  0.1900 -0.0987
25363SOL    HW179494   7.121   0.802   1.108  0.4672  1.0451 -0.7441
25363SOL    HW279495   7.214   0.709   1.034 -0.1149 -0.2170  0.1059
25364SOL     OW79496   6.791   9.756   0.220  0.4597 -0.1501  0.4590
25364SOL    HW179497   6.741   9.676   0.241  0.0498  0.7313  3.0093
25364SOL    HW279498   6.752   9.787   0.139  0.9801 -2.8411 -0.8877
25365SOL     OW79499   5.290   7.129   6.523  0.2468 -0.0231  0.2669
25365SOL    HW179500   5.225   7.199   6.530 -0.2162 -0.3947 -0.3413
25365SOL    HW279501   5.314   7.110   6.614 -0.0331  0.5406  0.4644
25366SOL     OW79502   7.930   0.755   3.899  0.2775 -0.0744 -0.4349
25366SOL    HW179503   8.010   0.703   3.890 -1.6735 -3.7156  1.7890
25366SOL    HW279504   7.866   0.711   3.843 -1.1222  0.6528  0.5527
25367SOL     OW79505   0.021  10.614   6.073  0.4030  0.2019  0.5408
25367SOL    HW179506   0.005  10.529   6.115 -0.8345 -0.1386 -0.6059
25367SOL    HW279507   0.115  10.626   6.080  0.7709 -1.8684 -0.4113
25368SOL     OW79508   8.159   2.795   8.965  0.1281 -0.0927  0.1343
25368SOL    HW179509   8.129   2.783   8.875  1.1314  0.7821 -0.3290
25368SOL    HW279510   8.118   2.877   8.994 -0.2054 -0.3787  0.4748
25369SOL     OW79511   7.961  10.512   2.711  0.0321 -0.5052 -0.0471
25369SOL    HW179512   8.017  10.438   2.690  1.0356  0.0662  0.5653
25369SOL    HW279513   7.963  10.567   2.633 -0.8832 -1.2137 -0.5810
25370SOL     OW79514  10.890   1.807   4.462  0.4873  0.4952 -0.2573
25370SOL    HW179515  10.903   1.718   4.495  1.0759  0.7945  0.3367
25370SOL    HW279516  10.823   1.844   4.519 -0.0037  0.3162 -0.7218
25371SOL     OW79517  10.243   0.769   7.708  0.0144 -0.3317 -0.0594
25371SOL    HW179518  10.149   0.770   7.690  0.2952 -1.3708 -1.7693
25371SOL    HW279519  10.275   0.851   7.671 -0.2961  0.2978  1.0490
25372SOL     OW79520   2.014   3.854   3.828  0.3458 -0.0732 -0.3741
25372SOL    HW179521   1.948   3.804   3.779 -0.5302 -0.5878  1.2714
25372SOL    HW279522   1.971   3.937   3.848  0.0049 -0.5639  1.0473
25373SOL     OW79523   2.217   9.623   4.967  0.1467  0.1536 -0.0028
25373SOL    HW179524   2.181   9.667   4.890  1.5998  1.4970  0.0468
25373SOL    HW279525   2.272   9.553   4.930  0.2181  0.2992 -0.1770
25374SOL     OW79526   1.825   6.677   1.301  0.2078 -0.2313 -0.1516
25374SOL    HW179527   1.825   6.582   1.296  0.8608 -0.1671 -1.3931
25374SOL    HW279528   1.858   6.706   1.216 -0.7261  1.1170 -0.0715
25375SOL     OW79529   1.053   2.446   9.651  0.0472  0.1431 -0.0856
25375SOL    HW179530   1.033   2.526   9.699  0.3650 -0.3481  0.8800
25375SOL    HW279531   1.075   2.476   9.563 -0.8934  1.0277 -0.0352
25376SOL     OW79532   3.562   8.900   1.285  0.2039 -0.3726  0.5498
25376SOL    HW179533   3.552   8.855   1.201 -1.7378 -0.8982  1.0462
25376SOL    HW279534   3.479   8.945   1.298  1.3092  1.5280  1.1535
25377SOL     OW79535   7.372   1.386   0.190  0.2890  0.2914  0.2692
25377SOL    HW179536   7.320   1.330   0.132 -1.4108  0.9389  1.1471
25377SOL    HW279537   7.370   1.472   0.148  1.9478 -0.0291 -0.4896
25378SOL     OW79538   2.415   8.467   9.119  0.4163  0.3807 -0.1701
25378SOL    HW179539   2.405   8.389   9.064 -0.1485  0.9560 -0.8920
25378SOL    HW279540   2.360   8.449   9.195  1.7910 -0.7453  0.5708
25379SOL     OW79541   7.891   0.919   0.081 -0.3710 -0.3787 -0.1072
25379SOL    HW179542   7.926   0.963   0.004  0.9582 -0.1966  0.5801
25379SOL    HW279543   7.903   0.826   0.063  1.3827 -0.2998  0.5092
25380SOL     OW79544  10.439   4.901   1.404  0.0852  0.0013 -0.2169
25380SOL    HW179545  10.524   4.896   1.446 -0.6585 -1.0248  1.1739
25380SOL    HW279546  10.379   4.929   1.473 -0.8456  0.0229 -1.0144
25381SOL     OW79547   8.642   2.450   4.803 -0.0187  1.0397  0.4438
25381SOL    HW179548   8.729   2.451   4.842  0.5521  0.8996 -0.8079
25381SOL    HW279549   8.646   2.380   4.737 -1.2612  0.6063  0.8149
25382SOL     OW79550   7.757   1.466   4.124 -0.1415  0.1474  0.4408
25382SOL    HW179551   7.836   1.502   4.163  0.9300 -0.2543 -1.2801
25382SOL    HW279552   7.765   1.371   4.138  0.0244  0.0451 -0.2770
25383SOL     OW79553   5.743   1.578   9.788  0.2083  0.4053 -0.5933
25383SOL    HW179554   5.677   1.526   9.835  1.7271 -0.4267  0.6533
25383SOL    HW279555   5.765   1.523   9.712  2.4944 -1.2579  1.2175
25384SOL     OW79556  10.149  10.722   1.381 -0.7343  0.2012 -0.2833
25384SOL    HW179557  10.156  10.669   1.461 -1.6040  2.1455  1.1461
25384SOL    HW279558  10.066  10.696   1.342 -0.6015 -0.3087 -0.2353
25385SOL     OW79559  10.377   7.720   0.723 -0.4336  0.6590  0.5159
25385SOL    HW179560  10.346   7.795   0.775  0.7461 -0.6413  3.1912
25385SOL    HW279561  10.316   7.649   0.744  0.6710 -0.1768  0.9368
25386SOL     OW79562   5.027   5.907   9.336 -0.0751 -0.0161 -0.4696
25386SOL    HW179563   5.107   5.883   9.290 -0.4298 -1.8739 -0.1551
25386SOL    HW279564   4.961   5.912   9.268  0.0051  0.1061 -0.5381
25387SOL     OW79565   9.100  10.487   4.799 -0.6303 -0.0580  0.3968
25387SOL    HW179566   9.017  10.445   4.777  1.5174 -2.3024 -3.9177
25387SOL    HW279567   9.089  10.578   4.769 -0.7235 -0.9651 -2.4607
25388SOL     OW79568   8.783   7.297   5.334 -0.2319 -0.3079  0.1497
25388SOL    HW179569   8.805   7.381   5.374  0.3094 -0.0436 -0.6966
25388SOL    HW279570   8.867   7.264   5.301 -0.5869 -0.7752 -0.2855
25389SOL     OW79571   2.847   2.794   6.378  0.2982 -0.3773  0.1304
25389SOL    HW179572   2.933   2.808   6.417 -0.2636 -0.1612  1.2963
25389SOL    HW279573   2.844   2.700   6.360  1.5952 -0.0731 -1.8788
25390SOL     OW79574   1.168   0.325   4.112  0.1981 -0.2717  0.1951
25390SOL    HW179575   1.190   0.236   4.085  0.0457 -0.3628  0.3672
25390SOL    HW279576   1.110   0.357   4.043 -1.8097 -1.2178  1.3938
25391SOL     OW79577  10.304   7.047  10.833 -0.4385  0.0017 -0.1590
25391SOL    HW179578  10.356   7.019  10.908 -1.0487 -0.5491  0.0611
25391SOL    HW279579  10.306   7.143  10.836  1.1128  0.0028 -0.5342
25392SOL     OW79580   2.824   3.177   6.743  0.2202 -0.1363  0.4866
25392SOL    HW179581   2.851   3.142   6.658  2.1973 -0.8589  1.3831
25392SOL    HW279582   2.803   3.269   6.725 -0.6056 -0.6047 -1.0171
25393SOL     OW79583   1.775   4.834   6.047  0.1342 -0.5715  0.0717
25393SOL    HW179584   1.817   4.809   6.130 -3.4656  0.2713  2.2414
25393SOL    HW279585   1.800   4.926   6.034  1.2848 -0.9094 -0.1835
25394SOL     OW79586   3.142   9.348   3.959  0.7638  0.0450 -0.3267
25394SOL    HW179587   3.050   9.360   3.934  0.4170 -0.4359  0.6814
25394SOL    HW279588   3.190   9.411   3.906 -0.4910  2.4672  1.2976
25395SOL     OW79589   8.159   3.391   7.600  0.5793  0.3219 -0.7218
25395SOL    HW179590   8.213   3.319   7.634 -1.2057 -0.1045  1.3439
25395SOL    HW279591   8.192   3.469   7.645 -0.1596  0.1302  0.1865
25396SOL     OW79592  10.690   6.243   1.476  0.3916  0.0254  0.0765
25396SOL    HW179593  10.600   6.210   1.479  0.1621  0.4515 -1.6963
25396SOL    HW279594  10.738   6.178   1.425  1.0418 -0.0817  0.8209
25397SOL     OW79595  10.421   4.774   9.411  0.1565 -0.5003 -0.2839
25397SOL    HW179596  10.331   4.804   9.418 -0.4526 -2.2262 -0.4742
25397SOL    HW279597  10.472   4.853   9.392 -1.2122  0.5836  0.5526
25398SOL     OW79598   6.222   6.051   6.196  0.0787 -0.3652  0.2083
25398SOL    HW179599   6.192   5.962   6.214  0.6501 -0.6342 -0.1486
25398SOL    HW279600   6.313   6.052   6.225  1.2619 -1.0240 -3.1803
25399SOL     OW79601   6.224   7.874   0.613 -0.0683  0.3308  0.6990
25399SOL    HW179602   6.309   7.829   0.613  0.3958  1.1759 -0.6813
25399SOL    HW279603   6.159   7.805   0.605  0.5432 -0.2408  0.6599
25400SOL     OW79604   7.053   5.141   8.790  0.3615  0.1843 -0.1904
25400SOL    HW179605   7.028   5.050   8.806  0.0301  0.1643 -0.8035
25400SOL    HW279606   7.085   5.141   8.701  0.8421  0.5732 -0.0132
25401SOL     OW79607   7.083   9.270   8.554  0.8995 -0.3209  0.0181
25401SOL    HW179608   7.124   9.214   8.620 -0.1107  1.6970  2.4452
25401SOL    HW279609   6.994   9.283   8.587  0.3261  0.6272 -1.8420
25402SOL     OW79610  10.088  10.192   0.681 -0.0579  0.1457 -0.0065
25402SOL    HW179611  10.129  10.116   0.721  1.3981  0.4622 -0.8656
25402SOL    HW279612   9.999  10.164   0.661 -0.0604 -0.7814  1.2097
25403SOL     OW79613  10.310   2.675   6.217 -0.2279 -0.5072 -0.0809
25403SOL    HW179614  10.394   2.667   6.172  0.3030  1.6020  0.4714
25403SOL    HW279615  10.297   2.770   6.226 -1.5853 -0.8571  1.8488
25404SOL     OW79616   0.954   2.901   4.960 -0.0436 -0.0907  0.1504
25404SOL    HW179617   1.013   2.945   5.021 -0.4777  1.3581 -0.4541
25404SOL    HW279618   0.915   2.830   5.011  0.9950 -0.0465  1.0153
25405SOL     OW79619   1.118   3.402   4.515  0.1851 -0.6975 -0.0460
25405SOL    HW179620   1.049   3.468   4.517  0.1452 -0.7516  0.4324
25405SOL    HW279621   1.093   3.343   4.444  0.1550 -0.2703 -0.3903
25406SOL     OW79622   0.973   8.142   2.323 -0.5368 -0.5067 -0.2713
25406SOL    HW179623   1.019   8.193   2.389  1.6188 -0.9882 -1.3756
25406SOL    HW279624   0.881   8.169   2.332  0.2397  1.9818  0.5524
25407SOL     OW79625   2.998   8.143   8.255  0.4609 -0.0405 -0.2815
25407SOL    HW179626   2.965   8.087   8.184 -1.6776  0.0934  0.5617
25407SOL    HW279627   3.007   8.229   8.215 -0.3268 -0.0584 -0.5168
25408SOL     OW79628   6.317  10.033   5.582  0.1998 -0.6023  0.0824
25408SOL    HW179629   6.234  10.080   5.591  1.6692  2.3848 -1.2954
25408SOL    HW279630   6.354  10.033   5.670 -0.4658 -0.4353  0.3664
25409SOL     OW79631   0.256   2.078   7.206  0.3799  0.8769  0.2725
25409SOL    HW179632   0.256   2.004   7.266  0.5943  1.2172  0.6930
25409SOL    HW279633   0.317   2.141   7.245  2.0561  0.2781 -1.3223
25410SOL     OW79634  10.296   4.459   2.448 -0.8058 -0.2229  0.1791
25410SOL    HW179635  10.384   4.424   2.436 -0.4787  0.8249 -0.4824
25410SOL    HW279636  10.309   4.548   2.479 -1.6127  0.4634 -1.4005
25411SOL     OW79637   8.313   7.194  10.244  0.2820 -0.0134  0.1275
25411SOL    HW179638   8.224   7.229  10.256  0.8363  1.5159 -0.1005
25411SOL    HW279639   8.301   7.099  10.245 -1.4877  0.1621 -0.7991
25412SOL     OW79640   3.690   7.385   1.203  0.1876  0.1969 -0.2051
25412SOL    HW179641   3.682   7.366   1.110 -1.2772  2.1916 -0.5046
25412SOL    HW279642   3.606   7.359   1.241  0.6516 -0.2942  0.5089
25413SOL     OW79643   1.766   5.969   1.707  0.0062 -0.0678 -0.1392
25413SOL    HW179644   1.739   5.939   1.620  0.8024 -1.0091 -0.0776
25413SOL    HW279645   1.748   5.894   1.764  0.5088  0.1556  0.3127
25414SOL     OW79646   8.418   4.327   1.237  0.4716 -0.0352 -0.2686
25414SOL    HW179647   8.427   4.234   1.218 -1.3657 -0.6176  1.5492
25414SOL    HW279648   8.333   4.335   1.279  0.4294  2.5438 -0.7467
25415SOL     OW79649   4.127   7.564   2.508  0.1712 -0.3732  0.2378
25415SOL    HW179650   4.204   7.608   2.545 -0.2124 -0.1982  0.8407
25415SOL    HW279651   4.088   7.517   2.582 -0.4359 -0.2624 -0.0021
25416SOL     OW79652   8.835   0.865   5.017 -0.0642  0.5875 -0.2105
25416SOL    HW179653   8.751   0.836   4.981  1.5810 -1.9167 -2.1072
25416SOL    HW279654   8.861   0.795   5.076  1.6120  0.4259 -1.1230
25417SOL     OW79655   8.769   8.744   1.626 -0.2478  0.0230  0.1183
25417SOL    HW179656   8.709   8.817   1.609 -1.4726 -0.7073  1.2370
25417SOL    HW279657   8.842   8.759   1.566 -0.7894  1.8130 -0.1317
25418SOL     OW79658  10.269   3.982   2.406 -0.3218 -0.2440  0.4004
25418SOL    HW179659  10.300   4.051   2.464  0.4027  0.3207 -0.6472
25418SOL    HW279660  10.345   3.926   2.391 -0.3059  0.0227 -0.5803
25419SOL     OW79661   7.897   1.472   8.328 -0.2149  0.4582 -0.0549
25419SOL    HW179662   7.990   1.484   8.345 -0.0843 -1.3527  0.5850
25419SOL    HW279663   7.865   1.560   8.308  1.3259  1.3321  1.1947
25420SOL     OW79664   3.226   7.157   6.661  0.2093  0.1225  0.7182
25420SOL    HW179665   3.158   7.222   6.646 -0.8109 -0.9282  0.6890
25420SOL    HW279666   3.229   7.148   6.757  0.0283 -0.1266  0.7001
25421SOL     OW79667   5.882   7.821   2.400 -0.1452  0.6642 -0.2956
25421SOL    HW179668   5.851   7.732   2.419 -0.6244  1.5242  3.3211
25421SOL    HW279669   5.813   7.878   2.433  0.4239  2.4251 -2.0827
25422SOL     OW79670  10.569   6.007   4.914  0.4574  0.1968  0.0605
25422SOL    HW179671  10.540   6.098   4.906  0.2299  0.1211  0.0076
25422SOL    HW279672  10.527   5.962   4.840  1.1611  0.1979 -0.3359
25423SOL     OW79673   0.085   5.565   7.090  0.2246 -0.0103  0.0575
25423SOL    HW179674   0.045   5.576   7.004  0.3351  3.7355  0.4379
25423SOL    HW279675   0.176   5.593   7.078 -0.0444  1.5854  1.6312
25424SOL     OW79676   7.165   2.122   8.579 -0.0406 -0.3794 -0.3631
25424SOL    HW179677   7.122   2.070   8.512  1.2046 -2.3080  0.2822
25424SOL    HW279678   7.238   2.165   8.533  0.1227 -0.7976 -0.4988
25425SOL     OW79679   9.285   0.118   6.306  0.2661  0.0735 -0.6360
25425SOL    HW179680   9.356   0.110   6.242 -0.1210  0.1104 -1.0811
25425SOL    HW279681   9.295   0.205   6.343  1.4377 -0.5335  0.4933
25426SOL     OW79682   1.695  10.968   7.131  0.2621 -0.4131  1.0262
25426SOL    HW179683   1.706  10.940   7.222 -0.7319  0.2107  1.3411
25426SOL    HW279684   1.703  10.888   7.080  1.1292 -0.7244  1.6323
25427SOL     OW79685   2.353   1.611   9.574 -0.3222  0.4677  0.4893
25427SOL    HW179686   2.379   1.567   9.493 -0.2227 -0.2434  0.9029
25427SOL    HW279687   2.430   1.661   9.600 -0.0073 -0.1160  0.6876
25428SOL     OW79688   3.606   7.253  10.386 -0.1648  0.4504  0.2395
25428SOL    HW179689   3.676   7.242  10.450  0.1184  0.0379 -0.1409
25428SOL    HW279690   3.549   7.319  10.425  1.3749  2.1011 -0.2697
25429SOL     OW79691   9.153  10.670   5.088  0.5058  0.0856  0.0443
25429SOL    HW179692   9.239  10.670   5.045  0.2830  0.0555 -0.3991
25429SOL    HW279693   9.099  10.727   5.034  0.4403  0.6756  0.7211
25430SOL     OW79694   7.991   4.036   1.503  0.0626  0.1284  0.1109
25430SOL    HW179695   8.061   4.098   1.484  0.0747 -0.1611 -0.7844
25430SOL    HW279696   7.931   4.085   1.559  0.0685  0.9615 -0.5984
25431SOL     OW79697   3.177   0.336   1.077  0.3571 -0.6807  0.2979
25431SOL    HW179698   3.223   0.413   1.111 -1.9879  1.2768 -0.7984
25431SOL    HW279699   3.244   0.268   1.073  2.9592  1.8389 -0.4955
25432SOL     OW79700  10.278   7.577   9.348  0.7331 -0.1392 -0.1534
25432SOL    HW179701  10.280   7.489   9.384 -0.7004  0.4506  1.4810
25432SOL    HW279702  10.191   7.584   9.308  0.7047  0.6239  0.0306
25433SOL     OW79703   2.698   0.951   8.055  0.1266  0.0006  0.3107
25433SOL    HW179704   2.659   1.034   8.083 -0.5724  0.1123 -0.9502
25433SOL    HW279705   2.688   0.893   8.130 -2.0026  0.1942  0.2017
25434SOL     OW79706   0.518  10.890   4.959 -0.6948 -0.2637 -0.4049
25434SOL    HW179707   0.606  10.907   4.992 -0.9067  1.9215 -0.9392
25434SOL    HW279708   0.463  10.885   5.038 -0.3416 -0.2166 -0.1584
25435SOL     OW79709   3.468   1.998   2.225 -0.1512 -0.0081 -0.1706
25435SOL    HW179710   3.537   2.043   2.273 -1.4670  1.4203  0.4329
25435SOL    HW279711   3.449   2.057   2.151  0.2662 -1.0881 -1.1645
25436SOL     OW79712   5.952   6.479   5.754  0.5705 -0.7905 -0.4824
25436SOL    HW179713   5.962   6.423   5.831 -0.2424 -1.0905 -0.5865
25436SOL    HW279714   6.023   6.543   5.761 -0.4401  0.1957  1.3920
25437SOL     OW79715   1.989   1.910   4.070 -0.1773  0.1959 -0.1006
25437SOL    HW179716   1.947   1.995   4.083 -3.0544 -1.3111  0.8013
25437SOL    HW279717   2.014   1.882   4.158 -2.2932 -1.3790  0.0240
25438SOL     OW79718   8.327   8.540   7.584 -0.0424 -0.2583  0.4413
25438SOL    HW179719   8.240   8.544   7.625  1.2429 -2.2247  3.6023
25438SOL    HW279720   8.371   8.619   7.614 -0.2386 -0.0161  0.0894
25439SOL     OW79721   5.961  10.156   4.043  0.1796 -0.3709  0.3707
25439SOL    HW179722   5.939  10.070   4.008  1.7245 -0.6437  0.0534
25439SOL    HW279723   6.056  10.158   4.044  0.1616  0.3467  2.8288
25440SOL     OW79724   5.388   4.605   1.321 -0.2458  0.3903  0.0331
25440SOL    HW179725   5.377   4.562   1.236  0.6282 -0.7243  0.4640
25440SOL    HW279726   5.306   4.651   1.336 -0.6032  0.1521 -1.1790
25441SOL     OW79727   1.941   5.962   4.638 -0.6646  0.7703  0.3212
25441SOL    HW179728   1.929   5.887   4.696  0.4954  0.0992 -0.2865
25441SOL    HW279729   1.997   6.022   4.688 -1.5156  1.1881  0.7710
25442SOL     OW79730   6.848   2.171   7.609 -0.2895  0.1613 -0.4345
25442SOL    HW179731   6.818   2.080   7.606 -1.5842  0.5814 -0.7707
25442SOL    HW279732   6.769   2.221   7.626  0.5147  1.1886  0.3182
25443SOL     OW79733   8.495  10.839  10.846  0.0994 -0.0816  0.2581
25443SOL    HW179734   8.556  10.907  10.819  0.8791 -0.8850 -0.0330
25443SOL    HW279735   8.419  10.850  10.790 -0.3162  1.3627  1.0855
25444SOL     OW79736   8.929   5.723   7.863 -0.4479  0.0559 -0.3715
25444SOL    HW179737   8.882   5.764   7.791  0.5047  0.9481 -0.4954
25444SOL    HW279738   9.021   5.721   7.834  0.0082  0.8190  0.9838
25445SOL     OW79739   0.148   0.943   5.307  0.5752  0.2450  0.1947
25445SOL    HW179740   0.231   0.949   5.260  1.0011  0.3243  0.9481
25445SOL    HW279741   0.088   0.902   5.244  1.3216 -0.2941 -0.1812
25446SOL     OW79742   4.072  10.860   2.003 -0.0022 -0.0845 -0.3585
25446SOL    HW179743   4.052  10.926   2.069 -2.3114  0.3713 -1.4973
25446SOL    HW279744   4.162  10.880   1.976 -0.5986  2.4666 -0.5567
25447SOL     OW79745   7.870   3.087   3.909  0.1623  0.2272 -0.1781
25447SOL    HW179746   7.786   3.075   3.863  0.7009  1.4169 -1.5287
25447SOL    HW279747   7.855   3.052   3.997 -1.3441 -0.7846 -0.8268
25448SOL     OW79748  10.138   4.953   8.316 -0.1143 -0.3013  0.3531
25448SOL    HW179749  10.048   4.984   8.311  0.4738  1.4884  0.4780
25448SOL    HW279750  10.177   4.978   8.232  0.1983 -1.2923  0.1992
25449SOL     OW79751   8.369   3.396   1.782 -0.1604 -0.0756 -0.0377
25449SOL    HW179752   8.275   3.380   1.794 -0.5350 -0.2665 -2.7763
25449SOL    HW279753   8.396   3.442   1.861 -3.2630  2.7525 -0.5013
25450SOL     OW79754   4.341   5.667   8.705 -0.1838 -0.0067  0.2775
25450SOL    HW179755   4.415   5.720   8.733 -1.3250  1.4821  0.5347
25450SOL    HW279756   4.345   5.668   8.609 -0.2153  0.5752  0.2820
25451SOL     OW79757   0.809   3.094   9.506  0.5294  0.4324 -0.3184
25451SOL    HW179758   0.849   3.057   9.427 -0.8791 -0.0823 -0.8147
25451SOL    HW279759   0.792   3.185   9.483  1.8739  0.7934  0.0786
25452SOL     OW79760   9.960   8.348  10.137 -0.1956 -0.7104  0.2422
25452SOL    HW179761   9.994   8.437  10.151 -0.6607 -0.3690 -0.7925
25452SOL    HW279762   9.950   8.313  10.226  1.4677 -0.3032  0.6157
25453SOL     OW79763   1.943   1.597   6.005 -0.5504  0.0504 -0.6089
25453SOL    HW179764   1.859   1.637   5.985 -0.9705 -0.5672 -0.0827
25453SOL    HW279765   1.925   1.535   6.076 -0.0640 -1.6641 -1.9391
25454SOL     OW79766   4.155   7.553   3.831  0.1185  0.1563 -0.1581
25454SOL    HW179767   4.229   7.517   3.881  0.3529  0.0070 -0.6044
25454SOL    HW279768   4.157   7.647   3.849  0.8918  0.2702 -0.7634
25455SOL     OW79769   9.876   3.907   2.855 -0.2134  0.0404 -0.2704
25455SOL    HW179770   9.894   3.847   2.783 -1.5273 -2.5133  1.4482
25455SOL    HW279771   9.781   3.910   2.862 -0.1576  1.8282  0.1221
25456SOL     OW79772   4.107   7.019   1.797  0.2241 -0.1563 -0.1368
25456SOL    HW179773   4.135   6.953   1.733 -2.3127 -0.3306 -1.1285
25456SOL    HW279774   4.081   7.094   1.744  1.3273  0.9636  0.8929
25457SOL     OW79775   1.061   6.585   4.753 -0.3464  0.2050  0.4318
25457SOL    HW179776   1.081   6.501   4.795  1.4631 -0.3566 -1.4958
25457SOL    HW279777   1.000   6.562   4.683  0.4924  0.4403 -0.3746
25458SOL     OW79778   2.825   4.545   7.570 -0.6013 -0.4121  0.2526
25458SOL    HW179779   2.852   4.494   7.494  1.2642  0.7658  0.0987
25458SOL    HW279780   2.843   4.487   7.645 -0.4463 -0.7567 -0.0495
25459SOL     OW79781   8.124   6.109   7.128 -0.1621  1.1832 -0.4282
25459SOL    HW179782   8.127   6.064   7.213 -1.6042 -0.5460 -1.2412
25459SOL    HW279783   8.131   6.202   7.150  2.2884  0.6357  1.3552
25460SOL     OW79784   7.376   8.832  10.887  0.2352  0.0883  0.1536
25460SOL    HW179785   7.344   8.769  10.823  1.2889 -1.3251  0.9744
25460SOL    HW279786   7.298   8.854  10.940  0.4079 -2.8282  1.7343
25461SOL     OW79787   5.783   8.483   7.660 -0.4749  0.0086  0.1781
25461SOL    HW179788   5.818   8.432   7.733  0.1464 -1.5234 -1.1815
25461SOL    HW279789   5.699   8.516   7.692 -0.4643 -1.1074  1.3969
25462SOL     OW79790   0.378   4.179   7.907  0.1855  0.0280  0.1622
25462SOL    HW179791   0.408   4.097   7.947 -1.6377  0.7495  3.1730
25462SOL    HW279792   0.434   4.246   7.944 -1.2940  0.6668  1.3060
25463SOL     OW79793   7.196   9.831   7.724  0.2651  0.6305  0.6387
25463SOL    HW179794   7.245   9.913   7.716  1.7163 -0.1343  1.4793
25463SOL    HW279795   7.118   9.854   7.774  0.6174  1.5148  0.7879
25464SOL     OW79796  10.444   2.303   0.999 -0.0645  0.3946  0.8076
25464SOL    HW179797  10.531   2.323   0.964 -0.4219  2.2086  0.8738
25464SOL    HW279798  10.391   2.287   0.921 -0.0047  0.7573  0.6891
25465SOL     OW79799  10.188   3.783   0.867  0.3084  0.3082 -0.8557
25465SOL    HW179800  10.093   3.778   0.862  0.2111 -0.2792  1.1388
25465SOL    HW279801  10.206   3.869   0.905  0.4508 -0.6119  1.2134
25466SOL     OW79802   1.061   7.164   5.892 -0.3464 -0.7771  0.4856
25466SOL    HW179803   0.980   7.138   5.849 -0.0089 -1.6839  0.3854
25466SOL    HW279804   1.034   7.227   5.958 -1.0933 -0.8300  0.2340
25467SOL     OW79805  10.901  10.586   5.113  0.4011  0.0181  0.0078
25467SOL    HW179806  10.806  10.586   5.124  0.5058 -0.0257  0.9934
25467SOL    HW279807  10.925  10.678   5.111  0.1566  0.0578 -2.0381
25468SOL     OW79808   9.618   3.606   1.669  0.3068 -0.2806  0.0093
25468SOL    HW179809   9.541   3.549   1.662  0.5334 -0.3108 -2.8645
25468SOL    HW279810   9.583   3.692   1.691 -0.6151 -0.1761 -1.7987
25469SOL     OW79811   8.916  10.416   3.759 -0.3380  0.0237 -0.3967
25469SOL    HW179812   8.919  10.374   3.674  0.6825 -1.0673  0.1598
25469SOL    HW279813   8.924  10.344   3.822  2.6884  1.1283  0.5614
25470SOL     OW79814   3.427   8.521   2.927 -0.0932 -0.3864  0.5184
25470SOL    HW179815   3.374   8.452   2.968 -1.9943  1.1206  0.6459
25470SOL    HW279816   3.442   8.584   2.998  1.2933 -0.4649  0.2941
25471SOL     OW79817   4.761   8.790   5.200  0.4004 -0.0464  0.1772
25471SOL    HW179818   4.684   8.760   5.249 -0.5987  0.5643 -0.9814
25471SOL    HW279819   4.776   8.723   5.134 -0.5223  0.9047 -1.0306
25472SOL     OW79820   0.988   0.675   4.517  0.2447  0.1890  0.2859
25472SOL    HW179821   0.901   0.690   4.553  0.1456  0.0491  0.1043
25472SOL    HW279822   0.983   0.708   4.427  1.3381  3.2902  1.2863
25473SOL     OW79823   4.964   3.902   2.521  0.0375 -0.8345  0.0931
25473SOL    HW179824   4.907   3.837   2.561  0.1354 -1.0041 -0.0460
25473SOL    HW279825   4.906   3.952   2.463 -0.1206 -0.5355  0.5040
25474SOL     OW79826   1.442   6.274   4.758 -0.5837 -0.1620 -0.1663
25474SOL    HW179827   1.430   6.270   4.663 -1.8662 -0.2879 -0.0018
25474SOL    HW279828   1.513   6.213   4.776 -1.9972 -2.0008 -0.7653
25475SOL     OW79829   1.293   7.066   6.029 -0.1233  0.5996  0.1081
25475SOL    HW179830   1.369   7.123   6.046 -0.4725  0.7900  1.1019
25475SOL    HW279831   1.228   7.124   5.990  0.0159  0.5769 -0.1572
25476SOL     OW79832   8.322  10.800   3.633 -0.6783  0.0624 -0.0822
25476SOL    HW179833   8.265  10.769   3.562  0.8617  0.5263 -1.5575
25476SOL    HW279834   8.328  10.894   3.619 -0.5831  0.1971  0.8462
25477SOL     OW79835   7.984   1.018   5.533 -0.1085  0.0409  0.1213
25477SOL    HW179836   7.930   0.987   5.606  0.0404  0.3206  0.3531
25477SOL    HW279837   7.938   0.988   5.454 -0.0556 -0.6090  0.3366
25478SOL     OW79838   8.995   6.760   5.760 -0.0789 -0.0718 -0.2574
25478SOL    HW179839   8.923   6.698   5.751  0.6658 -1.0165  0.2745
25478SOL    HW279840   8.955   6.846   5.745 -1.4003 -0.5543  0.4742
25479SOL     OW79841   1.431   0.920   5.066  0.0158  0.1576  0.0915
25479SOL    HW179842   1.443   1.009   5.100  1.5462 -0.3614  0.9296
25479SOL    HW279843   1.485   0.917   4.987 -1.2668  0.4411 -0.8301
25480SOL     OW79844   1.076   3.599   8.438  0.1528  0.1352 -0.2339
25480SOL    HW179845   1.002   3.607   8.378 -0.4578 -0.1747  0.4650
25480SOL    HW279846   1.043   3.634   8.521 -0.0746 -2.3862  0.7970
25481SOL     OW79847   4.289   5.107  10.036 -0.5014 -0.1641  0.4504
25481SOL    HW179848   4.366   5.051  10.041 -1.7467 -1.8755  1.2604
25481SOL    HW279849   4.320   5.194  10.061  1.2990 -0.6600 -0.0053
25482SOL     OW79850  10.594   9.456   3.076  0.3261  0.3345 -0.3307
25482SOL    HW179851  10.663   9.508   3.035 -0.7951  2.1268  0.0202
25482SOL    HW279852  10.530   9.520   3.105 -1.5700 -1.3278 -0.7699
25483SOL     OW79853   1.626   4.490  10.865 -0.7613  0.4190 -0.0027
25483SOL    HW179854   1.690   4.497  10.936 -1.7703 -0.3586  1.0110
25483SOL    HW279855   1.629   4.398  10.839 -2.2061  0.1206  0.7873
25484SOL     OW79856   4.772   9.905   4.904 -0.0938  0.4312 -0.3741
25484SOL    HW179857   4.805   9.920   4.993  0.7306 -1.1440 -0.3971
25484SOL    HW279858   4.739   9.991   4.876  1.5021  1.4340  0.6854
25485SOL     OW79859   8.220   3.281   0.456 -0.7414 -0.0665  0.4729
25485SOL    HW179860   8.157   3.214   0.428 -0.2659 -0.5139  0.4640
25485SOL    HW279861   8.291   3.231   0.498 -1.4758  0.5900  2.5618
25486SOL     OW79862   2.987   0.541   6.936  0.3615 -0.5418  0.5835
25486SOL    HW179863   2.946   0.492   6.864 -0.2406  1.2969 -0.3689
25486SOL    HW279864   2.916   0.554   6.999 -0.6419  2.7012 -1.0964
25487SOL     OW79865   5.731   5.247   5.513 -0.1605 -0.7873 -0.3422
25487SOL    HW179866   5.809   5.270   5.463  0.0260  0.1677  0.3744
25487SOL    HW279867   5.723   5.316   5.579 -0.3391 -2.0624  1.0112
25488SOL     OW79868   6.822   7.692   1.219  0.2229  0.0091 -0.1337
25488SOL    HW179869   6.735   7.653   1.207  1.0167 -1.3195 -1.8393
25488SOL    HW279870   6.820   7.771   1.165 -0.1178  0.2940  0.2930
25489SOL     OW79871   6.758   7.777   3.550 -0.2559 -0.1498  0.3789
25489SOL    HW179872   6.778   7.684   3.540  0.5666 -0.0569  1.0972
25489SOL    HW279873   6.662   7.781   3.551 -0.3330 -0.7888 -1.4039
25490SOL     OW79874   0.604   7.973   0.749  0.0798 -0.0538  0.1566
25490SOL    HW179875   0.595   8.048   0.690 -1.3159  1.1671  1.8521
25490SOL    HW279876   0.594   7.897   0.693  0.5473  1.0430 -1.4471
25491SOL     OW79877   7.685   6.619   9.372 -0.3167 -0.5748  0.5264
25491SOL    HW179878   7.709   6.569   9.293  0.4309 -0.3770  0.6203
25491SOL    HW279879   7.764   6.670   9.392 -1.0217  0.5345  0.5147
25492SOL     OW79880   5.197   8.858   3.169 -1.0970 -0.0502  0.1191
25492SOL    HW179881   5.136   8.814   3.228 -1.8257  1.7758  0.7728
25492SOL    HW279882   5.280   8.858   3.215 -0.9371 -1.2482 -0.1459
25493SOL     OW79883   6.663   5.698   2.786  0.4550 -0.6495  0.4526
25493SOL    HW179884   6.686   5.607   2.765  1.8678 -0.4279  0.9481
25493SOL    HW279885   6.747   5.739   2.806 -0.4178  0.2085  2.4200
25494SOL     OW79886   2.889   8.159   3.754 -0.6207  0.0561  0.1391
25494SOL    HW179887   2.862   8.195   3.669 -0.1322 -0.0180 -0.0509
25494SOL    HW279888   2.820   8.097   3.777  0.5932 -1.9813 -1.5274
25495SOL     OW79889   0.878   1.352   5.537  0.4545  0.2154 -0.6198
25495SOL    HW179890   0.961   1.393   5.515 -0.2010  0.8894 -1.8662
25495SOL    HW279891   0.898   1.258   5.541  1.3960  0.4253 -0.3328
25496SOL     OW79892   4.639   6.511   4.300 -0.0873  0.0535 -0.1773
25496SOL    HW179893   4.615   6.419   4.300  0.4038 -0.0816  1.0742
25496SOL    HW279894   4.628   6.539   4.391 -1.5325  1.5733 -0.7815
25497SOL     OW79895   3.809   3.752   2.226  0.1938 -0.1872  0.8131
25497SOL    HW179896   3.761   3.806   2.163 -1.4386  0.0861  2.2467
25497SOL    HW279897   3.810   3.664   2.187  1.6717  0.5634 -0.8864
25498SOL     OW79898   0.928   4.519   3.318 -0.0134  0.6663  0.2311
25498SOL    HW179899   0.994   4.461   3.356  0.1772 -0.1426 -1.3420
25498SOL    HW279900   0.861   4.461   3.282  0.1403  1.3956 -1.2812
25499SOL     OW79901   4.166   3.757   0.109  0.0740 -0.2034 -0.5072
25499SOL    HW179902   4.172   3.816   0.184  0.8261  0.2475 -0.9089
25499SOL    HW279903   4.193   3.812   0.034 -0.5451 -0.6772 -1.0789
25500SOL     OW79904   1.827   9.681   7.600  0.7356 -0.2386  0.4080
25500SOL    HW179905   1.770   9.689   7.676  1.8379 -1.0294  1.3425
25500SOL    HW279906   1.777   9.629   7.537 -0.5544  1.2138  0.1977
25501SOL     OW79907  10.183   4.632   5.622  0.1260 -0.4930 -0.2753
25501SOL    HW179908  10.209   4.549   5.663  0.5029 -0.7573 -1.0476
25501SOL    HW279909  10.103   4.612   5.574 -0.2487 -0.2081  0.2149
25502SOL     OW79910   8.732   3.760   0.520  0.1961  0.1999  0.1119
25502SOL    HW179911   8.802   3.713   0.565  1.7915  2.0879 -0.3170
25502SOL    HW279912   8.769   3.782   0.434 -0.8967  1.2791 -0.1013
25503SOL     OW79913   0.546   7.545   7.957  0.1281  0.3358  0.4295
25503SOL    HW179914   0.596   7.500   8.026 -0.3450  0.6832  1.0110
25503SOL    HW279915   0.538   7.635   7.990  0.9522  0.8211 -0.6501
25504SOL     OW79916   7.210   0.031   3.695 -0.0237 -0.4416 -0.1347
25504SOL    HW179917   7.167   0.105   3.654  0.6740  0.8230  1.3766
25504SOL    HW279918   7.159  -0.045   3.667 -0.6998  0.5803 -1.7512
25505SOL     OW79919   1.054   7.397  10.570 -0.9784  0.6347  0.1505
25505SOL    HW179920   1.141   7.359  10.558 -1.5062 -0.3400 -0.7096
25505SOL    HW279921   1.005   7.329  10.615 -1.7883  0.4774 -0.9428
25506SOL     OW79922   2.374   4.141   2.062  0.4323  0.7833  0.1921
25506SOL    HW179923   2.463   4.173   2.075  0.1918  1.1912  0.8386
25506SOL    HW279924   2.345   4.115   2.149  1.1364 -2.5749 -0.4989
25507SOL     OW79925   5.686   6.039   5.690 -0.2905  0.3073 -0.1080
25507SOL    HW179926   5.771   6.027   5.732  0.6173  1.8947 -1.4284
25507SOL    HW279927   5.623   6.003   5.752  1.3895 -1.4580  0.6167
25508SOL     OW79928   5.987   3.858   0.453 -0.6255  0.0344  0.3827
25508SOL    HW179929   6.054   3.792   0.435 -0.0131  0.5026  0.9420
25508SOL    HW279930   6.033   3.942   0.445 -1.6735  0.4710 -1.5698
25509SOL     OW79931   2.422   1.836   0.688 -0.4869 -0.2631  0.3298
25509SOL    HW179932   2.500   1.891   0.678 -0.7692 -0.1368 -1.2942
25509SOL    HW279933   2.451   1.748   0.662  0.0764 -1.0161  3.3307
25510SOL     OW79934   4.114   3.896   1.603  0.5356 -0.0780 -0.0960
25510SOL    HW179935   4.176   3.914   1.674  1.4379 -1.7742 -0.4279
25510SOL    HW279936   4.115   3.976   1.550  1.5620  0.3563  0.5469
25511SOL     OW79937  10.580   1.774   8.413 -0.5673 -0.1210 -0.0755
25511SOL    HW179938  10.539   1.834   8.476 -0.4603  0.6677 -0.7401
25511SOL    HW279939  10.664   1.752   8.453 -0.2129  0.9003 -0.2381
25512SOL     OW79940   3.614   2.540   7.909 -0.2094 -0.5738  0.0393
25512SOL    HW179941   3.659   2.623   7.925 -1.0495 -0.0910 -0.0613
25512SOL    HW279942   3.596   2.540   7.815 -0.0216 -0.9716 -0.0001
25513SOL     OW79943   3.525   0.219  10.495  0.3863  0.3699  0.4808
25513SOL    HW179944   3.610   0.226  10.538  0.3295  0.5790  0.5608
25513SOL    HW279945   3.543   0.173  10.412  0.3715 -0.7471  1.0838
25514SOL     OW79946   6.671   7.967   4.899  0.2873  0.0394  0.3028
25514SOL    HW179947   6.579   7.945   4.883  0.1993 -0.3287  1.2835
25514SOL    HW279948   6.669   8.055   4.936  0.3653  0.2262 -0.1366
25515SOL     OW79949   9.153   5.844   3.991 -0.1649  0.2257  0.4504
25515SOL    HW179950   9.075   5.796   3.961  0.3498  0.6559 -1.6670
25515SOL    HW279951   9.227   5.790   3.962  0.3533  0.5151  1.2245
25516SOL     OW79952   1.046   7.933   8.543  0.1475 -0.0239 -0.1865
25516SOL    HW179953   1.066   8.026   8.547  1.0706 -0.2147 -0.1913
25516SOL    HW279954   1.132   7.890   8.542 -0.2745 -0.8965  0.4018
25517SOL     OW79955   7.977   6.694   1.450  0.5505  0.0005  0.0690
25517SOL    HW179956   7.941   6.783   1.441  0.5603 -0.1487 -1.6138
25517SOL    HW279957   7.938   6.645   1.378  2.1732 -0.8231 -0.2568
25518SOL     OW79958   4.120   1.761  10.628 -0.7354  0.1291 -0.5341
25518SOL    HW179959   4.159   1.676  10.612 -2.8928 -1.1023  0.5352
25518SOL    HW279960   4.067   1.749  10.707 -1.0626  2.4556 -0.3491
25519SOL     OW79961   6.723   4.255   1.072 -0.5879  0.2932 -0.3589
25519SOL    HW179962   6.657   4.186   1.075  0.4917 -0.7339  0.3644
25519SOL    HW279963   6.762   4.247   0.985 -0.7307  0.2458 -0.4189
25520SOL     OW79964  10.939   2.220   6.074  0.6996  0.4431  0.4453
25520SOL    HW179965  11.025   2.194   6.041  0.2091 -1.4440  0.6260
25520SOL    HW279966  10.912   2.149   6.131 -2.0209 -0.1480 -1.4573
25521SOL     OW79967   7.213   1.128   4.134  0.2989  0.2797 -0.9238
25521SOL    HW179968   7.303   1.150   4.111  0.5166 -0.5035 -0.8502
25521SOL    HW279969   7.185   1.065   4.067 -0.2267  0.5946 -1.0058
25522SOL     OW79970   1.032  10.507   4.225 -0.1405  0.2978  0.3001
25522SOL    HW179971   1.020  10.550   4.140 -0.2519 -1.6316 -0.6753
25522SOL    HW279972   1.124  10.525   4.247  0.4597 -0.8338 -1.1725
25523SOL     OW79973   0.640   0.314   5.357 -0.2870  0.0512 -0.3656
25523SOL    HW179974   0.731   0.333   5.376 -0.9010  0.3762  2.4433
25523SOL    HW279975   0.621   0.234   5.405 -1.9078  0.8884  0.4520
25524SOL     OW79976  10.148   5.797   1.865 -0.6538 -0.1541  0.3489
25524SOL    HW179977  10.148   5.877   1.812  1.3970 -1.4707 -1.7096
25524SOL    HW279978  10.067   5.752   1.841 -0.1610 -0.3187 -1.0241
25525SOL     OW79979   1.357   6.934   3.148 -0.2364 -0.4751 -0.4247
25525SOL    HW179980   1.432   6.976   3.190  0.5791  1.9327 -4.1100
25525SOL    HW279981   1.281   6.974   3.189  0.5379  1.3271 -0.7033
25526SOL     OW79982   6.203  10.827   4.947  0.8597  0.7965 -0.3314
25526SOL    HW179983   6.198  10.829   5.043  0.6631  0.8190 -0.3419
25526SOL    HW279984   6.287  10.784   4.929 -0.1923 -1.3979 -0.1612
25527SOL     OW79985   9.781   9.054   7.863 -0.3893  0.3810 -0.0693
25527SOL    HW179986   9.821   8.974   7.828 -3.3494 -0.4347 -1.7485
25527SOL    HW279987   9.851   9.120   7.857  1.4886 -1.5858 -0.4849
25528SOL     OW79988  10.801   8.433   8.948 -0.1962  0.0161 -0.2349
25528SOL    HW179989  10.773   8.525   8.945  0.9135  0.4093  0.9714
25528SOL    HW279990  10.887   8.436   8.990 -0.2445 -1.5967 -0.0089
25529SOL     OW79991   1.331   0.209  10.615  0.2255  0.2888  0.4047
25529SOL    HW179992   1.298   0.171  10.534 -0.3580  2.1973 -0.2782
25529SOL    HW279993   1.391   0.144  10.649  1.4732 -0.0040 -2.2391
25530SOL     OW79994   6.949   5.054   9.168 -0.0963  0.0500  0.5847
25530SOL    HW179995   7.001   5.119   9.120  0.1571 -0.7430 -0.2378
25530SOL    HW279996   6.988   4.970   9.145 -1.2852 -0.5057  0.5272
25531SOL     OW79997  10.090   0.913   6.169 -0.0279 -0.0078  0.4820
25531SOL    HW179998  10.175   0.875   6.190 -0.5275  0.8450  4.4923
25531SOL    HW279999  10.111   1.001   6.137  0.7074 -0.5022 -0.3945
25532SOL     OW80000   7.069   7.962   3.362  0.4181  0.5675  0.6391
25532SOL    HW180001   7.096   8.035   3.307  0.0940  0.4371  0.3003
25532SOL    HW280002   7.131   7.892   3.341 -1.2156 -0.3211 -1.4628
25533SOL     OW80003   0.850   1.110   5.232  0.5578 -0.7086  0.1925
25533SOL    HW180004   0.876   1.086   5.143  0.5736 -0.5560  0.1547
25533SOL    HW280005   0.914   1.176   5.258  0.9980 -1.2955  0.5989
25534SOL     OW80006   8.939   3.935   1.134  0.2374 -0.1820 -0.2002
25534SOL    HW180007   8.983   4.000   1.188 -1.9430  0.5487  0.7571
25534SOL    HW280008   9.010   3.889   1.090  1.8483  2.6453 -0.6868
25535SOL     OW80009   9.606   6.635   9.396  0.2653  0.4207 -0.4177
25535SOL    HW180010   9.559   6.683   9.465  1.4150  0.3288  0.4451
25535SOL    HW280011   9.539   6.615   9.331 -0.5368  1.8353 -0.0376
25536SOL     OW80012   5.233   4.281   9.492 -0.2026 -0.2077  0.0525
25536SOL    HW180013   5.183   4.295   9.411  2.0624 -2.6320 -1.8629
25536SOL    HW280014   5.324   4.289   9.466  0.5572  0.4377  2.7198
25537SOL     OW80015   0.289   3.024   1.259 -0.3695  0.1984  0.8181
25537SOL    HW180016   0.364   3.080   1.237  0.6248 -1.6846 -0.7226
25537SOL    HW280017   0.245   3.010   1.176 -1.9731  0.5971  1.5925
25538SOL     OW80018   3.439   2.695   5.994  0.4051 -0.1408 -0.9763
25538SOL    HW180019   3.535   2.703   5.995  0.4039 -0.1559 -0.7819
25538SOL    HW280020   3.412   2.748   5.918  0.3273  2.8275  1.0088
25539SOL     OW80021   5.358   4.474   5.237 -0.3920 -0.3170 -0.1282
25539SOL    HW180022   5.296   4.413   5.276  0.7465 -1.3905  0.0523
25539SOL    HW280023   5.352   4.553   5.290 -0.7743 -0.8240  0.5876
25540SOL     OW80024   0.319   0.718   6.941 -0.8802  0.0418  0.3552
25540SOL    HW180025   0.248   0.746   6.999 -1.4943 -2.3279  0.7932
25540SOL    HW280026   0.306   0.768   6.861 -2.3843  0.4499  0.8353
25541SOL     OW80027   8.181   4.838   6.759 -0.1525 -0.4706  0.1642
25541SOL    HW180028   8.236   4.774   6.803  0.2297 -2.1453 -2.5971
25541SOL    HW280029   8.097   4.834   6.804  0.5694 -1.2741  1.4423
25542SOL     OW80030   9.680   5.303   1.770 -0.0881  0.3285  0.1163
25542SOL    HW180031   9.671   5.231   1.707 -1.5083 -0.3380  1.0250
25542SOL    HW280032   9.655   5.263   1.854  3.6027  0.6876  1.4516
25543SOL     OW80033   6.726   5.699   3.723  0.3145 -0.3218 -0.1087
25543SOL    HW180034   6.737   5.671   3.814 -0.8258 -0.7232 -0.0736
25543SOL    HW280035   6.676   5.781   3.729  0.5424 -0.1668 -0.3550
25544SOL     OW80036   4.713   2.680   0.778 -0.2657 -0.1439  0.1436
25544SOL    HW180037   4.775   2.610   0.756 -0.9623 -0.8919  0.5562
25544SOL    HW280038   4.696   2.668   0.871 -2.5857 -1.1974 -0.3822
25545SOL     OW80039  10.480   5.520   3.963 -0.9480  0.0356  0.2783
25545SOL    HW180040  10.399   5.515   3.912 -2.2930  0.9451  2.2523
25545SOL    HW280041  10.457   5.574   4.038  0.5874 -2.3202  2.5144
25546SOL     OW80042   9.433   0.411   4.545  0.4224  0.0122 -0.1942
25546SOL    HW180043   9.464   0.339   4.599 -0.9390 -0.0136  0.5552
25546SOL    HW280044   9.420   0.372   4.458  0.7736 -0.3713 -0.0783
25547SOL     OW80045   9.288   9.907   9.668 -0.2089 -0.0405  0.2322
25547SOL    HW180046   9.365   9.850   9.666 -1.2731 -1.4848 -3.1548
25547SOL    HW280047   9.323   9.995   9.653  0.8163 -0.6099 -0.7425
25548SOL     OW80048   9.587   3.235   0.131 -0.3557  0.4161 -0.6064
25548SOL    HW180049   9.666   3.265   0.175 -0.4711  0.6865 -0.5813
25548SOL    HW280050   9.617   3.195   0.050 -0.2600  1.2620 -0.9893
25549SOL     OW80051   7.961   5.871   7.141  0.6204 -0.1998 -0.1845
25549SOL    HW180052   8.006   5.870   7.056  0.1404 -2.6547 -0.4505
25549SOL    HW280053   7.900   5.944   7.135 -0.5034 -1.2902 -2.5625
25550SOL     OW80054   7.543   1.640   9.481  0.5507 -0.2434  0.5771
25550SOL    HW180055   7.494   1.659   9.401  0.2815 -0.6043  0.6572
25550SOL    HW280056   7.595   1.719   9.496  1.4672 -0.6123 -0.5903
25551SOL     OW80057   0.022   5.734   1.662 -0.2122 -0.0401 -0.3399
25551SOL    HW180058   0.082   5.785   1.716  0.5827  1.1455 -2.2940
25551SOL    HW280059  -0.043   5.797   1.632 -1.4369 -0.9661  0.3103
25552SOL     OW80060   2.144   6.649   2.949  0.5989 -0.1043  0.0144
25552SOL    HW180061   2.080   6.588   2.986 -0.2855  0.0983 -1.1669
25552SOL    HW280062   2.102   6.685   2.871  1.7609  0.7846 -0.2284
25553SOL     OW80063   5.041  10.014  10.638  0.4262 -0.5331 -0.2538
25553SOL    HW180064   5.016  10.002  10.730  0.0317  0.1333 -0.2694
25553SOL    HW280065   4.981   9.957  10.589 -1.0080  0.9738 -0.2801
25554SOL     OW80066   6.104  10.457   0.496 -0.2834  0.1377  0.2676
25554SOL    HW180067   6.157  10.424   0.423 -0.9259  0.1478 -0.2067
25554SOL    HW280068   6.166  10.507   0.549  0.2005  0.1068 -0.2596
25555SOL     OW80069   1.079   7.865  10.413 -0.1147 -0.2173 -0.0962
25555SOL    HW180070   1.049   7.860  10.322  0.3130 -3.0456 -0.1386
25555SOL    HW280071   1.030   7.797  10.458  1.3951 -0.4364  1.2734
25556SOL     OW80072   1.414  10.180   7.880  0.1047  0.1984  0.2639
25556SOL    HW180073   1.402  10.090   7.908  1.5186  0.3448  1.3885
25556SOL    HW280074   1.426  10.230   7.961  2.8616  0.8351 -0.4918
25557SOL     OW80075   8.240   0.115   6.395  0.5289  0.1243  0.0843
25557SOL    HW180076   8.217   0.027   6.364  1.0982  0.3981 -1.1449
25557SOL    HW280077   8.170   0.137   6.456 -0.2552 -0.7152 -0.4828
25558SOL     OW80078   9.010   9.189   0.924  0.4583 -0.3074  0.0923
25558SOL    HW180079   8.994   9.129   0.850 -0.5043 -0.6265  0.5386
25558SOL    HW280080   9.058   9.262   0.886  0.4273 -0.7160 -0.7524
25559SOL     OW80081   4.282   3.220   6.119 -0.2839  0.1391 -0.0392
25559SOL    HW180082   4.276   3.169   6.038 -0.5104 -0.4966  0.3740
25559SOL    HW280083   4.195   3.214   6.158  0.0123 -0.1241  0.5926
25560SOL     OW80084   2.968   9.944  10.818  0.4842 -0.1842 -0.8633
25560SOL    HW180085   2.938   9.930  10.908 -0.0702  0.8483 -0.8881
25560SOL    HW280086   2.891   9.925  10.764  0.4212  0.5627 -1.0371
25561SOL     OW80087   2.191   2.563   5.505 -0.3187  0.6118  0.3353
25561SOL    HW180088   2.198   2.511   5.425 -1.6069 -0.0782  0.6494
25561SOL    HW280089   2.174   2.499   5.574 -3.8109  1.5310  0.4458
25562SOL     OW80090   9.782   1.177   3.321 -0.2930  0.5002  0.0653
25562SOL    HW180091   9.871   1.197   3.292 -0.4183 -0.4850 -1.0438
25562SOL    HW280092   9.794   1.120   3.397  0.0349  0.4324 -0.0340
25563SOL     OW80093   7.722   5.324   8.103 -0.4581 -0.5158 -0.2224
25563SOL    HW180094   7.759   5.389   8.044 -0.5941 -1.4696 -1.3932
25563SOL    HW280095   7.783   5.320   8.176 -0.4873  0.9638 -0.1049
25564SOL     OW80096   4.820   9.172   3.132 -0.2675 -0.0773  0.0088
25564SOL    HW180097   4.780   9.116   3.199 -3.2640  0.7097 -1.0267
25564SOL    HW280098   4.907   9.192   3.166 -1.2177 -0.8126  3.0064
25565SOL     OW80099   2.638   6.606   4.701 -0.2458 -0.4246  0.2687
25565SOL    HW180100   2.642   6.699   4.682 -1.9523 -0.4312 -0.2145
25565SOL    HW280101   2.710   6.590   4.761  0.8095  0.9691 -0.6144
25566SOL     OW80102   7.699   6.920   2.651  0.0396 -0.9592  0.1635
25566SOL    HW180103   7.768   6.912   2.717 -0.3436  1.5561  0.9324
25566SOL    HW280104   7.618   6.899   2.697 -0.2951  1.3575  0.6926
25567SOL     OW80105   6.312   5.113   2.297  0.4669  0.5982 -0.1761
25567SOL    HW180106   6.312   5.020   2.319  1.0276  0.3428 -1.2253
25567SOL    HW280107   6.265   5.118   2.213  0.2249  1.2897 -0.0012
25568SOL     OW80108   9.260   8.059   4.907 -0.2535  0.4099  0.0563
25568SOL    HW180109   9.211   7.998   4.962  0.9017 -1.5565 -1.0488
25568SOL    HW280110   9.192   8.106   4.858 -1.0893 -1.1610 -0.3108
25569SOL     OW80111   9.216   2.101   0.096  0.2635 -0.0944 -0.1859
25569SOL    HW180112   9.129   2.083   0.132  0.8726  1.6083  2.2915
25569SOL    HW280113   9.202   2.171   0.032 -0.7635 -2.8008 -3.0424
25570SOL     OW80114   7.166   1.849   6.933  0.1219  0.5451  0.2294
25570SOL    HW180115   7.108   1.914   6.972 -1.0298 -0.5423  0.3986
25570SOL    HW280116   7.112   1.806   6.867  0.7171 -0.5113  0.4179
25571SOL     OW80117   7.211   6.414   9.708 -0.1887 -0.0731  0.4330
25571SOL    HW180118   7.222   6.481   9.776  1.4135  0.9013 -0.7535
25571SOL    HW280119   7.301   6.387   9.686 -0.7116 -0.7270 -0.9454
25572SOL     OW80120   7.784   7.252  10.336 -0.2246  0.1185 -0.1726
25572SOL    HW180121   7.753   7.218  10.420  0.4651  2.3549  1.0299
25572SOL    HW280122   7.709   7.243  10.277 -1.1985 -0.1158  1.0795
25573SOL     OW80123   6.906   4.129   9.314 -0.7756 -0.3076  0.3161
25573SOL    HW180124   6.991   4.125   9.271 -0.3024  1.3826  1.0551
25573SOL    HW280125   6.903   4.050   9.368  0.5502 -0.0990  0.7090
25574SOL     OW80126   3.297   6.363   5.341  0.0068  0.0728 -0.1125
25574SOL    HW180127   3.355   6.387   5.269 -0.9535 -1.2364 -1.3494
25574SOL    HW280128   3.302   6.437   5.402  1.6797  0.6980 -0.9845
25575SOL     OW80129   1.937   3.437   8.424 -0.0781 -0.3496 -0.3793
25575SOL    HW180130   1.860   3.380   8.426 -1.6138  1.5432 -2.5416
25575SOL    HW280131   1.978   3.418   8.339  0.8273 -0.0549 -0.0085
25576SOL     OW80132   7.699   5.956   6.602  0.0085 -0.3470  0.5879
25576SOL    HW180133   7.628   5.938   6.540  1.0272  0.8250 -0.9596
25576SOL    HW280134   7.690   5.889   6.670 -2.7814 -0.0021  0.6094
25577SOL     OW80135  10.430   4.647  10.611  0.0054  0.3043 -0.5568
25577SOL    HW180136  10.450   4.740  10.622  0.6656 -0.0019  0.8643
25577SOL    HW280137  10.393   4.641  10.523  0.8090  1.7745 -1.0136
25578SOL     OW80138   2.036   3.310   3.499 -0.2987 -0.0436  0.6890
25578SOL    HW180139   2.063   3.321   3.408 -1.3672 -1.5259  0.1746
25578SOL    HW280140   1.963   3.371   3.510 -0.7501 -0.5064  0.2858
25579SOL     OW80141  10.224   2.789   0.049  0.0608  0.7662 -0.3987
25579SOL    HW180142  10.302   2.841   0.069  0.5150  0.6866 -1.8962
25579SOL    HW280143  10.197   2.819  -0.038  0.4651 -1.6443 -1.3937
25580SOL     OW80144   9.185   4.818   4.110 -0.0006 -0.2722 -0.0766
25580SOL    HW180145   9.109   4.841   4.056  0.2479  0.7050 -0.0189
25580SOL    HW280146   9.156   4.833   4.200  0.1799 -0.1220 -0.0422
25581SOL     OW80147   9.232   6.920   7.189  0.1982  0.2861  0.5947
25581SOL    HW180148   9.299   6.900   7.255  0.5087  0.3875  0.3079
25581SOL    HW280149   9.277   6.911   7.105  0.4700  2.6657  0.4672
25582SOL     OW80150   2.717  10.445   5.087 -0.3258 -0.4838  0.1637
25582SOL    HW180151   2.736  10.530   5.047  0.3960 -0.1362  1.2478
25582SOL    HW280152   2.675  10.465   5.170 -0.5315 -1.2011  0.2404
25583SOL     OW80153  10.381   3.591   7.667  0.3344  0.1933 -0.5663
25583SOL    HW180154  10.319   3.527   7.704 -0.4296  1.4016  0.2840
25583SOL    HW280155  10.425   3.628   7.743  1.9421 -0.4534 -1.1561
25584SOL     OW80156   2.367   3.655   4.137  0.3896  0.2780  0.2435
25584SOL    HW180157   2.422   3.639   4.060  2.6772 -0.2184  1.9170
25584SOL    HW280158   2.370   3.573   4.186 -0.3336  0.8694  1.2897
25585SOL     OW80159   3.059   2.662  10.678  0.0160  0.0665  0.0756
25585SOL    HW180160   3.130   2.608  10.644  0.4416  0.3575  0.5064
25585SOL    HW280161   3.095   2.751  10.681 -0.6634  0.3732 -0.5871
25586SOL     OW80162   0.689   2.904   6.564 -0.2378 -0.1985 -0.1775
25586SOL    HW180163   0.686   2.819   6.608 -1.5716 -0.4663 -0.7654
25586SOL    HW280164   0.647   2.889   6.479  0.2275  0.8623 -0.6039
25587SOL     OW80165   9.932   5.177   7.840  0.1466  0.0706  0.4211
25587SOL    HW180166   9.928   5.091   7.880  0.1756 -0.9717 -1.7745
25587SOL    HW280167   9.942   5.237   7.915  1.3036 -1.8862  1.9029
25588SOL     OW80168   1.935   9.137   7.020  0.2042  0.2520  0.4309
25588SOL    HW180169   1.922   9.114   6.928 -1.0188  0.5380  0.5253
25588SOL    HW280170   1.850   9.120   7.061  1.0633 -0.9984  1.7451
25589SOL     OW80171   2.384   6.838   5.811 -0.3016  0.5674 -0.3170
25589SOL    HW180172   2.440   6.869   5.881 -0.3690 -0.4642  0.2011
25589SOL    HW280173   2.444   6.806   5.744 -0.2584  0.0011 -0.0103
25590SOL     OW80174   5.125   6.802  10.134  0.0384  0.3651 -0.0478
25590SOL    HW180175   5.127   6.847  10.050  2.2552  0.6176  0.0949
25590SOL    HW280176   5.038   6.820  10.170 -0.7818  0.5777 -2.0924
25591SOL     OW80177   1.649   7.637   7.073  0.1287  0.2680  0.7408
25591SOL    HW180178   1.711   7.568   7.097 -0.7756 -0.7004  0.3453
25591SOL    HW280179   1.617   7.671   7.156 -0.9533 -1.2121  0.9619
25592SOL     OW80180   9.241   8.815   7.036 -0.6750  0.0731 -0.6969
25592SOL    HW180181   9.307   8.751   7.065 -1.0823 -0.5091 -1.0356
25592SOL    HW280182   9.173   8.811   7.103 -0.6030  0.3025 -0.6122
25593SOL     OW80183   3.050   8.457   4.818 -0.3046 -0.2922  0.3780
25593SOL    HW180184   2.982   8.511   4.777 -0.4428  1.1882  2.5065
25593SOL    HW280185   3.127   8.513   4.820  0.0802 -0.8437  0.9371
25594SOL     OW80186  10.157   3.434   8.035 -0.0047  0.0113  0.2412
25594SOL    HW180187  10.172   3.354   7.985  0.8261  0.5013 -0.3105
25594SOL    HW280188  10.162   3.407   8.126  2.1024 -0.2309  0.0625
25595SOL     OW80189   1.013   3.455   0.055  0.0915 -0.4184 -0.3071
25595SOL    HW180190   1.074   3.396   0.099 -0.0507  0.1071  0.6232
25595SOL    HW280191   1.060   3.538   0.048 -1.0802  0.4954  1.9721
25596SOL     OW80192   3.315   6.651   9.707 -0.5943  0.2502  0.6133
25596SOL    HW180193   3.301   6.696   9.623  0.4358  0.0157  0.3030
25596SOL    HW280194   3.410   6.639   9.711 -0.5907  0.7514  2.0830
25597SOL     OW80195   0.664   4.939   8.900  0.3123  0.0418 -0.1268
25597SOL    HW180196   0.645   5.031   8.881  1.4782  0.6128  1.3191
25597SOL    HW280197   0.605   4.889   8.843  0.0946  1.6804 -1.3580
25598SOL     OW80198   5.614   2.244   1.359 -0.5022 -0.6077 -0.3744
25598SOL    HW180199   5.688   2.191   1.328 -1.1320 -1.1390 -1.0143
25598SOL    HW280200   5.616   2.235   1.454 -0.0822 -1.0828 -0.4234
25599SOL     OW80201   9.387   2.039   7.223  0.1525  0.0884 -0.1196
25599SOL    HW180202   9.307   2.004   7.262  0.4175 -0.8224 -0.3999
25599SOL    HW280203   9.362   2.062   7.134 -0.1137  0.9633  0.1726
25600SOL     OW80204   9.088   8.454   7.491  0.2122  0.2568  0.3085
25600SOL    HW180205   9.002   8.413   7.499 -0.2203  0.8917 -0.8670
25600SOL    HW280206   9.138   8.395   7.434  0.0798  0.5909 -0.1615
25601SOL     OW80207   2.181   6.281   8.326 -0.1618  0.6689  0.4380
25601SOL    HW180208   2.148   6.313   8.410  0.0710 -0.8654  1.1338
25601SOL    HW280209   2.250   6.342   8.302  1.7680 -0.4844  2.8059
25602SOL     OW80210   9.581   4.618   5.690  0.3321  0.3618 -0.1247
25602SOL    HW180211   9.545   4.693   5.642  0.6835  0.9669  0.5487
25602SOL    HW280212   9.523   4.606   5.764  0.2639 -0.0484 -0.2443
25603SOL     OW80213   6.318   2.166   5.239  0.3829  0.1175  0.0148
25603SOL    HW180214   6.334   2.113   5.317  0.0391  0.1133  0.0846
25603SOL    HW280215   6.294   2.103   5.171 -0.5832  0.2281  0.2475
25604SOL     OW80216   7.617   0.575   7.628 -0.0334 -0.2059  0.0265
25604SOL    HW180217   7.587   0.554   7.539  1.5997 -1.3307 -0.2792
25604SOL    HW280218   7.541   0.616   7.669 -0.7721  0.4904 -1.9397
25605SOL     OW80219   4.901   7.362   5.143 -0.1628 -0.6644 -0.8214
25605SOL    HW180220   4.864   7.276   5.122  1.9096 -0.7740 -4.5621
25605SOL    HW280221   4.995   7.347   5.146 -0.0108  0.7419  2.5410
25606SOL     OW80222   9.387   7.962   5.929  0.0829 -0.3763  0.1291
25606SOL    HW180223   9.317   7.940   5.869 -1.0305  0.3343  1.1509
25606SOL    HW280224   9.396   7.885   5.985  0.0822 -0.4417  0.0395
25607SOL     OW80225   9.357   1.515   8.295  0.3704  0.1454 -0.0941
25607SOL    HW180226   9.322   1.452   8.232  1.3184  0.1040 -0.5920
25607SOL    HW280227   9.279   1.554   8.335 -0.2443  0.0182 -1.1345
25608SOL     OW80228  10.980   7.817   9.904 -0.1744 -0.6143  0.1663
25608SOL    HW180229  10.930   7.794   9.982  0.6575  0.8372  1.1692
25608SOL    HW280230  10.973   7.913   9.899  0.3059 -0.6390 -1.1756
25609SOL     OW80231  10.923  10.062   6.408  0.5141 -0.3855  0.3731
25609SOL    HW180232  10.846  10.006   6.416  1.3112 -1.7040 -0.9606
25609SOL    HW280233  10.928  10.084   6.315  2.3286 -1.1733  0.2621
25610SOL     OW80234   9.890   2.727   3.113  0.2387 -0.0256  0.2908
25610SOL    HW180235   9.802   2.745   3.146  0.0335  1.2952 -0.9141
25610SOL    HW280236   9.887   2.757   3.022  1.7804 -0.4689  0.0938
25611SOL     OW80237   9.098   7.642   0.400  0.4013 -0.1293 -0.1696
25611SOL    HW180238   9.078   7.734   0.415 -0.3516 -0.5505  1.5769
25611SOL    HW280239   9.152   7.616   0.475 -1.0740 -1.6074  0.4082
25612SOL     OW80240   6.590   2.576   9.288 -0.5696  0.4992  0.6266
25612SOL    HW180241   6.584   2.626   9.369  0.0856  1.4907  0.0797
25612SOL    HW280242   6.575   2.641   9.219 -1.0065 -0.3110 -0.0482
25613SOL     OW80243   8.109   8.610   3.089 -0.3540 -0.3511  0.4068
25613SOL    HW180244   8.039   8.621   3.025 -0.7861 -0.3357  0.8760
25613SOL    HW280245   8.091   8.676   3.156  0.0425 -0.4248  0.5893
25614SOL     OW80246   7.192   3.787   9.813 -0.0541 -0.3169  0.7524
25614SOL    HW180247   7.142   3.788   9.895 -1.0293  1.1260  0.1344
25614SOL    HW280248   7.133   3.749   9.749  0.3803 -0.5477  0.4860
25615SOL     OW80249   2.075   6.247   9.278 -0.0821  0.5336  0.6456
25615SOL    HW180250   2.130   6.324   9.268 -1.5390  1.4389 -0.6387
25615SOL    HW280251   2.128   6.185   9.329  2.7696  0.7009 -1.9981
25616SOL     OW80252  10.461   3.719   8.158 -0.4424 -0.3634  0.1291
25616SOL    HW180253  10.406   3.683   8.227 -0.2082 -0.3633  0.3181
25616SOL    HW280254  10.472   3.811   8.182  0.4757 -0.5991  0.6474
25617SOL     OW80255   5.987   7.600   6.972  0.5806  0.0888 -0.4833
25617SOL    HW180256   6.012   7.672   6.914  0.2694  1.5212  1.1142
25617SOL    HW280257   5.917   7.637   7.027  1.1177 -1.1109  1.0486
25618SOL     OW80258   3.498   3.176   0.202  0.2171  0.3618  0.1481
25618SOL    HW180259   3.593   3.188   0.204  0.0101  2.3186 -0.2356
25618SOL    HW280260   3.465   3.242   0.263 -0.9399  0.2691 -0.3680
25619SOL     OW80261   0.911   1.336   1.555  0.1795 -0.4477  0.0435
25619SOL    HW180262   0.958   1.307   1.477  0.1074 -0.2320 -0.0812
25619SOL    HW280263   0.837   1.386   1.521  1.0320  0.9959  0.2659
25620SOL     OW80264  10.264   9.805   2.246  0.1173  0.0003  0.1345
25620SOL    HW180265  10.334   9.863   2.277 -0.1771  0.5864 -0.3033
25620SOL    HW280266  10.227   9.849   2.170 -2.4989  1.0085  1.9253
25621SOL     OW80267   4.091   6.114   7.241 -0.4626  0.6900 -0.2988
25621SOL    HW180268   4.091   6.064   7.323 -3.4270  0.2116 -0.5556
25621SOL    HW280269   4.100   6.047   7.173 -0.9288  0.8164 -0.4859
25622SOL     OW80270   9.497   2.591   4.312  0.3747 -0.4487  0.1807
25622SOL    HW180271   9.436   2.534   4.266 -2.6594  1.3128  1.8973
25622SOL    HW280272   9.504   2.668   4.255 -0.0756 -0.0630  0.6502
25623SOL     OW80273   0.420   1.401   4.487 -0.0998 -0.8364 -0.1790
25623SOL    HW180274   0.479   1.393   4.561 -0.6403  1.7229  0.5798
25623SOL    HW280275   0.462   1.464   4.429  0.2605 -2.7222 -2.0360
25624SOL     OW80276   5.012   1.117   1.662  0.2076  1.1555 -0.3429
25624SOL    HW180277   5.057   1.057   1.603  0.6467  2.2149 -1.0883
25624SOL    HW280278   4.968   1.059   1.725 -2.3124 -0.1152 -3.1292
25625SOL     OW80279   9.419   2.379   5.567 -0.1221  0.4200 -0.2110
25625SOL    HW180280   9.333   2.387   5.525 -0.1402  1.8158  0.0628
25625SOL    HW280281   9.467   2.457   5.538  0.5388  0.3964  0.8134
25626SOL     OW80282   9.115   5.790   6.020  0.4398 -0.4648 -0.3686
25626SOL    HW180283   9.117   5.860   6.085 -1.4066  0.6782 -1.5086
25626SOL    HW280284   9.180   5.815   5.955  0.0539  0.0163 -0.5758
25627SOL     OW80285   3.836   5.003   3.144  0.1944  0.0617  0.3178
25627SOL    HW180286   3.796   5.090   3.136  1.5833  0.6189 -0.8265
25627SOL    HW280287   3.922   5.020   3.182 -0.0504 -0.9728  1.3398
25628SOL     OW80288   6.394   6.273   9.415  0.1151  0.1123 -0.4884
25628SOL    HW180289   6.373   6.214   9.342  0.2262  0.9267 -1.1811
25628SOL    HW280290   6.488   6.287   9.408 -0.2495  2.1260 -1.6564
25629SOL     OW80291   8.198   9.646   4.991  0.1023  0.2581 -0.4435
25629SOL    HW180292   8.211   9.618   4.900  1.4401 -0.4502 -0.0480
25629SOL    HW280293   8.118   9.602   5.019 -0.0643  0.1210 -1.1323
25630SOL     OW80294   9.117   9.272   2.980 -0.6666 -0.7239  0.0339
25630SOL    HW180295   9.076   9.350   3.019 -2.6150 -0.8451 -1.6892
25630SOL    HW280296   9.139   9.217   3.055 -0.3646  0.9601  1.2066
25631SOL     OW80297   1.456   5.875   6.584 -0.6708  0.5918  0.2091
25631SOL    HW180298   1.471   5.790   6.626 -1.4363  0.2885 -0.1147
25631SOL    HW280299   1.479   5.860   6.492  1.8098  1.4828  0.6698
25632SOL     OW80300   3.216   7.705   3.402  0.1727 -0.0189 -0.2435
25632SOL    HW180301   3.264   7.640   3.351  1.4493  1.0061 -0.3820
25632SOL    HW280302   3.171   7.759   3.337 -1.7863 -1.4282 -0.0836
25633SOL     OW80303   1.322   9.611   2.542  0.2154 -0.6461 -0.1768
25633SOL    HW180304   1.358   9.615   2.454  3.7246 -2.3020  1.0824
25633SOL    HW280305   1.352   9.692   2.584 -1.0673 -0.0735 -0.3419
25634SOL     OW80306  10.017   9.988   8.493  0.4439 -0.1813  0.4725
25634SOL    HW180307  10.088   9.995   8.430  0.2919  1.4336  0.4463
25634SOL    HW280308   9.944  10.035   8.452  0.1535  0.3377  1.5602
25635SOL     OW80309   8.489   2.760   0.426 -0.0589  0.6071 -0.4527
25635SOL    HW180310   8.460   2.728   0.511  3.4324  0.0276  0.5950
25635SOL    HW280311   8.512   2.682   0.377  1.9916  1.1071 -0.3446
25636SOL     OW80312   5.395   0.750  10.008 -0.0256  0.4485 -0.2101
25636SOL    HW180313   5.437   0.817   9.955  2.3489 -1.1642 -0.4288
25636SOL    HW280314   5.404   0.782  10.098 -0.9389  1.5077 -0.4915
25637SOL     OW80315   7.564   0.712   7.084 -0.0174  0.1244  0.4239
25637SOL    HW180316   7.600   0.670   7.006 -1.8093 -1.7981  0.5863
25637SOL    HW280317   7.594   0.802   7.078  0.3611 -0.1223 -2.1956
25638SOL     OW80318   7.031   0.052   4.662  0.2097 -0.1973  0.2344
25638SOL    HW180319   7.093   0.008   4.604 -0.5461  0.2123 -0.8771
25638SOL    HW280320   7.069   0.040   4.750  0.8279 -1.6838 -0.2138
25639SOL     OW80321   0.129   3.722   5.211 -0.3509  0.4660 -0.2572
25639SOL    HW180322   0.043   3.696   5.243  0.0123 -0.6800 -0.2022
25639SOL    HW280323   0.116   3.812   5.180 -1.2924  0.7080  0.7943
25640SOL     OW80324   1.060   3.552   4.860 -0.0971  0.3597  0.0032
25640SOL    HW180325   1.055   3.476   4.802  3.3103 -1.0021  1.3856
25640SOL    HW280326   1.121   3.612   4.816 -2.1268  1.9752 -0.6756
25641SOL     OW80327   3.984   0.840   4.245  0.1652  0.3563 -0.2907
25641SOL    HW180328   4.020   0.754   4.265 -1.1243 -0.2170 -0.3741
25641SOL    HW280329   3.899   0.821   4.203  0.7006  1.6094 -1.9996
25642SOL     OW80330   1.439   3.261   4.836 -0.2103 -0.4776 -0.2099
25642SOL    HW180331   1.489   3.238   4.914  0.5297 -1.0396 -0.8440
25642SOL    HW280332   1.477   3.208   4.767 -0.0416  0.9319 -1.2164
25643SOL     OW80333   7.286   1.725   6.492  0.6380  0.1024 -0.3942
25643SOL    HW180334   7.284   1.760   6.581 -0.1525 -0.7018 -0.0898
25643SOL    HW280335   7.194   1.721   6.466  0.7896 -0.7504 -0.8182
25644SOL     OW80336   3.674   8.172   5.402 -0.4308  0.2408 -0.3822
25644SOL    HW180337   3.761   8.202   5.429 -0.9496  0.7946  0.7239
25644SOL    HW280338   3.690   8.091   5.353  0.8170  1.1429 -1.5025
25645SOL     OW80339   9.652   2.475  10.314  0.4984 -0.5363  0.4985
25645SOL    HW180340   9.638   2.461  10.408 -2.7658 -1.3658 -0.0282
25645SOL    HW280341   9.608   2.558  10.296 -1.0185 -1.5690 -0.6847
25646SOL     OW80342   6.336  10.957   4.013  0.0221  0.0195  0.1124
25646SOL    HW180343   6.316  11.048   4.034  1.4484  0.7605 -1.5770
25646SOL    HW280344   6.261  10.926   3.963  0.2796  0.8000 -0.7611
25647SOL     OW80345   4.273   1.020   2.627  0.2488 -0.0252  0.0855
25647SOL    HW180346   4.350   1.014   2.571 -1.2471  1.6521 -2.2661
25647SOL    HW280347   4.274   1.110   2.660 -1.2670  0.3704 -0.8747
25648SOL     OW80348   0.622   6.409   7.070 -0.2753 -0.0933 -0.4643
25648SOL    HW180349   0.641   6.315   7.068  1.1555  0.1267  1.2757
25648SOL    HW280350   0.545   6.417   7.126  1.5852  0.0322  2.1558
25649SOL     OW80351   7.463   1.487   0.434  0.2569  0.4032  0.6845
25649SOL    HW180352   7.430   1.466   0.346  0.3817 -3.6226  1.5063
25649SOL    HW280353   7.555   1.509   0.420  0.0422  0.7314 -0.2935
25650SOL     OW80354   6.919   8.641   4.682  0.1663 -0.1801  0.1071
25650SOL    HW180355   6.848   8.688   4.725 -0.4405 -1.1780  0.2298
25650SOL    HW280356   6.945   8.573   4.745 -0.0124 -0.9785 -0.6577
25651SOL     OW80357   3.849   6.224   7.890 -0.3196  0.3246 -0.2208
25651SOL    HW180358   3.795   6.226   7.811 -0.5906 -0.1206 -0.0485
25651SOL    HW280359   3.825   6.142   7.933  1.2640 -0.4030 -0.6830
25652SOL     OW80360   5.026   3.989  10.743  0.3945  0.0978 -0.3612
25652SOL    HW180361   4.968   4.021  10.674 -0.0451  1.5053  0.6281
25652SOL    HW280362   5.112   3.985  10.702 -0.3254 -1.7220 -1.7586
25653SOL     OW80363   9.333   7.988   9.464  0.1253  0.2478 -0.3366
25653SOL    HW180364   9.424   7.992   9.494 -0.0993  2.4707  0.1289
25653SOL    HW280365   9.281   7.982   9.544 -0.1548 -0.5659 -0.5818
25654SOL     OW80366   5.681   7.486   3.801 -0.0309  0.1206  0.0779
25654SOL    HW180367   5.682   7.539   3.721 -0.1637  0.1571  0.0997
25654SOL    HW280368   5.593   7.448   3.803 -0.1679  0.4578  0.4321
25655SOL     OW80369   8.285   4.804   5.032  0.1771 -0.0256  0.1058
25655SOL    HW180370   8.214   4.865   5.050  1.4356  0.9293  2.0151
25655SOL    HW280371   8.365   4.857   5.038  1.1669 -1.4356 -0.2381
25656SOL     OW80372   6.409   1.706   6.558 -0.2202  0.3792  0.3192
25656SOL    HW180373   6.371   1.656   6.485 -2.0440  2.0986  0.0586
25656SOL    HW280374   6.467   1.769   6.517  1.0652 -0.6350  0.5632
25657SOL     OW80375   4.949   6.204  10.449  0.1679  0.1223  0.3259
25657SOL    HW180376   5.039   6.228  10.474 -0.0590  0.0397  1.2323
25657SOL    HW280377   4.899   6.284  10.462 -0.1011 -0.1365  0.8810
25658SOL     OW80378   1.850   7.573   8.779 -0.2525  0.1089 -0.2322
25658SOL    HW180379   1.839   7.668   8.785  0.6080  0.2673 -1.1954
25658SOL    HW280380   1.778   7.538   8.833 -1.6439  1.2692 -1.2790
25659SOL     OW80381   8.811   1.045   3.930 -0.5659  0.1440 -0.3276
25659SOL    HW180382   8.797   0.959   3.892 -1.6838  0.2835 -0.2483
25659SOL    HW280383   8.872   1.030   4.002 -0.2484 -0.4719 -0.7211
25660SOL     OW80384   8.751   0.650  10.902 -0.1567 -0.4131 -0.3564
25660SOL    HW180385   8.822   0.639  10.839 -0.3112  2.3614 -1.0795
25660SOL    HW280386   8.672   0.657  10.849 -0.2751  2.0765  0.0847
25661SOL     OW80387   8.656   6.021   0.464  0.5458  0.2425  0.0634
25661SOL    HW180388   8.578   6.014   0.518  0.2311  2.2696 -0.1027
25661SOL    HW280389   8.725   6.048   0.525  0.3819  1.6664 -0.3591
25662SOL     OW80390   7.034   5.775   1.294  0.0794 -0.1706  0.4871
25662SOL    HW180391   6.977   5.779   1.218 -0.0029  1.2430  0.6160
25662SOL    HW280392   7.050   5.867   1.318 -0.0764 -0.5961  2.3088
25663SOL     OW80393   0.082   8.237   5.888 -0.8941 -0.2087  0.0397
25663SOL    HW180394   0.043   8.302   5.946 -0.7986 -1.2294  1.2584
25663SOL    HW280395   0.164   8.213   5.931  0.1807  0.5361 -1.5538
25664SOL     OW80396   0.568   7.849   3.371  0.3223 -0.1500 -0.0098
25664SOL    HW180397   0.600   7.844   3.281 -0.1870  0.9104 -0.2537
25664SOL    HW280398   0.551   7.942   3.386 -1.0219 -0.4883  0.6758
25665SOL     OW80399  10.968   0.457  10.607 -0.2831  0.0953  0.2777
25665SOL    HW180400  10.964   0.368  10.572  1.9447  0.2661 -0.4360
25665SOL    HW280401  10.983   0.513  10.531  0.9051  0.8176  1.0270
25666SOL     OW80402  10.746  10.639   5.549  0.2179  0.0461  0.3694
25666SOL    HW180403  10.709  10.727   5.550  0.6004  0.2869 -2.4911
25666SOL    HW280404  10.671  10.581   5.564 -0.3216  0.7693  0.4965
25667SOL     OW80405   3.237   5.872   0.600 -0.2089  0.2799 -0.6085
25667SOL    HW180406   3.181   5.875   0.677 -0.7514 -1.2000 -0.9181
25667SOL    HW280407   3.313   5.926   0.623 -1.1562  1.2657  0.2928
25668SOL     OW80408   1.015   3.280   0.595 -0.2261  0.0951  0.0729
25668SOL    HW180409   1.080   3.348   0.614 -0.2179 -0.1943  1.0831
25668SOL    HW280410   0.975   3.308   0.513 -0.7081  1.6960  0.8372
25669SOL     OW80411   1.633  10.268   5.327 -0.1807 -0.0388 -0.0011
25669SOL    HW180412   1.565  10.203   5.309  0.8323 -0.2068 -3.6567
25669SOL    HW280413   1.593  10.352   5.305 -0.4606  0.2848  1.6811
25670SOL     OW80414  10.105   7.463   6.949  0.1126  0.4334  0.0928
25670SOL    HW180415  10.026   7.517   6.952 -0.4582 -0.2998 -1.3848
25670SOL    HW280416  10.161   7.505   6.884  0.1279 -0.1140 -0.2579
25671SOL     OW80417   3.152   7.980   6.402 -0.0882  0.6288 -0.2142
25671SOL    HW180418   3.096   7.948   6.332 -1.6466 -0.3277  1.4024
25671SOL    HW280419   3.207   7.905   6.424  2.2043  1.7093 -2.1145
25672SOL     OW80420   9.467   4.167   8.546 -0.0498 -0.1196 -0.4461
25672SOL    HW180421   9.473   4.103   8.475 -0.4407  2.4627 -2.8956
25672SOL    HW280422   9.552   4.161   8.591  0.9981 -0.3854 -2.3947
25673SOL     OW80423   9.583   0.666   8.572  0.1851  0.8124  1.0690
25673SOL    HW180424   9.674   0.659   8.602  1.0870  0.5225 -1.5805
25673SOL    HW280425   9.572   0.759   8.550 -0.5494  1.0725  2.4423
25674SOL     OW80426   9.232   6.620   7.602 -0.3342  0.6903 -0.6624
25674SOL    HW180427   9.155   6.581   7.643  1.1119 -0.9710  0.5214
25674SOL    HW280428   9.209   6.713   7.590 -2.4575  0.2365 -0.2396
25675SOL     OW80429   1.127   1.651  10.059 -0.3451 -0.1475  0.2610
25675SOL    HW180430   1.106   1.594  10.133  2.6890 -0.3546  1.0275
25675SOL    HW280431   1.113   1.596   9.982 -0.0321 -1.0873  0.8618
25676SOL     OW80432   9.163   8.049   2.815 -0.0489  0.6773 -0.1625
25676SOL    HW180433   9.143   7.963   2.850  1.8680 -0.6625 -2.2617
25676SOL    HW280434   9.198   8.098   2.890 -1.3233 -0.2766  1.0817
25677SOL     OW80435   5.629   8.872   5.042  0.5620 -0.7755 -0.2961
25677SOL    HW180436   5.576   8.949   5.019  0.7321 -0.6684 -0.3353
25677SOL    HW280437   5.719   8.901   5.027  0.5690 -1.3761 -1.5062
25678SOL     OW80438   0.309   7.533   8.944  0.0837 -0.3757 -0.3564
25678SOL    HW180439   0.247   7.597   8.908  0.0322 -0.9405 -1.2739
25678SOL    HW280440   0.369   7.514   8.872  1.1359 -0.0930  0.4185
25679SOL     OW80441   8.463   0.349   9.879 -0.0610 -0.4609  0.5860
25679SOL    HW180442   8.379   0.345   9.833 -0.0353 -3.7263  0.7298
25679SOL    HW280443   8.524   0.382   9.814 -1.2860  1.2445  0.2631
25680SOL     OW80444   4.370   1.019   5.688  0.1187 -0.3615 -0.5517
25680SOL    HW180445   4.369   1.051   5.778  0.9776  0.5689 -0.8698
25680SOL    HW280446   4.344   1.094   5.635  1.7347 -0.2710 -1.2610
25681SOL     OW80447   9.217   4.207   3.348 -0.1869  0.3076 -0.4937
25681SOL    HW180448   9.208   4.224   3.441  1.4849 -2.0888  0.1341
25681SOL    HW280449   9.134   4.168   3.322 -0.5368  0.6939  0.0428
25682SOL     OW80450   8.901   9.239   9.449  0.3579 -0.1209 -0.6638
25682SOL    HW180451   8.816   9.196   9.462  0.2039  0.3016 -0.2238
25682SOL    HW280452   8.966   9.170   9.461  0.1277 -0.1473  0.4578
25683SOL     OW80453   8.570   8.447   4.393 -0.1185 -0.0064 -0.3173
25683SOL    HW180454   8.571   8.367   4.445  2.2847  0.1901  0.0207
25683SOL    HW280455   8.650   8.493   4.419 -1.2529  2.2899 -0.8253
25684SOL     OW80456   2.269  10.064   5.547 -0.2567 -0.0084  0.0223
25684SOL    HW180457   2.185  10.089   5.509 -0.3589  0.7792  0.7516
25684SOL    HW280458   2.253  10.062   5.642  0.5507  0.1548  0.1653
25685SOL     OW80459   2.212   4.054   1.833  0.5210  0.0492 -0.1528
25685SOL    HW180460   2.266   4.079   1.907  0.7284  2.3194 -1.0145
25685SOL    HW280461   2.134   4.014   1.872  1.0901  0.2753  1.2341
25686SOL     OW80462   3.794   1.607   4.781  0.4441 -0.4035 -0.7298
25686SOL    HW180463   3.846   1.687   4.775  1.0627 -0.7956 -0.6489
25686SOL    HW280464   3.855   1.542   4.816 -0.2620 -0.7255 -0.0917
25687SOL     OW80465   8.574   3.699  10.596 -0.1767  0.5598  0.7476
25687SOL    HW180466   8.567   3.617  10.645  1.3975  0.3177  0.5946
25687SOL    HW280467   8.595   3.672  10.506 -0.1046  1.1027  0.5973
25688SOL     OW80468   8.242   9.961   7.150 -0.0802 -0.3107 -0.3111
25688SOL    HW180469   8.201   9.980   7.234 -0.0854  0.8613 -0.5778
25688SOL    HW280470   8.205   9.876   7.124  1.9801 -2.0242  2.1389
25689SOL     OW80471   5.779   0.124   8.880 -0.6751 -0.6954  0.0751
25689SOL    HW180472   5.859   0.082   8.910 -0.6297 -0.6254  0.0550
25689SOL    HW280473   5.779   0.113   8.785  0.1980  0.8323 -0.1251
25690SOL     OW80474   5.640   6.314   2.064 -0.2607  0.2165 -0.0009
25690SOL    HW180475   5.547   6.328   2.082 -0.1610 -0.2555  0.8831
25690SOL    HW280476   5.654   6.220   2.077  0.6127  0.4960  1.1429
25691SOL     OW80477   9.063   8.545   3.128  0.8811 -0.1920 -0.1985
25691SOL    HW180478   9.008   8.616   3.163  1.8265  0.4990 -0.0981
25691SOL    HW280479   9.151   8.582   3.125  1.3416 -1.2823 -0.3936
25692SOL     OW80480   2.458   4.349   8.959  0.4278 -0.0835  0.3142
25692SOL    HW180481   2.406   4.298   9.021  1.0661 -0.5817  0.4507
25692SOL    HW280482   2.548   4.340   8.991  0.4909  1.6189  0.6832
25693SOL     OW80483   1.176  10.595   2.290 -0.1173 -0.0205  0.1640
25693SOL    HW180484   1.091  10.588   2.245  0.5557  0.6003 -1.2436
25693SOL    HW280485   1.160  10.654   2.363 -1.0575 -0.4310  0.3013
25694SOL     OW80486   3.653   5.051   1.649 -0.5261 -0.2620  0.0618
25694SOL    HW180487   3.646   5.142   1.622 -0.0256 -0.1922  0.1606
25694SOL    HW280488   3.714   5.012   1.586  0.0694 -0.2756  0.6369
25695SOL     OW80489   6.198   5.495   8.236 -0.4291 -0.3301  0.2970
25695SOL    HW180490   6.144   5.436   8.289  0.1545  0.1781  1.4687
25695SOL    HW280491   6.177   5.472   8.145  0.7358 -3.2055  0.7298
25696SOL     OW80492   9.421   0.303   7.113 -0.4596  0.5611  0.1841
25696SOL    HW180493   9.469   0.385   7.112 -0.9908  0.8806  0.5491
25696SOL    HW280494   9.489   0.235   7.122 -0.0663  0.9908  0.4585
25697SOL     OW80495   5.409   1.959  10.396 -0.5719  0.0428 -0.0752
25697SOL    HW180496   5.456   1.982  10.476  2.0716 -1.8139 -1.0181
25697SOL    HW280497   5.348   1.890  10.424  1.2555 -1.5244  0.1406
25698SOL     OW80498   8.257   8.857   4.465 -0.1917  0.0633  0.4250
25698SOL    HW180499   8.180   8.887   4.416  0.2238  0.2756 -0.0961
25698SOL    HW280500   8.294   8.788   4.411  1.6393  1.9141 -0.7467
25699SOL     OW80501   9.212   4.337   1.073  0.0649  0.3842  0.4194
25699SOL    HW180502   9.123   4.303   1.074  0.1659  0.0949 -0.4909
25699SOL    HW280503   9.268   4.260   1.065  0.3059  0.7108 -1.2078
25700SOL     OW80504   2.331   1.232  10.494  0.0188 -0.3769 -0.0367
25700SOL    HW180505   2.352   1.268  10.408 -0.5717 -1.4995 -0.6737
25700SOL    HW280506   2.255   1.175  10.478 -0.5986  0.0305  1.3742
25701SOL     OW80507   6.192   9.682   3.965 -0.3571  0.3079  0.0113
25701SOL    HW180508   6.157   9.754   3.912 -0.7652  1.1782  1.4472
25701SOL    HW280509   6.115   9.628   3.986 -0.0077 -0.7372 -1.3180
25702SOL     OW80510   5.365   8.940   4.713  0.5831  0.1888  0.6379
25702SOL    HW180511   5.379   8.930   4.619  0.0425  0.5567  0.5140
25702SOL    HW280512   5.403   8.861   4.752 -0.0859 -0.4406  0.0286
25703SOL     OW80513   2.072   5.248   4.481 -0.0279 -0.4098  0.0791
25703SOL    HW180514   2.136   5.206   4.537 -0.4331 -0.4411  0.5253
25703SOL    HW280515   2.120   5.317   4.435  0.7534 -1.6603 -1.0159
25704SOL     OW80516   0.372   1.364   8.278 -0.1529  0.1407 -0.0535
25704SOL    HW180517   0.455   1.355   8.325 -1.5075 -0.3068  2.3095
25704SOL    HW280518   0.307   1.378   8.346 -1.6421  3.5651 -2.0298
25705SOL     OW80519   3.005   3.451   9.860  0.8469 -0.3788 -0.3127
25705SOL    HW180520   2.960   3.458   9.776 -1.6086 -0.0669  1.0032
25705SOL    HW280521   3.098   3.466   9.839  0.1805  0.3836 -2.8425
25706SOL     OW80522   7.973   1.590   4.663  0.0827  0.1534  0.4138
25706SOL    HW180523   8.047   1.625   4.613 -1.3467  1.7301 -0.6368
25706SOL    HW280524   7.948   1.662   4.722 -1.9639  0.4401 -0.7502
25707SOL     OW80525   3.165   4.766  10.334 -0.1712  0.1805 -0.2083
25707SOL    HW180526   3.206   4.707  10.397 -0.9136  0.1544  0.2573
25707SOL    HW280527   3.071   4.756  10.349 -0.2998  2.0940  0.4286
25708SOL     OW80528   1.618   3.264   6.273 -0.5111 -0.4121  0.1746
25708SOL    HW180529   1.524   3.244   6.266 -0.6690  0.2421  0.3990
25708SOL    HW280530   1.627   3.349   6.232  0.4998 -1.7951 -2.5836
25709SOL     OW80531   3.541   9.638   2.286 -0.2024  0.2714  0.1463
25709SOL    HW180532   3.627   9.597   2.284 -0.6517 -0.6261 -1.1217
25709SOL    HW280533   3.551   9.717   2.233 -0.8869 -1.3487 -2.5204
25710SOL     OW80534   4.464   8.112   3.098 -0.3263 -0.1476  0.0278
25710SOL    HW180535   4.396   8.045   3.091 -0.9326  0.3432  1.1170
25710SOL    HW280536   4.438   8.166   3.173  0.7672  0.6108 -0.1167
25711SOL     OW80537   8.126   7.380   1.656 -0.0732  0.5198  0.0125
25711SOL    HW180538   8.104   7.398   1.747 -1.5382 -0.7277 -0.0711
25711SOL    HW280539   8.120   7.285   1.648 -1.5112  0.7169 -1.7341
25712SOL     OW80540   1.724   9.144   5.453 -0.0177 -0.4046 -0.5627
25712SOL    HW180541   1.819   9.131   5.454  0.0907  0.4070 -0.4788
25712SOL    HW280542   1.704   9.183   5.538 -0.6597 -2.1903  0.1318
25713SOL     OW80543   3.189   8.518   2.476 -0.0024  0.8195  0.0634
25713SOL    HW180544   3.195   8.431   2.514  1.0493  0.1358 -1.6321
25713SOL    HW280545   3.105   8.518   2.429  0.2025  0.5706 -0.3029
25714SOL     OW80546   2.465   3.804   4.814  0.1293  0.0593  0.3446
25714SOL    HW180547   2.483   3.714   4.786 -0.2068 -0.3150  1.3377
25714SOL    HW280548   2.449   3.797   4.908  1.2835  1.3189  0.6528
25715SOL     OW80549   8.890   7.107   1.597  0.2151 -0.0789 -0.1458
25715SOL    HW180550   8.924   7.192   1.624 -0.1072  0.5399 -1.6070
25715SOL    HW280551   8.847   7.124   1.513 -0.7292 -1.4915  0.0225
25716SOL     OW80552   2.508   0.070   0.525 -0.4743 -0.4085  0.6002
25716SOL    HW180553   2.544  -0.009   0.486  1.8829  1.7750 -1.8384
25716SOL    HW280554   2.555   0.080   0.608 -0.3687 -1.2201  0.6358
25717SOL     OW80555   1.313   3.872   6.660 -0.0342 -0.7396  0.8657
25717SOL    HW180556   1.276   3.858   6.747 -3.1750 -0.0389 -0.2906
25717SOL    HW280557   1.297   3.790   6.613 -0.1493 -0.4391  0.3641
25718SOL     OW80558  10.334   8.121   9.479  0.0409  0.2189 -0.2945
25718SOL    HW180559  10.303   8.148   9.566 -1.2801  0.4549 -0.8333
25718SOL    HW280560  10.399   8.053   9.497  1.1371  1.5702  0.9506
25719SOL     OW80561   1.828   7.057   2.826  0.7430  0.2015  0.0663
25719SOL    HW180562   1.872   6.972   2.833  1.5808  0.6120 -0.1408
25719SOL    HW280563   1.785   7.055   2.741 -0.5574 -0.6256  0.7255
25720SOL     OW80564   3.361   7.118  10.430 -0.0726 -0.0425  0.0238
25720SOL    HW180565   3.424   7.180  10.394  0.3007 -0.0450  0.6613
25720SOL    HW280566   3.407   7.075  10.502 -1.2103  0.8302  1.3010
25721SOL     OW80567  10.414   4.795   8.519  0.1106 -0.0780 -0.0130
25721SOL    HW180568  10.365   4.715   8.538  1.9130 -1.0556  0.6460
25721SOL    HW280569  10.388   4.818   8.430  0.8107 -2.3359 -0.8336
25722SOL     OW80570   1.995  10.690   3.232 -0.5667 -0.0715  0.6006
25722SOL    HW180571   1.931  10.750   3.193 -1.6024 -1.6585 -0.2075
25722SOL    HW280572   2.033  10.643   3.158  0.2275 -0.4321  1.2215
25723SOL     OW80573   6.885   9.465   0.469 -0.6582  0.2876  0.4780
25723SOL    HW180574   6.881   9.511   0.553  0.0021  0.0380  0.6521
25723SOL    HW280575   6.874   9.373   0.492  0.3045  0.1385  0.3862
25724SOL     OW80576   1.890  10.584   0.161 -0.4419  0.6453 -0.0726
25724SOL    HW180577   1.896  10.494   0.195 -0.8550  0.0384 -1.5593
25724SOL    HW280578   1.905  10.575   0.067 -0.6255  2.1234 -0.2532
25725SOL     OW80579   0.816   7.242   3.047 -0.0686 -0.3167 -0.0816
25725SOL    HW180580   0.784   7.278   2.964  2.1130  1.2211 -0.3253
25725SOL    HW280581   0.884   7.180   3.021  0.2897 -0.1817  0.5397
25726SOL     OW80582   1.452   6.275   8.063  0.0132  0.0924  0.3375
25726SOL    HW180583   1.545   6.292   8.077  0.1098 -0.4038  0.2839
25726SOL    HW280584   1.450   6.210   7.994 -0.3994  0.7243 -0.2482
25727SOL     OW80585   2.945  10.560  10.679 -0.0050  0.3366 -0.2510
25727SOL    HW180586   2.938  10.631  10.615  0.0804  0.7580  0.2054
25727SOL    HW280587   2.925  10.481  10.629  1.2877  0.5196 -1.1014
25728SOL     OW80588  10.087   5.050   0.385 -0.1238  0.0549 -0.0917
25728SOL    HW180589  10.025   5.048   0.312  2.3073 -2.2319 -2.2247
25728SOL    HW280590  10.069   4.971   0.435  1.6001 -1.1177 -1.2576
25729SOL     OW80591   5.946   4.496   9.105  0.4858  0.1203  0.1792
25729SOL    HW180592   5.913   4.440   9.035  0.8268 -0.6135  0.5992
25729SOL    HW280593   6.030   4.457   9.130  1.1109  1.2865 -0.0735
25730SOL     OW80594   2.922   4.833   8.811 -0.6101 -0.0761 -0.1770
25730SOL    HW180595   2.937   4.924   8.836 -1.4914 -0.5204  2.1227
25730SOL    HW280596   3.004   4.805   8.772  0.7108  0.8268  1.8632
25731SOL     OW80597   2.758   3.299   1.105 -0.0358 -0.6567  0.0206
25731SOL    HW180598   2.748   3.205   1.121 -0.5577 -0.6823 -0.4363
25731SOL    HW280599   2.726   3.341   1.185  0.5300 -0.8725  0.3646
25732SOL     OW80600   1.207   2.438   0.688  0.1896  0.4175 -0.7428
25732SOL    HW180601   1.135   2.449   0.749 -1.1960 -0.9090 -2.0822
25732SOL    HW280602   1.256   2.362   0.722  1.5323  1.8854  0.6798
25733SOL     OW80603   4.908   1.904   5.071 -0.3439 -0.3278  0.3772
25733SOL    HW180604   4.824   1.879   5.110 -0.7932 -0.6088 -0.7424
25733SOL    HW280605   4.896   1.995   5.044 -0.6878 -0.7318 -0.8438
25734SOL     OW80606   8.927   1.473   8.724 -1.0134 -0.0990  0.0103
25734SOL    HW180607   8.996   1.534   8.700 -0.1521 -1.3205 -0.7016
25734SOL    HW280608   8.845   1.521   8.712 -0.4248  0.4548 -1.9094
25735SOL     OW80609   3.643   8.952   7.701 -0.9744 -0.4445  0.2227
25735SOL    HW180610   3.669   8.913   7.617 -0.0948 -2.7362  1.4929
25735SOL    HW280611   3.582   9.021   7.678  2.3319  1.7142 -2.5993
25736SOL     OW80612   2.225   1.267   5.231 -0.1357 -0.6105 -0.4432
25736SOL    HW180613   2.232   1.327   5.305 -0.8498 -0.4431 -0.5137
25736SOL    HW280614   2.186   1.188   5.268  0.8128 -1.0425 -0.3479
25737SOL     OW80615   9.795   5.871   2.071 -0.0879 -0.8283 -0.3580
25737SOL    HW180616   9.705   5.893   2.047  0.4268 -0.2783 -1.8331
25737SOL    HW280617   9.849   5.914   2.005  1.2533 -1.3789  0.3554
25738SOL     OW80618   2.322   2.844   7.982  0.5182  0.3475 -0.5902
25738SOL    HW180619   2.227   2.841   7.994  0.8752  0.7612  2.7332
25738SOL    HW280620   2.335   2.908   7.912 -1.6483 -0.1774 -1.5200
25739SOL     OW80621   3.211   7.226   2.153 -0.5536  0.2410 -0.2010
25739SOL    HW180622   3.124   7.207   2.118  0.2543 -1.2208 -1.3944
25739SOL    HW280623   3.241   7.143   2.190  0.4879  0.6594 -0.1005
25740SOL     OW80624  10.217   1.220   2.342 -0.1593  0.1431 -0.1834
25740SOL    HW180625  10.170   1.143   2.375  1.0080 -0.0130  1.1743
25740SOL    HW280626  10.261   1.255   2.419  1.4353  0.6501 -1.2982
25741SOL     OW80627   8.054   7.952   1.594  0.3066 -0.5225 -0.0132
25741SOL    HW180628   8.095   7.893   1.531 -0.4032 -0.1024 -0.8767
25741SOL    HW280629   8.118   8.021   1.608  1.1837 -1.5168  1.0706
25742SOL     OW80630   8.154   8.533   6.701 -0.7269 -0.3036 -0.0417
25742SOL    HW180631   8.178   8.509   6.611 -1.0712 -0.2887 -0.1348
25742SOL    HW280632   8.185   8.459   6.754  2.1435  0.9960  0.1753
25743SOL     OW80633  10.701  10.217   8.374  0.2870  0.3867 -0.2302
25743SOL    HW180634  10.701  10.297   8.321 -0.5226 -0.4812 -1.5639
25743SOL    HW280635  10.609  10.201   8.393  0.2346 -1.4888 -1.9200
25744SOL     OW80636  10.513   3.889   5.419 -0.5233 -0.1127 -0.8709
25744SOL    HW180637  10.544   3.856   5.504 -1.3806  3.2786  0.8424
25744SOL    HW280638  10.417   3.883   5.425 -0.6341  1.4015 -1.0641
25745SOL     OW80639   7.307   1.794   0.652 -0.3460 -0.4061  0.1213
25745SOL    HW180640   7.214   1.789   0.673 -0.3703  2.4085  0.7840
25745SOL    HW280641   7.313   1.859   0.582  1.3360  0.9897  1.5350
25746SOL     OW80642  10.171   7.144   4.587  0.3722 -0.8051 -0.3461
25746SOL    HW180643  10.244   7.082   4.593  1.0544  0.1870  2.7567
25746SOL    HW280644  10.203   7.212   4.527  1.7121 -0.7700  0.3834
25747SOL     OW80645   8.471   8.032   2.838  0.2801 -0.0491  0.0593
25747SOL    HW180646   8.398   7.997   2.787  0.2123  1.1918 -0.7209
25747SOL    HW280647   8.442   8.023   2.929 -1.4750  1.7244 -0.2963
25748SOL     OW80648   4.783   3.439   3.099  0.3611 -0.5006  0.1301
25748SOL    HW180649   4.820   3.523   3.126 -0.2875  0.0200 -0.5960
25748SOL    HW280650   4.852   3.398   3.047  0.8636 -0.6411  0.8922
25749SOL     OW80651   7.795   3.298   5.704 -0.4991  0.1140  0.2803
25749SOL    HW180652   7.809   3.376   5.650 -0.1893 -1.8928 -2.6546
25749SOL    HW280653   7.702   3.301   5.726 -0.3095  1.7443  0.9041
25750SOL     OW80654   9.490   9.475   6.230  0.2309  0.0097 -0.0146
25750SOL    HW180655   9.434   9.427   6.292 -0.4473 -1.1150 -1.4630
25750SOL    HW280656   9.473   9.567   6.248 -1.2778 -0.3165  0.2881
25751SOL     OW80657   9.777   3.197   1.109  0.2556 -0.5044 -0.1351
25751SOL    HW180658   9.702   3.225   1.162 -0.3082 -0.4963 -0.9438
25751SOL    HW280659   9.789   3.105   1.131 -1.0858 -0.9742 -1.3026
25752SOL     OW80660   4.803   8.161   3.208  0.2329  0.0862 -0.1564
25752SOL    HW180661   4.853   8.082   3.227 -0.2283  0.1678  1.5081
25752SOL    HW280662   4.712   8.135   3.219  0.0717  0.8075  0.2262
25753SOL     OW80663   6.531   8.573  10.474 -0.2425  0.2926  0.0317
25753SOL    HW180664   6.443   8.602  10.450  0.8731  3.6081 -0.2187
25753SOL    HW280665   6.530   8.568  10.569 -1.0009 -0.7368 -0.0230
25754SOL     OW80666   6.243   3.822   0.681 -0.0434 -0.0042 -0.4653
25754SOL    HW180667   6.249   3.770   0.601 -1.1724  0.6945 -1.0065
25754SOL    HW280668   6.186   3.895   0.659  0.5576  0.8264  0.6479
25755SOL     OW80669   3.977  10.768   0.185 -0.1009  0.2676 -0.2279
25755SOL    HW180670   3.930  10.709   0.127 -0.6624  1.3227 -0.8696
25755SOL    HW280671   3.912  10.833   0.211  0.8615  1.4668 -0.7427
25756SOL     OW80672  10.226   7.257   8.612  0.0350  0.0615  0.5069
25756SOL    HW180673  10.273   7.175   8.597 -1.2406 -0.7713  1.0066
25756SOL    HW280674  10.269   7.320   8.554 -0.3193 -1.4430 -1.4073
25757SOL     OW80675   3.188   3.734   1.077  0.0197 -0.1326  0.2120
25757SOL    HW180676   3.141   3.814   1.104 -1.0263 -0.4809 -0.5455
25757SOL    HW280677   3.260   3.765   1.023 -1.4708  0.2253 -1.6407
25758SOL     OW80678   1.632   5.472   1.684 -0.3495 -0.5077 -0.2719
25758SOL    HW180679   1.698   5.529   1.723 -1.4695  0.3824  0.3437
25758SOL    HW280680   1.558   5.529   1.666 -0.8865 -1.4624 -1.1318
25759SOL     OW80681   7.140   4.879   0.754 -0.0425  0.3061 -0.2009
25759SOL    HW180682   7.196   4.802   0.742  0.4257  0.7878 -1.1491
25759SOL    HW280683   7.124   4.911   0.665 -3.1221 -0.7305 -0.0826
25760SOL     OW80684   7.401   5.199   5.863 -0.1663 -0.5123  0.1539
25760SOL    HW180685   7.435   5.117   5.899 -2.2545 -2.5078 -2.2284
25760SOL    HW280686   7.433   5.200   5.773 -0.7615  0.9575 -0.0519
25761SOL     OW80687   6.861   0.989   6.401  0.1690 -0.3372 -0.0345
25761SOL    HW180688   6.800   1.044   6.449 -0.3348 -0.5153 -0.4685
25761SOL    HW280689   6.806   0.935   6.344  0.6870 -0.9357  0.0212
25762SOL     OW80690   2.590   3.714   8.854 -0.0729  1.0302  0.3477
25762SOL    HW180691   2.568   3.789   8.909  0.5198  1.3634  0.1427
25762SOL    HW280692   2.598   3.750   8.766 -0.7434  0.5485  0.0847
25763SOL     OW80693   6.476   1.463   2.400  0.1038  0.8759 -0.5393
25763SOL    HW180694   6.482   1.532   2.334 -0.3398  2.1006  0.6860
25763SOL    HW280695   6.429   1.503   2.473 -0.8344 -0.9535 -0.1032
25764SOL     OW80696  10.814   4.166   0.872 -0.3850  0.1249 -0.6676
25764SOL    HW180697  10.746   4.207   0.926 -0.1449  1.5739 -1.4274
25764SOL    HW280698  10.767   4.111   0.811 -0.7846  0.0341 -0.2796
25765SOL     OW80699   3.011   9.276   0.428 -0.1494  0.0304  0.1500
25765SOL    HW180700   3.098   9.237   0.438 -0.0535  0.6866  2.0345
25765SOL    HW280701   3.021   9.365   0.463 -1.3287  0.4610 -0.5783
25766SOL     OW80702   6.630   1.474   5.698 -0.1329 -0.1329  0.8101
25766SOL    HW180703   6.640   1.447   5.607  0.8704 -1.5335  1.3116
25766SOL    HW280704   6.560   1.540   5.696 -1.2172 -1.2842 -0.7440
25767SOL     OW80705   0.948   6.911   1.215  0.3549 -0.0325  0.1484
25767SOL    HW180706   0.868   6.925   1.165  0.3066  2.0104  0.7433
25767SOL    HW280707   0.919   6.909   1.306  0.7901 -0.9396  0.2743
25768SOL     OW80708   8.875   7.912   1.809  0.7936 -0.3076  0.0927
25768SOL    HW180709   8.809   7.847   1.788  0.5796 -0.2249  0.5099
25768SOL    HW280710   8.913   7.936   1.725  1.4125 -1.5314  0.0101
25769SOL     OW80711   4.921   2.422   6.467 -0.1422  0.3666 -0.5683
25769SOL    HW180712   4.927   2.409   6.373 -1.9353 -0.6556 -0.5738
25769SOL    HW280713   4.973   2.351   6.505  1.8882  1.7120 -0.7921
25770SOL     OW80714   5.095   4.527   6.512 -0.1361 -0.1934 -0.5783
25770SOL    HW180715   5.002   4.526   6.492 -0.2575  1.6458 -0.2329
25770SOL    HW280716   5.103   4.473   6.591 -0.9211 -0.3371 -0.5920
25771SOL     OW80717   1.035  10.794   1.429  0.1261 -0.3418 -0.6347
25771SOL    HW180718   0.973  10.722   1.431 -1.6530  1.1527 -0.5973
25771SOL    HW280719   0.983  10.870   1.405  1.7099  1.1960  0.6881
25772SOL     OW80720   6.808   6.040   8.704  0.1086 -0.1017  0.5526
25772SOL    HW180721   6.779   6.083   8.624  0.3462  1.4877  1.2787
25772SOL    HW280722   6.781   5.949   8.695  0.7382 -0.0931 -1.6101
25773SOL     OW80723   9.350   6.408   4.998 -0.1134 -0.1472 -0.1531
25773SOL    HW180724   9.361   6.318   4.967 -0.1484 -0.2795  0.2232
25773SOL    HW280725   9.259   6.414   5.024 -0.6899  0.6334 -2.2181
25774SOL     OW80726   4.676   9.512   3.227  0.4123  0.2187  0.2074
25774SOL    HW180727   4.654   9.418   3.225  0.2015  0.2109  1.7752
25774SOL    HW280728   4.767   9.516   3.199 -0.1729 -0.2454 -1.8279
25775SOL     OW80729   6.597   7.531   0.770 -0.0871  0.6888  0.6205
25775SOL    HW180730   6.643   7.615   0.765 -0.1088  0.6651 -0.0116
25775SOL    HW280731   6.665   7.468   0.790  0.1018  0.7054  0.0351
25776SOL     OW80732   4.287   2.167   2.016 -0.0579 -0.5021 -0.3715
25776SOL    HW180733   4.317   2.165   2.107  1.2611 -0.8090 -0.8103
25776SOL    HW280734   4.192   2.178   2.023  0.1810  0.8697  1.0192
25777SOL     OW80735   9.840   6.666   8.663  0.1921  0.4787  0.5176
25777SOL    HW180736   9.866   6.641   8.574 -1.1395  0.6330  0.0702
25777SOL    HW280737   9.861   6.590   8.716  0.0030 -0.0298 -0.1226
25778SOL     OW80738   9.861   0.242   9.424 -0.0791 -0.0734  0.1220
25778SOL    HW180739   9.903   0.193   9.353  0.8418  0.4747  0.2796
25778SOL    HW280740   9.805   0.306   9.379  0.5840  0.3443 -0.1098
25779SOL     OW80741  10.116   8.358   2.608  0.2505 -0.3557 -0.3722
25779SOL    HW180742  10.101   8.368   2.513 -0.0199 -0.7200 -0.3678
25779SOL    HW280743  10.137   8.266   2.620 -0.4036 -0.4632  0.0091
25780SOL     OW80744   4.521   9.718   6.201 -0.4032 -0.0890  0.1389
25780SOL    HW180745   4.520   9.704   6.107  0.5316 -2.9745  0.5271
25780SOL    HW280746   4.496   9.810   6.212 -2.5416 -0.2596 -2.7905
25781SOL     OW80747   9.286   8.856   0.679  0.2382  0.2435 -0.4021
25781SOL    HW180748   9.251   8.816   0.600 -1.6160  0.0314  0.5172
25781SOL    HW280749   9.212   8.901   0.719  0.3935 -2.1508  2.7710
25782SOL     OW80750   2.659   1.731   8.628  0.5936 -0.2110 -0.3617
25782SOL    HW180751   2.649   1.636   8.629  0.7918 -0.2259  2.3008
25782SOL    HW280752   2.574   1.764   8.659  1.0617  0.4114  0.2730
25783SOL     OW80753   6.952   2.468   6.696  0.1822 -0.1062 -0.5186
25783SOL    HW180754   6.970   2.547   6.644  0.5799  0.1307 -0.0253
25783SOL    HW280755   6.883   2.495   6.757 -0.2808 -0.3836 -0.9130
25784SOL     OW80756   6.146   0.393   6.763  0.4054 -0.5722  0.1365
25784SOL    HW180757   6.076   0.349   6.811  2.2785 -1.0143  2.5659
25784SOL    HW280758   6.151   0.480   6.801  2.1301 -1.0388  1.0204
25785SOL     OW80759   4.834   7.703   9.366 -0.5061 -0.2491  0.2072
25785SOL    HW180760   4.899   7.773   9.374 -0.3016 -0.1717 -1.7661
25785SOL    HW280761   4.876   7.626   9.404  0.7298 -0.1729 -0.9516
25786SOL     OW80762   9.397   0.326   9.296 -0.4875 -0.0845 -0.4565
25786SOL    HW180763   9.322   0.273   9.324 -0.0207 -0.4506  0.1330
25786SOL    HW280764   9.411   0.302   9.205  0.6654 -2.1434  0.2266
25787SOL     OW80765  10.493   5.144   8.226 -0.2524  0.2487 -0.3006
25787SOL    HW180766  10.497   5.123   8.319  0.1743  3.4620  0.4615
25787SOL    HW280767  10.431   5.217   8.220  0.2407  0.5390 -2.4439
25788SOL     OW80768   9.109   4.348   4.372 -0.5205  0.1515 -0.1601
25788SOL    HW180769   9.079   4.286   4.438  1.0748 -1.1352 -0.6081
25788SOL    HW280770   9.045   4.342   4.302  0.8146 -2.7238 -1.2073
25789SOL     OW80771   8.624   3.207  10.777  0.1219 -0.3295  0.0585
25789SOL    HW180772   8.531   3.218  10.796  0.7046  0.7792  2.4679
25789SOL    HW280773   8.629   3.122  10.733 -1.9438 -0.7352  0.5390
25790SOL     OW80774   2.428   7.525   8.817  1.0148  0.0849  0.1895
25790SOL    HW180775   2.379   7.496   8.894 -0.2423  2.0188  0.1557
25790SOL    HW280776   2.490   7.590   8.851  0.3366  1.0707 -0.4239
25791SOL     OW80777  10.077   3.946   9.319  0.1244 -0.8630  0.1163
25791SOL    HW180778  10.015   3.886   9.362 -0.8179  0.0698  0.0709
25791SOL    HW280779  10.022   4.018   9.288  0.8457 -1.3642 -2.3814
25792SOL     OW80780   6.687  10.754  10.972 -0.4861 -0.8504 -0.2851
25792SOL    HW180781   6.611  10.811  10.985  1.5033  1.3331  2.4005
25792SOL    HW280782   6.678  10.686  11.039  0.2354 -0.2284  0.4501
25793SOL     OW80783   3.397   4.929   0.495  0.1072  0.1887  0.3647
25793SOL    HW180784   3.401   4.946   0.401  0.9410 -2.3398 -0.0645
25793SOL    HW280785   3.486   4.908   0.520 -0.0531  1.1204  1.8130
25794SOL     OW80786   5.184  10.820   6.427 -0.2692 -0.1165  0.2767
25794SOL    HW180787   5.138  10.736   6.421 -1.5230  0.6630 -1.8824
25794SOL    HW280788   5.267  10.805   6.382 -1.3564  0.3148 -1.9525
25795SOL     OW80789   5.358   9.339   9.829  0.3894 -0.1384 -0.3240
25795SOL    HW180790   5.290   9.373   9.771  1.5701  0.8905 -1.1108
25795SOL    HW280791   5.440   9.356   9.783  1.2792 -0.1820  1.2214
25796SOL     OW80792   8.820   9.663   3.810 -0.1158  0.0076 -0.0162
25796SOL    HW180793   8.741   9.634   3.763  1.3368  0.2295 -2.7085
25796SOL    HW280794   8.828   9.756   3.788  1.0185 -0.0719  0.0538
25797SOL     OW80795   2.317   0.469   5.139  0.1657  0.4113 -0.1895
25797SOL    HW180796   2.232   0.504   5.167  0.5365  0.7772  0.4778
25797SOL    HW280797   2.364   0.451   5.220  0.0395 -1.4937 -0.5296
25798SOL     OW80798   3.089   4.747   2.290 -0.0351  0.3587  0.3184
25798SOL    HW180799   3.172   4.711   2.257  0.2987  1.1106  0.3169
25798SOL    HW280800   3.116   4.819   2.348 -0.6921  0.7749  0.1105
25799SOL     OW80801   1.657   7.936   6.768  0.0114 -0.0718 -0.2451
25799SOL    HW180802   1.672   7.957   6.860  2.1398 -1.6283 -0.2117
25799SOL    HW280803   1.722   7.987   6.721 -0.0371 -0.4853 -0.7635
25800SOL     OW80804   4.280   7.233   4.574 -0.2041 -0.5148  0.3840
25800SOL    HW180805   4.309   7.324   4.573 -0.5237 -0.3884  1.5332
25800SOL    HW280806   4.186   7.237   4.560 -0.2609 -0.6440  0.7119
25801SOL     OW80807   3.988   3.653   9.981  0.5642  0.5422 -0.2327
25801SOL    HW180808   4.001   3.679   9.890 -0.1417  0.6295 -0.3178
25801SOL    HW280809   4.076   3.637  10.015  0.8980  1.4001 -0.6672
25802SOL     OW80810   2.347   6.727   9.035 -0.2889  0.3253 -0.3687
25802SOL    HW180811   2.337   6.642   9.077  0.2511 -0.5317 -1.9204
25802SOL    HW280812   2.319   6.713   8.944  0.0116  1.7345 -0.6999
25803SOL     OW80813   2.523   6.504   9.809  0.8880 -0.4657 -0.5217
25803SOL    HW180814   2.547   6.418   9.844 -0.5180 -0.6883 -0.0837
25803SOL    HW280815   2.495   6.554   9.886 -1.7691 -0.8104 -1.2027
25804SOL     OW80816   5.888   5.646   6.275 -0.5257 -0.5835 -0.0499
25804SOL    HW180817   5.956   5.584   6.251 -0.5134 -1.0915  1.2614
25804SOL    HW280818   5.844   5.667   6.192  0.6478 -0.9161 -0.7678
25805SOL     OW80819   9.995  10.454   8.965  0.0239 -0.2921  0.2748
25805SOL    HW180820  10.070  10.485   8.914  0.1394  1.9225  1.7221
25805SOL    HW280821   9.983  10.363   8.937  1.7945  0.0270 -1.6577
25806SOL     OW80822   0.106   9.019   2.599  0.3808  0.1811 -0.1107
25806SOL    HW180823   0.185   9.058   2.638  0.5468  0.7307 -0.9809
25806SOL    HW280824   0.095   8.936   2.645 -0.3606  1.5309  2.2543
25807SOL     OW80825   3.278   2.635  10.390 -0.1161  0.3799  0.6890
25807SOL    HW180826   3.349   2.696  10.412  0.0437  0.7363 -0.7775
25807SOL    HW280827   3.271   2.578  10.467  1.7614  0.3297  0.8440
25808SOL     OW80828  10.053   1.306  10.202 -0.0596  0.1552 -0.0158
25808SOL    HW180829   9.995   1.241  10.240 -2.5350  2.9480  1.1850
25808SOL    HW280830   9.999   1.352  10.137  1.3411  1.6032 -0.2036
25809SOL     OW80831   5.051   6.653   9.265  0.1352  0.0318 -0.8172
25809SOL    HW180832   5.043   6.644   9.360  1.6204 -0.5539 -0.7357
25809SOL    HW280833   4.967   6.626   9.230  0.3754 -2.0540  0.1928
25810SOL     OW80834   2.126   3.359  10.364 -0.6911 -0.0496 -0.1773
25810SOL    HW180835   2.201   3.310  10.330 -0.3094  0.5717 -0.2425
25810SOL    HW280836   2.105   3.317  10.447 -1.1714 -1.1213 -0.8350
25811SOL     OW80837   9.221  10.389   1.554  0.4199 -0.6299  0.1871
25811SOL    HW180838   9.168  10.342   1.490  1.8155 -0.6670 -0.9715
25811SOL    HW280839   9.223  10.479   1.521 -1.2889  0.0242  1.7788
25812SOL     OW80840   0.751   8.411   0.258 -0.0405 -0.3270  0.4249
25812SOL    HW180841   0.664   8.422   0.298  0.2248 -1.8141  1.4424
25812SOL    HW280842   0.804   8.479   0.300 -0.9760  1.3572 -1.0519
25813SOL     OW80843   7.713   4.118  10.815 -0.2680 -0.8915  0.6884
25813SOL    HW180844   7.734   4.078  10.900  0.0075 -1.3354  0.4194
25813SOL    HW280845   7.798   4.149  10.783 -0.1491 -1.9065 -0.0137
25814SOL     OW80846   9.368   9.809  10.638  0.1109 -0.4534  0.2248
25814SOL    HW180847   9.394   9.900  10.628 -1.5433 -0.0006 -0.1160
25814SOL    HW280848   9.374   9.792  10.732 -1.1601  0.5033  0.4881
25815SOL     OW80849   0.513   4.059   7.566  0.0475 -0.7182 -0.7516
25815SOL    HW180850   0.451   4.131   7.564  1.6049  0.6873  0.0009
25815SOL    HW280851   0.459   3.981   7.576 -1.7229  0.2480 -2.4517
25816SOL     OW80852   3.970   7.406   5.354  0.6860  0.2897  0.1111
25816SOL    HW180853   3.953   7.455   5.273 -1.3684  2.2651  1.6716
25816SOL    HW280854   3.940   7.317   5.336  3.5927 -0.2361 -2.4707
25817SOL     OW80855   4.601   8.331   5.546 -0.2989  0.0357 -0.0808
25817SOL    HW180856   4.572   8.240   5.558 -2.1213  0.5601 -0.3763
25817SOL    HW280857   4.559   8.360   5.465  2.3624  0.3407 -1.3811
25818SOL     OW80858  10.435   0.687   8.350  0.5208 -1.2632  0.2467
25818SOL    HW180859  10.466   0.667   8.439  3.6908  2.7780  0.1795
25818SOL    HW280860  10.451   0.607   8.300  0.0658 -3.0922  2.9215
25819SOL     OW80861   7.783   4.469   5.769 -0.3032 -0.1836 -0.1196
25819SOL    HW180862   7.695   4.436   5.785 -0.1215 -1.0738 -0.9161
25819SOL    HW280863   7.787   4.551   5.817 -1.7048  0.0626 -0.4109
25820SOL     OW80864   6.273   0.171   6.675 -0.3610  0.1904  0.2852
25820SOL    HW180865   6.243   0.259   6.699 -1.4758 -0.1821  0.2767
25820SOL    HW280866   6.245   0.115   6.747 -0.1274 -0.2585  0.0329
25821SOL     OW80867   3.710   4.814   1.159  0.1609  0.0858  0.7804
25821SOL    HW180868   3.662   4.877   1.213 -0.2126  0.4181  0.0635
25821SOL    HW280869   3.650   4.740   1.150 -0.0046  0.2713  0.3452
25822SOL     OW80870   6.386   7.795   4.403  0.4091 -0.2059  0.1480
25822SOL    HW180871   6.455   7.752   4.351  1.2832 -0.3557  1.4219
25822SOL    HW280872   6.332   7.723   4.436  1.3458 -0.2758  1.5397
25823SOL     OW80873   4.916   8.083   6.138 -0.0870  0.4073 -0.4361
25823SOL    HW180874   4.946   8.139   6.210  0.6100 -0.2599 -0.1993
25823SOL    HW280875   4.973   8.107   6.064  0.9864 -0.7924 -0.0139
25824SOL     OW80876   8.783   7.872   7.067  0.1010 -0.5607 -0.4546
25824SOL    HW180877   8.713   7.832   7.120  0.7081 -0.4638  0.4297
25824SOL    HW280878   8.756   7.857   6.977 -1.0994 -0.4762 -0.1197
25825SOL     OW80879   3.304   3.492   6.425  0.1951 -0.3216  0.2162
25825SOL    HW180880   3.340   3.531   6.346  0.3661  0.0812  0.4900
25825SOL    HW280881   3.251   3.561   6.464 -0.1109 -0.6080  0.3112
25826SOL     OW80882   2.529   6.420   8.250 -0.0843  0.0167  0.0137
25826SOL    HW180883   2.485   6.370   8.182 -0.0505 -0.7696  0.5587
25826SOL    HW280884   2.486   6.506   8.250  0.5476  0.3476 -1.6322
25827SOL     OW80885   1.060   0.495   1.688  0.5420 -0.0781  0.7396
25827SOL    HW180886   1.004   0.437   1.636  2.0562 -2.4267  1.6153
25827SOL    HW280887   1.060   0.456   1.775  2.4159  0.6625  1.0947
25828SOL     OW80888   5.668   9.491   3.808  0.6122 -0.8639 -0.0716
25828SOL    HW180889   5.762   9.489   3.790  0.3258 -2.0299 -1.4894
25828SOL    HW280890   5.650   9.408   3.853  0.2424 -0.6578  0.1720
25829SOL     OW80891   7.689   2.169  10.026  0.1482  0.1188 -0.2234
25829SOL    HW180892   7.694   2.193  10.119  0.1604 -0.3164 -0.1090
25829SOL    HW280893   7.772   2.124  10.009  0.1516  0.2115 -0.4514
25830SOL     OW80894   3.909   4.546   6.863  1.0696 -0.3371  0.4750
25830SOL    HW180895   3.822   4.509   6.850  1.7879 -1.9034  0.0592
25830SOL    HW280896   3.922   4.541   6.958  0.3112  0.8499  0.6572
25831SOL     OW80897   8.314   8.416   4.590 -0.2150  0.1368  0.1378
25831SOL    HW180898   8.394   8.459   4.621  0.2255 -0.6877  0.1707
25831SOL    HW280899   8.250   8.487   4.584  0.6801  0.9279 -0.4524
25832SOL     OW80900   7.528   6.424   2.014  0.0880  0.2760  0.2938
25832SOL    HW180901   7.516   6.340   1.969  0.8553  0.2988  0.0415
25832SOL    HW280902   7.597   6.468   1.964  0.1680  0.7647  0.8373
25833SOL     OW80903   1.349   6.194   4.486 -0.0965  0.2076  0.1524
25833SOL    HW180904   1.371   6.180   4.394  1.1386  0.3460  0.4189
25833SOL    HW280905   1.281   6.130   4.505  0.8264 -0.9492 -0.4153
25834SOL     OW80906   9.988   3.287   6.703 -0.1782  0.2817 -0.3114
25834SOL    HW180907   9.976   3.351   6.632 -0.6857  1.0447  0.4599
25834SOL    HW280908   9.905   3.241   6.708  0.5910 -1.2979 -1.6895
25835SOL     OW80909   6.062  10.214   7.140  0.0132  0.2365 -0.0744
25835SOL    HW180910   6.012  10.289   7.107 -0.7188  0.1854  0.8766
25835SOL    HW280911   6.141  10.252   7.178 -0.1748  0.4903  0.0609
25836SOL     OW80912   9.527   5.881   4.556  0.1810 -0.8414 -0.3404
25836SOL    HW180913   9.445   5.912   4.519 -0.1649  0.1713  1.2113
25836SOL    HW280914   9.535   5.928   4.639  2.0244 -1.3847 -0.1845
25837SOL     OW80915   8.401   2.355   1.442  0.0313  0.1627  0.0936
25837SOL    HW180916   8.335   2.405   1.491 -1.4592 -0.9514 -0.7274
25837SOL    HW280917   8.472   2.418   1.426 -1.0927  1.5601  0.4779
25838SOL     OW80918   4.603   1.205   5.166  0.1749  0.5277  0.5052
25838SOL    HW180919   4.630   1.197   5.074 -0.3172 -0.6641  0.4614
25838SOL    HW280920   4.517   1.165   5.169  0.9027 -0.9871  1.8126
25839SOL     OW80921   6.856   3.410   4.276 -0.1877 -0.0982 -0.0909
25839SOL    HW180922   6.928   3.431   4.335 -0.2696  0.3631 -0.1567
25839SOL    HW280923   6.780   3.456   4.313  0.2795  2.2344 -1.9172
25840SOL     OW80924   6.458   4.165   2.551  0.1383  0.5189 -0.0525
25840SOL    HW180925   6.451   4.170   2.456  0.3842  0.0457 -0.0988
25840SOL    HW280926   6.369   4.182   2.583 -0.3714 -1.2446 -0.4478
25841SOL     OW80927   1.986   1.232   3.092 -0.4180 -0.0750 -0.8385
25841SOL    HW180928   1.892   1.227   3.110 -0.3331 -2.5276 -0.8352
25841SOL    HW280929   2.021   1.288   3.161 -1.9457  1.2698 -1.1405
25842SOL     OW80930   7.027   9.934   2.510  0.0771  0.0810 -0.1408
25842SOL    HW180931   6.952   9.988   2.487  0.2411  0.4619  0.2062
25842SOL    HW280932   7.074   9.986   2.576 -0.3116 -0.9129  0.9327
25843SOL     OW80933   4.185   0.061   1.078 -0.0772 -0.0390  0.1076
25843SOL    HW180934   4.254   0.120   1.048  1.0794 -1.8860 -0.9576
25843SOL    HW280935   4.222   0.017   1.155 -1.2071  1.1062  1.3471
25844SOL     OW80936   6.273   4.227   9.421  0.3566 -0.3850  0.1776
25844SOL    HW180937   6.293   4.134   9.415 -1.5146 -0.7429 -0.9880
25844SOL    HW280938   6.276   4.246   9.515  0.6627 -1.6356  0.4294
25845SOL     OW80939   5.953   7.820   6.521  0.2524 -0.0096 -0.3488
25845SOL    HW180940   5.991   7.863   6.598 -0.7814 -0.5950  0.4965
25845SOL    HW280941   5.998   7.860   6.447 -0.7404  2.6182  0.4117
25846SOL     OW80942   4.935   6.261   8.661  0.1229  0.1450 -0.9390
25846SOL    HW180943   4.858   6.247   8.716 -0.2458 -0.5080 -1.6071
25846SOL    HW280944   5.005   6.286   8.722 -0.7079  1.1064 -0.3783
25847SOL     OW80945   4.798   1.746   0.150  0.0533  0.1447 -0.3798
25847SOL    HW180946   4.826   1.830   0.185  1.9485  0.0774 -1.6719
25847SOL    HW280947   4.843   1.681   0.204 -0.0203 -0.0216 -0.5173
25848SOL     OW80948   4.762   6.242   6.389 -0.0239  0.1471  0.6845
25848SOL    HW180949   4.762   6.328   6.432 -0.2148 -0.4168  1.8456
25848SOL    HW280950   4.852   6.211   6.398  0.1103  0.3408  0.0201
25849SOL     OW80951   1.951   3.635   0.020 -0.7049 -0.3879 -0.1485
25849SOL    HW180952   1.967   3.543   0.040 -1.5766 -0.3140  0.9663
25849SOL    HW280953   1.882   3.661   0.081  0.3642  1.3328  0.3672
25850SOL     OW80954   2.564   8.179   8.486 -0.2173  0.0524 -0.6536
25850SOL    HW180955   2.658   8.160   8.480  0.4758  2.2188  2.4254
25850SOL    HW280956   2.529   8.107   8.539 -0.4742 -1.1007 -2.3247
25851SOL     OW80957  10.063   2.889   3.856 -0.0373  0.4636 -0.7369
25851SOL    HW180958   9.973   2.894   3.890  0.7187  1.3558  1.2088
25851SOL    HW280959  10.098   2.809   3.894  0.7512  1.3642  0.4772
25852SOL     OW80960   8.998   2.422   5.932 -0.3478  0.6700 -0.5273
25852SOL    HW180961   8.941   2.355   5.894 -1.6378  1.5508 -0.1814
25852SOL    HW280962   9.059   2.373   5.987 -0.5902 -0.3153 -1.1213
25853SOL     OW80963   5.805   7.703   0.087 -0.6223 -0.4970 -0.1365
25853SOL    HW180964   5.808   7.608   0.097 -0.9886 -0.2701  2.6734
25853SOL    HW280965   5.739   7.719   0.019 -0.7281 -2.2301 -0.4562
25854SOL     OW80966   0.974   9.279   1.138  0.0567 -0.4999 -0.0630
25854SOL    HW180967   0.930   9.220   1.199  0.0491 -1.3036 -0.8466
25854SOL    HW280968   0.907   9.300   1.073 -0.3469  1.4205  0.9194
25855SOL     OW80969   6.637   2.705   6.259 -0.6587 -0.8013 -0.2861
25855SOL    HW180970   6.647   2.793   6.221 -2.8190 -0.2121  0.4266
25855SOL    HW280971   6.667   2.715   6.350 -1.0662 -0.7353 -0.1552
25856SOL     OW80972   2.288   0.333   5.710 -0.3584 -0.3610 -0.1315
25856SOL    HW180973   2.322   0.397   5.772  0.4992 -0.3379 -0.6086
25856SOL    HW280974   2.367   0.290   5.675 -0.7870  0.2108 -1.8211
25857SOL     OW80975   9.255  10.159   3.215 -0.0835  0.4404 -0.5104
25857SOL    HW180976   9.311  10.204   3.152  1.0995 -1.8201 -1.1053
25857SOL    HW280977   9.308  10.153   3.295  0.5207 -1.6560 -1.0586
25858SOL     OW80978   9.538   9.777   9.198 -0.2265  0.7078  0.2333
25858SOL    HW180979   9.576   9.754   9.113  1.4255  0.7873  0.9128
25858SOL    HW280980   9.501   9.696   9.230 -2.0051  0.9614 -1.1166
25859SOL     OW80981   5.518  10.733   8.054 -0.3126 -0.2387 -0.3872
25859SOL    HW180982   5.594  10.789   8.038  1.3754 -2.2670  0.2482
25859SOL    HW280983   5.487  10.709   7.967 -1.4257  2.1188 -0.6720
25860SOL     OW80984   7.134   9.298   2.468  0.2734  0.4402 -0.2772
25860SOL    HW180985   7.193   9.350   2.413  1.0125  0.5106  0.5809
25860SOL    HW280986   7.185   9.223   2.496  0.7079  1.6269  2.2904
25861SOL     OW80987  10.551   4.192   7.867 -0.1817 -0.7394  0.5250
25861SOL    HW180988  10.643   4.197   7.842 -0.8253  1.6304 -1.5113
25861SOL    HW280989  10.518   4.115   7.820  0.5973 -1.3166  0.8898
25862SOL     OW80990   8.874   8.086   2.925 -0.6644  0.0684  0.6522
25862SOL    HW180991   8.816   8.049   2.859  1.8627 -2.3109 -0.3354
25862SOL    HW280992   8.917   8.159   2.881 -0.6588 -0.0928  0.3897
25863SOL     OW80993   3.038   3.026   1.670 -0.5064  0.0733 -0.3936
25863SOL    HW180994   3.019   3.091   1.603  1.0830  1.0459  0.0664
25863SOL    HW280995   3.082   3.075   1.739  0.3992 -1.4384  0.1273
25864SOL     OW80996   1.074   6.247   2.871 -0.4507  0.3007 -0.3067
25864SOL    HW180997   1.071   6.160   2.910 -0.2949  0.1309 -0.6697
25864SOL    HW280998   1.164   6.257   2.841 -0.3510  0.7709  0.1433
25865SOL     OW80999   9.588   9.075   5.552  0.1488 -0.3792  0.0114
25865SOL    HW181000   9.535   9.011   5.601  0.8101 -1.9133 -1.2128
25865SOL    HW281001   9.524   9.132   5.510 -0.4702 -0.5662  0.6919
25866SOL     OW81002  10.555   8.296   5.207 -0.5018 -0.1435 -0.5794
25866SOL    HW181003  10.553   8.204   5.235 -0.3382 -0.5573 -1.8527
25866SOL    HW281004  10.465   8.326   5.215 -0.3611 -0.0901  0.8732
25867SOL     OW81005   5.942   1.048   2.096  0.3113 -0.2043  0.1914
25867SOL    HW181006   5.936   0.978   2.030 -1.3302 -1.1264  1.2771
25867SOL    HW281007   6.033   1.045   2.126 -0.0242 -2.6872  1.0710
25868SOL     OW81008   5.579   5.824   7.862 -0.4531 -0.0085  0.1522
25868SOL    HW181009   5.601   5.744   7.908  2.6030 -0.3289 -1.7304
25868SOL    HW281010   5.512   5.798   7.798 -1.5355 -0.4453  1.4549
25869SOL     OW81011   1.726   3.351   8.071 -0.3223  0.0243 -0.1375
25869SOL    HW181012   1.766   3.387   7.992 -1.5372  0.7758 -0.4142
25869SOL    HW281013   1.686   3.427   8.114  0.3315 -0.3802  1.1964
25870SOL     OW81014   2.764   1.143   6.790 -0.3199 -0.1665 -0.2146
25870SOL    HW181015   2.776   1.233   6.759  1.8870 -0.2442  0.3619
25870SOL    HW281016   2.763   1.151   6.885  0.6540 -0.8478 -0.1450
25871SOL     OW81017   1.186   1.568   4.311 -0.0816 -0.1458  0.0410
25871SOL    HW181018   1.205   1.538   4.223  1.7940 -0.2637  0.4757
25871SOL    HW281019   1.130   1.499   4.348  1.8876 -1.7543  0.0710
25872SOL     OW81020   9.978   7.382   0.772 -0.5371  0.2150 -0.0734
25872SOL    HW181021   9.884   7.368   0.781 -0.6528  0.9395 -0.1061
25872SOL    HW281022  10.016   7.295   0.782 -1.2315 -0.1273 -0.3622
25873SOL     OW81023   1.907   2.853   6.804  0.4350  0.7531 -0.1234
25873SOL    HW181024   1.816   2.856   6.777 -0.3831 -0.0921  2.3701
25873SOL    HW281025   1.942   2.940   6.784 -1.6093  1.9018  1.1117
25874SOL     OW81026   4.187  10.405  10.861 -0.2218  0.4223 -0.3647
25874SOL    HW181027   4.194  10.335  10.926 -0.0042 -1.0059 -1.8988
25874SOL    HW281028   4.277  10.429  10.841 -0.2170 -0.7221 -1.7922
25875SOL     OW81029   5.660   1.508  10.662 -0.1517 -0.4803 -0.0494
25875SOL    HW181030   5.739   1.557  10.683 -1.5327  1.5261  0.6281
25875SOL    HW281031   5.596   1.535  10.728 -0.2591 -5.1526  1.9306
25876SOL     OW81032  10.362   8.419   5.960  0.2809  0.4974 -0.6003
25876SOL    HW181033  10.274   8.423   5.923  1.0095  1.3562 -2.3220
25876SOL    HW281034  10.355   8.358   6.033 -2.0981  1.7840  0.2932
25877SOL     OW81035   4.741   7.301   8.114 -0.1094  0.3434  0.1288
25877SOL    HW181036   4.830   7.305   8.079  0.1414  1.7049  0.8850
25877SOL    HW281037   4.704   7.220   8.077  1.6710 -0.6122  0.3777
25878SOL     OW81038   2.637   0.601   1.268  0.1286 -0.0803 -0.1837
25878SOL    HW181039   2.556   0.652   1.272  0.2014 -0.0163  0.7406
25878SOL    HW281040   2.704   0.665   1.243 -0.1870 -0.2376 -1.4376
25879SOL     OW81041   3.006   1.587   3.997  0.7007  0.1805 -0.0893
25879SOL    HW181042   3.045   1.674   4.005  0.8275  0.1464 -0.3458
25879SOL    HW281043   2.914   1.604   3.977  0.9318  0.2459 -1.0877
25880SOL     OW81044   5.396   4.811   9.059  0.4117 -0.2774 -0.6988
25880SOL    HW181045   5.481   4.847   9.085  0.3420 -0.0693 -0.7587
25880SOL    HW281046   5.386   4.837   8.967 -0.1548  0.5289 -0.4144
25881SOL     OW81047   8.743   6.668   7.672 -0.5932 -0.0133 -0.0801
25881SOL    HW181048   8.693   6.586   7.675 -2.1487  0.9328  0.3122
25881SOL    HW281049   8.783   6.668   7.584 -0.8539 -1.0234 -0.2054
25882SOL     OW81050  10.245   9.083   3.227  0.1220  0.1514  0.5718
25882SOL    HW181051  10.306   9.153   3.207  0.2747  0.3896  1.8357
25882SOL    HW281052  10.261   9.062   3.319 -0.9599 -0.5109  0.6240
25883SOL     OW81053   8.229   3.747   4.376  0.5469  0.8342  0.0325
25883SOL    HW181054   8.314   3.703   4.381  0.2261  0.2911  0.7339
25883SOL    HW281055   8.187   3.709   4.299  0.2400 -0.1588  0.6750
25884SOL     OW81056   9.048   8.074   1.454  0.2359 -0.0228 -0.1993
25884SOL    HW181057   9.094   8.111   1.379 -0.1272 -0.4852 -0.6604
25884SOL    HW281058   8.976   8.134   1.471  2.4111  2.0270  2.0783
25885SOL     OW81059   3.239   9.895   3.832  0.0131  0.1998 -0.2423
25885SOL    HW181060   3.303   9.913   3.901 -0.7537 -0.3820  0.6360
25885SOL    HW281061   3.287   9.909   3.751  0.6086  2.0533  0.3935
25886SOL     OW81062   1.273   4.860   7.463  0.4022  0.2735 -0.2353
25886SOL    HW181063   1.182   4.842   7.487  0.7702 -0.2141  0.8022
25886SOL    HW281064   1.323   4.785   7.496  1.5396  1.7529  1.5060
25887SOL     OW81065   4.802   3.224   5.293 -0.0624  0.0811 -1.0117
25887SOL    HW181066   4.860   3.200   5.221 -0.1961  0.0779 -1.1171
25887SOL    HW281067   4.818   3.317   5.307 -0.2284  0.1404 -1.2175
25888SOL     OW81068   8.466   8.321   0.472 -0.3922  0.0566  0.7060
25888SOL    HW181069   8.499   8.248   0.524 -0.8917  0.2508  1.2939
25888SOL    HW281070   8.404   8.280   0.411 -0.3531 -0.0718  0.7504
25889SOL     OW81071   5.332   0.017   1.522 -0.1407  0.2660 -0.1275
25889SOL    HW181072   5.320  -0.014   1.433  0.3404 -0.0644 -0.0753
25889SOL    HW281073   5.251   0.064   1.542 -0.0954  0.6613 -0.8661
25890SOL     OW81074   5.838   3.251   2.024  0.0959 -0.4381  0.0712
25890SOL    HW181075   5.829   3.345   2.010 -0.3683 -0.6649 -1.2216
25890SOL    HW281076   5.812   3.212   1.941  1.4695 -1.6624  0.1915
25891SOL     OW81077   7.548   3.339   5.783 -0.5614 -0.5615  0.6129
25891SOL    HW181078   7.520   3.422   5.746  1.8766  0.0332 -0.0206
25891SOL    HW281079   7.538   3.350   5.878 -2.1194 -0.2895  0.4282
25892SOL     OW81080   3.041   3.968   5.332 -0.0608 -0.3035  0.0884
25892SOL    HW181081   3.009   4.050   5.370  2.2037  0.7316 -0.1972
25892SOL    HW281082   3.104   3.995   5.265  0.1445 -2.2698 -0.5485
25893SOL     OW81083   5.830   1.548   7.902  0.2708  0.4122 -0.6334
25893SOL    HW181084   5.906   1.532   7.957  0.6142  1.5712 -0.7639
25893SOL    HW281085   5.785   1.622   7.944 -0.1199  0.5230 -1.2357
25894SOL     OW81086   6.503   2.811   4.834 -0.3581 -0.4161 -0.0782
25894SOL    HW181087   6.476   2.761   4.911 -1.8943 -0.4371 -0.6292
25894SOL    HW281088   6.519   2.899   4.868 -0.1871 -0.6275  0.4105
25895SOL     OW81089   4.239   5.131   1.415  0.3254 -0.6031  0.1836
25895SOL    HW181090   4.147   5.157   1.420  0.5321  0.1182  0.1847
25895SOL    HW281091   4.277   5.161   1.498 -0.0170 -3.1697  1.3384
25896SOL     OW81092   0.692   8.461   9.134 -0.0431  0.1772  0.5290
25896SOL    HW181093   0.641   8.393   9.091  0.6780 -0.4832  0.7043
25896SOL    HW281094   0.666   8.456   9.226 -0.3285  0.4524  0.4646
25897SOL     OW81095   3.819   0.229   6.218  0.2654  0.0760  0.1847
25897SOL    HW181096   3.902   0.219   6.172 -0.3237  1.5495 -1.2401
25897SOL    HW281097   3.768   0.287   6.162 -1.4518 -0.2275  1.4163
25898SOL     OW81098   2.087   6.478  10.279 -0.5466 -0.5346  0.2315
25898SOL    HW181099   2.107   6.571  10.290 -0.9497 -0.5524  1.1758
25898SOL    HW281100   2.169   6.439  10.248 -0.9777  0.4942 -2.3703
25899SOL     OW81101   3.520   3.908   3.770  0.2116  0.5353  0.6563
25899SOL    HW181102   3.605   3.864   3.759  0.4511  0.4093  2.8071
25899SOL    HW281103   3.541   4.002   3.766 -0.0071  0.5218 -1.8189
25900SOL     OW81104   2.747   5.164   6.033  0.4805 -0.0072 -0.1510
25900SOL    HW181105   2.790   5.243   6.064  2.5730 -1.0172 -0.3436
25900SOL    HW281106   2.702   5.129   6.110  0.1109  1.0012  0.0959
25901SOL     OW81107   2.331   8.433   8.050  0.2001  0.2954 -0.5243
25901SOL    HW181108   2.260   8.374   8.076  1.7134 -1.5012 -0.2674
25901SOL    HW281109   2.314   8.453   7.958 -0.6959 -0.0284 -0.4358
25902SOL     OW81110   6.282   3.616   6.246  0.2875  0.3415  0.1468
25902SOL    HW181111   6.220   3.688   6.249  0.3225  0.3409  1.0174
25902SOL    HW281112   6.302   3.605   6.153 -1.9853 -0.4917 -0.2850
25903SOL     OW81113   6.624   1.247   0.893  0.3569  0.3234  1.0632
25903SOL    HW181114   6.637   1.336   0.861  0.6702  0.3908  1.3688
25903SOL    HW281115   6.661   1.249   0.982  0.7375 -0.2187  0.9159
25904SOL     OW81116   9.003   1.575   0.238  0.2602 -0.0022  0.2670
25904SOL    HW181117   9.097   1.585   0.255  0.3607  1.5561 -1.0427
25904SOL    HW281118   8.961   1.592   0.322  1.1096  0.1528  0.6640
25905SOL     OW81119   0.627   3.238   4.003 -0.4239 -0.1104 -0.6269
25905SOL    HW181120   0.562   3.175   4.034  0.2954 -0.9081 -0.7395
25905SOL    HW281121   0.712   3.199   4.025  0.0380  2.3060  2.3547
25906SOL     OW81122   9.689   9.115   3.382 -0.2578 -0.2439  0.0507
25906SOL    HW181123   9.644   9.148   3.305  1.0811  0.7506 -0.3138
25906SOL    HW281124   9.714   9.025   3.359 -0.8548 -0.3384 -0.2340
25907SOL     OW81125   8.315   3.141   0.113 -0.3560  0.1653 -0.6703
25907SOL    HW181126   8.343   3.086   0.185  0.7282  0.6605 -0.6992
25907SOL    HW281127   8.269   3.082   0.053 -1.3184 -0.2325  0.4447
25908SOL     OW81128   2.352   9.804   5.987  0.0367  0.2183 -0.4260
25908SOL    HW181129   2.335   9.813   5.893 -2.9431 -1.2152 -0.0909
25908SOL    HW281130   2.445   9.824   5.997  0.7866 -1.2693 -3.8962
25909SOL     OW81131   5.851  10.942   9.372 -0.1127 -0.1716  0.2254
25909SOL    HW181132   5.849  10.877   9.442  2.0069 -0.1874  0.2748
25909SOL    HW281133   5.782  11.005   9.397 -1.1410 -1.5570  0.9530
25910SOL     OW81134   0.091   0.483  10.058  0.2435 -0.1777 -0.2404
25910SOL    HW181135   0.104   0.444   9.972 -1.5182  0.0930 -0.6472
25910SOL    HW281136   0.010   0.533  10.050  1.7052  2.4119  0.6865
25911SOL     OW81137   8.620   2.854   0.766 -0.2571  0.3822 -0.4513
25911SOL    HW181138   8.542   2.818   0.808 -1.5081  1.0924 -2.0499
25911SOL    HW281139   8.584   2.912   0.697  1.6842  0.4714 -1.4135
25912SOL     OW81140   3.336   0.016   5.608 -0.2490  1.0414  0.2453
25912SOL    HW181141   3.326   0.001   5.703  0.1676  1.0992  0.3007
25912SOL    HW281142   3.336   0.111   5.599 -0.1759  1.0372  0.2008
25913SOL     OW81143  10.382   9.170   2.693  0.1898 -0.2911  0.3222
25913SOL    HW181144  10.314   9.197   2.631  3.1899 -0.3122 -3.1096
25913SOL    HW281145  10.436   9.108   2.644  4.0372  1.4495  2.1552
25914SOL     OW81146   0.934   4.017   2.021  0.0657 -0.1270  0.4952
25914SOL    HW181147   0.954   4.000   2.113 -3.6575 -1.0776  1.2037
25914SOL    HW281148   0.839   4.025   2.018 -0.0112 -1.3454 -3.4486
25915SOL     OW81149   0.612   4.131   6.438  0.2867  0.6413  0.3585
25915SOL    HW181150   0.679   4.199   6.437  1.5901 -0.6294 -1.0124
25915SOL    HW281151   0.632   4.079   6.515  0.8083  0.3446  0.0266
25916SOL     OW81152   4.897   6.554   4.241 -0.3242  0.3104 -0.0895
25916SOL    HW181153   4.865   6.582   4.156 -1.6871 -2.5816 -0.5717
25916SOL    HW281154   4.819   6.552   4.297  0.1027 -0.4321  0.4976
25917SOL     OW81155   5.024   0.474   0.017  0.1099 -0.0581  0.3953
25917SOL    HW181156   5.022   0.564  -0.015  1.0358 -0.7823 -1.7974
25917SOL    HW281157   4.971   0.425  -0.045  0.5262 -1.2136  0.9364
25918SOL     OW81158   8.578   7.359   9.468 -0.2686 -0.3181  0.0541
25918SOL    HW181159   8.557   7.395   9.555 -0.2843 -0.4982  0.1241
25918SOL    HW281160   8.610   7.434   9.418  1.1503 -0.4951  0.6702
25919SOL     OW81161   3.400   5.644   8.360 -0.1155  0.0856  0.4732
25919SOL    HW181162   3.369   5.735   8.359 -0.8378 -0.1586 -1.8177
25919SOL    HW281163   3.325   5.593   8.389 -0.2924  0.0145 -0.1172
25920SOL     OW81164   1.144   0.062   6.912 -0.3422  0.4353 -0.4153
25920SOL    HW181165   1.143  -0.031   6.932  0.5333  0.5418  0.1594
25920SOL    HW281166   1.230   0.077   6.871 -1.0701  0.7049 -1.8635
25921SOL     OW81167   1.705  10.710   9.862 -0.0066 -0.5546 -0.3627
25921SOL    HW181168   1.632  10.750   9.815 -1.0128  0.3010  1.8564
25921SOL    HW281169   1.682  10.618   9.869  1.2252 -1.1484 -3.4706
25922SOL     OW81170   4.030   3.854   3.464 -0.1326 -0.3999  0.9391
25922SOL    HW181171   4.119   3.856   3.428  0.6515 -0.5675  2.8325
25922SOL    HW281172   3.975   3.880   3.391  1.5375  0.4200 -0.0710
25923SOL     OW81173  10.064   9.174  10.204  0.3201 -0.3728  0.0640
25923SOL    HW181174  10.093   9.105  10.263  0.2219  0.2714  0.8643
25923SOL    HW281175  10.144   9.197  10.155  0.7796  0.2391  1.0981
25924SOL     OW81176  10.518   2.386   3.791  0.6021  0.3059 -0.1336
25924SOL    HW181177  10.593   2.349   3.744 -0.6155 -1.8076 -0.4767
25924SOL    HW281178  10.442   2.346   3.750 -0.5070 -2.3010  4.1743
25925SOL     OW81179  10.901   8.025   1.196  0.3716  0.1849 -0.1467
25925SOL    HW181180  10.815   8.042   1.236 -0.3896  2.0999 -2.4912
25925SOL    HW281181  10.962   8.025   1.270 -1.6194 -1.1342  1.5491
25926SOL     OW81182   2.227   4.960   9.881 -0.0180  0.1106  0.3213
25926SOL    HW181183   2.163   4.896   9.912  0.0914 -0.2080 -0.1136
25926SOL    HW281184   2.197   5.044   9.918 -0.9400  0.0395 -0.2620
25927SOL     OW81185   0.155   9.661   1.291 -0.2078 -0.2415 -0.4254
25927SOL    HW181186   0.238   9.625   1.260  0.6850  2.5366 -1.4606
25927SOL    HW281187   0.165   9.756   1.281 -2.7502  0.2701  1.3690
25928SOL     OW81188  10.933   1.188   1.433  0.0734 -0.2089  0.2019
25928SOL    HW181189  11.007   1.136   1.403 -0.1386 -0.9327  0.9191
25928SOL    HW281190  10.857   1.133   1.415 -0.3807  0.8626 -1.2969
25929SOL     OW81191   9.125   3.209   4.203  0.3686 -0.7852  0.6698
25929SOL    HW181192   9.044   3.200   4.254 -0.4073  0.6752 -0.2787
25929SOL    HW281193   9.145   3.302   4.205 -0.0274 -0.5991 -2.1931
25930SOL     OW81194   6.517   4.241   2.293  0.1132  0.7886  0.3588
25930SOL    HW181195   6.496   4.326   2.330  0.8783  1.2363 -0.2286
25930SOL    HW281196   6.506   4.252   2.198  2.5477  0.9219  0.0696
25931SOL     OW81197   0.163   9.432   3.392 -0.7799  0.3193 -0.7377
25931SOL    HW181198   0.233   9.497   3.399 -0.6039  0.1142 -0.5899
25931SOL    HW281199   0.104   9.452   3.465 -1.9129  1.7280 -1.9925
25932SOL     OW81200   0.915   6.330   7.601 -0.5900  0.5025  0.0946
25932SOL    HW181201   0.868   6.300   7.678 -1.5783  1.2028 -0.2277
25932SOL    HW281202   0.849   6.334   7.532  0.0730  0.8590 -0.5297
25933SOL     OW81203   0.810   3.422   5.696  0.3791 -0.1529 -0.1597
25933SOL    HW181204   0.789   3.349   5.637  0.5868  0.3096 -0.8109
25933SOL    HW281205   0.864   3.382   5.764 -0.8068 -0.9220  0.3552
25934SOL     OW81206   4.608   8.195   3.669  0.4908 -0.1708  0.1283
25934SOL    HW181207   4.521   8.168   3.698  0.6518 -1.0915 -0.2170
25934SOL    HW281208   4.591   8.257   3.598  0.1116 -0.2327  0.1608
25935SOL     OW81209   6.338   8.694   2.665 -0.0413 -0.7042 -0.3348
25935SOL    HW181210   6.301   8.779   2.640  0.6257 -0.0737  0.7608
25935SOL    HW281211   6.413   8.717   2.720 -0.4953 -2.0228  0.8428
25936SOL     OW81212   8.507   5.011  10.422  0.3770  0.2761  0.2457
25936SOL    HW181213   8.566   4.948  10.382 -0.5256  1.3602 -3.0067
25936SOL    HW281214   8.553   5.095  10.415 -0.0065  0.5582  1.0620
25937SOL     OW81215   1.560   9.400   9.765 -0.2708  0.2632 -0.0603
25937SOL    HW181216   1.630   9.381   9.702 -2.0006 -0.6451 -1.7813
25937SOL    HW281217   1.543   9.317   9.808 -1.6607 -0.0332 -1.1254
25938SOL     OW81218   2.638   6.654   1.146  0.6928 -0.0672 -0.1884
25938SOL    HW181219   2.617   6.653   1.053  1.6125 -0.9132 -0.3863
25938SOL    HW281220   2.578   6.591   1.185  0.3319  0.2611 -0.2113
25939SOL     OW81221   3.674   5.431   7.731 -0.0956  0.2858 -0.3940
25939SOL    HW181222   3.743   5.482   7.774 -0.1356 -0.7193  0.8928
25939SOL    HW281223   3.606   5.495   7.711  0.4539  0.9779 -0.0710
25940SOL     OW81224   1.622   0.690   3.573  0.2086 -0.2503  0.2461
25940SOL    HW181225   1.613   0.622   3.640 -2.1590  0.1408  0.3627
25940SOL    HW281226   1.553   0.753   3.594  1.2979  1.3435 -0.8701
25941SOL     OW81227   9.760   3.058   8.231  0.9510 -0.0195  0.3066
25941SOL    HW181228   9.848   3.067   8.267  1.0108  1.8329 -0.2615
25941SOL    HW281229   9.764   3.104   8.147 -0.7879  0.7953  0.6553
25942SOL     OW81230   8.231  10.337   7.937  0.3210 -0.3986  0.2649
25942SOL    HW181231   8.140  10.310   7.945  0.1280  0.0711 -0.2610
25942SOL    HW281232   8.268  10.279   7.870  0.5182 -0.8592  0.7749
25943SOL     OW81233   5.967   0.475   6.090  0.5005 -0.2637  0.3803
25943SOL    HW181234   6.045   0.419   6.096 -0.0052 -0.9532  0.5223
25943SOL    HW281235   6.001   0.558   6.058  1.2123 -0.7583 -0.1917
25944SOL     OW81236   3.517  10.461   0.245  0.1162  0.4136  0.4101
25944SOL    HW181237   3.606  10.430   0.257 -0.1391 -0.5467 -0.1167
25944SOL    HW281238   3.468  10.384   0.218 -0.2594  1.5324 -2.2486
25945SOL     OW81239   1.100   8.277   4.223 -0.6584 -0.1373 -0.4791
25945SOL    HW181240   1.099   8.372   4.211  1.8413  0.4009  2.7951
25945SOL    HW281241   1.021   8.258   4.273  1.0010  0.8826  2.6394
25946SOL     OW81242   6.813   2.392   5.670 -0.3528 -0.4782  0.1499
25946SOL    HW181243   6.750   2.397   5.598  1.4296  0.4095 -1.4162
25946SOL    HW281244   6.807   2.477   5.713  0.3148 -0.0943 -0.4980
25947SOL     OW81245   6.118   1.272   2.309 -0.1982  0.0019  0.0443
25947SOL    HW181246   6.023   1.273   2.300 -0.3307 -0.2872  1.3636
25947SOL    HW281247   6.142   1.364   2.315 -0.4754  0.0458  0.4926
25948SOL     OW81248   9.056   2.467   3.998 -0.4999 -0.1780 -0.2136
25948SOL    HW181249   9.045   2.390   4.054 -0.7704  0.6613  0.8921
25948SOL    HW281250   9.139   2.452   3.953 -0.9315 -1.4981 -0.6212
25949SOL     OW81251   6.092   8.921   4.367 -0.2145 -0.0584  0.1515
25949SOL    HW181252   6.122   8.990   4.307  1.2120  0.0980  1.0252
25949SOL    HW281253   6.025   8.874   4.317 -0.3513  1.2164 -0.8919
25950SOL     OW81254   0.241   0.078  10.476 -0.2730  0.1348 -0.0858
25950SOL    HW181255   0.195   0.098  10.394 -1.4728  1.5936  0.9216
25950SOL    HW281256   0.190   0.122  10.544  1.6647  0.3607  1.2702
25951SOL     OW81257  10.152   7.489   8.925  0.9460 -0.2993  0.0355
25951SOL    HW181258  10.210   7.418   8.954  1.3238  0.3104  0.7932
25951SOL    HW281259  10.201   7.569   8.944 -0.5028  0.2551  1.4556
25952SOL     OW81260  10.181   8.134   9.037  0.1199  0.3754 -0.0169
25952SOL    HW181261  10.180   8.089   9.121 -2.7784 -0.2475 -0.3514
25952SOL    HW281262  10.274   8.153   9.021  0.8731 -1.0430  2.4686
25953SOL     OW81263   3.955   5.199   3.573  0.1438  0.4641 -0.0437
25953SOL    HW181264   4.012   5.222   3.500  0.6659  0.2187  0.2863
25953SOL    HW281265   3.922   5.282   3.606 -1.0262  0.5181 -1.3012
25954SOL     OW81266   1.453   2.923   3.865  0.1508 -0.0806  0.4352
25954SOL    HW181267   1.436   3.010   3.829  0.8413  0.3414  1.1098
25954SOL    HW281268   1.534   2.895   3.822 -0.1330 -0.4496  0.1311
25955SOL     OW81269   3.369   6.019   9.859  1.1012  0.2700 -0.7144
25955SOL    HW181270   3.328   5.940   9.895 -0.9641  1.3062 -0.6848
25955SOL    HW281271   3.402   5.992   9.774 -1.0796 -0.2582 -1.4408
25956SOL     OW81272   6.045   4.983   3.258 -0.7587 -0.0915 -0.1743
25956SOL    HW181273   6.058   4.999   3.351 -1.0111  1.1595 -0.3483
25956SOL    HW281274   6.050   4.888   3.249 -0.4727 -0.2015  1.0719
25957SOL     OW81275   7.273   6.164   9.307 -0.4924 -0.1250  0.6818
25957SOL    HW181276   7.307   6.235   9.362 -0.7475  0.0308  0.6394
25957SOL    HW281277   7.309   6.084   9.345  1.1331  0.1517 -0.2446
25958SOL     OW81278   9.741   7.366   8.360  0.1070 -0.3746 -0.6167
25958SOL    HW181279   9.724   7.371   8.454  0.8421 -0.0903 -0.4938
25958SOL    HW281280   9.673   7.421   8.320 -0.4673 -0.8367 -0.2883
25959SOL     OW81281   5.426   1.555   4.807  0.4836 -0.1311  0.2189
25959SOL    HW181282   5.501   1.519   4.855  1.3744  1.5032  0.0848
25959SOL    HW281283   5.365   1.482   4.801  2.0157 -1.4736  0.4217
25960SOL     OW81284   9.885   7.612   0.118  0.1755 -0.0131  0.5532
25960SOL    HW181285   9.957   7.672   0.135 -0.7961  0.9752  1.2627
25960SOL    HW281286   9.890   7.548   0.189  1.7645 -1.3089 -0.7176
25961SOL     OW81287   8.505   1.161   9.449  0.3342  0.4992 -0.7428
25961SOL    HW181288   8.572   1.146   9.383  0.7332  1.6644 -0.6190
25961SOL    HW281289   8.450   1.083   9.446  3.4666 -1.9033  1.3162
25962SOL     OW81290   4.969   3.570   1.531  0.0137  0.2777 -0.1272
25962SOL    HW181291   4.941   3.482   1.556 -1.4588  0.9446  0.6281
25962SOL    HW281292   5.060   3.559   1.502 -1.0281 -1.9404 -2.7646
25963SOL     OW81293   6.841   6.192   3.924 -0.4394  0.3760  0.0743
25963SOL    HW181294   6.922   6.142   3.916 -0.7997 -0.4220  1.2175
25963SOL    HW281295   6.805   6.196   3.835  0.0996 -0.5473 -0.1869
25964SOL     OW81296   6.900   5.889   6.759  0.2337  0.2292 -0.4061
25964SOL    HW181297   6.811   5.855   6.760  0.0020  0.7199 -2.2884
25964SOL    HW281298   6.949   5.828   6.704  0.6992  0.8264 -0.6694
25965SOL     OW81299   9.002  10.255   2.306 -0.9034  0.1074 -0.2035
25965SOL    HW181300   9.008  10.288   2.216  0.0360 -0.5014 -0.3660
25965SOL    HW281301   9.026  10.330   2.360 -2.9406  0.9102 -0.3877
25966SOL     OW81302   7.678   3.414  10.737 -0.3004  0.2244  0.4023
25966SOL    HW181303   7.726   3.457  10.667 -0.8197  0.4874  0.1986
25966SOL    HW281304   7.685   3.321  10.719 -1.4143  0.3360 -0.6639
25967SOL     OW81305   4.773   8.104   7.192  0.4065 -0.7510  0.8065
25967SOL    HW181306   4.710   8.038   7.162  0.3800 -0.0240 -0.7859
25967SOL    HW281307   4.724   8.186   7.192  1.2030 -0.2638  0.0241
25968SOL     OW81308   2.777   0.010   4.405  0.4824 -0.3777 -0.1997
25968SOL    HW181309   2.833   0.087   4.407 -0.1209  0.0700 -0.3464
25968SOL    HW281310   2.715   0.024   4.477 -0.0885 -0.3688 -0.6880
25969SOL     OW81311   1.459   3.794  10.856  0.6671  0.1415 -0.1914
25969SOL    HW181312   1.385   3.777  10.914 -0.4844  3.6267 -0.5311
25969SOL    HW281313   1.419   3.830  10.777  2.7235  1.9108 -0.4582
25970SOL     OW81314   8.759   8.334   4.140 -0.7113  0.5860 -0.4318
25970SOL    HW181315   8.769   8.429   4.133  0.8188  0.4361 -0.4255
25970SOL    HW281316   8.666   8.321   4.160 -0.7837  2.1170  0.3022
25971SOL     OW81317   2.857   3.691   9.669  0.0014  0.3659  0.2471
25971SOL    HW181318   2.799   3.737   9.608  1.0551  1.3738 -0.0039
25971SOL    HW281319   2.848   3.598   9.645 -0.4841  0.6463 -0.6751
25972SOL     OW81320   4.279   1.852   0.754  0.2585 -0.2835  0.2224
25972SOL    HW181321   4.208   1.789   0.760  0.4614 -0.4437  1.1112
25972SOL    HW281322   4.346   1.809   0.701 -0.6650  0.2207 -1.3609
25973SOL     OW81323   4.407   8.694   3.502 -0.2644  0.1885 -0.6616
25973SOL    HW181324   4.366   8.721   3.420  1.0835 -0.0837 -1.4366
25973SOL    HW281325   4.341   8.714   3.569 -1.5952 -0.1135 -1.8556
25974SOL     OW81326   1.473   9.242  10.640 -0.0590  0.2485 -0.2035
25974SOL    HW181327   1.401   9.277  10.587 -0.3238 -0.8867 -0.5888
25974SOL    HW281328   1.530   9.318  10.655 -1.1130  1.0561 -0.2502
25975SOL     OW81329   1.565   7.397   2.009 -0.3399 -0.4310 -0.3355
25975SOL    HW181330   1.532   7.457   2.076 -1.4862 -0.7083 -0.6271
25975SOL    HW281331   1.564   7.448   1.928  0.5783 -0.2441 -0.2279
25976SOL     OW81332   1.884   0.460   5.191 -0.1398  0.6107 -0.2817
25976SOL    HW181333   1.793   0.434   5.207 -0.4147  0.6854 -1.6496
25976SOL    HW281334   1.924   0.462   5.278 -1.9784  2.5781  0.5555
25977SOL     OW81335   7.649   3.653   0.428 -0.8699  0.2243 -0.3578
25977SOL    HW181336   7.603   3.623   0.506 -0.5828 -0.8079 -0.5802
25977SOL    HW281337   7.659   3.747   0.441  0.6699 -0.1781  1.6434
25978SOL     OW81338   2.368   3.020   2.473 -0.1776 -0.4840  0.3732
25978SOL    HW181339   2.366   3.039   2.380  1.0761 -0.0875  0.4124
25978SOL    HW281340   2.430   2.948   2.482  0.4099  0.0874  0.9939
25979SOL     OW81341   4.602   7.912   5.392 -0.0536  0.1500  0.0551
25979SOL    HW181342   4.579   7.821   5.409  0.5841 -0.4721 -2.2194
25979SOL    HW281343   4.693   7.919   5.422 -0.1730  0.0787  0.4289
25980SOL     OW81344   4.604   1.648   2.822  0.0854  0.5132 -0.3693
25980SOL    HW181345   4.527   1.704   2.814  1.4314  2.5450  0.4202
25980SOL    HW281346   4.634   1.636   2.732 -0.7852  0.2096 -0.6284
25981SOL     OW81347  10.246  10.502   4.770 -0.3554 -0.4082  0.3949
25981SOL    HW181348  10.283  10.522   4.684 -1.0996 -0.4873  0.0508
25981SOL    HW281349  10.167  10.451   4.750  0.7730 -2.5471  1.1865
25982SOL     OW81350   8.087   0.767   1.076  0.4652 -0.2167  0.3605
25982SOL    HW181351   7.995   0.772   1.100  0.8485 -0.1947  1.8826
25982SOL    HW281352   8.087   0.742   0.984 -1.0069 -4.2608  1.3720
25983SOL     OW81353   3.505   3.493   5.669 -0.2193  0.1167  0.4949
25983SOL    HW181354   3.536   3.417   5.620  0.2343  0.3149  0.4732
25983SOL    HW281355   3.415   3.506   5.639 -0.1912 -0.2167  0.2673
25984SOL     OW81356  10.400   9.461   0.588 -0.2074  0.2075  0.1284
25984SOL    HW181357  10.438   9.430   0.506 -2.0108 -0.6302 -0.4085
25984SOL    HW281358  10.369   9.549   0.568 -0.9609 -0.1295 -0.1873
25985SOL     OW81359   8.898   1.693   5.808 -0.1619 -0.1738  0.0095
25985SOL    HW181360   8.974   1.686   5.866  0.6353 -2.0375 -1.2041
25985SOL    HW281361   8.928   1.657   5.725 -1.5005  1.7925 -1.3772
25986SOL     OW81362   2.500   4.862   6.881  0.7377  0.1705 -0.2045
25986SOL    HW181363   2.514   4.870   6.975  3.3084 -1.2361 -0.4264
25986SOL    HW281364   2.444   4.785   6.871  0.2106  0.4999  0.1663
25987SOL     OW81365   0.023   8.452  10.933 -0.1440  0.4556 -0.3417
25987SOL    HW181366   0.013   8.530  10.987  0.0191 -0.1525  0.5914
25987SOL    HW281367  -0.028   8.385  10.979 -1.0188  0.2366 -1.6044
25988SOL     OW81368   3.894   7.132   6.016 -0.3948 -0.1452  0.0094
25988SOL    HW181369   3.985   7.108   5.995 -0.7923 -0.6026 -1.2469
25988SOL    HW281370   3.842   7.059   5.983 -1.0374 -1.2148  3.2240
25989SOL     OW81371   6.962   3.247   8.185  0.1568 -0.7219 -0.5912
25989SOL    HW181372   6.921   3.202   8.111  1.2131 -0.8810 -1.0982
25989SOL    HW281373   7.051   3.267   8.154 -0.0907  1.1540 -0.1467
25990SOL     OW81374   9.540   2.501   6.606 -0.3628  0.3780  0.1232
25990SOL    HW181375   9.485   2.424   6.595 -0.3799  0.2960  0.7565
25990SOL    HW281376   9.590   2.508   6.524  0.8142 -1.2315  0.6871
25991SOL     OW81377   7.426   5.722   1.521  0.2262 -0.5438  0.4304
25991SOL    HW181378   7.422   5.729   1.426 -0.0719 -0.2017  0.4657
25991SOL    HW281379   7.378   5.641   1.541 -0.1689 -0.3411  0.3210
25992SOL     OW81380   0.953   9.373   2.729  0.4906  0.3898 -0.1412
25992SOL    HW181381   0.971   9.291   2.773  0.6878  1.1451  1.2042
25992SOL    HW281382   0.911   9.348   2.647  0.4381 -1.0346  0.3196
25993SOL     OW81383   6.784   9.455   1.458 -0.0886  0.7107 -0.2641
25993SOL    HW181384   6.695   9.475   1.430 -0.4128 -1.4680 -0.9000
25993SOL    HW281385   6.834   9.444   1.377 -0.0487 -1.4041  0.0151
25994SOL     OW81386  10.256   1.696   2.931  0.1569  0.6019 -0.4621
25994SOL    HW181387  10.313   1.663   3.000  3.3500  0.8323 -2.8696
25994SOL    HW281388  10.223   1.618   2.886 -0.3277  0.5011  0.0657
25995SOL     OW81389   7.249   3.815   1.445 -0.4750  0.5522  0.5616
25995SOL    HW181390   7.188   3.771   1.504 -0.1838 -1.9259 -0.9023
25995SOL    HW281391   7.248   3.762   1.366 -0.1552  3.2874 -1.3415
25996SOL     OW81392   4.423   6.471   9.663 -0.2030 -0.2739 -0.0518
25996SOL    HW181393   4.334   6.471   9.699 -0.1091 -0.8210  0.1927
25996SOL    HW281394   4.448   6.378   9.664 -0.2821 -0.3263 -1.7377
25997SOL     OW81395   2.712   2.261   5.572 -0.1427  0.3805  0.4537
25997SOL    HW181396   2.756   2.229   5.493  0.4748 -1.0451  1.3556
25997SOL    HW281397   2.784   2.284   5.631 -0.6093  0.5018  0.9734
25998SOL     OW81398   7.487   0.888   8.254  0.0236  0.5172  0.0281
25998SOL    HW181399   7.571   0.879   8.209 -0.3086  0.9363 -0.6925
25998SOL    HW281400   7.423   0.849   8.194 -0.6616  2.5626 -0.6430
25999SOL     OW81401   9.267   4.456   9.424 -0.3547 -0.2980 -0.5789
25999SOL    HW181402   9.316   4.533   9.396  0.0490 -0.3786 -0.1141
25999SOL    HW281403   9.271   4.396   9.350  2.5188 -1.3764  0.3794
26000SOL     OW81404  10.034   3.418   8.338  0.1022 -0.1808 -0.4028
26000SOL    HW181405  10.016   3.441   8.429 -0.6572 -0.6568 -0.4214
26000SOL    HW281406  10.058   3.326   8.341 -0.3101 -0.3003 -0.7268
26001SOL     OW81407   6.604   8.016   0.731  0.5959 -0.0329 -0.2379
26001SOL    HW181408   6.590   8.071   0.808 -1.4329 -1.2036  0.2613
26001SOL    HW281409   6.558   8.061   0.661 -1.1616 -1.0978  0.1957
26002SOL     OW81410   8.515   3.485   0.927 -0.4163  0.2193 -0.0024
26002SOL    HW181411   8.569   3.564   0.923  1.9205 -1.3571 -1.1248
26002SOL    HW281412   8.478   3.477   0.838 -1.1077  0.3638  0.2713
26003SOL     OW81413  10.669   6.472   0.584  0.5206  0.6157 -0.3247
26003SOL    HW181414  10.726   6.446   0.656  0.5554 -0.4383 -0.7285
26003SOL    HW281415  10.723   6.530   0.530  1.2419 -0.4551 -0.7576
26004SOL     OW81416   9.811   1.459   3.447 -0.0015  0.2849  0.2028
26004SOL    HW181417   9.757   1.477   3.523  0.1014  0.2745  0.2783
26004SOL    HW281418   9.755   1.478   3.372  0.8866  3.3782  0.2591
26005SOL     OW81419   8.454   3.928   6.404  0.5995 -0.3218 -0.0123
26005SOL    HW181420   8.474   3.860   6.468 -0.0752  0.3933  0.9832
26005SOL    HW281421   8.494   3.898   6.323 -0.1876 -2.1858  0.2752
26006SOL     OW81422   5.690  10.539   6.335  0.6548 -0.0427 -0.0271
26006SOL    HW181423   5.745  10.617   6.338 -0.0868  0.5723 -1.7782
26006SOL    HW281424   5.704  10.503   6.248  1.4254 -2.2118  0.9552
26007SOL     OW81425   4.258   8.742  10.460 -0.3942  0.8035 -0.2863
26007SOL    HW181426   4.350   8.732  10.437  0.5000  0.7084  2.9584
26007SOL    HW281427   4.211   8.694  10.393  1.8924  1.2153 -2.2472
26008SOL     OW81428   3.008   8.171   1.768  0.5643  0.1447  0.2513
26008SOL    HW181429   2.983   8.079   1.762  0.0394  0.1593  1.9389
26008SOL    HW281430   2.934   8.219   1.731  0.0268 -0.0371  1.0698
26009SOL     OW81431   6.666   5.028   3.082  0.5878 -0.0614  0.0640
26009SOL    HW181432   6.655   5.122   3.095 -0.8903 -0.0209 -1.3618
26009SOL    HW281433   6.668   4.992   3.171 -0.2276  1.1778  0.5981
26010SOL     OW81434   3.591   6.629  10.145 -0.1650 -0.4402 -0.2361
26010SOL    HW181435   3.624   6.549  10.188 -1.1392 -0.5990  0.2242
26010SOL    HW281436   3.572   6.689  10.217 -0.9926 -0.3911 -0.4963
26011SOL     OW81437   5.431   2.179   9.692 -0.3203  0.3046  0.2262
26011SOL    HW181438   5.480   2.098   9.706 -0.5898  0.0314 -0.3736
26011SOL    HW281439   5.495   2.248   9.701  0.0925 -0.0293 -0.1478
26012SOL     OW81440   6.025   3.296   2.217  0.1412 -0.4037 -0.0804
26012SOL    HW181441   5.952   3.298   2.156 -1.2270  1.1193  1.5525
26012SOL    HW281442   6.083   3.367   2.187  0.9760 -1.5901 -1.3536
26013SOL     OW81443   3.568   4.074   2.419  0.2797 -0.2648  0.3569
26013SOL    HW181444   3.484   4.029   2.433 -0.0362  0.3198  0.3782
26013SOL    HW281445   3.569   4.092   2.325  0.4296 -0.3562  0.3408
26014SOL     OW81446   4.188   4.720   6.819 -0.2958 -0.2679 -0.3524
26014SOL    HW181447   4.208   4.631   6.849  0.8105 -1.0966 -3.3711
26014SOL    HW281448   4.092   4.723   6.817 -0.3544 -1.9652 -1.6935
26015SOL     OW81449   6.777   2.236   6.737 -0.5226 -0.0211  0.5961
26015SOL    HW181450   6.741   2.267   6.820  1.1945 -1.5746  1.9853
26015SOL    HW281451   6.844   2.301   6.714 -1.6003  0.8704 -0.0283
26016SOL     OW81452   7.512   7.967   7.274 -0.5966  0.1030  0.0617
26016SOL    HW181453   7.455   8.040   7.297 -1.0299 -0.5385  1.0854
26016SOL    HW281454   7.561   7.997   7.198  0.1907  1.9714  1.2816
26017SOL     OW81455   9.375   9.473   8.022  0.0578  0.2382 -0.1867
26017SOL    HW181456   9.353   9.524   8.101 -0.5802 -0.2914 -0.0128
26017SOL    HW281457   9.449   9.419   8.049  1.1480  1.5259 -0.5610
26018SOL     OW81458   4.086   4.417   2.794 -0.0544  0.1218 -0.6417
26018SOL    HW181459   4.059   4.440   2.883  1.5678 -0.5280  0.0510
26018SOL    HW281460   4.100   4.500   2.750  0.0318  0.4513  0.0026
26019SOL     OW81461   4.442   7.465   0.433 -0.0203  0.4588  0.3517
26019SOL    HW181462   4.389   7.395   0.396 -0.4018 -0.0654  1.8336
26019SOL    HW281463   4.441   7.535   0.367 -2.1021  0.2322  0.1257
26020SOL     OW81464   6.746   6.793   4.731  0.1892 -0.2342 -0.8166
26020SOL    HW181465   6.663   6.821   4.771 -0.0801 -1.5169 -0.4667
26020SOL    HW281466   6.813   6.816   4.796 -0.0607 -0.6572 -0.4075
26021SOL     OW81467   1.914   1.613   9.577  0.4207 -0.3348 -0.1045
26021SOL    HW181468   1.981   1.549   9.601 -0.3187 -1.4472 -0.9596
26021SOL    HW281469   1.831   1.569   9.595 -0.1078  1.3434  1.7627
26022SOL     OW81470   3.253   0.123   4.510 -0.1797 -0.3206  0.8919
26022SOL    HW181471   3.249   0.028   4.518 -1.2053 -0.2345  1.5849
26022SOL    HW281472   3.291   0.139   4.424  1.1003 -1.3612  1.2607
26023SOL     OW81473   8.783   0.987   0.143  0.3497  0.3065 -0.0767
26023SOL    HW181474   8.871   0.959   0.115 -0.6108 -2.4447 -0.4980
26023SOL    HW281475   8.745   0.908   0.183 -2.0318  1.3946 -0.1383
26024SOL     OW81476   3.193   5.072   6.899  0.0952  0.4655 -0.4153
26024SOL    HW181477   3.278   5.046   6.935  0.4735  1.1982 -0.7780
26024SOL    HW281478   3.196   5.167   6.894 -0.0857  0.3965 -2.0356
26025SOL     OW81479   1.360   3.879   4.492  0.4024 -0.3293 -0.7242
26025SOL    HW181480   1.417   3.884   4.569 -1.3830 -1.7074  0.7159
26025SOL    HW281481   1.336   3.970   4.474 -0.4916 -0.1319  1.3696
26026SOL     OW81482   2.309   2.412   9.256 -0.5346 -0.8157 -0.8116
26026SOL    HW181483   2.381   2.439   9.314 -1.2812  1.6860 -0.9602
26026SOL    HW281484   2.352   2.374   9.180  0.5019 -2.9903  0.7934
26027SOL     OW81485   0.990   4.161   9.426  0.0869  0.3756  0.4443
26027SOL    HW181486   1.024   4.248   9.403  0.1522 -0.2999 -2.1714
26027SOL    HW281487   1.064   4.102   9.412 -0.9721 -0.5688 -1.4301
26028SOL     OW81488  10.035   7.111   2.629  0.4395 -0.0357  0.0094
26028SOL    HW181489   9.977   7.036   2.616 -2.0212  1.4098  2.1055
26028SOL    HW281490  10.019   7.167   2.553 -1.4643  0.6640  0.8945
26029SOL     OW81491   1.688   0.036   0.357 -0.9238  0.2248 -0.0719
26029SOL    HW181492   1.692  -0.059   0.356 -1.2339  0.1739  1.5990
26029SOL    HW281493   1.632   0.059   0.283 -3.6047 -1.0614  1.4940
26030SOL     OW81494  10.056   2.274   2.626 -0.6326 -0.5333 -0.3159
26030SOL    HW181495  10.140   2.228   2.634  0.3904  1.1803 -0.8628
26030SOL    HW281496  10.029   2.290   2.716 -0.2337 -0.8775 -0.1339
26031SOL     OW81497   3.177   9.365   3.615 -0.3396 -0.0003  0.2968
26031SOL    HW181498   3.256   9.368   3.669  0.4557  0.1630 -0.8527
26031SOL    HW281499   3.162   9.457   3.592 -1.1466  0.0233  0.9055
26032SOL     OW81500   0.041   9.977   3.080 -0.1097  0.0254  0.3373
26032SOL    HW181501   0.064   9.912   3.014  0.3236  0.9828 -0.4656
26032SOL    HW281502  -0.041  10.015   3.050 -1.3288 -1.4112  1.7531
26033SOL     OW81503   9.113   4.977   9.217 -0.1747 -0.1363 -0.2033
26033SOL    HW181504   9.170   4.959   9.142  0.1726 -0.3746  0.1151
26033SOL    HW281505   9.131   4.905   9.278 -1.7680 -0.9422 -0.6534
26034SOL     OW81506   5.973   4.945   4.653 -0.4566  0.2723  0.4324
26034SOL    HW181507   5.893   4.902   4.622 -0.7809  1.2314 -0.0758
26034SOL    HW281508   5.986   4.911   4.741 -0.1662 -1.6223 -0.3111
26035SOL     OW81509   3.361   0.026   9.008  0.1027 -0.3540 -0.6558
26035SOL    HW181510   3.373  -0.029   8.931  0.2359 -2.2554  0.6802
26035SOL    HW281511   3.347   0.114   8.973  0.4032 -1.1374 -2.8247
26036SOL     OW81512   1.971   2.423   0.587 -0.3147 -0.0304 -0.3294
26036SOL    HW181513   1.927   2.476   0.653  0.8884  1.0908 -0.4080
26036SOL    HW281514   2.065   2.437   0.604  0.0040 -0.2595 -1.8525
26037SOL     OW81515   1.345   5.532  10.180 -0.5111  0.5789  0.3167
26037SOL    HW181516   1.414   5.567  10.236  0.7246 -1.2793 -0.0111
26037SOL    HW281517   1.385   5.526  10.094 -1.3838  0.3898 -0.0751
26038SOL     OW81518   4.357   9.662   7.708  0.0976  0.2025  0.3764
26038SOL    HW181519   4.274   9.631   7.744 -0.9555  1.3091 -1.0696
26038SOL    HW281520   4.343   9.755   7.692  1.3049  0.2076 -0.7336
26039SOL     OW81521   3.783   8.044   9.238  0.8345  0.4034 -0.0812
26039SOL    HW181522   3.763   8.029   9.330  0.5398  0.9376 -0.0608
26039SOL    HW281523   3.873   8.011   9.227  0.3196 -1.0890  0.0425
26040SOL     OW81524   3.874   9.172   1.782  0.1948  0.7032  0.2332
26040SOL    HW181525   3.779   9.156   1.782  0.1644  0.4802 -2.7063
26040SOL    HW281526   3.884   9.259   1.819 -1.1538  0.6075  0.8453
26041SOL     OW81527   4.069   4.036   0.740  0.1416  0.1446  0.2641
26041SOL    HW181528   4.006   4.108   0.731  1.3792  1.0257 -1.7247
26041SOL    HW281529   4.045   3.993   0.822 -1.7806  1.6941  0.5503
26042SOL     OW81530   6.990   9.735   7.263  0.0432  0.1013 -0.1252
26042SOL    HW181531   7.030   9.663   7.311  1.4905  2.3924  2.2236
26042SOL    HW281532   7.057   9.803   7.262 -1.4619  1.6026 -1.8923
26043SOL     OW81533   8.703  10.090   3.067  0.3641 -0.0212 -0.0295
26043SOL    HW181534   8.608  10.099   3.053  0.2721 -0.9091 -0.0098
26043SOL    HW281535   8.738  10.178   3.052 -0.2150 -0.0867 -1.9266
26044SOL     OW81536   3.032   0.660   1.404 -0.0821  0.4141 -0.0118
26044SOL    HW181537   3.104   0.682   1.345 -0.3168  0.5708 -0.2427
26044SOL    HW281538   3.050   0.709   1.484 -0.0739  0.6575 -0.1635
26045SOL     OW81539   0.229   2.328  10.549 -0.2057  0.1807  0.2741
26045SOL    HW181540   0.298   2.288  10.497 -0.0643  1.4399 -0.5148
26045SOL    HW281541   0.149   2.315  10.498  0.3423  3.8501 -1.6418
26046SOL     OW81542   3.101   6.777   9.838 -0.5034  0.2925  0.0402
26046SOL    HW181543   3.143   6.697   9.805  3.0622  2.4207 -0.8303
26046SOL    HW281544   3.109   6.771   9.933 -0.7518 -0.6286  0.0084
26047SOL     OW81545   0.027   8.201   9.544 -0.2855  0.2772 -0.0500
26047SOL    HW181546   0.036   8.256   9.622  0.8207  0.3092 -0.1820
26047SOL    HW281547   0.072   8.250   9.475  0.7413 -0.7970 -0.1543
26048SOL     OW81548   8.062   1.954   0.528  0.5528  0.2269  0.2864
26048SOL    HW181549   8.151   1.988   0.512  1.1406 -0.7938  1.3411
26048SOL    HW281550   8.016   2.026   0.570  1.2948  0.3003  0.9817
26049SOL     OW81551   3.407   1.019   6.101 -0.7615 -0.5438  0.0952
26049SOL    HW181552   3.458   0.974   6.168  1.1662  1.3515 -0.0603
26049SOL    HW281553   3.397   1.108   6.134 -1.4458 -0.1092 -1.2557
26050SOL     OW81554   5.545   5.064   4.648 -0.1481  0.2240  0.3432
26050SOL    HW181555   5.611   5.017   4.596  0.3221  1.1666  0.0778
26050SOL    HW281556   5.474   5.081   4.587 -0.0554  0.3915  0.2815
26051SOL     OW81557   1.595   4.524   7.641 -0.0596  0.1973  0.2277
26051SOL    HW181558   1.661   4.547   7.707  0.9117  1.6508 -1.1980
26051SOL    HW281559   1.646   4.509   7.561 -1.6203  4.1160 -1.6174
26052SOL     OW81560   7.714   4.729   4.567 -0.0831 -0.4699 -0.2954
26052SOL    HW181561   7.641   4.690   4.518 -1.5764 -0.4236  1.8034
26052SOL    HW281562   7.689   4.719   4.659  1.6564  1.3249  0.4142
26053SOL     OW81563   5.768   0.574   8.008  0.1973  0.4518 -0.1254
26053SOL    HW181564   5.832   0.604   7.943 -1.7521  1.0508 -1.8297
26053SOL    HW281565   5.683   0.601   7.972 -1.1006 -1.1956  1.6034
26054SOL     OW81566   3.536   2.307  10.216  0.6742 -0.3965  0.9898
26054SOL    HW181567   3.522   2.301  10.310 -0.4312  3.3562  1.1168
26054SOL    HW281568   3.448   2.310  10.179  1.1052 -0.6838 -0.0743
26055SOL     OW81569   3.736   3.829   7.338  0.0689  0.4092  0.4268
26055SOL    HW181570   3.828   3.807   7.344  0.3931  1.4857 -0.4354
26055SOL    HW281571   3.712   3.811   7.247 -0.8254 -0.8078  0.8851
26056SOL     OW81572   6.260   3.093   3.838  0.5339 -0.5535 -1.0530
26056SOL    HW181573   6.342   3.096   3.789 -0.4037  0.3560 -2.6186
26056SOL    HW281574   6.192   3.096   3.771 -0.7856 -0.0065  0.2782
26057SOL     OW81575   3.220   6.762   4.044 -0.1164  0.1446  0.1467
26057SOL    HW181576   3.279   6.774   4.118 -1.9570 -1.0521  1.8505
26057SOL    HW281577   3.141   6.810   4.068  0.0635  1.6435 -2.0567
26058SOL     OW81578   3.803   6.875   5.960  0.1989 -0.8507 -0.3322
26058SOL    HW181579   3.887   6.831   5.947  0.5058 -0.5468  0.6162
26058SOL    HW281580   3.769   6.839   6.041 -0.7669 -1.2355 -0.8972
26059SOL     OW81581   1.130   8.625   9.829 -0.0925 -0.2760 -0.3057
26059SOL    HW181582   1.083   8.623   9.746 -0.7213  1.0921 -0.0009
26059SOL    HW281583   1.160   8.535   9.842 -1.7859 -0.9622 -0.9949
26060SOL     OW81584   9.446   6.155   0.818  0.0132  0.5330  0.0254
26060SOL    HW181585   9.538   6.155   0.843 -0.5799 -0.7423  2.3399
26060SOL    HW281586   9.419   6.247   0.827  0.8965  0.8010 -0.0326
26061SOL     OW81587   3.782   0.173   6.474 -0.5825 -0.0579 -0.0656
26061SOL    HW181588   3.689   0.159   6.494 -0.7850  0.3942 -0.7087
26061SOL    HW281589   3.785   0.187   6.380  0.1554 -0.1735 -0.0610
26062SOL     OW81590   6.805   1.569   3.910 -0.2511 -0.1853 -0.0065
26062SOL    HW181591   6.828   1.640   3.971  1.6336  0.3025 -1.2737
26062SOL    HW281592   6.879   1.509   3.913  0.4082  0.4639 -2.7461
26063SOL     OW81593   0.040   4.991   4.793 -0.2324  0.3759 -0.3403
26063SOL    HW181594   0.024   4.938   4.870 -2.9972  0.5839 -0.7038
26063SOL    HW281595   0.064   4.928   4.724  1.7455  0.1510  0.5285
26064SOL     OW81596   7.801   5.945   5.420 -0.0906  0.4445 -0.7856
26064SOL    HW181597   7.844   5.868   5.458  0.2283  0.4780 -1.0720
26064SOL    HW281598   7.872   5.993   5.377 -0.3309  0.7700 -0.8216
26065SOL     OW81599   6.160   2.055   8.080 -0.2731 -0.2546 -0.5211
26065SOL    HW181600   6.162   2.151   8.081 -0.5206 -0.2558  2.5917
26065SOL    HW281601   6.242   2.029   8.121 -1.4166 -1.3239  1.1470
26066SOL     OW81602  10.345   7.359   9.508 -0.2155 -0.2814 -0.0365
26066SOL    HW181603  10.291   7.280   9.496 -1.5670  0.7165 -0.6571
26066SOL    HW281604  10.335   7.381   9.600 -1.0144 -0.0191 -0.1763
26067SOL     OW81605   5.710   2.592   7.632 -0.0148 -0.8753 -0.0069
26067SOL    HW181606   5.658   2.567   7.708  0.2420 -1.5226 -0.0403
26067SOL    HW281607   5.731   2.509   7.588 -0.3570 -0.4935 -0.9139
26068SOL     OW81608   3.922   3.944   9.869 -0.1089 -0.0674  0.0549
26068SOL    HW181609   3.945   3.874   9.808  0.8228  0.5928 -0.3601
26068SOL    HW281610   4.005   3.969   9.910 -0.6986 -0.3882  1.4711
26069SOL     OW81611   6.917   5.735   1.049  0.2727 -0.1009  0.1066
26069SOL    HW181612   6.828   5.748   1.083 -0.5286 -0.6062 -1.7604
26069SOL    HW281613   6.932   5.641   1.057 -0.1616 -0.3223 -1.4566
26070SOL     OW81614   2.520   1.574   7.460  0.5051  0.0881  0.6260
26070SOL    HW181615   2.580   1.608   7.393 -0.1915  0.6584  0.2868
26070SOL    HW281616   2.439   1.623   7.446 -0.3552 -1.3704  0.4631
26071SOL     OW81617   4.941   9.549   3.180 -0.3030  0.1504  0.6170
26071SOL    HW181618   4.945   9.603   3.259 -0.1893 -0.0404  0.7408
26071SOL    HW281619   4.959   9.610   3.108  1.6384 -0.0559  0.8910
26072SOL     OW81620   0.615   0.691   0.241 -0.5426 -0.6686  0.8285
26072SOL    HW181621   0.708   0.669   0.237 -0.7121 -1.1762 -0.3334
26072SOL    HW281622   0.571   0.615   0.203 -1.2760  0.6638 -1.0200
26073SOL     OW81623   2.378   7.578  10.255 -0.6253  0.1877  0.2349
26073SOL    HW181624   2.365   7.518  10.329  1.0665 -0.5583 -0.0247
26073SOL    HW281625   2.385   7.520  10.179  0.4109  0.7479 -0.1091
26074SOL     OW81626   8.944   6.878   0.954 -0.6669  0.7000 -0.2292
26074SOL    HW181627   8.952   6.902   1.047  2.0132 -1.0868  0.0352
26074SOL    HW281628   8.916   6.787   0.955 -3.2915  1.4737 -1.2160
26075SOL     OW81629   5.009   6.637   6.451  0.4620  0.1218 -0.0086
26075SOL    HW181630   5.085   6.582   6.467  1.4962  0.6623 -2.8439
26075SOL    HW281631   5.041   6.726   6.466  0.7534  0.4396 -2.3992
26076SOL     OW81632   3.712   6.622   3.504  0.6265  0.0125 -0.1348
26076SOL    HW181633   3.742   6.576   3.583 -0.3319 -0.9294 -0.3060
26076SOL    HW281634   3.618   6.606   3.502  0.5677  0.4760 -1.1857
26077SOL     OW81635  10.864   5.943   0.498 -0.1508  0.4002 -0.1293
26077SOL    HW181636  10.885   5.856   0.531 -1.2411  0.1704 -0.0314
26077SOL    HW281637  10.842   5.994   0.576 -1.2098  0.2835 -0.3474
26078SOL     OW81638   5.136   1.685   8.119  0.2252  0.5424  0.2859
26078SOL    HW181639   5.200   1.741   8.075  0.4178 -0.2066 -0.4079
26078SOL    HW281640   5.052   1.709   8.080  0.2025  0.8671  0.5282
26079SOL     OW81641   6.461   6.270  10.962 -0.0930  0.3171  0.1797
26079SOL    HW181642   6.554   6.248  10.950 -0.1213  0.0325  0.4836
26079SOL    HW281643   6.462   6.359  10.996  0.1550 -0.3730  2.0594
26080SOL     OW81644   7.120   0.043   1.104 -0.5610 -0.7283  0.4428
26080SOL    HW181645   7.199   0.016   1.150 -1.2106 -3.4377  0.0751
26080SOL    HW281646   7.133   0.013   1.014 -1.6390 -0.4044  0.1633
26081SOL     OW81647   1.266   2.842   2.473 -0.1304  0.1226 -0.0693
26081SOL    HW181648   1.204   2.789   2.523  0.6527 -0.0782  0.6896
26081SOL    HW281649   1.239   2.932   2.490 -1.6081 -0.0220 -1.5514
26082SOL     OW81650   6.574   1.794  10.687 -0.1512 -0.6371  0.2230
26082SOL    HW181651   6.484   1.772  10.712  0.0186 -1.0901  0.4544
26082SOL    HW281652   6.569   1.813  10.594 -0.5767 -0.1564  0.3422
26083SOL     OW81653   0.704   1.702   2.039  0.5428  0.1044  0.0935
26083SOL    HW181654   0.793   1.668   2.032  0.4126 -0.1123 -0.5955
26083SOL    HW281655   0.648   1.626   2.022  0.2354  0.3655 -0.0559
26084SOL     OW81656   2.745   2.235   7.340 -0.3240  0.1452  0.5156
26084SOL    HW181657   2.786   2.174   7.279 -0.2000  0.5250  0.2125
26084SOL    HW281658   2.745   2.319   7.293 -0.7667  0.3101  0.8088
26085SOL     OW81659   1.240   2.786   3.714  0.5906 -0.0134 -0.0275
26085SOL    HW181660   1.309   2.832   3.761  0.2091  0.9444 -0.3964
26085SOL    HW281661   1.282   2.757   3.633  0.9267 -0.6340  0.3631
26086SOL     OW81662   0.290  10.654   6.124 -0.6546 -0.0021  0.1045
26086SOL    HW181663   0.339  10.734   6.144 -2.0064  1.1633 -1.1945
26086SOL    HW281664   0.355  10.597   6.083 -0.0516  1.0095 -0.3843
26087SOL     OW81665   7.903   0.468   8.193 -0.3030 -0.1810  0.7710
26087SOL    HW181666   7.961   0.405   8.235 -1.2999 -1.6583 -0.0144
26087SOL    HW281667   7.961   0.528   8.146  0.6740 -0.2216  1.9239
26088SOL     OW81668  10.556   8.546   7.136  0.3651 -0.3681 -0.3489
26088SOL    HW181669  10.582   8.459   7.166  1.3259  0.3705  1.0121
26088SOL    HW281670  10.494   8.576   7.202  0.1729  0.0497 -0.7239
26089SOL     OW81671   8.208   6.245   5.359  0.7616 -0.4785 -0.7001
26089SOL    HW181672   8.264   6.237   5.281  0.7909 -0.5076 -0.6759
26089SOL    HW281673   8.185   6.338   5.363 -0.1080 -0.6578 -1.3521
26090SOL     OW81674   9.626   4.422   7.364 -0.5560  0.0029  0.1816
26090SOL    HW181675   9.587   4.439   7.279 -0.0280  0.6841  0.0699
26090SOL    HW281676   9.553   4.427   7.426 -1.0029 -0.8651 -0.2697
26091SOL     OW81677   7.559   6.647   5.598 -0.0876  0.1896 -0.4422
26091SOL    HW181678   7.506   6.707   5.544  0.3572 -0.3423 -1.4858
26091SOL    HW281679   7.618   6.605   5.536 -0.4223 -1.3645  0.2768
26092SOL     OW81680   6.036   8.852   0.779 -0.2788 -0.5836  0.0754
26092SOL    HW181681   6.031   8.767   0.823 -1.9932 -0.1252  0.8363
26092SOL    HW281682   6.036   8.916   0.850 -1.2501  0.1093 -0.5253
26093SOL     OW81683   9.289   8.847   6.349 -0.2266  0.2213 -0.5307
26093SOL    HW181684   9.331   8.790   6.284  0.8231  0.8132 -0.3847
26093SOL    HW281685   9.236   8.788   6.403 -1.3649 -0.2320 -2.1135
26094SOL     OW81686   7.263   0.596  10.191  0.0770 -0.2629 -0.0749
26094SOL    HW181687   7.196   0.643  10.142  0.8430  1.1050  0.1867
26094SOL    HW281688   7.285   0.522  10.134 -0.2236  0.3889 -1.0547
26095SOL     OW81689   2.694   4.761   2.135  1.0847 -0.5443  0.4187
26095SOL    HW181690   2.691   4.748   2.230  2.6240  2.6889  0.9706
26095SOL    HW281691   2.643   4.840   2.119  2.4655  0.0625 -1.2074
26096SOL     OW81692   8.078   9.014   5.484  0.7852  0.3882 -0.1967
26096SOL    HW181693   8.105   9.096   5.442  3.8851  0.0178  0.8991
26096SOL    HW281694   8.153   8.956   5.471  0.5904 -0.7045  3.1287
26097SOL     OW81695   7.148   7.831   8.491  0.1323 -0.8099  0.3152
26097SOL    HW181696   7.126   7.924   8.497 -0.2130 -0.9401  1.0974
26097SOL    HW281697   7.068   7.786   8.515  0.6216 -1.3058  1.0031
26098SOL     OW81698   6.343   6.333   6.999 -0.1880 -0.2702  0.2474
26098SOL    HW181699   6.326   6.402   6.936  4.1261  0.5010 -0.2371
26098SOL    HW281700   6.285   6.353   7.073  0.8357  3.8593  0.0725
26099SOL     OW81701   1.524   7.981   7.476  0.0653  0.1955  0.0800
26099SOL    HW181702   1.430   7.962   7.471  0.1496 -0.0836 -0.6022
26099SOL    HW281703   1.565   7.903   7.438  0.5307  0.6680 -0.3979
26100SOL     OW81704   7.470   9.076   4.846  0.3710 -0.2274 -0.0813
26100SOL    HW181705   7.478   9.155   4.793  0.7921 -0.8845 -1.0107
26100SOL    HW281706   7.532   9.014   4.806  0.0054 -1.0395  0.5999
26101SOL     OW81707   4.840   3.732   4.718  0.2616  0.2019 -0.0369
26101SOL    HW181708   4.856   3.748   4.625  0.5031  0.8735  0.1137
26101SOL    HW281709   4.803   3.815   4.750  2.6777  0.9130  1.0226
26102SOL     OW81710   7.172  10.800   8.145  0.0499 -0.0729  0.0468
26102SOL    HW181711   7.127  10.844   8.217  0.3187 -0.5496  0.5069
26102SOL    HW281712   7.254  10.849   8.134  0.5858 -0.7538  0.8986
26103SOL     OW81713   6.183   3.687   6.919 -0.5271 -0.0733 -0.0012
26103SOL    HW181714   6.129   3.747   6.971  1.0323  1.5084 -0.1438
26103SOL    HW281715   6.273   3.718   6.933  0.2172 -1.7736 -0.8947
26104SOL     OW81716   3.639   4.773   2.944 -0.0907  0.1465 -0.0838
26104SOL    HW181717   3.695   4.790   2.869  0.4474  0.2907  0.3481
26104SOL    HW281718   3.669   4.835   3.011 -0.3299 -0.2236  0.3670
26105SOL     OW81719   3.640   6.793   8.631  0.0569 -0.0505 -0.4079
26105SOL    HW181720   3.687   6.803   8.714 -2.0140 -0.4679  0.8579
26105SOL    HW281721   3.625   6.699   8.623 -0.5094  0.0715 -0.8182
26106SOL     OW81722   7.973   5.474   0.901  0.0844  0.4293  0.0159
26106SOL    HW181723   7.989   5.383   0.873 -0.4660  0.3670 -0.1038
26106SOL    HW281724   8.035   5.526   0.850  0.4912  0.1048  0.1799
26107SOL     OW81725   5.618   2.331   3.040  0.2051  0.3447 -0.2213
26107SOL    HW181726   5.537   2.282   3.057  0.2214  0.2371 -0.4621
26107SOL    HW281727   5.663   2.281   2.972  1.5393 -0.8232  1.4842
26108SOL     OW81728   9.499   6.229   6.974 -0.3678  0.1132 -0.0621
26108SOL    HW181729   9.526   6.317   7.000  0.7716 -0.2092 -0.1028
26108SOL    HW281730   9.423   6.210   7.028 -0.6659  1.1560 -0.1051
26109SOL     OW81731   9.254   7.425  10.206  0.0695 -0.2838 -0.0615
26109SOL    HW181732   9.192   7.453  10.274 -0.0151 -0.5041 -0.0490
26109SOL    HW281733   9.217   7.344  10.172  1.2005 -1.2966  1.0782
26110SOL     OW81734   9.733   7.909   3.618  0.3959 -0.2722  0.1887
26110SOL    HW181735   9.675   7.838   3.590 -0.7672  0.4600  0.7279
26110SOL    HW281736   9.744   7.895   3.712  0.2278  0.2120  0.2789
26111SOL     OW81737   1.120   9.910   1.870  0.0105  0.1799  0.7177
26111SOL    HW181738   1.090   9.935   1.782  0.9547 -0.1209  0.2988
26111SOL    HW281739   1.215   9.897   1.859 -0.0395 -0.8511  1.5589
26112SOL     OW81740   7.107   6.402  10.541 -0.2238  0.1692 -0.1243
26112SOL    HW181741   7.108   6.457  10.619 -3.4085  0.8385 -0.4957
26112SOL    HW281742   7.078   6.316  10.572  2.8326 -0.8719  0.1123
26113SOL     OW81743   8.184   5.306   5.185  0.5532  0.2725 -0.0473
26113SOL    HW181744   8.244   5.372   5.149  0.2961  1.6180  1.9113
26113SOL    HW281745   8.121   5.356   5.236 -0.4793 -1.3904  0.3417
26114SOL     OW81746   3.375   2.951   4.173 -0.1295  0.0334  0.3531
26114SOL    HW181747   3.425   2.936   4.093  0.3483  1.2776  0.4000
26114SOL    HW281748   3.404   3.037   4.204 -2.4047  0.8587  0.2991
26115SOL     OW81749   5.089   4.391   1.598  0.0326 -0.0740  0.1562
26115SOL    HW181750   5.042   4.397   1.515  1.1574  0.5434 -0.4538
26115SOL    HW281751   5.023   4.410   1.665 -0.9698 -0.9816 -0.5586
26116SOL     OW81752   2.492   0.804   0.113 -0.1456 -0.3381  0.0290
26116SOL    HW181753   2.442   0.723   0.103  1.5310 -1.2917 -0.8631
26116SOL    HW281754   2.583   0.778   0.100  0.3822  1.7819 -0.7892
26117SOL     OW81755   2.311   2.573  10.299 -0.2550  0.1706  0.0039
26117SOL    HW181756   2.337   2.649  10.353 -1.1416  0.4825 -0.0036
26117SOL    HW281757   2.308   2.500  10.361 -1.4598  0.5689  0.4211
26118SOL     OW81758   0.984   7.823   8.817 -0.4343 -0.7820  0.1604
26118SOL    HW181759   1.036   7.783   8.886 -0.2708  0.0768  0.5408
26118SOL    HW281760   1.045   7.879   8.770 -0.9965  0.1943  0.5831
26119SOL     OW81761   9.389  10.137   9.568  0.0912  0.0978 -0.0623
26119SOL    HW181762   9.484  10.136   9.571  0.0593  0.1893  1.0902
26119SOL    HW281763   9.368  10.151   9.476  1.1818 -1.3453 -0.5456
26120SOL     OW81764  10.853   7.202   7.552 -0.2175 -0.1053  0.2867
26120SOL    HW181765  10.773   7.152   7.569 -0.2779  0.0013  0.3214
26120SOL    HW281766  10.862   7.202   7.457 -0.6730  0.5288  0.2429
26121SOL     OW81767   3.922   5.907   4.829  0.3708  0.5097  0.4231
26121SOL    HW181768   3.969   5.825   4.815 -1.5073 -0.5323  0.0208
26121SOL    HW281769   3.879   5.896   4.914 -1.6968  0.1490 -0.6368
26122SOL     OW81770   2.163   1.446   1.136  0.5243 -0.1169 -0.4979
26122SOL    HW181771   2.191   1.466   1.226 -0.0828  0.3380 -0.4087
26122SOL    HW281772   2.243   1.413   1.093  0.6632 -0.9273  0.3767
26123SOL     OW81773   1.218   4.096   8.147  0.9884 -0.3732  0.1904
26123SOL    HW181774   1.137   4.100   8.198  0.0716 -0.5195 -1.2386
26123SOL    HW281775   1.270   4.169   8.181 -0.0245  0.1618  0.6386
26124SOL     OW81776  10.464   8.178   3.781 -1.0049  0.5118  0.3056
26124SOL    HW181777  10.532   8.184   3.714 -0.8075  0.2033  0.4841
26124SOL    HW281778  10.391   8.135   3.736 -0.2395 -1.3304  0.8000
26125SOL     OW81779   1.080   1.066   7.794 -0.0360 -0.1637  0.2882
26125SOL    HW181780   1.090   0.983   7.748  1.0732  0.3507 -0.4148
26125SOL    HW281781   1.068   1.040   7.886 -2.4486 -1.1860 -0.2809
26126SOL     OW81782   9.213   1.516   1.885 -0.0635 -0.0132 -0.2832
26126SOL    HW181783   9.122   1.544   1.874 -0.1158 -0.0698 -0.0007
26126SOL    HW281784   9.217   1.430   1.843  0.0831  0.3891 -1.1036
26127SOL     OW81785   2.864   8.241   5.135  0.1684  0.3690 -0.4638
26127SOL    HW181786   2.793   8.293   5.096 -0.6739  0.0923  0.6583
26127SOL    HW281787   2.822   8.159   5.161  1.3546 -0.6375 -1.6357
26128SOL     OW81788  10.430   1.380   2.855  0.5777 -0.3674 -0.2145
26128SOL    HW181789  10.452   1.421   2.939 -0.8070 -2.5911  1.2840
26128SOL    HW281790  10.342   1.411   2.836  1.1929  0.7486 -1.2468
26129SOL     OW81791   9.728   4.377   3.028  0.2144  0.1054 -0.1604
26129SOL    HW181792   9.750   4.468   3.047  1.3949 -0.6374  2.3580
26129SOL    HW281793   9.700   4.341   3.113 -2.2750 -1.3380 -1.5387
26130SOL     OW81794   7.328   6.832   3.076  0.0160  0.5126 -0.0829
26130SOL    HW181795   7.374   6.818   3.158 -1.0650  1.7314  0.7388
26130SOL    HW281796   7.287   6.918   3.084 -3.5936 -1.0732 -0.1756
26131SOL     OW81797   0.985   4.318   4.627 -0.8336 -0.2671 -0.2286
26131SOL    HW181798   1.004   4.266   4.549  1.2561  0.4787 -0.2347
26131SOL    HW281799   0.978   4.253   4.698 -0.3101 -0.7334 -0.6027
26132SOL     OW81800   3.329   7.156   7.335  0.3132  0.1224  0.5254
26132SOL    HW181801   3.244   7.134   7.371 -0.0527 -0.9279 -0.9107
26132SOL    HW281802   3.386   7.168   7.411 -1.3318  1.8193  1.5150
26133SOL     OW81803   7.968   3.384   0.699 -0.7479  0.1241  0.0161
26133SOL    HW181804   7.992   3.294   0.679 -1.6590 -0.4419  1.3603
26133SOL    HW281805   7.973   3.430   0.615 -1.7190 -1.5061 -0.9558
26134SOL     OW81806   2.977   0.191   4.390  0.1835 -0.3776 -0.1035
26134SOL    HW181807   2.946   0.270   4.435  1.1125 -0.1563  0.1674
26134SOL    HW281808   3.062   0.174   4.430 -0.0312 -1.5447 -0.1445
26135SOL     OW81809   7.121   0.763   0.445 -0.2086  0.5643  0.3325
26135SOL    HW181810   7.109   0.682   0.494  0.5703  0.6976  0.7590
26135SOL    HW281811   7.139   0.829   0.513  1.3164  0.6655 -0.1469
26136SOL     OW81812   3.024   4.335   4.575  0.2166  0.3576 -0.9892
26136SOL    HW181813   3.111   4.325   4.536 -0.1956 -0.6494 -1.6722
26136SOL    HW281814   2.995   4.245   4.592 -0.4505  0.7114 -0.2161
26137SOL     OW81815   5.861   2.573   0.451  0.6780 -0.2558  0.4368
26137SOL    HW181816   5.868   2.494   0.506  0.3685 -0.1214  0.6712
26137SOL    HW281817   5.801   2.630   0.499 -1.7107 -1.2208 -1.3013
26138SOL     OW81818   4.230   7.741   2.837  0.1031  0.6974  0.1753
26138SOL    HW181819   4.318   7.704   2.833 -0.3224 -0.1354 -2.6120
26138SOL    HW281820   4.173   7.667   2.857 -0.1684  0.8791  0.0899
26139SOL     OW81821   6.601   5.880   7.808  0.3184  0.1667  0.0142
26139SOL    HW181822   6.605   5.976   7.805  0.6049  0.1863  1.0003
26139SOL    HW281823   6.693   5.853   7.809  0.2368 -0.0815  0.8340
26140SOL     OW81824   2.523  10.976   4.117  0.2109 -0.5685  0.1182
26140SOL    HW181825   2.438  11.018   4.123 -0.0251 -1.0028 -0.1764
26140SOL    HW281826   2.518  10.903   4.178  1.5614  1.4157  2.6970
26141SOL     OW81827   1.043   0.401   1.956  0.9332 -0.1412  0.5822
26141SOL    HW181828   0.980   0.472   1.972  0.3998 -0.7999  1.4346
26141SOL    HW281829   1.014   0.330   2.012  1.1542 -1.2374 -0.6752
26142SOL     OW81830   3.855   4.900   6.292 -0.3544 -0.1027  0.2003
26142SOL    HW181831   3.910   4.922   6.216  0.2224 -1.2464  0.2765
26142SOL    HW281832   3.910   4.843   6.345  0.4236  3.1719  3.1205
26143SOL     OW81833   8.231   7.929   3.386 -0.4847 -0.0166 -0.5561
26143SOL    HW181834   8.239   7.971   3.301 -0.1510  0.1271 -0.4517
26143SOL    HW281835   8.137   7.931   3.405 -0.5369  0.1363 -0.8258
26144SOL     OW81836   4.026   6.306   6.086 -0.1105 -0.2351 -0.2540
26144SOL    HW181837   4.118   6.322   6.068  0.2411 -1.2870  0.6070
26144SOL    HW281838   4.024   6.227   6.139 -1.5930 -0.8958 -1.2437
26145SOL     OW81839   4.130   2.898   7.389 -0.1054 -0.4826 -0.1981
26145SOL    HW181840   4.120   2.805   7.368 -0.1814 -0.3862 -0.5968
26145SOL    HW281841   4.126   2.942   7.304  0.6195 -0.1759 -0.0792
26146SOL     OW81842   6.683   1.068   3.517  0.1982  0.0098 -0.1555
26146SOL    HW181843   6.703   1.092   3.426 -1.8701 -0.4050 -0.7433
26146SOL    HW281844   6.699   0.973   3.520 -1.1870 -0.2540 -0.5253
26147SOL     OW81845   1.070   9.941   6.357  0.1061 -0.6476 -0.4473
26147SOL    HW181846   1.148   9.993   6.378  0.9979 -2.0772 -0.1666
26147SOL    HW281847   1.029   9.987   6.284  0.2671  1.0690  0.5169
26148SOL     OW81848   0.837   5.108   3.062  0.1202 -0.3000 -0.3278
26148SOL    HW181849   0.882   5.158   3.130 -0.5231 -0.9026  0.5486
26148SOL    HW281850   0.802   5.174   3.002 -0.2737  0.2732  0.5307
26149SOL     OW81851   0.195   8.672   2.745 -0.0206  0.3641  0.1787
26149SOL    HW181852   0.144   8.641   2.820 -0.6803 -0.6184 -0.6639
26149SOL    HW281853   0.138   8.736   2.702 -0.5010 -0.6089 -0.6647
26150SOL     OW81854   7.475   7.899   6.529  0.1452 -0.2706  0.0325
26150SOL    HW181855   7.393   7.897   6.578  1.1150 -2.0344  1.6536
26150SOL    HW281856   7.450   7.930   6.442 -2.3848 -1.7748  0.1747
26151SOL     OW81857   4.722   7.382   6.810 -0.7867 -0.5368  0.4691
26151SOL    HW181858   4.739   7.338   6.727 -0.0962  0.4558  0.0774
26151SOL    HW281859   4.629   7.368   6.827 -1.5113  1.4298 -1.7406
26152SOL     OW81860   6.549   1.938   7.876  0.1193 -0.8883  0.0837
26152SOL    HW181861   6.488   2.004   7.843 -0.4534 -1.6544 -0.3941
26152SOL    HW281862   6.506   1.904   7.954  0.9841  0.1688  1.0386
26153SOL     OW81863   6.518   9.171   1.516 -0.2689 -0.3045  0.3154
26153SOL    HW181864   6.447   9.236   1.515 -0.7585 -0.8312  0.5865
26153SOL    HW281865   6.533   9.151   1.424 -1.6339 -1.4414  0.3224
26154SOL     OW81866   7.210   5.682  10.723  0.1186  0.4288 -0.2400
26154SOL    HW181867   7.229   5.734  10.644  1.2879 -0.6744 -0.7003
26154SOL    HW281868   7.279   5.706  10.785  1.9315 -2.0550 -1.1866
26155SOL     OW81869   3.117   7.858   9.078  0.7521 -0.3797  0.0959
26155SOL    HW181870   3.062   7.837   9.003 -0.5961 -2.3133  1.5773
26155SOL    HW281871   3.191   7.797   9.071  0.9700 -0.1074 -0.0077
26156SOL     OW81872   1.254   6.088   6.687 -0.5257  0.4694  0.6526
26156SOL    HW181873   1.212   6.155   6.633 -3.1562 -1.4358  0.2464
26156SOL    HW281874   1.312   6.041   6.627  0.3337  1.5264  0.6472
26157SOL     OW81875   8.366  10.879   3.906 -0.3843  0.0922  0.6402
26157SOL    HW181876   8.288  10.874   3.960 -0.3846 -0.2457  0.6101
26157SOL    HW281877   8.349  10.819   3.833  0.1764 -0.5038  0.9899
26158SOL     OW81878   1.183   0.774   5.175  0.3844  0.8487  0.8241
26158SOL    HW181879   1.151   0.711   5.111  0.9410  0.3335  1.0568
26158SOL    HW281880   1.264   0.808   5.138 -0.8417  2.8042 -0.1807
26159SOL     OW81881   6.445   9.729   4.425 -0.0708  0.1693 -0.1488
26159SOL    HW181882   6.525   9.723   4.373  1.1606  2.5594  1.3919
26159SOL    HW281883   6.392   9.795   4.379  0.2192  0.9102  0.5674
26160SOL     OW81884   0.399   7.272   3.550  0.4356  0.0454  0.1895
26160SOL    HW181885   0.398   7.267   3.454 -0.8355 -1.2764  0.2557
26160SOL    HW281886   0.381   7.182   3.579  0.2182  0.5558  1.6749
26161SOL     OW81887   6.399   9.546   5.892 -0.1593  0.7805  0.1567
26161SOL    HW181888   6.331   9.493   5.849 -0.0657  1.6830 -1.1319
26161SOL    HW281889   6.350   9.611   5.942 -0.2781 -0.6676  1.9554
26162SOL     OW81890   0.379   1.127  10.185  0.5668 -0.0182 -0.1582
26162SOL    HW181891   0.369   1.222  10.191  0.1318 -0.1169  0.8044
26162SOL    HW281892   0.360   1.106  10.094  0.3538  0.7791 -0.2987
26163SOL     OW81893   1.260  10.556   9.806 -0.0660  0.6193 -0.1137
26163SOL    HW181894   1.270  10.461   9.804  0.2649  0.6592 -0.3275
26163SOL    HW281895   1.244  10.580   9.715  1.6507  0.9644 -0.3422
26164SOL     OW81896   3.318   8.666   2.079  0.0452  0.5083  0.1088
26164SOL    HW181897   3.256   8.725   2.123  0.6525 -0.3029  2.0728
26164SOL    HW281898   3.363   8.621   2.150  0.6671 -1.2255 -1.3568
26165SOL     OW81899   5.028   0.264   1.249 -0.1868  0.1976  0.0360
26165SOL    HW181900   5.079   0.183   1.245  0.8754  0.6595  3.0292
26165SOL    HW281901   5.070   0.323   1.187  0.3300 -0.8254 -0.5899
26166SOL     OW81902   1.992   6.799   9.889 -0.2840 -0.3259  0.0642
26166SOL    HW181903   2.062   6.758   9.939 -1.3916 -1.7808  0.4791
26166SOL    HW281904   2.021   6.889   9.876  2.7553 -1.4885 -1.8175
26167SOL     OW81905   7.137   7.812   7.156  0.7316 -0.1710 -0.5947
26167SOL    HW181906   7.089   7.735   7.126 -2.0706  1.6016 -0.8600
26167SOL    HW281907   7.120   7.816   7.251  1.9065 -0.5599 -0.3589
26168SOL     OW81908   6.177   4.760   0.822 -0.2683 -0.7683  0.8445
26168SOL    HW181909   6.194   4.785   0.912 -0.6392 -0.0072  0.7059
26168SOL    HW281910   6.215   4.831   0.770 -1.1862 -0.5616  0.4471
26169SOL     OW81911   6.530   4.784   9.960  0.3848 -0.5554  0.2661
26169SOL    HW181912   6.615   4.780   9.916 -0.9022 -1.5860 -2.2854
26169SOL    HW281913   6.484   4.706   9.929 -0.9816 -0.7841  2.7336
26170SOL     OW81914   7.943   9.900   8.106 -0.2488  0.0129 -0.8642
26170SOL    HW181915   7.979   9.882   8.193 -1.6413 -1.1780 -0.4975
26170SOL    HW281916   7.985   9.982   8.079  0.9565 -0.1282  0.4966
26171SOL     OW81917   0.685   6.749   0.518 -0.4353  0.0477  0.0216
26171SOL    HW181918   0.637   6.755   0.600  0.3731 -0.0701  0.5067
26171SOL    HW281919   0.660   6.827   0.469 -1.3729 -0.1774  0.1296
26172SOL     OW81920   5.305   8.526   6.928 -0.4380 -0.6665 -0.5728
26172SOL    HW181921   5.359   8.475   6.868  3.3863 -0.3450  2.4385
26172SOL    HW281922   5.305   8.476   7.010 -0.2476  1.9479  1.1030
26173SOL     OW81923  10.742   5.347   4.290 -0.2570 -0.2923 -0.0487
26173SOL    HW181924  10.729   5.320   4.199  0.1019  1.6579 -0.7097
26173SOL    HW281925  10.664   5.318   4.336 -3.1635  3.6361 -2.1521
26174SOL     OW81926   3.354   9.646   4.400  0.0107 -0.5120  0.8759
26174SOL    HW181927   3.398   9.561   4.396 -0.4407 -0.6855 -0.4515
26174SOL    HW281928   3.423   9.710   4.386  0.1105 -0.7131  0.4589
26175SOL     OW81929   4.053   9.825   1.765 -1.0385 -0.1138  0.0987
26175SOL    HW181930   4.050   9.735   1.799 -1.0931  0.5400  1.8596
26175SOL    HW281931   4.056   9.814   1.670 -1.2172 -1.9803  0.2841
26176SOL     OW81932   8.405   3.347   5.305 -0.1264  0.4839 -0.1129
26176SOL    HW181933   8.315   3.336   5.338 -0.3335  0.4304 -0.6975
26176SOL    HW281934   8.458   3.354   5.384 -0.5024 -0.6094  0.2522
26177SOL     OW81935   2.639   9.359   7.920  0.0723  0.6497  0.0198
26177SOL    HW181936   2.546   9.339   7.909  0.2454 -0.9666  1.4391
26177SOL    HW281937   2.643   9.412   8.000  0.3402  1.0674 -0.2658
26178SOL     OW81938   6.657   0.030   2.949 -0.4983  0.3837  0.0317
26178SOL    HW181939   6.608   0.022   2.867 -1.8736 -0.2181  0.8932
26178SOL    HW281940   6.642  -0.053   2.994 -0.0616  0.8576  1.0610
26179SOL     OW81941   2.088   6.337   0.617  0.1842  0.8936 -0.1521
26179SOL    HW181942   2.087   6.421   0.665 -0.7475 -0.7129  2.7759
26179SOL    HW281943   2.010   6.340   0.562 -0.9923  1.1306  1.4788
26180SOL     OW81944   9.583  10.175  10.190 -0.1083 -0.2247 -0.8779
26180SOL    HW181945   9.536  10.126  10.258  0.5882  2.1106  1.3956
26180SOL    HW281946   9.528  10.168  10.112 -2.8442  0.0972  0.9564
26181SOL     OW81947   4.390   5.665   3.912  0.1873  0.0095  0.0397
26181SOL    HW181948   4.310   5.717   3.902  0.6291  0.9079  1.1098
26181SOL    HW281949   4.370   5.581   3.869 -0.4783  1.0973 -1.8547
26182SOL     OW81950   7.436  10.639   3.522 -0.9123 -0.0472  0.0010
26182SOL    HW181951   7.466  10.723   3.558  1.7492 -0.5175 -1.0005
26182SOL    HW281952   7.445  10.578   3.595  0.9934 -0.2566 -0.3891
26183SOL     OW81953   3.938   0.239   4.851 -0.0269  0.8663 -0.1093
26183SOL    HW181954   4.030   0.225   4.873 -1.2280 -3.3034  3.0065
26183SOL    HW281955   3.920   0.175   4.782 -0.5606  1.7921 -0.8369
26184SOL     OW81956   7.252   7.091   3.100 -0.0435 -0.2114  0.0418
26184SOL    HW181957   7.234   7.107   3.008  3.0949  0.0143 -0.5816
26184SOL    HW281958   7.295   7.170   3.131  1.1844 -1.2542  1.0518
26185SOL     OW81959   9.362   9.894   9.947 -0.2543  0.1889  0.0493
26185SOL    HW181960   9.414   9.872   9.870  0.2728  1.0049  0.1646
26185SOL    HW281961   9.336   9.985   9.933 -1.8465 -0.2689 -0.1085
26186SOL     OW81962  10.456   9.636   5.681  0.1643 -0.0066  0.4438
26186SOL    HW181963  10.379   9.659   5.732  0.1740 -0.6948  0.7748
26186SOL    HW281964  10.422   9.588   5.606  0.3199 -0.8715  0.9239
26187SOL     OW81965  10.584  10.212   5.986 -0.0809  0.8243 -0.5947
26187SOL    HW181966  10.605  10.122   6.010  1.1469  1.5119  0.9875
26187SOL    HW281967  10.517  10.204   5.918  0.1972 -1.2766 -0.6387
26188SOL     OW81968   0.667  10.151   1.885 -0.2484 -0.0475  0.0841
26188SOL    HW181969   0.614  10.149   1.965 -0.4180 -0.6908 -0.0451
26188SOL    HW281970   0.690  10.243   1.875 -1.2871  0.2373  0.1822
26189SOL     OW81971   5.353   9.710   9.921 -0.2997 -0.3529 -0.0603
26189SOL    HW181972   5.446   9.703   9.943 -0.8806 -1.5891  2.1793
26189SOL    HW281973   5.335   9.804   9.919  1.2048 -0.0835 -1.5246
26190SOL     OW81974   2.035   1.124   0.663  0.4813  0.5178 -0.1755
26190SOL    HW181975   1.986   1.197   0.626  0.1588  0.5258  0.2655
26190SOL    HW281976   2.097   1.164   0.724 -2.2727  0.1977  2.9857
26191SOL     OW81977   0.003   1.660   3.600 -0.3630 -0.2189  0.2021
26191SOL    HW181978   0.071   1.641   3.665  0.9095  0.5164 -0.9184
26191SOL    HW281979  -0.079   1.656   3.650  0.3034 -3.1655  1.1496
26192SOL     OW81980   9.165   5.516   9.121 -0.3062  0.3125  0.3230
26192SOL    HW181981   9.253   5.530   9.085 -0.7056  0.1084 -0.7661
26192SOL    HW281982   9.169   5.553   9.209  1.1771 -0.6537  0.6760
26193SOL     OW81983   7.745   9.220   4.039  0.5420  1.0270 -0.1902
26193SOL    HW181984   7.663   9.225   4.089  0.4279 -1.1868 -0.1114
26193SOL    HW281985   7.718   9.198   3.950  1.0709 -0.1111 -0.0773
26194SOL     OW81986   5.635   8.195   4.578  0.4655 -0.7271  0.2303
26194SOL    HW181987   5.557   8.224   4.532  0.6891  0.3982  0.5608
26194SOL    HW281988   5.613   8.106   4.608 -0.5030 -0.6023 -0.0916
26195SOL     OW81989  10.082   5.896   2.434 -0.2716  0.0680  0.2791
26195SOL    HW181990  10.032   5.970   2.468 -0.2892  1.0606 -1.8059
26195SOL    HW281991  10.174   5.922   2.446 -0.2781  0.3014 -0.1678
26196SOL     OW81992   3.352   9.584   3.394  0.1296 -0.4778  0.0417
26196SOL    HW181993   3.283   9.647   3.372  2.4634  2.0236 -0.3921
26196SOL    HW281994   3.337   9.511   3.335 -1.7226  0.3383 -0.5479
26197SOL     OW81995   7.017   2.432   4.990 -0.0842 -0.4780 -0.1190
26197SOL    HW181996   6.945   2.494   4.982 -1.1705 -1.8085 -0.8687
26197SOL    HW281997   6.990   2.372   5.058  1.1879  0.1340  0.9573
26198SOL     OW81998   9.120  10.785   8.726  0.0399  0.6252 -0.4707
26198SOL    HW181999   9.093  10.810   8.815  1.7805 -2.7271  1.0948
26198SOL    HW282000   9.191  10.845   8.706 -0.5296  1.5839  0.2983
26199SOL     OW82001   3.331   7.224   6.427  0.7384  0.4811 -0.0702
26199SOL    HW182002   3.359   7.157   6.365 -0.8746 -1.6530  1.4127
26199SOL    HW282003   3.290   7.174   6.498 -0.8669  3.0747  0.8724
26200SOL     OW82004   3.666   1.146   0.308 -0.0364  0.2862 -0.0473
26200SOL    HW182005   3.752   1.104   0.314  0.3754  1.1970  0.4901
26200SOL    HW282006   3.635   1.148   0.398 -1.0866 -0.9884 -0.3689
26201SOL     OW82007  10.562   7.842   7.594 -0.0611 -0.7597 -0.2695
26201SOL    HW182008  10.560   7.783   7.519  0.8717 -0.9490 -0.1581
26201SOL    HW282009  10.654   7.843   7.621 -0.0407  0.7848 -0.3069
26202SOL     OW82010   5.900   1.839   1.244  0.1567  0.1171  0.2186
26202SOL    HW182011   5.948   1.900   1.300 -0.8740 -0.1426  1.4169
26202SOL    HW282012   5.895   1.759   1.296 -2.0522  0.3186  0.3775
26203SOL     OW82013   5.348   5.767   6.315  0.1262 -0.4049  0.4037
26203SOL    HW182014   5.298   5.733   6.389 -2.0550  0.2698 -0.7190
26203SOL    HW282015   5.410   5.829   6.353 -0.1098 -1.0104  1.7736
26204SOL     OW82016   3.167  10.423   3.986  0.5458 -0.1101 -0.6470
26204SOL    HW182017   3.072  10.436   3.985  0.4702 -0.6830 -1.0075
26204SOL    HW282018   3.199  10.483   4.054 -0.2378 -0.9721  0.5121
26205SOL     OW82019   7.423   4.526   3.837 -0.2713 -0.3310 -0.0774
26205SOL    HW182020   7.452   4.528   3.928 -0.6563  1.9343  0.0275
26205SOL    HW282021   7.473   4.596   3.794 -1.4011 -0.1702 -1.1739
26206SOL     OW82022   5.719   6.556   1.848  0.0898  0.0143  0.1470
26206SOL    HW182023   5.683   6.533   1.762  1.8978  1.4498 -1.0449
26206SOL    HW282024   5.692   6.647   1.861  0.4808  0.0467  0.7462
26207SOL     OW82025  10.488   3.955   9.458 -0.4880 -0.6442  0.0122
26207SOL    HW182026  10.581   3.952   9.436 -1.0324 -1.3192 -2.2944
26207SOL    HW282027  10.456   3.867   9.440 -1.7144 -0.2322  0.1216
26208SOL     OW82028   1.417   6.910   9.828 -0.3134  0.2261 -0.0068
26208SOL    HW182029   1.346   6.859   9.791 -0.5470  2.0500 -2.1495
26208SOL    HW282030   1.495   6.883   9.779 -0.3367  1.4940 -0.7442
26209SOL     OW82031   2.517   7.594   1.138 -0.7204 -0.0662  0.1422
26209SOL    HW182032   2.517   7.542   1.218 -0.3696 -1.1025 -0.5224
26209SOL    HW282033   2.564   7.540   1.074  1.4118  1.8962 -0.0363
26210SOL     OW82034   4.123   5.271   5.959  0.0779 -0.4872 -1.0033
26210SOL    HW182035   4.147   5.179   5.965 -0.7463 -0.6048  0.6922
26210SOL    HW282036   4.206   5.318   5.969  0.4445 -1.0307 -1.4829
26211SOL     OW82037   9.364   5.392   4.003 -0.3077  0.1975 -0.2317
26211SOL    HW182038   9.449   5.355   4.027  0.3159  1.4916 -0.4227
26211SOL    HW282039   9.303   5.319   4.012  1.1076 -1.2179 -1.8497
26212SOL     OW82040   9.421  10.761   7.421 -0.0050  0.0024 -0.0397
26212SOL    HW182041   9.386  10.674   7.400  0.3034  0.1450 -1.1503
26212SOL    HW282042   9.381  10.819   7.357  0.6088  0.5148  0.0425
26213SOL     OW82043  10.386  10.523   2.601  0.2873 -0.1200  0.1139
26213SOL    HW182044  10.418  10.469   2.673  0.0286  0.5389  0.7338
26213SOL    HW282045  10.454  10.588   2.587 -0.0287  0.2575  0.3158
26214SOL     OW82046   3.225   9.898   5.890 -0.1236  0.6207 -0.5516
26214SOL    HW182047   3.277   9.861   5.961  1.8001  1.3471 -1.5425
26214SOL    HW282048   3.173   9.967   5.933  2.0931  2.0538 -0.0430
26215SOL     OW82049   6.252   5.121   0.887 -1.0060  0.3175 -0.3854
26215SOL    HW182050   6.217   5.206   0.862  0.2043  1.3058  1.2086
26215SOL    HW282051   6.279   5.081   0.804 -1.0977  1.6807 -1.0819
26216SOL     OW82052   0.584   8.451   6.515  0.1067 -0.5036  0.3121
26216SOL    HW182053   0.602   8.530   6.565 -0.9013 -0.4380  0.5827
26216SOL    HW282054   0.490   8.454   6.498  0.8403  0.9208 -4.0580
26217SOL     OW82055   9.100   2.338   8.767  0.2032 -0.2567  0.1568
26217SOL    HW182056   9.095   2.364   8.675 -0.6481 -1.1474 -0.0516
26217SOL    HW282057   9.169   2.272   8.770  0.3853 -0.0671  0.2047
26218SOL     OW82058  10.875   0.578   5.675 -0.1507 -0.3510  0.6305
26218SOL    HW182059  10.854   0.660   5.632 -0.9424 -0.7154  0.3050
26218SOL    HW282060  10.956   0.595   5.723  0.4291  0.2211 -0.5357
26219SOL     OW82061   1.507   0.261   3.326 -0.1535 -0.3814 -0.4576
26219SOL    HW182062   1.522   0.355   3.318 -1.8084 -0.0576  0.1209
26219SOL    HW282063   1.473   0.250   3.415  0.0321 -1.5299 -0.5236
26220SOL     OW82064   7.818  10.287   3.592 -0.1823 -0.0066  0.1078
26220SOL    HW182065   7.744  10.227   3.599  0.5271 -0.7414  1.5325
26220SOL    HW282066   7.893  10.232   3.569 -0.0815  0.7539 -1.4948
26221SOL     OW82067   8.802   4.166   8.728  0.2105  0.3944 -0.8136
26221SOL    HW182068   8.745   4.095   8.700  0.3658  0.5896 -1.6360
26221SOL    HW282069   8.833   4.139   8.815 -2.7613  1.2404  0.5873
26222SOL     OW82070   1.648   1.277   7.120  0.8385  0.3081 -0.4049
26222SOL    HW182071   1.624   1.195   7.163  0.5206  0.2000 -0.7830
26222SOL    HW282072   1.732   1.258   7.078 -0.4415 -0.6215 -2.6386
26223SOL     OW82073   4.419   9.291   1.052  0.7785 -0.6029  0.6544
26223SOL    HW182074   4.505   9.308   1.091  0.6781 -0.2429  0.7229
26223SOL    HW282075   4.363   9.267   1.126  0.1869  1.6122  0.9747
26224SOL     OW82076   3.966  10.526  10.737  0.1535 -0.5184 -0.4816
26224SOL    HW182077   4.046  10.484  10.768  0.5012  1.0695  0.7927
26224SOL    HW282078   3.997  10.600  10.684 -0.4360  0.9232  1.1394
26225SOL     OW82079   7.062   0.935   3.188 -0.3689  0.1839 -0.3438
26225SOL    HW182080   7.040   1.016   3.233 -0.8576  0.0506 -0.3484
26225SOL    HW282081   7.121   0.889   3.249 -5.0378 -2.3957  2.4868
26226SOL     OW82082   5.399  10.871   0.095 -0.3891  0.0186  0.5305
26226SOL    HW182083   5.366  10.947   0.143 -0.6192  0.1394  0.1827
26226SOL    HW282084   5.493  10.870   0.114 -0.3530  0.5024  0.3809
26227SOL     OW82085   2.469   3.894   0.815 -0.2488 -0.0856 -0.4973
26227SOL    HW182086   2.497   3.806   0.839  2.2151  1.2028  1.5623
26227SOL    HW282087   2.502   3.950   0.886 -0.3617  2.7056 -2.5757
26228SOL     OW82088   9.322   8.524   3.412 -0.2317  0.1868 -0.6844
26228SOL    HW182089   9.342   8.558   3.325  0.2056 -0.7665 -0.9690
26228SOL    HW282090   9.375   8.578   3.472 -0.0431  0.4308 -1.0682
26229SOL     OW82091   9.184   4.106   0.787 -0.2395  0.4392 -0.0732
26229SOL    HW182092   9.167   4.012   0.786  0.1810  0.3509 -2.7335
26229SOL    HW282093   9.099   4.146   0.804 -0.5316 -0.3923  0.4528
26230SOL     OW82094   1.027   1.721   5.634 -0.3519 -0.1903  0.8303
26230SOL    HW182095   1.042   1.801   5.684  0.3527 -0.2682  0.7480
26230SOL    HW282096   0.935   1.700   5.651 -0.5011  0.5439  0.9807
26231SOL     OW82097   9.346  10.964   9.532  0.6023  0.1258  0.2325
26231SOL    HW182098   9.350  10.868   9.531 -0.3885  0.0603  1.3338
26231SOL    HW282099   9.437  10.992   9.521  0.6774 -0.9037 -2.0424
26232SOL     OW82100   1.845   9.360   1.582 -0.0797 -0.2301  0.0464
26232SOL    HW182101   1.931   9.367   1.540  0.9186  0.1404  2.0907
26232SOL    HW282102   1.794   9.432   1.544  1.2435  0.9429  0.4477
26233SOL     OW82103   7.906   1.845   4.783  0.6272 -0.5168 -0.3583
26233SOL    HW182104   7.935   1.923   4.830 -1.9425  1.6444 -2.1871
26233SOL    HW282105   7.863   1.791   4.850  0.3304  0.7671  0.4923
26234SOL     OW82106   1.450   7.372   0.245 -0.5959 -0.3972 -0.4311
26234SOL    HW182107   1.384   7.421   0.196  0.6380 -0.2598 -2.0426
26234SOL    HW282108   1.520   7.437   0.261 -0.7526 -0.5883  1.0483
26235SOL     OW82109   6.909   8.879   3.751  0.0410 -0.1935  0.2244
26235SOL    HW182110   6.820   8.909   3.771 -0.0368 -0.2006 -0.1099
26235SOL    HW282111   6.926   8.911   3.663  0.9698  1.1716  0.8853
26236SOL     OW82112   8.724   7.165  10.499  0.1782 -0.3515 -0.3467
26236SOL    HW182113   8.650   7.117  10.535  1.7001 -0.9762  2.1127
26236SOL    HW282114   8.762   7.106  10.434  0.0073 -1.0707  0.1992
26237SOL     OW82115   6.981   2.520   9.948 -0.3046  0.3957  0.0253
26237SOL    HW182116   6.938   2.435   9.948 -0.2033  0.3465 -0.4564
26237SOL    HW282117   7.049   2.514   9.881 -1.2296  1.3302 -1.0243
26238SOL     OW82118   8.822   5.572  10.076  0.1148 -0.1853  0.4420
26238SOL    HW182119   8.735   5.582  10.037  2.3488  2.1526 -4.3830
26238SOL    HW282120   8.815   5.616  10.160 -3.6502 -1.0690  0.7013
26239SOL     OW82121   0.325   5.019   7.607 -0.2527  0.5350 -0.3084
26239SOL    HW182122   0.338   4.949   7.671 -0.7913  0.6619 -0.0570
26239SOL    HW282123   0.249   4.992   7.556  1.1841 -0.3986 -2.0393
26240SOL     OW82124   3.685   7.234  10.839  0.5157 -0.5314  0.7214
26240SOL    HW182125   3.659   7.176  10.911  1.5145 -0.4293  1.1683
26240SOL    HW282126   3.697   7.319  10.881  0.5048 -0.3385  0.3242
26241SOL     OW82127   3.333   7.524   7.106  0.2720  0.2786 -0.3184
26241SOL    HW182128   3.344   7.434   7.075  0.9911  0.9517 -2.0838
26241SOL    HW282129   3.239   7.541   7.096 -0.0801 -0.6719  1.1912
26242SOL     OW82130   4.483   4.642   2.354 -0.4102  0.1002  0.2420
26242SOL    HW182131   4.516   4.635   2.265 -0.5329 -0.4807  0.2423
26242SOL    HW282132   4.498   4.556   2.393  0.7434  0.7043  1.1741
26243SOL     OW82133   1.481   7.829   5.659  0.2516 -0.0068 -0.2690
26243SOL    HW182134   1.559   7.781   5.686 -0.1511 -1.0337 -0.8842
26243SOL    HW282135   1.432   7.842   5.740  0.0834 -1.1721 -0.1753
26244SOL     OW82136   6.073   6.289   8.782 -0.7141 -0.1622 -0.5827
26244SOL    HW182137   5.993   6.268   8.733 -0.2528  0.0976 -1.4498
26244SOL    HW282138   6.140   6.301   8.715  0.2303 -1.0735  0.1823
26245SOL     OW82139   6.439   2.141   2.028 -0.2361 -0.1800  0.1627
26245SOL    HW182140   6.404   2.102   2.108  0.8688  0.9676  1.2321
26245SOL    HW282141   6.523   2.098   2.014 -1.2509 -1.6899 -1.4266
26246SOL     OW82142   0.496   3.276   6.101 -0.1200 -0.2794  0.5887
26246SOL    HW182143   0.560   3.230   6.155 -1.2031 -1.7180  0.6756
26246SOL    HW282144   0.446   3.330   6.162 -1.5021 -2.0881  1.1113
26247SOL     OW82145   4.110   9.590   2.731 -0.0776 -0.4611  0.4695
26247SOL    HW182146   4.136   9.651   2.801  0.2619 -2.3242  2.0030
26247SOL    HW282147   4.192   9.554   2.699 -0.3317 -0.8558  0.2569
26248SOL     OW82148   9.987   0.194   5.411 -0.0604  0.0623  1.0466
26248SOL    HW182149  10.057   0.152   5.360  0.5606 -0.3969  2.2487
26248SOL    HW282150   9.993   0.286   5.388  0.1714 -0.1467  0.2394
26249SOL     OW82151   3.370   3.695   4.819 -0.1563 -0.0591  0.6773
26249SOL    HW182152   3.316   3.668   4.745 -0.6427  0.2000  0.9387
26249SOL    HW282153   3.447   3.638   4.815 -1.0337 -1.2832  1.0563
26250SOL     OW82154   0.366   9.563   2.484 -0.1632  0.3277  0.6875
26250SOL    HW182155   0.405   9.608   2.409  1.5350 -0.6765  0.9506
26250SOL    HW282156   0.403   9.608   2.560 -2.0202  1.4617  0.9608
26251SOL     OW82157   3.600  10.074   1.160  0.0874 -0.8882 -0.1256
26251SOL    HW182158   3.640  10.158   1.184 -1.0976 -0.3653  0.0373
26251SOL    HW282159   3.530  10.097   1.100  0.3232 -1.8511 -0.7846
26252SOL     OW82160   3.280   4.407   9.712 -0.2064 -1.3101 -0.0643
26252SOL    HW182161   3.300   4.320   9.677 -1.5268 -1.1368 -1.3216
26252SOL    HW282162   3.188   4.401   9.738  0.4525 -1.0971  2.4184
26253SOL     OW82163   2.761   9.183  10.886  0.8327  0.0657  0.4715
26253SOL    HW182164   2.813   9.122  10.834  0.0579  0.0691 -0.3206
26253SOL    HW282165   2.814   9.263  10.889  0.5071  0.3485 -1.0385
26254SOL     OW82166   4.903   0.216   1.852 -0.3706  0.3829 -0.6254
26254SOL    HW182167   4.838   0.226   1.922 -0.3672  1.4040 -0.7626
26254SOL    HW282168   4.898   0.124   1.828 -2.0647  0.5306 -0.9232
26255SOL     OW82169   2.898   4.667   4.901 -0.1758  0.2530 -0.0094
26255SOL    HW182170   2.908   4.750   4.854  2.2869 -1.6755 -3.0653
26255SOL    HW282171   2.961   4.673   4.973  2.1030 -0.0842 -1.9418
26256SOL     OW82172   5.812   4.748   2.037  0.2249 -0.0539  0.7364
26256SOL    HW182173   5.818   4.792   1.952  0.4306 -0.2348  0.6580
26256SOL    HW282174   5.748   4.800   2.086  0.1984  0.1237  0.5160
26257SOL     OW82175   7.081   4.214   3.779 -0.2203  0.1894  0.8053
26257SOL    HW182176   7.147   4.240   3.844  0.9769 -2.6642  0.7897
26257SOL    HW282177   7.123   4.232   3.694 -0.0329 -0.2832  0.7992
26258SOL     OW82178  10.751   6.894   3.836 -0.2603  0.5807 -0.2933
26258SOL    HW182179  10.698   6.816   3.849 -0.8619  1.1768  1.0089
26258SOL    HW282180  10.841   6.862   3.836 -0.4634 -0.0389  0.9611
26259SOL     OW82181   6.273   3.036   2.552  0.0050  0.0675  0.4681
26259SOL    HW182182   6.186   3.019   2.588 -0.1958 -0.7674 -0.3968
26259SOL    HW282183   6.259   3.102   2.485  0.0013 -0.2128  0.1898
26260SOL     OW82184   1.092   5.945  10.727 -0.0930 -0.0624 -0.0078
26260SOL    HW182185   1.107   6.020  10.670 -0.2566  0.7065  0.9500
26260SOL    HW282186   0.997   5.939  10.734 -0.1774 -1.7911 -1.9297
26261SOL     OW82187   5.666   2.205   3.833  0.6801 -0.1305 -0.1458
26261SOL    HW182188   5.644   2.296   3.811  0.2197 -0.3517 -0.6008
26261SOL    HW282189   5.624   2.189   3.917  2.3447  0.6829  0.8680
26262SOL     OW82190  10.390   2.548   1.186  0.0507  0.2593  0.9801
26262SOL    HW182191  10.442   2.591   1.119  1.0470 -0.5952  1.1867
26262SOL    HW282192  10.448   2.481   1.223 -1.5236 -1.4174  0.5133
26263SOL     OW82193   9.446   1.928  10.396 -0.6410 -0.5149  0.1860
26263SOL    HW182194   9.434   1.935  10.490 -1.9207  0.9187 -0.0573
26263SOL    HW282195   9.422   2.014  10.362 -0.8914 -1.2196 -1.5085
26264SOL     OW82196   8.263   5.389   1.513  0.2644  0.1695  0.0124
26264SOL    HW182197   8.354   5.383   1.542  0.1042  0.6363  0.6299
26264SOL    HW282198   8.228   5.464   1.561 -0.1836  0.5806 -0.9569
26265SOL     OW82199   6.620   7.928   7.961 -0.2779 -0.0303  0.2365
26265SOL    HW182200   6.628   7.834   7.974  2.4062 -0.0614 -1.1230
26265SOL    HW282201   6.709   7.961   7.973 -1.2451  2.3852  1.0516
26266SOL     OW82202   7.641   5.080   8.006 -0.2462  0.8242  0.2572
26266SOL    HW182203   7.680   5.070   7.919 -0.5062  1.0639  0.1140
26266SOL    HW282204   7.643   5.174   8.023 -0.9898  0.8632  0.1447
26267SOL     OW82205   1.689   9.514   5.398  0.0782 -0.2066  0.4798
26267SOL    HW182206   1.716   9.592   5.445  0.2041 -1.1505  2.0195
26267SOL    HW282207   1.637   9.465   5.461  0.7832 -1.8038 -0.1482
26268SOL     OW82208   6.573   3.710   8.020  0.3263 -0.3894 -0.4042
26268SOL    HW182209   6.513   3.771   8.063 -0.8554 -0.8897 -1.3287
26268SOL    HW282210   6.653   3.714   8.073 -0.4919  0.3237  0.7996
26269SOL     OW82211   4.237   1.204   6.571 -0.3866  0.6629  0.3180
26269SOL    HW182212   4.269   1.205   6.481 -0.9548 -1.0478  0.0754
26269SOL    HW282213   4.224   1.296   6.594  1.0887  1.1758 -0.8638
26270SOL     OW82214   0.183  10.464   0.058  0.5016 -0.8526 -0.0458
26270SOL    HW182215   0.267  10.478   0.013  0.7559 -3.4620 -0.4426
26270SOL    HW282216   0.207  10.457   0.150  0.5054  0.0975  0.0299
26271SOL     OW82217   0.400   1.324   4.088  0.3099  0.8046 -0.2809
26271SOL    HW182218   0.328   1.373   4.127 -0.4309  0.6812 -1.4884
26271SOL    HW282219   0.422   1.372   4.009  0.7608  0.1778 -0.5386
26272SOL     OW82220   4.481   8.841   5.548 -0.1126  0.1450  0.0454
26272SOL    HW182221   4.517   8.811   5.464  1.1363  2.9347 -0.4834
26272SOL    HW282222   4.558   8.868   5.598 -0.8407 -1.6459  2.1998
26273SOL     OW82223   7.818   9.008   0.393 -0.2924  0.0608 -0.5234
26273SOL    HW182224   7.902   9.014   0.347 -0.5917 -1.2864 -1.2774
26273SOL    HW282225   7.806   8.914   0.408 -1.1458  0.3316  0.5732
26274SOL     OW82226   9.806   2.079   7.662 -0.0638 -0.1778 -0.2028
26274SOL    HW182227   9.823   1.991   7.695  1.3309  1.0453  2.4951
26274SOL    HW282228   9.751   2.120   7.729  0.6448  1.5330 -0.6384
26275SOL     OW82229   8.198   1.799   3.227  0.0975 -0.7524  0.1777
26275SOL    HW182230   8.248   1.836   3.153  1.1755 -1.5211  0.5158
26275SOL    HW282231   8.262   1.791   3.297 -1.1777  1.0149  1.5724
26276SOL     OW82232  10.340   8.328   7.946 -0.1127 -0.2736 -0.3613
26276SOL    HW182233  10.384   8.248   7.975 -0.6082 -0.9378 -1.4238
26276SOL    HW282234  10.314   8.309   7.856  1.1729  1.6671 -1.1688
26277SOL     OW82235   9.078   1.084   9.415 -0.5748  0.0455 -0.0814
26277SOL    HW182236   9.029   1.153   9.459  2.0840  0.2308  2.7305
26277SOL    HW282237   9.092   1.017   9.481  2.5459 -0.1765 -0.8658
26278SOL     OW82238   8.289   2.207   9.145 -0.1706 -0.5967 -0.3962
26278SOL    HW182239   8.319   2.183   9.232 -1.2270  0.7927  0.3557
26278SOL    HW282240   8.341   2.151   9.086  1.0451 -1.0429  1.0594
26279SOL     OW82241   5.770   5.784   4.192 -0.3526  0.3771 -0.5042
26279SOL    HW182242   5.832   5.857   4.183  0.0572 -0.1035 -1.6549
26279SOL    HW282243   5.743   5.765   4.102  0.6781 -1.8857 -0.3564
26280SOL     OW82244   9.519   3.133   0.891 -0.5833  0.6037  0.1259
26280SOL    HW182245   9.609   3.108   0.870 -0.3131  1.7782 -0.1165
26280SOL    HW282246   9.468   3.054   0.874  0.5528 -0.4179  1.3450
26281SOL     OW82247   2.168   3.541   5.161 -0.1939  0.0027  0.2006
26281SOL    HW182248   2.109   3.470   5.133  1.2148 -1.6749  1.3552
26281SOL    HW282249   2.150   3.550   5.255  2.9932 -2.1731  1.1007
26282SOL     OW82250   8.544  10.755   2.957 -0.3798 -0.4752  0.7321
26282SOL    HW182251   8.474  10.693   2.937 -0.7679  0.1304  0.1801
26282SOL    HW282252   8.501  10.826   3.004 -0.4523  0.6719 -1.0036
26283SOL     OW82253   7.471  10.545   8.906  0.5679  0.1609 -0.7365
26283SOL    HW182254   7.468  10.464   8.958  1.7943  0.2099 -0.5932
26283SOL    HW282255   7.494  10.613   8.969 -0.9992  0.7321 -0.7499
26284SOL     OW82256   6.992   8.409   2.959  0.2662  0.2628  0.0077
26284SOL    HW182257   6.909   8.455   2.972  0.5922  0.8903 -0.1415
26284SOL    HW282258   6.993   8.388   2.866  0.0518 -0.1904  0.1003
26285SOL     OW82259   0.363   9.963   3.954 -0.1320  0.0510 -0.5648
26285SOL    HW182260   0.413   9.975   3.873 -0.7744  0.2379 -0.9377
26285SOL    HW282261   0.423   9.917   4.013  0.3495 -0.0564 -1.1368
26286SOL     OW82262   7.209   6.610   2.971 -0.0344 -0.6689 -0.1839
26286SOL    HW182263   7.134   6.647   2.925  2.0480  1.7470 -1.7916
26286SOL    HW282264   7.253   6.685   3.010  1.6296 -1.9961  0.5987
26287SOL     OW82265   6.458  10.490   9.338 -0.3318  0.0123  0.2189
26287SOL    HW182266   6.506  10.564   9.375  0.2225  1.2275 -2.7786
26287SOL    HW282267   6.366  10.508   9.359  0.0018  0.3641  1.4315
26288SOL     OW82268   2.538   3.582   8.177 -0.3506  0.4916  0.1877
26288SOL    HW182269   2.615   3.632   8.207 -0.7596  1.1219  0.2030
26288SOL    HW282270   2.572   3.494   8.162  0.7036  1.1118 -1.1904
26289SOL     OW82271   8.427   9.876   9.882  0.2220  0.2299 -0.0474
26289SOL    HW182272   8.461   9.816   9.948  1.5305  0.2264 -0.7101
26289SOL    HW282273   8.429   9.825   9.800 -2.2075 -0.0649  0.0434
26290SOL     OW82274   9.026   8.232  10.472  0.2311 -0.2744  0.0607
26290SOL    HW182275   9.105   8.274  10.506  0.6185 -1.7818  1.0781
26290SOL    HW282276   9.058   8.167  10.410 -0.1128 -1.8084  1.4611
26291SOL     OW82277   5.717   4.733   3.434  0.1336  0.5564 -0.1721
26291SOL    HW182278   5.804   4.693   3.438 -0.1650  0.0368  2.1696
26291SOL    HW282279   5.667   4.686   3.501 -2.3824 -0.1468 -2.4651
26292SOL     OW82280   3.473   2.238   4.938  0.0479  0.5739 -0.2692
26292SOL    HW182281   3.543   2.245   4.873  0.7878 -1.7429  0.2519
26292SOL    HW282282   3.392   2.234   4.887  0.6217 -1.2029 -1.0461
26293SOL     OW82283   0.546   5.203   3.330 -0.6943  0.4543 -0.4143
26293SOL    HW182284   0.497   5.122   3.346 -0.4347  0.3158 -0.3089
26293SOL    HW282285   0.631   5.188   3.372 -0.3788  0.4921 -1.0205
26294SOL     OW82286   3.370   1.024   3.482 -0.3555  0.3867 -0.2353
26294SOL    HW182287   3.371   1.116   3.456 -1.4443  0.5757  0.3417
26294SOL    HW282288   3.281   0.995   3.464 -0.2389 -0.3322  0.3096
26295SOL     OW82289   9.791   8.744   4.935 -0.0974 -0.1420  0.0034
26295SOL    HW182290   9.741   8.709   4.862 -0.6367 -0.7961  0.6779
26295SOL    HW282291   9.877   8.763   4.898 -0.5763  0.1913 -0.9583
26296SOL     OW82292   7.175   2.263   3.368  0.6480 -0.4188 -0.3437
26296SOL    HW182293   7.208   2.342   3.325  0.0218 -0.3147 -0.6317
26296SOL    HW282294   7.105   2.294   3.425  1.9284 -0.4478  1.3117
26297SOL     OW82295   8.704   9.249   7.004 -0.5364  1.0610  0.2746
26297SOL    HW182296   8.744   9.177   7.052  1.0345  0.7578 -1.4670
26297SOL    HW282297   8.614   9.221   6.990  0.8620 -2.0202 -3.1708
26298SOL     OW82298   8.512   8.540   4.722  0.8173 -0.1787 -0.7326
26298SOL    HW182299   8.467   8.615   4.762  0.8490 -0.2205 -0.6183
26298SOL    HW282300   8.604   8.555   4.741  0.6422 -1.3068  1.0516
26299SOL     OW82301   2.166   6.846   7.561 -0.2424 -0.1985 -0.6903
26299SOL    HW182302   2.204   6.895   7.488  1.7717  0.3714  0.6947
26299SOL    HW282303   2.125   6.770   7.520 -1.9491  1.7592 -2.7120
26300SOL     OW82304   1.562   9.440   7.508  0.4801 -0.3407  0.3327
26300SOL    HW182305   1.637   9.391   7.542 -0.1532 -2.3592 -1.1445
26300SOL    HW282306   1.601   9.501   7.446  1.2232  0.8348  1.8987
26301SOL     OW82307   7.975  10.271   4.939 -0.4429  0.1612  0.2834
26301SOL    HW182308   7.978  10.204   4.870  0.4938  2.2856 -1.7812
26301SOL    HW282309   8.039  10.241   5.003 -0.9172 -1.5545 -0.0137
26302SOL     OW82310   6.244   1.060   6.258 -0.4193  0.1041 -0.0094
26302SOL    HW182311   6.336   1.078   6.238 -0.3190 -0.4315 -0.0618
26302SOL    HW282312   6.194   1.116   6.199 -0.1325  1.5287  1.0808
26303SOL     OW82313   0.790  10.980   2.436  0.2421 -0.7428 -0.0282
26303SOL    HW182314   0.836  11.060   2.411 -1.4649  0.2892  0.0815
26303SOL    HW282315   0.709  10.982   2.385 -1.2220 -0.8538  2.2460
26304SOL     OW82316   9.274   8.903   2.703 -0.6150 -0.6210  0.6236
26304SOL    HW182317   9.215   8.871   2.635 -0.1694  0.8756 -0.4894
26304SOL    HW282318   9.278   8.832   2.767 -2.9929 -1.0424  0.3337
26305SOL     OW82319   8.423   8.947   0.693  0.0952 -0.0825  0.0933
26305SOL    HW182320   8.407   9.038   0.669  1.3748  0.3663  0.8805
26305SOL    HW282321   8.358   8.928   0.760  0.6575  0.6576  0.8534
26306SOL     OW82322   6.233   0.054   5.277  0.2573  0.1404 -0.1929
26306SOL    HW182323   6.165   0.085   5.216  0.3973  1.1456  0.1433
26306SOL    HW282324   6.188  -0.009   5.333  0.2346 -1.1145 -1.6119
26307SOL     OW82325   4.608   4.194   5.470 -0.0343 -0.2791  0.1619
26307SOL    HW182326   4.602   4.250   5.548 -0.2214  1.7229 -1.2580
26307SOL    HW282327   4.525   4.146   5.469  0.9541 -2.1392  2.5098
26308SOL     OW82328   5.512   5.458   0.198  1.2847 -0.0206 -0.7962
26308SOL    HW182329   5.453   5.419   0.263  1.6033  0.4330 -0.2350
26308SOL    HW282330   5.507   5.552   0.214 -0.6781  0.3225 -3.1564
26309SOL     OW82331   2.327   5.305   5.165 -0.3209 -0.0059 -0.6621
26309SOL    HW182332   2.355   5.384   5.212 -1.1534  0.6376 -1.2315
26309SOL    HW282333   2.253   5.272   5.216  1.1532 -1.4770  0.6124
26310SOL     OW82334   8.769   4.085   1.335  0.1210 -0.1925 -0.0243
26310SOL    HW182335   8.748   4.178   1.323 -0.9980 -0.5196 -0.5968
26310SOL    HW282336   8.725   4.041   1.263 -1.3301 -1.4540  1.6015
26311SOL     OW82337   2.216   5.958   8.508 -0.1205  0.2017  0.2549
26311SOL    HW182338   2.166   5.915   8.577  2.0275  0.2724  1.8638
26311SOL    HW282339   2.198   6.051   8.520  0.5729  0.2448  0.9802
26312SOL     OW82340   4.015   3.785   0.655 -0.2300  0.5134  0.4597
26312SOL    HW182341   4.010   3.751   0.566  1.3137  0.3181  0.4286
26312SOL    HW282342   4.023   3.880   0.644 -1.0341  0.5879  0.4391
26313SOL     OW82343   8.361   6.725   2.770  0.5631  0.1062  0.1729
26313SOL    HW182344   8.295   6.715   2.701  0.9491 -0.8782 -0.0637
26313SOL    HW282345   8.311   6.737   2.850  0.1026  0.3120 -0.1419
26314SOL     OW82346   9.044   0.405   0.527 -0.0763  0.3140  0.2519
26314SOL    HW182347   9.005   0.325   0.493  0.8101 -0.3474  0.7518
26314SOL    HW282348   9.064   0.457   0.450 -1.4452  0.4354 -0.0300
26315SOL     OW82349   9.632   2.302   2.970  0.2564 -0.4551  0.1225
26315SOL    HW182350   9.584   2.262   2.898 -2.4220  0.9951  1.0303
26315SOL    HW282351   9.695   2.360   2.927 -0.3105 -0.7050 -1.0639
26316SOL     OW82352   9.589   2.298   8.920 -0.7671  0.7418  0.0774
26316SOL    HW182353   9.644   2.221   8.905 -0.1247  1.3205 -0.5760
26316SOL    HW282354   9.536   2.275   8.996 -0.1057 -0.0947  0.2933
26317SOL     OW82355   6.913   8.344   8.540 -0.0284 -0.1826  0.5993
26317SOL    HW182356   6.950   8.397   8.469 -0.8505  0.9544  0.9954
26317SOL    HW282357   6.986   8.291   8.570  0.6773  0.3082 -0.2008
26318SOL     OW82358   4.443   7.742   0.654 -0.1825 -0.1924 -0.0787
26318SOL    HW182359   4.361   7.711   0.616 -0.2073 -2.0625  1.4395
26318SOL    HW282360   4.490   7.663   0.679  1.3290  0.9036  0.6466
26319SOL     OW82361   1.463   5.246   0.847 -0.2091  0.0094 -0.2020
26319SOL    HW182362   1.529   5.245   0.917 -0.3981 -1.3330 -0.0307
26319SOL    HW282363   1.491   5.177   0.788 -0.8127  0.2449 -0.7597
26320SOL     OW82364   6.490   2.151   3.811  0.2781  0.1272 -0.4824
26320SOL    HW182365   6.565   2.092   3.812  1.1893  1.2664 -0.3718
26320SOL    HW282366   6.419   2.100   3.851  1.2599 -0.6176  0.3483
26321SOL     OW82367   6.398   4.596   7.067  0.0592  0.4168  0.0743
26321SOL    HW182368   6.317   4.554   7.038  0.4727 -0.9056  0.7865
26321SOL    HW282369   6.370   4.678   7.107 -0.8735  0.2347 -0.2030
26322SOL     OW82370   7.008   2.346   3.772  0.1438  0.1204  0.0855
26322SOL    HW182371   6.996   2.272   3.832  0.6039 -1.1809 -1.3795
26322SOL    HW282372   6.983   2.423   3.823 -1.6344 -1.1760  1.2238
26323SOL     OW82373  10.912   1.908   7.031  0.2149  0.1540  0.7427
26323SOL    HW182374  10.974   1.876   7.096 -0.4336  0.2359  1.4217
26323SOL    HW282375  10.902   2.001   7.052 -1.0490 -0.1203  1.4220
26324SOL     OW82376   4.684   2.728   9.669  0.0378  0.0887  0.4232
26324SOL    HW182377   4.679   2.808   9.722 -0.0197  1.0268 -0.9665
26324SOL    HW282378   4.599   2.686   9.681 -0.0773  0.4425  0.8576
26325SOL     OW82379   0.614   3.759  10.832 -0.5311  0.3353  0.1056
26325SOL    HW182380   0.644   3.688  10.776 -0.5989  1.9398 -2.0240
26325SOL    HW282381   0.527   3.781  10.799 -0.5097  1.4142  0.7365
26326SOL     OW82382  10.233   2.086   1.150  0.2620  0.1099  0.2401
26326SOL    HW182383  10.315   2.077   1.102 -0.7893  3.0366 -2.2310
26326SOL    HW282384  10.189   2.002   1.138  1.2066 -0.1371 -1.6687
26327SOL     OW82385   8.603   0.651   0.530 -0.1799  0.0559  0.5044
26327SOL    HW182386   8.686   0.630   0.573 -0.2925  0.5500  0.9596
26327SOL    HW282387   8.595   0.585   0.461  0.0798 -0.6492  1.1379
26328SOL     OW82388   2.776   1.957   9.989 -0.1120  0.2316  0.8911
26328SOL    HW182389   2.755   1.985  10.078 -0.0181 -0.9891  1.3087
26328SOL    HW282390   2.827   1.876  10.000  0.1817  0.2413 -0.2582
26329SOL     OW82391   0.379   5.671   1.321  0.0264 -0.0002  0.4018
26329SOL    HW182392   0.448   5.737   1.332  1.3233 -1.2750  0.0423
26329SOL    HW282393   0.297   5.721   1.326  0.9859  1.6398  0.0811
26330SOL     OW82394   9.678   7.036   7.550  0.2307 -0.6441  0.5423
26330SOL    HW182395   9.718   6.970   7.494  2.4269  0.1026  1.1848
26330SOL    HW282396   9.741   7.108   7.553 -0.4939 -0.0351  2.7625
26331SOL     OW82397   8.494   7.581   6.499 -0.2681 -0.1614 -0.1922
26331SOL    HW182398   8.515   7.584   6.592 -2.7043  1.6824  0.3554
26331SOL    HW282399   8.405   7.548   6.495 -0.5890  0.8021 -1.7741
26332SOL     OW82400   1.663   6.054   7.484 -0.4574 -0.4406  0.2232
26332SOL    HW182401   1.676   6.121   7.551 -0.3126 -1.1623  0.9157
26332SOL    HW282402   1.641   5.975   7.532 -0.3957 -0.9550 -0.5811
26333SOL     OW82403   6.804   6.832   0.576 -0.2517  0.1567  0.3291
26333SOL    HW182404   6.736   6.807   0.639 -0.8084 -0.5174 -0.5254
26333SOL    HW282405   6.880   6.779   0.599 -0.5505 -0.3085  0.2451
26334SOL     OW82406   5.909   3.443   5.506 -0.0866 -0.2749  0.4477
26334SOL    HW182407   5.876   3.355   5.489 -0.0564  0.0061 -1.1358
26334SOL    HW282408   5.850   3.500   5.456  1.4436  0.4050 -0.6023
26335SOL     OW82409   1.975   3.373   6.834  0.2731  0.3582  0.5291
26335SOL    HW182410   1.974   3.279   6.813 -0.2679  0.9328 -2.2322
26335SOL    HW282411   2.067   3.398   6.828  0.4895 -0.0877  1.8115
26336SOL     OW82412   3.946   2.303   2.548  0.6858 -0.1398  0.2074
26336SOL    HW182413   3.865   2.273   2.506  0.1933  0.9337  0.3806
26336SOL    HW282414   3.995   2.223   2.565 -1.0021 -0.9155  1.4858
26337SOL     OW82415   4.353   4.353   3.485  0.1543 -0.0878 -0.1040
26337SOL    HW182416   4.425   4.320   3.538 -1.2508 -0.6797  1.4926
26337SOL    HW282417   4.320   4.277   3.438  0.0539  0.0176 -0.2060
26338SOL     OW82418   9.313   6.800   3.929 -0.2545 -0.3187  0.3048
26338SOL    HW182419   9.294   6.846   3.848  1.2939 -1.1972 -0.5882
26338SOL    HW282420   9.397   6.837   3.958 -1.0129  0.2965  1.7386
26339SOL     OW82421  10.439   1.810   1.397 -0.1233  0.5266 -0.5570
26339SOL    HW182422  10.512   1.819   1.458  0.2852  1.5559 -1.1928
26339SOL    HW282423  10.478   1.774   1.317 -0.4101  0.5569 -0.7115
26340SOL     OW82424   0.505   7.750   4.492  0.3095  0.0821 -0.3696
26340SOL    HW182425   0.591   7.725   4.458  0.8910  2.1583 -0.5107
26340SOL    HW282426   0.524   7.806   4.568 -0.9551 -2.4600  1.9137
26341SOL     OW82427   3.831   2.450   9.781  0.4169  0.1076 -0.2984
26341SOL    HW182428   3.859   2.476   9.869 -2.7844  0.4598  0.6993
26341SOL    HW282429   3.849   2.356   9.777  1.3061  0.2390  0.4322
26342SOL     OW82430   0.565   7.889   9.807 -0.1032 -0.4963 -0.6209
26342SOL    HW182431   0.579   7.968   9.860  1.2416  0.6824 -2.7040
26342SOL    HW282432   0.472   7.868   9.821  0.0843  0.1132  1.7369
26343SOL     OW82433   4.504   2.515   6.638 -0.2395 -0.4504  0.3534
26343SOL    HW182434   4.584   2.527   6.690 -0.5832  1.2977  0.5320
26343SOL    HW282435   4.497   2.596   6.587 -1.0594 -1.2532 -0.8347
26344SOL     OW82436   9.401   1.648   1.215 -0.6765  0.4301 -0.0841
26344SOL    HW182437   9.488   1.615   1.236 -0.7733  0.6793  0.7450
26344SOL    HW282438   9.384   1.714   1.282 -1.6347  0.1591 -0.0544
26345SOL     OW82439   0.776   3.549   8.976  0.3790  0.1159 -0.0646
26345SOL    HW182440   0.795   3.624   8.920  0.3746  0.3268  0.2114
26345SOL    HW282441   0.816   3.571   9.060 -3.2560  1.7667  1.3517
26346SOL     OW82442   7.442   4.781   4.960  0.3133 -0.4845  0.2916
26346SOL    HW182443   7.425   4.873   4.941 -0.2084 -0.8934 -1.2512
26346SOL    HW282444   7.356   4.742   4.973  0.3769 -1.2557 -1.4372
26347SOL     OW82445   6.332   6.469   1.505  0.6431  0.2723 -0.4145
26347SOL    HW182446   6.280   6.511   1.573  1.0168 -0.5712  0.3998
26347SOL    HW282447   6.419   6.507   1.514  0.9607 -0.5871  0.2724
26348SOL     OW82448   3.903   1.444   8.075  0.3748  0.4816  0.5809
26348SOL    HW182449   3.965   1.500   8.122 -0.2609  1.1915  0.5781
26348SOL    HW282450   3.825   1.442   8.131 -0.7350  2.0848 -0.8882
26349SOL     OW82451   0.631  10.449   7.990  0.0789 -0.0541  0.0550
26349SOL    HW182452   0.621  10.508   8.064 -0.6138  1.1577 -0.9860
26349SOL    HW282453   0.631  10.361   8.029  0.1661  0.5796  1.5162
26350SOL     OW82454   7.315   0.490   5.523  0.1219  0.4412  0.4896
26350SOL    HW182455   7.332   0.470   5.615  2.7345 -1.5717 -0.3669
26350SOL    HW282456   7.297   0.405   5.483  0.7743  1.0802 -1.2002
26351SOL     OW82457   6.267   1.349   5.770 -0.0548  0.4720 -0.7506
26351SOL    HW182458   6.287   1.265   5.811 -2.1883 -0.6525 -1.9302
26351SOL    HW282459   6.309   1.343   5.683  1.4346  1.4223 -0.1138
26352SOL     OW82460  10.680   8.713   5.862  0.0980  0.5026 -0.3000
26352SOL    HW182461  10.627   8.634   5.849  0.6208 -0.7348  4.0123
26352SOL    HW282462  10.623   8.786   5.840 -2.5732 -0.9043  1.7158
26353SOL     OW82463   5.176   0.101  10.691  0.3695 -0.1194 -0.2842
26353SOL    HW182464   5.253   0.048  10.669  0.3120 -1.0093  1.5636
26353SOL    HW282465   5.176   0.171  10.627  1.2196 -1.6153 -1.9719
26354SOL     OW82466   4.786   8.542   0.382 -0.0634  0.3753  0.4687
26354SOL    HW182467   4.722   8.561   0.451 -1.3348  1.4595 -1.0049
26354SOL    HW282468   4.865   8.519   0.430 -0.7781  1.6336  2.3182
26355SOL     OW82469   6.515   2.713   3.513 -0.3869 -0.5675 -0.2849
26355SOL    HW182470   6.503   2.797   3.559 -0.1165  0.2761 -1.7104
26355SOL    HW282471   6.478   2.728   3.426  1.3852 -1.3074 -1.1970
26356SOL     OW82472  10.669   8.002   4.380  0.2612 -0.3222  0.1184
26356SOL    HW182473  10.632   7.952   4.307  0.7425 -1.7371  0.8087
26356SOL    HW282474  10.721   7.938   4.428 -0.1257  0.5682  1.7613
26357SOL     OW82475   9.506   7.409   5.074 -0.1781  0.0405 -0.1340
26357SOL    HW182476   9.473   7.324   5.047 -0.1974 -0.1050  0.3465
26357SOL    HW282477   9.442   7.441   5.137 -1.8074  1.7778 -2.5543
26358SOL     OW82478   8.593   4.391   6.452  0.6125  0.4183  0.2357
26358SOL    HW182479   8.621   4.476   6.484 -0.0549  0.5625  0.4484
26358SOL    HW282480   8.627   4.328   6.516  2.5359  0.3576 -0.7949
26359SOL     OW82481   3.812   8.404   3.837 -0.4299  0.3289 -0.0302
26359SOL    HW182482   3.814   8.498   3.817  0.5401 -0.1528 -2.2684
26359SOL    HW282483   3.904   8.378   3.840 -0.5258  0.1090  4.0697
26360SOL     OW82484   8.106   3.582   7.969 -0.0756 -0.7704  0.2826
26360SOL    HW182485   8.143   3.495   7.957  0.3950 -0.5282 -0.0334
26360SOL    HW282486   8.011   3.568   7.968 -0.0102 -1.1928 -0.3819
26361SOL     OW82487   1.333   9.384  10.434  0.0698  0.0885 -0.0095
26361SOL    HW182488   1.264   9.400  10.369  0.8446 -0.8358 -1.0952
26361SOL    HW282489   1.410   9.427  10.397 -0.0006  1.4518  1.3842
26362SOL     OW82490   2.657   9.804   0.280  0.2674  0.4131  0.1473
26362SOL    HW182491   2.637   9.710   0.280 -1.4524  0.7700 -0.5690
26362SOL    HW282492   2.581   9.845   0.322  0.6202  1.5690 -0.3337
26363SOL     OW82493   4.606   4.396  10.539 -0.4541  0.1334 -0.1998
26363SOL    HW182494   4.665   4.434  10.603  0.1237  0.1503 -0.7389
26363SOL    HW282495   4.555   4.332  10.589  3.3445 -3.4702 -0.6210
26364SOL     OW82496   0.298   4.761   4.802 -0.4082 -0.6522 -0.3486
26364SOL    HW182497   0.314   4.732   4.891 -2.9355  1.6101  0.9190
26364SOL    HW282498   0.329   4.852   4.801 -3.2600  0.3815 -0.7887
26365SOL     OW82499   9.331   2.762   2.692 -0.3555 -0.0555  0.2509
26365SOL    HW182500   9.404   2.819   2.668 -0.7094  0.4296  0.3168
26365SOL    HW282501   9.299   2.798   2.775  0.2583 -1.1408  0.9716
26366SOL     OW82502  10.849   1.493   3.206  0.4773  0.0872  0.2268
26366SOL    HW182503  10.816   1.478   3.295  1.5408  1.3254  0.8478
26366SOL    HW282504  10.774   1.474   3.149 -0.4036 -0.1081  1.4308
26367SOL     OW82505  10.494   7.457   1.085 -0.1220  0.1137  0.3120
26367SOL    HW182506  10.475   7.419   1.000  1.7308 -2.0949  0.8539
26367SOL    HW282507  10.438   7.535   1.089 -0.8132 -0.1771 -2.5700
26368SOL     OW82508   3.194   8.312   1.608 -0.2387 -0.1211 -0.1459
26368SOL    HW182509   3.143   8.241   1.647  0.9606  0.5529  2.8475
26368SOL    HW282510   3.138   8.389   1.616 -0.2671 -0.1118 -0.4254
26369SOL     OW82511  10.554   9.763   6.160 -0.8610 -0.2135 -0.1032
26369SOL    HW182512  10.561   9.668   6.165 -0.9370 -0.2116  0.0395
26369SOL    HW282513  10.466   9.779   6.126 -0.7087 -0.2022 -0.4944
26370SOL     OW82514   0.446   6.956   4.689  0.3879 -0.1275  0.1050
26370SOL    HW182515   0.502   6.894   4.735 -0.1912 -1.4715 -0.9662
26370SOL    HW282516   0.502   6.994   4.622 -0.1562 -2.0395 -1.4700
26371SOL     OW82517   3.185   6.843   5.628  0.3547 -0.1974 -0.9200
26371SOL    HW182518   3.190   6.868   5.536  2.2585 -0.9778 -1.0517
26371SOL    HW282519   3.218   6.920   5.676  2.1946 -0.8671 -1.0795
26372SOL     OW82520   3.135   3.054   5.368 -0.0864 -0.4275  0.7976
26372SOL    HW182521   3.053   3.015   5.397 -0.8850 -1.2177 -2.3148
26372SOL    HW282522   3.128   3.146   5.394 -1.4003 -0.7553  1.6567
26373SOL     OW82523   7.867   3.742   7.340  0.6175 -0.0440  0.2151
26373SOL    HW182524   7.922   3.811   7.302  0.0529  0.9273  1.1631
26373SOL    HW282525   7.821   3.784   7.412  0.0950 -1.3580  0.6652
26374SOL     OW82526   1.236   9.297   2.264  0.1934  0.0296  0.1627
26374SOL    HW182527   1.209   9.230   2.201  0.2856 -1.7340  1.9589
26374SOL    HW282528   1.186   9.375   2.239  0.7695 -0.4316 -2.5221
26375SOL     OW82529   6.405   4.480   3.250 -0.3901  0.1178 -0.4939
26375SOL    HW182530   6.361   4.480   3.335  2.8233  0.1933  1.2766
26375SOL    HW282531   6.460   4.558   3.252  3.0446 -2.1833 -0.7252
26376SOL     OW82532   0.792   8.054   4.880 -0.0852  0.1479 -0.2440
26376SOL    HW182533   0.882   8.082   4.863 -0.0640 -0.3694 -1.0332
26376SOL    HW282534   0.755   8.123   4.934  0.6029  0.6633 -0.4194
26377SOL     OW82535   2.251   2.050   8.382 -0.1164  0.3359 -0.4749
26377SOL    HW182536   2.338   2.013   8.367  0.3360  1.2753 -0.2163
26377SOL    HW282537   2.258   2.096   8.465 -1.1957 -0.5635  0.1198
26378SOL     OW82538   3.451   3.969   9.006 -0.0057  0.5535  0.4558
26378SOL    HW182539   3.543   3.978   9.031  0.2469  0.8923 -0.5570
26378SOL    HW282540   3.454   3.940   8.915 -0.9018 -0.5317  0.7556
26379SOL     OW82541   0.523   5.615   5.614  0.3333  0.0403  0.4943
26379SOL    HW182542   0.467   5.588   5.541 -0.7600  2.4113  0.4016
26379SOL    HW282543   0.611   5.618   5.577 -0.1216  0.5899 -0.5557
26380SOL     OW82544   2.237  10.041   1.578 -0.4788  0.1013 -0.1836
26380SOL    HW182545   2.151  10.057   1.539  0.2339 -0.5324 -2.0592
26380SOL    HW282546   2.242   9.945   1.586  0.4454  0.0743 -1.0192
26381SOL     OW82547   5.871   3.588   7.033  0.3597 -0.5654 -0.4914
26381SOL    HW182548   5.820   3.576   7.113  2.3712 -2.7925  0.5257
26381SOL    HW282549   5.892   3.681   7.031 -1.9668 -0.0078  0.1469
26382SOL     OW82550   8.764   9.457   4.302  0.1310 -0.1568 -0.0256
26382SOL    HW182551   8.853   9.427   4.284 -0.2053 -0.0088 -2.0381
26382SOL    HW282552   8.772   9.506   4.384  2.2055  1.1948 -0.9806
26383SOL     OW82553   7.723   0.253   8.569 -0.8891 -0.4198  0.4654
26383SOL    HW182554   7.654   0.259   8.635 -0.2344  0.4366  1.0885
26383SOL    HW282555   7.759   0.342   8.565  1.0426 -1.1547  1.0766
26384SOL     OW82556   3.420   6.809   5.942 -0.0881 -0.0944  0.3341
26384SOL    HW182557   3.451   6.819   6.032  1.3988 -0.5864 -0.1098
26384SOL    HW282558   3.374   6.725   5.941 -0.9856  0.3822  0.8636
26385SOL     OW82559   1.014  10.023   0.834  0.5859  0.2239  0.6080
26385SOL    HW182560   1.053  10.079   0.901  1.9065 -0.7662  0.6940
26385SOL    HW282561   1.066   9.943   0.837  0.7578  0.2183 -1.7321
26386SOL     OW82562   0.838   9.227   4.300 -0.0914  0.0777 -0.7440
26386SOL    HW182563   0.911   9.234   4.239  0.1227  0.2244 -0.4750
26386SOL    HW282564   0.777   9.296   4.273  0.5584  0.9309 -0.0532
26387SOL     OW82565  10.150   5.463   1.551 -0.0531 -0.0179  0.0535
26387SOL    HW182566  10.117   5.460   1.641 -2.8971  1.6478 -0.8720
26387SOL    HW282567  10.137   5.554   1.525  0.0702 -0.6554 -2.2963
26388SOL     OW82568   8.425   0.670   7.050 -0.0085 -0.3408  0.0411
26388SOL    HW182569   8.500   0.614   7.071 -0.1775 -0.6018 -0.0389
26388SOL    HW282570   8.377   0.620   6.984 -0.0448  0.0005 -0.1903
26389SOL     OW82571   1.018   5.110   6.704  0.1026 -0.0897 -0.1285
26389SOL    HW182572   1.041   5.116   6.797 -0.4820  1.5695 -0.0788
26389SOL    HW282573   0.923   5.118   6.703  0.0508 -0.7204 -0.8392
26390SOL     OW82574   6.745   4.499   6.682 -0.4030  0.0901  0.4689
26390SOL    HW182575   6.713   4.534   6.766 -1.1634  0.6754 -0.0517
26390SOL    HW282576   6.766   4.577   6.631  2.5895 -0.3016  1.0536
26391SOL     OW82577   9.731   9.056   7.534  0.0482 -0.0013  0.6373
26391SOL    HW182578   9.714   9.018   7.620 -0.6765 -0.1996  0.4097
26391SOL    HW282579   9.712   8.986   7.472 -1.5820  0.8020  0.2043
26392SOL     OW82580  10.562   7.083   1.839 -0.3717 -0.2199 -0.8543
26392SOL    HW182581  10.543   7.037   1.757  0.2513 -0.6058 -0.7828
26392SOL    HW282582  10.494   7.150   1.846 -0.9597 -0.7774 -1.2385
26393SOL     OW82583   2.736   7.470   0.685 -0.0746  0.8382  0.5497
26393SOL    HW182584   2.711   7.447   0.596 -1.6530 -0.1341  1.2168
26393SOL    HW282585   2.728   7.565   0.689  2.0684  1.1117 -0.9350
26394SOL     OW82586   6.051   6.641   5.477  0.7252 -0.2182  0.0433
26394SOL    HW182587   6.100   6.642   5.559 -0.7774  2.0163  0.9461
26394SOL    HW282588   5.980   6.703   5.490  0.6133  0.4028 -3.0514
26395SOL     OW82589   8.059   1.779   6.320  0.2314  0.2802  0.0201
26395SOL    HW182590   7.979   1.811   6.278 -0.2697 -1.3564 -0.2815
26395SOL    HW282591   8.113   1.749   6.247  1.0767  1.2578  0.2336
26396SOL     OW82592   6.029   9.689   0.215  0.3879 -0.4927  0.0212
26396SOL    HW182593   6.009   9.764   0.157  0.0167 -1.4661 -1.1401
26396SOL    HW282594   5.944   9.665   0.252  0.7089  0.4830  1.4469
26397SOL     OW82595   8.645   6.248   5.108  0.3227  0.4966  0.0575
26397SOL    HW182596   8.684   6.207   5.185 -1.1259 -1.0387  0.0029
26397SOL    HW282597   8.710   6.236   5.039  0.2448 -1.0885  0.2349
26398SOL     OW82598  10.325   9.953   5.274  0.6417  0.0739  0.2888
26398SOL    HW182599  10.326   9.981   5.182 -1.1274 -0.0229  0.2051
26398SOL    HW282600  10.417   9.950   5.300  1.1153  0.9540 -1.2232
26399SOL     OW82601   7.043   1.035  10.598 -0.7050 -0.7191 -0.5096
26399SOL    HW182602   7.099   0.962  10.625  1.8896  1.3048 -0.2597
26399SOL    HW282603   7.007   1.069  10.680  0.6974  0.3228 -0.3179
26400SOL     OW82604  10.657   2.718   0.332 -0.1262 -0.0396 -0.1882
26400SOL    HW182605  10.577   2.748   0.376 -0.2504 -0.2115 -0.2923
26400SOL    HW282606  10.703   2.667   0.399 -1.1780 -1.7962 -0.7709
26401SOL     OW82607   2.972   2.868   3.572 -0.2903 -0.1681  0.3919
26401SOL    HW182608   3.044   2.923   3.543  1.3752 -2.7995 -0.7210
26401SOL    HW282609   2.899   2.892   3.515  1.0368 -0.5987 -1.5546
26402SOL     OW82610   9.763   5.362   2.978  0.1041  0.2226  0.1046
26402SOL    HW182611   9.839   5.305   2.988 -0.8013 -0.9124  0.5826
26402SOL    HW282612   9.751   5.369   2.883 -0.1931 -0.9356  0.0502
26403SOL     OW82613   8.945   4.416   8.651  0.1076 -0.1311 -0.2899
26403SOL    HW182614   9.012   4.376   8.596 -2.3071 -0.2234 -3.3448
26403SOL    HW282615   8.878   4.348   8.660 -0.9087  0.9067  0.2075
26404SOL     OW82616   1.386   7.978   4.349 -0.3276 -0.6345 -0.0400
26404SOL    HW182617   1.481   7.989   4.342 -0.1551 -2.1963 -0.3682
26404SOL    HW282618   1.353   8.066   4.367  0.9357  0.3530 -2.3511
26405SOL     OW82619   9.698   3.951   1.494  0.2665  0.1530  0.1486
26405SOL    HW182620   9.750   3.999   1.430  0.4004 -0.4442 -0.1942
26405SOL    HW282621   9.627   3.912   1.442 -0.6362  1.1224  0.6382
26406SOL     OW82622   3.512   5.841   1.487 -0.2465 -0.3978 -0.0914
26406SOL    HW182623   3.603   5.870   1.483 -0.0868 -0.8779  0.0438
26406SOL    HW282624   3.494   5.806   1.400 -0.0514 -1.0558  0.1356
26407SOL     OW82625   6.995   6.245   4.658  0.2643  0.5042 -0.2812
26407SOL    HW182626   7.036   6.242   4.571 -0.1655  0.6072 -0.4884
26407SOL    HW282627   6.907   6.280   4.642 -0.1962 -0.4950  0.0495
26408SOL     OW82628   5.552   2.683   6.492 -0.0543  0.6310 -0.2462
26408SOL    HW182629   5.644   2.701   6.514 -0.3492  1.1293  0.5903
26408SOL    HW282630   5.523   2.763   6.448 -0.8417  1.5406  1.8535
26409SOL     OW82631   4.153   9.748   2.937 -0.0866  0.0964 -0.2539
26409SOL    HW182632   4.095   9.816   2.971  1.6985  0.7364  1.6126
26409SOL    HW282633   4.124   9.668   2.980 -0.3893  0.1968 -0.2708
26410SOL     OW82634   7.074   0.685   7.913 -0.0970  0.3296 -0.2833
26410SOL    HW182635   7.045   0.683   7.822  0.3731 -0.1939 -0.4208
26410SOL    HW282636   7.058   0.776   7.941 -1.5085  0.1479 -0.4660
26411SOL     OW82637   2.349   3.106   2.741 -0.8470  0.1867 -0.5056
26411SOL    HW182638   2.425   3.074   2.790 -1.2027 -1.5743 -1.0799
26411SOL    HW282639   2.359   3.068   2.654 -1.1861  1.8354 -1.2828
26412SOL     OW82640   1.827   4.178   9.812  0.4495 -0.1695 -0.0306
26412SOL    HW182641   1.838   4.084   9.819 -0.6290 -0.4198 -1.4189
26412SOL    HW282642   1.835   4.197   9.719 -0.0052  1.0116  0.1507
26413SOL     OW82643   3.680   8.244   0.810 -0.5664 -0.2048  0.1406
26413SOL    HW182644   3.767   8.230   0.848 -2.1373 -2.9601  3.0387
26413SOL    HW282645   3.680   8.192   0.730  0.3750 -0.4536  0.2954
26414SOL     OW82646   1.183   9.967   4.277  0.6550 -0.0559  1.1499
26414SOL    HW182647   1.230   9.990   4.197  0.2650  0.4402  1.0609
26414SOL    HW282648   1.184   9.871   4.278  1.5133 -0.0540  1.0618
26415SOL     OW82649   0.975   5.277   6.197  0.0702 -0.1342 -0.4335
26415SOL    HW182650   0.946   5.327   6.273  0.6296  0.0358 -0.3239
26415SOL    HW282651   1.019   5.200   6.236  0.2620 -0.1004 -0.5843
26416SOL     OW82652  10.853   4.003   3.599 -0.8388  0.2011  0.2473
26416SOL    HW182653  10.823   3.991   3.690 -0.2707  0.6438  0.4911
26416SOL    HW282654  10.901   4.086   3.600  0.1357 -0.3498 -0.2125
26417SOL     OW82655   2.618   4.400   0.204  0.1384 -0.1987  0.1235
26417SOL    HW182656   2.565   4.472   0.236  0.8621 -0.4463  1.9738
26417SOL    HW282657   2.635   4.347   0.282  1.7527 -0.9753 -0.7306
26418SOL     OW82658   9.027   8.669   5.552  0.5185  0.0723 -0.0730
26418SOL    HW182659   8.976   8.748   5.570 -0.9373 -1.2101  1.6911
26418SOL    HW282660   9.092   8.667   5.622 -0.6447 -1.2349  1.0086
26419SOL     OW82661   5.648   2.512   2.259  0.2649  0.4948 -0.0033
26419SOL    HW182662   5.595   2.559   2.323 -0.7507 -2.2959  1.3036
26419SOL    HW282663   5.702   2.452   2.311  1.7748  0.4370 -1.5771
26420SOL     OW82664   6.078   8.015   3.596  0.2374  0.3179  0.3024
26420SOL    HW182665   6.057   8.061   3.514  0.5698  0.5062  0.3239
26420SOL    HW282666   6.034   7.930   3.587  0.0285  0.4487  0.0537
26421SOL     OW82667   9.835   5.097   5.349  0.7131  0.0475 -0.2094
26421SOL    HW182668   9.833   5.136   5.261  1.6230  0.0044 -0.2580
26421SOL    HW282669   9.920   5.122   5.384  0.4884 -0.2197  0.5374
26422SOL     OW82670   8.580   8.851   5.352  0.1044  0.4750 -0.0492
26422SOL    HW182671   8.587   8.775   5.294  0.5874 -1.2965  2.2548
26422SOL    HW282672   8.667   8.890   5.351 -0.1289  1.0079 -1.1931
26423SOL     OW82673  10.051  10.791   6.482 -0.1115  0.1080  0.9633
26423SOL    HW182674  10.055  10.792   6.386 -0.5283  1.2383  0.9567
26423SOL    HW282675  10.032  10.700   6.504  0.6921 -0.2997  0.0039
26424SOL     OW82676   5.115   1.548   4.252  0.4245  0.0836  0.1329
26424SOL    HW182677   5.203   1.542   4.214  0.5970  0.9775  0.3767
26424SOL    HW282678   5.056   1.525   4.181  0.8705 -0.7210  0.0232
26425SOL     OW82679   4.830   8.480  10.700  0.7451  0.1498  0.0885
26425SOL    HW182680   4.858   8.422  10.770  1.2636  0.7536  0.3859
26425SOL    HW282681   4.854   8.568  10.730 -0.1374  0.5345 -0.3019
26426SOL     OW82682   5.234   2.973   5.981  0.2413 -0.2714  0.3535
26426SOL    HW182683   5.175   2.898   5.988 -0.0736  0.0446  1.1278
26426SOL    HW282684   5.195   3.027   5.912  0.7490 -1.0615 -0.5725
26427SOL     OW82685   9.878   3.771   0.855 -0.1369 -0.1401  0.6808
26427SOL    HW182686   9.789   3.760   0.888 -0.2981  1.1263  0.6873
26427SOL    HW282687   9.869   3.831   0.781  0.4322 -1.7043 -0.6995
26428SOL     OW82688   1.031   2.196   6.950 -0.1264  0.4485  0.1399
26428SOL    HW182689   1.050   2.240   6.868 -0.2379 -0.2710 -0.2805
26428SOL    HW282690   0.942   2.224   6.973  0.2786  1.4319  0.5398
26429SOL     OW82691   8.446   6.337   9.254 -0.0093 -0.9414 -0.9385
26429SOL    HW182692   8.363   6.312   9.215 -0.3774 -0.4765 -0.4635
26429SOL    HW282693   8.487   6.254   9.279 -1.1808 -1.1013  0.5463
26430SOL     OW82694   1.325   8.012   5.433 -0.4003 -0.0214  0.0883
26430SOL    HW182695   1.243   8.060   5.445  0.8908  2.3699 -0.3249
26430SOL    HW282696   1.340   7.969   5.518 -0.7176  1.7460  1.0694
26431SOL     OW82697   6.485   1.570   3.518  0.1896  0.6028  0.3160
26431SOL    HW182698   6.511   1.529   3.436  0.2364 -0.3253  0.7807
26431SOL    HW282699   6.548   1.641   3.531  0.6122  0.3013 -0.0945
26432SOL     OW82700   9.976   5.243   3.999 -0.2552  0.9188  0.9602
26432SOL    HW182701   9.910   5.175   3.984 -0.4351  0.3976  3.7701
26432SOL    HW282702   9.976   5.295   3.919 -1.3466 -1.3633 -0.5695
26433SOL     OW82703   1.420   5.409   3.076 -0.1064 -0.1045  0.7905
26433SOL    HW182704   1.474   5.470   3.124 -0.4649  0.9608 -0.1426
26433SOL    HW282705   1.474   5.383   3.001 -0.7677  0.7600  0.0008
26434SOL     OW82706   4.515   5.331   6.988  0.3767 -0.2383 -0.2342
26434SOL    HW182707   4.491   5.290   6.905 -0.2492  1.1014 -0.7222
26434SOL    HW282708   4.551   5.416   6.964 -1.5010  0.9365  0.9266
26435SOL     OW82709   5.525   3.942   2.041  0.1468  0.8427 -0.3589
26435SOL    HW182710   5.556   3.932   2.131  0.2897 -1.2464 -0.6075
26435SOL    HW282711   5.547   4.031   2.017  3.4016  0.3056  0.4325
26436SOL     OW82712   2.117   1.600   6.977 -0.0563 -0.3751  0.1391
26436SOL    HW182713   2.094   1.620   6.886 -1.3613  1.3282  0.8266
26436SOL    HW282714   2.135   1.505   6.977 -1.9412 -0.7493 -1.5072
26437SOL     OW82715   7.417   0.762   5.631  0.2535 -0.1302  0.2534
26437SOL    HW182716   7.420   0.675   5.593 -2.1669  0.3546 -1.1161
26437SOL    HW282717   7.500   0.803   5.604  1.4384 -1.9958  0.9878
26438SOL     OW82718   1.602   2.034   0.800 -0.2745 -0.3159  0.2355
26438SOL    HW182719   1.523   2.009   0.848  0.0640 -1.7501  0.0636
26438SOL    HW282720   1.616   1.963   0.738  1.0779 -0.0022  0.1728
26439SOL     OW82721   4.401  10.665   4.517 -0.7206  0.0069 -0.0544
26439SOL    HW182722   4.426  10.644   4.427 -2.0409  0.5109 -0.5459
26439SOL    HW282723   4.415  10.583   4.565  1.7805  0.2492 -0.3060
26440SOL     OW82724   5.764   6.977   5.361  0.6506 -0.2859 -0.1650
26440SOL    HW182725   5.848   7.017   5.341  0.2208  0.7259  0.0319
26440SOL    HW282726   5.703   7.051   5.369  0.0245 -0.9079  1.0230
26441SOL     OW82727   5.267   4.699   3.194 -0.3944 -0.9140 -0.0659
26441SOL    HW182728   5.193   4.759   3.203 -0.2088 -0.9212  1.5912
26441SOL    HW282729   5.250   4.652   3.112 -1.1213  0.5935 -0.8030
26442SOL     OW82730   7.833   0.850   3.290  0.2771  0.1698  0.1107
26442SOL    HW182731   7.858   0.933   3.251  2.2293 -0.5224 -0.1434
26442SOL    HW282732   7.841   0.786   3.218 -0.2303 -0.4115  0.5599
26443SOL     OW82733   3.700   4.089   6.484  0.0611  0.5213  0.4685
26443SOL    HW182734   3.622   4.118   6.531  0.3099  0.1689  1.1013
26443SOL    HW282735   3.682   3.998   6.460  0.2271  0.4778  0.5073
26444SOL     OW82736   1.624   9.183   1.112  0.6734  0.4008  0.4709
26444SOL    HW182737   1.698   9.238   1.088  1.3175 -1.6885 -2.5488
26444SOL    HW282738   1.552   9.215   1.057  0.5119 -0.4400  0.1906
26445SOL     OW82739   7.615  10.537   4.966  0.4486 -0.2271  0.2682
26445SOL    HW182740   7.530  10.576   4.988  0.8089 -0.6481  2.4964
26445SOL    HW282741   7.596  10.444   4.952  0.0536  0.2027 -2.3227
26446SOL     OW82742   4.908   6.291   4.186  0.8721  0.2092 -0.1388
26446SOL    HW182743   4.902   6.387   4.192 -0.0699  0.0295  2.1543
26446SOL    HW282744   4.966   6.266   4.257  0.1072 -1.0226  0.0659
26447SOL     OW82745   3.998   9.228  10.027 -0.3315  0.2317 -0.0526
26447SOL    HW182746   4.087   9.193  10.015 -0.7748 -0.7783 -0.4767
26447SOL    HW282747   3.985   9.227  10.122  0.4492  1.2747  0.0790
26448SOL     OW82748   4.988  10.910   1.354  0.4034  0.1555  0.0228
26448SOL    HW182749   5.077  10.923   1.322  0.0783 -0.1133 -1.0071
26448SOL    HW282750   4.935  10.969   1.302 -0.3423 -1.4221 -1.0449
26449SOL     OW82751   1.998   8.908   7.465  0.0374  0.3354  0.3403
26449SOL    HW182752   1.966   8.995   7.488 -0.5314  0.2771 -0.2288
26449SOL    HW282753   1.942   8.848   7.514 -0.3535  0.2518 -0.2057
26450SOL     OW82754   7.536   9.827   4.672  0.1684  0.1380 -0.0612
26450SOL    HW182755   7.475   9.895   4.640  1.3531  1.4890  0.4978
26450SOL    HW282756   7.507   9.809   4.761 -0.9452 -1.0379 -0.6566
26451SOL     OW82757   1.764   7.364   2.808  0.1303 -0.0930 -0.6881
26451SOL    HW182758   1.760   7.301   2.736 -1.3351  0.1637 -0.8435
26451SOL    HW282759   1.827   7.326   2.869 -1.9908 -2.5795  0.0307
26452SOL     OW82760   5.167   4.091   1.558  0.3633 -0.3417 -0.1147
26452SOL    HW182761   5.217   4.069   1.636  0.6661  0.6673 -0.0159
26452SOL    HW282762   5.145   4.184   1.568 -2.9474 -1.1500  0.6025
26453SOL     OW82763  10.938   3.685   4.339  0.3326 -0.0594  0.3359
26453SOL    HW182764  10.968   3.764   4.295 -0.6916  0.2193  0.1076
26453SOL    HW282765  10.999   3.617   4.310  2.3506  0.9745  2.0025
26454SOL     OW82766   7.542  10.930   7.392  0.0242  0.3232 -0.1446
26454SOL    HW182767   7.607  10.971   7.448 -0.9136  0.7729  0.6276
26454SOL    HW282768   7.571  10.839   7.384  2.8947  1.4274 -3.0472
26455SOL     OW82769   0.360   9.732   3.449 -0.4677 -0.6895  0.1777
26455SOL    HW182770   0.329   9.698   3.533  1.0698 -1.4814  0.4376
26455SOL    HW282771   0.283   9.774   3.411 -1.6075 -1.7642  1.2364
26456SOL     OW82772   7.204  10.131   0.342 -0.8571 -0.1456 -0.1557
26456SOL    HW182773   7.147  10.085   0.404  1.5743 -3.2137 -0.0982
26456SOL    HW282774   7.280  10.156   0.393  0.1352 -0.6394 -1.3754
26457SOL     OW82775   3.691  10.844   6.137  0.0843  0.3784 -0.5806
26457SOL    HW182776   3.603  10.871   6.111 -0.4125 -1.4053 -0.7852
26457SOL    HW282777   3.749  10.894   6.079 -0.8910 -0.8274 -2.6551
26458SOL     OW82778   2.718   2.644  10.973 -0.6696  0.3969  0.0657
26458SOL    HW182779   2.654   2.707  10.939 -0.6143  2.4567  3.6189
26458SOL    HW282780   2.802   2.690  10.967 -0.3551 -0.0739  0.8947
26459SOL     OW82781   6.921  10.201   3.816 -0.4004  0.2608  0.3426
26459SOL    HW182782   6.859  10.138   3.780 -1.1978  0.9287  0.5126
26459SOL    HW282783   6.940  10.168   3.904 -2.6001  1.4445  1.3113
26460SOL     OW82784  10.771   2.977   6.502  0.3390  0.1258 -0.3156
26460SOL    HW182785  10.719   2.922   6.443  2.6375 -1.2976 -1.0619
26460SOL    HW282786  10.708   3.009   6.567 -1.6180 -0.8740 -1.6691
26461SOL     OW82787   9.609   0.385   6.698  0.0961 -0.2914  0.2954
26461SOL    HW182788   9.523   0.357   6.729 -0.2501  1.3641  0.8665
26461SOL    HW282789   9.669   0.319   6.732 -0.6359 -0.1066  2.0020
26462SOL     OW82790   7.472   8.109   8.390  0.0870  0.3612 -0.4071
26462SOL    HW182791   7.459   8.024   8.348 -0.9459 -0.1947  0.9609
26462SOL    HW282792   7.559   8.103   8.430 -0.1730 -0.2397  0.0814
26463SOL     OW82793   8.865   5.727   1.669 -0.4306  0.5463 -0.2181
26463SOL    HW182794   8.887   5.758   1.581  1.3081 -1.2437 -0.4589
26463SOL    HW282795   8.921   5.779   1.727  1.2888 -0.9706 -0.4924
26464SOL     OW82796   7.969   1.261   5.988  1.1035 -0.2980  0.0562
26464SOL    HW182797   7.898   1.244   6.051  1.0516 -0.9085 -0.1646
26464SOL    HW282798   8.010   1.176   5.975  0.8637 -0.2502 -1.0445
26465SOL     OW82799   2.298   3.847   6.274 -0.0229  0.0962 -0.1949
26465SOL    HW182800   2.224   3.908   6.269  0.3216  0.3481 -2.8342
26465SOL    HW282801   2.358   3.889   6.336 -0.9956  1.0839  0.1192
26466SOL     OW82802   3.558   5.480   3.121 -0.2630  0.2372  0.1366
26466SOL    HW182803   3.472   5.494   3.160 -0.7028  0.9850 -1.0804
26466SOL    HW282804   3.598   5.567   3.119  0.6858 -0.1750  1.0759
26467SOL     OW82805  10.103   5.505   7.823  0.3718  0.2072 -0.4793
26467SOL    HW182806  10.152   5.575   7.779 -0.6902  0.1242 -1.8327
26467SOL    HW282807  10.083   5.442   7.753 -1.1526 -0.0436  0.1724
26468SOL     OW82808   9.434   3.176   8.886  0.1796  0.1843  0.3910
26468SOL    HW182809   9.458   3.083   8.878  0.9166  0.3645  0.4758
26468SOL    HW282810   9.471   3.217   8.808 -0.4788  0.3442  0.1596
26469SOL     OW82811   9.660   5.186   9.520  0.1150 -0.0313  0.0588
26469SOL    HW182812   9.743   5.233   9.510 -0.4003  0.8646 -0.1334
26469SOL    HW282813   9.649   5.177   9.615  0.7063 -0.6558  0.0672
26470SOL     OW82814   9.329   9.307  10.880 -0.4101  0.2071 -0.0234
26470SOL    HW182815   9.337   9.281  10.789 -1.3566  0.9857 -0.3375
26470SOL    HW282816   9.383   9.386  10.888 -1.9957  1.3460 -0.4243
26471SOL     OW82817   1.194   9.568   1.389  0.1083 -0.3407  0.5451
26471SOL    HW182818   1.119   9.523   1.426  0.5862 -0.4130  1.4481
26471SOL    HW282819   1.267   9.508   1.403  0.1350 -0.7813 -1.3835
26472SOL     OW82820  10.506   6.073   6.110 -0.2809 -0.1427 -0.2187
26472SOL    HW182821  10.520   5.985   6.075  0.2437 -0.4380  0.7198
26472SOL    HW282822  10.465   6.059   6.195 -1.0326  0.5525 -0.4610
26473SOL     OW82823   2.651   4.162   0.786  0.2910  0.5136 -0.3874
26473SOL    HW182824   2.602   4.144   0.866 -0.4555 -0.1784 -1.0021
26473SOL    HW282825   2.702   4.240   0.808  2.2342 -1.2502  1.7062
26474SOL     OW82826   9.824   7.038   0.713 -0.2333  0.4596  0.0135
26474SOL    HW182827   9.764   7.044   0.639  0.6781  0.8758 -0.6984
26474SOL    HW282828   9.879   6.962   0.693 -2.1381 -1.4847  1.8834
26475SOL     OW82829   7.545   1.253   5.030 -0.1286  0.0133 -0.1411
26475SOL    HW182830   7.493   1.285   5.103 -0.5835  0.3429 -0.6072
26475SOL    HW282831   7.518   1.162   5.020  0.2470 -0.1598  0.3698
26476SOL     OW82832   9.565  10.819   0.918  0.0959 -0.3012  0.1530
26476SOL    HW182833   9.537  10.730   0.940  0.3355 -0.7082 -1.1677
26476SOL    HW282834   9.483  10.869   0.915 -0.2029 -0.8287 -0.6790
26477SOL     OW82835   6.452   7.762   5.854 -0.1463 -0.2470  0.0913
26477SOL    HW182836   6.445   7.808   5.938 -0.9878 -0.2926  0.0501
26477SOL    HW282837   6.504   7.821   5.799  1.4390 -0.7500  1.0115
26478SOL     OW82838   7.831  10.366  10.528 -0.0141 -0.2412  0.3111
26478SOL    HW182839   7.774  10.293  10.553  0.5904 -1.6473 -2.2514
26478SOL    HW282840   7.794  10.399  10.446  1.7015  0.1070 -0.3479
26479SOL     OW82841   8.499   4.452   0.270  0.2098 -0.8488  0.0066
26479SOL    HW182842   8.470   4.511   0.200 -2.9196 -2.4378 -0.1068
26479SOL    HW282843   8.527   4.373   0.224  0.2488 -1.0802  0.4281
26480SOL     OW82844   2.630   9.511  10.911 -0.1330 -0.4673 -0.1015
26480SOL    HW182845   2.604   9.439  10.968  0.9270 -2.0379 -1.5692
26480SOL    HW282846   2.704   9.551  10.956 -0.2803 -0.7288  0.3790
26481SOL     OW82847  10.126  10.556   2.084  0.3346 -0.4138 -0.0237
26481SOL    HW182848  10.060  10.625   2.089 -0.8350 -1.4532 -0.7453
26481SOL    HW282849  10.176  10.575   2.005  0.5534  0.0737  0.2314
26482SOL     OW82850   2.887   3.216   5.282  0.4491 -0.2528  0.3501
26482SOL    HW182851   2.820   3.235   5.217  2.0331  2.0455 -0.6416
26482SOL    HW282852   2.919   3.301   5.310  3.5329 -1.2977  0.2020
26483SOL     OW82853  10.684   9.670   6.473 -0.1413 -0.2637  0.6546
26483SOL    HW182854  10.641   9.631   6.397  1.2932 -0.6771  0.0259
26483SOL    HW282855  10.645   9.757   6.481 -0.9114 -0.5338 -0.0389
26484SOL     OW82856   4.543   2.988   3.860 -0.0877  0.1297 -0.8578
26484SOL    HW182857   4.591   2.910   3.889 -0.0742 -0.3846 -2.2535
26484SOL    HW282858   4.489   2.957   3.788 -1.3570  1.0565 -0.3018
26485SOL     OW82859   2.470   6.864   2.730  0.2344  0.4518  0.3415
26485SOL    HW182860   2.409   6.934   2.753  0.5342  1.1966 -1.0916
26485SOL    HW282861   2.480   6.814   2.811 -0.3652  1.7703  1.2540
26486SOL     OW82862   5.906   7.439   7.563  0.6670  0.6775 -0.0150
26486SOL    HW182863   5.944   7.368   7.513  0.7006  0.7743 -0.1261
26486SOL    HW282864   5.922   7.415   7.654  0.0478  0.1852 -0.0302
26487SOL     OW82865   0.061   6.924   5.274 -0.5181 -0.5165 -0.1577
26487SOL    HW182866   0.093   6.951   5.360 -0.7577 -0.4990 -0.0746
26487SOL    HW282867  -0.005   6.989   5.251  0.2868  0.0859 -0.8253
26488SOL     OW82868   0.441   6.671   5.147  0.4547  0.4155  0.5131
26488SOL    HW182869   0.525   6.673   5.101 -1.6053 -0.3125 -3.4502
26488SOL    HW282870   0.434   6.582   5.181 -0.3197 -0.6765 -2.3794
26489SOL     OW82871   0.689   6.744   3.945  0.1549 -0.6349 -0.5314
26489SOL    HW182872   0.669   6.788   4.028  1.2519 -0.6332 -0.2589
26489SOL    HW282873   0.678   6.811   3.878 -0.7304 -0.6326 -0.3924
26490SOL     OW82874   5.388   5.673   9.019 -0.2269 -0.2659 -0.0372
26490SOL    HW182875   5.306   5.693   9.063  0.2007  0.0842  0.6096
26490SOL    HW282876   5.397   5.578   9.027  0.1575 -0.1341  1.1939
26491SOL     OW82877   2.060   4.916   5.768  0.2967 -0.3940  0.4476
26491SOL    HW182878   2.126   4.908   5.700  1.4463 -1.2971  1.6362
26491SOL    HW282879   2.059   5.010   5.790 -0.9072  0.0879 -1.5866
26492SOL     OW82880   9.641   5.075   8.160 -0.1954 -0.1037  0.1413
26492SOL    HW182881   9.573   5.055   8.095 -1.5701 -1.7370  2.0023
26492SOL    HW282882   9.696   4.997   8.161  0.7654  0.5619 -0.1789
26493SOL     OW82883   0.037  10.593   6.760  0.3960 -0.8484 -0.4798
26493SOL    HW182884  -0.023  10.540   6.813  0.3977 -0.2588  0.1249
26493SOL    HW282885   0.122  10.583   6.803  0.7366 -1.6853 -1.3392
26494SOL     OW82886   6.318  10.267   6.096 -0.1204 -0.1281 -0.8573
26494SOL    HW182887   6.403  10.282   6.136 -0.0425  1.8337 -1.6828
26494SOL    HW282888   6.255  10.288   6.166  0.0498 -2.8558  0.1648
26495SOL     OW82889   2.133   7.141   2.076 -0.4538 -0.1704 -0.1616
26495SOL    HW182890   2.087   7.066   2.039  0.7901 -2.0929  2.0524
26495SOL    HW282891   2.226   7.123   2.060 -0.1108  0.5972  0.9194
26496SOL     OW82892   3.889   7.979   1.655  0.5958 -0.2834  0.6580
26496SOL    HW182893   3.960   7.933   1.610 -0.1606  0.9801 -1.9455
26496SOL    HW282894   3.818   7.915   1.661  1.5320 -1.1915  2.2205
26497SOL     OW82895  10.678   2.860   0.030  0.2810  0.2137 -0.4605
26497SOL    HW182896  10.673   2.776  -0.016 -0.1243 -0.0839  0.1318
26497SOL    HW282897  10.687   2.836   0.122 -0.7948  0.8326 -0.2004
26498SOL     OW82898   3.684   3.355   0.410 -0.3556 -0.4356 -0.2403
26498SOL    HW182899   3.734   3.436   0.413 -0.4422 -0.3317 -1.2885
26498SOL    HW282900   3.749   3.286   0.421 -0.1507 -0.2505 -0.2783
26499SOL     OW82901  10.137   0.730   6.590  0.3032 -0.3948 -0.9152
26499SOL    HW182902  10.224   0.736   6.551  1.1271 -0.1528  0.9133
26499SOL    HW282903  10.153   0.709   6.682 -1.4535  2.8385  0.2147
26500SOL     OW82904   2.535  10.225   7.917 -0.3866 -0.3875  0.4249
26500SOL    HW182905   2.597  10.154   7.932  0.6673  1.0812  3.5300
26500SOL    HW282906   2.582  10.304   7.943 -2.5567  1.1046  0.0044
26501SOL     OW82907   4.971   4.846   4.489 -0.2831 -0.1521  0.4539
26501SOL    HW182908   4.909   4.900   4.537 -0.0678  0.1171  0.4258
26501SOL    HW282909   4.942   4.756   4.506 -1.1816 -0.0041 -0.2226
26502SOL     OW82910   8.369   7.930   7.412 -0.3809 -0.1214 -0.2715
26502SOL    HW182911   8.294   7.947   7.469 -1.0805 -4.8438  0.3496
26502SOL    HW282912   8.329   7.904   7.328  0.6298  0.0325 -0.8069
26503SOL     OW82913  10.061  10.940   2.561  0.2863  0.1567 -0.0146
26503SOL    HW182914  10.034  10.907   2.476 -0.7150 -2.0897  1.1303
26503SOL    HW282915  10.155  10.925   2.565  0.0182 -1.5403  0.0372
26504SOL     OW82916   4.601   4.929   1.617 -0.3467  0.6905  0.3673
26504SOL    HW182917   4.560   5.015   1.619 -0.4208  0.7074 -1.0128
26504SOL    HW282918   4.693   4.946   1.637 -0.0838  1.2936 -1.2450
26505SOL     OW82919   6.649   7.951   3.813  0.0359 -0.2824  0.2466
26505SOL    HW182920   6.735   7.988   3.836 -0.5805  0.5526  1.2395
26505SOL    HW282921   6.596   8.027   3.788 -0.4142 -0.7948 -0.3542
26506SOL     OW82922   7.077   5.646   6.379 -0.2421  0.3230 -0.6062
26506SOL    HW182923   7.002   5.588   6.363 -0.9639  1.0515  0.1003
26506SOL    HW282924   7.145   5.614   6.320 -0.3948 -1.6850  0.2911
26507SOL     OW82925   1.410  10.962   7.172 -0.0274 -0.2606  0.3246
26507SOL    HW182926   1.433  10.871   7.191  0.6218  0.1012  1.2758
26507SOL    HW282927   1.485  10.996   7.122 -0.4213 -0.3456 -0.3293
26508SOL     OW82928   4.637   1.104   9.976 -0.4731  0.2070  0.1787
26508SOL    HW182929   4.617   1.181   9.921  0.2189  0.6110  0.4820
26508SOL    HW282930   4.596   1.031   9.930  0.5571  0.4535 -1.1837
26509SOL     OW82931   4.501  10.313  10.446  0.0928  0.2994 -0.0747
26509SOL    HW182932   4.503  10.282  10.355  0.3208 -0.9189  0.3436
26509SOL    HW282933   4.591  10.343  10.462  0.6908 -1.7516  0.5205
26510SOL     OW82934   9.162   3.560   8.687  1.0399 -0.0575 -0.1794
26510SOL    HW182935   9.189   3.607   8.766  1.6100  0.6053 -0.7669
26510SOL    HW282936   9.207   3.605   8.616  2.0565 -1.8619 -0.6990
26511SOL     OW82937   3.179   6.656  10.976  0.1668 -0.1125  0.2548
26511SOL    HW182938   3.139   6.665  11.063 -0.6949  1.7775 -0.3010
26511SOL    HW282939   3.238   6.730  10.969  0.0906 -0.1484 -0.8506
26512SOL     OW82940   9.997   0.343   2.717  0.2572  0.4737 -0.1434
26512SOL    HW182941  10.076   0.374   2.673  0.0405 -0.8709 -1.5307
26512SOL    HW282942  10.022   0.260   2.757 -0.1878  0.5201  0.2406
26513SOL     OW82943   3.709   6.799   0.466  0.0984 -0.0412 -0.2398
26513SOL    HW182944   3.624   6.757   0.449  0.5702 -1.3290  0.4924
26513SOL    HW282945   3.696   6.844   0.549 -0.6359  1.9107 -1.3970
26514SOL     OW82946   8.401   0.765   0.949  0.6430 -0.2228  0.0637
26514SOL    HW182947   8.477   0.810   0.913 -0.0595 -0.1837 -1.3935
26514SOL    HW282948   8.330   0.783   0.888 -0.7769  0.4469  1.8509
26515SOL     OW82949   4.736   6.039  10.947 -0.0649 -0.4371  0.3006
26515SOL    HW182950   4.700   6.034  11.036  0.1903 -1.0899  0.3727
26515SOL    HW282951   4.702   6.121  10.912 -0.8295 -0.5660  0.7132
26516SOL     OW82952   0.633   4.437   6.817  0.0030 -0.3914  0.4741
26516SOL    HW182953   0.615   4.343   6.826 -1.0567 -0.5076 -2.4664
26516SOL    HW282954   0.711   4.442   6.762 -0.5600  0.4790 -0.2459
26517SOL     OW82955   6.750   7.288   8.603  0.0705  0.2740 -0.1907
26517SOL    HW182956   6.816   7.338   8.651  0.5999 -1.9639  1.4926
26517SOL    HW282957   6.667   7.315   8.641  0.3193  0.1253  0.4621
26518SOL     OW82958   2.156   2.242  10.089 -0.4882 -0.3428  0.1417
26518SOL    HW182959   2.157   2.171  10.025  1.0361 -1.0728  0.9449
26518SOL    HW282960   2.249   2.257  10.109 -0.9251  0.0400  1.9859
26519SOL     OW82961   4.123   1.129   4.720 -0.2669 -0.0033 -0.1606
26519SOL    HW182962   4.152   1.113   4.630 -0.3377  0.9068 -0.3438
26519SOL    HW282963   4.203   1.143   4.769 -0.3119  1.1545 -0.4058
26520SOL     OW82964   8.819   9.845   5.884 -0.0862  0.5863 -0.1939
26520SOL    HW182965   8.823   9.854   5.979 -1.5288  0.6875 -0.1298
26520SOL    HW282966   8.787   9.931   5.854 -1.6498 -0.1193 -0.5947
26521SOL     OW82967   3.145   7.155   5.484 -0.2420 -0.0056 -0.1023
26521SOL    HW182968   3.185   7.242   5.490  0.2374 -0.0524 -2.3246
26521SOL    HW282969   3.051   7.172   5.477  0.0323  0.4942 -3.1791
26522SOL     OW82970  10.088  10.340  10.139  0.3398  0.2160 -0.0567
26522SOL    HW182971  10.051  10.305  10.220 -0.1248  0.2897 -0.2393
26522SOL    HW282972  10.035  10.301  10.069  0.2498  0.7543 -0.2922
26523SOL     OW82973   7.540   4.325   7.163  0.2070  0.2295 -0.3381
26523SOL    HW182974   7.530   4.414   7.129 -0.2199  0.2596 -0.1372
26523SOL    HW282975   7.568   4.273   7.088 -1.7248  0.0996 -0.9869
26524SOL     OW82976   7.942   9.271   9.005  0.5517  0.4271 -0.7666
26524SOL    HW182977   7.890   9.274   9.086 -0.1708 -1.5005 -1.1349
26524SOL    HW282978   8.025   9.231   9.031  1.6960  2.9652 -0.3038
26525SOL     OW82979   0.285   7.263   9.009  0.1036 -0.1328 -0.2911
26525SOL    HW182980   0.225   7.273   9.082 -0.0076  0.8483 -0.5065
26525SOL    HW282981   0.311   7.352   8.987  0.2933 -0.4293 -1.3108
26526SOL     OW82982   1.078   7.655   7.800 -0.2909  0.1665  0.1098
26526SOL    HW182983   1.047   7.598   7.730  1.1350 -0.8920  0.3168
26526SOL    HW282984   1.164   7.686   7.770  0.6146 -0.8040  1.6598
26527SOL     OW82985   1.280   0.669   1.356 -0.4292  0.4424  0.6293
26527SOL    HW182986   1.266   0.601   1.422 -1.3876  0.6284  0.6161
26527SOL    HW282987   1.354   0.636   1.304 -0.0263  0.0437  1.4537
26528SOL     OW82988   4.445   6.615   8.667  0.2105 -0.1389 -0.1004
26528SOL    HW182989   4.353   6.599   8.684  0.2377 -1.8606 -1.4458
26528SOL    HW282990   4.488   6.530   8.678  1.2667  0.1477 -1.7144
26529SOL     OW82991   9.558   6.480   3.192  0.2929  0.0853 -0.3943
26529SOL    HW182992   9.557   6.385   3.178  0.2552  0.2685 -1.7000
26529SOL    HW282993   9.638   6.495   3.242  0.4785 -0.5943 -0.4752
26530SOL     OW82994   2.256   5.872   0.886 -0.6868  0.3467  0.1976
26530SOL    HW182995   2.165   5.844   0.896  0.1684 -2.5347  0.2264
26530SOL    HW282996   2.295   5.861   0.973 -0.3716  1.9058  0.2760
26531SOL     OW82997   7.969   2.129   6.553  0.0306  0.8015 -0.1164
26531SOL    HW182998   7.960   2.141   6.458  0.9024  0.5470 -0.2315
26531SOL    HW282999   7.931   2.208   6.591 -2.1114  0.0727 -0.6141
26532SOL     OW83000   0.492   7.120   2.800 -0.4302  0.2442  0.4758
26532SOL    HW183001   0.548   7.194   2.775 -2.2505  2.4243  2.5429
26532SOL    HW283002   0.531   7.087   2.881 -1.5308  1.1788  1.4158
26533SOL     OW83003   3.250   7.058   9.813  0.4758 -0.4031  0.4169
26533SOL    HW183004   3.203   6.981   9.782 -0.0875  0.4787 -0.9597
26533SOL    HW283005   3.294   7.093   9.736 -1.6034  2.2911  0.3565
26534SOL     OW83006   6.285   9.599   8.814 -0.0898 -1.0650 -0.1300
26534SOL    HW183007   6.336   9.524   8.844  1.2195  0.1683  0.7876
26534SOL    HW283008   6.242   9.632   8.893 -2.3428 -2.0869 -0.8862
26535SOL     OW83009   9.978   4.046   9.952  0.0194 -0.2560  0.0492
26535SOL    HW183010   9.988   3.959   9.991  0.7018  0.0003  0.4564
26535SOL    HW283011  10.061   4.090   9.970  0.2385 -0.0215 -1.4378
26536SOL     OW83012   6.214   1.925   7.754 -0.8743 -0.2996 -0.6172
26536SOL    HW183013   6.236   1.872   7.830 -0.5449  0.2708 -0.3130
26536SOL    HW283014   6.264   2.006   7.766  0.3904 -0.8227 -2.2240
26537SOL     OW83015   2.579   4.973   5.845  0.2004  0.1256  0.6559
26537SOL    HW183016   2.640   5.022   5.900  0.7240  2.2999 -1.7414
26537SOL    HW283017   2.628   4.954   5.765 -1.7646  0.7078 -0.7421
26538SOL     OW83018   7.318   7.986  10.403  0.2138  0.7171 -0.3694
26538SOL    HW183019   7.376   7.955  10.473  1.5392  0.1451 -1.6862
26538SOL    HW283020   7.246   7.923  10.402 -0.1189  1.0524  0.8381
26539SOL     OW83021   8.515  10.247   4.258  0.2334  0.2061  0.4664
26539SOL    HW183022   8.579  10.207   4.317  1.4214 -1.2012 -1.7315
26539SOL    HW283023   8.442  10.185   4.256 -0.8787  1.3912  2.2760
26540SOL     OW83024   7.916   7.147   8.769  0.3682 -0.5306  0.4140
26540SOL    HW183025   7.860   7.149   8.847  0.0304 -1.9145  0.2222
26540SOL    HW283026   7.978   7.076   8.786  0.4627 -0.6584 -0.4615
26541SOL     OW83027   5.260   1.929   7.462  0.4517  0.4010  0.8109
26541SOL    HW183028   5.260   2.009   7.410 -0.4598  0.3838  0.7675
26541SOL    HW283029   5.173   1.927   7.503 -0.2524 -1.5135 -0.6962
26542SOL     OW83030   7.705   1.534   0.359 -0.0823  0.2556 -0.7167
26542SOL    HW183031   7.766   1.596   0.399  0.5823 -0.4716 -0.5806
26542SOL    HW283032   7.761   1.462   0.330 -0.9088 -0.5419 -0.3432
26543SOL     OW83033   6.584   1.702   8.972 -0.2164 -0.5132 -0.5186
26543SOL    HW183034   6.626   1.786   8.954 -0.9846 -0.3373 -1.5225
26543SOL    HW283035   6.495   1.712   8.940  0.3064 -2.4545 -2.7137
26544SOL     OW83036  10.357   5.631   3.053 -0.1524 -0.2790  0.2815
26544SOL    HW183037  10.333   5.720   3.078  0.7351 -0.1646  0.7535
26544SOL    HW283038  10.435   5.612   3.106  0.5181 -0.8087 -0.8861
26545SOL     OW83039   1.971   3.723  10.737 -0.4232 -0.2164 -0.1351
26545SOL    HW183040   1.888   3.701  10.696 -1.2006  0.5384  1.0318
26545SOL    HW283041   1.958   3.704  10.830  0.6212  0.1401  0.0933
26546SOL     OW83042   9.647   0.793  10.523  0.0910 -0.2835 -0.0440
26546SOL    HW183043   9.619   0.747  10.602  1.8675 -0.5645  0.4601
26546SOL    HW283044   9.610   0.742  10.451 -3.3602  1.1768  0.5892
26547SOL     OW83045   9.838  10.800   4.398  0.5038 -0.1416  0.8117
26547SOL    HW183046   9.813  10.721   4.350  1.5424 -0.2229  0.3749
26547SOL    HW283047   9.756  10.845   4.416  0.0193 -0.5856 -0.2363
26548SOL     OW83048  10.409   3.613   3.635 -0.4906  0.3768 -0.4375
26548SOL    HW183049  10.330   3.610   3.581 -0.3037 -0.8770 -0.6511
26548SOL    HW283050  10.441   3.703   3.625 -0.7889  0.3336 -1.9440
26549SOL     OW83051  10.475   7.572   5.829 -0.2254  0.0682  0.1311
26549SOL    HW183052  10.429   7.637   5.881 -0.2433 -0.1077  0.3395
26549SOL    HW283053  10.406   7.523   5.785 -0.2212  0.0662  0.1273
26550SOL     OW83054   9.055   6.031   3.384  0.1441 -0.3116  0.0900
26550SOL    HW183055   9.029   6.038   3.292 -1.1499 -0.9717  0.3818
26550SOL    HW283056   8.987   5.975   3.423  0.5699  0.1279  1.4796
26551SOL     OW83057   5.880   6.979   8.466 -0.2086 -0.0064  0.1842
26551SOL    HW183058   5.907   6.941   8.550 -0.3970 -1.9521 -0.6107
26551SOL    HW283059   5.787   6.957   8.459 -0.1283 -0.0829 -0.6524
26552SOL     OW83060   6.927   7.980   3.628  0.2382  0.0045  0.2061
26552SOL    HW183061   6.996   7.955   3.566 -0.0907 -0.4006 -0.0011
26552SOL    HW283062   6.867   7.906   3.627 -0.9890  0.9761 -0.7527
26553SOL     OW83063   3.058   6.097   5.122 -0.6536  0.0594  0.0157
26553SOL    HW183064   2.990   6.030   5.136 -0.4464 -0.2668 -0.5030
26553SOL    HW283065   3.139   6.055   5.151  0.0133 -1.1397 -3.3160
26554SOL     OW83066   6.201   8.935   0.571 -0.5437  0.1890  0.5057
26554SOL    HW183067   6.205   8.869   0.503  1.1580  1.0547 -0.2574
26554SOL    HW283068   6.130   8.906   0.629 -0.4229 -1.7851 -0.3159
26555SOL     OW83069   9.303   5.867   7.559  0.2876  0.7128 -1.1610
26555SOL    HW183070   9.231   5.894   7.502  1.2440 -0.0178 -2.7475
26555SOL    HW283071   9.358   5.811   7.504  1.5930  0.5289  0.2877
26556SOL     OW83072   7.423   7.439   1.950  0.0698  0.1193  0.6209
26556SOL    HW183073   7.385   7.508   1.895  0.7406  1.6930  2.0983
26556SOL    HW283074   7.363   7.433   2.025  0.9014  0.2771  1.3088
26557SOL     OW83075   5.916   3.118   2.394  0.2426 -0.4016  0.1169
26557SOL    HW183076   5.957   3.189   2.344  2.3869 -1.3528  0.4564
26557SOL    HW283077   5.832   3.103   2.351  0.5654  1.1022 -1.0743
26558SOL     OW83078   2.439   0.739   1.548  0.3385  0.9856 -0.1646
26558SOL    HW183079   2.382   0.672   1.585  1.1328 -1.3255 -2.9173
26558SOL    HW283080   2.412   0.746   1.456  2.7490  1.6844 -0.8693
26559SOL     OW83081   1.301   3.046   4.425  0.0043 -0.0201  0.3130
26559SOL    HW183082   1.346   3.055   4.341 -1.6828  3.8664 -0.2636
26559SOL    HW283083   1.345   3.108   4.483 -1.8874  0.7585  0.9369
26560SOL     OW83084   8.618   4.827   2.480 -0.1175  0.1984  0.3161
26560SOL    HW183085   8.709   4.846   2.462  0.0026 -1.3086 -0.7066
26560SOL    HW283086   8.596   4.884   2.553  1.7391  0.3283  0.7973
26561SOL     OW83087   3.766   0.598   5.625 -0.1486  0.0114  0.5083
26561SOL    HW183088   3.785   0.675   5.679 -0.9598 -0.4413  1.4326
26561SOL    HW283089   3.844   0.588   5.571  0.3784  0.8870  1.0903
26562SOL     OW83090   9.460   1.189   4.438 -0.2173 -0.1483  0.3390
26562SOL    HW183091   9.544   1.187   4.391 -0.2710  0.7154  0.1957
26562SOL    HW283092   9.483   1.223   4.525 -0.5772  1.1491 -0.0585
26563SOL     OW83093   9.008   4.302  10.048  0.0139  0.1627 -0.0110
26563SOL    HW183094   8.958   4.292   9.967 -1.1652  0.2484  0.6950
26563SOL    HW283095   9.034   4.212  10.071 -0.3851  0.0423 -0.0250
26564SOL     OW83096   4.137   9.479   9.699 -0.0720 -0.1185 -0.1039
26564SOL    HW183097   4.090   9.485   9.781 -2.4664 -1.5556 -1.3177
26564SOL    HW283098   4.154   9.385   9.687  2.6424  0.3189  0.0407
26565SOL     OW83099   9.008   9.343   4.232  0.2283  0.4432  0.1893
26565SOL    HW183100   9.039   9.430   4.205  1.0224  0.3846  0.9011
26565SOL    HW283101   9.051   9.283   4.171  0.7661  0.4414  0.5680
26566SOL     OW83102   6.015   2.894   3.929 -0.2014  0.2787  0.4128
26566SOL    HW183103   6.090   2.853   3.973 -0.5081  1.8265  2.4840
26566SOL    HW283104   6.051   2.975   3.892 -0.9602  1.4662  2.1591
26567SOL     OW83105   1.294   7.397   0.025  0.2297  0.3740  0.5696
26567SOL    HW183106   1.259   7.447   0.099 -0.1902  0.7475  0.1205
26567SOL    HW283107   1.217   7.377  -0.029  0.4787 -0.2418  0.4407
26568SOL     OW83108  10.872   5.445   6.701  0.1597  0.4403 -0.3315
26568SOL    HW183109  10.828   5.525   6.671 -1.8842  1.3863  4.7675
26568SOL    HW283110  10.802   5.381   6.713  1.3671 -1.0233 -0.9151
26569SOL     OW83111   6.992   4.868   3.113  1.0108 -0.0588  0.2079
26569SOL    HW183112   7.086   4.877   3.125  1.4170 -0.4015 -2.4487
26569SOL    HW283113   6.973   4.917   3.033 -1.5175  2.3018  2.1164
26570SOL     OW83114   1.130   4.505   6.580 -0.1522 -0.4771 -0.3125
26570SOL    HW183115   1.110   4.415   6.554 -0.5029 -0.9635  1.5523
26570SOL    HW283116   1.223   4.517   6.558 -1.0102  0.0079 -4.0673
26571SOL     OW83117   8.025   3.754   3.347  0.2864  0.2787 -0.0899
26571SOL    HW183118   8.118   3.757   3.365  0.5939 -0.1571 -1.5321
26571SOL    HW283119   8.016   3.693   3.273 -0.9996  1.2247 -0.7428
26572SOL     OW83120   3.644   8.640   1.878  0.0753  0.7404  0.5282
26572SOL    HW183121   3.651   8.675   1.967  1.2360  1.9185 -0.0046
26572SOL    HW283122   3.640   8.717   1.822  3.6284  0.1358 -0.7362
26573SOL     OW83123   3.080   7.412  10.345 -0.1824 -0.4260  0.1084
26573SOL    HW183124   3.141   7.389  10.275  0.4877  0.5190  0.3661
26573SOL    HW283125   3.048   7.328  10.378  1.4075 -0.9619  0.3379
26574SOL     OW83126   3.794   3.176   0.191 -0.4652 -0.3462  0.1418
26574SOL    HW183127   3.828   3.265   0.183  1.6451 -1.2606 -1.2872
26574SOL    HW283128   3.824   3.146   0.277 -1.1956  0.3179  0.6317
26575SOL     OW83129  10.935   0.605   6.880  0.3777  0.5775  0.8292
26575SOL    HW183130  10.965   0.612   6.970 -1.2213  1.8661  1.2843
26575SOL    HW283131  10.981   0.676   6.834 -0.4633  1.3073  1.1060
26576SOL     OW83132   6.784   8.303   4.501 -0.6103  0.2601 -0.2883
26576SOL    HW183133   6.847   8.233   4.482 -1.6767 -0.9541  0.5501
26576SOL    HW283134   6.836   8.372   4.542  0.1061 -0.8906  0.7816
26577SOL     OW83135   9.599   2.289   0.350 -0.2099 -0.4201  0.1080
26577SOL    HW183136   9.587   2.197   0.327 -0.6788 -0.0407 -1.1569
26577SOL    HW283137   9.663   2.322   0.287 -0.5894  0.3112  0.1028
26578SOL     OW83138   1.447   6.816  10.777  0.6862  0.3315  0.0940
26578SOL    HW183139   1.394   6.788  10.851 -0.4543 -0.3008 -0.9319
26578SOL    HW283140   1.510   6.745  10.763 -1.4356 -1.2467 -1.7650
26579SOL     OW83141   3.043   6.834  10.435  0.2259  0.0333 -0.1660
26579SOL    HW183142   2.969   6.810  10.379  0.7356 -0.4740 -0.6254
26579SOL    HW283143   3.109   6.767  10.419  0.0597 -0.6059  1.6941
26580SOL     OW83144   1.289   3.133   0.532 -0.0738 -0.1731 -0.3426
26580SOL    HW183145   1.318   3.163   0.617  0.0732  0.5675 -0.6541
26580SOL    HW283146   1.304   3.038   0.534  0.7856 -0.0337  0.1118
26581SOL     OW83147   9.943   6.020   1.907 -0.1761 -0.2795 -0.4853
26581SOL    HW183148   9.981   6.090   1.961  2.3982 -1.3179 -0.9084
26581SOL    HW283149   9.975   6.037   1.819 -2.1973 -0.1439 -1.2183
26582SOL     OW83150   0.225   6.943   4.092 -0.0074  0.5647 -0.6353
26582SOL    HW183151   0.263   7.031   4.091  1.7914 -0.1543  0.7916
26582SOL    HW283152   0.264   6.901   4.169  0.0237 -1.8406 -1.9070
26583SOL     OW83153   1.935   0.333   8.950 -0.4319 -0.0356 -0.1985
26583SOL    HW183154   1.961   0.404   9.010 -1.2402 -0.5038  0.7187
26583SOL    HW283155   2.011   0.275   8.948 -0.9143 -0.7586  1.5032
26584SOL     OW83156   6.077   9.790   8.953  0.0963  0.8667  0.3327
26584SOL    HW183157   5.986   9.763   8.959  0.4130 -0.6296 -1.2208
26584SOL    HW283158   6.117   9.756   9.033 -0.1984 -0.6336 -0.1320
26585SOL     OW83159   1.108   4.662   4.682 -0.3707 -0.6687 -0.0692
26585SOL    HW183160   1.114   4.618   4.767 -0.9342 -0.1081  0.2725
26585SOL    HW283161   1.049   4.607   4.630 -2.0424  0.2758  0.7633
26586SOL     OW83162   9.957   1.550   3.062 -0.0842  0.4434 -0.1573
26586SOL    HW183163  10.007   1.550   2.980  1.0614  0.6970  0.5271
26586SOL    HW283164   9.866   1.540   3.034  0.4312 -1.1558 -1.3740
26587SOL     OW83165   9.203   3.472   9.318  0.3212  0.8983 -0.0568
26587SOL    HW183166   9.183   3.540   9.253  0.4397  0.0510 -1.0029
26587SOL    HW283167   9.265   3.414   9.273  0.4607  0.3408  0.8492
26588SOL     OW83168   0.622   8.434   5.536 -0.0461  0.2270  0.3542
26588SOL    HW183169   0.618   8.385   5.618 -1.0707 -1.1804 -0.5125
26588SOL    HW283170   0.549   8.495   5.542 -0.0884  0.1632  0.5157
26589SOL     OW83171   8.635   0.446   3.219  0.1404 -0.0919 -0.0226
26589SOL    HW183172   8.671   0.512   3.160 -0.2022 -1.4028 -1.7456
26589SOL    HW283173   8.585   0.495   3.284  0.6868  1.3798 -0.7125
26590SOL     OW83174   9.322   5.480  10.972 -0.7225 -0.2789  0.4099
26590SOL    HW183175   9.283   5.568  10.978 -1.5185 -0.5610 -0.5656
26590SOL    HW283176   9.406   5.495  10.929 -1.3324 -0.1203 -0.7580
26591SOL     OW83177   5.610   7.939   6.941  0.6178 -0.0772 -0.5051
26591SOL    HW183178   5.686   7.900   6.984 -1.2170 -1.5533  1.5211
26591SOL    HW283179   5.573   7.869   6.888 -0.0224  0.2806 -0.5368
26592SOL     OW83180   4.334   5.462   5.030 -0.3155  0.0678 -0.4324
26592SOL    HW183181   4.256   5.408   5.014  1.2399 -2.7693  1.1146
26592SOL    HW283182   4.299   5.548   5.052 -3.0283 -1.1306  0.1974
26593SOL     OW83183   2.119   7.666   1.362 -0.7035 -0.2180  0.1122
26593SOL    HW183184   2.063   7.692   1.289  0.1531 -1.4353 -0.9863
26593SOL    HW283185   2.059   7.655   1.436 -1.5374  1.2836 -0.3218
26594SOL     OW83186   8.728   5.395   5.776 -0.5256  0.4872  0.1145
26594SOL    HW183187   8.754   5.326   5.715  2.1217  0.3733  1.3085
26594SOL    HW283188   8.690   5.348   5.851 -0.1995  0.4055  0.2299
26595SOL     OW83189   2.823   4.650   9.710 -0.2046  0.7478 -0.1463
26595SOL    HW183190   2.830   4.557   9.689  1.4675  1.0055 -0.7142
26595SOL    HW283191   2.833   4.695   9.627 -1.9799  1.4210 -0.0221
26596SOL     OW83192   8.957   6.739   4.089 -0.1022 -0.9785  0.4780
26596SOL    HW183193   8.959   6.727   3.994 -2.9449 -1.1965  0.4138
26596SOL    HW283194   8.901   6.815   4.103  0.0586 -1.1221  1.9866
26597SOL     OW83195   1.931   2.751   6.452 -0.0675 -0.0806 -0.3372
26597SOL    HW183196   1.846   2.717   6.424 -0.1516  1.8949 -2.5465
26597SOL    HW283197   1.923   2.846   6.446  2.3059  0.1396 -0.6559
26598SOL     OW83198   3.186   4.227   2.828  0.1678 -0.0118  0.2135
26598SOL    HW183199   3.276   4.193   2.829  0.0606 -0.3184 -0.1503
26598SOL    HW283200   3.163   4.237   2.920  0.3554 -0.5359  0.3231
26599SOL     OW83201   9.799  10.556   6.336  0.2410 -0.4096  0.5678
26599SOL    HW183202   9.734  10.494   6.371  1.8521 -1.1271  2.3877
26599SOL    HW283203   9.791  10.633   6.393  1.3449 -0.7171  1.1498
26600SOL     OW83204   4.798   1.026   3.367 -0.0345  0.0811 -0.7050
26600SOL    HW183205   4.742   1.060   3.437  2.3398  0.6682  0.9807
26600SOL    HW283206   4.762   1.064   3.287 -3.5603 -1.5933 -0.0061
26601SOL     OW83207   8.213   7.968   7.847 -0.4900 -0.2648 -0.3238
26601SOL    HW183208   8.294   7.935   7.884  0.5633 -0.9374 -3.0735
26601SOL    HW283209   8.148   7.900   7.864 -0.0943 -0.4309  0.5075
26602SOL     OW83210   4.812   9.844   9.165  0.1425  0.4501  0.8149
26602SOL    HW183211   4.796   9.938   9.168  0.1262  0.4360  1.2694
26602SOL    HW283212   4.873   9.832   9.093  3.1805  1.2704  3.1154
26603SOL     OW83213   8.044   1.331   4.690 -0.4097  0.3596  0.1494
26603SOL    HW183214   8.123   1.315   4.743  1.3738  0.6047 -2.3633
26603SOL    HW283215   8.045   1.426   4.675 -0.8240  0.2685 -0.4485
26604SOL     OW83216   4.903   5.178   0.086  0.3041 -0.0412  0.2930
26604SOL    HW183217   4.934   5.191   0.176 -0.0840 -0.0470  0.4300
26604SOL    HW283218   4.814   5.145   0.096  0.0896  0.4098 -0.0998
26605SOL     OW83219   0.403   8.096   3.456 -0.5769  0.8041 -0.1434
26605SOL    HW183220   0.412   8.191   3.445  1.4049  0.6497 -0.1341
26605SOL    HW283221   0.353   8.085   3.537 -0.3836  1.8469  0.1212
26606SOL     OW83222   6.606   5.040   2.455 -0.1474  0.1397  0.5226
26606SOL    HW183223   6.697   5.058   2.432 -0.1556  0.7161  0.9199
26606SOL    HW283224   6.571   4.992   2.380  0.0177  1.3976 -0.3765
26607SOL     OW83225   2.679   7.977   2.989 -0.2872 -0.0656 -0.0709
26607SOL    HW183226   2.708   8.019   3.071  0.1465 -0.1668 -0.1719
26607SOL    HW283227   2.647   8.050   2.935  0.1471  0.1003 -0.1121
26608SOL     OW83228  10.729   7.337   1.022  0.4379 -0.0050 -0.2424
26608SOL    HW183229  10.648   7.389   1.027  1.4750  1.7771 -1.4274
26608SOL    HW283230  10.792   7.396   0.980  2.2907 -1.4564  0.4753
26609SOL     OW83231   5.556   9.785   2.351 -0.5903 -0.0702 -0.3242
26609SOL    HW183232   5.562   9.728   2.428 -2.2052 -1.2618 -1.0489
26609SOL    HW283233   5.631   9.759   2.297 -1.6902 -2.0172 -0.9587
26610SOL     OW83234   2.172   3.011   7.393 -0.1285 -0.3172 -0.0901
26610SOL    HW183235   2.145   2.925   7.359 -0.8460 -0.0945 -0.1025
26610SOL    HW283236   2.127   3.019   7.477  2.1190 -1.1104  1.1965
26611SOL     OW83237   5.831   6.558   8.671 -0.0966 -0.8330  0.0191
26611SOL    HW183238   5.736   6.565   8.673 -0.2116 -2.1057 -0.7308
26611SOL    HW283239   5.854   6.560   8.578  0.6266 -0.3380  0.2016
26612SOL     OW83240   3.771   1.994   8.553 -0.4471 -0.3381  0.1459
26612SOL    HW183241   3.784   1.952   8.638  0.7554  0.2059  0.2359
26612SOL    HW283242   3.832   1.948   8.494 -0.9499 -0.4096 -0.3220
26613SOL     OW83243   2.538   8.063   2.180 -0.1826 -0.1234  0.2995
26613SOL    HW183244   2.488   8.138   2.148  1.3952  0.3832 -1.0414
26613SOL    HW283245   2.531   8.069   2.275 -1.0627  1.0363  0.1746
26614SOL     OW83246   8.874   5.967   4.039  0.4438 -0.3965  0.1636
26614SOL    HW183247   8.901   5.898   3.978  0.4243 -0.6537  0.4468
26614SOL    HW283248   8.886   6.048   3.989  2.0872 -0.4792  0.3974
26615SOL     OW83249   8.180   7.038   2.676 -0.2052 -0.1461 -0.0699
26615SOL    HW183250   8.170   6.944   2.664  2.6047 -0.4249 -0.5469
26615SOL    HW283251   8.229   7.067   2.599 -1.7755  1.8657 -0.3638
26616SOL     OW83252   6.989   1.488   9.942  0.4330 -0.3066 -0.2561
26616SOL    HW183253   7.056   1.439   9.991 -0.8896  0.2569  2.1895
26616SOL    HW283254   6.961   1.427   9.874  1.4327 -1.5968  0.4328
26617SOL     OW83255   8.415   7.130   4.889 -0.1121  0.3210 -0.0648
26617SOL    HW183256   8.390   7.103   4.978 -2.1988 -2.6823 -1.4848
26617SOL    HW283257   8.366   7.211   4.875 -1.3368 -0.2347  0.8378
26618SOL     OW83258   1.033   7.419   4.641 -0.3391  0.2602 -0.4515
26618SOL    HW183259   0.979   7.392   4.566  1.5793  0.2316 -1.8649
26618SOL    HW283260   1.070   7.338   4.675 -1.9238  0.1709  1.1383
26619SOL     OW83261   3.801   7.451   5.120  0.0618  0.3584 -0.3458
26619SOL    HW183262   3.813   7.428   5.027 -1.5880  0.4060 -0.5852
26619SOL    HW283263   3.720   7.502   5.122  0.0288  0.2706  1.1415
26620SOL     OW83264  10.770   1.674   0.750  0.4060  0.1759  0.8897
26620SOL    HW183265  10.821   1.661   0.671  1.9311 -0.0473  1.8839
26620SOL    HW283266  10.710   1.599   0.754 -1.5902  1.5829 -1.4393
26621SOL     OW83267   0.871   7.450   2.337 -0.0825 -0.0563  0.7197
26621SOL    HW183268   0.956   7.485   2.362  0.6901 -1.1396 -0.2894
26621SOL    HW283269   0.813   7.471   2.410  1.2281  0.0432  1.7399
26622SOL     OW83270   8.520   5.301   9.194  0.3099  0.7360 -0.3151
26622SOL    HW183271   8.439   5.311   9.146 -0.7776  0.2186  1.3682
26622SOL    HW283272   8.514   5.215   9.235  1.7667  0.6270 -0.2950
26623SOL     OW83273   0.915   2.733   2.266  0.3555 -0.2367 -0.1712
26623SOL    HW183274   0.931   2.741   2.360  0.4015 -0.4030 -0.1640
26623SOL    HW283275   0.943   2.644   2.245 -1.8795 -1.0276  0.1120
26624SOL     OW83276   3.767   5.301   0.761  0.7479 -0.1782  0.5721
26624SOL    HW183277   3.699   5.236   0.780 -0.0878  0.7364  0.7891
26624SOL    HW283278   3.800   5.326   0.848  1.6003 -0.8601  0.4505
26625SOL     OW83279   0.286   8.866   1.348 -0.4572  0.3000  0.1574
26625SOL    HW183280   0.341   8.931   1.393  0.9955 -0.6838 -0.1535
26625SOL    HW283281   0.320   8.864   1.258 -1.0215 -0.3027 -0.0469
26626SOL     OW83282  10.475   4.784   6.658 -0.0481  0.4227 -0.3771
26626SOL    HW183283  10.514   4.798   6.572  0.2810 -1.7415 -0.6123
26626SOL    HW283284  10.542   4.812   6.720 -0.6996  3.0345 -0.7890
26627SOL     OW83285   4.659   5.876  10.704  0.1285 -0.6937  0.5397
26627SOL    HW183286   4.687   5.968  10.704  1.6481 -1.1439  0.0809
26627SOL    HW283287   4.705   5.837  10.778 -1.0947 -0.9275  1.1887
26628SOL     OW83288   4.175   9.214   0.086 -0.1843 -0.2488 -0.3140
26628SOL    HW183289   4.116   9.247   0.155  0.2362  0.7065 -0.4122
26628SOL    HW283290   4.132   9.238   0.004 -1.1645 -2.2310 -0.4067
26629SOL     OW83291   6.948   9.246   9.699  0.1993 -0.0831  0.4475
26629SOL    HW183292   6.887   9.235   9.771  0.3743 -0.9559  0.4640
26629SOL    HW283293   6.892   9.258   9.622  0.0062 -0.7684  0.4793
26630SOL     OW83294   7.197   3.234   8.764  0.7769  0.3393 -0.2874
26630SOL    HW183295   7.133   3.231   8.835  0.7061 -1.5820 -0.4111
26630SOL    HW283296   7.211   3.143   8.740  1.0951  0.9454 -2.5016
26631SOL     OW83297   7.991   9.532   8.878  0.6228 -0.4603  0.0445
26631SOL    HW183298   7.985   9.441   8.908  0.6621 -0.2504  0.7061
26631SOL    HW283299   8.045   9.528   8.799  0.1711 -1.0792 -0.2346
26632SOL     OW83300  10.335   1.667   0.513 -0.0523  0.1451  0.1436
26632SOL    HW183301  10.390   1.589   0.502 -2.1873 -1.3268 -0.3153
26632SOL    HW283302  10.304   1.687   0.424 -1.5875 -0.0475  0.6201
26633SOL     OW83303   3.528   2.962   4.492  0.3248  0.3878 -0.0986
26633SOL    HW183304   3.571   2.962   4.578  1.4691  2.9627 -0.6225
26633SOL    HW283305   3.436   2.981   4.511  0.2064 -0.9207  0.6879
26634SOL     OW83306   6.114   2.128   2.706  0.4489 -0.0510 -0.2483
26634SOL    HW183307   6.080   2.218   2.700  0.2248 -0.2085 -1.4950
26634SOL    HW283308   6.080   2.095   2.789 -2.0199 -0.0071 -1.1931
26635SOL     OW83309   0.822  10.734   2.088 -0.0559 -0.1826  0.4764
26635SOL    HW183310   0.867  10.650   2.094 -2.1409 -1.5480 -1.8640
26635SOL    HW283311   0.754  10.731   2.154 -0.7898 -0.7840 -0.2982
26636SOL     OW83312   2.627   7.915   9.852  0.0964  0.0728  0.2125
26636SOL    HW183313   2.715   7.952   9.845 -0.1801  0.3926 -1.7367
26636SOL    HW283314   2.632   7.830   9.809 -0.6057  0.2158 -0.1662
26637SOL     OW83315   9.536   3.041   0.405  0.3224  0.1260  0.1584
26637SOL    HW183316   9.487   2.982   0.462  1.9580 -0.8340  0.5757
26637SOL    HW283317   9.554   3.117   0.460  2.5330 -1.1063  1.1953
26638SOL     OW83318   7.683   5.855   2.211  0.4507 -0.4314 -0.3384
26638SOL    HW183319   7.760   5.798   2.214 -0.6352 -2.0178 -1.2451
26638SOL    HW283320   7.619   5.811   2.268 -1.4448 -1.7974 -3.3503
26639SOL     OW83321   4.345   6.081   8.780 -0.4558 -0.1060  0.1126
26639SOL    HW183322   4.336   6.061   8.687  0.2832 -1.7437  0.3713
26639SOL    HW283323   4.282   6.022   8.823 -1.1077  0.9402  0.6359
26640SOL     OW83324   7.949   4.869   6.396  0.7073 -0.5792 -0.2004
26640SOL    HW183325   7.871   4.872   6.451 -0.2705  0.4610 -1.5875
26640SOL    HW283326   7.963   4.776   6.379 -1.1068 -0.6994 -1.1187
26641SOL     OW83327   6.719   4.731   6.512 -0.1621 -0.4271 -0.3661
26641SOL    HW183328   6.679   4.743   6.598  1.3082  0.1887  0.2523
26641SOL    HW283329   6.651   4.689   6.459 -1.4650  0.2439  0.7611
26642SOL     OW83330   6.934   1.240   6.203  0.0729  0.8759  0.1262
26642SOL    HW183331   6.992   1.311   6.234 -0.8565  0.7190  2.3710
26642SOL    HW283332   6.983   1.160   6.222 -0.1434  0.8112  0.4164
26643SOL     OW83333   5.644   3.843   3.685 -0.3983 -0.1551 -0.2218
26643SOL    HW183334   5.670   3.935   3.682 -0.4789 -0.0563  1.6052
26643SOL    HW283335   5.718   3.796   3.648 -0.2755  0.6379 -0.9859
26644SOL     OW83336   7.730   7.865   0.913  0.3489 -0.2985 -0.0492
26644SOL    HW183337   7.759   7.783   0.873  0.9051  0.5876 -1.5236
26644SOL    HW283338   7.635   7.854   0.923  0.4009 -1.0703 -0.3619
26645SOL     OW83339   2.158   2.172  10.585  0.3700  0.0968  0.3200
26645SOL    HW183340   2.206   2.254  10.574 -0.2989  0.7006  1.7740
26645SOL    HW283341   2.211   2.121  10.647 -0.5503  0.5173  1.4603
26646SOL     OW83342   4.494   5.050   4.098  0.1595  0.2596  0.4043
26646SOL    HW183343   4.520   5.037   4.189 -0.3659 -0.5653  0.4436
26646SOL    HW283344   4.565   5.012   4.047 -0.6086 -1.3485  0.5037
26647SOL     OW83345   6.560   6.771   7.683 -0.2179  0.2162  0.6175
26647SOL    HW183346   6.502   6.831   7.636  0.0325  0.8955  1.1524
26647SOL    HW283347   6.647   6.792   7.651 -0.2315 -0.5497  0.0823
26648SOL     OW83348   7.444   8.044   7.817  1.1062 -0.5227  0.4922
26648SOL    HW183349   7.528   8.016   7.855  0.7245  0.4749  2.1026
26648SOL    HW283350   7.379   7.989   7.861  0.7351  0.0653  0.6785
26649SOL     OW83351   9.058  10.695   0.871 -0.6915  0.2364  0.2072
26649SOL    HW183352   9.039  10.603   0.856  1.1687 -0.3710  1.4552
26649SOL    HW283353   9.119  10.719   0.801 -0.2286  0.2035  0.6001
26650SOL     OW83354   5.524   5.643   6.583 -0.0424 -0.9371  0.0567
26650SOL    HW183355   5.535   5.570   6.644 -1.9305 -0.8065  0.5660
26650SOL    HW283356   5.505   5.601   6.499  0.9090 -1.0661 -0.1062
26651SOL     OW83357   5.324   1.154   5.570  0.6545  0.3204 -0.0041
26651SOL    HW183358   5.393   1.135   5.633  2.2140 -1.9917 -2.2817
26651SOL    HW283359   5.355   1.232   5.523  0.7845  0.4330  0.2701
26652SOL     OW83360   9.452   8.226   7.899  0.6199 -0.0265 -0.1592
26652SOL    HW183361   9.394   8.171   7.951  1.1757  0.1161  0.6267
26652SOL    HW283362   9.511   8.266   7.964  2.2314 -0.9364 -1.0339
26653SOL     OW83363   4.030   5.414   0.019 -0.1652 -0.1936  0.1859
26653SOL    HW183364   3.996   5.405   0.108  2.3617 -2.5885  0.9779
26653SOL    HW283365   4.049   5.324  -0.008  0.5774  0.6369 -2.2006
26654SOL     OW83366   7.499   5.420   6.863  0.0734  0.1893  0.1469
26654SOL    HW183367   7.514   5.381   6.777  0.5833  1.0545 -0.1713
26654SOL    HW283368   7.578   5.398   6.913 -0.2881 -0.4418  0.4451
26655SOL     OW83369  10.589   1.496   9.060 -0.1460 -0.4773 -0.1536
26655SOL    HW183370  10.635   1.574   9.029 -0.7970  0.5913  1.4973
26655SOL    HW283371  10.646   1.460   9.128 -0.5193 -0.6225  0.0853
26656SOL     OW83372   2.014   9.867   0.051  0.0462 -0.2019 -0.3884
26656SOL    HW183373   2.027   9.877   0.145 -1.1083 -1.2287 -0.1051
26656SOL    HW283374   2.039   9.951   0.014  1.2025 -0.0204  0.7579
26657SOL     OW83375   0.700   2.820   4.322  0.2654 -0.1266 -0.1290
26657SOL    HW183376   0.652   2.812   4.404  1.7315 -1.1778  0.6552
26657SOL    HW283377   0.787   2.851   4.348  0.3783  0.6696 -1.4076
26658SOL     OW83378   8.154   2.412   1.614 -0.3574 -0.2105 -0.1050
26658SOL    HW183379   8.198   2.367   1.686 -0.5753 -2.0996 -1.1007
26658SOL    HW283380   8.063   2.422   1.643 -0.4258 -0.8986 -0.0788
26659SOL     OW83381  10.083   5.768   1.453  0.3271 -0.2448  0.1453
26659SOL    HW183382  10.103   5.776   1.360  1.2648  1.0588  0.4554
26659SOL    HW283383  10.154   5.814   1.497  0.0752 -1.1470  1.5264
26660SOL     OW83384   5.001   5.287   1.813  0.4571 -0.1836  0.5654
26660SOL    HW183385   5.026   5.207   1.767 -0.9071 -0.2048 -0.1786
26660SOL    HW283386   5.083   5.333   1.828  1.1099 -1.0617 -0.2721
26661SOL     OW83387   9.891   6.073   1.482  0.1426  0.1189 -0.1446
26661SOL    HW183388   9.816   6.014   1.483  0.4864 -0.3180  0.3908
26661SOL    HW283389   9.875   6.132   1.408 -0.3632 -0.4368 -0.4821
26662SOL     OW83390   8.068   7.452   5.449 -0.0020 -0.1960 -0.0007
26662SOL    HW183391   8.053   7.358   5.463 -1.6267 -0.0625 -0.7069
26662SOL    HW283392   7.999   7.495   5.499  0.2619  0.5934 -0.3050
26663SOL     OW83393   7.903  10.717  10.938 -0.5495  0.4073 -0.1586
26663SOL    HW183394   7.861  10.791  10.895 -0.1709 -0.5036 -2.1365
26663SOL    HW283395   7.859  10.640  10.902  2.2273 -0.5339 -1.6792
26664SOL     OW83396   5.024   4.998   2.420  0.0784 -0.7362 -0.8152
26664SOL    HW183397   5.039   4.922   2.476  1.4902 -0.3792 -0.6904
26664SOL    HW283398   5.031   5.073   2.479  0.7778 -0.4038 -1.3104
26665SOL     OW83399   7.358  10.548   7.526 -0.1842  0.0170 -0.3337
26665SOL    HW183400   7.438  10.570   7.477 -0.4583 -0.3094 -0.9309
26665SOL    HW283401   7.365  10.600   7.606  0.7522 -0.1970 -0.2601
26666SOL     OW83402   4.910   2.469   2.656  0.0308 -0.0000 -0.5159
26666SOL    HW183403   4.847   2.455   2.585  0.8706  0.4245 -1.3546
26666SOL    HW283404   4.867   2.431   2.733 -0.5024 -1.3061 -1.4255
26667SOL     OW83405   6.146   9.438   3.656  0.2860 -0.0967  0.0947
26667SOL    HW183406   6.123   9.350   3.627 -0.8273  0.4362 -0.6454
26667SOL    HW283407   6.072   9.466   3.709  2.5134 -1.3005  4.1099
26668SOL     OW83408   6.586  10.400  10.606 -0.3547 -0.0013 -0.0305
26668SOL    HW183409   6.677  10.396  10.577 -0.6357 -0.2662 -0.9086
26668SOL    HW283410   6.563  10.492  10.599 -0.4621 -0.0795 -0.8286
26669SOL     OW83411   6.201   6.817   0.310 -0.2791  0.3514 -0.0526
26669SOL    HW183412   6.174   6.864   0.389  0.3137 -1.7957  1.4760
26669SOL    HW283413   6.291   6.845   0.296 -0.4753  0.9531 -0.1431
26670SOL     OW83414   8.030   5.561   1.161 -0.3188  0.1810 -0.1835
26670SOL    HW183415   7.997   5.533   1.076 -0.9674 -1.8198  0.6894
26670SOL    HW283416   7.970   5.632   1.187 -2.1174 -1.3716  0.0310
26671SOL     OW83417   9.874   4.987   7.321 -0.7383  0.3983 -0.8516
26671SOL    HW183418   9.809   5.026   7.379 -0.2327  0.9995 -0.6736
26671SOL    HW283419   9.825   4.959   7.244 -1.3476 -0.0251 -0.3077
26672SOL     OW83420   2.872   7.806   0.344 -0.2104  0.0612  0.2103
26672SOL    HW183421   2.947   7.769   0.390 -0.0294 -0.3494 -0.3964
26672SOL    HW283422   2.828   7.730   0.305 -0.6021  0.3557  0.0781
26673SOL     OW83423   2.824   5.925   6.560 -0.0608  0.1394 -0.0173
26673SOL    HW183424   2.787   5.861   6.622  1.4503  0.0817  0.8365
26673SOL    HW283425   2.917   5.906   6.559  0.1756  1.3161 -0.9688
26674SOL     OW83426   8.748   8.276   9.838  0.5312 -0.0282 -0.1179
26674SOL    HW183427   8.675   8.222   9.869  0.8547 -1.1838 -1.3028
26674SOL    HW283428   8.816   8.265   9.904  1.1345 -2.2908 -1.0472
26675SOL     OW83429   2.146   7.897   7.591 -0.4709  0.0170 -0.0603
26675SOL    HW183430   2.233   7.928   7.568  0.3512 -1.7807  0.5352
26675SOL    HW283431   2.160   7.809   7.626 -2.5873 -0.5560 -0.5530
26676SOL     OW83432   9.030   1.017   9.985  0.1034 -0.1113  0.2940
26676SOL    HW183433   8.949   0.975   9.955 -0.3520 -0.0252  1.3783
26676SOL    HW283434   9.003   1.067  10.062  0.8752  1.2170 -0.2876
26677SOL     OW83435   2.192   2.196   5.498 -0.4886  0.0448 -0.3389
26677SOL    HW183436   2.110   2.147   5.489 -0.9432  0.4372  1.4646
26677SOL    HW283437   2.175   2.258   5.569  1.2735  0.3533 -0.1671
26678SOL     OW83438   9.144   8.908  10.348 -0.0207 -0.4906  0.0392
26678SOL    HW183439   9.138   8.864  10.263  0.7199 -1.8883  0.6914
26678SOL    HW283440   9.057   8.897  10.386 -0.0403 -0.7943 -0.0904
26679SOL     OW83441   8.061   4.772   4.121  0.0688  0.1856 -0.5499
26679SOL    HW183442   8.030   4.835   4.055 -1.7419  1.4348  1.4205
26679SOL    HW283443   7.981   4.732   4.155  1.0383 -1.1201  0.2342
26680SOL     OW83444   1.471  10.817   9.277 -0.4302 -0.7506 -0.3784
26680SOL    HW183445   1.400  10.879   9.259  0.5837  0.4631 -0.2248
26680SOL    HW283446   1.448  10.779   9.361  0.2678  1.3294  0.7758
26681SOL     OW83447   1.745   6.259   8.916 -0.2013  0.6022  0.6198
26681SOL    HW183448   1.800   6.235   8.991  0.2797  1.4704  0.5626
26681SOL    HW283449   1.741   6.355   8.919  2.4450  0.8946 -2.2743
26682SOL     OW83450   9.049   7.755   2.836  0.2575 -0.1778  0.3732
26682SOL    HW183451   9.065   7.699   2.760  0.0885 -0.7899  0.7840
26682SOL    HW283452   8.957   7.738   2.859 -0.4300  1.8123 -0.7522
26683SOL     OW83453  10.252   6.162   6.522 -0.0243 -0.0844  0.4910
26683SOL    HW183454  10.166   6.121   6.513 -0.2292  0.6405 -0.9882
26683SOL    HW283455  10.285   6.131   6.606 -0.9224 -1.8739  0.2043
26684SOL     OW83456   6.037   9.257   0.330 -0.1207 -0.6692 -0.0818
26684SOL    HW183457   5.948   9.222   0.325 -1.2095  2.0256 -0.3604
26684SOL    HW283458   6.056   9.261   0.424 -0.1034 -1.7226 -0.0417
26685SOL     OW83459   1.842   3.886   1.745 -0.3932  0.0695 -0.5874
26685SOL    HW183460   1.749   3.878   1.725 -0.3857  0.5594 -0.8440
26685SOL    HW283461   1.877   3.797   1.739 -1.2956 -0.4944  1.7996
26686SOL     OW83462   3.298   3.678   6.191 -0.2887 -0.0199  0.3164
26686SOL    HW183463   3.244   3.710   6.119 -0.3115  1.0831  0.8074
26686SOL    HW283464   3.383   3.721   6.179  0.3768 -1.4771 -0.2536
26687SOL     OW83465   7.594   7.520  10.021 -0.1828 -0.0060 -0.6189
26687SOL    HW183466   7.592   7.610   9.987 -0.6137 -0.3880 -1.6203
26687SOL    HW283467   7.662   7.521  10.088  0.2182  0.9258 -1.0377
26688SOL     OW83468   2.001   3.936   0.763  0.1472 -0.1691  0.7142
26688SOL    HW183469   1.939   4.006   0.743  0.9848  0.5589  0.6859
26688SOL    HW283470   2.082   3.980   0.784  1.3204 -1.1807 -1.4838
26689SOL     OW83471  10.251   4.304   5.212  0.1025  0.3968  0.4897
26689SOL    HW183472  10.305   4.347   5.145  0.2169  1.7859  1.4374
26689SOL    HW283473  10.310   4.292   5.286 -0.1526 -0.6865  0.5174
26690SOL     OW83474   8.663   0.061   6.875 -0.6911 -0.4293  0.1242
26690SOL    HW183475   8.633   0.143   6.836 -2.1951 -1.0507 -0.0622
26690SOL    HW283476   8.635   0.066   6.966 -0.1127 -0.4162  0.3051
26691SOL     OW83477   4.320   4.556   9.270  0.8729  0.2244 -0.0241
26691SOL    HW183478   4.364   4.641   9.274  0.5045  0.3732  1.2951
26691SOL    HW283479   4.379   4.501   9.219  2.0281  0.7670  0.6967
26692SOL     OW83480  10.938   6.268   3.060  0.2673  0.0279 -1.0592
26692SOL    HW183481  11.014   6.306   3.105  0.1248  0.9951 -1.6037
26692SOL    HW283482  10.869   6.267   3.125  0.5308 -0.1129 -0.7845
26693SOL     OW83483   0.698   9.853   2.010 -0.3994 -0.4384  0.0205
26693SOL    HW183484   0.745   9.772   1.988 -0.2705  0.0408 -1.4964
26693SOL    HW283485   0.744   9.922   1.964 -1.1112  0.3826  0.5105
26694SOL     OW83486  10.396   9.232   6.445  0.0147 -0.9710  0.5245
26694SOL    HW183487  10.405   9.316   6.401 -0.6751 -0.3464  1.5773
26694SOL    HW283488  10.383   9.169   6.373 -0.9962  0.0230 -0.1652
26695SOL     OW83489   9.217   6.810   2.640  0.2890 -0.5697  0.2848
26695SOL    HW183490   9.134   6.843   2.674  0.4262  1.3366 -1.1161
26695SOL    HW283491   9.193   6.755   2.566  0.2996  0.5358 -0.5450
26696SOL     OW83492   5.870   0.939   8.006  0.2009 -0.4426  0.2862
26696SOL    HW183493   5.891   0.918   7.915 -0.6916 -2.5364  0.5311
26696SOL    HW283494   5.782   0.977   8.002  1.0639  1.6064  0.0537
26697SOL     OW83495   3.951   6.909   8.053  0.3164  0.1690  0.5341
26697SOL    HW183496   4.008   6.849   8.101 -1.1108 -1.2440  0.5156
26697SOL    HW283497   3.986   6.910   7.964 -0.7001 -2.0773  0.0735
26698SOL     OW83498  10.213   9.939   6.524 -0.1429 -0.3226 -0.8253
26698SOL    HW183499  10.290   9.883   6.515 -0.3871 -0.8104  0.1701
26698SOL    HW283500  10.155   9.912   6.452  0.0552 -0.8270 -0.7926
26699SOL     OW83501   5.766   4.425   4.328  0.1928 -0.4800  1.0442
26699SOL    HW183502   5.780   4.330   4.322 -0.7236 -0.4827 -1.8170
26699SOL    HW283503   5.694   4.434   4.391 -1.4536 -1.8923 -0.5538
26700SOL     OW83504   0.789   2.074   2.384 -0.1491 -0.0895 -0.7286
26700SOL    HW183505   0.800   2.045   2.474  0.0386  0.7103 -0.4932
26700SOL    HW283506   0.876   2.065   2.345 -0.1776 -0.2133 -0.7625
26701SOL     OW83507  10.098   6.583   7.789  0.3367 -0.2693 -0.3095
26701SOL    HW183508  10.142   6.654   7.836  0.2896 -0.3572 -0.1306
26701SOL    HW283509  10.009   6.582   7.824  0.2185 -0.1493 -0.6084
26702SOL     OW83510   2.419   5.977   5.184  0.2529 -0.4741 -0.0819
26702SOL    HW183511   2.515   5.980   5.180  0.1757 -0.5756 -2.7828
26702SOL    HW283512   2.399   5.970   5.278  2.9164 -1.8075  0.4280
26703SOL     OW83513   1.017  10.036  10.341 -0.4808  0.4581 -0.7329
26703SOL    HW183514   0.926  10.012  10.326 -0.9022 -1.0629  3.7295
26703SOL    HW283515   1.013  10.115  10.395  0.7727 -0.8497  1.3312
26704SOL     OW83516  10.948  10.550   8.328  0.1865 -0.3578 -0.3904
26704SOL    HW183517  10.884  10.483   8.302  0.5108 -0.2267 -1.5585
26704SOL    HW283518  10.914  10.631   8.291 -1.1918  0.4812  2.6417
26705SOL     OW83519   7.035   8.081   1.361  0.1786 -0.5319 -0.3943
26705SOL    HW183520   7.071   8.169   1.348  1.8363 -1.2252 -0.6234
26705SOL    HW283521   6.978   8.066   1.285  1.1002 -0.2469 -1.1471
26706SOL     OW83522   1.967   1.075   1.065 -0.2508 -0.0551  0.0106
26706SOL    HW183523   1.978   0.991   1.021  1.9310  1.2637 -2.0565
26706SOL    HW283524   1.875   1.098   1.052 -0.5255 -1.4696 -0.5749
26707SOL     OW83525   6.883   5.375   3.241 -0.0150 -0.0002  0.1379
26707SOL    HW183526   6.790   5.354   3.233  0.1267 -0.7773  0.4504
26707SOL    HW283527   6.885   5.452   3.298 -0.6401  1.9142 -2.3784
26708SOL     OW83528   9.463   9.668   3.098  0.2130 -0.3237 -0.2337
26708SOL    HW183529   9.385   9.650   3.151  0.7423 -0.1362  0.6009
26708SOL    HW283530   9.483   9.584   3.057 -0.7307 -0.2586 -0.8636
26709SOL     OW83531   6.346   4.096  10.172  0.3044  0.0526  0.3788
26709SOL    HW183532   6.382   4.144  10.246  0.1040  1.2952 -0.3248
26709SOL    HW283533   6.258   4.071  10.201  0.6783 -0.5578  1.0239
26710SOL     OW83534   2.224   9.881   6.527 -0.2722 -0.0500 -0.7184
26710SOL    HW183535   2.228   9.875   6.622  0.1507  0.2631 -0.7152
26710SOL    HW283536   2.164   9.954   6.510 -0.5218 -0.2465 -0.6994
26711SOL     OW83537   1.630  10.755   4.789 -0.0347 -0.3624  0.0664
26711SOL    HW183538   1.654  10.666   4.760 -1.5621 -0.6948 -0.2547
26711SOL    HW283539   1.588  10.742   4.874 -2.0252 -0.1897 -0.8545
26712SOL     OW83540   4.881   0.861   0.168 -0.0924  0.2691 -1.2714
26712SOL    HW183541   4.952   0.818   0.217 -1.4737  0.6031  1.1010
26712SOL    HW283542   4.864   0.942   0.217 -1.8986  0.3392 -1.9860
26713SOL     OW83543   7.644   9.454   1.873  0.6276 -0.2656 -0.1303
26713SOL    HW183544   7.606   9.430   1.789 -0.5871  0.2473  0.2595
26713SOL    HW283545   7.664   9.371   1.916 -1.9861 -0.5980  0.5202
26714SOL     OW83546   3.401   3.482   6.848  0.0347  0.4192 -0.1921
26714SOL    HW183547   3.363   3.558   6.891 -1.4612 -0.5164  0.2014
26714SOL    HW283548   3.491   3.479   6.879  0.3022  2.4033 -0.7398
26715SOL     OW83549  10.856   6.568   8.063 -0.3145  0.0072  0.0979
26715SOL    HW183550  10.790   6.636   8.071 -0.6757 -0.4789  1.3583
26715SOL    HW283551  10.838   6.508   8.135  0.9399 -0.6119 -0.0857
26716SOL     OW83552   1.649   9.084   5.901  0.3393  0.0221 -0.2830
26716SOL    HW183553   1.686   9.042   5.979 -1.6759  3.3829  2.5851
26716SOL    HW283554   1.566   9.038   5.886  0.3581 -0.1067  0.0013
26717SOL     OW83555   0.290   7.508  10.243 -0.1130  0.0706 -0.0096
26717SOL    HW183556   0.312   7.580  10.184 -0.7100 -0.0602 -0.3972
26717SOL    HW283557   0.208   7.535  10.285  0.0771 -0.0321  0.4379
26718SOL     OW83558   9.546  10.808   4.566 -0.7453 -0.7921 -0.0336
26718SOL    HW183559   9.479  10.805   4.498  0.0449  0.5887 -0.9066
26718SOL    HW283560   9.524  10.886   4.618  0.4137 -0.0602 -0.6073
26719SOL     OW83561   5.708   9.430   9.286  0.1252 -0.4873  0.1215
26719SOL    HW183562   5.774   9.445   9.218  1.4071  2.4489  1.9152
26719SOL    HW283563   5.723   9.340   9.315  0.4341 -1.3328 -2.5104
26720SOL     OW83564   7.943   1.452   3.811  0.7766 -0.7029  0.1690
26720SOL    HW183565   7.967   1.519   3.876  3.6369 -1.2128 -0.2582
26720SOL    HW283566   7.929   1.501   3.730  1.7612 -0.4837  0.1200
26721SOL     OW83567   5.473   4.169   3.791 -0.1068  0.4490 -0.0423
26721SOL    HW183568   5.464   4.261   3.816  2.1867  0.1840  1.9487
26721SOL    HW283569   5.488   4.124   3.874 -2.1101 -1.8745 -0.8999
26722SOL     OW83570   3.852  10.134   5.679  0.0595 -0.1853 -0.0567
26722SOL    HW183571   3.803  10.122   5.761 -0.4893 -1.0638 -0.5127
26722SOL    HW283572   3.935  10.173   5.707 -0.4397  0.2542  0.8405
26723SOL     OW83573   0.555   2.098  10.269  0.1542  0.3680 -0.5594
26723SOL    HW183574   0.594   2.094  10.182 -2.2771  0.5703 -1.6675
26723SOL    HW283575   0.499   2.021  10.274 -0.5754  0.9488  0.4035
26724SOL     OW83576   8.283   7.566   6.151 -0.1257  0.2558 -0.0970
26724SOL    HW183577   8.303   7.628   6.220 -0.9324 -1.1857  1.4645
26724SOL    HW283578   8.334   7.488   6.172  0.6541  0.2548 -1.8749
26725SOL     OW83579   7.903   1.625   0.045 -0.0981  0.0252  0.6162
26725SOL    HW183580   7.873   1.715   0.032  0.4705  0.0208 -0.8583
26725SOL    HW283581   7.822   1.575   0.061 -0.5342  0.5852  0.1742
26726SOL     OW83582   5.655   8.762   8.529  0.2806  0.2600  0.3761
26726SOL    HW183583   5.650   8.760   8.433  1.7886  1.5861  0.2528
26726SOL    HW283584   5.570   8.797   8.557 -0.2968 -0.4622 -0.4541
26727SOL     OW83585   1.990   7.561   2.830  0.4926  0.1747  0.0207
26727SOL    HW183586   2.024   7.499   2.895  0.4952 -0.2805 -0.4170
26727SOL    HW283587   2.055   7.632   2.829  1.4496 -0.6986 -0.8228
26728SOL     OW83588   9.461   8.493   2.171  0.0367  0.8173  0.0287
26728SOL    HW183589   9.421   8.580   2.172  0.2295  0.9152  2.7499
26728SOL    HW283590   9.412   8.443   2.236 -0.9253 -1.5743 -2.3884
26729SOL     OW83591   2.057   6.250   1.181 -0.1684 -0.4329 -0.2175
26729SOL    HW183592   2.151   6.230   1.181 -0.4985 -2.0827 -0.5831
26729SOL    HW283593   2.039   6.278   1.091  0.2390  1.2462  0.2164
26730SOL     OW83594   2.622   7.402   7.610  0.5831 -0.3063  0.1772
26730SOL    HW183595   2.656   7.485   7.578 -2.9138  1.6378  1.3158
26730SOL    HW283596   2.547   7.383   7.554  0.6339 -2.1080  0.6769
26731SOL     OW83597   9.170   1.294   6.797 -0.1356  0.0075 -0.2365
26731SOL    HW183598   9.124   1.211   6.782  1.8952 -1.0845 -0.6702
26731SOL    HW283599   9.162   1.310   6.891  0.6327 -1.4390  0.0959
26732SOL     OW83600   8.142   5.371   6.810  0.0244 -0.2024 -0.8840
26732SOL    HW183601   8.110   5.409   6.891  1.9008  0.8770 -0.6279
26732SOL    HW283602   8.145   5.444   6.748  2.3652 -0.1508 -0.7710
26733SOL     OW83603   2.450   9.923   1.013 -0.3211 -0.4863  0.3269
26733SOL    HW183604   2.407   9.852   1.059  0.0575  0.3402  1.9769
26733SOL    HW283605   2.380   9.986   0.994 -0.1815 -0.0318  1.3084
26734SOL     OW83606   1.287   5.516   7.189  0.0974 -0.5382  0.4660
26734SOL    HW183607   1.199   5.512   7.153  0.1612 -1.2843  0.3743
26734SOL    HW283608   1.318   5.604   7.167 -0.4865 -0.4023  0.1751
26735SOL     OW83609   5.988   3.871   3.829  0.6023  0.8944 -0.3421
26735SOL    HW183610   5.951   3.829   3.907  1.3295  0.0349 -0.4564
26735SOL    HW283611   6.061   3.923   3.863  0.9880  0.4321 -0.4679
26736SOL     OW83612   2.483   8.520   9.592  0.1213  0.3111  0.4828
26736SOL    HW183613   2.422   8.544   9.523 -0.3497  2.6201  1.6430
26736SOL    HW283614   2.556   8.582   9.581  0.7736 -0.3496  1.0707
26737SOL     OW83615   2.513   2.155   8.621 -0.2118 -0.0587  0.1242
26737SOL    HW183616   2.519   2.061   8.637  2.1668  0.2836  1.4581
26737SOL    HW283617   2.560   2.168   8.538  3.0988  0.4410  2.0139
26738SOL     OW83618   1.342   2.101   7.762  0.1853  0.2645 -0.0305
26738SOL    HW183619   1.394   2.180   7.752 -0.7947  0.8723 -0.3535
26738SOL    HW283620   1.393   2.046   7.822  1.3717  0.6879 -0.6431
26739SOL     OW83621   8.503   8.804   3.357 -0.8645 -0.5518 -0.5434
26739SOL    HW183622   8.533   8.780   3.444 -1.2785  0.3632 -0.1497
26739SOL    HW283623   8.468   8.723   3.321  1.9528 -1.6550 -0.9822
26740SOL     OW83624   0.732   0.244   7.351 -0.1148  0.1685  0.4102
26740SOL    HW183625   0.817   0.266   7.311  0.1698  0.1495  0.9990
26740SOL    HW283626   0.679   0.323   7.337  0.3151  0.5521  0.8910
26741SOL     OW83627   1.581   8.232   8.037  0.0332  0.2201 -0.4534
26741SOL    HW183628   1.615   8.318   8.063  0.3492 -0.2548  0.7443
26741SOL    HW283629   1.643   8.200   7.971  2.8182 -1.2683  2.7225
26742SOL     OW83630   0.938  10.835   0.257  0.1622  0.4479 -0.5489
26742SOL    HW183631   0.872  10.903   0.248  1.4563  1.6416 -1.1932
26742SOL    HW283632   0.950  10.801   0.168  0.8097  0.6222 -0.5334
26743SOL     OW83633   7.740  10.200   6.266  0.6846  0.7040 -0.0989
26743SOL    HW183634   7.809  10.138   6.242 -0.5795 -1.4687  1.6438
26743SOL    HW283635   7.672  10.187   6.201  0.3229  0.0493  0.3974
26744SOL     OW83636   4.731   1.393   0.112  0.0143 -0.3089 -0.3910
26744SOL    HW183637   4.788   1.468   0.133 -1.7581  0.0059  3.8430
26744SOL    HW283638   4.649   1.433   0.081  0.0658 -0.6073 -0.9243
26745SOL     OW83639   5.891   9.172   1.216  0.3485 -0.3862 -0.5932
26745SOL    HW183640   5.811   9.221   1.195 -0.3109 -2.2788 -2.7078
26745SOL    HW283641   5.947   9.236   1.260 -2.0187  1.1908  0.2198
26746SOL     OW83642   1.440   6.937   4.797 -0.4128  0.5057 -0.2790
26746SOL    HW183643   1.430   6.908   4.887  0.7487  0.0043 -0.2942
26746SOL    HW283644   1.511   6.882   4.762  1.0674  2.5941 -0.6377
26747SOL     OW83645   8.288   2.876   1.956 -0.3288  0.3267  0.4021
26747SOL    HW183646   8.253   2.922   1.881 -0.2155  1.5459  1.0927
26747SOL    HW283647   8.241   2.792   1.957 -0.3170  0.2972 -1.0202
26748SOL     OW83648   6.491   5.303   3.811  0.1055  0.5885 -0.1900
26748SOL    HW183649   6.570   5.321   3.863 -0.6094  0.3816  0.9863
26748SOL    HW283650   6.509   5.219   3.768  0.6719  0.7123 -0.1931
26749SOL     OW83651   9.194   8.136   2.113 -0.1243  0.2324 -0.4106
26749SOL    HW183652   9.099   8.134   2.105 -0.5495  1.3479  3.4067
26749SOL    HW283653   9.215   8.056   2.162  0.7498  0.5862 -0.2022
26750SOL     OW83654   6.366   0.115   0.436 -0.0183 -0.2601 -0.0957
26750SOL    HW183655   6.383   0.042   0.377 -0.9566 -1.7963  1.4873
26750SOL    HW283656   6.296   0.165   0.394 -0.2332 -0.9726 -0.5894
26751SOL     OW83657   8.780   6.982   4.014 -0.8323 -0.1102 -0.4368
26751SOL    HW183658   8.725   7.060   4.021  0.3029  0.5603  1.0974
26751SOL    HW283659   8.744   6.934   3.939 -1.1535  2.1878 -1.7905
26752SOL     OW83660   1.074   4.768   7.027 -0.6528  0.7210  0.8165
26752SOL    HW183661   1.093   4.826   7.101  0.0832  0.0382  1.1658
26752SOL    HW283662   1.032   4.692   7.066  0.9647 -0.2564  0.7267
26753SOL     OW83663   4.885   4.163   8.653 -0.1240  0.2714  0.3823
26753SOL    HW183664   4.925   4.119   8.728 -2.7257 -4.0010 -0.5809
26753SOL    HW283665   4.818   4.220   8.691 -1.8622 -2.3396  1.4023
26754SOL     OW83666   8.678   8.744   0.173  0.2704 -0.1265  0.3011
26754SOL    HW183667   8.664   8.716   0.263 -1.1629 -0.4084  0.0145
26754SOL    HW283668   8.608   8.701   0.124  0.8858  0.2218 -0.9042
26755SOL     OW83669   3.637   7.151   4.671  0.6367  0.5339  0.6227
26755SOL    HW183670   3.727   7.135   4.644  0.4691 -0.3689  0.5689
26755SOL    HW283671   3.605   7.219   4.612  0.8516 -0.1150 -0.2394
26756SOL     OW83672   5.854   0.737   5.084  0.1041  0.3856  0.1663
26756SOL    HW183673   5.832   0.807   5.022  0.5831  0.3853 -0.0113
26756SOL    HW283674   5.797   0.665   5.061 -0.9063  0.9649  0.8173
26757SOL     OW83675   7.863  10.297   0.588  0.6663  0.3383  0.0623
26757SOL    HW183676   7.931  10.364   0.581 -0.8314  1.7935 -1.1484
26757SOL    HW283677   7.861  10.256   0.501  0.8008 -0.5350  0.4589
26758SOL     OW83678   8.064   7.621   7.645 -0.2634 -0.1510  0.1961
26758SOL    HW183679   7.979   7.630   7.601  0.6943  2.3646 -1.2754
26758SOL    HW283680   8.061   7.686   7.715  0.7559  0.5706 -0.4200
26759SOL     OW83681   6.994   4.737   8.110  0.0529 -0.4415 -0.3716
26759SOL    HW183682   6.959   4.676   8.045 -1.4143 -1.9313  1.7619
26759SOL    HW283683   6.939   4.815   8.101 -0.8229 -1.0345 -0.2081
26760SOL     OW83684   4.772   2.673   4.791 -0.6461  0.1962 -0.3560
26760SOL    HW183685   4.861   2.694   4.821 -0.9798 -0.0656  0.8384
26760SOL    HW283686   4.715   2.718   4.852 -1.3579 -2.6254  1.1326
26761SOL     OW83687   6.075  10.642   2.787  0.6509  0.2419 -0.3566
26761SOL    HW183688   6.019  10.691   2.847 -1.5869 -1.8053 -0.6689
26761SOL    HW283689   6.110  10.571   2.841 -0.5365 -0.9926 -1.1670
26762SOL     OW83690   1.661   7.290  10.234 -0.5373 -0.2804 -0.0989
26762SOL    HW183691   1.571   7.295  10.201  0.3112 -0.0913 -2.5200
26762SOL    HW283692   1.688   7.200  10.216  0.4815  0.2735 -1.4186
26763SOL     OW83693   3.932   5.367   5.802 -0.0398  0.0245 -0.1245
26763SOL    HW183694   3.870   5.339   5.869 -0.0465  1.5199  0.5150
26763SOL    HW283695   4.018   5.352   5.840 -0.0452  1.2725  0.4088
26764SOL     OW83696   9.514   2.636   3.127 -0.3039 -0.1257 -0.2323
26764SOL    HW183697   9.419   2.624   3.127 -0.5294  1.5058 -0.5383
26764SOL    HW283698   9.541   2.616   3.037 -0.5308  0.5474 -0.4566
26765SOL     OW83699   2.182   5.570   9.702  0.3342 -0.4292 -0.1629
26765SOL    HW183700   2.179   5.651   9.752 -1.6827 -1.3442  1.2608
26765SOL    HW283701   2.153   5.596   9.614  1.1761  0.6553 -0.1366
26766SOL     OW83702   4.830  10.393   2.172  0.3255 -0.0235  0.0914
26766SOL    HW183703   4.784  10.310   2.163  0.3413 -0.5402  3.7893
26766SOL    HW283704   4.917  10.369   2.204  1.1020  1.2908 -0.9795
26767SOL     OW83705   1.536   8.011   5.004  0.1705  0.3980 -0.2812
26767SOL    HW183706   1.454   7.986   4.961  0.7187 -2.2102  0.0936
26767SOL    HW283707   1.510   8.066   5.077 -1.4717 -2.1380  1.1215
26768SOL     OW83708   8.062   1.875  10.844 -0.5752  0.5029 -0.3130
26768SOL    HW183709   8.105   1.794  10.872 -0.0157  0.5182 -1.1254
26768SOL    HW283710   8.096   1.941  10.904 -0.8367  0.1847  0.1911
26769SOL     OW83711   7.111   0.373   5.734 -0.4328  0.4855 -0.0513
26769SOL    HW183712   7.105   0.445   5.797 -0.1794 -1.1713  1.9148
26769SOL    HW283713   7.197   0.334   5.749 -0.9522 -0.8349 -0.4255
26770SOL     OW83714   2.836   9.542   1.583  0.6259  0.1277 -0.5214
26770SOL    HW183715   2.929   9.521   1.575  0.2197 -1.8855 -0.3019
26770SOL    HW283716   2.803   9.478   1.646 -0.9666  0.6391 -0.8191
26771SOL     OW83717  10.875   0.315   9.816  0.2153 -0.3964  0.1446
26771SOL    HW183718  10.935   0.265   9.761  1.9925 -0.6220  2.2222
26771SOL    HW283719  10.891   0.407   9.792 -1.0351 -0.6125 -1.6539
26772SOL     OW83720  10.972   5.910   7.050 -0.6870  0.1191  0.0542
26772SOL    HW183721  10.922   5.878   6.974 -1.3903  0.0101  0.5516
26772SOL    HW283722  11.063   5.896   7.026 -0.9671 -2.1723  0.2012
26773SOL     OW83723   1.204   6.293   5.359  0.3678 -0.0155 -0.1063
26773SOL    HW183724   1.189   6.209   5.318  1.4580  0.7537 -2.1189
26773SOL    HW283725   1.293   6.288   5.395  1.2845  1.0085 -2.1488
26774SOL     OW83726   6.038   1.651   8.927  0.4179 -0.3423  0.2903
26774SOL    HW183727   6.001   1.648   8.839  2.8413 -0.2550 -0.7629
26774SOL    HW283728   5.981   1.594   8.979 -0.6932 -0.8554 -1.4656
26775SOL     OW83729   8.649   9.789   3.459 -0.3340 -0.4174 -0.2018
26775SOL    HW183730   8.688   9.867   3.421 -0.1298 -1.3301 -1.9175
26775SOL    HW283731   8.603   9.747   3.386 -0.8450 -1.6428  0.8048
26776SOL     OW83732   6.689   1.474   2.981  0.1416 -0.4911 -0.2113
26776SOL    HW183733   6.774   1.450   2.943  1.6770 -1.9115  3.9023
26776SOL    HW283734   6.706   1.553   3.031 -1.2608 -0.0819 -0.3695
26777SOL     OW83735   1.555   0.699   7.555  0.3018  0.3673  0.4276
26777SOL    HW183736   1.529   0.780   7.598 -0.2700 -0.7188  2.1498
26777SOL    HW283737   1.473   0.661   7.523  0.3909 -0.2726  0.9441
26778SOL     OW83738   8.387   3.479   2.052 -0.1485  0.1978  0.5187
26778SOL    HW183739   8.431   3.485   2.137 -1.9151  3.4449  1.2964
26778SOL    HW283740   8.294   3.488   2.073 -0.5825  1.4519 -1.7781
26779SOL     OW83741   8.556   2.196   1.586 -0.1309 -0.1621  0.1893
26779SOL    HW183742   8.616   2.269   1.605 -0.4489 -0.1685  1.2104
26779SOL    HW283743   8.485   2.236   1.536  1.2590 -0.3503 -2.0141
26780SOL     OW83744   0.447   7.731   3.818  0.4323 -0.0520 -0.1507
26780SOL    HW183745   0.372   7.739   3.878  1.1985 -0.2867  0.8515
26780SOL    HW283746   0.434   7.800   3.754 -0.5372  0.0443  0.1426
26781SOL     OW83747   1.044   5.342   9.991  0.1350 -0.1167  0.1424
26781SOL    HW183748   1.036   5.437   9.993 -0.3172 -0.0972 -1.2975
26781SOL    HW283749   0.958   5.312   9.961  0.1527 -0.9943  0.9772
26782SOL     OW83750  10.145   7.592   7.499 -0.1932  0.1300 -0.5123
26782SOL    HW183751  10.232   7.629   7.485 -0.8244  2.0178  0.3253
26782SOL    HW283752  10.157   7.530   7.572  0.3751  0.7189 -0.0972
26783SOL     OW83753   9.842   4.341   5.722  0.2530  0.0474  0.4022
26783SOL    HW183754   9.834   4.280   5.649 -0.7222  0.5902  0.0504
26783SOL    HW283755   9.752   4.355   5.752  0.5993  0.2619  1.3458
26784SOL     OW83756   9.639   5.591   3.116 -0.2056 -0.0294 -0.2975
26784SOL    HW183757   9.580   5.543   3.174  0.1028  0.7225  0.6457
26784SOL    HW283758   9.693   5.523   3.075  2.0173 -0.3778  3.0045
26785SOL     OW83759   2.806   3.701   2.159  0.5289 -0.5049  0.5240
26785SOL    HW183760   2.793   3.628   2.219  2.4375 -0.3169  1.1976
26785SOL    HW283761   2.821   3.777   2.216 -0.0429  0.1500 -0.1816
26786SOL     OW83762   5.303   9.126   6.553 -0.1572 -0.2987  0.0118
26786SOL    HW183763   5.236   9.080   6.602  0.1739 -0.4028  0.3750
26786SOL    HW283764   5.362   9.058   6.521  0.2339 -0.1464  0.3997
26787SOL     OW83765   3.775   8.691   0.312 -0.2873  0.4301 -0.7000
26787SOL    HW183766   3.806   8.781   0.324  1.4017 -0.2718  0.5088
26787SOL    HW283767   3.749   8.663   0.400  1.7204 -1.1251 -0.5567
26788SOL     OW83768   8.923   8.981   0.428 -0.0733 -0.2026  0.2040
26788SOL    HW183769   8.848   8.923   0.410  1.3556 -1.9508 -0.2705
26788SOL    HW283770   8.903   9.061   0.380 -0.2256 -1.7899 -2.5006
26789SOL     OW83771   4.297   3.696   5.043 -0.5460 -0.5316 -0.1761
26789SOL    HW183772   4.293   3.600   5.050 -0.1572 -0.5338  0.0144
26789SOL    HW283773   4.285   3.727   5.133 -1.1758 -0.3811 -0.3046
26790SOL     OW83774   8.069   5.744   7.852  0.6311 -0.3887  0.5613
26790SOL    HW183775   8.146   5.737   7.795  0.8827  0.4025  0.7908
26790SOL    HW283776   8.096   5.703   7.934  0.5205 -0.8620  0.3641
26791SOL     OW83777  10.125   1.267   7.731 -0.0031  0.3338  0.4160
26791SOL    HW183778  10.210   1.252   7.772  0.3682 -1.7790 -1.0883
26791SOL    HW283779  10.144   1.276   7.638 -1.0811  3.0786  0.4107
26792SOL     OW83780   1.380  10.979   6.635  0.3588  0.4626 -0.0587
26792SOL    HW183781   1.288  10.954   6.645  1.0823 -1.7413  1.3387
26792SOL    HW283782   1.415  10.979   6.724  1.8894  0.5796 -0.6432
26793SOL     OW83783   7.440   8.924   1.294  0.3444 -0.5894 -0.7106
26793SOL    HW183784   7.423   8.834   1.319 -0.5978 -0.3276 -0.3869
26793SOL    HW283785   7.450   8.921   1.199 -1.6454 -0.7479 -0.9368
26794SOL     OW83786   0.785   4.651   0.836 -0.2284 -0.0636 -0.0243
26794SOL    HW183787   0.736   4.716   0.786  1.1355 -0.0606 -1.4118
26794SOL    HW283788   0.757   4.567   0.800  0.7569 -0.0629 -0.8014
26795SOL     OW83789   0.167   3.899   3.481 -0.6060 -0.0277  0.2749
26795SOL    HW183790   0.072   3.904   3.469 -0.5832 -2.9224 -1.5632
26795SOL    HW283791   0.178   3.852   3.564 -0.7544  0.0589  0.3459
26796SOL     OW83792   0.269  10.055   4.744  0.0003 -0.0415 -0.5365
26796SOL    HW183793   0.333  10.126   4.756 -0.3566  0.1007  0.6423
26796SOL    HW283794   0.287  10.021   4.657  0.8512  0.8373 -0.7178
26797SOL     OW83795   3.270  10.134   4.670  0.1441 -0.4095 -0.1837
26797SOL    HW183796   3.222  10.191   4.729 -0.0314  1.0720 -1.6995
26797SOL    HW283797   3.355  10.122   4.713 -0.8466 -1.3987  1.5375
26798SOL     OW83798   4.909   8.827   3.806  0.0198 -0.2947 -0.3697
26798SOL    HW183799   4.995   8.795   3.834 -0.4872  0.9751  2.8544
26798SOL    HW283800   4.928   8.907   3.758  0.6315  0.1997  0.6799
26799SOL     OW83801   7.676   5.403  10.386 -0.3359 -0.9559  0.0151
26799SOL    HW183802   7.708   5.424  10.474  3.9077 -1.9856 -1.1418
26799SOL    HW283803   7.610   5.336  10.400 -1.5023  0.6292  2.5451
26800SOL     OW83804  10.354   2.734   3.507  0.0291  0.2904 -0.1803
26800SOL    HW183805  10.401   2.727   3.424 -0.7565  1.8789 -0.7907
26800SOL    HW283806  10.405   2.796   3.558  0.4324 -0.5754  0.4866
26801SOL     OW83807   8.983   2.757   3.739  0.1114 -0.2834 -0.8140
26801SOL    HW183808   9.025   2.734   3.656  1.1371  0.6538 -0.5731
26801SOL    HW283809   9.051   2.744   3.805 -0.8852 -1.6252 -0.0261
26802SOL     OW83810   0.777   5.633   1.882 -0.0490  0.1701  0.2878
26802SOL    HW183811   0.705   5.571   1.868 -0.7429  0.7710  1.1181
26802SOL    HW283812   0.734   5.712   1.916  1.0184  0.4951  0.8976
26803SOL     OW83813   2.139   9.155   3.982 -0.3735 -0.5099 -0.6553
26803SOL    HW183814   2.192   9.225   4.020 -2.8708  1.6233 -0.9751
26803SOL    HW283815   2.154   9.080   4.040 -1.3873  1.6743  2.5501
26804SOL     OW83816   4.245   7.103  10.005 -0.5156 -0.4327  0.2082
26804SOL    HW183817   4.337   7.121  10.026 -0.7600  1.1608 -0.0284
26804SOL    HW283818   4.241   7.008   9.995  1.4853 -0.3647 -1.5730
26805SOL     OW83819   0.518   3.429   6.683 -0.3092 -0.0032 -0.0079
26805SOL    HW183820   0.603   3.471   6.668 -0.6922  1.1928  1.0709
26805SOL    HW283821   0.517   3.355   6.623  0.7846  1.0003 -1.3007
26806SOL     OW83822   4.264   1.582   4.359 -0.5783  0.4684  0.4335
26806SOL    HW183823   4.219   1.549   4.281 -0.7757  1.3484  0.1618
26806SOL    HW283824   4.313   1.658   4.328  1.1665 -0.5352  0.7245
26807SOL     OW83825   6.365   5.568   1.181 -0.0530 -0.3208  0.8935
26807SOL    HW183826   6.390   5.556   1.273  1.0751 -0.1967  0.6029
26807SOL    HW283827   6.310   5.646   1.182 -0.7744 -0.8222  1.5893
26808SOL     OW83828   3.784   7.352   8.117 -0.0906  0.7612 -0.2049
26808SOL    HW183829   3.875   7.334   8.145 -0.3074 -2.7037 -1.4332
26808SOL    HW283830   3.731   7.296   8.174 -1.4227  2.3705  0.1437
26809SOL     OW83831   3.096   7.660   8.139 -0.5347  0.1550 -0.1170
26809SOL    HW183832   3.155   7.651   8.214  0.1039 -0.3607 -0.6771
26809SOL    HW283833   3.154   7.659   8.063 -1.4817 -3.5480 -0.8703
26810SOL     OW83834   7.739   9.179   2.275 -0.6020 -0.6584 -0.3865
26810SOL    HW183835   7.734   9.270   2.248  0.2038 -0.3361  0.5314
26810SOL    HW283836   7.654   9.160   2.315 -0.7611 -0.3073 -0.5642
26811SOL     OW83837   8.151   5.956   3.518 -0.2785  0.0722 -0.3057
26811SOL    HW183838   8.147   6.032   3.576  1.7398  1.3496 -1.7875
26811SOL    HW283839   8.240   5.923   3.527 -0.7445 -1.3456 -0.6762
26812SOL     OW83840   0.867  10.382   0.933  0.4121  0.3259 -0.3969
26812SOL    HW183841   0.928  10.361   1.003 -0.3631  0.8595  0.4577
26812SOL    HW283842   0.906  10.458   0.890 -1.3635  2.9625  2.4235
26813SOL     OW83843  10.917   1.941   6.185  0.1516  0.7788 -0.1128
26813SOL    HW183844  10.944   1.858   6.225  1.8923  2.0504  1.4621
26813SOL    HW283845  10.842   1.918   6.129  1.3252 -2.0354 -0.6218
26814SOL     OW83846   3.577   1.171   1.606 -0.0585  0.2330  0.1088
26814SOL    HW183847   3.625   1.253   1.605  1.0839 -0.4240 -0.1100
26814SOL    HW283848   3.609   1.124   1.529 -0.6271 -0.4541  0.2875
26815SOL     OW83849   9.717  10.407  10.085 -0.4486  0.1125  0.4014
26815SOL    HW183850   9.718  10.393   9.990  4.1933 -1.5036  0.5927
26815SOL    HW283851   9.670  10.332  10.120 -2.4408  0.8625 -0.5664
26816SOL     OW83852   2.575   3.659   0.899 -0.0454 -0.7636  0.1199
26816SOL    HW183853   2.533   3.672   0.984  0.3616  1.1292  0.0688
26816SOL    HW283854   2.661   3.623   0.920 -0.1285 -0.7511  0.4850
26817SOL     OW83855   7.866   7.354   4.236 -0.3306  0.0517  0.0005
26817SOL    HW183856   7.821   7.281   4.194  1.2651 -1.7115  1.2999
26817SOL    HW283857   7.852   7.341   4.330  2.2961 -0.1636  0.3920
26818SOL     OW83858   4.850   6.742   4.663  0.1799 -0.3368  0.8505
26818SOL    HW183859   4.863   6.698   4.579 -1.5563  1.3006 -0.3312
26818SOL    HW283860   4.805   6.677   4.717  0.3712 -1.0432  0.1748
26819SOL     OW83861   3.570   4.751   6.091  0.3950  0.1607 -0.3844
26819SOL    HW183862   3.561   4.657   6.079  1.3744  0.1542 -1.0967
26819SOL    HW283863   3.587   4.762   6.184  1.9552 -0.5127 -0.5670
26820SOL     OW83864   3.380   6.997   9.256  0.1516  0.0791  0.1759
26820SOL    HW183865   3.350   6.908   9.240  2.8652 -1.0466  1.1014
26820SOL    HW283866   3.394   7.033   9.168  0.7037 -0.9981 -0.1825
26821SOL     OW83867  10.906   5.193   2.323  0.1651  0.2414 -0.4281
26821SOL    HW183868  10.918   5.258   2.254 -1.7802  0.8621 -0.2196
26821SOL    HW283869  10.936   5.237   2.403  0.9697  0.0708 -0.6344
26822SOL     OW83870   3.951   2.603   1.069 -0.3385  0.4706 -0.1522
26822SOL    HW183871   3.923   2.534   1.009 -1.3924  1.5170 -0.8712
26822SOL    HW283872   3.933   2.567   1.156 -1.7052  0.1655 -0.5418
26823SOL     OW83873   3.293   4.323  10.421  0.8553  0.0256 -0.4827
26823SOL    HW183874   3.363   4.348  10.362  0.8513 -0.2153 -0.5915
26823SOL    HW283875   3.264   4.405  10.461 -0.4051  0.4177 -2.2007
26824SOL     OW83876   8.838   3.458   5.778  0.3614 -0.2726 -0.0779
26824SOL    HW183877   8.912   3.462   5.839 -1.1433  2.5158  1.6441
26824SOL    HW283878   8.841   3.543   5.732 -2.4265  0.3438  0.8326
26825SOL     OW83879   7.474   1.200   4.118  0.5152  0.0908 -0.7676
26825SOL    HW183880   7.538   1.240   4.176 -0.4810  2.4816 -1.2440
26825SOL    HW283881   7.521   1.128   4.076  2.1873  0.3710  0.5629
26826SOL     OW83882   9.967   5.296   0.445 -0.0920  0.6385 -0.1084
26826SOL    HW183883   9.996   5.209   0.417  0.3072  0.2476  1.4788
26826SOL    HW283884   9.919   5.280   0.526 -0.5037  1.8419 -0.1072
26827SOL     OW83885   2.859   6.917   6.769  0.1691  0.0945  0.5567
26827SOL    HW183886   2.927   6.939   6.833  0.2301 -2.8024  1.5783
26827SOL    HW283887   2.901   6.854   6.710 -1.4028 -1.2545  0.8307
26828SOL     OW83888   0.735   4.106   7.706  0.2780 -0.0439 -0.1978
26828SOL    HW183889   0.662   4.060   7.665  1.0353 -0.1828 -1.4113
26828SOL    HW283890   0.717   4.199   7.691  0.4951 -0.0899 -0.7790
26829SOL     OW83891   6.921   6.062   8.956 -0.8163 -0.2084 -0.0815
26829SOL    HW183892   6.868   6.052   8.877  0.2400 -0.6896 -0.7439
26829SOL    HW283893   7.006   6.092   8.925 -0.5066 -0.0220  0.9101
26830SOL     OW83894   0.188   3.108   5.243 -0.1573  0.0694  0.1425
26830SOL    HW183895   0.118   3.130   5.304 -0.3593  1.1354 -0.4637
26830SOL    HW283896   0.149   3.117   5.156  0.3217 -0.7671 -0.1703
26831SOL     OW83897   4.442   8.864   6.822  0.2413 -0.0767 -0.1060
26831SOL    HW183898   4.374   8.821   6.875 -0.0798  0.5837  0.0249
26831SOL    HW283899   4.501   8.793   6.797 -0.6462 -0.7097 -0.4436
26832SOL     OW83900   6.989   3.077   4.521 -0.2301 -0.3590  0.4308
26832SOL    HW183901   7.080   3.082   4.492 -0.4310 -0.2736 -0.1767
26832SOL    HW283902   6.994   3.032   4.606  0.3608 -0.4944  0.3262
26833SOL     OW83903   0.428   5.638   6.213 -0.9850 -0.0857 -0.1003
26833SOL    HW183904   0.490   5.565   6.219 -2.4215 -1.4077 -0.7963
26833SOL    HW283905   0.477   5.708   6.170 -0.0365 -1.1805 -0.8440
26834SOL     OW83906   3.316   6.403   8.164 -0.0162  0.0084  0.1155
26834SOL    HW183907   3.301   6.376   8.074 -1.2363  0.2865  0.2232
26834SOL    HW283908   3.361   6.487   8.156  3.5452 -1.8512 -0.2181
26835SOL     OW83909   6.121  10.084   4.583 -0.0795  0.8521 -0.3466
26835SOL    HW183910   6.174  10.012   4.617 -1.6674  0.6535  1.8130
26835SOL    HW283911   6.112  10.065   4.489  0.7477 -0.9651 -0.0808
26836SOL     OW83912   0.566   6.781   0.804  0.4465 -0.2383  0.2558
26836SOL    HW183913   0.494   6.830   0.844  0.4145 -0.4614  0.4711
26836SOL    HW283914   0.620   6.753   0.878  0.9977  0.3122  0.0680
26837SOL     OW83915   0.911   1.526   5.026 -0.4330  0.4996 -0.1444
26837SOL    HW183916   0.861   1.462   5.076  0.0569  0.4727  0.3080
26837SOL    HW283917   0.871   1.611   5.047 -1.7704  0.2403 -1.5680
26838SOL     OW83918   0.643   5.659   7.797 -0.2862  0.5950  0.0902
26838SOL    HW183919   0.656   5.753   7.803 -1.1147  0.7428 -0.3596
26838SOL    HW283920   0.645   5.640   7.703 -1.5448  0.3855  0.0888
26839SOL     OW83921   7.272   3.531   0.286 -0.1627 -0.2966 -0.7873
26839SOL    HW183922   7.245   3.440   0.303  0.0216 -0.3697 -0.8944
26839SOL    HW283923   7.253   3.576   0.368  1.1580 -0.7512 -0.2264
26840SOL     OW83924   5.668   4.381   8.605 -0.5385  0.2185  0.9116
26840SOL    HW183925   5.586   4.428   8.622 -1.2058 -0.7655  0.4557
26840SOL    HW283926   5.730   4.449   8.579 -1.5837  0.8126 -0.0405
26841SOL     OW83927   9.729   8.884   0.787  0.4722  0.4040 -0.4964
26841SOL    HW183928   9.664   8.925   0.843  1.5862  1.3135  0.1462
26841SOL    HW283929   9.679   8.826   0.730 -0.6816 -0.4845  1.3934
26842SOL     OW83930   1.030   8.258   4.871 -0.5613  0.1059  0.5862
26842SOL    HW183931   1.088   8.227   4.941 -0.2725 -3.5818 -1.2098
26842SOL    HW283932   1.083   8.320   4.822  0.7281 -0.6709  0.9788
26843SOL     OW83933   4.625   5.758   0.466  0.2103  0.0167  0.3376
26843SOL    HW183934   4.638   5.853   0.473  1.0507 -0.1765  1.6086
26843SOL    HW283935   4.562   5.748   0.396  2.9924  1.3255 -2.4744
26844SOL     OW83936   5.577   5.440   3.595  0.1651  0.7460  0.1243
26844SOL    HW183937   5.493   5.480   3.615  0.3641  1.0539  0.3476
26844SOL    HW283938   5.632   5.458   3.672  0.0155 -0.6398  0.5628
26845SOL     OW83939  10.382   9.780   8.615 -0.1382  0.5062 -0.4774
26845SOL    HW183940  10.381   9.758   8.522 -0.6790  1.8316 -0.8037
26845SOL    HW283941  10.346   9.869   8.618 -0.6583  0.2543  1.0461
26846SOL     OW83942   1.397   8.389   4.868 -0.0520  0.8600  0.1732
26846SOL    HW183943   1.392   8.401   4.963  1.4026  1.1077  0.2349
26846SOL    HW283944   1.478   8.435   4.842 -0.5016  0.9128 -1.2003
26847SOL     OW83945   8.131   4.061   4.157  0.4671  0.1362  0.1094
26847SOL    HW183946   8.134   4.046   4.251 -1.3260  1.1335  0.3416
26847SOL    HW283947   8.085   3.985   4.121 -1.3206  1.0662  0.3713
26848SOL     OW83948   1.184   9.408   1.014 -0.1972 -0.2151 -0.6077
26848SOL    HW183949   1.103   9.396   1.064  0.7210  1.2279  1.2939
26848SOL    HW283950   1.204   9.501   1.023  0.7143 -0.1897 -2.5853
26849SOL     OW83951   5.920   5.424   3.873 -0.0585 -0.3284  0.2221
26849SOL    HW183952   5.903   5.441   3.966  0.8220  0.1543  0.3077
26849SOL    HW283953   5.852   5.362   3.847  1.5628 -3.0182  2.0430
26850SOL     OW83954   7.870   3.905   2.424  0.3294 -0.1927  0.2184
26850SOL    HW183955   7.779   3.880   2.411  0.9972 -1.8724 -1.4679
26850SOL    HW283956   7.869   4.000   2.429 -1.4200 -0.1551 -0.6372
26851SOL     OW83957   0.754   4.921   3.508 -0.2723 -0.1983  0.8418
26851SOL    HW183958   0.679   4.862   3.515 -0.5767 -0.3661 -2.9478
26851SOL    HW283959   0.820   4.871   3.462  0.7754  1.2101  0.7750
26852SOL     OW83960   8.080   7.808   4.682  0.1666 -0.0017  0.5618
26852SOL    HW183961   8.084   7.881   4.620 -0.5186 -0.8983 -0.5595
26852SOL    HW283962   8.133   7.836   4.756  1.5667  0.8094 -0.7335
26853SOL     OW83963   8.477   6.650   1.228 -0.2266  0.1523  0.0943
26853SOL    HW183964   8.421   6.722   1.200 -2.7315 -1.3134  1.0815
26853SOL    HW283965   8.510   6.612   1.146 -3.4568 -1.0339 -0.7313
26854SOL     OW83966   1.294   2.167   0.732  0.7328 -0.3534  0.3481
26854SOL    HW183967   1.298   2.084   0.779 -2.2967  0.2673  1.8457
26854SOL    HW283968   1.252   2.146   0.649 -0.9626 -0.2047  1.1406
26855SOL     OW83969   7.874   4.006   6.288  0.2329  0.4507  0.1796
26855SOL    HW183970   7.958   3.981   6.326  1.2536  0.7721 -1.8416
26855SOL    HW283971   7.810   3.950   6.334  1.5314  0.1396  1.6603
26856SOL     OW83972   7.399   3.039   3.117  0.1239 -0.0919 -0.3566
26856SOL    HW183973   7.382   2.952   3.083  1.7075 -1.0226  1.1086
26856SOL    HW283974   7.441   3.024   3.202  0.4183  2.0860 -0.0716
26857SOL     OW83975   8.808   2.991   3.362 -0.1705 -0.1377  0.1740
26857SOL    HW183976   8.859   3.037   3.429  1.0975 -0.8986 -0.2420
26857SOL    HW283977   8.718   2.994   3.394  0.2055  0.7892  1.1833
26858SOL     OW83978   8.196   4.805   0.026  0.4551 -0.0929  0.4391
26858SOL    HW183979   8.285   4.840   0.028  0.2706  0.4008  0.1328
26858SOL    HW283980   8.206   4.715   0.055  1.1370 -0.2061 -0.1045
26859SOL     OW83981   9.315   6.731   5.086 -0.2460 -0.2516 -0.2393
26859SOL    HW183982   9.348   6.650   5.126 -1.7735 -0.7716  0.0153
26859SOL    HW283983   9.256   6.768   5.152 -0.7258  0.2791 -0.9587
26860SOL     OW83984   5.500   7.771   6.705  0.4019 -0.0774  1.2461
26860SOL    HW183985   5.421   7.823   6.695  0.1716 -0.7334 -0.4465
26860SOL    HW283986   5.489   7.698   6.644  2.2138 -0.2755  1.1272
26861SOL     OW83987   9.085   6.557   0.896 -0.0428 -0.5845  0.6216
26861SOL    HW183988   9.002   6.592   0.929 -0.1221  0.9653 -1.0816
26861SOL    HW283989   9.080   6.463   0.912 -1.6893 -0.3701  1.4857
26862SOL     OW83990  10.738   7.910   0.242 -1.1046 -0.3451  0.1585
26862SOL    HW183991  10.708   7.927   0.331 -2.0804  0.0240 -0.2385
26862SOL    HW283992  10.829   7.939   0.242 -0.8749 -1.0120  1.2318
26863SOL     OW83993   2.862   8.023   5.961 -0.1361  0.2178 -0.2834
26863SOL    HW183994   2.859   7.978   6.045 -0.1294  2.3853  0.8947
26863SOL    HW283995   2.888   7.955   5.899 -2.2271 -1.9270  1.0788
26864SOL     OW83996   9.818   5.408   7.438 -0.1874  0.7954 -0.4545
26864SOL    HW183997   9.731   5.376   7.463  0.4531 -0.1340  0.6433
26864SOL    HW283998   9.816   5.501   7.458 -0.8966  0.7573 -0.3232
26865SOL     OW83999   4.185   2.960   3.393 -0.1895  0.1254 -0.0871
26865SOL    HW184000   4.170   3.050   3.363 -0.6594  0.4782  1.1634
26865SOL    HW284001   4.186   2.967   3.488  2.6636 -0.7532 -0.0075
26866SOL     OW84002   0.391   4.899   3.844  0.3250 -0.0152 -0.2672
26866SOL    HW184003   0.338   4.936   3.774  1.2416 -0.2693 -1.0955
26866SOL    HW284004   0.449   4.971   3.870 -1.4989  0.8096  1.7793
26867SOL     OW84005   2.939   8.655   9.159  0.5824  0.5119 -0.1331
26867SOL    HW184006   2.846   8.633   9.150  0.6902 -0.6407  1.2907
26867SOL    HW284007   2.941   8.750   9.164 -0.3656  0.6283 -1.7722
26868SOL     OW84008   0.937   3.346   0.333 -0.2915  0.2671 -0.5017
26868SOL    HW184009   0.978   3.431   0.319 -0.7179  0.6773  0.6513
26868SOL    HW284010   0.970   3.291   0.262 -0.0100  1.3915 -1.2483
26869SOL     OW84011   5.520   3.800   2.628  0.4052  0.2713 -0.8001
26869SOL    HW184012   5.595   3.857   2.612 -0.4684  1.5714 -0.3302
26869SOL    HW284013   5.539   3.756   2.711  1.0131 -0.0349 -1.0951
26870SOL     OW84014   7.544  10.017   0.050  0.1137 -0.3116 -0.1570
26870SOL    HW184015   7.544   9.923   0.033 -0.1660  0.1060 -2.5536
26870SOL    HW284016   7.633  10.036   0.079  0.2166 -1.2786  0.1853
26871SOL     OW84017   2.769   6.185  10.134 -0.8862 -0.0450 -0.3676
26871SOL    HW184018   2.787   6.091  10.143  0.3574  0.4033  2.4129
26871SOL    HW284019   2.854   6.224  10.118 -1.1453  0.7705  0.2008
26872SOL     OW84020   7.946   5.498   5.202  0.6310 -0.0095 -0.2850
26872SOL    HW184021   7.992   5.570   5.245  1.0484 -0.2234 -0.3681
26872SOL    HW284022   7.999   5.480   5.124  0.8383 -0.7746  0.0261
26873SOL     OW84023   3.035   8.052  10.052  0.0329 -0.7214  0.3553
26873SOL    HW184024   3.085   8.008  10.121 -0.1595 -0.6524  0.5391
26873SOL    HW284025   3.101   8.105  10.006  0.1440 -0.6896  0.5472
26874SOL     OW84026   0.053   4.636   2.789 -0.0483  0.1562 -0.2908
26874SOL    HW184027   0.129   4.577   2.793  0.9505  1.5124  1.3751
26874SOL    HW284028  -0.018   4.586   2.829  0.5839 -0.2138  0.3788
26875SOL     OW84029   6.233   8.482   9.938  0.0771  0.1858  0.2520
26875SOL    HW184030   6.193   8.478   9.851  0.3286  0.0752  0.1402
26875SOL    HW284031   6.159   8.492   9.998 -0.2490 -1.5271  0.1735
26876SOL     OW84032   4.097   2.258   3.752  0.9294  0.2186  0.6949
26876SOL    HW184033   4.123   2.196   3.819  1.3719  1.2551  1.4907
26876SOL    HW284034   4.178   2.281   3.707  0.9373  1.0751  1.1411
26877SOL     OW84035   7.587   6.451  10.449 -0.3762 -0.1889  0.2271
26877SOL    HW184036   7.503   6.408  10.464  0.0214 -1.5388 -1.2610
26877SOL    HW284037   7.584   6.530  10.503 -1.8596 -1.1517  1.5920
26878SOL     OW84038  10.177   9.988   8.896  0.4385 -0.7603  0.0191
26878SOL    HW184039  10.099   9.973   8.842 -2.4012 -0.6800  3.9050
26878SOL    HW284040  10.227   9.906   8.890 -2.2564 -2.5321  1.0349
26879SOL     OW84041   9.189   2.782   8.983 -0.1523  0.0305  0.5489
26879SOL    HW184042   9.097   2.805   8.970  0.3296  1.5310 -0.3713
26879SOL    HW284043   9.206   2.715   8.917 -0.7375 -0.7189  1.1410
26880SOL     OW84044   1.803   5.197   7.535 -0.4545  0.0599  0.5541
26880SOL    HW184045   1.726   5.190   7.478  0.3205 -0.3682 -0.4526
26880SOL    HW284046   1.769   5.178   7.623 -1.3923 -0.7036  0.0387
26881SOL     OW84047   3.048  10.087   4.284  0.4983  0.0577  0.1530
26881SOL    HW184048   3.012  10.172   4.260 -2.8374 -1.3051  0.1651
26881SOL    HW284049   3.012  10.026   4.221  0.7069 -1.7912  1.7618
26882SOL     OW84050   0.721   3.076   5.265  0.4478  0.5789 -0.3204
26882SOL    HW184051   0.647   3.022   5.293  1.6355 -1.8722 -1.7678
26882SOL    HW284052   0.691   3.117   5.184 -0.0352  1.1498  0.1476
26883SOL     OW84053   3.711   6.201   7.640 -0.0931 -0.6899 -0.2303
26883SOL    HW184054   3.629   6.154   7.653 -0.7539  0.1721 -1.1289
26883SOL    HW284055   3.762   6.145   7.582  0.6994 -2.0508  1.7189
26884SOL     OW84056  10.319   4.650   4.118  0.2725 -0.3000 -0.1131
26884SOL    HW184057  10.340   4.557   4.111  1.3603 -0.0082 -0.8412
26884SOL    HW284058  10.338   4.671   4.210 -3.8715 -1.6927  1.1605
26885SOL     OW84059   9.713   2.873   7.911  0.2926 -0.0049 -0.0503
26885SOL    HW184060   9.689   2.895   8.002  0.7790  3.4704 -0.6954
26885SOL    HW284061   9.807   2.856   7.915  0.1286 -0.8899  0.2484
26886SOL     OW84062   9.926   3.777   8.597 -0.4814 -0.0274  0.0874
26886SOL    HW184063   9.966   3.816   8.520 -0.6429 -0.9953 -0.4999
26886SOL    HW284064   9.913   3.850   8.657  0.5286  0.5825 -0.4149
26887SOL     OW84065  10.268   5.933   9.269 -0.0526 -0.2448  0.0581
26887SOL    HW184066  10.347   5.979   9.297 -0.5380  0.8413 -0.3395
26887SOL    HW284067  10.300   5.850   9.234  0.9281  0.2741 -0.3003
26888SOL     OW84068  10.854   6.926   9.385 -0.6286  0.2785 -0.2680
26888SOL    HW184069  10.871   7.000   9.326 -0.1334  0.0788 -0.3810
26888SOL    HW284070  10.897   6.950   9.467  0.5616 -0.4088 -0.6820
26889SOL     OW84071   1.142   3.994   3.321 -0.7881 -0.2523 -0.1403
26889SOL    HW184072   1.054   4.018   3.293 -0.4705 -1.1576 -1.9423
26889SOL    HW284073   1.156   4.045   3.401 -2.5581  0.6557 -0.3880
26890SOL     OW84074   3.871   2.095   7.811  0.5137 -0.1693  0.3191
26890SOL    HW184075   3.945   2.112   7.869  1.2361  2.9537 -1.4127
26890SOL    HW284076   3.891   2.011   7.770  2.0758 -0.3322  1.3546
26891SOL     OW84077   1.292   7.693   1.855 -0.3011  0.5233  1.2572
26891SOL    HW184078   1.234   7.740   1.915 -4.1471  0.8408 -2.4480
26891SOL    HW284079   1.319   7.760   1.792 -2.1300 -1.1528 -1.4185
26892SOL     OW84080   7.046   1.623   6.096  0.0684  0.1588 -0.3938
26892SOL    HW184081   7.093   1.569   6.159 -0.8291  0.3537  0.4645
26892SOL    HW284082   6.987   1.563   6.052  1.2915 -0.1349 -1.6563
26893SOL     OW84083   8.076   3.167   0.975 -0.5591 -0.6465  0.5786
26893SOL    HW184084   8.137   3.166   1.049  0.0651  2.8387  0.1917
26893SOL    HW284085   8.125   3.127   0.903  1.6655  2.6666  0.0906
26894SOL     OW84086   2.994   1.014   0.591 -0.2648 -0.1766 -0.1534
26894SOL    HW184087   2.915   1.037   0.542 -0.0664 -0.0205 -0.3990
26894SOL    HW284088   2.984   0.920   0.609 -1.0511  0.0832  0.8096
26895SOL     OW84089   0.363   3.020   5.632  0.4428  0.5890  0.5327
26895SOL    HW184090   0.418   3.030   5.709  0.8774  0.1707  0.2819
26895SOL    HW284091   0.422   2.987   5.564 -0.5364 -2.0213  0.8727
26896SOL     OW84092   9.294   1.084   8.984 -0.8419  0.0677  0.1969
26896SOL    HW184093   9.287   1.139   8.906  0.8832 -1.4607 -1.0555
26896SOL    HW284094   9.283   1.145   9.057 -1.4178  1.6841 -1.2079
26897SOL     OW84095   3.607   6.229   0.975  0.5132  0.0807 -0.0070
26897SOL    HW184096   3.698   6.212   0.998  0.4949  0.9222  0.7011
26897SOL    HW284097   3.561   6.232   1.059  0.1245  1.3155 -0.2605
26898SOL     OW84098   3.272   7.787   8.466  0.3872  0.5632 -0.1463
26898SOL    HW184099   3.276   7.701   8.424 -1.2279  0.4585 -0.0822
26898SOL    HW284100   3.300   7.771   8.556  3.1273  0.6593 -0.9068
26899SOL     OW84101   3.777   1.732   9.287  0.2820  0.0356 -0.0682
26899SOL    HW184102   3.712   1.699   9.349 -0.9935  0.2648 -1.2511
26899SOL    HW284103   3.756   1.687   9.205  1.2627  0.5324 -0.5921
26900SOL     OW84104   8.558   4.030   7.287  0.2482  0.8717 -0.0016
26900SOL    HW184105   8.484   4.000   7.339  0.2110  0.5731 -0.2266
26900SOL    HW284106   8.534   4.011   7.197  0.5512  0.8793 -0.0859
26901SOL     OW84107   4.010   0.763  10.536  0.4701  0.1685 -0.1182
26901SOL    HW184108   4.035   0.712  10.459  0.8037 -1.4349  1.0309
26901SOL    HW284109   3.926   0.726  10.564  0.8272  0.1001  0.8705
26902SOL     OW84110   1.182   9.506   4.963  0.8853  0.5819 -0.4781
26902SOL    HW184111   1.101   9.462   4.941  1.6828 -1.1509 -0.0127
26902SOL    HW284112   1.176   9.522   5.057  0.6191  1.4611 -0.6353
26903SOL     OW84113   8.962   9.230   6.746  0.6821  0.5381 -0.7146
26903SOL    HW184114   8.933   9.310   6.791  3.0111  2.2371 -2.1056
26903SOL    HW284115   8.899   9.219   6.675  1.0824  1.9348 -1.3174
26904SOL     OW84116   3.703   8.590   0.565 -0.1081 -0.2798 -0.2592
26904SOL    HW184117   3.789   8.554   0.542  0.7478  0.7272  1.2982
26904SOL    HW284118   3.681   8.549   0.649 -0.8218  0.0355 -0.2891
26905SOL     OW84119   4.278   3.410   1.186 -0.4796 -0.6310  0.0299
26905SOL    HW184120   4.280   3.496   1.229 -1.0164 -1.6211  2.0811
26905SOL    HW284121   4.341   3.418   1.114  0.4227  1.0762  0.9714
26906SOL     OW84122   5.724   1.769   8.022 -1.2410  0.3773 -0.9522
26906SOL    HW184123   5.655   1.714   8.058 -0.9799  0.0838 -0.8919
26906SOL    HW284124   5.703   1.857   8.051 -0.2526 -0.0469  1.1283
26907SOL     OW84125   5.805   6.519   7.360 -0.1662  0.1964 -0.7138
26907SOL    HW184126   5.818   6.456   7.431 -0.1225  0.0514 -0.8514
26907SOL    HW284127   5.850   6.599   7.390 -0.3623  0.2154 -0.4674
26908SOL     OW84128   0.202   2.932   4.146 -0.1550  0.3582  0.1328
26908SOL    HW184129   0.238   2.889   4.223 -1.4913 -0.8512  0.1079
26908SOL    HW284130   0.135   2.990   4.181 -2.1678 -1.6747 -0.2248
26909SOL     OW84131   1.163  10.134   7.772 -0.1271  0.1968 -0.1390
26909SOL    HW184132   1.142  10.041   7.782  0.3480 -0.0874 -1.5456
26909SOL    HW284133   1.253  10.141   7.805 -0.6785  0.4563  1.3397
26910SOL     OW84134   5.372   7.558   0.121  0.0999 -0.3140  0.0223
26910SOL    HW184135   5.281   7.546   0.151 -0.4197  0.9525 -0.9961
26910SOL    HW284136   5.389   7.483   0.064  0.0797 -1.1518  1.1098
26911SOL     OW84137   5.171   1.161   7.078 -0.1368  0.1119 -0.3359
26911SOL    HW184138   5.152   1.224   7.009 -0.1075  0.4843 -0.0092
26911SOL    HW284139   5.105   1.179   7.146  0.2182  0.1721 -0.0015
26912SOL     OW84140   9.405   8.308   1.201  0.2824  0.4496 -0.1018
26912SOL    HW184141   9.462   8.329   1.275 -1.2316 -0.1178  1.2645
26912SOL    HW284142   9.465   8.296   1.127  1.7956  1.3717  0.9391
26913SOL     OW84143   9.699   6.290   5.400 -0.3214 -0.3076 -0.2183
26913SOL    HW184144   9.746   6.247   5.472  0.5761  0.9440 -0.0381
26913SOL    HW284145   9.610   6.300   5.433 -0.1743 -0.6866  0.3122
26914SOL     OW84146   2.508   8.941   3.986 -0.1416  0.3415 -0.1818
26914SOL    HW184147   2.483   9.002   3.917 -1.7179 -0.6333 -0.4896
26914SOL    HW284148   2.426   8.897   4.010  0.7089 -0.5818  1.0762
26915SOL     OW84149   7.263   9.924   9.608 -0.3968  0.1533 -0.3943
26915SOL    HW184150   7.191   9.932   9.671  0.3416  1.2897  0.3272
26915SOL    HW284151   7.252   9.837   9.570 -1.0399 -0.4292  1.0893
26916SOL     OW84152   8.410   4.487   2.962  0.2925 -0.2809  0.3512
26916SOL    HW184153   8.474   4.554   2.941 -0.1985 -0.3357 -1.4123
26916SOL    HW284154   8.455   4.429   3.023  2.1726 -0.6769 -1.3494
26917SOL     OW84155   7.151   5.193   9.058 -0.2112  0.1075  0.1231
26917SOL    HW184156   7.229   5.139   9.074 -0.1763  0.0242 -0.3126
26917SOL    HW284157   7.137   5.187   8.963 -0.2965  0.7485  0.0969
26918SOL     OW84158   5.404   7.752  10.331  0.0685  0.8093 -0.2352
26918SOL    HW184159   5.310   7.770  10.325 -0.1073 -0.2875 -1.0324
26918SOL    HW284160   5.446   7.833  10.300 -0.5627  1.9584  1.8416
26919SOL     OW84161   4.544   5.897   8.063  0.2520  0.4161 -0.0553
26919SOL    HW184162   4.536   5.993   8.068 -0.3777  0.4135 -0.8161
26919SOL    HW284163   4.555   5.880   7.969  0.7612 -0.2360  0.1213
26920SOL     OW84164  10.115   0.485   7.532 -0.2310  0.5053 -0.8231
26920SOL    HW184165  10.133   0.394   7.553  0.3080  0.4328 -1.5772
26920SOL    HW284166  10.034   0.505   7.579 -0.3664 -0.3675 -0.6802
26921SOL     OW84167   4.777   0.803   9.002 -0.4279 -0.4512  0.2217
26921SOL    HW184168   4.813   0.726   8.958 -0.1712 -1.6190  2.3844
26921SOL    HW284169   4.765   0.775   9.093 -2.6092  1.3144  0.5186
26922SOL     OW84170   4.408   3.834   9.222 -0.6339 -0.1379  0.2175
26922SOL    HW184171   4.466   3.909   9.237 -0.5586  0.1674 -1.4809
26922SOL    HW284172   4.429   3.805   9.134 -1.3173 -1.5934  0.5231
26923SOL     OW84173   3.857   8.325   0.026 -0.0101  0.0380  0.0896
26923SOL    HW184174   3.811   8.341   0.108 -0.8962  0.8503 -0.5466
26923SOL    HW284175   3.797   8.268  -0.024 -0.2417  0.9188 -0.6551
26924SOL     OW84176   3.651   9.988   3.369 -0.5673 -0.1357 -0.4464
26924SOL    HW184177   3.743   9.987   3.344 -0.1954 -0.3594  0.9243
26924SOL    HW284178   3.609  10.042   3.302  0.3709 -0.9342 -1.7046
26925SOL     OW84179   4.581   9.540   1.172  0.7775  0.2641 -0.1674
26925SOL    HW184180   4.539   9.622   1.200  0.0236  0.1912 -1.0892
26925SOL    HW284181   4.593   9.551   1.078 -0.0209 -1.0114 -0.4174
26926SOL     OW84182   4.715   1.970   9.307  0.1736  0.6560  0.5062
26926SOL    HW184183   4.662   1.938   9.234  0.8450  0.1448  0.2385
26926SOL    HW284184   4.748   1.891   9.349 -0.5995  0.9234  1.6721
26927SOL     OW84185   9.176  10.180   9.750  0.9539 -0.1804  0.2634
26927SOL    HW184186   9.258  10.156   9.706  0.2784 -0.4086 -0.8854
26927SOL    HW284187   9.107  10.143   9.695  0.0574  0.4041  0.9747
26928SOL     OW84188   2.411   3.161   1.753  0.6340 -0.2837  0.4450
26928SOL    HW184189   2.352   3.201   1.688  2.8120  1.3227 -0.6134
26928SOL    HW284190   2.371   3.182   1.837  0.4360  2.1010 -0.1931
26929SOL     OW84191   7.583   8.953   6.802 -0.4694 -0.5623 -0.7190
26929SOL    HW184192   7.582   8.871   6.752  1.1496 -1.0765  0.0526
26929SOL    HW284193   7.676   8.974   6.811 -0.8047  0.3836  0.7081
26930SOL     OW84194   8.329   6.526   2.450 -0.4351 -0.6350 -0.0660
26930SOL    HW184195   8.299   6.455   2.394  0.3199 -0.5427 -0.5932
26930SOL    HW284196   8.374   6.586   2.391  1.6345 -1.2537  0.8312
26931SOL     OW84197   2.171   5.219   4.955 -0.1552 -0.6005 -0.2475
26931SOL    HW184198   2.229   5.258   5.020  1.5228 -1.8179 -0.9858
26931SOL    HW284199   2.119   5.155   5.005  0.2222 -0.6066  0.1422
26932SOL     OW84200   4.099   5.498   8.293 -0.3969  0.3961  0.3449
26932SOL    HW184201   4.008   5.527   8.282 -0.3887  0.4425  0.4011
26932SOL    HW284202   4.143   5.573   8.335  0.0839  1.0652 -1.3151
26933SOL     OW84203  10.699   3.036  10.326  0.1766 -0.3511 -0.0314
26933SOL    HW184204  10.616   2.993  10.310  0.7356 -1.0881 -0.9893
26933SOL    HW284205  10.759   2.965  10.350  1.0977 -0.1185 -1.5906
26934SOL     OW84206   2.040   5.129   4.232 -0.2948 -0.7497 -0.3014
26934SOL    HW184207   2.117   5.073   4.219 -1.3496 -2.4657  0.6876
26934SOL    HW284208   2.064   5.187   4.304  0.4482 -0.5493 -0.6977
26935SOL     OW84209  10.631   4.178   8.159  0.2853 -0.9617 -0.1815
26935SOL    HW184210  10.638   4.184   8.064 -0.9627  0.1888 -0.2186
26935SOL    HW284211  10.654   4.266   8.190  1.5393 -1.5656  0.6362
26936SOL     OW84212  10.715  10.303   1.180  0.3013 -0.2737  0.5129
26936SOL    HW184213  10.753  10.382   1.142 -0.7767 -0.2883 -0.6317
26936SOL    HW284214  10.743  10.232   1.123 -0.5392 -0.4210  0.2712
26937SOL     OW84215   7.326   2.117   3.741  0.1748 -0.2998 -0.4591
26937SOL    HW184216   7.373   2.070   3.810  0.1455 -0.2604 -0.4122
26937SOL    HW284217   7.309   2.204   3.778 -0.4614 -0.5081 -0.2455
26938SOL     OW84218   3.552   4.205   1.819  0.3746 -0.0055  0.8878
26938SOL    HW184219   3.545   4.150   1.740  2.2173  0.2794  0.5113
26938SOL    HW284220   3.486   4.169   1.879  1.1737 -2.2909  0.4413
26939SOL     OW84221   7.052   0.696   6.212  0.5500  0.0405 -0.6064
26939SOL    HW184222   7.005   0.626   6.258  0.2541  0.0372 -0.9104
26939SOL    HW284223   7.140   0.695   6.250  0.0174  0.7130  0.6932
26940SOL     OW84224  10.962   1.456   7.082  0.2623 -0.2450  0.1601
26940SOL    HW184225  10.931   1.392   7.147  0.0277 -1.2178 -0.8932
26940SOL    HW284226  10.984   1.403   7.005 -0.1147  0.9639 -0.7890
26941SOL     OW84227   0.739   3.171   2.272 -0.7704 -0.7756 -0.1664
26941SOL    HW184228   0.721   3.214   2.189  2.4982 -2.3290 -1.8140
26941SOL    HW284229   0.778   3.239   2.327 -0.7017 -0.3180 -0.7823
26942SOL     OW84230   7.504   5.223   8.732 -0.1946  0.2918  0.5515
26942SOL    HW184231   7.493   5.227   8.637  0.5531  2.5450  0.5362
26942SOL    HW284232   7.448   5.293   8.766 -1.3253 -1.2083  1.8670
26943SOL     OW84233   5.449   5.801   4.125 -0.3419  0.8601 -0.0259
26943SOL    HW184234   5.381   5.825   4.062 -0.6393  1.8572  0.6605
26943SOL    HW284235   5.525   5.778   4.071 -1.7753 -2.1170 -0.8655
26944SOL     OW84236   5.381   7.620   4.167 -0.0870  0.2444  0.3238
26944SOL    HW184237   5.449   7.687   4.167 -0.6821  0.8622 -0.0718
26944SOL    HW284238   5.356   7.613   4.075 -1.6111  1.1197  0.6504
26945SOL     OW84239   1.475  10.668   0.054 -0.2527  0.8715  0.5437
26945SOL    HW184240   1.412  10.741   0.051 -1.2566  0.1672  2.8959
26945SOL    HW284241   1.553  10.705   0.095  0.1648  1.2487 -0.5784
26946SOL     OW84242   8.228   7.818   3.666  0.6597  0.2603  0.3780
26946SOL    HW184243   8.321   7.822   3.687  0.6071 -2.5096  1.2336
26946SOL    HW284244   8.224   7.843   3.573  2.7809 -3.6875 -0.8787
26947SOL     OW84245   2.877  10.762   9.433 -0.0404 -0.6402  0.5550
26947SOL    HW184246   2.903  10.799   9.518 -0.9407 -0.1176  0.6168
26947SOL    HW284247   2.833  10.834   9.388  0.7700 -0.8063 -0.5247
26948SOL     OW84248  10.156   6.807   9.893  0.3318  0.2935 -0.2615
26948SOL    HW184249  10.215   6.735   9.875 -0.2292  0.1526 -1.5574
26948SOL    HW284250  10.204   6.886   9.867  0.1834  0.2256 -0.7417
26949SOL     OW84251   3.197   2.044   9.187 -0.2549  0.4747  0.5484
26949SOL    HW184252   3.248   2.109   9.139  1.9843 -1.3596  0.3989
26949SOL    HW284253   3.113   2.042   9.142  1.7263 -1.1094 -3.3144
26950SOL     OW84254   0.981   5.787   7.174 -0.0540 -0.2456 -0.3796
26950SOL    HW184255   1.011   5.751   7.091  1.4834  2.0598 -0.8656
26950SOL    HW284256   1.061   5.813   7.220 -1.0511  2.0492  0.1322
26951SOL     OW84257  10.502   7.304   7.395 -0.3245 -0.2627 -0.3185
26951SOL    HW184258  10.492   7.216   7.359  2.0422 -1.3545  1.5176
26951SOL    HW284259  10.485   7.294   7.489  0.9840  0.9886  0.0810
26952SOL     OW84260   6.253   0.256   5.431 -0.4618  0.0086 -0.5761
26952SOL    HW184261   6.249   0.177   5.377 -0.8352 -1.1009  1.0589
26952SOL    HW284262   6.169   0.299   5.415 -0.8138 -0.6200 -0.4518
26953SOL     OW84263   0.072   6.020   0.098 -0.0665  0.3890  0.3418
26953SOL    HW184264   0.033   6.089   0.152 -0.1726  0.2109  0.4897
26953SOL    HW284265   0.149   6.062   0.059 -0.3614  0.7148  0.1081
26954SOL     OW84266   0.690   2.608   6.181 -0.2060 -0.0318  0.2042
26954SOL    HW184267   0.668   2.618   6.089  0.5917 -0.2126 -0.0074
26954SOL    HW284268   0.668   2.693   6.220 -0.2970  0.1288 -0.1993
26955SOL     OW84269   0.093   2.150   5.425  0.4111 -0.0611 -0.5242
26955SOL    HW184270   0.120   2.233   5.465 -0.4792 -0.4042  0.8242
26955SOL    HW284271   0.037   2.109   5.490 -1.1095 -0.6409 -2.1428
26956SOL     OW84272   4.176   9.661   4.450  0.2935 -1.0606  0.3629
26956SOL    HW184273   4.257   9.655   4.400  1.2534 -1.9332  1.9771
26956SOL    HW284274   4.123   9.587   4.420  0.7865 -1.4608  0.4718
26957SOL     OW84275   3.817   1.992  10.968  0.1694  0.2000 -0.1222
26957SOL    HW184276   3.805   2.032  10.882 -0.4576  0.1429 -0.0610
26957SOL    HW284277   3.749   2.030  11.023 -0.4725 -0.9737 -0.0795
26958SOL     OW84278   9.645  10.722   7.627 -0.1066 -0.1567  0.2746
26958SOL    HW184279   9.656  10.817   7.625  1.5439 -0.2558  2.5594
26958SOL    HW284280   9.560  10.709   7.671  0.3617  0.2550  1.3329
26959SOL     OW84281   3.421   1.234   6.273  0.0773  0.4113  0.2239
26959SOL    HW184282   3.490   1.290   6.309  0.8179  0.3594 -1.0990
26959SOL    HW284283   3.400   1.173   6.345  1.0990  0.7033  0.7809
26960SOL     OW84284   4.974   5.160   8.437 -0.3273  0.1012  0.1649
26960SOL    HW184285   4.891   5.157   8.389 -0.5133  1.4960  0.3747
26960SOL    HW284286   4.987   5.253   8.457  1.2001 -0.1279  0.2936
26961SOL     OW84287   7.505   1.211   6.044 -0.1658  0.4019  0.4309
26961SOL    HW184288   7.454   1.292   6.038 -0.6734  0.2319  2.1861
26961SOL    HW284289   7.469   1.166   6.120  0.9387 -0.9020  0.1934
26962SOL     OW84290   8.097   1.951   5.884  0.1495 -0.0123 -0.2201
26962SOL    HW184291   8.038   1.875   5.879  0.6303 -0.4229  0.1968
26962SOL    HW284292   8.147   1.937   5.965  0.5378  0.5326 -0.3630
26963SOL     OW84293   8.559   8.707  10.863  0.3393 -0.0373 -0.1309
26963SOL    HW184294   8.633   8.705  10.803  1.7283  0.3667  1.5504
26963SOL    HW284295   8.531   8.799  10.865  1.0551  0.1724  0.7319
26964SOL     OW84296   8.576   3.409   5.806  0.5119  0.0192 -0.2907
26964SOL    HW184297   8.671   3.424   5.813  0.5843 -0.8270  0.7887
26964SOL    HW284298   8.565   3.318   5.835 -0.6050  0.0437 -0.6358
26965SOL     OW84299   0.471   5.133   5.729 -0.0346  0.2896  0.4965
26965SOL    HW184300   0.482   5.046   5.769 -0.4547  0.0657  0.1326
26965SOL    HW284301   0.429   5.185   5.798 -1.4224 -0.2971  0.1090
26966SOL     OW84302   0.839   7.504   9.262 -0.2923 -0.3205 -0.5082
26966SOL    HW184303   0.755   7.537   9.231 -0.4884  1.9910  2.2138
26966SOL    HW284304   0.899   7.579   9.253 -0.0019 -0.0539  2.9632
26967SOL     OW84305   0.201   3.866   9.762 -0.1110 -0.4594  0.1207
26967SOL    HW184306   0.262   3.930   9.798 -0.9228  0.7310 -0.5922
26967SOL    HW284307   0.116   3.891   9.797 -0.3671 -1.4634  0.2433
26968SOL     OW84308   0.307   9.717   7.906 -0.1951  0.3067  0.0180
26968SOL    HW184309   0.252   9.768   7.847  0.7966  0.9587 -0.3527
26968SOL    HW284310   0.342   9.781   7.967  0.1208 -0.1122  0.2777
26969SOL     OW84311   8.718   5.004   4.983 -1.1184 -0.0567 -0.2982
26969SOL    HW184312   8.769   5.038   5.057 -0.2035 -1.9254 -0.0500
26969SOL    HW284313   8.627   5.013   5.011 -0.8130  0.0509  0.7020
26970SOL     OW84314  10.733   7.457   3.867 -0.1229  0.2578 -0.3536
26970SOL    HW184315  10.662   7.520   3.884  0.4040  0.3192  1.8306
26970SOL    HW284316  10.709   7.380   3.918  0.3869 -0.4620 -1.1917
26971SOL     OW84317   0.052   1.083   5.515 -0.0895 -0.2424 -0.2560
26971SOL    HW184318   0.092   1.032   5.445  2.4050  0.6044  0.5099
26971SOL    HW284319  -0.015   1.135   5.471  2.4399  1.4055 -2.3159
26972SOL     OW84320   2.549   3.826   2.252 -0.4484 -0.3223  0.2823
26972SOL    HW184321   2.601   3.830   2.332  0.8293 -0.6398 -0.5220
26972SOL    HW284322   2.599   3.876   2.188 -2.7981  2.3012  0.3777
26973SOL     OW84323   6.895   9.540   2.126 -0.3993  0.5206  0.5012
26973SOL    HW184324   6.952   9.616   2.118  0.5398 -0.0591  1.4962
26973SOL    HW284325   6.932   9.476   2.064  0.3551 -0.0312  1.4937
26974SOL     OW84326   5.257   4.278   1.998 -0.2744 -0.3867  0.1166
26974SOL    HW184327   5.218   4.193   1.978 -1.7251  0.5512 -1.1960
26974SOL    HW284328   5.304   4.303   1.919 -2.2965  1.3141 -0.6304
26975SOL     OW84329   2.620   6.256   5.466 -0.1795 -0.1791 -0.2842
26975SOL    HW184330   2.620   6.208   5.549 -3.4667 -0.5631 -0.4770
26975SOL    HW284331   2.684   6.327   5.481  0.1056 -0.8924  2.1677
26976SOL     OW84332   7.325   8.283   5.825  0.3983  0.4668  0.0231
26976SOL    HW184333   7.382   8.317   5.894  2.6230  0.0359 -1.5576
26976SOL    HW284334   7.295   8.361   5.778  0.3479  0.6424  0.3426
26977SOL     OW84335   2.877   7.640   2.630  0.1545  0.5522 -0.0301
26977SOL    HW184336   2.971   7.657   2.626  0.1322  0.5399 -0.7463
26977SOL    HW284337   2.844   7.702   2.695  0.5855  0.8956 -0.1369
26978SOL     OW84338   8.573   8.290   9.347 -0.3713  0.3680  0.1515
26978SOL    HW184339   8.567   8.227   9.276 -1.0509 -0.1313  0.6456
26978SOL    HW284340   8.630   8.249   9.412  0.3478  0.8762 -0.1567
26979SOL     OW84341   0.915   1.985   8.595  0.9600  0.2274  0.2603
26979SOL    HW184342   0.893   1.949   8.509 -2.1828 -2.1431  1.9346
26979SOL    HW284343   1.008   1.966   8.605  0.6114 -2.6466 -1.2189
26980SOL     OW84344   4.801   2.283   8.582  0.4638 -0.5348 -0.1554
26980SOL    HW184345   4.869   2.262   8.645  0.3783 -2.2216 -0.6042
26980SOL    HW284346   4.746   2.348   8.626  1.8911  0.2515  0.4938
26981SOL     OW84347   6.366   0.282   3.695 -0.4417  0.6676 -0.1084
26981SOL    HW184348   6.411   0.198   3.709  3.0790  2.2016 -1.6594
26981SOL    HW284349   6.402   0.340   3.762 -0.1082  1.9173 -1.3349
26982SOL     OW84350   0.494   8.380   4.250  0.0818  0.4025 -0.0058
26982SOL    HW184351   0.471   8.323   4.176  0.1356  1.5943 -0.9424
26982SOL    HW284352   0.475   8.327   4.327  0.3609 -0.9879 -0.8728
26983SOL     OW84353   9.353   8.701  10.015 -0.3282  0.2957 -0.0007
26983SOL    HW184354   9.272   8.728  10.059 -0.3105 -2.3630  1.7819
26983SOL    HW284355   9.412   8.677  10.087  1.5610  0.8215 -1.3342
26984SOL     OW84356   5.846   1.178   2.498 -0.0924  0.1957  0.0754
26984SOL    HW184357   5.921   1.168   2.557  0.7218 -2.4471 -1.3025
26984SOL    HW284358   5.771   1.191   2.556  0.8346 -1.3401  1.6824
26985SOL     OW84359  10.170   5.437   4.948  0.0486  0.3774  0.0860
26985SOL    HW184360  10.231   5.481   4.888  0.4192  1.3624  1.1637
26985SOL    HW284361  10.217   5.434   5.032 -0.1356 -1.7274  0.1418
26986SOL     OW84362   7.369   5.469   9.505  1.0752  0.2390 -0.0161
26986SOL    HW184363   7.359   5.501   9.416  0.3443 -2.7002 -1.0322
26986SOL    HW284364   7.312   5.392   9.510  3.1431 -1.2192  2.1756
26987SOL     OW84365   1.066   7.604   2.887  0.4261 -0.0362 -0.2074
26987SOL    HW184366   1.023   7.590   2.972  0.6412  0.2087 -0.0553
26987SOL    HW284367   1.156   7.628   2.909 -0.1384  2.4244 -0.3964
26988SOL     OW84368   1.611   3.738   2.209 -0.0540 -0.4055 -0.3483
26988SOL    HW184369   1.562   3.678   2.265  1.4555 -0.5624  0.8491
26988SOL    HW284370   1.689   3.760   2.260  1.8913 -1.3587 -2.7907
26989SOL     OW84371   8.754   3.514   2.386 -0.6007 -0.0562  0.2019
26989SOL    HW184372   8.750   3.520   2.482  0.0787  1.2221  0.1666
26989SOL    HW284373   8.794   3.597   2.359 -0.5942 -0.5022 -1.1773
26990SOL     OW84374   2.833   8.631   7.937 -0.2529  0.4536 -0.0018
26990SOL    HW184375   2.859   8.543   7.965  0.6492  1.0834  1.1772
26990SOL    HW284376   2.795   8.671   8.015  0.5356  1.5668 -0.1747
26991SOL     OW84377   3.068   8.327   3.901  0.5530 -0.0227 -0.3973
26991SOL    HW184378   3.022   8.267   3.842  0.2034  0.5925 -0.7550
26991SOL    HW284379   3.125   8.270   3.953 -1.6877 -0.9532  1.0873
26992SOL     OW84380   6.681   0.885   3.091 -0.2358 -0.2206 -0.0842
26992SOL    HW184381   6.759   0.840   3.059 -0.0031 -0.1682  0.4093
26992SOL    HW284382   6.610   0.823   3.075  0.1842 -1.0564  1.2436
26993SOL     OW84383   9.943   0.203   6.577 -0.0225  0.6285  0.3340
26993SOL    HW184384   9.997   0.144   6.524 -0.1400  0.8801 -0.0708
26993SOL    HW284385   9.979   0.290   6.560  1.1331  0.5162  2.1257
26994SOL     OW84386  10.739   9.949   1.168  0.8958 -0.6981  0.0003
26994SOL    HW184387  10.770   9.983   1.253  0.1232 -2.3733  0.9695
26994SOL    HW284388  10.733   9.855   1.181 -2.9778 -0.5964 -0.7021
26995SOL     OW84389   0.697   5.899   0.805 -0.4489  0.3982 -0.8094
26995SOL    HW184390   0.648   5.852   0.873  0.5128 -1.9512 -1.6930
26995SOL    HW284391   0.743   5.968   0.853 -0.1124 -0.9518  0.8931
26996SOL     OW84392   1.011  10.863   9.357  0.0622  0.4500 -0.2128
26996SOL    HW184393   0.937  10.890   9.302  0.7195  1.6404 -0.5191
26996SOL    HW284394   1.051  10.790   9.311 -1.3559 -0.6803  0.3086
26997SOL     OW84395   1.495   4.246   1.591 -0.3100  0.1997  0.2213
26997SOL    HW184396   1.454   4.329   1.567 -0.9223  0.2441  1.4099
26997SOL    HW284397   1.436   4.207   1.654 -0.8662 -1.9572 -1.5977
26998SOL     OW84398   0.497   6.566   2.522  0.1416  0.0840  0.1060
26998SOL    HW184399   0.470   6.655   2.547 -0.5661  0.6123 -2.4409
26998SOL    HW284400   0.558   6.580   2.449 -0.1313 -1.5428 -0.4395
26999SOL     OW84401   2.025   1.960   0.560 -0.0696 -0.9162  0.2107
26999SOL    HW184402   2.057   1.870   0.569 -0.1678 -1.0423 -0.6212
26999SOL    HW284403   2.074   2.010   0.625 -0.5866 -1.7136  1.2274
27000SOL     OW84404   7.570   4.242   7.575 -0.3051  0.3000 -0.1126
27000SOL    HW184405   7.583   4.280   7.662 -0.4576  0.1430 -0.0175
27000SOL    HW284406   7.646   4.270   7.524  0.5441 -0.8324  0.5039
27001SOL     OW84407   5.338   2.585   4.801  0.2894  0.0131  0.5464
27001SOL    HW184408   5.266   2.620   4.854  0.3663 -0.4003  0.9228
27001SOL    HW284409   5.348   2.495   4.830 -0.0650 -0.4010 -0.5930
27002SOL     OW84410   3.035   9.431   4.291 -0.5041 -0.2173 -0.3844
27002SOL    HW184411   2.941   9.423   4.272 -0.1397 -2.2117 -1.3997
27002SOL    HW284412   3.060   9.516   4.254 -2.0851  0.7491  0.6913
27003SOL     OW84413   1.428   1.113   9.335 -0.4707  0.2226 -0.2184
27003SOL    HW184414   1.349   1.163   9.354 -0.7906 -0.2410 -0.3191
27003SOL    HW284415   1.396   1.032   9.294 -0.0577 -0.7402  1.3322
27004SOL     OW84416   8.268   2.048   6.554  0.1105 -0.2270 -0.1186
27004SOL    HW184417   8.186   2.080   6.517 -0.7127  0.5628  2.3136
27004SOL    HW284418   8.263   1.953   6.546  0.3494 -0.0713 -2.7541
27005SOL     OW84419   1.402   4.462   8.791  0.0630 -0.7947 -0.4436
27005SOL    HW184420   1.468   4.395   8.803 -1.5718 -2.4196 -0.3356
27005SOL    HW284421   1.349   4.459   8.870  0.7256  1.5294  0.1484
27006SOL     OW84422  10.939   1.255   5.058 -0.5408  0.2663  0.1508
27006SOL    HW184423  11.003   1.246   5.128 -1.0999  0.8326  0.7505
27006SOL    HW284424  10.855   1.235   5.099 -0.9159  0.9527 -0.2566
27007SOL     OW84425  10.294   7.444   5.529  0.1623  0.1662  0.1714
27007SOL    HW184426  10.232   7.388   5.576 -0.1341 -0.7521 -1.2934
27007SOL    HW284427  10.254   7.531   5.532 -0.5604 -0.1669  0.3784
27008SOL     OW84428   6.360   5.396  10.875  0.7151 -0.4731 -0.2824
27008SOL    HW184429   6.328   5.400  10.965 -1.2958  0.1749 -0.9819
27008SOL    HW284430   6.455   5.407  10.882  0.3611  1.7015  1.6191
27009SOL     OW84431   0.688  10.078   0.459 -0.0492  1.1946  0.5980
27009SOL    HW184432   0.719  10.085   0.550  0.4821  2.4958  0.3144
27009SOL    HW284433   0.719  10.157   0.416 -0.2175  0.5409 -0.7607
27010SOL     OW84434   9.693   6.703   9.802  0.1357 -1.0281  0.3155
27010SOL    HW184435   9.773   6.756   9.806  0.1246 -1.0411  0.7301
27010SOL    HW284436   9.649   6.720   9.886 -0.7171 -0.3697 -0.2586
27011SOL     OW84437   6.928   9.609  10.978 -0.3992  0.5761  0.3147
27011SOL    HW184438   6.977   9.541  11.024 -0.9975 -0.9857 -1.2995
27011SOL    HW284439   6.897   9.667  11.047 -1.5718 -1.8914  1.9201
27012SOL     OW84440   7.276   4.740   4.324  0.1649  0.0255  0.2197
27012SOL    HW184441   7.239   4.652   4.318 -0.2205  0.2135 -0.1950
27012SOL    HW284442   7.250   4.771   4.411 -2.5019  0.9731 -0.8721
27013SOL     OW84443   3.674   4.872  10.491  0.0455  0.4753 -0.3650
27013SOL    HW184444   3.603   4.808  10.502  1.2034 -0.6544  0.7290
27013SOL    HW284445   3.645   4.948  10.541 -1.1133  0.6490 -1.2586
27014SOL     OW84446   8.898  10.792   7.228  0.1150 -0.1395  0.1505
27014SOL    HW184447   8.808  10.822   7.235  0.3184  0.5960 -0.3187
27014SOL    HW284448   8.922  10.812   7.137  0.9606  0.2619  0.4606
27015SOL     OW84449   5.296   8.522   9.199 -0.0055  0.3962 -0.0422
27015SOL    HW184450   5.257   8.583   9.137  0.7498  1.1716  0.2333
27015SOL    HW284451   5.229   8.456   9.214 -0.3167  0.3990 -1.4180
27016SOL     OW84452   9.497   7.696   6.424 -0.5489  0.3347  0.3409
27016SOL    HW184453   9.559   7.755   6.468 -0.3002  0.4371 -0.1423
27016SOL    HW284454   9.516   7.706   6.331 -0.1513 -0.8853  0.2775
27017SOL     OW84455   9.925   0.188   3.704  0.0867  0.0401 -0.1299
27017SOL    HW184456   9.877   0.267   3.678 -0.0719 -0.4141 -1.2297
27017SOL    HW284457   9.886   0.118   3.651  2.3502 -0.2509 -1.4409
27018SOL     OW84458   5.973   3.968   4.344  0.0735 -0.8720  0.3589
27018SOL    HW184459   5.944   3.927   4.425 -0.9754 -2.2981 -0.7202
27018SOL    HW284460   6.022   3.900   4.298  1.1059  0.0784  0.0132
27019SOL     OW84461   7.156   5.577   4.230 -0.3892 -0.3576 -0.6867
27019SOL    HW184462   7.139   5.645   4.295 -0.9547 -1.2349  0.0968
27019SOL    HW284463   7.165   5.497   4.281  0.4710 -0.8424 -1.5870
27020SOL     OW84464   7.434   2.204  10.274  0.1364  0.4772 -0.0694
27020SOL    HW184465   7.524   2.229  10.296  0.8932 -0.0428 -2.4490
27020SOL    HW284466   7.442   2.145  10.199 -2.1933  0.5729 -0.4523
27021SOL     OW84467   8.387   2.866   7.239  0.0897 -0.0956  0.5362
27021SOL    HW184468   8.390   2.773   7.264  2.7191  0.1974  1.4842
27021SOL    HW284469   8.361   2.912   7.319  0.5820  0.1380  0.5634
27022SOL     OW84470   7.119   8.788   8.958  0.1138 -0.5618  0.3802
27022SOL    HW184471   7.200   8.778   8.908 -0.0449 -0.9462  0.1933
27022SOL    HW284472   7.050   8.791   8.892 -0.1127 -1.2387  0.5750
27023SOL     OW84473   8.219   7.870   7.174 -0.2958 -0.5131 -0.1896
27023SOL    HW184474   8.293   7.916   7.134 -0.9568  0.2645 -0.5538
27023SOL    HW284475   8.145   7.889   7.116 -0.8512 -1.0018  0.3488
27024SOL     OW84476   7.009   2.291   0.257  0.4489 -0.1995 -0.2927
27024SOL    HW184477   6.933   2.234   0.266 -0.4566  1.3229  2.3905
27024SOL    HW284478   6.994   2.339   0.176 -0.0922 -1.8593 -1.1778
27025SOL     OW84479   3.821   6.540   7.550  0.3671 -0.4684  0.4027
27025SOL    HW184480   3.826   6.539   7.454 -0.2198  0.0471  0.3638
27025SOL    HW284481   3.802   6.450   7.574  0.2588 -0.5483  0.0234
27026SOL     OW84482   1.838  10.421   1.185  0.3718 -0.4186  0.3161
27026SOL    HW184483   1.891  10.486   1.140 -1.3524  0.2787 -0.7798
27026SOL    HW284484   1.859  10.432   1.278 -0.0432  1.8461  0.1618
27027SOL     OW84485   6.618   2.801   8.794  0.3584 -0.3599  0.4563
27027SOL    HW184486   6.569   2.874   8.754 -0.1657 -0.4890  0.8564
27027SOL    HW284487   6.708   2.832   8.796 -0.1194  0.9913  2.1986
27028SOL     OW84488   9.981   7.473   4.468 -0.7460  0.6477 -0.1771
27028SOL    HW184489   9.946   7.457   4.556 -0.7339 -0.0207 -0.2878
27028SOL    HW284490   9.906   7.503   4.417 -1.1280 -0.5880 -0.3637
27029SOL     OW84491   1.769  10.592   5.670  0.1994 -0.9670 -0.4247
27029SOL    HW184492   1.858  10.622   5.684 -0.5369 -0.0283  2.5584
27029SOL    HW284493   1.731  10.653   5.607  0.8085  0.3043  0.4407
27030SOL     OW84494   5.536   4.542   2.130  0.0411 -0.1168  0.2514
27030SOL    HW184495   5.622   4.503   2.113 -1.3973 -2.3326 -2.1126
27030SOL    HW284496   5.497   4.553   2.043 -1.9623  1.1604  1.2816
27031SOL     OW84497   6.633   5.672  10.961  1.1405  0.0746  0.4454
27031SOL    HW184498   6.689   5.738  10.920  0.0806  0.5108 -0.3264
27031SOL    HW284499   6.587   5.631  10.887 -1.4072  1.4299  1.2116
27032SOL     OW84500  10.141   5.452   3.074  0.7115  0.2142  0.3691
27032SOL    HW184501  10.227   5.494   3.073  1.3223 -1.0172 -1.2062
27032SOL    HW284502  10.083   5.515   3.031  1.3254  0.1043 -0.6634
27033SOL     OW84503  10.254   3.788  10.885  0.2541  0.4902 -0.0226
27033SOL    HW184504  10.287   3.804  10.797 -0.0435  0.1818 -0.1898
27033SOL    HW284505  10.294   3.857  10.939  0.3792  0.7194 -0.4096
27034SOL     OW84506   4.188   7.597   5.181 -0.3259 -0.0587  0.2148
27034SOL    HW184507   4.203   7.503   5.190  2.2479  0.1113 -1.8276
27034SOL    HW284508   4.130   7.606   5.106 -0.9228 -0.0352  0.6774
27035SOL     OW84509   7.309   4.665   7.402  0.1875 -0.8065 -0.1520
27035SOL    HW184510   7.244   4.727   7.434 -0.4189 -1.0885 -0.8295
27035SOL    HW284511   7.267   4.622   7.328  0.7962 -1.6533 -0.0177
27036SOL     OW84512   9.397   3.796  10.164  0.3740 -0.1229  0.2156
27036SOL    HW184513   9.486   3.785  10.196  0.3786  0.1336  0.2973
27036SOL    HW284514   9.357   3.856  10.227  0.4898  0.6857 -0.4602
27037SOL     OW84515   2.539   6.559  10.112 -0.4852 -0.3575 -0.2367
27037SOL    HW184516   2.622   6.522  10.144 -0.2851  0.9861  0.8328
27037SOL    HW284517   2.557   6.653  10.100 -1.8553 -0.0539 -0.0098
27038SOL     OW84518   7.944  10.634  10.027  0.5359 -0.1621  0.0560
27038SOL    HW184519   7.953  10.665  10.117  0.1146  0.7633 -0.2155
27038SOL    HW284520   7.946  10.538  10.034  0.3597 -0.0960  1.0578
27039SOL     OW84521   8.886   0.790   5.521  0.4614  0.2058 -0.4991
27039SOL    HW184522   8.866   0.736   5.445  0.0050 -0.2551 -0.0544
27039SOL    HW284523   8.815   0.854   5.524  0.0199 -0.3065  0.0323
27040SOL     OW84524   0.450   3.846  10.063 -0.5027 -0.3382 -0.3795
27040SOL    HW184525   0.506   3.882   9.994  0.1879 -1.6422 -0.5040
27040SOL    HW284526   0.391   3.918  10.085  0.4536  0.6776 -1.0634
27041SOL     OW84527   3.093   9.149   5.458  0.1392 -0.0384 -0.0528
27041SOL    HW184528   3.064   9.064   5.491  0.6368 -0.2381 -0.1250
27041SOL    HW284529   3.017   9.206   5.469  0.0199 -0.3195  0.6277
27042SOL     OW84530  10.524   0.277   4.747  0.1429 -0.2599  0.2865
27042SOL    HW184531  10.569   0.228   4.678  2.0297  1.6086  0.1227
27042SOL    HW284532  10.431   0.268   4.726  0.6293 -0.6107 -1.8864
27043SOL     OW84533   3.941   4.173   3.937 -0.5537  0.0356 -0.1866
27043SOL    HW184534   3.902   4.162   3.851  0.1792  1.5570 -0.7406
27043SOL    HW284535   3.876   4.224   3.986  0.3649  1.9095 -0.8671
27044SOL     OW84536   4.298   4.623   1.536 -0.7093 -0.6755  0.1187
27044SOL    HW184537   4.337   4.708   1.514 -1.2586 -0.5138 -0.2528
27044SOL    HW284538   4.293   4.577   1.452 -0.6976 -0.9591  0.2726
27045SOL     OW84539   1.733   3.457   3.609  1.0795  0.2081 -0.1062
27045SOL    HW184540   1.657   3.515   3.611  1.6104  0.9738 -1.2556
27045SOL    HW284541   1.703   3.375   3.649 -0.2660  0.5871 -0.3304
27046SOL     OW84542   4.512   4.983   0.772  0.2268  0.2761 -0.5251
27046SOL    HW184543   4.444   5.003   0.836 -0.6549  0.9601 -1.6526
27046SOL    HW284544   4.465   4.970   0.690  1.3821 -0.1133 -1.1428
27047SOL     OW84545   9.318   1.847   2.911  0.5342 -0.2611 -0.2085
27047SOL    HW184546   9.392   1.878   2.964  0.6172 -1.9498  0.7090
27047SOL    HW284547   9.245   1.842   2.972 -0.1196  0.5416 -0.9174
27048SOL     OW84548   9.270   0.973   2.972  0.8032  0.0415  0.3739
27048SOL    HW184549   9.224   0.929   2.901  1.8392 -0.7825  0.1997
27048SOL    HW284550   9.362   0.969   2.946  0.9027  2.4892  0.2555
27049SOL     OW84551   8.711   4.877   5.454  0.0115  0.0853  0.1723
27049SOL    HW184552   8.684   4.785   5.449 -0.6353  0.1294  2.2320
27049SOL    HW284553   8.798   4.874   5.494 -0.5299  0.4236  1.3939
27050SOL     OW84554   6.601   3.084   6.750  0.1381 -0.0685 -0.5799
27050SOL    HW184555   6.683   3.121   6.782  1.7855 -2.0544 -2.3480
27050SOL    HW284556   6.571   3.145   6.683  1.1273 -0.1946 -1.1576
27051SOL     OW84557   6.044   7.897   9.624  0.0104 -0.3747  0.3066
27051SOL    HW184558   5.967   7.883   9.678  0.3307 -0.2787  0.7902
27051SOL    HW284559   6.113   7.845   9.666  0.7844  1.3057  1.1737
27052SOL     OW84560   7.811   5.579   2.130  0.8497 -0.0984 -0.2599
27052SOL    HW184561   7.810   5.507   2.067  1.0592  0.9228 -1.4312
27052SOL    HW284562   7.728   5.571   2.176  0.2612 -0.2490 -1.3378
27053SOL     OW84563   0.816   6.006   1.072 -0.3184  0.1517 -0.3094
27053SOL    HW184564   0.770   5.928   1.102  1.4225 -0.2150  1.5732
27053SOL    HW284565   0.761   6.079   1.099  0.1271 -0.2811  1.8608
27054SOL     OW84566   0.849   3.093   5.984 -0.3600  0.2790 -0.0092
27054SOL    HW184567   0.788   3.040   5.933  1.5357 -0.1376 -1.8870
27054SOL    HW284568   0.925   3.036   5.997 -0.2029  0.8976  2.0418
27055SOL     OW84569   1.056   2.037   2.316  0.2538 -0.1048  0.2036
27055SOL    HW184570   1.122   2.024   2.384  2.6750  0.9602 -1.8867
27055SOL    HW284571   1.037   1.949   2.283 -0.9918 -0.6372  2.2323
27056SOL     OW84572   0.033   2.773   9.522  0.2005 -0.2430  0.4736
27056SOL    HW184573  -0.036   2.709   9.538 -1.6844  1.8917  1.2927
27056SOL    HW284574   0.044   2.775   9.427 -0.0973 -1.3866  0.4193
27057SOL     OW84575   2.122   7.077   6.449 -0.2141  0.0543 -0.2372
27057SOL    HW184576   2.103   6.983   6.449 -1.4991  0.2974  0.0742
27057SOL    HW284577   2.217   7.082   6.445 -0.0844 -1.2767  0.6320
27058SOL     OW84578   0.830   0.210   8.942  0.0502  0.0978 -0.3482
27058SOL    HW184579   0.802   0.118   8.942  0.9126 -0.1749 -0.3254
27058SOL    HW284580   0.826   0.236   8.850  2.4979 -0.8364 -0.7809
27059SOL     OW84581   1.350   7.868  10.133  0.5978  0.3182 -0.0355
27059SOL    HW184582   1.430   7.817  10.118 -0.3460 -1.6291  1.3025
27059SOL    HW284583   1.286   7.803  10.161 -2.0362  1.5564 -3.0227
27060SOL     OW84584  10.605   9.673   5.239 -0.0328 -0.0890  0.1995
27060SOL    HW184585  10.687   9.640   5.277  0.0490 -0.7684 -0.5750
27060SOL    HW284586  10.580   9.745   5.297 -0.5024 -1.8372  2.1992
27061SOL     OW84587   7.475   2.455   0.074  0.0627 -0.1029  0.1880
27061SOL    HW184588   7.450   2.423   0.160 -1.1531  1.3037  0.3857
27061SOL    HW284589   7.498   2.547   0.088  1.2179 -0.2349 -0.7517
27062SOL     OW84590   7.584   5.915   5.680  0.3468 -0.0892 -0.4231
27062SOL    HW184591   7.678   5.896   5.675  0.6229  0.6237  1.3364
27062SOL    HW284592   7.570   5.938   5.772 -2.2763 -3.8986  0.2257
27063SOL     OW84593   0.394   5.849   7.463  0.3916 -0.2233 -0.7099
27063SOL    HW184594   0.487   5.847   7.484  0.4991  0.9553 -1.0227
27063SOL    HW284595   0.385   5.919   7.398 -1.0968  1.6505  1.4084
27064SOL     OW84596   5.132   2.725   5.696  0.6500  0.2368  0.2377
27064SOL    HW184597   5.129   2.656   5.631  2.4139  0.5556 -0.1895
27064SOL    HW284598   5.107   2.804   5.648  0.2639  0.1816  0.3458
27065SOL     OW84599   6.294   3.577   0.928 -0.6139 -0.5037 -0.2920
27065SOL    HW184600   6.230   3.632   0.884 -0.5948  0.8799  1.3266
27065SOL    HW284601   6.255   3.559   1.014  0.6048 -0.6919  0.2313
27066SOL     OW84602  10.109   6.011  10.319 -0.2756 -0.7123 -0.1806
27066SOL    HW184603  10.121   6.098  10.281  0.8239 -0.9909 -0.4867
27066SOL    HW284604  10.103   6.027  10.413 -0.2914 -0.2866 -0.2522
27067SOL     OW84605   1.269   6.934   7.005  0.9205  0.3255 -0.4814
27067SOL    HW184606   1.188   6.983   7.015  1.7694  1.8364 -0.9959
27067SOL    HW284607   1.316   6.977   6.933  2.3773 -0.2600  0.0860
27068SOL     OW84608   8.853   3.532   9.302 -0.2241 -0.3417  0.2687
27068SOL    HW184609   8.887   3.445   9.321  0.0061 -0.1027  0.9508
27068SOL    HW284610   8.862   3.540   9.207  1.3929 -0.3839  0.4011
27069SOL     OW84611   9.357   3.469   7.701 -0.6482  0.2361  0.1719
27069SOL    HW184612   9.334   3.382   7.670 -0.0794 -0.0616  0.5717
27069SOL    HW284613   9.272   3.512   7.716 -1.0269 -1.3134  2.9582
27070SOL     OW84614   7.479   3.497   9.811 -0.2559 -0.3049 -0.0273
27070SOL    HW184615   7.455   3.445   9.887 -1.9323  1.0249  0.3909
27070SOL    HW284616   7.411   3.477   9.746  2.0407 -2.6621 -1.8050
27071SOL     OW84617   6.400   8.269   6.461 -0.5193 -0.1136  0.0585
27071SOL    HW184618   6.472   8.321   6.425 -0.7401 -0.1748 -0.4706
27071SOL    HW284619   6.348   8.332   6.511  0.2233 -0.1815  0.9524
27072SOL     OW84620   4.453   2.510   4.981 -0.2925  0.4834  0.4838
27072SOL    HW184621   4.515   2.438   4.984  0.0731  0.5806 -2.8554
27072SOL    HW284622   4.507   2.589   4.982 -0.3310  0.5788 -1.5260
27073SOL     OW84623   3.265   0.629   8.994  0.5172 -0.1070  0.0413
27073SOL    HW184624   3.347   0.679   8.999 -0.6663  2.0126 -1.2174
27073SOL    HW284625   3.262   0.597   8.904  0.0263 -0.2956  0.1236
27074SOL     OW84626   6.833   2.773   2.101 -0.7459 -0.6689  0.0686
27074SOL    HW184627   6.784   2.719   2.038 -0.6703  0.6063 -1.1070
27074SOL    HW284628   6.924   2.763   2.074 -0.7188 -0.0809 -0.0573
27075SOL     OW84629  10.966   5.656   8.292 -0.1939 -0.0463 -0.8703
27075SOL    HW184630  10.893   5.625   8.238 -0.9373  0.8803 -0.4138
27075SOL    HW284631  10.929   5.661   8.381  0.2849  0.8960 -0.7170
27076SOL     OW84632   8.708   5.495   9.629  0.1895  0.1533 -0.1687
27076SOL    HW184633   8.616   5.490   9.657  0.3190 -0.3342  0.1941
27076SOL    HW284634   8.740   5.576   9.667 -0.4052  0.9094 -1.2702
27077SOL     OW84635  10.145  10.778   9.244  0.6855 -0.3285 -0.4661
27077SOL    HW184636  10.127  10.684   9.232 -1.9015  0.0370  0.1770
27077SOL    HW284637  10.131  10.816   9.157 -2.0323 -0.0469  0.0224
27078SOL     OW84638  10.018   4.652   4.041 -0.8821 -0.0676 -0.0792
27078SOL    HW184639  10.114   4.656   4.051 -0.9945  0.9723  0.6486
27078SOL    HW284640  10.000   4.699   3.960 -0.8443  0.3751  0.1714
27079SOL     OW84641   4.926   0.475   1.756  0.0000  0.4019 -0.5523
27079SOL    HW184642   4.835   0.487   1.727  0.1659  1.1237 -0.7784
27079SOL    HW284643   4.922   0.398   1.813 -0.7433  0.3801 -0.6186
27080SOL     OW84644   0.682   0.157   1.179 -0.0911 -0.2864  0.3296
27080SOL    HW184645   0.639   0.156   1.264 -0.0668 -1.2660  0.3380
27080SOL    HW284646   0.666   0.245   1.145 -1.1541 -0.2831  0.8123
27081SOL     OW84647   0.771  10.829   6.846 -0.5179 -0.6959  0.5464
27081SOL    HW184648   0.736  10.885   6.915 -1.6272 -0.3968 -0.2531
27081SOL    HW284649   0.704  10.761   6.834 -0.6770 -0.3121 -0.7589
27082SOL     OW84650   4.613   2.324   1.463  0.1774 -0.1631 -1.0305
27082SOL    HW184651   4.705   2.303   1.483  0.1186  1.1453  0.7814
27082SOL    HW284652   4.569   2.239   1.465  0.9649 -0.5713  0.3683
27083SOL     OW84653   2.655   4.443   2.188  0.0398  0.0881 -0.3116
27083SOL    HW184654   2.683   4.451   2.279  0.9508 -1.0422 -0.4807
27083SOL    HW284655   2.559   4.439   2.193  0.1821 -3.0629  0.8681
27084SOL     OW84656   7.707   2.294  10.297  0.3315 -0.6589  0.1024
27084SOL    HW184657   7.778   2.290  10.362  0.7892  0.0183 -0.3512
27084SOL    HW284658   7.681   2.386  10.297 -0.0050 -0.7583 -0.3177
27085SOL     OW84659   2.094   0.495   9.658 -0.0730 -0.2136  0.2916
27085SOL    HW184660   2.039   0.572   9.641  0.0786 -0.1461  0.1013
27085SOL    HW284661   2.154   0.492   9.583  1.7464  1.0828  1.6574
27086SOL     OW84662   8.565   6.273   2.536  0.2956 -0.2219 -0.2089
27086SOL    HW184663   8.519   6.334   2.594 -1.1189 -2.1258  0.7644
27086SOL    HW284664   8.539   6.299   2.448 -0.7344  0.2347  0.2211
27087SOL     OW84665   1.071   2.695   9.811 -0.1843  0.6759 -0.2092
27087SOL    HW184666   1.138   2.725   9.871 -0.3689 -0.3401  0.5242
27087SOL    HW284667   1.047   2.772   9.760 -0.2814  1.6286  1.2610
27088SOL     OW84668   9.427   1.670   9.356  0.3032 -0.4555  0.0017
27088SOL    HW184669   9.377   1.673   9.274 -0.5152 -1.1458  0.4607
27088SOL    HW284670   9.361   1.682   9.424  1.0684  0.7474  0.5346
27089SOL     OW84671   4.948  10.465   0.895 -0.1074 -0.8268  0.3164
27089SOL    HW184672   4.905  10.383   0.873  1.0710 -1.1376 -0.9181
27089SOL    HW284673   5.039  10.440   0.911  0.7462  0.5147 -2.1866
27090SOL     OW84674   9.443   0.653   2.611 -0.0762 -0.3922  0.0084
27090SOL    HW184675   9.464   0.587   2.544  0.2682 -0.3023  0.0247
27090SOL    HW284676   9.520   0.655   2.667  0.4883  0.9984 -0.7880
27091SOL     OW84677   5.360   2.598   0.422 -0.1012  0.3614  0.7167
27091SOL    HW184678   5.352   2.614   0.517  0.4081  0.9353  0.6642
27091SOL    HW284679   5.431   2.535   0.414 -0.0955  0.3696  0.7050
27092SOL     OW84680   8.487  10.302   1.255  0.0275 -0.4358 -0.5021
27092SOL    HW184681   8.432  10.352   1.315 -0.5739 -2.6241  0.8419
27092SOL    HW284682   8.428  10.236   1.218  0.6746  0.1559 -2.6351
27093SOL     OW84683   8.458   8.189   2.342  0.0919  0.5185 -0.0347
27093SOL    HW184684   8.502   8.274   2.340  0.1724  0.4964  0.6635
27093SOL    HW284685   8.365   8.210   2.332  0.1429  0.6623 -0.2059
27094SOL     OW84686   8.193   6.232  10.344  0.2432 -0.5781  0.0646
27094SOL    HW184687   8.276   6.248  10.299  0.0426 -1.4566 -0.6153
27094SOL    HW284688   8.144   6.313  10.332  1.6605  0.6325  1.9648
27095SOL     OW84689  10.369   9.959   8.253  0.0142  0.0154 -0.0249
27095SOL    HW184690  10.433   9.966   8.182  1.3746  0.6727  1.2343
27095SOL    HW284691  10.384   9.872   8.291  0.5959  0.4002  0.6497
27096SOL     OW84692   6.766   9.759   5.273 -0.5289 -0.1655  0.0958
27096SOL    HW184693   6.798   9.801   5.352 -0.7986  0.4139 -0.0986
27096SOL    HW284694   6.680   9.726   5.296 -1.0559  0.9219 -0.2457
27097SOL     OW84695   9.452   6.834   4.469 -0.0188 -0.4692  0.3736
27097SOL    HW184696   9.385   6.817   4.535  1.1716  0.9750  1.9832
27097SOL    HW284697   9.406   6.884   4.401 -0.5334  0.7749  1.6078
27098SOL     OW84698  10.158   0.353   9.209  0.3782  0.3491  0.0099
27098SOL    HW184699  10.153   0.433   9.156  2.0199 -0.1269 -0.9164
27098SOL    HW284700  10.082   0.301   9.183  1.3874 -0.0657 -2.2268
27099SOL     OW84701   6.104   9.387   8.057  0.0222 -0.4849  0.4096
27099SOL    HW184702   6.115   9.363   8.149  0.5822  0.3510  0.5672
27099SOL    HW284703   6.180   9.443   8.038  1.2073 -2.6233 -1.2433
27100SOL     OW84704   7.568   1.057   3.676 -0.3797  0.3845  0.3017
27100SOL    HW184705   7.630   0.990   3.649 -0.1274  0.9971 -0.6218
27100SOL    HW284706   7.622   1.131   3.704 -0.6558  1.9809 -3.1208
27101SOL     OW84707   2.242   9.693   3.909 -0.5547 -0.0440  0.1395
27101SOL    HW184708   2.169   9.721   3.964  0.4830 -1.8342  2.4863
27101SOL    HW284709   2.207   9.697   3.820 -2.5519  2.0178  0.9596
27102SOL     OW84710   8.856   3.574   9.042 -0.2606  0.2101 -0.2121
27102SOL    HW184711   8.804   3.498   9.017 -1.4441  1.3886 -1.4925
27102SOL    HW284712   8.796   3.648   9.031  1.8917  1.7110 -2.5973
27103SOL     OW84713   1.884   6.730   7.424  0.3991  0.0923  0.5521
27103SOL    HW184714   1.817   6.666   7.452  1.3805 -0.6949  1.1292
27103SOL    HW284715   1.966   6.681   7.425  0.7168  0.4927 -2.2063
27104SOL     OW84716   3.428   1.546   2.648  1.0553 -0.1325 -0.3839
27104SOL    HW184717   3.442   1.556   2.742 -1.8731  2.1492 -0.1241
27104SOL    HW284718   3.426   1.452   2.634  2.4531 -0.5141  1.6713
27105SOL     OW84719   2.132   5.800   6.829 -0.1372 -0.0420 -0.1413
27105SOL    HW184720   2.122   5.705   6.825 -1.3125  0.0870 -0.3696
27105SOL    HW284721   2.225   5.815   6.814 -0.0155 -1.1305 -0.5115
27106SOL     OW84722  10.499   6.157   4.240 -0.4476  0.3791  0.0414
27106SOL    HW184723  10.439   6.160   4.166  1.2845 -1.1167 -1.4376
27106SOL    HW284724  10.550   6.237   4.233  2.1392 -1.4295 -2.4790
27107SOL     OW84725   5.165   7.339   5.158 -0.8956 -0.5929  0.6839
27107SOL    HW184726   5.244   7.314   5.205 -1.4099 -0.7698  1.4557
27107SOL    HW284727   5.172   7.294   5.074 -0.3446 -0.8759  0.8803
27108SOL     OW84728   3.895   0.971   0.274  0.4413  0.0485  0.0968
27108SOL    HW184729   3.975   0.928   0.245 -0.3419 -2.8389  2.0331
27108SOL    HW284730   3.912   0.995   0.365 -0.4942  0.4190  0.1793
27109SOL     OW84731  10.499   3.728   7.197 -0.5890  0.4149  0.6725
27109SOL    HW184732  10.470   3.670   7.267  0.6004 -1.0816 -0.0353
27109SOL    HW284733  10.420   3.772   7.168 -1.2973  0.1001  2.1083
27110SOL     OW84734   4.159  10.499   9.677  0.4498 -0.1475  0.2675
27110SOL    HW184735   4.183  10.469   9.589  0.9643  1.7266 -0.2411
27110SOL    HW284736   4.115  10.423   9.716  0.5476 -1.1320 -1.4618
27111SOL     OW84737  10.083   8.356  10.539  0.1785 -0.1658  0.7913
27111SOL    HW184738  10.031   8.278  10.516  0.4370 -0.3436  0.8124
27111SOL    HW284739  10.146   8.325  10.603  0.3688  0.0342  0.7010
27112SOL     OW84740   3.555   7.817   3.722  0.5178  0.2807  0.3389
27112SOL    HW184741   3.543   7.729   3.686 -1.4850  0.0499  1.4885
27112SOL    HW284742   3.518   7.812   3.810 -0.3269  2.4755  0.1330
27113SOL     OW84743   1.250   3.644   8.921 -0.2892  0.1256  0.1949
27113SOL    HW184744   1.204   3.574   8.875 -0.4492 -0.6457  1.4894
27113SOL    HW284745   1.186   3.677   8.984 -0.6192  2.2702 -1.2040
27114SOL     OW84746   5.289   4.419   1.097 -0.3878 -0.0190 -0.0205
27114SOL    HW184747   5.293   4.334   1.142  1.0214 -1.1527 -2.2184
27114SOL    HW284748   5.204   4.419   1.054 -0.1200 -0.5962 -0.5492
27115SOL     OW84749   4.482  10.958  10.055  0.3848 -0.4173  0.1572
27115SOL    HW184750   4.558  10.901  10.046 -1.2377 -2.5370 -0.7614
27115SOL    HW284751   4.455  10.947  10.146  1.0900  0.2480  0.4522
27116SOL     OW84752   5.267   4.074   3.641 -0.1048 -0.1552 -0.2215
27116SOL    HW184753   5.259   4.160   3.598 -0.0765 -0.1796 -0.2758
27116SOL    HW284754   5.347   4.081   3.693 -0.5992  0.1729  0.5025
27117SOL     OW84755   2.747   5.404   3.880  0.1681 -0.1252 -0.1960
27117SOL    HW184756   2.751   5.308   3.874 -1.0957 -0.0387 -2.9502
27117SOL    HW284757   2.656   5.423   3.902 -0.1648  0.5045 -2.0045
27118SOL     OW84758   0.151   9.655   8.483 -0.0087 -0.3445 -0.1394
27118SOL    HW184759   0.123   9.657   8.575  1.9109  0.1376  0.4643
27118SOL    HW284760   0.139   9.745   8.453  0.4793 -0.2323 -0.0032
27119SOL     OW84761   5.907   3.399   3.414 -0.3427 -0.0659  0.1140
27119SOL    HW184762   5.875   3.345   3.342 -0.8000  0.0857  0.1982
27119SOL    HW284763   5.988   3.438   3.381  0.2184 -1.1337  0.2062
27120SOL     OW84764   4.019   9.467   4.339 -0.1372 -0.0363  0.7303
27120SOL    HW184765   3.988   9.516   4.263  1.2666  1.4170  1.0783
27120SOL    HW284766   3.968   9.386   4.338 -1.5888  0.8783 -0.5744
27121SOL     OW84767   2.153   9.159   3.301 -0.0291  0.0753 -0.3466
27121SOL    HW184768   2.123   9.209   3.225  0.8470  2.6580  0.9528
27121SOL    HW284769   2.239   9.195   3.321  0.4212 -1.6528  0.9208
27122SOL     OW84770   5.042   6.807   3.119 -0.2790  0.1085 -0.2933
27122SOL    HW184771   5.100   6.809   3.043 -0.8946 -2.2871 -0.8698
27122SOL    HW284772   5.098   6.777   3.191  0.1178  1.6245  0.0465
27123SOL     OW84773   8.814  10.917   5.839 -0.2318  0.1339 -0.1129
27123SOL    HW184774   8.870  10.995   5.840 -0.9624  0.6814 -1.6049
27123SOL    HW284775   8.751  10.932   5.909  0.1785  0.4694  0.1901
27124SOL     OW84776   9.606   5.046   5.496  0.5478 -0.5317  0.3518
27124SOL    HW184777   9.599   4.955   5.464 -1.4107 -0.4008  0.3226
27124SOL    HW284778   9.688   5.078   5.458 -0.4561 -1.1896 -2.5337
27125SOL     OW84779   6.123   4.830   6.668  0.5291  0.1745 -0.3604
27125SOL    HW184780   6.038   4.788   6.679 -0.1088  1.0403 -1.8925
27125SOL    HW284781   6.168   4.780   6.600  0.3744  1.0228 -1.1005
27126SOL     OW84782   7.543   1.108   4.479  0.1140 -0.4365  0.6265
27126SOL    HW184783   7.581   1.020   4.481 -0.5636 -0.7622 -0.3347
27126SOL    HW284784   7.454   1.094   4.447  0.0392  0.6160  0.3813
27127SOL     OW84785   9.939   1.025   4.888 -0.0491  0.2380 -0.2626
27127SOL    HW184786   9.864   0.966   4.883 -0.3374  0.6462 -0.8171
27127SOL    HW284787   9.978   1.007   4.973 -0.9042  0.1733  0.1206
27128SOL     OW84788   6.723   5.392   1.527  0.1461  0.2078 -0.2202
27128SOL    HW184789   6.816   5.399   1.505  0.1316 -0.7829 -0.6664
27128SOL    HW284790   6.721   5.345   1.610  0.0138 -0.8343 -0.7991
27129SOL     OW84791   6.304   7.989   4.550 -0.3067 -0.3921 -0.3730
27129SOL    HW184792   6.360   7.935   4.495  1.3459  0.0689  0.8237
27129SOL    HW284793   6.273   7.930   4.619 -1.1914 -0.6122 -0.9533
27130SOL     OW84794  10.133   5.999   4.223 -0.2919 -0.3389  0.0418
27130SOL    HW184795  10.133   6.025   4.131  0.9406 -0.2921  0.0559
27130SOL    HW284796  10.053   6.037   4.259  0.7834  2.2772 -0.2566
27131SOL     OW84797   3.738  10.887   1.447  0.2650  0.1217 -0.0899
27131SOL    HW184798   3.705  10.866   1.360  0.7362  1.4975 -0.6209
27131SOL    HW284799   3.822  10.841   1.451  0.0614 -0.2688 -0.2035
27132SOL     OW84800   7.826   1.475   7.966 -0.5259  0.1362  0.5822
27132SOL    HW184801   7.868   1.443   8.045 -0.7655 -0.6653  0.3870
27132SOL    HW284802   7.749   1.419   7.955 -0.7182  0.5073  0.0126
27133SOL     OW84803   3.678   3.413   9.228  0.1748  0.3935 -0.2822
27133SOL    HW184804   3.698   3.432   9.320 -0.0580 -1.5783  0.1988
27133SOL    HW284805   3.645   3.323   9.229  1.5381 -0.1655 -2.4717
27134SOL     OW84806   5.353   1.301   0.195  0.0315 -0.1304 -0.5414
27134SOL    HW184807   5.435   1.252   0.201  0.4886  0.7786  0.8618
27134SOL    HW284808   5.285   1.236   0.212  0.6546 -0.2063  1.7358
27135SOL     OW84809   7.048   8.489   6.821  0.1900  0.0643  0.5877
27135SOL    HW184810   7.093   8.410   6.791  0.3837  0.2524  0.3787
27135SOL    HW284811   6.983   8.458   6.884  0.8805 -0.1725  1.1882
27136SOL     OW84812   1.935   7.397   0.418 -0.0914 -0.3405  0.5371
27136SOL    HW184813   1.894   7.401   0.505 -2.7782 -2.3425 -0.5453
27136SOL    HW284814   1.981   7.313   0.417  2.3622  0.9438  0.9705
27137SOL     OW84815   4.373   2.787   0.003  0.3012 -0.0200  0.5014
27137SOL    HW184816   4.450   2.758  -0.046 -0.9065 -1.2779 -0.7201
27137SOL    HW284817   4.348   2.710   0.055 -1.7429 -0.5673 -1.2298
27138SOL     OW84818  10.930  10.777   8.907 -0.0162 -0.2300 -0.0499
27138SOL    HW184819  11.009  10.830   8.900 -0.4704  0.3811 -0.4698
27138SOL    HW284820  10.904  10.785   8.999  0.1301 -0.0528 -0.0242
27139SOL     OW84821   0.787   7.227   0.672  0.4053  0.0287  0.6714
27139SOL    HW184822   0.842   7.241   0.748  0.1696 -0.8675  1.0120
27139SOL    HW284823   0.726   7.159   0.698 -0.4979  0.6036  0.1045
27140SOL     OW84824  10.948   4.165   3.898  0.2603 -0.3740  0.2885
27140SOL    HW184825  10.868   4.113   3.889  0.3254 -0.2583 -1.1021
27140SOL    HW284826  10.965   4.198   3.810  1.0563  0.7789  0.8606
27141SOL     OW84827   2.322   7.945   9.895  0.4284 -0.3394 -0.0144
27141SOL    HW184828   2.393   7.881   9.908 -0.1540 -0.8291  0.8114
27141SOL    HW284829   2.313   7.952   9.800  0.5985 -1.3855 -0.1169
27142SOL     OW84830   1.975   7.034   9.069 -0.2261 -0.1587 -0.0022
27142SOL    HW184831   2.067   7.010   9.081 -0.4130 -0.9193 -0.0721
27142SOL    HW284832   1.969   7.124   9.101  0.3708 -0.3908  0.7737
27143SOL     OW84833   5.407   3.942   6.562  0.2977  0.5334  0.7699
27143SOL    HW184834   5.402   3.956   6.468 -1.2562 -0.9926  0.6126
27143SOL    HW284835   5.318   3.918   6.588  1.5619 -3.2215  1.9208
27144SOL     OW84836   7.374   9.052  10.728  0.4292  0.1154  0.1746
27144SOL    HW184837   7.457   9.085  10.695  0.0686 -0.9702 -1.8580
27144SOL    HW284838   7.398   8.976  10.781  0.7736  0.1653  0.0938
27145SOL     OW84839   1.746   3.328   2.789  0.2692 -0.6518 -0.9863
27145SOL    HW184840   1.831   3.359   2.820 -0.3027  0.5290 -0.5861
27145SOL    HW284841   1.746   3.235   2.811  0.2297 -0.0300  1.8344
27146SOL     OW84842   1.512   4.042   1.814 -0.1561  0.4619  0.0419
27146SOL    HW184843   1.597   4.058   1.854 -0.0923 -0.2389  0.2041
27146SOL    HW284844   1.458   4.116   1.841 -0.0787  0.0605  1.3354
27147SOL     OW84845   1.243   0.575   4.180  0.4523 -0.0938 -0.1555
27147SOL    HW184846   1.242   0.484   4.148 -0.9790 -0.2385  0.2385
27147SOL    HW284847   1.155   0.608   4.160  0.2750  0.5364  1.5591
27148SOL     OW84848   5.547   5.867   6.443  0.0850 -0.2237  0.0243
27148SOL    HW184849   5.538   5.780   6.484  0.0003 -0.1002  0.2729
27148SOL    HW284850   5.641   5.878   6.430  0.0713 -0.4826 -0.2926
27149SOL     OW84851   6.150   3.510   1.196  0.0623 -0.1195  0.6647
27149SOL    HW184852   6.239   3.484   1.220  0.9860  2.6853  0.3680
27149SOL    HW284853   6.119   3.440   1.138  2.7086 -0.2577 -0.6304
27150SOL     OW84854   8.386   1.190   7.735  0.3301  0.2963 -0.2598
27150SOL    HW184855   8.324   1.251   7.775 -0.0896 -0.3064  0.0088
27150SOL    HW284856   8.406   1.127   7.804  0.4311 -0.1213 -0.6658
27151SOL     OW84857   5.194   2.190   2.629  0.5446  0.1923  0.2411
27151SOL    HW184858   5.275   2.219   2.587  0.4591  0.0075 -0.0491
27151SOL    HW284859   5.154   2.130   2.567 -0.2752  0.9892 -0.0159
27152SOL     OW84860   4.790   3.509  10.394 -0.0809 -0.6762 -0.0589
27152SOL    HW184861   4.867   3.500  10.450 -0.3439 -1.3898  0.1805
27152SOL    HW284862   4.826   3.518  10.305  0.2867 -0.6541  0.0912
27153SOL     OW84863   5.782  10.579   4.711 -0.9316 -0.2365 -0.4258
27153SOL    HW184864   5.693  10.593   4.742 -0.7036  0.6116 -0.1393
27153SOL    HW284865   5.820  10.518   4.774 -1.3870 -0.8158 -0.7017
27154SOL     OW84866   9.819   7.733   8.115 -0.7342  0.9782 -0.3897
27154SOL    HW184867   9.797   7.826   8.108  1.4415  1.5465 -0.1844
27154SOL    HW284868   9.914   7.731   8.102 -0.3481 -0.8931  2.3214
27155SOL     OW84869   2.218   5.576   9.188  0.0036 -0.1103 -0.4733
27155SOL    HW184870   2.168   5.540   9.261 -0.9612  0.8222 -0.6612
27155SOL    HW284871   2.284   5.632   9.230 -0.4160  0.2628 -0.3083
27156SOL     OW84872   1.103   0.826   4.799 -0.1109 -0.0849  0.5624
27156SOL    HW184873   1.196   0.815   4.778 -0.5043  0.2979 -1.4621
27156SOL    HW284874   1.057   0.788   4.725 -1.6122 -1.1620  2.0106
27157SOL     OW84875   1.601   0.968   3.085  0.0917 -0.4097 -0.6898
27157SOL    HW184876   1.669   0.902   3.084  1.3684  0.8959 -1.6285
27157SOL    HW284877   1.580   0.983   2.993 -1.3162 -0.6496 -0.4195
27158SOL     OW84878  10.040   3.706  10.617  0.4306  0.0121  0.3284
27158SOL    HW184879   9.968   3.740  10.564 -0.0765 -1.7422 -0.1545
27158SOL    HW284880  10.108   3.683  10.554  0.6179 -0.2120  0.6093
27159SOL     OW84881   9.339   0.171   0.638 -0.1298  0.3017 -0.2132
27159SOL    HW184882   9.300   0.243   0.687 -0.5293 -0.1705  0.1683
27159SOL    HW284883   9.269   0.138   0.583 -0.0190  0.0412 -0.2004
27160SOL     OW84884   5.687  10.557  10.187 -0.3489 -0.0135  0.3042
27160SOL    HW184885   5.652  10.589  10.270  0.1239  0.5905  0.2707
27160SOL    HW284886   5.610  10.552  10.129 -0.2149  2.6103 -0.1822
27161SOL     OW84887   6.532   4.493   8.109 -0.0999 -0.4283 -0.0024
27161SOL    HW184888   6.602   4.442   8.148 -1.0274 -1.2406  0.6161
27161SOL    HW284889   6.463   4.494   8.176  0.3510  2.6222  0.4966
27162SOL     OW84890   4.692   3.157   9.358 -0.2336  0.6136 -0.0084
27162SOL    HW184891   4.781   3.134   9.332 -0.1149  0.6903  0.3290
27162SOL    HW284892   4.692   3.252   9.364 -0.6873  0.7104 -1.2613
27163SOL     OW84893   9.358   5.647   3.961 -0.0200 -0.4254 -0.6952
27163SOL    HW184894   9.333   5.555   3.946 -1.1143 -0.3463  0.5429
27163SOL    HW284895   9.437   5.642   4.014 -0.7011 -0.6610  0.3135
27164SOL     OW84896   6.263   0.608   2.665 -0.1976 -0.2245 -0.5059
27164SOL    HW184897   6.190   0.573   2.614  0.5535 -1.6577 -0.6150
27164SOL    HW284898   6.328   0.633   2.599  0.4136 -1.2505 -0.2913
27165SOL     OW84899   7.163   4.967   2.485  0.1515 -0.0199 -0.5959
27165SOL    HW184900   7.077   4.999   2.459  0.0615 -0.9368 -1.4650
27165SOL    HW284901   7.176   4.888   2.433  0.8251 -0.7943  0.7039
27166SOL     OW84902   4.152   8.608  10.676  0.1210  0.6804 -0.0495
27166SOL    HW184903   4.201   8.643  10.602 -1.0988  0.7637 -0.8200
27166SOL    HW284904   4.069   8.578  10.639  0.0673 -0.5888  1.0365
27167SOL     OW84905   5.651   3.853   3.265  0.2152  0.1318  0.1228
27167SOL    HW184906   5.723   3.790   3.268 -1.0008 -1.4678 -2.1550
27167SOL    HW284907   5.662   3.899   3.182 -1.1371  0.1610 -0.0536
27168SOL     OW84908   2.967   3.689   6.014 -0.2064  0.3454 -0.0210
27168SOL    HW184909   3.056   3.707   5.983 -0.7390 -0.2235 -1.9820
27168SOL    HW284910   2.975   3.611   6.069  0.6077  0.7055  0.3740
27169SOL     OW84911   7.780   5.853   3.227 -0.0080 -0.3359  0.5689
27169SOL    HW184912   7.872   5.877   3.239  0.8840 -2.6243 -1.2299
27169SOL    HW284913   7.745   5.923   3.172  1.0115 -0.0848  0.2092
27170SOL     OW84914   2.303   6.304  10.655 -0.3146  0.1694  0.3520
27170SOL    HW184915   2.330   6.396  10.664  1.8115 -0.4825  0.9132
27170SOL    HW284916   2.379   6.254  10.684 -1.2522 -1.7936 -0.5052
27171SOL     OW84917  10.524   2.790   6.616  0.2145  0.1380  0.4483
27171SOL    HW184918  10.529   2.745   6.701  0.2181 -2.6630 -0.9666
27171SOL    HW284919  10.566   2.729   6.555 -1.0992  1.4715 -1.8297
27172SOL     OW84920   4.277   5.207  10.918  0.6217 -0.0451 -0.0518
27172SOL    HW184921   4.338   5.281  10.913  0.7924 -0.2887 -2.2517
27172SOL    HW284922   4.279   5.169  10.830 -0.9574 -1.4669  0.5027
27173SOL     OW84923  10.775   0.552   2.664 -0.3649  0.2954  0.4119
27173SOL    HW184924  10.751   0.532   2.574  1.4853  0.2269 -0.0786
27173SOL    HW284925  10.818   0.473   2.696  1.5507  1.3289  0.4217
27174SOL     OW84926   6.974   2.946   6.920 -0.0564  0.7017  0.0204
27174SOL    HW184927   6.923   2.872   6.888  1.7332  0.0120 -1.3039
27174SOL    HW284928   7.021   2.911   6.996 -3.4160  2.0233  2.8270
27175SOL     OW84929   7.812   8.094   1.610 -0.5038 -0.2251 -0.2146
27175SOL    HW184930   7.880   8.026   1.605  0.3186  0.4844  1.0286
27175SOL    HW284931   7.779   8.088   1.700 -1.1422  0.3531 -0.4093
27176SOL     OW84932  10.410   2.846   4.591 -0.1652 -0.2471 -0.1407
27176SOL    HW184933  10.433   2.929   4.633 -1.5370  0.0415  0.0552
27176SOL    HW284934  10.439   2.779   4.653 -1.5653  0.1626  0.9734
27177SOL     OW84935   8.957   4.618   4.710  0.0749 -0.4963  0.2223
27177SOL    HW184936   8.974   4.708   4.739  0.6849 -0.1397 -1.1850
27177SOL    HW284937   8.986   4.617   4.619  0.5571 -2.2730  0.3861
27178SOL     OW84938   3.617  10.664   3.593 -0.3208 -0.0130  0.1248
27178SOL    HW184939   3.660  10.669   3.679 -1.9046 -1.6560  1.0527
27178SOL    HW284940   3.616  10.570   3.573 -0.0101  0.3585 -1.6809
27179SOL     OW84941   0.943   0.762   6.855 -0.0893  0.1734  0.2154
27179SOL    HW184942   0.871   0.700   6.844 -0.8362  0.6987  1.9263
27179SOL    HW284943   0.900   0.844   6.881  1.1679  0.2156  2.3044
27180SOL     OW84944   5.716   8.274   6.275 -0.0382 -0.4864  0.1143
27180SOL    HW184945   5.696   8.225   6.355  0.0841 -0.4421  0.1721
27180SOL    HW284946   5.698   8.365   6.298  0.6550 -0.3942  0.3038
27181SOL     OW84947   6.934   7.340   8.942 -0.2040  0.0674  0.0327
27181SOL    HW184948   6.963   7.374   8.858 -1.1348 -0.7081 -0.6102
27181SOL    HW284949   6.904   7.417   8.991  0.8512  0.5871 -0.1286
27182SOL     OW84950   4.116   5.871   2.054 -0.2511  0.1750  0.5468
27182SOL    HW184951   4.191   5.906   2.006 -0.7654 -0.0378 -0.4164
27182SOL    HW284952   4.130   5.900   2.144  1.1979 -0.2079  0.4598
27183SOL     OW84953   4.037   6.315   1.264 -0.4505  0.6175  0.1925
27183SOL    HW184954   4.126   6.314   1.297 -0.2792  1.5608 -0.2282
27183SOL    HW284955   4.010   6.223   1.264  0.6888  0.2811 -0.1523
27184SOL     OW84956   1.644   9.558   8.467 -0.3277 -0.3716 -0.0213
27184SOL    HW184957   1.698   9.496   8.517  2.6325  1.2241 -1.1270
27184SOL    HW284958   1.585   9.595   8.531  0.0757 -1.9693  1.3124
27185SOL     OW84959  10.301   1.818   9.048  0.3090  0.3033 -0.1762
27185SOL    HW184960  10.274   1.727   9.048  1.9033 -0.2137 -2.1212
27185SOL    HW284961  10.230   1.864   9.093 -2.4466 -1.3740 -2.6063
27186SOL     OW84962   5.535   3.260  10.065 -0.1539 -0.7920 -0.8271
27186SOL    HW184963   5.596   3.219  10.004 -0.2093 -0.5879 -1.0173
27186SOL    HW284964   5.592   3.312  10.122  0.0269 -1.9252  0.0594
27187SOL     OW84965   1.323   2.960   8.554  0.6201  0.4406  0.4910
27187SOL    HW184966   1.357   3.019   8.621 -0.2036  1.4263  0.0540
27187SOL    HW284967   1.235   2.936   8.584  0.3373  0.6987 -0.1115
27188SOL     OW84968  10.090   2.950   7.430 -0.6192  0.4509 -0.1482
27188SOL    HW184969  10.066   3.017   7.365  0.9821  1.1450 -0.0492
27188SOL    HW284970  10.060   2.987   7.513  1.3015  1.6170  0.0595
27189SOL     OW84971   6.550   5.063   0.071  0.0933  0.4706  0.6262
27189SOL    HW184972   6.632   5.106   0.047  0.6851 -0.7025  0.5182
27189SOL    HW284973   6.492   5.077  -0.004  0.9077 -0.5254 -0.1934
27190SOL     OW84974   7.703   3.310   7.586 -0.4271 -0.7545 -0.3371
27190SOL    HW184975   7.695   3.400   7.553 -0.8742 -0.8022 -0.3594
27190SOL    HW284976   7.796   3.289   7.575 -0.6557 -0.9428 -2.0151
27191SOL     OW84977   5.274   6.696   2.845  0.1304  0.0207  0.6433
27191SOL    HW184978   5.343   6.637   2.814 -1.3773 -1.6084  0.3060
27191SOL    HW284979   5.223   6.643   2.906 -1.1953  1.0036  0.4150
27192SOL     OW84980   5.152   2.459   9.221  0.1586  0.1035  0.2618
27192SOL    HW184981   5.195   2.544   9.210 -0.2672  0.0545 -1.9488
27192SOL    HW284982   5.082   2.476   9.285 -0.3600  1.5886 -0.6746
27193SOL     OW84983   1.709   9.167   3.223  0.1971 -0.0338  0.5192
27193SOL    HW184984   1.763   9.236   3.262 -0.9357  1.2173 -0.0773
27193SOL    HW284985   1.694   9.196   3.133 -0.8164 -0.7431  0.4539
27194SOL     OW84986   5.060   8.422   3.155  0.2141  0.2459  0.1561
27194SOL    HW184987   5.057   8.440   3.249  1.2969  2.9426 -0.2785
27194SOL    HW284988   4.969   8.430   3.126  0.1305  1.2082  0.6766
27195SOL     OW84989   2.181   6.680   6.999  0.6149 -0.3845 -0.3104
27195SOL    HW184990   2.220   6.759   6.961  1.5421 -0.1050  1.1707
27195SOL    HW284991   2.255   6.621   7.012  0.3795 -0.3363  1.3559
27196SOL     OW84992   0.017   8.864   4.233 -0.4226  0.1731  0.8762
27196SOL    HW184993   0.041   8.917   4.158 -1.1306 -0.1566  0.4163
27196SOL    HW284994   0.018   8.774   4.201 -2.3406  0.1502  0.8143
27197SOL     OW84995   0.814   7.569   0.674 -0.0950  0.0228 -0.1391
27197SOL    HW184996   0.828   7.563   0.768  1.1540 -3.8045 -0.4836
27197SOL    HW284997   0.897   7.602   0.639 -0.2752  0.6294 -0.0058
27198SOL     OW84998   5.786   4.462   3.855 -0.5146 -0.1053  0.4206
27198SOL    HW184999   5.737   4.544   3.866  1.7268  0.8070  4.9194
27198SOL    HW285000   5.730   4.395   3.895  0.1601  0.2970  2.0970
27199SOL     OW85001  10.346   2.906   9.896 -0.5341  1.1182  0.4490
27199SOL    HW185002  10.334   2.989   9.943 -0.1993  1.0477  0.6547
27199SOL    HW285003  10.329   2.928   9.805 -0.9789  1.2997  0.5691
27200SOL     OW85004   1.466   8.881   4.798 -0.0906  0.3980 -0.4291
27200SOL    HW185005   1.397   8.918   4.742  0.0533 -1.3105 -1.7513
27200SOL    HW285006   1.426   8.876   4.884 -1.2814  0.3947 -0.9708
27201SOL     OW85007   3.680   5.542   2.168  0.2907 -0.3238  0.0552
27201SOL    HW185008   3.616   5.561   2.237  3.2705  1.3395  2.4595
27201SOL    HW285009   3.685   5.624   2.117 -0.7496 -1.0399 -1.2411
27202SOL     OW85010   3.876   6.321   0.467 -0.1742  0.0748  0.5293
27202SOL    HW185011   3.916   6.243   0.504  0.1216  0.2149  0.5053
27202SOL    HW285012   3.833   6.363   0.541 -0.8475 -0.4254  0.4282
27203SOL     OW85013   1.596  10.031  10.782  0.1517 -0.3792  0.0941
27203SOL    HW185014   1.514   9.985  10.800  1.0003 -1.7235  0.6167
27203SOL    HW285015   1.635  10.044  10.868  0.1191  1.0013 -0.0792
27204SOL     OW85016   6.696  10.395   8.635 -0.1783 -0.0319  0.2956
27204SOL    HW185017   6.714  10.322   8.694 -0.2195 -0.1607  0.1483
27204SOL    HW285018   6.775  10.402   8.582 -0.5763 -0.6138 -0.3720
27205SOL     OW85019   3.639   8.885   1.765  0.6697  0.1899 -0.8643
27205SOL    HW185020   3.720   8.906   1.812  0.8504 -0.3420 -0.9342
27205SOL    HW285021   3.667   8.870   1.675  0.8295 -2.1975 -0.4561
27206SOL     OW85022  10.111   3.067   5.109 -0.1217 -0.5738  0.0150
27206SOL    HW185023  10.146   3.120   5.038  0.4321 -1.2468 -0.2226
27206SOL    HW285024  10.168   3.087   5.184 -0.9447  0.4351  0.3866
27207SOL     OW85025   7.055  10.955  10.495  0.3681  0.0954  0.1143
27207SOL    HW185026   7.014  10.895  10.557 -0.9713 -1.4096 -2.1656
27207SOL    HW285027   7.034  10.920  10.409  2.2937  2.0599 -1.2346
27208SOL     OW85028   1.485   8.302   1.286 -0.0811 -0.4159  0.1419
27208SOL    HW185029   1.449   8.279   1.372 -0.1114 -2.3917 -0.3747
27208SOL    HW285030   1.424   8.262   1.224  0.5627  0.0412 -0.7829
27209SOL     OW85031   1.313   5.196   6.590 -0.1172  0.2692 -0.0805
27209SOL    HW185032   1.347   5.116   6.632 -0.1806 -0.1183 -0.7607
27209SOL    HW285033   1.218   5.189   6.598 -0.1409  0.0775 -0.4878
27210SOL     OW85034   1.052   7.346  10.118  0.0948 -0.3274  0.1501
27210SOL    HW185035   1.032   7.360  10.026 -0.6049 -2.1724  0.0114
27210SOL    HW285036   1.048   7.251  10.130 -1.1804 -0.0216  2.3846
27211SOL     OW85037   8.532   8.556   2.704  0.0809  0.0076 -0.5738
27211SOL    HW185038   8.518   8.468   2.740  2.0291 -1.0508 -2.2650
27211SOL    HW285039   8.489   8.615   2.766 -1.7695 -2.1800  0.2849
27212SOL     OW85040   4.189   5.366   0.674  0.2553 -0.2220 -0.3962
27212SOL    HW185041   4.282   5.344   0.670  0.1816 -0.6460  0.1742
27212SOL    HW285042   4.164   5.347   0.764  0.4464  3.2809  0.4829
27213SOL     OW85043   6.209   7.434   7.998  0.0066  0.1346  0.2563
27213SOL    HW185044   6.190   7.521   8.034 -0.8124  0.3794 -0.7270
27213SOL    HW285045   6.233   7.451   7.907  0.5212 -0.6116  0.2563
27214SOL     OW85046   2.825   5.004  10.203  0.0550  0.0742  0.2963
27214SOL    HW185047   2.850   4.934  10.143  2.1090  2.1275 -1.3392
27214SOL    HW285048   2.757   5.053  10.157 -0.2405  0.0946  0.7540
27215SOL     OW85049   4.283   5.987   2.285 -0.1915  0.6085 -0.0188
27215SOL    HW185050   4.350   5.923   2.261 -2.4459 -1.4601 -1.0594
27215SOL    HW285051   4.266   5.969   2.378 -0.4514  0.0069 -0.1754
27216SOL     OW85052   1.347   7.622   8.778  0.0718  0.1771 -0.7088
27216SOL    HW185053   1.295   7.554   8.734  0.8458 -1.1078  0.3137
27216SOL    HW285054   1.396   7.664   8.708 -1.9945  1.1242 -1.6394
27217SOL     OW85055  10.414   2.967   2.716 -0.0133 -0.6897 -0.4141
27217SOL    HW185056  10.465   3.046   2.699  0.5292 -1.1645 -1.0308
27217SOL    HW285057  10.361   2.955   2.637  0.3104 -1.2478 -0.5458
27218SOL     OW85058   4.063   4.730   0.382 -0.7535  0.1282 -0.2437
27218SOL    HW185059   4.012   4.803   0.346  0.5634  1.5075  0.6290
27218SOL    HW285060   4.153   4.762   0.386 -0.0128 -1.8251 -0.5645
27219SOL     OW85061   0.750   7.540   2.561  0.1878  0.2211  0.1233
27219SOL    HW185062   0.706   7.618   2.528  1.3686  1.3061  1.0502
27219SOL    HW285063   0.766   7.559   2.653 -0.2840 -1.4798  0.5667
27220SOL     OW85064   4.017   7.234   9.219 -0.2541  0.2930  0.6304
27220SOL    HW185065   4.010   7.140   9.235  1.5826 -0.3254 -1.9476
27220SOL    HW285066   4.051   7.270   9.301  0.2241 -1.4573  1.2076
27221SOL     OW85067   1.801   7.670   1.396  0.5521  0.6688  0.5372
27221SOL    HW185068   1.841   7.744   1.350 -0.2907  0.6504 -0.2342
27221SOL    HW285069   1.711   7.668   1.366  0.2989 -0.0685  1.3133
27222SOL     OW85070   5.722   2.342   7.551  0.3195  0.3968 -0.0678
27222SOL    HW185071   5.798   2.290   7.576 -0.1276 -0.2885 -0.1148
27222SOL    HW285072   5.680   2.291   7.481  0.3050  1.1950 -0.6528
27223SOL     OW85073  10.400   3.025   4.837  0.2301  0.1042  0.3131
27223SOL    HW185074  10.405   3.113   4.874 -0.6313 -0.0123  0.7247
27223SOL    HW285075  10.395   2.967   4.913 -2.7899 -0.0563  0.0415
27224SOL     OW85076   2.547   6.685   0.868  0.8553  0.4465 -0.3665
27224SOL    HW185077   2.529   6.768   0.912 -0.0669 -0.2000  0.4906
27224SOL    HW285078   2.460   6.651   0.845  1.0460 -1.5948  1.7534
27225SOL     OW85079   6.791   2.567  10.219  0.2235 -0.5887  0.3451
27225SOL    HW185080   6.837   2.590  10.300 -1.3531  0.1840  1.0327
27225SOL    HW285081   6.821   2.478  10.199 -0.1987 -1.2279  2.3823
27226SOL     OW85082   3.399   2.168   1.429 -0.3286 -0.0079  0.5768
27226SOL    HW185083   3.360   2.101   1.372 -2.4502  2.1428 -0.5751
27226SOL    HW285084   3.386   2.135   1.518 -1.5055 -1.0356  0.0289
27227SOL     OW85085   5.000   0.700   7.319 -0.7056  0.1434 -0.5614
27227SOL    HW185086   5.030   0.673   7.232  0.7594 -0.4538  0.1137
27227SOL    HW285087   5.054   0.777   7.339  2.0543 -2.2654  1.6112
27228SOL     OW85088   4.289  10.421   5.199  0.3533  0.1976  0.4487
27228SOL    HW185089   4.294  10.516   5.190  2.5307  0.1099  0.5045
27228SOL    HW285090   4.374  10.389   5.169 -0.4934 -1.7685  0.0746
27229SOL     OW85091   5.794   9.233   6.036  0.8395 -0.3480 -0.2949
27229SOL    HW185092   5.876   9.282   6.048  0.9782 -0.2889 -1.3666
27229SOL    HW285093   5.725   9.296   6.058  1.0272  0.2556 -1.3796
27230SOL     OW85094   1.978   7.319  10.321  0.0073  0.5044 -0.3864
27230SOL    HW185095   2.045   7.303  10.387  0.6136 -0.2115 -1.1657
27230SOL    HW285096   1.908   7.257  10.341 -0.0687  0.6913 -0.0666
27231SOL     OW85097   3.999   2.740   4.616 -0.7614  0.8326  0.0890
27231SOL    HW185098   4.043   2.779   4.691  1.7198  1.5744 -1.6382
27231SOL    HW285099   4.035   2.652   4.611  1.3871  1.7561 -1.8970
27232SOL     OW85100  10.484   6.102   7.910  0.5705  0.0226 -0.2810
27232SOL    HW185101  10.409   6.061   7.954 -0.6230  1.7964 -0.6132
27232SOL    HW285102  10.496   6.052   7.830  0.2759 -0.7957  0.1841
27233SOL     OW85103   5.083   7.640   2.258 -0.0803 -0.0289 -0.1995
27233SOL    HW185104   5.008   7.600   2.215  0.3191  0.1875 -1.1073
27233SOL    HW285105   5.077   7.733   2.236 -1.5597  0.6089  2.7192
27234SOL     OW85106   3.995   6.986   0.160 -0.5622 -0.3944 -0.4491
27234SOL    HW185107   4.003   7.033   0.077 -0.5123 -0.6135 -0.5686
27234SOL    HW285108   3.918   7.024   0.202 -1.2234 -1.0093 -1.0743
27235SOL     OW85109   6.928   1.501   0.373  0.4766  0.0819 -0.5775
27235SOL    HW185110   6.863   1.570   0.379 -0.5421 -0.9624  1.0233
27235SOL    HW285111   7.009   1.542   0.403 -0.2728  0.4257  1.0566
27236SOL     OW85112   8.970   7.574   4.485  0.0910  0.4900 -0.4568
27236SOL    HW185113   8.999   7.514   4.416 -0.6943  0.2600 -0.5927
27236SOL    HW285114   8.875   7.563   4.487  0.2194 -0.4266  1.5184
27237SOL     OW85115   2.407   5.316   8.472 -0.0786 -0.1447 -0.5160
27237SOL    HW185116   2.451   5.374   8.535 -0.6427 -0.3137  0.0373
27237SOL    HW285117   2.452   5.332   8.390  2.2873 -1.6717  0.4272
27238SOL     OW85118   0.719   1.130   8.572 -0.0611  0.4291  0.2226
27238SOL    HW185119   0.768   1.211   8.583  1.4790 -0.4513  0.0530
27238SOL    HW285120   0.780   1.061   8.601 -0.9399 -0.7496 -0.6741
27239SOL     OW85121   6.539   8.426   1.133 -0.4428 -0.2403  0.0526
27239SOL    HW185122   6.544   8.338   1.168 -0.1966  0.5459  2.0759
27239SOL    HW285123   6.527   8.414   1.039 -1.3385 -2.4169  0.4134
27240SOL     OW85124   4.703   7.071   9.939 -0.0121 -0.2990  0.5252
27240SOL    HW185125   4.745   7.002   9.888 -0.2994 -0.5166  0.5772
27240SOL    HW285126   4.774   7.113   9.986  0.3019  0.1222 -0.3185
27241SOL     OW85127  10.701   4.711   0.453  0.4296  0.1227  0.0424
27241SOL    HW185128  10.772   4.706   0.389 -0.5701  0.1050 -1.0829
27241SOL    HW285129  10.730   4.655   0.526  1.9599  0.8473 -0.0038
27242SOL     OW85130   7.572   2.924   9.193 -0.5610 -0.3223 -0.2746
27242SOL    HW185131   7.614   3.007   9.170 -1.8303 -0.0975 -1.8578
27242SOL    HW285132   7.632   2.883   9.255 -0.4609  2.2963  1.4572
27243SOL     OW85133   9.063   8.542   2.283  0.1786  0.2893  0.2901
27243SOL    HW185134   9.141   8.486   2.282 -1.2863 -1.7833 -0.8714
27243SOL    HW285135   9.009   8.506   2.354 -0.8819  0.0662 -0.6224
27244SOL     OW85136   9.069   9.579   9.663 -0.1682  0.4616 -0.1710
27244SOL    HW185137   9.119   9.590   9.744 -2.5251 -0.4528  1.4641
27244SOL    HW285138   9.002   9.647   9.668 -2.7814 -2.0585  0.6344
27245SOL     OW85139   9.470   1.200   3.401  0.0615  0.7008  0.2421
27245SOL    HW185140   9.494   1.240   3.484  1.2903  1.8691 -0.6437
27245SOL    HW285141   9.510   1.113   3.404  2.8306  1.9010 -0.3907
27246SOL     OW85142   4.091  10.903  10.697  0.3758 -0.5626  0.3626
27246SOL    HW185143   4.137  10.831  10.653  0.8292  0.0972 -0.2398
27246SOL    HW285144   4.160  10.952  10.741 -0.0142 -0.8979  1.3595
27247SOL     OW85145   0.546   6.345   3.601  0.1445 -0.0180  0.1229
27247SOL    HW185146   0.455   6.315   3.593  0.6783 -1.2851 -1.7311
27247SOL    HW285147   0.565   6.339   3.695 -1.0870 -1.6191  0.3068
27248SOL     OW85148   7.503   2.286  10.855 -0.1100 -0.3835 -0.6866
27248SOL    HW185149   7.564   2.213  10.869 -1.3085 -1.2547  0.0684
27248SOL    HW285150   7.507   2.337  10.936 -1.1189 -1.0018 -0.2370
27249SOL     OW85151   0.330   8.246   0.452  0.2830  0.4044 -0.0025
27249SOL    HW185152   0.251   8.210   0.411  1.1810  0.5069 -1.9024
27249SOL    HW285153   0.303   8.330   0.488 -0.9977 -0.5747  1.3342
27250SOL     OW85154   5.461   0.908   3.710 -0.1312 -0.0187  1.0014
27250SOL    HW185155   5.461   0.977   3.776 -1.1307  2.0645 -1.1049
27250SOL    HW285156   5.379   0.860   3.726  0.7891 -1.0597  2.7611
27251SOL     OW85157   5.508  10.461   1.152  0.1021  0.5533  0.2491
27251SOL    HW185158   5.445  10.480   1.222 -0.6102 -0.1763 -0.1871
27251SOL    HW285159   5.575  10.407   1.194  0.0946  0.7769  0.5556
27252SOL     OW85160   6.442   5.326   0.460 -0.2158  0.2807 -0.1743
27252SOL    HW185161   6.474   5.414   0.474 -0.8491  0.2228  1.9531
27252SOL    HW285162   6.478   5.275   0.533 -0.2593 -1.1040 -1.0901
27253SOL     OW85163   0.978   0.011   3.153 -0.3640  0.1182  0.1219
27253SOL    HW185164   0.984   0.046   3.242  1.3355  0.0985  0.0270
27253SOL    HW285165   1.057   0.044   3.109  0.3037 -2.2826 -0.5290
27254SOL     OW85166   6.145   0.500   4.241 -0.1810  0.0752  0.6720
27254SOL    HW185167   6.169   0.407   4.233  2.1565  0.4990  2.2033
27254SOL    HW285168   6.215   0.546   4.194 -2.2787  1.0091 -1.6205
27255SOL     OW85169  10.689   9.950   6.270  0.0576  0.5280  0.0115
27255SOL    HW185170  10.629   9.886   6.232 -0.3152  2.1572 -2.2664
27255SOL    HW285171  10.775   9.926   6.236  0.0981  0.5220  0.1138
27256SOL     OW85172   5.406  10.129   5.317  0.1498 -0.7074  0.3936
27256SOL    HW185173   5.448  10.131   5.403 -0.2416  0.1668  0.5733
27256SOL    HW285174   5.322  10.174   5.330  1.0756  1.5344 -0.9331
27257SOL     OW85175  10.229   9.692   2.513  0.2731 -0.3043 -0.3638
27257SOL    HW185176  10.231   9.754   2.439  2.4810  2.0225  1.5442
27257SOL    HW285177  10.139   9.698   2.547 -0.5739 -0.9183 -2.4268
27258SOL     OW85178   5.542   4.950   8.844 -0.3905  0.2066  0.2391
27258SOL    HW185179   5.579   4.903   8.769 -1.8218 -0.0037 -0.3586
27258SOL    HW285180   5.452   4.969   8.818 -0.0777  2.5883  0.7863
27259SOL     OW85181   6.491   5.928   8.671 -0.5928 -0.0719 -0.1471
27259SOL    HW185182   6.560   5.863   8.662  0.4672  0.9754  0.2883
27259SOL    HW285183   6.430   5.890   8.734 -1.1421 -1.5968 -1.5452
27260SOL     OW85184   1.468   3.506   6.398 -0.1459 -0.6153  0.8108
27260SOL    HW185185   1.536   3.541   6.341  0.1157 -1.3382  0.6730
27260SOL    HW285186   1.412   3.581   6.417  0.2642 -0.1780  0.3201
27261SOL     OW85187   9.828   0.907   2.817 -0.0063  0.1294 -0.6599
27261SOL    HW185188   9.894   0.975   2.834  0.5724 -0.4892 -0.3929
27261SOL    HW285189   9.874   0.842   2.764 -0.2021 -0.6382  0.0935
27262SOL     OW85190   3.334   4.061   3.412 -0.4496 -0.2609  0.1121
27262SOL    HW185191   3.338   4.019   3.498  0.1916 -0.2494  0.0905
27262SOL    HW285192   3.419   4.041   3.372 -1.3433 -1.6324 -1.1607
27263SOL     OW85193   4.972   5.195   5.904 -0.0363 -0.5406 -0.4095
27263SOL    HW185194   5.052   5.160   5.944 -0.4011 -2.1598 -1.0734
27263SOL    HW285195   4.947   5.268   5.961  0.1231 -2.0517  1.6345
27264SOL     OW85196   1.623   2.114   8.640  0.1705  0.6398 -0.0062
27264SOL    HW185197   1.695   2.051   8.650  0.2569  0.8612  0.7844
27264SOL    HW285198   1.561   2.090   8.708 -1.1531 -0.4041 -1.5435
27265SOL     OW85199   0.663   5.280  10.931  0.0887  0.2747  0.4095
27265SOL    HW185200   0.634   5.281  11.023  0.3296  2.5481  0.4797
27265SOL    HW285201   0.758   5.275  10.936  0.2162  2.3864  0.3275
27266SOL     OW85202   5.308   7.169   8.825 -0.2464  0.1918  0.1475
27266SOL    HW185203   5.300   7.260   8.852 -1.6303 -0.3872  1.7747
27266SOL    HW285204   5.247   7.121   8.881  0.9577 -1.8376 -0.1935
27267SOL     OW85205   5.919   9.874   5.985  0.1046 -0.6644 -0.4241
27267SOL    HW185206   5.846   9.829   6.029 -1.0378  0.4962 -1.0726
27267SOL    HW285207   5.950   9.937   6.050  2.0666 -2.7030  0.6843
27268SOL     OW85208   3.923   6.841   1.450 -0.8387 -0.3513  0.3248
27268SOL    HW185209   3.927   6.746   1.466 -1.9273  0.1170  3.8281
27268SOL    HW285210   4.013   6.871   1.460 -0.8853 -0.6764  1.9732
27269SOL     OW85211   6.754   5.553   7.810 -0.1511 -0.3862  0.4950
27269SOL    HW185212   6.669   5.519   7.781  0.0338 -0.1354 -0.3511
27269SOL    HW285213   6.748   5.552   7.906 -1.0539 -0.5039  0.4467
27270SOL     OW85214   9.677   7.032   6.546 -0.0669  0.1361 -0.2360
27270SOL    HW185215   9.651   6.946   6.578  0.7505 -0.3234 -0.7902
27270SOL    HW285216   9.772   7.032   6.551 -0.0958  1.3693  0.6613
27271SOL     OW85217   1.802   1.883   8.673 -0.5260  0.3694  0.3152
27271SOL    HW185218   1.770   1.795   8.691 -1.1947 -0.4738 -4.2953
27271SOL    HW285219   1.898   1.873   8.670 -0.6112 -0.2944 -0.4460
27272SOL     OW85220  10.914   4.614   5.431 -0.4521 -0.3667 -0.4366
27272SOL    HW185221  10.927   4.702   5.396 -2.0331 -0.9797 -2.6390
27272SOL    HW285222  10.963   4.557   5.372  1.8152 -0.8840  1.8299
27273SOL     OW85223   9.902   8.704   6.200  0.1629 -0.3502 -0.2050
27273SOL    HW185224   9.861   8.701   6.286  0.2092  0.6087 -0.1441
27273SOL    HW285225   9.833   8.736   6.142  0.6356  0.6783 -0.2124
27274SOL     OW85226   9.640   9.076   9.686  0.4884  0.6698 -0.6014
27274SOL    HW185227   9.635   9.049   9.778 -1.2135  1.3343 -0.4867
27274SOL    HW285228   9.615   8.998   9.636  1.9174  0.1527 -0.5523
27275SOL     OW85229   6.270  10.122   0.150  0.1786 -0.5281 -0.1014
27275SOL    HW185230   6.315  10.038   0.144  3.6248  1.2778 -1.1445
27275SOL    HW285231   6.261  10.151   0.059 -0.7994  0.3165  0.2606
27276SOL     OW85232   0.267   5.884   6.882  0.6885 -0.3613 -0.3403
27276SOL    HW185233   0.285   5.854   6.794 -2.0577 -0.4640 -0.9275
27276SOL    HW285234   0.289   5.811   6.939  0.6471 -0.9835 -1.1291
27277SOL     OW85235   6.512  10.858   8.796  0.3127 -0.5107  0.1479
27277SOL    HW185236   6.578  10.801   8.758  0.7626  0.3995 -0.4343
27277SOL    HW285237   6.521  10.941   8.750 -0.7843 -0.1618  0.5282
27278SOL     OW85238   6.620   1.860   6.490  0.2759  0.0423 -0.3660
27278SOL    HW185239   6.689   1.926   6.499  0.5500 -0.3437  0.3973
27278SOL    HW285240   6.667   1.777   6.485 -0.1895 -0.4581  2.5070
27279SOL     OW85241   5.623   9.253   3.962 -0.0978 -0.0033 -0.2630
27279SOL    HW185242   5.642   9.171   3.917 -0.7905 -0.5490  0.4245
27279SOL    HW285243   5.528   9.254   3.972 -0.0934  0.8936 -0.2850
27280SOL     OW85244   6.252  10.807   2.907  0.2463  0.1732 -0.6066
27280SOL    HW185245   6.191  10.745   2.867 -0.0541  1.2637 -1.8689
27280SOL    HW285246   6.234  10.890   2.863  1.0974  1.0107  0.6048
27281SOL     OW85247   8.360   8.145  10.368  0.1908 -0.8905  0.0132
27281SOL    HW185248   8.444   8.154  10.413  0.8232 -1.3086 -1.0529
27281SOL    HW285249   8.361   8.214  10.302 -0.7085 -0.3064  0.6130
27282SOL     OW85250   0.853   2.222  10.300 -0.0074 -0.0332  0.4120
27282SOL    HW185251   0.916   2.197  10.232 -0.9818 -2.1395  0.2342
27282SOL    HW285252   0.776   2.252  10.250  0.4922  1.6592  0.6251
27283SOL     OW85253   5.171   1.581   7.471 -0.0665  0.1748 -0.0120
27283SOL    HW185254   5.245   1.611   7.523 -0.5351 -0.7702  1.2042
27283SOL    HW285255   5.130   1.512   7.523 -1.5831  0.4238 -0.8300
27284SOL     OW85256   0.399   3.904   5.896 -0.2771  0.5781  0.0597
27284SOL    HW185257   0.379   3.813   5.871 -0.0328  0.1475  1.3844
27284SOL    HW285258   0.484   3.898   5.940  0.0814  1.5638 -0.4784
27285SOL     OW85259  10.330  10.867   4.771 -0.5074  0.1591 -0.1783
27285SOL    HW185260  10.305  10.791   4.825 -1.9318  0.2189 -0.7289
27285SOL    HW285261  10.340  10.831   4.683 -2.1433  0.7717 -0.6287
27286SOL     OW85262   4.835  10.976  10.241 -0.1815 -0.4607  0.2211
27286SOL    HW185263   4.929  10.960  10.231 -0.0233  0.1661  0.6791
27286SOL    HW285264   4.829  11.045  10.307 -0.7931  1.8763 -2.1992
27287SOL     OW85265   7.808   8.262  10.940  0.2592 -0.6349 -0.4018
27287SOL    HW185266   7.825   8.334  11.001 -0.0909 -1.8540  1.1507
27287SOL    HW285267   7.889   8.255  10.888 -0.1874  1.7227 -1.4618
27288SOL     OW85268   0.010   9.207   3.143 -0.2336  0.4098  0.1240
27288SOL    HW185269  -0.009   9.299   3.160  0.3548  0.7948 -1.2735
27288SOL    HW285270   0.046   9.205   3.055  0.2878 -1.0939  0.3489
27289SOL     OW85271   8.107   6.704   9.160  0.1018  0.2401  0.1760
27289SOL    HW185272   8.017   6.673   9.156 -0.2484  1.2324  0.3657
27289SOL    HW285273   8.129   6.703   9.253  0.2895  0.0013  0.1308
27290SOL     OW85274  10.477   3.381   2.850 -0.1909  0.3737  0.2508
27290SOL    HW185275  10.529   3.311   2.812 -2.0219  0.1407 -1.9283
27290SOL    HW285276  10.411   3.401   2.784 -1.5049  2.1580  2.0282
27291SOL     OW85277   6.600   3.010   3.787 -0.0988 -0.2408 -0.1769
27291SOL    HW185278   6.606   3.043   3.877  0.4374  1.7906 -0.9280
27291SOL    HW285279   6.614   2.916   3.795  1.2497  0.0988  1.7167
27292SOL     OW85280   5.165   3.951   3.863  0.3866  0.8457 -0.2714
27292SOL    HW185281   5.158   3.860   3.835 -1.3259  0.3551  1.6090
27292SOL    HW285282   5.187   4.000   3.784 -0.8342 -0.9204 -1.7272
27293SOL     OW85283   6.447   7.072   2.138 -0.5840 -0.2202 -0.0777
27293SOL    HW185284   6.519   7.129   2.108  0.9353 -1.1069  1.7511
27293SOL    HW285285   6.444   7.001   2.074 -0.9264  0.6952 -1.0780
27294SOL     OW85286   1.264   9.383   2.678 -0.6770  0.3424  0.0472
27294SOL    HW185287   1.200   9.355   2.613  0.1146 -0.8295 -0.2416
27294SOL    HW285288   1.306   9.460   2.638  0.0678 -0.5986 -1.0077
27295SOL     OW85289   2.016   9.090   3.723 -0.2212 -0.5334 -0.3176
27295SOL    HW185290   1.956   9.153   3.683  0.5229 -0.6736 -1.6904
27295SOL    HW285291   2.056   9.138   3.795 -1.5635 -0.2686  0.2641
27296SOL     OW85292   4.027   7.767   1.494  0.3047  0.4278  0.0244
27296SOL    HW185293   4.042   7.811   1.410 -0.1478 -0.4211 -0.5088
27296SOL    HW285294   3.961   7.701   1.474  1.0292 -0.5276  0.8108
27297SOL     OW85295   0.272   6.133   8.029  0.1284 -0.1147  0.3179
27297SOL    HW185296   0.265   6.115   8.123  0.7589  1.2920  0.6626
27297SOL    HW285297   0.358   6.099   8.004  0.0115 -0.3812  0.2807
27298SOL     OW85298   8.693   6.284   9.522  0.2221 -0.2590 -0.2493
27298SOL    HW185299   8.610   6.237   9.512 -2.3677  3.8881  0.5571
27298SOL    HW285300   8.713   6.318   9.435  0.4731 -0.2600 -0.1933
27299SOL     OW85301   4.492   4.136   2.310 -0.4149 -0.1170  1.0188
27299SOL    HW185302   4.458   4.145   2.221  0.9069 -1.1611  0.3945
27299SOL    HW285303   4.482   4.223   2.348  1.5965  1.0873 -1.0921
27300SOL     OW85304   8.051   8.882   8.493 -0.0738 -0.3094  0.2420
27300SOL    HW185305   8.000   8.803   8.475 -0.1915  0.2521 -1.9922
27300SOL    HW285306   8.000   8.953   8.453  1.1109  0.6119  0.3278
27301SOL     OW85307   9.561   6.719   1.630  0.5680 -0.1926 -0.2180
27301SOL    HW185308   9.600   6.781   1.569  0.4811  2.7129  2.5115
27301SOL    HW285309   9.467   6.734   1.622  0.5878  0.6850  1.0764
27302SOL     OW85310   4.297   4.396   8.778 -0.5838  0.0795 -0.0230
27302SOL    HW185311   4.296   4.358   8.866 -1.2109  1.3664  0.5428
27302SOL    HW285312   4.214   4.443   8.771 -0.3075  0.4234 -1.1083
27303SOL     OW85313   9.094   1.937   4.502  0.4674 -0.9357 -0.0325
27303SOL    HW185314   9.012   1.904   4.465 -0.2444  0.1589  0.5543
27303SOL    HW285315   9.156   1.935   4.428 -0.3380 -0.8952 -0.7132
27304SOL     OW85316   3.840   4.855   5.511 -0.3462  0.0581 -0.4088
27304SOL    HW185317   3.837   4.771   5.557 -1.8347  0.2840 -0.0528
27304SOL    HW285318   3.857   4.919   5.580  0.6131  0.0648 -0.6525
27305SOL     OW85319   1.515   8.597   6.927  0.1816 -0.2454 -0.8135
27305SOL    HW185320   1.423   8.587   6.904  0.4452 -0.8418 -1.6695
27305SOL    HW285321   1.524   8.552   7.011  0.1200 -2.1603 -1.7863
27306SOL     OW85322   2.171   0.207   2.056  0.4623 -0.4755 -0.1853
27306SOL    HW185323   2.132   0.277   2.004 -1.6827 -0.3583  1.4885
27306SOL    HW285324   2.137   0.126   2.016 -2.5181 -0.3512  1.9314
27307SOL     OW85325   9.120   5.595   4.880 -0.0016  0.2031  0.4258
27307SOL    HW185326   9.144   5.531   4.947 -0.4508 -1.8527 -1.3281
27307SOL    HW285327   9.161   5.676   4.908 -0.4898 -0.5244  3.3782
27308SOL     OW85328   5.472   4.079   9.928 -0.0200 -0.3256 -0.1072
27308SOL    HW185329   5.522   4.028   9.991  0.0049  0.2717  0.3544
27308SOL    HW285330   5.531   4.149   9.901 -1.0054  1.1008  1.3389
27309SOL     OW85331   2.304  10.807   5.124  0.0979 -0.0736  0.1531
27309SOL    HW185332   2.281  10.805   5.032  0.1963  0.5256  0.1113
27309SOL    HW285333   2.356  10.728   5.138  0.7944  0.2580 -0.4969
27310SOL     OW85334  10.866   9.158   4.027 -0.0824  0.4595 -0.6010
27310SOL    HW185335  10.843   9.137   3.936  2.0662  1.7767 -1.4919
27310SOL    HW285336  10.799   9.220   4.055 -0.8128 -0.0253 -1.2511
27311SOL     OW85337  10.478   0.287  10.379 -0.4857 -0.1360 -0.1387
27311SOL    HW185338  10.406   0.301  10.318 -0.4265  1.5436  0.1717
27311SOL    HW285339  10.485   0.369  10.427 -2.3947 -2.2929  4.1323
27312SOL     OW85340   5.502   5.332   6.124  0.3621  0.2669 -0.3563
27312SOL    HW185341   5.440   5.365   6.059 -0.0117  0.6304  0.1812
27312SOL    HW285342   5.588   5.352   6.087  0.1495  0.7356 -0.6048
27313SOL     OW85343   2.860   3.804   9.274 -0.5464 -0.8604  0.1259
27313SOL    HW185344   2.949   3.768   9.278 -0.3520 -0.3687  0.3900
27313SOL    HW285345   2.855   3.846   9.188 -0.2745 -0.2713  0.3938
27314SOL     OW85346   0.710   6.825   1.711  0.0078 -0.0165  0.1118
27314SOL    HW185347   0.705   6.911   1.753 -0.5132 -0.8324  1.7866
27314SOL    HW285348   0.620   6.792   1.712  0.4590 -1.2778  1.0536
27315SOL     OW85349   6.254   7.283   9.584 -0.0105 -0.0113 -0.6077
27315SOL    HW185350   6.312   7.283   9.660 -1.2293 -2.1265  0.3713
27315SOL    HW285351   6.276   7.204   9.535  0.5265  1.1557 -2.2935
27316SOL     OW85352   9.680   2.590   2.540 -0.5816 -0.4059 -0.5352
27316SOL    HW185353   9.747   2.569   2.475  1.3998  2.2251  0.5534
27316SOL    HW285354   9.655   2.505   2.576  1.9854 -1.4939 -1.1574
27317SOL     OW85355   0.023   0.411   2.231  0.0776 -0.4254  0.4048
27317SOL    HW185356  -0.016   0.494   2.258  2.2154  0.9020 -0.4469
27317SOL    HW285357   0.025   0.415   2.135  2.0455 -0.5506  0.4195
27318SOL     OW85358   7.885   8.986   5.233 -0.1918  0.3877 -0.2638
27318SOL    HW185359   7.932   9.028   5.305 -1.1710  0.8309  0.1253
27318SOL    HW285360   7.901   8.892   5.245  1.9539  0.6170 -1.0961
27319SOL     OW85361   3.690   0.554   9.871  0.0032 -0.6803  0.4333
27319SOL    HW185362   3.757   0.486   9.878  0.4725 -0.4431 -1.4140
27319SOL    HW285363   3.643   0.533   9.790 -0.2218  0.8423  0.1514
27320SOL     OW85364   5.015  10.319   1.273  0.2657 -0.1409 -0.2370
27320SOL    HW185365   5.008  10.224   1.270  1.0513 -0.2523  1.0180
27320SOL    HW285366   5.094  10.339   1.223 -1.4670  0.0903 -2.9571
27321SOL     OW85367   1.787   3.684   7.524 -0.2974  0.0553 -0.0778
27321SOL    HW185368   1.855   3.748   7.502 -1.5927  0.8797 -1.7444
27321SOL    HW285369   1.834   3.602   7.534  0.8489  0.4517 -2.0464
27322SOL     OW85370   7.486   1.195   0.431 -0.3358 -0.3964  0.1920
27322SOL    HW185371   7.525   1.202   0.518  2.0320 -0.2381 -0.8519
27322SOL    HW285372   7.500   1.281   0.391 -1.7262 -0.3554 -0.2467
27323SOL     OW85373   7.882  10.023  10.849 -0.1055 -0.1341 -0.0747
27323SOL    HW185374   7.876  10.037  10.944 -0.3808 -0.5905 -0.0258
27323SOL    HW285375   7.832   9.943  10.833 -0.6960  0.3421 -0.6995
27324SOL     OW85376   7.311   3.492   2.652  0.1711  0.5854 -0.5979
27324SOL    HW185377   7.246   3.520   2.717 -1.0063 -1.5046 -0.8274
27324SOL    HW285378   7.264   3.494   2.569  1.2589  1.8650 -1.1907
27325SOL     OW85379   1.495   8.953   9.931 -0.3221 -0.3604 -0.3169
27325SOL    HW185380   1.497   8.894  10.007 -2.2815 -0.5788 -0.4024
27325SOL    HW285381   1.439   8.908   9.868  2.3693 -0.8158 -2.4632
27326SOL     OW85382   7.072  10.202   9.542  0.5278  0.2665 -0.1216
27326SOL    HW185383   7.091  10.118   9.583 -0.2574  0.1909  0.0995
27326SOL    HW285384   7.055  10.262   9.615  1.5189  0.7288 -0.2628
27327SOL     OW85385   8.596   6.683   0.274  0.8071  0.4461  0.4154
27327SOL    HW185386   8.664   6.675   0.341  1.2911 -0.5540 -0.1796
27327SOL    HW285387   8.515   6.697   0.323  0.9720 -1.4671  1.2845
27328SOL     OW85388   0.526   2.431   4.343  0.2127  0.6307 -0.0911
27328SOL    HW185389   0.563   2.379   4.415 -1.2684 -0.7328 -0.2961
27328SOL    HW285390   0.564   2.393   4.264 -0.1475  0.4699 -0.1868
27329SOL     OW85391   5.931   4.685   9.392 -0.2144  0.1952  0.3597
27329SOL    HW185392   5.964   4.721   9.474 -0.3575 -0.5349  0.7380
27329SOL    HW285393   5.984   4.607   9.376  1.4094  1.5949 -1.4606
27330SOL     OW85394   2.382   3.518   0.256  0.8015  0.1662 -0.3053
27330SOL    HW185395   2.398   3.613   0.253 -0.2344  0.3136 -1.4175
27330SOL    HW285396   2.308   3.504   0.196 -0.4141 -1.0755  1.4536
27331SOL     OW85397   3.563   6.410   2.953  0.1398 -0.2643  0.0683
27331SOL    HW185398   3.630   6.478   2.960 -0.3231  0.4807 -2.0554
27331SOL    HW285399   3.485   6.449   2.992  0.9949 -1.2866  2.9242
27332SOL     OW85400   6.846   3.549   2.930  0.0405  0.4985 -0.0697
27332SOL    HW185401   6.897   3.473   2.902  0.9745  1.0477  0.1253
27332SOL    HW285402   6.810   3.585   2.849  1.1661  0.9594 -0.3789
27333SOL     OW85403  10.599   7.756   6.353 -0.0274 -0.2974  0.3293
27333SOL    HW185404  10.561   7.688   6.298  0.9211 -0.6173  0.0595
27333SOL    HW285405  10.688   7.766   6.321  0.0525  0.5972  0.8107
27334SOL     OW85406   4.651  10.168   5.984  0.0216 -0.6759 -0.7632
27334SOL    HW185407   4.641  10.147   5.891 -0.8134 -0.9188 -0.6180
27334SOL    HW285408   4.720  10.235   5.986 -1.2212  0.6661 -1.7143
27335SOL     OW85409   4.537  10.959   3.571  0.3391  0.7749  0.3735
27335SOL    HW185410   4.631  10.947   3.585 -0.1375  1.3201  4.9522
27335SOL    HW285411   4.528  11.052   3.551  0.7034  0.9656  1.0568
27336SOL     OW85412   3.413   2.418   1.323 -0.2120 -0.2109  0.3446
27336SOL    HW185413   3.501   2.439   1.292 -0.8056  2.2309  0.2669
27336SOL    HW285414   3.421   2.327   1.354  1.7163 -0.8673 -1.8747
27337SOL     OW85415   2.642   1.988   1.105 -0.0562 -0.0107 -0.1025
27337SOL    HW185416   2.592   1.942   1.173 -2.1938  0.1968 -1.4850
27337SOL    HW285417   2.685   2.060   1.151 -2.5658  0.9564  0.8173
27338SOL     OW85418   5.631   0.087   0.077 -0.2404  0.5424 -0.0165
27338SOL    HW185419   5.651   0.129   0.160  2.5019  2.8906 -1.7324
27338SOL    HW285420   5.695   0.017   0.070  1.2155  1.9329 -1.1886
27339SOL     OW85421   4.354   1.559   0.341  0.2830 -0.8181 -0.3665
27339SOL    HW185422   4.349   1.475   0.387  0.2053 -2.1140 -2.6715
27339SOL    HW285423   4.441   1.561   0.302  0.2198  0.0943 -0.4808
27340SOL     OW85424   0.124   2.360   6.626 -0.4926  0.2482 -0.6327
27340SOL    HW185425   0.122   2.387   6.534  1.6546 -0.6264 -0.9803
27340SOL    HW285426   0.204   2.400   6.660 -2.3600  2.2662  1.4168
27341SOL     OW85427   8.407   7.364   0.770  0.0179 -0.5473 -0.3519
27341SOL    HW185428   8.330   7.410   0.802  0.3371  0.1486 -0.5576
27341SOL    HW285429   8.435   7.416   0.694  0.8414 -0.6381 -0.1133
27342SOL     OW85430   0.087   8.613   7.562  0.0268 -0.4336 -0.5017
27342SOL    HW185431   0.036   8.607   7.642  0.8646  2.5513  0.3088
27342SOL    HW285432   0.022   8.613   7.492 -0.7348 -2.4955  0.1914
27343SOL     OW85433  10.241   1.115   2.795  0.2116 -0.2372  0.4890
27343SOL    HW185434  10.301   1.105   2.869 -1.2651  0.2407  1.7765
27343SOL    HW285435  10.233   1.210   2.784 -1.1989 -0.2763  1.0765
27344SOL     OW85436   7.305   5.967   6.778  0.1612 -0.3928  0.0346
27344SOL    HW185437   7.339   5.981   6.689  1.9657 -0.7384  0.6317
27344SOL    HW285438   7.319   5.874   6.794 -2.0482 -0.7626 -0.0452
27345SOL     OW85439  10.942   2.565   5.363 -0.1683  0.5058  0.0313
27345SOL    HW185440  10.924   2.659   5.367 -0.8778  0.3399  0.9170
27345SOL    HW285441  10.869   2.528   5.314  1.0077  0.6295 -1.8423
27346SOL     OW85442   6.614   9.421   3.522  0.2813 -0.0847  0.7212
27346SOL    HW185443   6.660   9.375   3.451 -3.3206 -0.2044 -1.6288
27346SOL    HW285444   6.622   9.513   3.500  0.4941 -0.0311  1.0178
27347SOL     OW85445   9.460   2.655   6.821 -0.4204  0.2880  0.3329
27347SOL    HW185446   9.472   2.627   6.730  0.2852 -1.1744  0.8575
27347SOL    HW285447   9.460   2.573   6.871  3.4490  1.2390  2.1189
27348SOL     OW85448   6.053   9.617   7.647 -0.2469  0.3988 -0.0625
27348SOL    HW185449   5.981   9.664   7.603 -1.2095 -0.8539  0.1430
27348SOL    HW285450   6.093   9.683   7.704 -0.6027  1.3754 -0.9283
27349SOL     OW85451   0.899   0.526   1.208 -0.0705  0.0832  0.0383
27349SOL    HW185452   0.949   0.445   1.225  0.4870  0.6199  0.9795
27349SOL    HW285453   0.810   0.495   1.191 -0.7099 -0.5236  4.0273
27350SOL     OW85454   7.372   7.587   9.161 -0.3753 -0.3496 -0.0200
27350SOL    HW185455   7.308   7.562   9.228 -0.2677  0.3376  0.3482
27350SOL    HW285456   7.332   7.561   9.079 -1.1550  0.1049  0.2042
27351SOL     OW85457   0.472   7.959   7.294 -0.3260  0.0267  0.0507
27351SOL    HW185458   0.560   7.939   7.326  0.8800  1.8918 -1.9695
27351SOL    HW285459   0.415   7.895   7.338  2.3313 -2.6907 -0.3199
27352SOL     OW85460   4.215   6.665  10.418  0.0310  1.2816 -0.2878
27352SOL    HW185461   4.121   6.655  10.427 -0.0061  1.3969 -0.5496
27352SOL    HW285462   4.252   6.615  10.492 -0.2361  1.3488 -0.1097
27353SOL     OW85463   6.551   5.324   6.693  0.3529 -0.2280  0.5508
27353SOL    HW185464   6.616   5.377   6.647  1.2664 -2.4325 -0.7511
27353SOL    HW285465   6.467   5.366   6.673  1.2262  1.8161  1.0993
27354SOL     OW85466   3.316   8.278  10.591 -0.5532  0.0269  0.3048
27354SOL    HW185467   3.342   8.369  10.605 -1.3326 -0.0456  2.3494
27354SOL    HW285468   3.399   8.233  10.574 -0.0028  0.8963  0.6150
27355SOL     OW85469   3.927   9.656  10.406  0.0050  0.3120 -0.8854
27355SOL    HW185470   3.928   9.617  10.494  0.0456 -0.7675 -1.3547
27355SOL    HW285471   3.919   9.750  10.422  1.2236  0.2345  0.3139
27356SOL     OW85472   8.461   4.709   7.476 -0.4630  0.0877  0.4482
27356SOL    HW185473   8.385   4.673   7.430 -0.5667  0.6085  0.2018
27356SOL    HW285474   8.465   4.800   7.448  2.1393 -0.6969 -2.0323
27357SOL     OW85475  10.401   3.836   0.656 -0.0730  0.0732 -0.1487
27357SOL    HW185476  10.496   3.840   0.665 -0.0809 -0.4835  0.2266
27357SOL    HW285477  10.370   3.917   0.698  0.1331 -0.6058  1.3527
27358SOL     OW85478   4.204   3.247   9.632 -0.4093 -0.2841 -0.9330
27358SOL    HW185479   4.199   3.329   9.583 -1.5849  0.6539  0.7385
27358SOL    HW285480   4.118   3.236   9.671  0.2596 -1.4202  0.2868
27359SOL     OW85481   4.022   7.081   6.999 -0.6429  0.1472  0.0394
27359SOL    HW185482   3.988   7.005   6.952  0.3733  0.3185 -0.9990
27359SOL    HW285483   4.095   7.047   7.051  0.5276  0.5867 -1.2776
27360SOL     OW85484   9.193   5.743   7.754  0.0628 -0.4101 -0.0239
27360SOL    HW185485   9.259   5.791   7.703  1.2256 -1.3654  0.5637
27360SOL    HW285486   9.244   5.682   7.807 -1.3187 -1.2402  0.3538
27361SOL     OW85487   6.657   4.962   2.090  0.4280 -0.7439 -0.2044
27361SOL    HW185488   6.738   4.998   2.127  0.4283  0.1578 -1.0553
27361SOL    HW285489   6.653   4.873   2.123  0.6790 -0.1203  1.5646
27362SOL     OW85490   8.589   9.295   3.447  0.7615  0.9407  0.0923
27362SOL    HW185491   8.585   9.240   3.525 -0.8870  0.1649 -0.5045
27362SOL    HW285492   8.602   9.234   3.375 -0.0026  1.4168 -0.4607
27363SOL     OW85493   8.153   9.520   8.631 -0.1992  0.5522 -0.5600
27363SOL    HW185494   8.233   9.496   8.678 -1.1022 -0.3193  0.5582
27363SOL    HW285495   8.152   9.463   8.555 -0.2301 -0.0951 -0.0794
27364SOL     OW85496   3.174   3.002   3.148 -0.5262 -0.4537  0.3586
27364SOL    HW185497   3.104   3.026   3.209  0.5555  4.2078 -0.0187
27364SOL    HW285498   3.129   2.982   3.066 -1.5243  1.1755  0.4955
27365SOL     OW85499   8.068   1.572   8.611 -0.2917 -0.2676  0.4294
27365SOL    HW185500   8.135   1.554   8.677 -1.2343  2.0816  2.0900
27365SOL    HW285501   8.106   1.639   8.555 -0.1728 -0.9925 -0.3710
27366SOL     OW85502   7.305   6.290   0.074 -0.2373  0.6116  0.4333
27366SOL    HW185503   7.332   6.210   0.119  1.3332  1.0205  0.2470
27366SOL    HW285504   7.213   6.276   0.053 -0.5214 -0.2974  2.2257
27367SOL     OW85505   6.674   2.870   2.307  0.6051  0.1939 -0.4619
27367SOL    HW185506   6.701   2.830   2.224  1.1747 -0.3577 -0.0143
27367SOL    HW285507   6.715   2.956   2.307  0.1816  0.3977 -0.9838
27368SOL     OW85508   7.778   4.886   0.106  0.0385 -0.0142 -0.1148
27368SOL    HW185509   7.686   4.864   0.123  0.1712  0.2785  1.0585
27368SOL    HW285510   7.812   4.915   0.191  0.0894  3.9655 -1.3636
27369SOL     OW85511   9.084   5.701  10.960 -0.3783  0.2214  0.6255
27369SOL    HW185512   9.063   5.728  10.870 -2.1684 -1.1794  0.5917
27369SOL    HW285513   9.173   5.734  10.974 -0.4549  1.3684 -1.2903
27370SOL     OW85514   6.063   2.687  10.657 -0.3381  0.5599 -0.2496
27370SOL    HW185515   6.115   2.635  10.719 -3.2462 -2.6492 -0.3532
27370SOL    HW285516   6.049   2.629  10.583 -3.0271  1.7744 -0.7274
27371SOL     OW85517   9.150  10.446   8.248 -0.4353 -0.6108 -0.1684
27371SOL    HW185518   9.091  10.440   8.323  1.7963 -0.6382  1.6418
27371SOL    HW285519   9.158  10.540   8.231  0.7073 -0.4804  1.0106
27372SOL     OW85520   6.225   3.941   2.655  0.4478 -0.5105  0.3440
27372SOL    HW185521   6.130   3.932   2.644  0.0574  2.3227  1.0777
27372SOL    HW285522   6.239   3.931   2.749  0.4686  1.9738  0.6468
27373SOL     OW85523  10.682   7.877   2.131 -0.4520 -0.7381 -0.2155
27373SOL    HW185524  10.707   7.785   2.124 -0.9289 -1.0162  1.4885
27373SOL    HW285525  10.607   7.877   2.190 -0.1051  0.8135  0.2521
27374SOL     OW85526   2.004   9.956   3.422 -0.2279 -0.5157  0.7966
27374SOL    HW185527   1.972  10.002   3.499 -0.4642 -0.2355  0.5337
27374SOL    HW285528   2.099   9.957   3.431 -0.2681 -0.8001  1.2642
27375SOL     OW85529   9.930   4.537   5.485 -0.0477  0.2436 -0.0980
27375SOL    HW185530   9.914   4.451   5.524  1.9878 -0.3877 -0.5895
27375SOL    HW285531   9.935   4.520   5.391  2.8718  0.4321 -0.0341
27376SOL     OW85532   6.008  10.365   1.970  0.6163  1.4859  0.5613
27376SOL    HW185533   5.953  10.354   2.047  0.7452 -0.9153  0.3672
27376SOL    HW285534   6.089  10.405   2.003  0.3149  1.3049  1.5127
27377SOL     OW85535   2.550   1.950   6.186 -0.0520 -0.3162  0.0375
27377SOL    HW185536   2.570   2.016   6.252 -0.6474  0.2001 -0.2892
27377SOL    HW285537   2.458   1.967   6.163 -0.0804 -0.9868 -0.3525
27378SOL     OW85538   6.272   0.982  10.082  0.1276 -0.2235  0.5265
27378SOL    HW185539   6.274   0.956   9.990  0.5011 -0.4166  0.5895
27378SOL    HW285540   6.301   1.073  10.081  0.1466 -0.2298  0.4537
27379SOL     OW85541   9.240   9.801   2.752 -0.5993 -0.0748 -0.0354
27379SOL    HW185542   9.293   9.810   2.831  1.4460 -0.1871 -1.3628
27379SOL    HW285543   9.205   9.889   2.737  0.3246  0.3129  0.0771
27380SOL     OW85544   4.174  10.470   2.633  0.3835  0.3488  0.0682
27380SOL    HW185545   4.171  10.451   2.539 -2.5824 -1.1746  0.4104
27380SOL    HW285546   4.131  10.556   2.640 -0.3952 -0.0431  0.1345
27381SOL     OW85547   3.257   5.607   0.585 -0.2055 -0.2634  0.1053
27381SOL    HW185548   3.184   5.582   0.642 -1.1530 -0.3178 -1.1037
27381SOL    HW285549   3.251   5.702   0.579 -0.7507 -0.3425 -0.7256
27382SOL     OW85550   6.963   7.135   5.144  0.0395 -0.3776 -0.1890
27382SOL    HW185551   7.037   7.159   5.200  0.1450 -0.2454 -0.3855
27382SOL    HW285552   6.999   7.135   5.055 -0.6404  1.5621 -0.4991
27383SOL     OW85553   7.634   7.157   3.093 -0.1277  0.4284 -0.2612
27383SOL    HW185554   7.645   7.137   3.000  4.1822  3.7118 -0.5954
27383SOL    HW285555   7.580   7.235   3.094 -0.3720  0.2536 -0.0056
27384SOL     OW85556   5.842  10.382   1.638 -0.8175  0.0888  0.3175
27384SOL    HW185557   5.909  10.313   1.638 -0.5573  0.3380  0.0817
27384SOL    HW285558   5.892  10.463   1.621 -1.0444  0.3998  1.1003
27385SOL     OW85559   1.204   6.933   5.128 -0.1504  0.2054  0.2571
27385SOL    HW185560   1.188   6.841   5.149 -0.0081  0.3403  0.9781
27385SOL    HW285561   1.129   6.979   5.166 -0.6364  0.3000 -0.8186
27386SOL     OW85562  10.248   7.269  10.566 -0.0261  0.1755  0.3428
27386SOL    HW185563  10.285   7.217  10.637  0.5284 -1.5510 -1.1821
27386SOL    HW285564  10.223   7.206  10.499  0.6528  1.8477 -1.5564
27387SOL     OW85565   7.947   7.313   6.732 -0.0944 -0.3736  0.4170
27387SOL    HW185566   7.922   7.282   6.645  1.1921 -0.9058  0.2154
27387SOL    HW285567   7.864   7.328   6.778 -0.7903  0.7787 -1.1993
27388SOL     OW85568   6.439   1.131   9.376  0.2670 -0.2335 -0.8306
27388SOL    HW185569   6.514   1.184   9.401  1.5497 -2.3577 -0.1182
27388SOL    HW285570   6.374   1.148   9.444  0.5023  0.7345 -0.8397
27389SOL     OW85571   4.064   9.873   0.093 -0.1631  0.7998  0.1082
27389SOL    HW185572   4.085   9.925   0.015 -0.7757  0.7560 -0.0934
27389SOL    HW285573   4.147   9.837   0.121 -0.0262  0.2919 -0.9118
27390SOL     OW85574   0.379   8.255   0.890 -0.3366 -0.3284  0.1810
27390SOL    HW185575   0.300   8.279   0.842 -0.3401  0.3582  0.5165
27390SOL    HW285576   0.374   8.160   0.899 -0.6465 -0.3919 -0.6261
27391SOL     OW85577   1.955  10.563   9.833  0.0242  0.0086  0.0768
27391SOL    HW185578   1.886  10.613   9.878  0.6170  2.3401 -1.4923
27391SOL    HW285579   2.033  10.577   9.886  0.3628  1.4172 -0.7783
27392SOL     OW85580   3.066   5.372   2.588 -0.3045 -0.2088  0.5197
27392SOL    HW185581   3.090   5.313   2.660 -0.5278  0.3218  1.0324
27392SOL    HW285582   3.041   5.313   2.516 -3.0295 -0.7986  1.8610
27393SOL     OW85583   3.741   5.589   0.899 -0.1403  0.3863 -0.3928
27393SOL    HW185584   3.813   5.569   0.839 -0.8862 -0.6972 -0.9304
27393SOL    HW285585   3.747   5.522   0.967  0.4142  1.3308  0.5258
27394SOL     OW85586   4.721   1.457  10.394 -0.2903  0.1283  0.3369
27394SOL    HW185587   4.812   1.458  10.424 -0.3180  0.9076  0.4200
27394SOL    HW285588   4.678   1.526  10.445 -0.4586  1.1269 -1.1059
27395SOL     OW85589   7.423   8.436   9.088  0.0266 -0.4104  0.0932
27395SOL    HW185590   7.519   8.433   9.091  0.1086 -0.3184 -1.7928
27395SOL    HW285591   7.397   8.344   9.097  0.1580 -0.2011  3.1710
27396SOL     OW85592   3.204   3.757   8.665  0.2835 -0.4039 -0.2024
27396SOL    HW185593   3.130   3.705   8.632  0.7298 -1.6752  0.7465
27396SOL    HW285594   3.180   3.777   8.755  0.1616  0.9852 -0.5319
27397SOL     OW85595   5.474   5.491   5.103 -0.8652 -0.3174  0.2018
27397SOL    HW185596   5.528   5.412   5.108 -0.0779  0.2330  0.5276
27397SOL    HW285597   5.536   5.563   5.115 -1.6566  0.3322  0.4382
27398SOL     OW85598   7.120   1.271   0.625  1.1922 -0.3585 -0.1002
27398SOL    HW185599   7.025   1.266   0.621  1.0780  0.3768  1.4230
27398SOL    HW285600   7.147   1.280   0.534 -0.1691 -0.9366 -0.5756
27399SOL     OW85601  10.333   6.261   1.124  0.0926 -0.3123  0.2390
27399SOL    HW185602  10.354   6.173   1.093 -1.1960  0.3080 -2.4955
27399SOL    HW285603  10.400   6.317   1.084 -0.4342  0.2450  0.1388
27400SOL     OW85604   3.346   0.960   9.720  0.1270  0.5414 -0.3237
27400SOL    HW185605   3.356   1.053   9.741 -1.6251  0.5554  0.5319
27400SOL    HW285606   3.325   0.919   9.804 -0.8639 -0.3582 -1.0012
27401SOL     OW85607   6.239   8.656  10.364 -0.2168  0.7129 -0.1250
27401SOL    HW185608   6.174   8.689  10.302  1.8947  0.5737 -2.4703
27401SOL    HW285609   6.202   8.574  10.396 -2.7277  2.2946  1.1653
27402SOL     OW85610   5.287   8.038   6.767 -0.1574  0.3725  0.3123
27402SOL    HW185611   5.219   7.971   6.754  0.4699 -0.1783 -0.1467
27402SOL    HW285612   5.288   8.051   6.862 -2.7069  2.2828  0.1298
27403SOL     OW85613   9.515   9.790   9.736 -0.2878  0.2582 -0.3479
27403SOL    HW185614   9.524   9.695   9.743  0.6973  0.2780 -1.2167
27403SOL    HW285615   9.605   9.822   9.725 -0.6612  1.2405 -0.5827
27404SOL     OW85616   7.321   8.516   7.219  0.0025 -0.5745 -0.1237
27404SOL    HW185617   7.253   8.559   7.271 -0.5201 -1.4415 -0.0624
27404SOL    HW285618   7.382   8.585   7.196 -0.0979 -0.0575  1.1102
27405SOL     OW85619   4.804   1.545   2.233 -0.6765 -0.3470 -0.6584
27405SOL    HW185620   4.854   1.611   2.185  0.2731 -0.5689  0.0240
27405SOL    HW285621   4.734   1.595   2.275  0.2907  0.3135  0.2126
27406SOL     OW85622   3.731   2.814   7.915  0.1764 -0.0559  0.0142
27406SOL    HW185623   3.674   2.842   7.986 -0.0019 -0.3840  0.0015
27406SOL    HW285624   3.772   2.895   7.884  0.6713  0.0222  0.8498
27407SOL     OW85625   5.281   9.559   4.414 -0.4002  0.5617  0.6855
27407SOL    HW185626   5.279   9.486   4.352 -0.1416  0.7170  0.4946
27407SOL    HW285627   5.339   9.624   4.373  0.3348  0.3723  1.4135
27408SOL     OW85628   7.722   3.762   4.048 -0.0173  0.4478  0.0700
27408SOL    HW185629   7.647   3.745   3.990 -0.5953 -1.1814  1.2606
27408SOL    HW285630   7.683   3.778   4.134  0.9884  0.0036  0.6112
27409SOL     OW85631   9.617   3.721   3.995  0.1411  0.0707  0.0409
27409SOL    HW185632   9.660   3.705   4.079  1.5283 -1.6403 -0.9788
27409SOL    HW285633   9.673   3.784   3.950  0.3602 -0.3825 -0.3293
27410SOL     OW85634   5.397   5.959   9.109  0.5188  0.4668 -0.5918
27410SOL    HW185635   5.488   5.987   9.104  0.5234  0.2859 -1.6919
27410SOL    HW285636   5.378   5.923   9.022 -0.0023 -1.3830  0.2695
27411SOL     OW85637   7.737   9.956   4.918 -0.0233 -0.4880 -0.1590
27411SOL    HW185638   7.698   9.994   4.839  0.7143 -0.1066 -0.3406
27411SOL    HW285639   7.770   9.871   4.890 -0.3392 -0.6308 -0.1046
27412SOL     OW85640   6.430   1.638   8.366  0.3077  0.9200 -0.0473
27412SOL    HW185641   6.403   1.686   8.444 -0.6232  0.4048 -0.0402
27412SOL    HW285642   6.425   1.546   8.392 -1.7329  0.6769 -1.2389
27413SOL     OW85643   4.196   4.061   7.589  0.0101  0.5370 -0.3253
27413SOL    HW185644   4.274   4.105   7.556  1.1809  0.1086  1.8224
27413SOL    HW285645   4.211   3.968   7.568 -0.6394  0.6292 -1.2600
27414SOL     OW85646  10.233   5.314   4.277  0.1625 -0.0264  0.2235
27414SOL    HW185647  10.242   5.285   4.186  0.3491  1.8209 -0.3692
27414SOL    HW285648  10.176   5.391   4.271  0.9221  0.6425  1.5736
27415SOL     OW85649   8.669   1.072   2.286 -0.7121  0.7440 -0.2822
27415SOL    HW185650   8.738   1.005   2.288 -1.8633 -0.4747 -0.5993
27415SOL    HW285651   8.633   1.066   2.198 -0.5313  2.0985 -0.4491
27416SOL     OW85652   1.844   6.542   9.911 -0.1382 -0.0321 -0.0649
27416SOL    HW185653   1.753   6.554   9.883  0.1479 -0.8846 -1.3816
27416SOL    HW285654   1.858   6.611   9.977 -0.8710  1.9123 -1.8778
27417SOL     OW85655   1.462   6.550   5.391 -0.1066 -0.3673 -0.4705
27417SOL    HW185656   1.449   6.471   5.443  2.8030 -1.3158 -1.0951
27417SOL    HW285657   1.517   6.606   5.446 -2.1743  1.3019 -0.0127
27418SOL     OW85658   0.997   4.381   2.000  0.4156 -0.5621 -0.6527
27418SOL    HW185659   0.988   4.474   2.020 -2.5052 -1.1791  1.1313
27418SOL    HW285660   1.078   4.355   2.044  0.2198  0.7116  0.4846
27419SOL     OW85661   6.486  10.842   5.277 -0.1010 -0.0850 -0.2199
27419SOL    HW185662   6.515  10.902   5.209 -0.1315  0.5768  0.3455
27419SOL    HW285663   6.440  10.772   5.230  0.1521  0.2047 -0.8954
27420SOL     OW85664   2.198   3.093   3.970 -0.3621 -0.1015  0.6962
27420SOL    HW185665   2.279   3.139   3.993 -0.7383  2.3006 -2.4262
27420SOL    HW285666   2.128   3.147   4.005 -0.6968 -1.8698  2.8699
27421SOL     OW85667   7.812   6.728   1.003  0.1015 -0.3907 -0.0457
27421SOL    HW185668   7.746   6.672   0.962 -0.8494  0.8784 -0.2694
27421SOL    HW285669   7.804   6.710   1.096 -0.0314 -0.8048 -0.1350
27422SOL     OW85670   5.121   0.505   4.146  0.0021  0.2088  0.1603
27422SOL    HW185671   5.159   0.459   4.071 -1.5714  0.3755 -0.7638
27422SOL    HW285672   5.183   0.574   4.166  0.2840  0.3684 -1.2185
27423SOL     OW85673   7.091   0.130   5.940 -0.4731  0.0088 -0.2160
27423SOL    HW185674   7.028   0.103   5.873  0.8525 -2.2011 -0.6181
27423SOL    HW285675   7.177   0.114   5.900  0.3541  0.8387  1.1742
27424SOL     OW85676   6.075   1.610   7.700 -0.1465 -0.1845 -0.2891
27424SOL    HW185677   6.055   1.647   7.787  0.1093  1.6604 -1.0003
27424SOL    HW285678   6.155   1.561   7.713  0.0506  0.3281  0.4663
27425SOL     OW85679   2.714   8.750   9.623  0.1356  0.3928 -0.1167
27425SOL    HW185680   2.792   8.703   9.652  0.3432  0.4848 -0.5175
27425SOL    HW285681   2.700   8.817   9.690  0.4361  0.4143 -0.0745
27426SOL     OW85682   7.613   4.756   0.941 -0.1171 -0.8779  0.1418
27426SOL    HW185683   7.572   4.801   1.015 -2.1779  0.1579 -1.5670
27426SOL    HW285684   7.561   4.676   0.931  0.9820 -1.6705  0.5938
27427SOL     OW85685   0.967   8.132   6.859  0.7314  0.3023 -0.4365
27427SOL    HW185686   0.889   8.077   6.858  0.4041  0.7492  0.0750
27427SOL    HW285687   1.040   8.070   6.861  0.4009 -0.1207 -1.2725
27428SOL     OW85688   9.343  10.142   1.455 -0.0432 -0.4841  0.4206
27428SOL    HW185689   9.403  10.070   1.473 -0.4893 -1.4022 -1.6559
27428SOL    HW285690   9.373  10.178   1.372 -2.3290 -0.9418 -0.6249
27429SOL     OW85691   4.446   4.204   8.657  0.4520 -0.2566 -0.5143
27429SOL    HW185692   4.417   4.197   8.566  0.3977  2.2462 -0.7019
27429SOL    HW285693   4.395   4.276   8.693 -0.1167 -1.7576  1.7573
27430SOL     OW85694   2.585   1.354   4.732  0.6400  0.1883 -0.4912
27430SOL    HW185695   2.494   1.356   4.764  1.2827  0.5764  1.4134
27430SOL    HW285696   2.580   1.388   4.643 -0.8542  1.8810  0.1927
27431SOL     OW85697   0.051   2.943   0.719  0.4116  0.4560 -0.2667
27431SOL    HW185698   0.035   2.968   0.629  1.7387  1.8406 -0.1327
27431SOL    HW285699  -0.035   2.946   0.761 -0.2478 -0.4506 -1.5274
27432SOL     OW85700   4.008   0.535  10.285  0.5895  0.6013  0.2043
27432SOL    HW185701   4.103   0.522  10.275  0.3167 -2.0018  0.8342
27432SOL    HW285702   3.986   0.493  10.368 -1.1384  1.1546  0.0486
27433SOL     OW85703   4.466   3.271   5.850 -0.2852 -0.5600  0.0785
27433SOL    HW185704   4.379   3.280   5.813 -0.8480 -1.1450  1.2621
27433SOL    HW285705   4.474   3.344   5.911 -0.5041 -1.3776  1.0844
27434SOL     OW85706   0.833   1.958   6.038  0.7405  0.2048  0.2746
27434SOL    HW185707   0.871   1.967   6.126  1.0181  0.5385  0.1180
27434SOL    HW285708   0.767   2.027   6.034  0.6656  0.1319  0.2526
27435SOL     OW85709   9.646   4.345   2.016  0.0415 -0.0793 -0.1168
27435SOL    HW185710   9.630   4.423   1.962  0.8765  0.2229  0.0692
27435SOL    HW285711   9.721   4.302   1.975  0.2218 -0.2351  0.3716
27436SOL     OW85712   7.492   2.025  10.721 -0.4706  0.0752  0.2525
27436SOL    HW185713   7.493   2.115  10.687 -0.1007 -0.6449 -1.6981
27436SOL    HW285714   7.568   2.022  10.779  1.5286  0.1233 -2.2214
27437SOL     OW85715   4.717   4.951   4.652 -0.0324 -0.4863  0.3858
27437SOL    HW185716   4.720   4.856   4.663  0.8874 -0.6872 -1.3855
27437SOL    HW285717   4.707   4.986   4.741  0.1837 -2.2111  1.1011
27438SOL     OW85718   3.914   4.334   5.898 -0.0689  0.2677  0.4118
27438SOL    HW185719   3.852   4.295   5.837  1.6124 -1.6208 -0.1465
27438SOL    HW285720   3.860   4.372   5.967 -1.8620 -0.4064 -0.6048
27439SOL     OW85721  10.948   4.849   3.257  0.0534  0.3640  0.0014
27439SOL    HW185722  10.880   4.841   3.324  0.7693  0.5098  0.7511
27439SOL    HW285723  11.001   4.924   3.285  0.1900  0.5895 -0.8700
27440SOL     OW85724   6.459   4.068   7.781  0.2679  0.2755 -0.3164
27440SOL    HW185725   6.493   3.987   7.743  0.0241 -0.5282  1.1533
27440SOL    HW285726   6.533   4.129   7.776  0.4291 -0.0009 -1.4957
27441SOL     OW85727  10.677   5.971   4.301 -0.4579 -0.2098  0.0873
27441SOL    HW185728  10.704   6.009   4.385 -3.4616 -2.3606  2.1446
27441SOL    HW285729  10.599   6.021   4.276  0.1996  0.1611 -1.2666
27442SOL     OW85730   5.135   3.234   7.410  0.3861  0.0749  0.2321
27442SOL    HW185731   5.118   3.217   7.317 -1.9735  2.0217  0.2731
27442SOL    HW285732   5.231   3.228   7.418  0.5241 -1.3704 -2.0467
27443SOL     OW85733  10.896   9.813   0.490 -0.1033  0.0679 -0.2187
27443SOL    HW185734  10.822   9.844   0.438 -1.0376 -1.9960 -0.1806
27443SOL    HW285735  10.905   9.878   0.559  0.1113  1.9837 -1.9961
27444SOL     OW85736  10.135   8.178   8.669 -0.0345 -0.0699 -0.1460
27444SOL    HW185737  10.087   8.095   8.681  0.9808 -0.6531 -0.0363
27444SOL    HW285738  10.227   8.154   8.682  0.1219  1.4539  1.9023
27445SOL     OW85739   8.995   6.633   7.770 -0.6566  0.1580 -0.0300
27445SOL    HW185740   8.906   6.645   7.736 -0.7216 -0.0674  0.0592
27445SOL    HW285741   9.001   6.697   7.841 -0.8931 -0.1118  0.2371
27446SOL     OW85742   2.682  10.124   3.338 -0.3721 -0.0415 -0.4171
27446SOL    HW185743   2.720  10.205   3.304 -0.0977 -0.2551 -0.6171
27446SOL    HW285744   2.702  10.127   3.432  2.4469 -1.3951 -0.9239
27447SOL     OW85745   7.968   0.979   0.665  0.7727 -0.0358 -0.7579
27447SOL    HW185746   7.873   0.963   0.661 -0.0920  4.3451 -1.3856
27447SOL    HW285747   7.985   0.994   0.757  0.7360 -0.2641 -0.7138
27448SOL     OW85748   6.044   8.742   9.798  0.1611 -0.7213 -0.1053
27448SOL    HW185749   6.034   8.655   9.760  0.2190 -1.2494  1.0554
27448SOL    HW285750   5.955   8.766   9.826  0.0874 -0.2633 -0.7196
27449SOL     OW85751  10.257   6.161   0.260  0.1177  0.2953 -0.1176
27449SOL    HW185752  10.188   6.133   0.320  0.2444  0.0489 -0.0858
27449SOL    HW285753  10.227   6.130   0.174  0.7172 -0.7800  0.0541
27450SOL     OW85754   8.844   0.114   2.936  0.9237  0.0081 -0.8357
27450SOL    HW185755   8.838   0.150   2.847  1.0745  0.6610 -0.5840
27450SOL    HW285756   8.936   0.123   2.960  0.6377  1.0310 -0.1189
27451SOL     OW85757   9.113   3.122   0.904  0.7104 -0.2718  0.5214
27451SOL    HW185758   9.145   3.202   0.947 -1.2753  0.6002  0.4415
27451SOL    HW285759   9.186   3.060   0.911  1.6951  1.0118  2.0250
27452SOL     OW85760   3.017   7.832   9.586 -0.4976  0.2656  0.4132
27452SOL    HW185761   3.069   7.877   9.653 -0.6651  1.2328 -0.1028
27452SOL    HW285762   2.952   7.896   9.559 -1.8341 -0.8741  0.8882
27453SOL     OW85763   0.665   4.013   4.415 -0.8771  0.4004 -0.0701
27453SOL    HW185764   0.633   4.077   4.352  0.3763  0.8692 -0.2257
27453SOL    HW285765   0.726   3.958   4.365 -1.2461 -0.3545  0.2887
27454SOL     OW85766   4.581   1.692   2.312  0.3782  0.1057 -0.3587
27454SOL    HW185767   4.489   1.669   2.325  0.2733  1.0676  0.6739
27454SOL    HW285768   4.578   1.768   2.253  0.5332 -0.1876 -0.7414
27455SOL     OW85769   2.871   8.019   9.839 -0.9057  0.2505 -0.0082
27455SOL    HW185770   2.897   8.092   9.782  0.1049  0.2177  0.3999
27455SOL    HW285771   2.933   8.023   9.912  1.9438 -3.5877 -2.0437
27456SOL     OW85772   4.501   8.539   3.828  0.1014  0.0610 -0.2494
27456SOL    HW185773   4.552   8.620   3.827  2.3327 -1.3006  0.0648
27456SOL    HW285774   4.477   8.526   3.736 -0.5984  1.2602 -0.2502
27457SOL     OW85775   5.370   1.739   6.678 -0.4510  0.3079  0.1057
27457SOL    HW185776   5.297   1.718   6.736  0.6528 -0.2380  1.3240
27457SOL    HW285777   5.444   1.692   6.715  0.4385  0.5511 -1.3384
27458SOL     OW85778   5.593   2.758   9.324 -0.0449 -0.1527  0.1558
27458SOL    HW185779   5.634   2.813   9.257 -0.8707 -1.4626 -1.4799
27458SOL    HW285780   5.662   2.744   9.389  1.1649  0.1351 -1.0388
27459SOL     OW85781   7.816   6.899  10.810  0.0232 -0.0430 -0.3595
27459SOL    HW185782   7.750   6.833  10.831  0.2064  0.6764  2.6608
27459SOL    HW285783   7.875   6.898  10.885  0.5795  2.8679 -0.7132
27460SOL     OW85784   5.605   5.292   8.319 -0.2745 -0.1068 -0.6564
27460SOL    HW185785   5.579   5.215   8.370 -1.3778  1.6663  1.5236
27460SOL    HW285786   5.524   5.339   8.304  0.5583  1.2519 -0.9449
27461SOL     OW85787   7.304   2.861   1.678 -0.3482 -0.2508 -0.3238
27461SOL    HW185788   7.323   2.942   1.725 -0.2880  0.8541 -2.2344
27461SOL    HW285789   7.327   2.792   1.741  0.6075  1.1727  0.9413
27462SOL     OW85790   5.257   1.407   9.593  0.0308 -0.2391 -0.1326
27462SOL    HW185791   5.183   1.398   9.534  1.3423  0.7558 -2.0141
27462SOL    HW285792   5.285   1.318   9.612 -2.0166 -0.6326  1.1110
27463SOL     OW85793   7.580   2.266   4.648 -0.2826  0.6309 -1.0449
27463SOL    HW185794   7.598   2.208   4.574 -1.0203  1.4289 -1.8577
27463SOL    HW285795   7.626   2.347   4.628  0.1148  0.6080 -0.2693
27464SOL     OW85796   6.401   7.378   3.767  0.6588  0.2394 -0.3925
27464SOL    HW185797   6.420   7.426   3.848 -0.2080  0.8393 -0.5388
27464SOL    HW285798   6.334   7.430   3.723 -1.9376 -2.2045  0.4775
27465SOL     OW85799   7.969   5.803   4.369  0.3615  0.0042 -0.2559
27465SOL    HW185800   8.056   5.817   4.407  0.2758 -1.2646  0.4390
27465SOL    HW285801   7.947   5.886   4.328  1.8406  0.3808 -0.3052
27466SOL     OW85802   0.193   9.431   7.021  0.3284 -0.7175 -0.3439
27466SOL    HW185803   0.120   9.484   7.054  0.6218 -1.3627  1.3947
27466SOL    HW285804   0.160   9.342   7.021  0.2815 -0.7031 -1.9912
27467SOL     OW85805   8.116  10.614   8.897 -0.3842  0.2527  0.8259
27467SOL    HW185806   8.118  10.710   8.902  2.1242  0.2123  1.2873
27467SOL    HW285807   8.065  10.587   8.972 -1.0871  1.2348  0.7145
27468SOL     OW85808   3.172   6.602   1.598 -0.0083  0.0179 -0.4020
27468SOL    HW185809   3.139   6.586   1.686  1.0676 -0.1290 -0.0104
27468SOL    HW285810   3.106   6.657   1.556 -0.6287 -0.1008  0.4224
27469SOL     OW85811  10.817   0.367   7.073 -0.3725 -0.2892 -0.6063
27469SOL    HW185812  10.767   0.427   7.017 -0.3490 -0.0659 -0.3866
27469SOL    HW285813  10.849   0.422   7.145 -2.1648 -0.9917  0.7528
27470SOL     OW85814   1.996   3.297   9.690  0.1417 -0.1620 -0.4011
27470SOL    HW185815   2.072   3.346   9.720  1.5680 -1.4341 -1.7972
27470SOL    HW285816   1.956   3.263   9.770 -0.3323  2.4662  0.5049
27471SOL     OW85817   0.116   0.496   8.459 -0.0633  0.0945 -0.2744
27471SOL    HW185818   0.122   0.529   8.549  2.2690 -1.3684  0.1651
27471SOL    HW285819   0.046   0.431   8.462 -1.3761  1.4835 -0.0274
27472SOL     OW85820   2.585   3.064   3.927  0.5598 -0.6195  0.0921
27472SOL    HW185821   2.667   3.112   3.916  0.1286  0.7907  2.5295
27472SOL    HW285822   2.535   3.117   3.989 -1.6291 -2.1777 -0.2810
27473SOL     OW85823   1.913   2.601   4.632 -0.5466 -0.2933 -0.2903
27473SOL    HW185824   1.976   2.534   4.605 -0.9385 -0.6263 -0.3832
27473SOL    HW285825   1.883   2.572   4.718  0.0859  0.3304  0.1413
27474SOL     OW85826   9.252   9.288   1.250  0.1041  0.1143  0.1795
27474SOL    HW185827   9.165   9.316   1.279  0.7134  0.9252  1.2618
27474SOL    HW285828   9.296   9.369   1.224  1.3528  0.0169  1.9028
27475SOL     OW85829   7.034   2.869  10.916 -0.7960  0.4217 -0.4601
27475SOL    HW185830   7.022   2.908  10.830 -1.3997 -0.0010 -0.5707
27475SOL    HW285831   7.068   2.781  10.898 -2.7484 -0.3774 -0.3469
27476SOL     OW85832   2.833   2.852   9.234 -0.0553  0.2210  0.2738
27476SOL    HW185833   2.759   2.793   9.221  0.4760 -0.3789 -0.0110
27476SOL    HW285834   2.825   2.916   9.162  2.4880 -2.6923 -2.7566
27477SOL     OW85835   0.951   4.014   2.284  0.4242  0.6258 -0.2378
27477SOL    HW185836   0.945   3.979   2.373 -0.3702  0.8957 -0.1813
27477SOL    HW285837   1.008   4.090   2.291 -2.0321  2.4207  0.5948
27478SOL     OW85838   6.045   8.322   0.499 -0.0722  0.2885  0.1520
27478SOL    HW185839   6.130   8.280   0.514 -0.4323 -0.1725  0.9783
27478SOL    HW285840   5.986   8.249   0.479 -0.1216  0.6758 -1.1488
27479SOL     OW85841   5.798   6.920   4.624 -0.5327  0.1209  0.5469
27479SOL    HW185842   5.775   6.969   4.545  0.1880  0.0927  0.3177
27479SOL    HW285843   5.883   6.880   4.604 -1.2127 -1.3959  0.6589
27480SOL     OW85844   5.127   7.798   5.575  0.1487 -0.4296  0.2863
27480SOL    HW185845   5.059   7.732   5.589 -0.7498  0.6150  0.9799
27480SOL    HW285846   5.177   7.766   5.500 -0.2202 -1.9220  0.6692
27481SOL     OW85847   5.402   4.284   7.905 -0.3915  0.8124  0.1217
27481SOL    HW185848   5.369   4.205   7.947  0.2072 -0.4852 -1.8413
27481SOL    HW285849   5.492   4.292   7.936  0.6895 -1.2241 -2.3685
27482SOL     OW85850   4.938  10.263   2.579  0.1136  0.3217  0.4066
27482SOL    HW185851   4.948  10.291   2.670 -0.2684  0.6173  0.3596
27482SOL    HW285852   4.893  10.179   2.584  2.0679 -0.7421  0.5924
27483SOL     OW85853   8.367   8.360   8.798 -0.2213  0.2067  0.3500
27483SOL    HW185854   8.456   8.353   8.835 -0.1122 -1.1092 -0.1507
27483SOL    HW285855   8.342   8.452   8.814  1.5068  0.7871 -0.1353
27484SOL     OW85856   1.769   2.706   8.265 -0.4585 -0.1369 -0.4903
27484SOL    HW185857   1.705   2.688   8.196 -1.0052  0.8102 -0.2459
27484SOL    HW285858   1.760   2.800   8.281  0.4331 -0.1533  0.1127
27485SOL     OW85859   1.306   4.587   2.232 -0.0487 -0.2673 -0.0705
27485SOL    HW185860   1.257   4.650   2.285  0.3416  0.2530 -0.3280
27485SOL    HW285861   1.282   4.608   2.142  1.5570  0.7549 -0.2683
27486SOL     OW85862   9.031   1.739   7.775 -0.1000 -0.4822  0.5988
27486SOL    HW185863   9.083   1.709   7.701  0.8862 -0.3613  1.2286
27486SOL    HW285864   9.063   1.828   7.792 -2.3189  0.5827 -0.6377
27487SOL     OW85865   0.766   2.603   8.252 -0.2374 -0.4450  0.2581
27487SOL    HW185866   0.799   2.551   8.178  0.6367  1.0702 -0.4295
27487SOL    HW285867   0.736   2.537   8.315 -1.7041 -1.7446 -1.7525
27488SOL     OW85868   2.518   8.854   0.658 -0.4770  0.2123  0.0505
27488SOL    HW185869   2.499   8.882   0.747 -0.8506  2.0985 -0.6137
27488SOL    HW285870   2.572   8.775   0.669  1.2843  1.6370  1.9325
27489SOL     OW85871   0.360   6.466   1.672 -0.1206 -0.1278 -0.5538
27489SOL    HW185872   0.405   6.453   1.588  0.6452 -0.1144 -0.1468
27489SOL    HW285873   0.400   6.544   1.709  0.4643 -0.8911  0.4327
27490SOL     OW85874   7.120   9.197   2.740 -0.4246 -0.2827 -0.6542
27490SOL    HW185875   7.194   9.233   2.789 -1.4176 -0.5717  1.0889
27490SOL    HW285876   7.101   9.263   2.674  0.4177  0.4981 -0.1256
27491SOL     OW85877   6.309   3.243  10.114  0.3017  0.1381 -0.3295
27491SOL    HW185878   6.254   3.320  10.098 -2.0425 -1.4602 -0.3169
27491SOL    HW285879   6.270   3.201  10.191  0.6576 -1.7986 -1.1639
27492SOL     OW85880   2.992   2.536   7.020  0.4478 -0.2164 -0.3241
27492SOL    HW185881   2.917   2.520   6.962 -0.3490 -0.5128  0.7754
27492SOL    HW285882   3.035   2.612   6.982 -0.0002 -0.4681 -1.3739
27493SOL     OW85883   1.991   2.402   8.400 -0.0990  0.0825  0.0429
27493SOL    HW185884   1.980   2.308   8.411 -2.7448  0.5395  1.9131
27493SOL    HW285885   2.035   2.431   8.480  0.1399  0.5125 -0.2452
27494SOL     OW85886   6.693   6.937   7.042 -0.5538 -0.4331 -0.2432
27494SOL    HW185887   6.766   6.984   7.082  0.1515 -1.5258 -0.2108
27494SOL    HW285888   6.732   6.854   7.013 -1.8041 -1.0380 -0.1900
27495SOL     OW85889   9.921   7.450   7.874 -0.3284  0.5349 -0.0243
27495SOL    HW185890   9.912   7.487   7.962 -0.6399 -2.6882  1.3656
27495SOL    HW285891   9.831   7.428   7.848 -0.0726  0.0122 -0.4711
27496SOL     OW85892   8.950   9.617   2.334  0.7645 -0.0822 -0.9558
27496SOL    HW185893   9.027   9.622   2.277  2.9568  1.2092  2.0365
27496SOL    HW285894   8.914   9.530   2.317  1.7043  0.0149 -3.7967
27497SOL     OW85895   6.787   2.982   9.000  1.0095  0.0217  0.0754
27497SOL    HW185896   6.869   2.961   8.956  0.1079 -1.2722 -1.0432
27497SOL    HW285897   6.755   2.898   9.033 -0.9126  0.1384 -1.3700
27498SOL     OW85898   5.638  10.360   8.543  0.4079  0.0396  0.2494
27498SOL    HW185899   5.592  10.398   8.468  1.4064  0.5475 -0.1186
27498SOL    HW285900   5.728  10.350   8.513  0.3927 -1.6033  0.7209
27499SOL     OW85901   8.377   1.529  10.181  0.1445  0.6452 -0.3120
27499SOL    HW185902   8.403   1.438  10.193 -2.0389 -0.1430 -1.2763
27499SOL    HW285903   8.397   1.571  10.265  1.1676 -0.6977  0.1326
27500SOL     OW85904   3.179   2.574   8.202 -0.1339 -0.2643 -0.2238
27500SOL    HW185905   3.192   2.483   8.174 -0.5607 -0.2924 -0.3315
27500SOL    HW285906   3.147   2.567   8.292  1.1244 -0.1774  0.2322
27501SOL     OW85907   1.429  10.410   6.759 -0.7441 -0.4284  0.4858
27501SOL    HW185908   1.377  10.354   6.816 -0.5220 -0.4343  0.6789
27501SOL    HW285909   1.396  10.392   6.671 -1.9445  0.4898  0.7319
27502SOL     OW85910   8.906   1.749   4.138 -0.2362 -0.2024  0.4831
27502SOL    HW185911   8.997   1.757   4.109  0.4982 -2.2601  2.1307
27502SOL    HW285912   8.862   1.701   4.067 -0.2066  1.2929 -0.5742
27503SOL     OW85913  10.286   1.475   3.713 -0.4533 -0.0556  0.1026
27503SOL    HW185914  10.200   1.432   3.719 -0.7854  0.2288 -2.1649
27503SOL    HW285915  10.291   1.529   3.792 -2.0763 -0.6001  0.6042
27504SOL     OW85916   8.733   5.565   0.273  0.4035  0.7072  0.0035
27504SOL    HW185917   8.757   5.529   0.187 -0.7414  1.1556 -0.5189
27504SOL    HW285918   8.801   5.630   0.291  1.1739 -0.0627 -0.1307
27505SOL     OW85919   5.670   3.047   9.358  0.4962  0.0908 -0.2177
27505SOL    HW185920   5.666   3.138   9.329 -0.8884 -0.2662 -1.1844
27505SOL    HW285921   5.723   3.002   9.291  1.1140  0.1528  0.2189
27506SOL     OW85922   1.212   2.183   8.712  0.3958  0.1718 -0.3963
27506SOL    HW185923   1.173   2.270   8.709 -0.7210 -0.2427  1.3453
27506SOL    HW285924   1.306   2.200   8.716  0.1757  1.3234  0.3969
27507SOL     OW85925   6.958   7.502   0.723 -0.8170 -0.5532  0.2891
27507SOL    HW185926   6.914   7.533   0.644 -0.8202  0.1548  0.5658
27507SOL    HW285927   6.947   7.574   0.786  0.1184 -0.6700  0.5883
27508SOL     OW85928   5.866   2.785   2.271 -0.4376 -0.1110 -0.1804
27508SOL    HW185929   5.885   2.691   2.261  0.5264 -0.0414  0.8857
27508SOL    HW285930   5.852   2.796   2.365  3.3860  1.5163  0.2957
27509SOL     OW85931   0.689   0.593   4.999 -0.0482  0.6387  0.0622
27509SOL    HW185932   0.626   0.639   4.944  0.6818  2.2154  0.5166
27509SOL    HW285933   0.681   0.501   4.973 -0.6978  1.1692 -1.6775
27510SOL     OW85934   6.059   9.485   5.381  0.1721  0.6022  0.0151
27510SOL    HW185935   6.019   9.413   5.429  0.3653  0.5455  0.0893
27510SOL    HW285936   6.011   9.563   5.410 -0.8086  0.3579 -0.9124
27511SOL     OW85937   5.931   8.478   5.160 -0.4612 -0.2108  0.1978
27511SOL    HW185938   5.860   8.519   5.110 -0.0334  0.4971  0.1678
27511SOL    HW285939   5.999   8.462   5.095  0.5476  1.7409  0.7521
27512SOL     OW85940   0.200   3.112   3.420  0.3869  0.6213 -0.4901
27512SOL    HW185941   0.144   3.143   3.349 -0.4166  0.3540  0.0170
27512SOL    HW285942   0.178   3.019   3.428  0.9220  0.5105 -0.2996
27513SOL     OW85943   0.292   5.610   3.623 -0.0018  0.0809 -0.2466
27513SOL    HW185944   0.233   5.644   3.556 -1.2746  0.6554  1.1532
27513SOL    HW285945   0.261   5.649   3.705 -0.4035 -3.0368  1.1532
27514SOL     OW85946   4.608   8.987   4.162 -0.3091  0.5366 -0.0142
27514SOL    HW185947   4.687   8.997   4.215 -0.7397  0.0217  0.7392
27514SOL    HW285948   4.618   9.050   4.091  0.1628  1.4120  0.8223
27515SOL     OW85949   9.210   6.299   6.283 -0.6263  0.7041  0.1647
27515SOL    HW185950   9.292   6.312   6.236  0.4942 -2.9681  0.9556
27515SOL    HW285951   9.145   6.346   6.231  1.8207  3.2468 -0.7792
27516SOL     OW85952   0.298   1.291   1.932  0.1651  0.1042 -0.4264
27516SOL    HW185953   0.226   1.292   1.995  1.7985  0.7472  1.4594
27516SOL    HW285954   0.278   1.218   1.874 -1.2902 -0.5734  0.9040
27517SOL     OW85955   8.305   4.968   1.501  0.2191 -0.0931 -0.0171
27517SOL    HW185956   8.276   5.003   1.585  0.7443 -0.2948  0.2459
27517SOL    HW285957   8.229   4.919   1.468 -0.2011  0.5036  0.0415
27518SOL     OW85958  10.329   7.789   9.553 -0.3733 -0.4737  0.0307
27518SOL    HW185959  10.409   7.842   9.558  0.0844 -1.2026  0.7552
27518SOL    HW285960  10.347   7.726   9.483 -0.7725  0.1039 -0.5892
27519SOL     OW85961   7.299   0.995   9.656  0.3043  0.1879 -0.0208
27519SOL    HW185962   7.359   1.002   9.581  0.1659  1.4315 -0.0311
27519SOL    HW285963   7.212   1.006   9.619  0.0997 -1.0026  0.0826
27520SOL     OW85964   4.583   6.059   1.640  0.1807 -0.7843 -0.0532
27520SOL    HW185965   4.671   6.092   1.622  0.5076 -1.9952 -0.7226
27520SOL    HW285966   4.556   6.016   1.559 -1.5245  0.6286 -0.2591
27521SOL     OW85967   8.148  10.668   5.285  0.4522 -0.5161 -0.2917
27521SOL    HW185968   8.119  10.599   5.346  0.8680 -0.6089 -0.1936
27521SOL    HW285969   8.237  10.689   5.315  0.9330 -1.0670 -1.3016
27522SOL     OW85970   1.103   1.175   1.370  0.1581 -0.1813  0.1756
27522SOL    HW185971   1.147   1.128   1.299 -1.4698 -0.5343 -0.6293
27522SOL    HW285972   1.139   1.137   1.450 -1.1726 -2.9063 -0.4589
27523SOL     OW85973   1.851   3.600   9.648  0.2420  0.1683 -0.2810
27523SOL    HW185974   1.796   3.615   9.571  2.5991  0.8091 -1.8621
27523SOL    HW285975   1.802   3.536   9.700 -2.0181  0.7696 -1.6180
27524SOL     OW85976   6.402   1.839   0.500  0.6836  0.1418 -0.6301
27524SOL    HW185977   6.318   1.853   0.544  0.0169  0.4587 -1.9898
27524SOL    HW285978   6.463   1.896   0.546  0.1728 -0.1434  0.4131
27525SOL     OW85979   6.020   0.719   5.995  0.7527 -0.5602  0.4169
27525SOL    HW185980   6.074   0.754   6.066 -1.1727  2.2151  0.5810
27525SOL    HW285981   5.985   0.796   5.951 -0.7215 -2.2743 -1.5004
27526SOL     OW85982   1.519   4.759   5.757 -0.6157 -0.0688  0.7242
27526SOL    HW185983   1.614   4.751   5.760 -0.4968  0.9721 -0.0923
27526SOL    HW285984   1.494   4.779   5.847  0.1382  1.6192  0.5767
27527SOL     OW85985   3.820   5.303  10.048 -0.5490  0.0794 -0.3518
27527SOL    HW185986   3.775   5.265  10.124 -0.2029  1.6534  0.6703
27527SOL    HW285987   3.864   5.381  10.083  1.2144 -0.2464 -1.7716
27528SOL     OW85988   5.196   6.021   6.766  0.1956  0.3503 -0.9792
27528SOL    HW185989   5.177   6.114   6.770  0.0757  0.2625  0.6892
27528SOL    HW285990   5.241   6.002   6.848 -2.1020 -1.5703 -0.1015
27529SOL     OW85991   9.885   3.735   2.648  0.1110  0.7768  0.0397
27529SOL    HW185992   9.930   3.755   2.566  0.2712 -2.2783 -0.6844
27529SOL    HW285993   9.868   3.641   2.644  0.4309  0.4853  3.6580
27530SOL     OW85994   0.777   8.345   6.937 -0.6534 -0.2949 -0.6202
27530SOL    HW185995   0.855   8.289   6.943 -0.9371 -0.4407  2.4680
27530SOL    HW285996   0.716   8.296   6.881 -0.2864 -2.3596  0.7580
27531SOL     OW85997   5.997   1.067   4.168 -0.1436  0.2163 -0.7537
27531SOL    HW185998   6.056   1.009   4.119  1.4982  1.1981  0.0283
27531SOL    HW285999   5.970   1.133   4.104 -0.6037 -0.3785 -1.1802
27532SOL     OW86000   7.715   5.586   0.982  0.1825  0.4837  0.0307
27532SOL    HW186001   7.733   5.672   0.945  0.1403  0.2685 -0.4926
27532SOL    HW286002   7.795   5.536   0.967 -0.5972 -0.2847 -1.7545
27533SOL     OW86003   2.366   2.089   6.903 -0.0200  0.2371  0.4579
27533SOL    HW186004   2.309   2.166   6.905 -0.5937 -0.1811  0.2355
27533SOL    HW286005   2.442   2.114   6.956  0.4636  1.4726 -0.7908
27534SOL     OW86006   5.531   2.347  10.766 -0.1770  0.2311  0.0182
27534SOL    HW186007   5.542   2.270  10.822 -0.1804  0.0950 -0.1687
27534SOL    HW286008   5.460   2.323  10.707 -2.3264  1.5005  1.9604
27535SOL     OW86009   6.177   7.914   4.260  0.0353 -0.0005  0.2960
27535SOL    HW186010   6.125   7.963   4.325 -1.2195 -2.2522  1.0446
27535SOL    HW286011   6.250   7.878   4.310  2.0903  2.6935 -0.6496
27536SOL     OW86012   7.614   9.688   0.077  0.2670 -0.5644 -0.0062
27536SOL    HW186013   7.689   9.733   0.114 -0.3456  0.7463 -0.3033
27536SOL    HW286014   7.626   9.694  -0.018  0.3012 -1.2436 -0.0483
27537SOL     OW86015  10.502   0.095   3.078 -0.0319  0.3130  0.1727
27537SOL    HW186016  10.581   0.140   3.047 -0.4219  0.5579 -0.4655
27537SOL    HW286017  10.492   0.126   3.168 -0.0245  1.1462 -0.1045
27538SOL     OW86018   5.282   0.307  10.853  0.5797 -0.3016 -0.0807
27538SOL    HW186019   5.272   0.225  10.805 -1.3840 -0.1324  0.0049
27538SOL    HW286020   5.233   0.294  10.934  0.4207  0.8663  0.0226
27539SOL     OW86021   4.718   1.557   4.818  0.0684 -0.6800 -0.7402
27539SOL    HW186022   4.744   1.582   4.906  0.5836 -0.0835 -1.0510
27539SOL    HW286023   4.624   1.541   4.824 -0.0130 -0.0233 -0.2174
27540SOL     OW86024   2.228   3.059   1.424  0.2890 -0.1604  0.0299
27540SOL    HW186025   2.174   3.104   1.359  0.7557 -0.8730 -0.8770
27540SOL    HW286026   2.186   2.973   1.435  1.8965 -1.2230 -1.6446
27541SOL     OW86027   0.501   9.176   7.440  0.2902  0.3742  0.7179
27541SOL    HW186028   0.485   9.206   7.530  0.0029 -0.7431  1.0501
27541SOL    HW286029   0.471   9.085   7.440 -0.7449  0.6968 -0.8068
27542SOL     OW86030  10.881   2.120   4.046 -0.5169  0.3416 -0.0249
27542SOL    HW186031  10.811   2.185   4.052 -0.9327 -0.0556 -0.4695
27542SOL    HW286032  10.939   2.139   4.119 -0.9872  0.8025  0.2277
27543SOL     OW86033   4.330   7.019   9.091  0.2263 -0.2557 -0.0998
27543SOL    HW186034   4.354   6.957   9.022  1.3671  0.9330 -0.8026
27543SOL    HW286035   4.245   7.054   9.063 -1.0931 -2.4953  1.0137
27544SOL     OW86036   0.650   8.891   0.453 -0.2831 -0.2851 -0.0365
27544SOL    HW186037   0.562   8.921   0.476  0.2519  1.3845 -0.0270
27544SOL    HW286038   0.686   8.962   0.399  0.8234 -1.2227 -0.5602
27545SOL     OW86039   6.252   2.498  10.805 -0.5006 -0.3927  0.2700
27545SOL    HW186040   6.327   2.472  10.751  0.3246  0.9203  0.7348
27545SOL    HW286041   6.285   2.493  10.895 -0.7172  0.9358  0.4364
27546SOL     OW86042   0.182   0.885   6.162 -0.2098  0.6336  0.1388
27546SOL    HW186043   0.275   0.862   6.154 -0.6657 -0.9837 -0.6808
27546SOL    HW286044   0.174   0.970   6.119  0.6607  0.1789 -0.9376
27547SOL     OW86045   6.503   1.321   0.117 -0.3046  0.2331  0.3440
27547SOL    HW186046   6.520   1.237   0.161 -0.3206  0.5147  0.8902
27547SOL    HW286047   6.521   1.303   0.025  2.0657  0.2624  0.7687
27548SOL     OW86048   6.401   3.144  10.694  0.3131 -0.3398 -0.4027
27548SOL    HW186049   6.431   3.215  10.638  1.1194  0.5077  1.0708
27548SOL    HW286050   6.411   3.178  10.783 -0.4652 -1.8393  0.2728
27549SOL     OW86051   4.695   5.636   3.565 -0.2553  0.1943  0.2586
27549SOL    HW186052   4.707   5.542   3.560  0.4486  0.1794  1.7663
27549SOL    HW286053   4.645   5.659   3.487  0.8659 -1.2090 -0.8929
27550SOL     OW86054   8.448   3.590   0.651  0.5615 -0.3411 -0.0972
27550SOL    HW186055   8.400   3.575   0.569  0.1830 -1.0488  0.2487
27550SOL    HW286056   8.489   3.676   0.639  1.3698 -0.8929 -1.4590
27551SOL     OW86057   5.176   8.646   6.722  0.0192  0.4778 -0.2271
27551SOL    HW186058   5.203   8.738   6.727  2.0816 -0.0511 -1.3771
27551SOL    HW286059   5.211   8.607   6.802 -0.2812  0.5276 -0.0688
27552SOL     OW86060   6.477   9.917  10.779  0.1839 -0.4733 -0.3753
27552SOL    HW186061   6.389   9.949  10.760  0.2184 -0.1542 -0.0097
27552SOL    HW286062   6.533   9.993  10.765  0.1220  0.0105  1.7868
27553SOL     OW86063   4.232   8.745   5.178 -0.5258 -0.1990  0.2405
27553SOL    HW186064   4.162   8.698   5.133  1.1024 -1.3111 -1.1788
27553SOL    HW286065   4.299   8.758   5.111  0.4506  1.2341  1.4714
27554SOL     OW86066   9.715   9.011   3.681 -0.1337 -0.0954 -0.1981
27554SOL    HW186067   9.679   9.054   3.604 -0.8029  3.4679  1.9502
27554SOL    HW286068   9.707   9.077   3.750 -0.9829 -3.6638  3.2867
27555SOL     OW86069   5.926   1.345   0.605  0.7456  0.2373  0.4265
27555SOL    HW186070   5.908   1.346   0.511 -0.0090 -0.6891  0.5462
27555SOL    HW286071   6.017   1.373   0.613  0.6192  0.9344 -0.5350
27556SOL     OW86072   5.795   0.944   4.912 -0.0099  0.0008  0.1989
27556SOL    HW186073   5.824   0.920   4.825 -1.2193 -1.8313  0.2833
27556SOL    HW286074   5.700   0.955   4.905 -0.5922 -3.2908  1.9224
27557SOL     OW86075   8.687   7.172  10.081 -0.0173 -0.4037 -0.1332
27557SOL    HW186076   8.733   7.211  10.155 -1.9761 -0.7603  1.3304
27557SOL    HW286077   8.735   7.092  10.061  1.6615  0.6833 -0.5387
27558SOL     OW86078   4.020   2.246   2.131 -0.4159 -0.1841 -0.4102
27558SOL    HW186079   3.953   2.184   2.160  0.0070 -0.3591  0.1982
27558SOL    HW286080   4.006   2.323   2.187 -0.1403 -0.2060 -0.3088
27559SOL     OW86081   5.933   5.096   7.362  0.0162  0.4061  0.1543
27559SOL    HW186082   5.913   5.036   7.289 -0.7458 -0.4916  1.0892
27559SOL    HW286083   5.871   5.072   7.430  1.9495 -0.0200  1.8003
27560SOL     OW86084   0.305   5.622   2.374  0.0101 -0.1718 -0.0874
27560SOL    HW186085   0.307   5.578   2.458  0.5285  1.2933  0.6959
27560SOL    HW286086   0.224   5.674   2.375  1.0479  1.4992  0.4157
27561SOL     OW86087   4.250   4.892   1.700  0.1200 -0.3809  0.2930
27561SOL    HW186088   4.284   4.952   1.633  0.6030 -1.4930 -0.4579
27561SOL    HW286089   4.250   4.945   1.780 -2.1876  1.5526 -0.8836
27562SOL     OW86090   7.928   5.631   4.163  0.1562  0.0941 -0.0192
27562SOL    HW186091   7.938   5.701   4.228  0.6457  0.5919 -0.6277
27562SOL    HW286092   7.854   5.659   4.109  0.9084  0.5901 -0.8137
27563SOL     OW86093   5.391   1.642   9.521  0.1607  0.7010 -0.1115
27563SOL    HW186094   5.346   1.559   9.537 -0.5733  0.9346 -0.8987
27563SOL    HW286095   5.483   1.617   9.507  0.2005  0.1722  1.0268
27564SOL     OW86096   0.556   0.063   6.157 -0.2863 -0.4020  0.0279
27564SOL    HW186097   0.575   0.090   6.247  0.5006 -1.3391  0.1564
27564SOL    HW286098   0.537  -0.031   6.165 -0.7128 -0.3776 -0.7136
27565SOL     OW86099   0.076   4.749   6.360 -0.4011  0.6062  0.1906
27565SOL    HW186100   0.069   4.844   6.365  1.7399  0.8685 -1.1894
27565SOL    HW286101   0.115   4.723   6.443  0.1821  1.0723  0.0690
27566SOL     OW86102   8.685   3.661  10.317 -0.0070 -0.5106 -0.0637
27566SOL    HW186103   8.780   3.670  10.311 -0.1643  0.3191 -1.3154
27566SOL    HW286104   8.653   3.674  10.228 -1.2399 -1.5418  0.2048
27567SOL     OW86105  10.329   1.450   0.828 -0.3440  0.3401 -0.4408
27567SOL    HW186106  10.277   1.526   0.802  0.8984  1.6401  0.8072
27567SOL    HW286107  10.415   1.466   0.788  0.3681  0.3396  1.0846
27568SOL     OW86108  10.476   2.184   1.906  0.4525 -0.4313 -0.6373
27568SOL    HW186109  10.569   2.166   1.917  0.6783  0.0447 -1.6650
27568SOL    HW286110  10.467   2.277   1.927  0.3038 -0.3570 -1.0171
27569SOL     OW86111   5.356   2.362   6.679  0.2421  0.0548 -0.7683
27569SOL    HW186112   5.282   2.305   6.700 -1.0848  1.6670 -0.9962
27569SOL    HW286113   5.338   2.393   6.590  0.7136  1.1916 -0.4770
27570SOL     OW86114   0.627   7.015   3.058 -0.3973 -0.3048  0.5306
27570SOL    HW186115   0.701   7.076   3.059 -0.7235  0.0962  0.7803
27570SOL    HW286116   0.621   6.984   3.149 -1.3336  0.6545  0.8074
27571SOL     OW86117   9.330   7.090   3.448  0.5436 -0.3257  0.1985
27571SOL    HW186118   9.388   7.097   3.372  0.4551  0.3411  0.1911
27571SOL    HW286119   9.247   7.128   3.418 -0.7971 -3.7802 -0.6993
27572SOL     OW86120   6.558  10.723   2.579 -0.1624 -0.1250 -0.3572
27572SOL    HW186121   6.641  10.772   2.582 -0.5882  0.5357  1.2217
27572SOL    HW286122   6.577  10.646   2.526  1.0266  0.8289 -1.3612
27573SOL     OW86123   4.737   5.146   5.289  0.4986  0.1739  0.0260
27573SOL    HW186124   4.690   5.214   5.239  0.1848  1.3700  1.9153
27573SOL    HW286125   4.685   5.067   5.275  0.3470  0.5141 -1.4457
27574SOL     OW86126   8.631  10.481   1.642 -0.3531  0.7023 -0.1319
27574SOL    HW186127   8.670  10.427   1.573 -0.1211  0.4846  0.1638
27574SOL    HW286128   8.696  10.549   1.659  0.1915 -0.0413  0.8128
27575SOL     OW86129   2.439   8.693   3.543  0.3858  0.0440 -0.1104
27575SOL    HW186130   2.353   8.725   3.515  0.1879  0.6198  1.1279
27575SOL    HW286131   2.471   8.642   3.468 -0.2855  1.2431 -1.2485
27576SOL     OW86132   6.034   8.042   2.275  0.7414 -0.3181 -0.1646
27576SOL    HW186133   6.005   7.954   2.298 -0.1086  0.2570  1.0206
27576SOL    HW286134   6.054   8.037   2.181 -1.0831 -1.2844 -0.5202
27577SOL     OW86135   5.383   2.493   3.218  0.0720  0.2864 -0.7668
27577SOL    HW186136   5.395   2.567   3.158 -1.1624  1.3816  0.3179
27577SOL    HW286137   5.359   2.419   3.162  0.4979  0.9104 -1.7728
27578SOL     OW86138   0.233   8.903   3.437  0.3729  0.0340  0.3250
27578SOL    HW186139   0.322   8.885   3.406  0.9301  0.9316  1.3882
27578SOL    HW286140   0.217   8.994   3.412 -1.7392 -1.2399 -3.3520
27579SOL     OW86141   4.749   3.785   1.353 -0.1627  0.1166  0.1224
27579SOL    HW186142   4.656   3.773   1.371  0.0558  0.2415  1.4251
27579SOL    HW286143   4.787   3.808   1.438  1.0535  0.0850 -0.3960
27580SOL     OW86144   8.875   9.314   2.356 -0.3474 -0.2012  0.2774
27580SOL    HW186145   8.868   9.230   2.309 -2.7871 -0.1529  0.4888
27580SOL    HW286146   8.969   9.333   2.356  0.3096 -3.1760  0.6687
27581SOL     OW86147   0.059   2.466   9.139  0.2868 -0.0916 -0.4036
27581SOL    HW186148   0.140   2.418   9.128  0.8254  0.5320  0.6455
27581SOL    HW286149   0.016   2.424   9.214  1.1144  1.4734  0.9958
27582SOL     OW86150   8.390   8.610   8.290 -0.4030 -0.1835  0.3005
27582SOL    HW186151   8.438   8.532   8.262 -0.4998 -0.2589  0.3426
27582SOL    HW286152   8.304   8.601   8.248  0.2118  0.8432 -1.2642
27583SOL     OW86153   2.533   7.190   2.016 -0.7479  0.3558 -0.5749
27583SOL    HW186154   2.471   7.249   2.059 -2.0753 -0.4021 -1.4212
27583SOL    HW286155   2.600   7.247   1.979  0.3363  1.0478  2.3142
27584SOL     OW86156   9.780   2.494   0.418  0.3091 -0.2599  0.3620
27584SOL    HW186157   9.859   2.481   0.470 -0.4765 -1.1065  1.4032
27584SOL    HW286158   9.717   2.432   0.457 -1.0724  0.9312  0.0383
27585SOL     OW86159   6.446   8.844   1.459 -0.1843 -0.1713  0.4610
27585SOL    HW186160   6.468   8.886   1.542 -0.3555  1.2635 -0.1921
27585SOL    HW286161   6.363   8.800   1.475  0.7742 -1.5737  1.6016
27586SOL     OW86162   9.855   9.985   0.918  0.3354  0.6958  0.5384
27586SOL    HW186163   9.860   9.999   0.823 -1.6570  0.1325  0.3105
27586SOL    HW286164   9.906   9.906   0.933 -1.4062 -0.6887 -0.4852
27587SOL     OW86165  10.471   0.595   0.029 -0.6870 -0.0427  0.1668
27587SOL    HW186166  10.482   0.500   0.036 -2.2931 -0.2280  0.5115
27587SOL    HW286167  10.498   0.629   0.114 -1.4522 -0.3442  0.5368
27588SOL     OW86168   9.670   0.085  10.596 -0.3451 -0.1426 -0.1189
27588SOL    HW186169   9.706   0.000  10.572 -0.0766 -0.6971  2.2151
27588SOL    HW286170   9.636   0.120  10.513  2.3466 -1.1179 -1.7065
27589SOL     OW86171   1.234   3.987   0.680  0.7109  0.1135  0.0657
27589SOL    HW186172   1.268   4.036   0.755  0.9189  1.3536 -0.8208
27589SOL    HW286173   1.235   4.050   0.608 -1.8213 -0.3491 -0.3955
27590SOL     OW86174   7.301   4.264   6.923 -0.6061  0.1625 -0.7335
27590SOL    HW186175   7.250   4.188   6.952 -1.0690  0.6719 -0.1916
27590SOL    HW286176   7.335   4.238   6.838  0.4063 -1.1865  0.0607
27591SOL     OW86177   6.447   8.655   5.193  0.2500  0.0038 -0.3681
27591SOL    HW186178   6.371   8.683   5.243  0.2219  0.4679 -0.6674
27591SOL    HW286179   6.477   8.734   5.149 -0.6282 -0.7251 -2.2938
27592SOL     OW86180   6.081   4.051   6.782 -0.4044 -0.4139  0.1770
27592SOL    HW186181   6.116   3.992   6.849 -2.3287 -0.4679  1.1729
27592SOL    HW286182   6.034   3.994   6.721 -3.0188  0.1167  1.6185
27593SOL     OW86183   0.686   8.031   8.478  0.3545  0.0660  0.1365
27593SOL    HW186184   0.732   8.053   8.559  2.2212  0.0954 -0.9024
27593SOL    HW286185   0.717   7.944   8.455 -1.4375 -0.6447  0.3195
27594SOL     OW86186   5.992   5.656   7.352  0.1672 -0.3939 -0.5131
27594SOL    HW186187   5.961   5.743   7.380  2.4082 -0.0903  1.1714
27594SOL    HW286188   6.080   5.673   7.316  0.5970 -1.9411 -0.2188
27595SOL     OW86189   0.563   9.206   6.355  0.9107  0.1600 -0.3413
27595SOL    HW186190   0.603   9.143   6.295 -0.3124  0.4013 -1.4223
27595SOL    HW286191   0.482   9.165   6.383 -1.0887  2.1771 -2.8931
27596SOL     OW86192   9.712   2.015   6.500  0.2319  0.7570 -0.2714
27596SOL    HW186193   9.713   1.998   6.406 -0.3535 -0.2027 -0.1141
27596SOL    HW286194   9.620   2.034   6.519  0.1405 -0.2301  0.3060
27597SOL     OW86195   4.096   5.457   6.369  0.0179 -0.1662  0.1480
27597SOL    HW186196   4.022   5.410   6.407  0.6416 -0.8068  0.5806
27597SOL    HW286197   4.085   5.448   6.274  0.5967 -1.9117  0.2379
27598SOL     OW86198   8.557   9.603   5.312  0.1878  0.1115 -0.5522
27598SOL    HW186199   8.537   9.613   5.405  2.2916  1.1108 -0.1849
27598SOL    HW286200   8.471   9.590   5.271 -0.5847 -3.1807  1.8280
27599SOL     OW86201   4.845   5.091   5.528 -0.0970  0.3055 -0.2687
27599SOL    HW186202   4.813   5.113   5.441 -2.7109 -1.1170  0.2887
27599SOL    HW286203   4.879   5.173   5.562 -2.4978  1.7445 -1.1944
27600SOL     OW86204   9.820   0.972   1.302 -0.0479  0.4432 -0.0162
27600SOL    HW186205   9.888   0.916   1.267  0.2599  0.8576 -0.0873
27600SOL    HW286206   9.765   0.993   1.226  0.3379  0.9420 -0.1643
27601SOL     OW86207  10.135   3.216  10.279  0.0402  0.4323  0.6215
27601SOL    HW186208  10.170   3.273  10.348  1.0280  0.3807  0.1821
27601SOL    HW286209  10.061   3.171  10.319  1.2058 -0.3324  1.9645
27602SOL     OW86210   5.177  10.823   3.218  0.2497 -0.3915  0.2045
27602SOL    HW186211   5.223  10.743   3.192 -0.4462 -0.5678 -0.5215
27602SOL    HW286212   5.108  10.832   3.152 -1.8544 -1.0786  2.2519
27603SOL     OW86213   1.947   2.107   3.442 -0.6714  0.7236  0.4275
27603SOL    HW186214   1.904   2.173   3.387 -1.1785 -1.4430 -1.8513
27603SOL    HW286215   1.894   2.028   3.433  0.5270 -0.3509  2.2472
27604SOL     OW86216  10.172  10.030   4.570  0.3265  0.0162 -0.0703
27604SOL    HW186217  10.182   9.934   4.571 -0.6173 -0.1610 -2.7074
27604SOL    HW286218  10.081  10.044   4.542  0.8163  1.6903 -0.8773
27605SOL     OW86219   4.854   3.464   4.249  0.4035  0.0832  0.1498
27605SOL    HW186220   4.770   3.443   4.290  1.0598 -1.1665  0.8973
27605SOL    HW286221   4.838   3.457   4.155 -0.6330  1.0747  0.2437
27606SOL     OW86222   6.982   0.577   0.131 -0.0969  0.1517  0.0598
27606SOL    HW186223   6.964   0.579   0.037 -2.1876 -0.5399  0.4002
27606SOL    HW286224   6.939   0.497   0.161  2.2812 -0.7037  1.2922
27607SOL     OW86225  10.321   6.543   6.611  0.5960 -0.0595  0.5803
27607SOL    HW186226  10.328   6.607   6.540  0.1126 -0.3237  0.2908
27607SOL    HW286227  10.355   6.462   6.573 -1.5284 -0.7081 -0.0135
27608SOL     OW86228   2.071   1.942   4.638  0.1793 -0.2555 -0.0183
27608SOL    HW186229   2.048   1.978   4.724  1.3680  0.1259  0.1412
27608SOL    HW286230   2.080   1.848   4.653 -0.2840 -0.2772  0.1317
27609SOL     OW86231   0.297  10.275   7.107 -0.5035  0.5677 -0.9339
27609SOL    HW186232   0.363  10.297   7.041  1.6667 -1.4599  0.4737
27609SOL    HW286233   0.264  10.189   7.081 -1.0806  0.6440 -0.4746
27610SOL     OW86234   6.806   4.707   0.475 -0.4222  0.5877  0.4003
27610SOL    HW186235   6.751   4.645   0.523  0.2550 -0.9933 -0.8477
27610SOL    HW286236   6.893   4.667   0.475  0.4476  2.4076  1.1457
27611SOL     OW86237   2.503   2.607   5.921 -0.2742  0.4296 -0.0097
27611SOL    HW186238   2.499   2.702   5.924  1.0282  0.4839  0.4846
27611SOL    HW286239   2.594   2.588   5.897 -0.4978 -0.6927  0.0054
27612SOL     OW86240   4.686   0.922   0.918  0.0182 -0.3251 -0.3554
27612SOL    HW186241   4.698   1.006   0.874 -1.4194  0.8483  1.4027
27612SOL    HW286242   4.596   0.924   0.950  0.6469 -1.5816  1.6442
27613SOL     OW86243  10.818   2.217   1.652 -0.2017 -0.1730 -0.2800
27613SOL    HW186244  10.855   2.132   1.673  2.0446  0.8440  0.1011
27613SOL    HW286245  10.842   2.232   1.560  0.5722  0.5868  0.0315
27614SOL     OW86246   5.150   1.137   3.513  0.7218 -0.3140  0.0038
27614SOL    HW186247   5.121   1.112   3.425  0.4613  3.2715 -0.9904
27614SOL    HW286248   5.070   1.156   3.561  1.0231  1.7706 -0.2801
27615SOL     OW86249   9.683   6.767   4.240 -0.9104 -0.2836  0.3672
27615SOL    HW186250   9.695   6.803   4.328 -2.5087 -0.7473  0.8065
27615SOL    HW286251   9.645   6.680   4.255 -2.1490  0.0375 -0.7984
27616SOL     OW86252   5.914   3.464  10.611  0.0827  0.2103  0.2101
27616SOL    HW186253   5.901   3.373  10.639 -0.5656  0.9863  2.5137
27616SOL    HW286254   5.838   3.511  10.645 -0.0112  1.4932 -1.6793
27617SOL     OW86255  10.050   5.801   9.142 -0.0156 -0.3548 -0.4754
27617SOL    HW186256  10.129   5.848   9.170  0.2274  0.3740 -2.3000
27617SOL    HW286257   9.980   5.838   9.196  0.6844 -0.0635  0.2418
27618SOL     OW86258   4.843  10.895   4.730  0.2121  0.0261  0.3256
27618SOL    HW186259   4.934  10.922   4.718 -0.4243  1.2259 -1.9879
27618SOL    HW286260   4.807  10.959   4.792  0.1761  1.3529 -1.0218
27619SOL     OW86261   9.310   9.920   9.277 -0.2630 -0.5432 -0.0671
27619SOL    HW186262   9.315  10.016   9.274  1.9608 -0.6776 -2.8261
27619SOL    HW286263   9.401   9.891   9.268 -1.2613 -2.9511 -3.2452
27620SOL     OW86264   7.195   3.469   5.848 -0.1431 -0.2387 -0.1390
27620SOL    HW186265   7.198   3.555   5.806  0.6912 -0.7520 -1.1567
27620SOL    HW286266   7.169   3.487   5.938  0.2455  1.1041 -0.2833
27621SOL     OW86267   7.795   1.480   3.196  0.5304  0.5881 -0.1270
27621SOL    HW186268   7.874   1.532   3.210  1.4509 -1.0131  0.7490
27621SOL    HW286269   7.777   1.441   3.281 -2.1972  2.2714  0.1094
27622SOL     OW86270   3.594   4.170   3.787 -0.4011 -0.1531  0.1088
27622SOL    HW186271   3.529   4.239   3.774 -0.7026  0.1437  2.7733
27622SOL    HW286272   3.607   4.168   3.882  0.1746 -3.2740 -0.0028
27623SOL     OW86273   7.668   7.547   5.825  0.2961  0.2202 -0.5286
27623SOL    HW186274   7.696   7.532   5.915  0.9738 -0.0986 -0.7904
27623SOL    HW286275   7.696   7.636   5.806  1.5577 -0.2488 -0.9383
27624SOL     OW86276   7.101  10.229   9.015  0.1789 -0.5966 -0.3447
27624SOL    HW186277   7.188  10.263   9.034 -1.5216  3.2724  0.8851
27624SOL    HW286278   7.079  10.174   9.090  1.3996 -1.3598 -0.5290
27625SOL     OW86279   3.170   2.107   5.123 -0.6054 -0.6336 -0.1712
27625SOL    HW186280   3.248   2.054   5.138  0.6204  1.6041  1.7842
27625SOL    HW286281   3.157   2.104   5.028  3.7896  1.4663 -0.9849
27626SOL     OW86282  10.417   0.031   1.268 -0.0913 -0.5037  0.1976
27626SOL    HW186283  10.398   0.049   1.360 -0.6195 -2.3547  0.4786
27626SOL    HW286284  10.491  -0.030   1.271  1.4274  1.2338 -0.7001
27627SOL     OW86285   4.317   3.551   0.628 -0.1397 -0.3810  0.0186
27627SOL    HW186286   4.388   3.543   0.691  0.5244  1.0343 -0.5407
27627SOL    HW286287   4.292   3.643   0.631 -1.8228 -0.8276  0.0596
27628SOL     OW86288   4.780   1.944   1.707  0.5070 -0.2357 -0.1577
27628SOL    HW186289   4.783   1.849   1.710 -1.6132 -0.3365 -0.3818
27628SOL    HW286290   4.740   1.964   1.622  1.5868  0.8767 -0.4240
27629SOL     OW86291   6.877   9.264   7.963  0.5132  0.3775  0.3522
27629SOL    HW186292   6.906   9.206   8.034 -0.2891 -0.2031  0.2211
27629SOL    HW286293   6.913   9.350   7.985  0.4127  0.1627  1.3682
27630SOL     OW86294   3.621   7.550   3.209  0.0497 -0.2026 -0.3443
27630SOL    HW186295   3.652   7.483   3.147  2.1488 -1.2441  1.7595
27630SOL    HW286296   3.669   7.629   3.185  0.4427 -0.4573 -0.4075
27631SOL     OW86297  10.733   4.948   0.825  0.3512  0.9008 -0.3961
27631SOL    HW186298  10.660   4.921   0.880  1.4819  0.2010  0.7748
27631SOL    HW286299  10.773   5.021   0.872  2.3832 -0.8273  0.5892
27632SOL     OW86300   7.458   8.391   6.035  0.3978  0.4152  0.6322
27632SOL    HW186301   7.516   8.455   5.993 -0.4860 -0.0167 -1.2868
27632SOL    HW286302   7.394   8.445   6.080  0.7698  0.8954  0.5960
27633SOL     OW86303   3.895   2.153   8.140  0.2754  0.1191  0.0318
27633SOL    HW186304   3.983   2.141   8.105  0.6140  1.8179  0.2212
27633SOL    HW286305   3.883   2.248   8.141 -1.0811 -0.0462  1.1975
27634SOL     OW86306   8.794   4.171   8.308  0.1658 -0.0520 -0.6119
27634SOL    HW186307   8.712   4.135   8.273 -0.0860  0.9748 -1.0780
27634SOL    HW286308   8.773   4.261   8.330  0.4093 -0.5667  1.9093
27635SOL     OW86309   0.578   0.603   6.132  0.2669  0.1309 -0.1160
27635SOL    HW186310   0.511   0.542   6.101  3.1766 -2.7678 -0.9123
27635SOL    HW286311   0.636   0.614   6.057  1.6155  1.3079  1.0784
27636SOL     OW86312   1.445   8.007   5.956  0.0145 -0.1169 -0.2327
27636SOL    HW186313   1.428   7.971   6.043 -0.1564 -1.1650 -0.6879
27636SOL    HW286314   1.404   8.093   5.957 -0.7543 -0.4821  0.4254
27637SOL     OW86315   4.178   5.586   7.661 -0.3198 -0.1233  0.4155
27637SOL    HW186316   4.246   5.648   7.636 -0.6057  0.0367  0.0416
27637SOL    HW286317   4.223   5.502   7.670 -0.2847 -0.2663 -1.0092
27638SOL     OW86318   4.552   4.373   7.425  0.1755 -0.1142 -0.6395
27638SOL    HW186319   4.592   4.385   7.338  1.0751  1.6778 -0.0075
27638SOL    HW286320   4.502   4.453   7.439 -1.3371 -1.1324 -0.2024
27639SOL     OW86321   4.320   1.339   7.093 -0.2973 -0.4629  0.1396
27639SOL    HW186322   4.333   1.385   7.009 -0.0846 -1.5714 -0.4421
27639SOL    HW286323   4.265   1.398   7.144  0.1989  0.5701 -0.4969
27640SOL     OW86324   2.057   4.395   4.092  0.4049 -0.2198 -0.1554
27640SOL    HW186325   2.103   4.328   4.042  2.2501  0.9215 -0.0367
27640SOL    HW286326   2.065   4.475   4.039  1.0037  0.6308  1.1853
27641SOL     OW86327   9.311   7.542   6.591 -0.1536  0.6472  0.3796
27641SOL    HW186328   9.372   7.600   6.545  0.6788 -0.4009  0.1565
27641SOL    HW286329   9.284   7.478   6.525  0.7430 -0.6232  1.2074
27642SOL     OW86330   2.882   2.913   4.046 -0.3609 -0.5423 -0.5460
27642SOL    HW186331   2.869   3.000   4.008  2.1276  0.4372  0.7695
27642SOL    HW286332   2.874   2.853   3.971  0.1716  0.9978 -1.8627
27643SOL     OW86333   9.309   5.627   8.480  0.5081  0.5162  0.6129
27643SOL    HW186334   9.264   5.555   8.524 -1.7949  0.1711 -2.1411
27643SOL    HW286335   9.318   5.695   8.548  0.6640 -1.4627  2.6269
27644SOL     OW86336  10.782   5.880   5.163 -0.3966 -0.4018 -0.0444
27644SOL    HW186337  10.843   5.820   5.205 -0.0494 -0.0241 -0.0091
27644SOL    HW286338  10.793   5.864   5.069  0.6232  0.5214 -0.0793
27645SOL     OW86339   2.599   9.638   2.096  0.1180  0.1345  1.0761
27645SOL    HW186340   2.557   9.715   2.132 -0.0508 -0.3500  1.9303
27645SOL    HW286341   2.629   9.665   2.009 -1.7281  0.5670  0.5496
27646SOL     OW86342   9.654   9.912   2.763  0.4945 -0.2783  0.5360
27646SOL    HW186343   9.656   9.871   2.849 -2.1014 -0.7499  0.4114
27646SOL    HW286344   9.633  10.004   2.781  2.1896  0.1369  0.5243
27647SOL     OW86345   3.743   6.895   6.897 -0.8596 -0.2316 -0.1934
27647SOL    HW186346   3.736   6.847   6.814  1.6233 -0.1287 -0.5092
27647SOL    HW286347   3.708   6.982   6.877 -0.5209 -0.2887 -1.0724
27648SOL     OW86348   1.668   4.467   1.987 -0.1415 -0.5729  0.1268
27648SOL    HW186349   1.726   4.415   1.931 -0.6143 -1.1469  0.1601
27648SOL    HW286350   1.587   4.475   1.937 -0.1052  0.0522  0.1670
27649SOL     OW86351   5.932   6.587   8.131 -0.6772  0.2033 -0.2970
27649SOL    HW186352   5.930   6.569   8.226  0.1561 -0.4194 -0.3922
27649SOL    HW286353   5.854   6.544   8.097 -0.2649 -0.7419 -0.0791
27650SOL     OW86354   9.395  10.879   8.978 -0.3736  0.2754  0.2315
27650SOL    HW186355   9.346  10.890   9.059  0.6924 -1.5048  1.1491
27650SOL    HW286356   9.479  10.923   8.995 -0.1095 -0.1871  0.1425
27651SOL     OW86357  10.846   4.176   2.411  0.8140  0.4607 -0.1796
27651SOL    HW186358  10.879   4.102   2.462  2.0186  1.2530  0.2286
27651SOL    HW286359  10.828   4.244   2.477  0.6278  0.8550 -0.6330
27652SOL     OW86360   2.770   5.071   8.693 -0.1606  0.3294 -0.0137
27652SOL    HW186361   2.717   5.000   8.658  0.0291  0.2394 -0.1230
27652SOL    HW286362   2.762   5.062   8.788 -0.9673  0.7999 -0.0403
27653SOL     OW86363   0.507  10.688   2.556 -0.2534 -0.1677  0.3942
27653SOL    HW186364   0.530  10.635   2.632 -0.7588  0.2278  0.8331
27653SOL    HW286365   0.534  10.777   2.580  0.6010 -0.2188 -0.3376
27654SOL     OW86366   8.272   0.574   5.586 -0.6292 -0.2370  0.6759
27654SOL    HW186367   8.188   0.620   5.577 -0.8916 -0.7449  0.5055
27654SOL    HW286368   8.249   0.481   5.586 -0.1316 -0.3628  1.3678
27655SOL     OW86369   7.543   4.052   1.461 -0.2629  0.0349  0.8511
27655SOL    HW186370   7.456   4.063   1.422  0.1167 -0.0690 -0.0466
27655SOL    HW286371   7.603   4.060   1.387  0.6452  2.4169  1.7918
27656SOL     OW86372   3.480   5.891  10.295 -0.5196  0.5313 -0.1744
27656SOL    HW186373   3.553   5.909  10.354 -0.2431 -1.6030  0.2048
27656SOL    HW286374   3.517   5.900  10.207  0.4368 -1.2561  0.0139
27657SOL     OW86375   6.522  10.319   5.150  0.2257  0.5997  0.3702
27657SOL    HW186376   6.489  10.252   5.210  0.8022 -1.2792 -1.3517
27657SOL    HW286377   6.499  10.286   5.063 -0.9526  3.4618 -0.4461
27658SOL     OW86378   5.179   0.091   8.629 -0.1104 -0.3006 -0.6216
27658SOL    HW186379   5.189   0.004   8.669 -0.6184 -0.1351 -0.1205
27658SOL    HW286380   5.098   0.084   8.578 -0.5557  0.0979  0.0201
27659SOL     OW86381   3.939   9.941   2.927 -0.0799 -0.4077 -0.7661
27659SOL    HW186382   3.930   9.850   2.956  4.1374 -0.8852 -0.7339
27659SOL    HW286383   3.927   9.993   3.007 -0.3153 -1.0378 -0.3921
27660SOL     OW86384   8.213   7.054   5.528  0.5463  0.0077 -0.3168
27660SOL    HW186385   8.219   7.001   5.607  2.1359  0.6565  0.0212
27660SOL    HW286386   8.229   7.144   5.558 -2.7066  0.8086 -0.7696
27661SOL     OW86387   0.165   6.199   5.275 -0.0006 -0.3445  0.6974
27661SOL    HW186388   0.137   6.135   5.341 -0.2195  0.4397  1.3711
27661SOL    HW286389   0.083   6.238   5.244  0.1124 -0.6051  0.0666
27662SOL     OW86390   5.476  10.191   9.582 -0.1178 -0.2953  0.0910
27662SOL    HW186391   5.524  10.230   9.654 -0.9526  0.8681  0.0441
27662SOL    HW286392   5.457  10.102   9.610 -0.9158  0.3148  1.5537
27663SOL     OW86393   9.381  10.628   4.152  0.1695 -0.4816 -0.4861
27663SOL    HW186394   9.299  10.591   4.185  0.7024  0.1665  1.6352
27663SOL    HW286395   9.378  10.720   4.178  0.7647 -0.0255 -1.9968
27664SOL     OW86396  10.555   3.892   6.220 -0.2909  0.5025 -0.6734
27664SOL    HW186397  10.629   3.880   6.280 -0.1038 -0.2552 -1.0540
27664SOL    HW286398  10.478   3.895   6.277 -0.3144 -2.1827 -0.5293
27665SOL     OW86399  10.932   8.407   4.940  0.5757  0.1905 -0.0925
27665SOL    HW186400  10.984   8.486   4.925 -1.4755  1.3736 -1.1879
27665SOL    HW286401  10.884   8.393   4.858 -1.3685 -0.4622  1.1187
27666SOL     OW86402   0.046   4.631   8.410  0.8126  0.2848 -0.2176
27666SOL    HW186403   0.139   4.651   8.405  0.8179  0.3245  0.0561
27666SOL    HW286404   0.037   4.576   8.487  0.7409 -0.4681 -0.7595
27667SOL     OW86405   4.933   4.061   5.659 -0.0687 -0.0914  0.2257
27667SOL    HW186406   4.882   4.141   5.669  0.0374  0.0206 -0.1327
27667SOL    HW286407   5.012   4.089   5.612 -0.5349 -0.6160 -0.8654
27668SOL     OW86408   8.711   0.585  10.182  0.6620 -0.3618 -0.0731
27668SOL    HW186409   8.750   0.608  10.097  1.5058  0.0913  0.4319
27668SOL    HW286410   8.624   0.551  10.160 -0.2416  2.3683 -0.9407
27669SOL     OW86411   9.490   6.264   3.553  0.6365  0.0907 -0.3842
27669SOL    HW186412   9.570   6.272   3.502  0.3670 -0.2240 -0.8621
27669SOL    HW286413   9.441   6.193   3.511  1.0765 -1.1939  1.2191
27670SOL     OW86414   4.336   5.243   1.007 -0.3710  0.4379  0.1470
27670SOL    HW186415   4.319   5.151   0.985 -1.0676  0.2950  1.2149
27670SOL    HW286416   4.286   5.257   1.088  1.0086  1.3142  0.8621
27671SOL     OW86417   8.467   1.149   5.371  0.3763 -0.3700 -0.3123
27671SOL    HW186418   8.399   1.144   5.438 -0.2916  2.0785 -0.7554
27671SOL    HW286419   8.549   1.158   5.420  0.2334 -1.8658  0.2097
27672SOL     OW86420   4.114   1.306   5.783 -0.1860  0.0308 -0.1423
27672SOL    HW186421   4.111   1.397   5.751 -0.0085 -0.0163 -0.2922
27672SOL    HW286422   4.190   1.304   5.841 -0.5571  0.1374  0.3479
27673SOL     OW86423  10.795   0.395   2.431 -0.2315 -0.1891 -0.1078
27673SOL    HW186424  10.732   0.379   2.361 -0.8198 -1.1044  0.6147
27673SOL    HW286425  10.865   0.331   2.414  1.4701  2.1003 -2.0208
27674SOL     OW86426   6.256   5.594   5.346 -0.1776  0.5364 -0.2753
27674SOL    HW186427   6.229   5.570   5.435 -0.7858  2.9140  0.2132
27674SOL    HW286428   6.315   5.523   5.320 -0.6491 -0.6380  1.6988
27675SOL     OW86429   9.689   9.559   0.962  0.3470 -0.1261 -0.2088
27675SOL    HW186430   9.672   9.575   0.869  0.7354  1.7251  0.0101
27675SOL    HW286431   9.629   9.618   1.008  0.5538 -0.6094  0.6948
27676SOL     OW86432   3.099  10.048   3.233  0.2943  0.1160  0.5252
27676SOL    HW186433   3.107  10.138   3.203  0.5701 -0.2122 -0.3890
27676SOL    HW286434   3.022  10.014   3.187  1.0961 -0.5825 -0.3160
27677SOL     OW86435   8.574   9.735   5.848  0.4747 -0.0914 -0.1875
27677SOL    HW186436   8.660   9.772   5.867 -0.0482  1.3312 -0.5709
27677SOL    HW286437   8.534   9.796   5.787 -0.1355 -1.6511 -1.3781
27678SOL     OW86438   0.284   2.493   5.120  0.2912  0.0543  0.1844
27678SOL    HW186439   0.327   2.488   5.206  0.7851 -0.4605 -0.0847
27678SOL    HW286440   0.212   2.430   5.126  0.8767 -0.6624 -0.0710
27679SOL     OW86441   2.377  10.238   5.391  0.4053 -0.1205 -0.3315
27679SOL    HW186442   2.345  10.215   5.304 -1.8030  1.1818  0.1002
27679SOL    HW286443   2.337  10.173   5.449  1.5040 -0.7049 -0.2152
27680SOL     OW86444   0.391   4.958   4.340 -0.7054  0.4533  0.1381
27680SOL    HW186445   0.360   4.907   4.414 -1.4496 -1.3970 -1.4101
27680SOL    HW286446   0.384   4.899   4.265  0.9837  1.9528 -1.2480
27681SOL     OW86447   5.822   4.231   3.035  0.4029  0.2694 -0.3417
27681SOL    HW186448   5.899   4.180   3.061 -0.8857 -1.1485  0.7148
27681SOL    HW286449   5.838   4.319   3.071  1.1987 -0.1991  0.4630
27682SOL     OW86450   3.608   4.682   3.659 -0.0340  0.4662  0.2692
27682SOL    HW186451   3.568   4.692   3.573  0.7320 -0.7446 -0.2449
27682SOL    HW286452   3.564   4.747   3.714 -0.4010  1.3720 -1.0729
27683SOL     OW86453  10.294   7.073   7.547  0.5385  0.1779  0.6694
27683SOL    HW186454  10.313   6.981   7.527 -3.2718 -0.8913  1.4969
27683SOL    HW286455  10.245   7.104   7.470  0.2681  0.9697  1.1561
27684SOL     OW86456  10.949   9.637   6.783 -0.2084 -0.2189 -0.5521
27684SOL    HW186457  11.012   9.707   6.801 -1.2085  1.3116 -2.7922
27684SOL    HW286458  10.888   9.641   6.856  0.6925  0.1201  0.1994
27685SOL     OW86459   9.412   7.673   5.626  0.0309  0.5835 -0.1745
27685SOL    HW186460   9.504   7.678   5.650  0.1512  1.7030 -0.8175
27685SOL    HW286461   9.373   7.754   5.661 -0.4777  0.6193 -0.7969
27686SOL     OW86462   2.721   8.925   9.838 -0.1397 -0.3854  0.1084
27686SOL    HW186463   2.705   8.986   9.910  0.1112 -0.4478  0.2155
27686SOL    HW286464   2.812   8.898   9.848 -0.6250 -1.7977  0.8503
27687SOL     OW86465   8.599   5.067   8.988  0.1032 -0.1348 -0.2171
27687SOL    HW186466   8.683   5.067   9.034  0.9271 -1.1856 -1.6598
27687SOL    HW286467   8.621   5.042   8.898 -1.7592 -0.4109 -0.6197
27688SOL     OW86468   4.575   8.117   9.225 -0.2897  0.3868  0.1812
27688SOL    HW186469   4.626   8.110   9.144 -0.5369 -1.2642  0.1542
27688SOL    HW286470   4.550   8.209   9.230  3.6938  1.5342  0.8008
27689SOL     OW86471   7.232   0.948   1.582  0.0463  0.3074  0.2437
27689SOL    HW186472   7.283   0.986   1.511  1.0882 -0.7406  0.4213
27689SOL    HW286473   7.143   0.942   1.547  0.0904  1.8722 -0.1671
27690SOL     OW86474   2.858   8.384   8.071 -0.0391 -0.3169 -0.0298
27690SOL    HW186475   2.767   8.363   8.091  0.6849 -3.3222  0.3349
27690SOL    HW286476   2.893   8.420   8.153 -0.1772 -1.7436  0.6715
27691SOL     OW86477   5.077   6.146   2.966  0.6151  0.0576 -0.4179
27691SOL    HW186478   5.060   6.063   3.009 -0.3877  0.4710 -0.0098
27691SOL    HW286479   4.993   6.191   2.965  0.5478 -0.0875 -3.1447
27692SOL     OW86480   6.504   1.895   3.537  0.2178  0.2335  0.1008
27692SOL    HW186481   6.497   1.977   3.487  0.6842 -0.5881 -1.3135
27692SOL    HW286482   6.557   1.918   3.613  1.0434  1.0533 -0.7152
27693SOL     OW86483   5.923   2.041   4.993 -0.4241 -0.7031 -0.9083
27693SOL    HW186484   5.831   2.043   5.022 -0.4330 -0.0024 -0.9633
27693SOL    HW286485   5.918   2.036   4.898 -0.4121 -0.5301 -0.9195
27694SOL     OW86486   8.240   4.962  10.240 -0.3154 -0.3484  0.3888
27694SOL    HW186487   8.315   4.929  10.290  0.0877  2.0521  1.4456
27694SOL    HW286488   8.184   5.003  10.306 -0.0903  2.3162 -1.0273
27695SOL     OW86489   8.104   1.136   7.400  0.0863 -0.0730 -0.5512
27695SOL    HW186490   8.151   1.052   7.404 -0.2844 -0.2502  0.2950
27695SOL    HW286491   8.013   1.112   7.385  0.0865  0.2119 -1.0055
27696SOL     OW86492   8.447   8.334   8.257 -0.7648 -0.0019 -0.2881
27696SOL    HW186493   8.488   8.277   8.192  0.7070 -0.7408  1.2334
27696SOL    HW286494   8.480   8.301   8.341 -1.7639  1.6155  0.7642
27697SOL     OW86495   6.479   6.910   0.314  0.1193  0.4840 -0.3322
27697SOL    HW186496   6.484   6.942   0.223 -0.6755  1.2277 -0.1158
27697SOL    HW286497   6.562   6.864   0.327 -0.5109 -1.2024 -2.0312
27698SOL     OW86498   1.931   6.486  10.850  0.0086 -0.0633  0.2812
27698SOL    HW186499   1.921   6.462  10.758  0.4541  0.8761 -0.0261
27698SOL    HW286500   2.002   6.431  10.882  0.4901  0.2649 -0.2002
27699SOL     OW86501   2.318  10.292   6.480  0.2775 -0.3169  0.4972
27699SOL    HW186502   2.411  10.270   6.477  0.3905  0.1021  0.7956
27699SOL    HW286503   2.310  10.368   6.422  0.0701 -0.5342  0.2440
27700SOL     OW86504   8.565   6.241   8.452  0.1403  0.4429 -0.0190
27700SOL    HW186505   8.640   6.301   8.444 -0.9492  1.4033 -3.7937
27700SOL    HW286506   8.494   6.296   8.485  0.2821  0.2139  0.6766
27701SOL     OW86507   0.441   5.623   1.674 -0.2494  0.5912 -0.7228
27701SOL    HW186508   0.413   5.549   1.620  0.7546 -0.0271 -0.4076
27701SOL    HW286509   0.474   5.687   1.610 -0.8517  0.6563 -0.9740
27702SOL     OW86510   3.429   9.749   4.063  0.0664 -0.5402  0.0146
27702SOL    HW186511   3.523   9.757   4.077  0.5368 -1.2128 -2.4134
27702SOL    HW286512   3.394   9.835   4.085  1.3068 -0.1540  0.5516
27703SOL     OW86513   9.003   0.133   9.914  0.3204  0.1479 -0.1195
27703SOL    HW186514   9.044   0.081   9.845 -1.0230  0.0957 -0.9186
27703SOL    HW286515   8.986   0.070   9.984 -0.8371 -0.4204 -0.8797
27704SOL     OW86516   7.006   1.774  10.295  0.2850 -0.4713  0.1990
27704SOL    HW186517   6.956   1.850  10.324 -1.3579 -0.4723 -2.4921
27704SOL    HW286518   6.940   1.707  10.276  1.5266 -1.6416 -0.1231
27705SOL     OW86519   2.671   4.083   2.425 -0.4721  0.1345  0.1547
27705SOL    HW186520   2.593   4.039   2.457  0.1430 -0.6850  0.5386
27705SOL    HW286521   2.693   4.147   2.494 -1.1685  0.8223 -0.2506
27706SOL     OW86522   3.776   6.286   7.114 -0.3940  0.3175 -0.1164
27706SOL    HW186523   3.715   6.358   7.098 -1.1355 -0.4082 -0.5756
27706SOL    HW286524   3.722   6.207   7.111  0.8629 -0.5047 -2.6188
27707SOL     OW86525   7.689   5.756   3.703  0.2923 -0.2052 -0.0467
27707SOL    HW186526   7.770   5.806   3.699 -0.8415  1.7616  0.6921
27707SOL    HW286527   7.663   5.745   3.611  0.0744  1.3823 -0.1828
27708SOL     OW86528   8.469  10.839   1.377  0.6520 -0.0352  0.7267
27708SOL    HW186529   8.443  10.889   1.454  0.0943 -0.9933  1.1736
27708SOL    HW286530   8.392  10.840   1.320 -0.2422 -2.4475  1.8297
27709SOL     OW86531   1.936   8.238   4.101  0.1492 -0.2059 -0.2406
27709SOL    HW186532   1.999   8.174   4.135  0.9339  0.7429  0.1071
27709SOL    HW286533   1.871   8.248   4.171  1.4304  1.2887  0.7685
27710SOL     OW86534   1.544   8.280  10.165 -0.6912 -0.4202  0.5659
27710SOL    HW186535   1.560   8.239  10.250  2.6339  0.5116  0.4716
27710SOL    HW286536   1.503   8.363  10.185  0.9794  0.2316  1.3662
27711SOL     OW86537   8.881   4.012   5.814  0.1308 -0.5608  0.7553
27711SOL    HW186538   8.832   3.967   5.746  0.7128  0.1169 -0.1286
27711SOL    HW286539   8.862   3.963   5.894  1.5989 -3.0504 -0.3416
27712SOL     OW86540   8.328   4.820   2.652 -0.5347  0.1824 -0.3421
27712SOL    HW186541   8.321   4.725   2.660  2.1835  0.1073  1.8153
27712SOL    HW286542   8.404   4.834   2.595  1.4661  1.0115  2.4031
27713SOL     OW86543   5.162   6.196   9.431 -0.4994  0.0048 -0.1257
27713SOL    HW186544   5.117   6.113   9.451 -0.8574  0.2467  0.0800
27713SOL    HW286545   5.091   6.260   9.422 -0.2143  0.3152 -0.1666
27714SOL     OW86546   6.956   2.703   3.492 -0.5648  0.0280  0.2427
27714SOL    HW186547   6.938   2.749   3.410 -2.0947 -0.1933  0.4300
27714SOL    HW286548   6.961   2.772   3.558 -0.6025  0.1093  0.1602
27715SOL     OW86549   0.148  10.417   0.886 -0.1874 -0.0875 -0.2762
27715SOL    HW186550   0.061  10.380   0.873  0.3968 -1.3365 -0.7215
27715SOL    HW286551   0.205  10.341   0.897  0.8225  0.7243  0.1716
27716SOL     OW86552   7.469   4.473   5.219  0.1158  0.1256 -0.0043
27716SOL    HW186553   7.456   4.444   5.129 -0.6069 -0.2124  0.2147
27716SOL    HW286554   7.455   4.395   5.272 -1.5337  0.7874  0.5554
27717SOL     OW86555   4.950   2.524  10.185  0.1951  0.3053 -0.1468
27717SOL    HW186556   4.978   2.505  10.274 -1.9849  1.4349  0.7849
27717SOL    HW286557   4.939   2.437  10.145  2.0456 -0.2004  0.3623
27718SOL     OW86558  10.407  10.492   0.753 -0.0693  0.2548  0.2567
27718SOL    HW186559  10.407  10.433   0.828 -1.1740  0.3871  0.3660
27718SOL    HW286560  10.336  10.460   0.697 -0.6865  1.4897  0.3247
27719SOL     OW86561   0.662   8.647   5.219 -0.6232 -0.4733 -0.2150
27719SOL    HW186562   0.641   8.560   5.188 -2.0404 -0.5193  0.8172
27719SOL    HW286563   0.719   8.633   5.295  0.5685 -0.4372 -1.0887
27720SOL     OW86564   2.703   6.754   8.713 -0.4757 -0.3275 -0.5314
27720SOL    HW186565   2.680   6.847   8.701 -2.2877 -0.8243 -1.0479
27720SOL    HW286566   2.667   6.710   8.637  0.1147 -1.5149 -0.1359
27721SOL     OW86567   1.880   9.066   4.596 -0.1532  0.4620  0.1760
27721SOL    HW186568   1.959   9.096   4.640 -0.3292  0.8575  0.2247
27721SOL    HW286569   1.821   9.042   4.667  1.0898 -2.9650  0.1491
27722SOL     OW86570  10.093   5.347  10.484 -0.1776 -0.3596  0.1860
27722SOL    HW186571  10.046   5.402  10.422 -0.3082 -0.7602 -0.0746
27722SOL    HW286572  10.025   5.310  10.540  0.0117  0.6010  1.0532
27723SOL     OW86573   1.715   9.709   4.820 -0.6093  0.9261 -0.2039
27723SOL    HW186574   1.765   9.736   4.897 -0.9169  1.2727 -0.1278
27723SOL    HW286575   1.705   9.788   4.768 -0.0093  0.5991 -0.8233
27724SOL     OW86576  10.303   6.318   4.107 -0.2219 -0.1660  0.0109
27724SOL    HW186577  10.233   6.323   4.172 -1.3306 -0.6808 -1.1383
27724SOL    HW286578  10.258   6.317   4.023  1.1073 -1.7427 -0.7093
27725SOL     OW86579   8.283   9.958   3.655  0.5031  0.0535  0.2734
27725SOL    HW186580   8.373   9.986   3.641  2.1667 -3.6554  2.7266
27725SOL    HW286581   8.256   9.999   3.737  0.1617  0.6812 -0.1509
27726SOL     OW86582   4.401   5.155   3.006  0.4563  0.0420 -0.2760
27726SOL    HW186583   4.483   5.183   2.967  1.5537 -1.4489  0.9223
27726SOL    HW286584   4.407   5.183   3.098 -0.1981 -0.4285 -0.0869
27727SOL     OW86585   4.337   9.239   4.061  0.3892 -0.2052  0.2886
27727SOL    HW186586   4.320   9.295   4.137  1.6907 -0.1091  0.5108
27727SOL    HW286587   4.250   9.224   4.023 -0.3096 -0.4391  1.9173
27728SOL     OW86588   8.931   0.652   9.691  0.2050  0.0917 -0.6816
27728SOL    HW186589   8.934   0.557   9.707 -0.8876  0.2939  0.8109
27728SOL    HW286590   8.838   0.674   9.694  0.2410  0.7966 -3.7619
27729SOL     OW86591   6.373  10.412   2.915  0.7847 -0.7479 -0.5194
27729SOL    HW186592   6.379  10.324   2.877  1.9804 -1.2911  0.8686
27729SOL    HW286593   6.444  10.461   2.873 -0.4941 -0.1345 -2.0216
27730SOL     OW86594   1.461   2.626   7.431  0.0437 -0.3990 -0.3656
27730SOL    HW186595   1.485   2.638   7.522 -0.8344 -0.0344 -0.1769
27730SOL    HW286596   1.544   2.608   7.386  0.7653  1.6026  0.1255
27731SOL     OW86597   9.394   8.649   2.823  0.1517  0.0672 -0.2929
27731SOL    HW186598   9.425   8.579   2.879 -1.2504 -1.0524 -0.8803
27731SOL    HW286599   9.471   8.674   2.771  0.4397 -1.6684 -0.7342
27732SOL     OW86600   3.630   5.308  10.802 -0.2898 -0.7458 -0.2396
27732SOL    HW186601   3.574   5.240  10.839 -0.9935  0.0283  0.1438
27732SOL    HW286602   3.586   5.333  10.721 -0.2214 -0.5100 -0.2037
27733SOL     OW86603   9.145   0.647   1.625  0.8669  0.3082 -0.2600
27733SOL    HW186604   9.213   0.595   1.581  1.1322  1.7259 -1.5994
27733SOL    HW286605   9.179   0.661   1.713  1.5410 -0.4088 -0.3981
27734SOL     OW86606   6.805  10.850   3.648 -0.5129 -0.0410 -0.2750
27734SOL    HW186607   6.796  10.944   3.663 -0.4024  0.0904 -1.0187
27734SOL    HW286608   6.732  10.811   3.697 -0.4822  0.4193  0.1418
27735SOL     OW86609   0.896   2.521   7.786  0.6263 -0.0187 -0.7340
27735SOL    HW186610   0.910   2.485   7.874  0.9096  0.2910 -0.6521
27735SOL    HW286611   0.924   2.452   7.727  0.9159 -0.0352 -0.5772
27736SOL     OW86612   8.812   7.262   3.565  0.1391 -0.6369  0.1597
27736SOL    HW186613   8.796   7.333   3.503 -0.1115  0.4200  1.4127
27736SOL    HW286614   8.902   7.274   3.593 -0.5111  0.3997  1.8752
27737SOL     OW86615   0.080   3.607   9.679  0.1445  0.2226  0.5008
27737SOL    HW186616   0.159   3.609   9.625 -0.4304 -2.3765 -0.5027
27737SOL    HW286617   0.099   3.668   9.750  3.1641 -0.5282  0.4174
27738SOL     OW86618   8.734   1.599   4.503  0.1042  0.6955  0.5345
27738SOL    HW186619   8.707   1.554   4.423 -0.5556  1.1645  0.4928
27738SOL    HW286620   8.817   1.642   4.479 -0.0496  0.7723  0.1259
27739SOL     OW86621   0.566   4.001   3.809  0.1575 -0.2281  0.4047
27739SOL    HW186622   0.539   3.927   3.754 -2.0307  0.8879 -0.0741
27739SOL    HW286623   0.494   4.064   3.801  2.1486  2.1213  0.5100
27740SOL     OW86624   8.128   4.290   5.993 -0.3272 -0.1000 -0.1272
27740SOL    HW186625   8.144   4.196   5.983 -0.0255 -0.1354  0.7111
27740SOL    HW286626   8.203   4.332   5.951  0.4813 -0.2503  1.1420
27741SOL     OW86627   5.198   7.117   3.264  0.2311  0.0806 -0.6484
27741SOL    HW186628   5.227   7.048   3.324  1.4306  0.4452 -0.7960
27741SOL    HW286629   5.103   7.119   3.274  0.4959  0.9085  2.1001
27742SOL     OW86630   2.590   5.969   3.678  0.5287  0.6787 -0.2735
27742SOL    HW186631   2.596   6.059   3.709  0.4510  1.3734 -2.2073
27742SOL    HW286632   2.538   5.924   3.744  0.6671  2.0240  0.7636
27743SOL     OW86633   5.231   6.716  10.565  0.4093 -0.0630  0.3586
27743SOL    HW186634   5.219   6.630  10.526  2.1738 -0.9578  1.7455
27743SOL    HW286635   5.304   6.706  10.625  0.5735  2.3856  0.6303
27744SOL     OW86636   3.950   1.993   5.328 -0.1866  0.1079  0.6749
27744SOL    HW186637   3.860   1.973   5.353  0.1430  0.6921  2.3922
27744SOL    HW286638   3.994   2.012   5.411  1.5310 -0.2163 -0.1480
27745SOL     OW86639   7.463   4.733   8.738 -0.7436 -0.1093  0.2620
27745SOL    HW186640   7.465   4.784   8.820  0.1721  1.5057 -0.7276
27745SOL    HW286641   7.478   4.798   8.670  0.9285 -1.8016 -1.0213
27746SOL     OW86642   3.991   0.573   2.082  0.0301  0.0504  0.6651
27746SOL    HW186643   3.992   0.535   1.994  1.4236  0.1744  0.6282
27746SOL    HW286644   3.991   0.498   2.141  0.7812 -0.0218  0.5740
27747SOL     OW86645   3.426  10.614   4.401 -0.2267  0.2916  0.7148
27747SOL    HW186646   3.385  10.578   4.480  0.0908  2.3182  1.8285
27747SOL    HW286647   3.461  10.699   4.428  1.0145  0.4517 -1.2957
27748SOL     OW86648   4.640   9.830   4.329  0.4000 -0.2511  0.7093
27748SOL    HW186649   4.650   9.921   4.358  0.7922  0.7195 -2.3526
27748SOL    HW286650   4.725   9.807   4.291  0.0373 -1.6389  0.6975
27749SOL     OW86651   9.306   3.550   0.206 -0.4430 -0.1257  0.4855
27749SOL    HW186652   9.374   3.615   0.222  1.2537 -1.7516  0.0687
27749SOL    HW286653   9.296   3.505   0.290 -2.3441  1.2814  1.0676
27750SOL     OW86654   7.174   5.990   5.349  0.5062  0.3338 -0.6142
27750SOL    HW186655   7.090   5.945   5.336  0.4728  0.3444 -0.4365
27750SOL    HW286656   7.235   5.922   5.376  0.1163  0.6207  1.0385
27751SOL     OW86657   7.998   8.102   6.217 -0.2829  0.5397  0.0649
27751SOL    HW186658   7.982   8.123   6.125 -2.0242 -0.3586  0.1416
27751SOL    HW286659   7.928   8.040   6.240 -0.1558  1.1260  2.1173
27752SOL     OW86660   8.632   4.187   6.927  0.0038 -0.4412 -0.4952
27752SOL    HW186661   8.629   4.214   6.835 -0.9294 -0.6783 -0.5446
27752SOL    HW286662   8.599   4.097   6.927  0.1245 -0.4859  0.0539
27753SOL     OW86663   5.079   3.326   8.955 -0.1248  0.3882  0.2617
27753SOL    HW186664   5.058   3.380   9.031 -1.5032  0.5200 -0.1892
27753SOL    HW286665   4.994   3.295   8.924  0.5922 -1.2920 -0.0431
27754SOL     OW86666   2.696   5.267   7.692  0.6554 -0.6780 -0.3363
27754SOL    HW186667   2.641   5.308   7.759 -0.3349 -1.3524 -0.7160
27754SOL    HW286668   2.668   5.175   7.691  1.8149 -1.0329 -0.5231
27755SOL     OW86669   7.599   1.917   2.884 -0.3672  0.4554 -0.2689
27755SOL    HW186670   7.690   1.946   2.893  0.0503 -1.0698  0.4958
27755SOL    HW286671   7.553   1.995   2.852  0.9663  1.6283  0.5649
27756SOL     OW86672   3.709   2.692  10.846  0.1303 -0.2047 -0.3442
27756SOL    HW186673   3.742   2.683  10.936 -1.6637 -0.5368  0.3128
27756SOL    HW286674   3.779   2.657  10.791  1.3039  0.1107  0.9118
27757SOL     OW86675   8.290   9.766   8.455 -0.2763 -0.0239 -0.0950
27757SOL    HW186676   8.271   9.824   8.528  1.2218 -0.7375  0.8790
27757SOL    HW286677   8.371   9.722   8.479 -1.1228 -2.2000 -1.0132
27758SOL     OW86678   1.213   9.187   9.416 -0.2671  0.0589 -0.1597
27758SOL    HW186679   1.156   9.263   9.423 -1.1774 -0.6438  0.2004
27758SOL    HW286680   1.301   9.223   9.412 -0.6476  1.1006  0.6909
27759SOL     OW86681   5.988   8.245   6.041  0.5584  0.4648  0.6294
27759SOL    HW186682   6.024   8.241   6.130  1.8707  2.2527  0.2134
27759SOL    HW286683   6.048   8.304   5.994 -0.2223 -0.3149 -1.3888
27760SOL     OW86684   4.676   1.793   1.418 -0.1627 -0.3520 -0.5032
27760SOL    HW186685   4.628   1.734   1.360 -0.5569  0.4134 -0.9527
27760SOL    HW286686   4.702   1.737   1.492 -0.9090 -0.9861 -0.7106
27761SOL     OW86687  10.402  10.718  10.903  0.0230  0.1018 -0.0811
27761SOL    HW186688  10.385  10.800  10.857 -1.5695  0.6990  1.4899
27761SOL    HW286689  10.398  10.650  10.836  0.7182  1.2402 -1.2842
27762SOL     OW86690   0.397   0.476   9.433 -0.4237 -0.2016 -0.3412
27762SOL    HW186691   0.441   0.398   9.465 -0.7255 -0.2639 -0.0702
27762SOL    HW286692   0.364   0.519   9.512 -0.6667 -0.0523 -0.5227
27763SOL     OW86693   1.420   2.874   7.177  0.1799  0.6036 -0.4122
27763SOL    HW186694   1.476   2.887   7.100  0.2138 -0.8570 -0.6378
27763SOL    HW286695   1.474   2.825   7.238 -0.1636  0.9560  0.1728
27764SOL     OW86696   3.206   3.853   6.022 -0.2228 -0.0248 -0.5793
27764SOL    HW186697   3.218   3.799   5.944 -0.4781 -0.3042 -0.4219
27764SOL    HW286698   3.244   3.938   5.998  0.1187 -0.2514 -0.8470
27765SOL     OW86699   8.557   6.840   7.779 -0.0361 -0.1969 -0.7604
27765SOL    HW186700   8.476   6.822   7.731 -0.4491 -2.6516  0.7909
27765SOL    HW286701   8.620   6.778   7.743  1.5845  2.5238 -2.8334
27766SOL     OW86702   7.002   5.400   7.833  0.2449 -0.0361 -0.3131
27766SOL    HW186703   6.924   5.449   7.858  0.2219  0.6199 -1.6571
27766SOL    HW286704   7.031   5.440   7.752  2.7891  0.6122  0.8763
27767SOL     OW86705   1.004   2.278   6.406 -0.2130  0.0059 -0.0280
27767SOL    HW186706   0.956   2.360   6.395 -0.6774 -0.2155  0.3401
27767SOL    HW286707   0.954   2.228   6.470 -1.1477 -1.4738 -1.8361
27768SOL     OW86708   4.622   9.124   1.403 -0.2258 -0.8376  0.2033
27768SOL    HW186709   4.698   9.092   1.450 -1.1799 -2.0647  0.9272
27768SOL    HW286710   4.606   9.058   1.335 -0.9009 -0.8157  0.3342
27769SOL     OW86711   3.408   8.002   9.418  0.0455  0.1983  0.2176
27769SOL    HW186712   3.475   7.960   9.473  1.3101  1.0160 -0.6876
27769SOL    HW286713   3.415   7.959   9.333 -0.2267  0.6391 -0.0341
27770SOL     OW86714   7.019   3.011   5.656 -0.0524 -0.3627  0.4502
27770SOL    HW186715   7.100   3.028   5.704 -0.2631 -0.4151  0.8235
27770SOL    HW286716   6.981   3.097   5.641  0.5021 -0.2721 -0.4790
27771SOL     OW86717   1.533   7.016   5.341 -0.0763  0.0062 -0.1653
27771SOL    HW186718   1.603   7.081   5.334 -0.5933  0.5649 -0.2084
27771SOL    HW286719   1.452   7.068   5.337 -0.4741 -0.4921  1.2453
27772SOL     OW86720   0.202   1.580   7.623 -0.7241 -0.2175 -0.1168
27772SOL    HW186721   0.274   1.611   7.678 -1.0931  2.3130 -0.9880
27772SOL    HW286722   0.202   1.485   7.635  1.6336 -0.0918  1.2421
27773SOL     OW86723   3.347   7.254   3.948  0.3447  0.3032  0.4001
27773SOL    HW186724   3.360   7.223   3.859 -0.6210  1.5667 -0.1854
27773SOL    HW286725   3.390   7.188   4.003  1.9103  0.1076 -1.0474
27774SOL     OW86726   7.033   7.557   4.423 -0.1451  0.2546 -0.1374
27774SOL    HW186727   7.002   7.640   4.387 -0.2778 -0.4746 -1.7353
27774SOL    HW286728   7.125   7.572   4.443 -0.3571  1.0088  0.3036
27775SOL     OW86729  10.529   8.900   8.940  0.3540 -0.0957  0.5617
27775SOL    HW186730  10.607   8.954   8.929  0.3533 -0.1884  0.0951
27775SOL    HW286731  10.561   8.822   8.986  0.4818  0.0090  0.6537
27776SOL     OW86732   9.324   1.492   3.240 -0.2222  0.4879  0.1716
27776SOL    HW186733   9.252   1.531   3.192  0.3059  0.0843 -0.9874
27776SOL    HW286734   9.290   1.408   3.271 -0.1029  0.0758 -0.7984
27777SOL     OW86735   2.520   7.333   8.658  0.4703  0.5244  0.3527
27777SOL    HW186736   2.474   7.399   8.711 -0.0005 -2.0186  3.2463
27777SOL    HW286737   2.613   7.348   8.678  0.6466  2.5004 -1.7174
27778SOL     OW86738   1.979   3.041  10.732  0.1681 -0.1493 -0.4964
27778SOL    HW186739   2.017   2.985  10.799 -0.5568 -1.2162 -0.9634
27778SOL    HW286740   2.053   3.063  10.675  0.6994  0.4167  0.4055
27779SOL     OW86741  10.056   3.457   3.068 -0.4444 -0.1068 -0.7289
27779SOL    HW186742  10.118   3.384   3.067  0.5526  0.6973  0.5442
27779SOL    HW286743   9.991   3.435   3.001  1.0151 -1.1244 -1.8298
27780SOL     OW86744   6.085   8.935  10.769  0.6429 -0.7999  0.0784
27780SOL    HW186745   6.150   8.871  10.795 -0.0021 -2.4759 -2.3059
27780SOL    HW286746   6.135   9.014  10.749  1.8250 -1.7379 -0.6795
27781SOL     OW86747   4.487   1.121   1.575 -0.7195  0.6201  0.5028
27781SOL    HW186748   4.551   1.049   1.574  0.6490  1.8272  0.5661
27781SOL    HW286749   4.469   1.135   1.668 -0.5549  0.7354  0.5177
27782SOL     OW86750   4.784   0.008   1.175  0.0567  0.3412  0.1069
27782SOL    HW186751   4.715   0.039   1.116 -0.6001  0.4195  0.9157
27782SOL    HW286752   4.859  -0.006   1.118 -0.8150 -0.3588 -0.8863
27783SOL     OW86753   8.751   8.215   9.532  0.0979 -0.3183  0.6199
27783SOL    HW186754   8.715   8.261   9.607  0.1880 -0.1468  0.5565
27783SOL    HW286755   8.838   8.251   9.520 -1.4188  2.7160 -2.1626
27784SOL     OW86756   9.125   3.190  10.417  0.3775 -0.0518  0.3194
27784SOL    HW186757   9.044   3.178  10.366  0.8094 -0.1357 -0.3558
27784SOL    HW286758   9.164   3.103  10.421 -0.0656 -0.2074  1.5140
27785SOL     OW86759  10.706   4.588   7.188  0.2774  0.0684  0.7941
27785SOL    HW186760  10.715   4.597   7.283  3.4570 -0.3673  0.6147
27785SOL    HW286761  10.626   4.636   7.166 -0.4680  0.2275  3.6747
27786SOL     OW86762  10.204   6.756   2.115 -0.3774 -0.4200 -0.1473
27786SOL    HW186763  10.178   6.668   2.090  0.0180 -0.0617 -1.8806
27786SOL    HW286764  10.209   6.804   2.033  0.8095  0.8467  0.6382
27787SOL     OW86765   4.360   9.746   0.957  0.0494  0.2357 -0.2672
27787SOL    HW186766   4.300   9.821   0.948 -0.6842 -0.0728  1.7293
27787SOL    HW286767   4.305   9.676   0.991  0.7687 -1.2007 -2.0248
27788SOL     OW86768   4.273   6.214   1.019 -0.1002  0.1460 -0.4309
27788SOL    HW186769   4.203   6.205   0.954 -0.9588 -1.5395  0.7014
27788SOL    HW286770   4.267   6.305   1.047 -1.7916  0.0563 -0.4297
27789SOL     OW86771   9.463   6.134   2.485  0.0550  0.0012 -0.2046
27789SOL    HW186772   9.385   6.122   2.432  0.6928  0.6658 -1.3218
27789SOL    HW286773   9.533   6.152   2.422  1.0027 -0.0355  0.8035
27790SOL     OW86774   6.245   9.151   4.228 -0.2046 -0.0976  0.3680
27790SOL    HW186775   6.271   9.229   4.277 -1.5847  0.5159  0.1700
27790SOL    HW286776   6.326   9.116   4.192  0.3193  1.8246 -0.3690
27791SOL     OW86777   9.212   4.952   1.233  0.3533 -0.0615 -0.4373
27791SOL    HW186778   9.294   4.973   1.277  0.1928 -0.9184  0.2995
27791SOL    HW286779   9.237   4.938   1.141  0.9981 -0.1343 -0.2538
27792SOL     OW86780   7.045   1.031   8.049  0.1340  0.1450 -0.0498
27792SOL    HW186781   7.007   1.108   8.090 -3.2475 -1.8949  0.7721
27792SOL    HW286782   7.055   1.056   7.957 -1.2738  1.4229  0.1293
27793SOL     OW86783   8.393   4.373   5.169  0.0928 -0.1035  0.1475
27793SOL    HW186784   8.355   4.415   5.092  0.3852 -0.0005  0.0563
27793SOL    HW286785   8.349   4.414   5.243  0.1688  0.1586  0.0489
27794SOL     OW86786   6.967   1.081   0.195 -0.0241  0.1061 -0.1567
27794SOL    HW186787   6.933   1.007   0.246  1.1747 -0.7384 -0.5592
27794SOL    HW286788   7.053   1.099   0.233 -0.2548  1.2299 -0.1408
27795SOL     OW86789   6.949   6.413   8.781 -0.4568 -0.3975  0.2167
27795SOL    HW186790   7.018   6.348   8.794  0.8087  1.0880  1.0461
27795SOL    HW286791   6.970   6.483   8.842 -1.3920  1.1331 -1.1717
27796SOL     OW86792  10.972   4.883   8.058  0.5692 -0.0313 -0.5572
27796SOL    HW186793  10.984   4.796   8.020  0.5500  0.1603 -1.0063
27796SOL    HW286794  10.881   4.885   8.087  0.6942 -0.3151 -0.1511
27797SOL     OW86795   5.831   7.696   5.490  0.0089  0.2702 -0.1775
27797SOL    HW186796   5.750   7.698   5.540  0.4626  1.8526  0.5222
27797SOL    HW286797   5.880   7.622   5.525 -0.7213 -0.1012  0.0551
27798SOL     OW86798   3.572   3.476   9.001  0.1504 -0.1278 -0.1472
27798SOL    HW186799   3.624   3.532   8.943  1.0333  0.1226  0.8829
27798SOL    HW286800   3.629   3.457   9.075 -0.2342 -2.1782 -0.3388
27799SOL     OW86801   6.720   9.281   6.274 -0.3670  0.9344 -0.5170
27799SOL    HW186802   6.644   9.290   6.216  0.0583  0.5320 -1.1428
27799SOL    HW286803   6.784   9.232   6.222 -1.0792 -2.0433  1.3485
27800SOL     OW86804   3.408   6.954   8.611 -0.5724 -0.2494  0.3874
27800SOL    HW186805   3.391   6.904   8.531  0.2228  0.1712 -0.0520
27800SOL    HW286806   3.474   6.903   8.658 -2.1088 -1.2427  1.4894
27801SOL     OW86807   1.718   1.140   1.006  0.5620 -0.0909 -0.8461
27801SOL    HW186808   1.702   1.135   0.911 -3.7519 -0.9596 -0.1981
27801SOL    HW286809   1.714   1.234   1.025 -0.3749 -0.0219 -1.3135
27802SOL     OW86810   6.346   8.427   1.451 -0.7032 -0.1992  0.0499
27802SOL    HW186811   6.371   8.499   1.392  1.3883 -1.7439 -0.9975
27802SOL    HW286812   6.261   8.398   1.419 -0.0358 -0.3632 -1.6261
27803SOL     OW86813   5.635   8.849   5.973  0.4625 -0.5968  0.3927
27803SOL    HW186814   5.568   8.788   6.003  0.0640 -1.1218 -1.4704
27803SOL    HW286815   5.700   8.793   5.929  1.0444  0.1280  0.3252
27804SOL     OW86816   4.338  10.065   2.588 -0.1274 -0.3357  0.1262
27804SOL    HW186817   4.279  10.006   2.636 -1.0150 -0.8939 -1.5914
27804SOL    HW286818   4.296  10.075   2.502  2.1212 -0.4833 -1.0176
27805SOL     OW86819   2.649   8.515   7.277 -0.1109 -0.2525  0.1727
27805SOL    HW186820   2.586   8.550   7.214 -0.0169 -0.0230  0.2072
27805SOL    HW286821   2.602   8.512   7.360  1.0356  3.4439  1.0521
27806SOL     OW86822   0.265   8.180   1.224  1.1313  0.2305  0.2067
27806SOL    HW186823   0.214   8.118   1.277  0.4098  0.7535  0.1340
27806SOL    HW286824   0.343   8.198   1.277  1.4646 -0.9187  0.1223
27807SOL     OW86825   1.427   6.881   8.437  0.8264  0.2527 -0.0029
27807SOL    HW186826   1.375   6.868   8.358  0.1820 -0.4706  0.5366
27807SOL    HW286827   1.515   6.898   8.405  1.0961 -2.5050 -0.8301
27808SOL     OW86828   1.193   1.116   6.289 -0.3596 -0.0713  0.2835
27808SOL    HW186829   1.141   1.036   6.284  0.5726 -0.7828  1.6808
27808SOL    HW286830   1.277   1.094   6.249 -0.2664  0.3568  0.2327
27809SOL     OW86831   6.338   6.589   5.383  0.9831  0.3929  0.0492
27809SOL    HW186832   6.345   6.575   5.289  0.5060 -1.6273  0.2818
27809SOL    HW286833   6.246   6.611   5.397  0.8863 -0.0516  0.1217
27810SOL     OW86834   4.407   6.018   5.689  0.0318  0.0681 -0.2042
27810SOL    HW186835   4.441   6.091   5.638 -0.5813  1.2384  1.0550
27810SOL    HW286836   4.484   5.969   5.716  0.4884  0.6827 -0.3864
27811SOL     OW86837   0.713   1.338   6.102 -0.3334 -0.0460 -0.5826
27811SOL    HW186838   0.768   1.413   6.121 -3.8964  2.3220  0.8495
27811SOL    HW286839   0.752   1.266   6.150  1.6104  1.4999  0.1989
27812SOL     OW86840   9.375   6.621   8.364 -0.2052  0.8129  0.4355
27812SOL    HW186841   9.359   6.703   8.410 -2.2707  0.8387 -0.2696
27812SOL    HW286842   9.354   6.641   8.272  0.1378 -0.2537  0.1177
27813SOL     OW86843   8.151   5.760   2.359  0.2704 -0.3827  0.5347
27813SOL    HW186844   8.246   5.752   2.366  0.7971  0.4875 -4.3322
27813SOL    HW286845   8.134   5.854   2.355 -0.6348 -0.5729 -0.3533
27814SOL     OW86846   6.165   1.596   2.834  0.0678  0.1912 -0.7989
27814SOL    HW186847   6.087   1.651   2.825 -2.1598 -3.0414 -2.1433
27814SOL    HW286848   6.134   1.518   2.880  2.6488 -0.9272 -0.8712
27815SOL     OW86849   8.150   6.628   1.077  0.0110 -0.2998 -0.3143
27815SOL    HW186850   8.057   6.613   1.093 -0.0217 -0.0658 -0.2786
27815SOL    HW286851   8.174   6.699   1.137  0.1233 -0.1026 -0.5905
27816SOL     OW86852  10.692   7.888   6.713  0.1160  0.4394 -0.7525
27816SOL    HW186853  10.712   7.916   6.803  0.0753 -1.2089 -0.2050
27816SOL    HW286854  10.628   7.951   6.682  0.5998  1.3983  0.1611
27817SOL     OW86855  10.289   4.293   4.372  0.4178  0.0219  0.0185
27817SOL    HW186856  10.358   4.299   4.437  0.3979  1.5779 -0.0894
27817SOL    HW286857  10.237   4.372   4.384 -1.8116 -1.4705  0.6105
27818SOL     OW86858   5.069   3.106   2.299 -0.1003 -0.1118 -0.5295
27818SOL    HW186859   4.983   3.074   2.272 -0.0962 -0.6554  0.0792
27818SOL    HW286860   5.087   3.180   2.241 -1.4422  0.6698  0.0161
27819SOL     OW86861   3.385  10.917   0.504  0.3392  0.0674 -0.2526
27819SOL    HW186862   3.437  10.902   0.583  0.8982 -0.4688 -0.7210
27819SOL    HW286863   3.413  10.848   0.443  0.1086  0.6471 -1.0163
27820SOL     OW86864   4.613   1.323   8.894  0.1614  0.3083  0.1717
27820SOL    HW186865   4.542   1.362   8.844  0.3644 -0.0518 -0.4062
27820SOL    HW286866   4.591   1.341   8.986 -0.6294  0.2654 -0.0061
27821SOL     OW86867   9.936   7.824   0.483  0.0581 -0.2755 -0.9126
27821SOL    HW186868  10.002   7.758   0.506 -2.2017 -2.5746 -0.7786
27821SOL    HW286869   9.920   7.809   0.390  1.8208  2.2701 -1.6845
27822SOL     OW86870  10.755   5.783   3.605 -0.4383 -0.0101  0.0043
27822SOL    HW186871  10.714   5.795   3.520 -0.6948  0.4938  0.1947
27822SOL    HW286872  10.703   5.838   3.664  0.5019  0.6159  0.2497
27823SOL     OW86873   6.853   0.810   9.587  0.2523 -0.2438  0.7396
27823SOL    HW186874   6.888   0.807   9.676 -0.3526  0.3831  1.0026
27823SOL    HW286875   6.910   0.870   9.541 -0.6131  0.9796  1.2364
27824SOL     OW86876   1.993   6.212   0.875 -0.0557  0.4839 -0.3056
27824SOL    HW186877   1.917   6.153   0.875  0.9408 -0.8450 -2.1159
27824SOL    HW286878   2.000   6.242   0.784 -0.7484  3.7462  0.6264
27825SOL     OW86879   0.236   5.831   5.631  0.4568  0.0490  0.6507
27825SOL    HW186880   0.309   5.863   5.684  0.8409 -2.4442  1.6951
27825SOL    HW286881   0.277   5.777   5.564 -0.0611  2.8029 -1.9765
27826SOL     OW86882   5.063   7.461   0.097 -0.5322  0.1369 -0.1073
27826SOL    HW186883   5.082   7.496   0.010 -1.3746 -0.0554 -0.3763
27826SOL    HW286884   5.059   7.366   0.085 -0.6120  0.1062  0.1456
27827SOL     OW86885   3.451   8.446   8.709 -0.3076  0.0389 -0.6441
27827SOL    HW186886   3.422   8.375   8.652  1.5286 -0.5761 -0.8391
27827SOL    HW286887   3.537   8.470   8.676  1.0219 -0.6566  2.1450
27828SOL     OW86888   5.130   7.834   6.122 -0.5972  0.5915 -0.5766
27828SOL    HW186889   5.186   7.789   6.059 -2.2474 -1.0346 -0.9414
27828SOL    HW286890   5.099   7.912   6.076 -1.7821 -0.5803 -1.8249
27829SOL     OW86891   1.243   1.761   3.847  0.2150 -0.3136  0.6456
27829SOL    HW186892   1.180   1.749   3.776  1.9997 -2.5526 -0.5894
27829SOL    HW286893   1.291   1.840   3.824 -0.5350  0.0717  0.3943
27830SOL     OW86894   6.805   1.780   4.943  0.4758  0.8202 -0.2581
27830SOL    HW186895   6.887   1.827   4.925  1.0407 -0.1833 -0.3512
27830SOL    HW286896   6.782   1.806   5.032  1.2116  0.6584 -0.0152
27831SOL     OW86897   2.226   0.200   0.873  0.6951 -0.3055 -0.6054
27831SOL    HW186898   2.318   0.202   0.902  0.4192 -1.9146  0.4719
27831SOL    HW286899   2.231   0.206   0.778  1.8998  0.2273 -0.5190
27832SOL     OW86900   9.867   3.704   4.665  0.6364  0.1728  0.3036
27832SOL    HW186901   9.857   3.800   4.663  0.8918  0.2167  0.7845
27832SOL    HW286902   9.922   3.684   4.590  1.6678  0.5593  0.9400
27833SOL     OW86903   4.175   0.929   3.804  0.1228 -0.0226  0.1540
27833SOL    HW186904   4.160   0.854   3.748 -1.1147  0.0820  0.3217
27833SOL    HW286905   4.102   0.988   3.786  1.2695  1.3111 -0.2482
27834SOL     OW86906   8.438   9.112   1.721 -0.5387  0.4324 -0.0956
27834SOL    HW186907   8.469   9.063   1.797 -0.9834 -0.5420 -0.5371
27834SOL    HW286908   8.346   9.131   1.740 -0.0325  2.2091  0.6405
27835SOL     OW86909   0.466   6.473   4.764  0.0580  0.0932  0.2976
27835SOL    HW186910   0.385   6.523   4.767  1.0081  1.8800 -2.3931
27835SOL    HW286911   0.476   6.440   4.854 -2.1563  2.1918  1.3949
27836SOL     OW86912   7.635   9.063   5.094 -0.6289  0.2603  0.3583
27836SOL    HW186913   7.715   9.042   5.142 -0.8242 -1.3485  0.0173
27836SOL    HW286914   7.651   9.032   5.005 -1.3239  0.6780  0.0803
27837SOL     OW86915   5.439   7.357   3.795  0.1399 -0.5351 -0.6810
27837SOL    HW186916   5.433   7.263   3.811  0.2732 -0.5388 -0.6493
27837SOL    HW286917   5.399   7.370   3.709 -0.6095 -0.5137 -0.3317
27838SOL     OW86918   4.853   5.533   4.638 -0.0819 -0.0869 -0.4231
27838SOL    HW186919   4.930   5.589   4.645 -0.3170  0.1986 -0.0854
27838SOL    HW286920   4.779   5.593   4.649 -0.4209 -0.0025 -2.8296
27839SOL     OW86921   8.549  10.017   7.274  0.1155 -0.2364  0.1257
27839SOL    HW186922   8.462   9.993   7.305  0.8260 -0.2324  2.2177
27839SOL    HW286923   8.609   9.970   7.332  1.5449 -1.6398 -2.3930
27840SOL     OW86924   7.710   3.408   0.030 -0.0885  0.2682 -0.0280
27840SOL    HW186925   7.648   3.420  -0.042 -1.0775  1.1916  0.9531
27840SOL    HW286926   7.796   3.425  -0.009 -0.7050  1.8709 -0.7383
27841SOL     OW86927   9.395   9.493  10.055  0.0202 -0.2109 -0.0306
27841SOL    HW186928   9.490   9.498  10.066 -0.4467  1.1625  4.3924
27841SOL    HW286929   9.378   9.400  10.038  1.9644 -1.0266  2.0940
27842SOL     OW86930   4.554  10.357   1.880  0.2258 -0.3722 -0.1877
27842SOL    HW186931   4.523  10.320   1.797  0.1786 -0.0113 -0.3331
27842SOL    HW286932   4.641  10.391   1.860 -0.0005  0.1810 -0.2182
27843SOL     OW86933   7.158   5.285   9.513 -0.6447  0.4162  0.1158
27843SOL    HW186934   7.097   5.349   9.476 -1.1308  0.1685  0.5002
27843SOL    HW286935   7.107   5.236   9.576  0.2447  0.9821  1.3032
27844SOL     OW86936   4.049   7.343   3.111  0.2430  0.1045  0.0624
27844SOL    HW186937   4.064   7.279   3.181 -0.3505  0.1568  0.2450
27844SOL    HW286938   4.128   7.396   3.109  1.1463 -1.2634 -0.7473
27845SOL     OW86939   1.450   4.389   0.358  0.6443  0.1219 -0.1336
27845SOL    HW186940   1.523   4.330   0.376  1.5831  0.2420 -3.1435
27845SOL    HW286941   1.490   4.464   0.316 -0.8721  1.6740  1.1168
27846SOL     OW86942   9.669   1.306   0.148 -0.4744  0.3803 -0.2003
27846SOL    HW186943   9.698   1.330   0.060  0.6115 -0.8975 -0.2113
27846SOL    HW286944   9.701   1.216   0.160 -0.6368  0.5320  1.4756
27847SOL     OW86945   1.827   6.427   1.922 -0.3626 -0.1361  0.1259
27847SOL    HW186946   1.831   6.515   1.961 -0.6677 -0.1496  0.1878
27847SOL    HW286947   1.781   6.440   1.840  0.1626 -0.1320 -0.1676
27848SOL     OW86948   6.821   1.649   8.596 -0.2460 -0.3885  0.5575
27848SOL    HW186949   6.759   1.722   8.591 -0.2994 -0.4357  0.5331
27848SOL    HW286950   6.776   1.576   8.553  0.2144 -0.1538 -0.3413
27849SOL     OW86951   0.828   3.675   7.088  0.1582  0.1315  0.4244
27849SOL    HW186952   0.804   3.741   7.152 -1.1401 -0.5910  0.6932
27849SOL    HW286953   0.857   3.725   7.012  0.8622  0.9963  1.2469
27850SOL     OW86954   5.720  10.678   6.038  0.0777  0.7153 -0.4817
27850SOL    HW186955   5.747  10.638   5.955  0.1018 -0.3506  0.0252
27850SOL    HW286956   5.669  10.755   6.012  0.0188  0.3488 -1.4851
27851SOL     OW86957   1.547   6.903   7.471  0.2969 -0.0467 -0.4921
27851SOL    HW186958   1.496   6.884   7.550  1.2312 -0.0683  0.1111
27851SOL    HW286959   1.514   6.842   7.405 -0.9774  0.4416 -0.3308
27852SOL     OW86960   6.087   9.637   7.055 -0.0227 -0.4947  0.4764
27852SOL    HW186961   6.135   9.686   7.122 -1.2395 -0.5718  1.4363
27852SOL    HW286962   6.015   9.595   7.103 -1.2840 -0.0542 -0.9733
27853SOL     OW86963   8.658   4.019   4.804 -0.0890  0.2192  0.7651
27853SOL    HW186964   8.631   4.105   4.772  0.5602  1.1052  2.5159
27853SOL    HW286965   8.579   3.966   4.802 -0.1633  0.3883 -1.7941
27854SOL     OW86966   2.749   2.951   3.413 -0.3802  0.6028  0.2519
27854SOL    HW186967   2.702   2.894   3.352  0.7820  0.1218 -0.2088
27854SOL    HW286968   2.704   2.939   3.496  0.0157 -1.2227  0.2265
27855SOL     OW86969   7.371   4.056   9.442 -0.5758 -0.2956  0.2442
27855SOL    HW186970   7.461   4.085   9.427 -0.4818 -1.5179 -1.8343
27855SOL    HW286971   7.376   3.998   9.518  0.8737 -2.3843 -1.3763
27856SOL     OW86972   7.186   5.518   5.887 -0.7244 -0.0460  0.2277
27856SOL    HW186973   7.245   5.478   5.951 -1.1543 -0.2845  0.4827
27856SOL    HW286974   7.205   5.472   5.805  1.2531  1.6633 -0.2857
27857SOL     OW86975   4.428   6.909   4.869 -0.1557 -0.5537  0.4076
27857SOL    HW186976   4.466   6.906   4.782 -1.1013 -0.2662 -0.0213
27857SOL    HW286977   4.411   7.002   4.885  1.0512 -0.4801  1.3626
27858SOL     OW86978  10.442   6.401   6.360  0.0827 -0.0883 -0.3919
27858SOL    HW186979  10.353   6.366   6.372  0.2537 -0.3375  0.2040
27858SOL    HW286980  10.496   6.346   6.417  0.5202  0.4735 -0.2696
27859SOL     OW86981   4.619   9.534   0.607  0.4629  0.2485  0.0540
27859SOL    HW186982   4.583   9.446   0.601  0.8229  0.0985  0.0997
27859SOL    HW286983   4.599   9.574   0.523  1.6831 -0.4028 -0.5518
27860SOL     OW86984   6.604   2.912   9.722  0.5618  0.1075 -0.6463
27860SOL    HW186985   6.526   2.865   9.752  1.3482 -1.3931 -0.9729
27860SOL    HW286986   6.639   2.953   9.801  0.7944 -1.1848 -0.0692
27861SOL     OW86987   3.102   1.007   7.277  0.3063  0.3270  0.0620
27861SOL    HW186988   3.047   0.951   7.222  0.8463 -1.8723  1.7209
27861SOL    HW286989   3.054   1.090   7.282 -1.5427 -0.6669 -0.6975
27862SOL     OW86990  10.880   7.045   6.539  0.0277 -0.1920  0.4697
27862SOL    HW186991  10.838   6.996   6.468  0.0002  0.2435  0.1809
27862SOL    HW286992  10.962   6.999   6.555 -1.2205 -1.9479  2.0617
27863SOL     OW86993   2.987   7.187   8.892  0.6109 -0.2542 -0.3758
27863SOL    HW186994   3.053   7.143   8.838  0.8611 -0.5203  0.1428
27863SOL    HW286995   2.944   7.116   8.940  0.8651  0.0452  0.2968
27864SOL     OW86996   2.226   4.862  10.913  0.1241  0.3046 -0.0381
27864SOL    HW186997   2.268   4.792  10.962 -0.0484  0.7275  0.7308
27864SOL    HW286998   2.252   4.942  10.959  0.5723  0.7713 -1.0858
27865SOL     OW86999   6.228   1.654   9.727 -0.4878  0.6935 -0.5208
27865SOL    HW187000   6.291   1.725   9.721 -1.6933  1.7197 -1.2385
27865SOL    HW287001   6.235   1.609   9.642  2.1063 -1.6650  0.8508
27866SOL     OW87002   3.533   8.235   3.504  0.4686  0.3229 -0.0643
27866SOL    HW187003   3.456   8.291   3.498 -0.4132 -0.8277  0.1750
27866SOL    HW287004   3.507   8.153   3.462  1.8164  0.1710 -0.6435
27867SOL     OW87005   2.857   9.509   9.908  0.3288  0.4673  0.1472
27867SOL    HW187006   2.786   9.515   9.972  1.1419 -1.4110  1.2828
27867SOL    HW287007   2.891   9.598   9.901 -2.2020  1.4083 -0.5194
27868SOL     OW87008   8.702   5.358   7.809 -0.3259  0.6635 -0.0222
27868SOL    HW187009   8.788   5.361   7.768 -0.4477  0.3378 -0.3034
27868SOL    HW287010   8.698   5.272   7.851  0.3188  1.5120  1.8116
27869SOL     OW87011   4.936   4.841   6.869 -0.3479 -0.0624  0.0055
27869SOL    HW187012   4.959   4.880   6.785 -0.4098 -2.2815 -1.0746
27869SOL    HW287013   5.019   4.810   6.905 -0.4910 -0.2023  0.2161
27870SOL     OW87014   0.595   2.940  10.340 -0.3983  0.8369  0.2178
27870SOL    HW187015   0.616   2.980  10.256  0.4690 -0.2994 -0.1340
27870SOL    HW287016   0.537   2.867  10.318 -0.0758  0.4644  0.5926
27871SOL     OW87017   5.578   2.142   8.517  0.3370 -0.5623  0.0152
27871SOL    HW187018   5.581   2.171   8.426 -0.2049 -3.2607 -0.9109
27871SOL    HW287019   5.535   2.214   8.564 -0.1851  0.4778 -2.0072
27872SOL     OW87020   6.218   5.457   6.972 -0.4606  0.0577  0.1486
27872SOL    HW187021   6.212   5.362   6.982  1.5228 -0.0235  0.6856
27872SOL    HW287022   6.278   5.485   7.040 -0.5531  1.6368 -0.3956
27873SOL     OW87023   0.991   2.932   5.406  0.1229 -0.6314 -0.0460
27873SOL    HW187024   1.034   3.015   5.387  0.6701 -1.0598 -0.7443
27873SOL    HW287025   0.976   2.933   5.501  1.5220 -0.3781  0.1934
27874SOL     OW87026   0.323   2.465   3.124 -0.5197 -0.0728 -0.2340
27874SOL    HW187027   0.268   2.471   3.046 -1.3277  0.7839  0.3960
27874SOL    HW287028   0.264   2.484   3.197  0.9645  2.6125  0.3386
27875SOL     OW87029  10.842   3.509   2.755  0.2652 -0.2709  0.7136
27875SOL    HW187030  10.769   3.571   2.760  1.0230  0.8984 -1.8513
27875SOL    HW287031  10.884   3.516   2.840 -2.0509 -0.2756  1.9023
27876SOL     OW87032  10.901   4.018   5.158  0.1718 -0.1009 -0.2193
27876SOL    HW187033  10.818   3.974   5.174  0.3019  0.2304  1.4368
27876SOL    HW287034  10.910   4.017   5.063 -0.1983 -2.9561 -0.2766
27877SOL     OW87035  10.022   0.160   0.934 -0.1854 -0.1672 -0.0242
27877SOL    HW187036  10.078   0.206   0.872  1.4367 -0.3549  1.2547
27877SOL    HW287037  10.079   0.093   0.973 -1.2595 -0.2991  1.3737
27878SOL     OW87038   9.091   2.750   2.575  0.1828  0.3620  0.4430
27878SOL    HW187039   9.097   2.670   2.523 -0.5000 -0.8458  2.2086
27878SOL    HW287040   9.180   2.763   2.609  0.2261  0.1980  0.3945
27879SOL     OW87041   9.903   5.417   4.938 -0.0210  0.1304 -0.3725
27879SOL    HW187042   9.886   5.499   4.892  0.6165 -0.3112 -1.4076
27879SOL    HW287043   9.998   5.405   4.932 -0.2777 -1.5654 -1.7844
27880SOL     OW87044   6.215   0.580  10.247  0.1785  0.2152  0.7871
27880SOL    HW187045   6.134   0.617  10.285 -0.8444 -0.5791 -0.5636
27880SOL    HW287046   6.264   0.657  10.219  0.2327  0.7443  2.2405
27881SOL     OW87047   0.080  10.348   1.501  0.0995 -0.4953 -0.1213
27881SOL    HW187048  -0.015  10.350   1.512  0.4234  0.5697  2.9820
27881SOL    HW287049   0.101  10.429   1.455 -0.1776  1.2830  2.7403
27882SOL     OW87050   1.734   8.513   5.787 -0.2432  0.1589  0.0005
27882SOL    HW187051   1.675   8.556   5.849 -0.2059  1.3928 -0.8157
27882SOL    HW287052   1.678   8.454   5.737 -0.7076  0.9637 -0.4368
27883SOL     OW87053   2.098   7.002   9.691 -0.4784  0.3029 -0.4148
27883SOL    HW187054   2.085   7.004   9.596  0.3497  1.6167 -0.5136
27883SOL    HW287055   2.162   6.931   9.704 -0.5817  0.1251 -0.8337
27884SOL     OW87056   8.841   1.185   3.221  0.3563 -0.0671  0.0677
27884SOL    HW187057   8.890   1.203   3.302  1.8288 -0.3319 -0.7453
27884SOL    HW287058   8.874   1.250   3.159  2.9098 -3.0500 -1.7845
27885SOL     OW87059  10.563   1.707   3.352 -0.0388 -0.1207 -0.6803
27885SOL    HW187060  10.506   1.697   3.428 -0.7245 -2.0736 -1.4159
27885SOL    HW287061  10.641   1.655   3.373 -0.5144 -1.2255 -1.5490
27886SOL     OW87062   0.874   9.350   9.007 -0.2098 -0.6933 -0.0442
27886SOL    HW187063   0.965   9.342   9.037 -0.1721  2.0367  0.6864
27886SOL    HW287064   0.823   9.358   9.088 -1.1322 -2.2393 -0.4519
27887SOL     OW87065  10.910   1.721   1.396  0.6339 -0.0150 -0.1695
27887SOL    HW187066  10.934   1.633   1.425  1.7047 -0.2385 -1.6969
27887SOL    HW287067  10.990   1.757   1.358  0.4678  1.9890  1.2500
27888SOL     OW87068   3.734   9.975   0.921  0.4089 -0.7918  0.5019
27888SOL    HW187069   3.710  10.010   1.007  1.8045 -0.7693  0.8850
27888SOL    HW287070   3.711   9.882   0.925  0.5347 -0.8037  0.9258
27889SOL     OW87071   4.031   2.967   2.834 -0.9182  0.7707 -0.3313
27889SOL    HW187072   4.050   2.911   2.909 -1.0398  1.7973  0.4781
27889SOL    HW287073   4.117   2.990   2.799 -0.8752 -0.1131 -0.8092
27890SOL     OW87074   8.705   6.914  10.811  0.2736  0.1531 -0.1441
27890SOL    HW187075   8.724   6.859  10.888  0.0030  0.0172 -0.1759
27890SOL    HW287076   8.751   6.870  10.739  2.0197  1.2519  0.2644
27891SOL     OW87077   8.862   8.390   8.032  0.0553  0.3367 -0.0101
27891SOL    HW187078   8.825   8.447   7.965 -0.0197 -1.2099 -1.3278
27891SOL    HW287079   8.839   8.301   8.003 -0.2605 -0.3517  2.2277
27892SOL     OW87080   0.854   4.831   2.384 -0.3894  0.4492  0.4639
27892SOL    HW187081   0.789   4.857   2.318  0.0065 -0.9424 -0.4906
27892SOL    HW287082   0.802   4.799   2.457 -0.8045 -0.7333 -0.3252
27893SOL     OW87083   3.156   5.747   7.021  0.5377  0.1889 -0.0939
27893SOL    HW187084   3.154   5.698   6.939 -0.7684  0.3587 -0.1716
27893SOL    HW287085   3.141   5.838   6.995  0.9620  0.3600  0.2502
27894SOL     OW87086   3.832   5.115   5.659  0.0864  0.3470 -0.4160
27894SOL    HW187087   3.853   5.199   5.699 -0.7946  0.0792  0.6263
27894SOL    HW287088   3.815   5.136   5.567  1.3987  1.0738 -0.4976
27895SOL     OW87089  10.061   9.535   8.953  0.6659 -0.1933 -0.1405
27895SOL    HW187090  10.019   9.586   9.022 -0.0326 -2.0573  0.8311
27895SOL    HW287091   9.991   9.514   8.892  0.9603  0.0494 -0.5643
27896SOL     OW87092   6.046   0.847   5.355 -0.2803 -0.1074  0.2056
27896SOL    HW187093   6.005   0.813   5.435 -0.4287  0.8242  0.5349
27896SOL    HW287094   6.056   0.771   5.299 -4.4620 -0.0992 -0.7491
27897SOL     OW87095   5.287  10.084   4.503 -0.1926 -0.9167  0.0411
27897SOL    HW187096   5.236  10.103   4.582 -0.6293 -1.1645 -0.1820
27897SOL    HW287097   5.222  10.067   4.436  0.1719 -0.1404 -0.5188
27898SOL     OW87098   8.353   4.025   8.851  0.3741  0.6452 -0.3352
27898SOL    HW187099   8.437   4.004   8.891  0.2495 -1.3889 -1.0643
27898SOL    HW287100   8.346   3.966   8.776 -1.4500  1.1714 -0.6204
27899SOL     OW87101   3.618   1.093   1.032  0.1577  0.5097  0.2295
27899SOL    HW187102   3.580   1.167   0.986  0.2038  1.2722  1.3802
27899SOL    HW287103   3.559   1.020   1.013 -1.5016  1.5108  1.4020
27900SOL     OW87104   6.515  10.491   2.074  0.4394 -0.2038  0.0228
27900SOL    HW187105   6.510  10.485   2.169  1.6568 -0.5364  0.0701
27900SOL    HW287106   6.508  10.400   2.043  4.0340 -0.5364  0.0108
27901SOL     OW87107   2.791   8.789   2.777  0.7285  0.2372  0.7276
27901SOL    HW187108   2.877   8.770   2.813  0.7767 -4.1103 -1.3984
27901SOL    HW287109   2.807   8.856   2.711  2.3028  0.1963  1.0449
27902SOL     OW87110   7.102   3.490   0.612  0.0200  0.3642  0.2065
27902SOL    HW187111   7.113   3.576   0.572  0.8597 -0.3228 -1.0674
27902SOL    HW287112   7.024   3.498   0.667 -1.7557  1.0365 -2.3458
27903SOL     OW87113   8.212   4.825   7.080 -0.2895  0.1466 -0.5193
27903SOL    HW187114   8.256   4.786   7.155  1.0206  2.5007 -0.0279
27903SOL    HW287115   8.184   4.912   7.110 -1.2062  0.4814 -2.2502
27904SOL     OW87116  10.673   6.855   0.072 -0.5860 -0.0226 -0.4023
27904SOL    HW187117  10.694   6.859  -0.021 -1.3106  2.0939 -0.5023
27904SOL    HW287118  10.646   6.765   0.087  1.6456 -0.9477 -1.7713
27905SOL     OW87119   3.030  10.694   0.840  0.5954  0.4635 -0.1603
27905SOL    HW187120   3.073  10.675   0.923  0.3732 -0.6716 -0.2952
27905SOL    HW287121   3.084  10.762   0.800  1.1967  0.3933  0.5255
27906SOL     OW87122   6.025   9.267   2.525 -0.4598  0.2647  0.8628
27906SOL    HW187123   5.959   9.296   2.462 -0.6179  2.9199  2.1742
27906SOL    HW287124   6.035   9.341   2.585 -0.2305 -2.1023  3.8901
27907SOL     OW87125   9.087   9.418   4.903 -0.4144 -0.4651  0.1274
27907SOL    HW187126   9.168   9.460   4.931  0.5042 -1.2322 -1.2832
27907SOL    HW287127   9.110   9.377   4.820 -2.2709 -0.6586 -0.3069
27908SOL     OW87128   7.217   7.290   0.597 -0.0513 -0.4185 -0.3958
27908SOL    HW187129   7.215   7.351   0.523 -0.3589  0.1575  0.0841
27908SOL    HW287130   7.145   7.318   0.653  2.0058  1.0084  1.6046
27909SOL     OW87131   3.023   3.958   1.174  0.0524 -0.0101 -0.4636
27909SOL    HW187132   2.936   3.983   1.204 -0.1346  0.7203 -1.5592
27909SOL    HW287133   3.082   4.019   1.219 -0.1650  0.6377 -1.0385
27910SOL     OW87134   3.169   3.240   7.700 -0.6244  0.3599 -0.5124
27910SOL    HW187135   3.087   3.195   7.720 -0.2607 -0.2187 -0.2835
27910SOL    HW287136   3.173   3.241   7.604  0.3714 -2.0273 -0.5449
27911SOL     OW87137   7.411   2.670  10.313  0.1325 -0.2172  0.1523
27911SOL    HW187138   7.386   2.646  10.402  0.6995 -0.2531  0.3026
27911SOL    HW287139   7.421   2.765  10.315 -1.6462  0.0142 -0.3270
27912SOL     OW87140   1.189   2.327   9.082 -0.2013 -0.0117 -0.2199
27912SOL    HW187141   1.166   2.295   9.170  1.0473 -0.5688 -0.0831
27912SOL    HW287142   1.168   2.420   9.085 -2.9196 -0.5810 -0.2887
27913SOL     OW87143   2.330   6.580   7.963  1.0093 -0.3673 -0.1760
27913SOL    HW187144   2.256   6.628   7.926  0.4506 -0.4362  0.8601
27913SOL    HW287145   2.362   6.636   8.033  0.3265 -1.5226  1.0756
27914SOL     OW87146   1.149   4.606   4.949  0.6193 -0.3684 -0.2251
27914SOL    HW187147   1.202   4.527   4.948  1.4094  0.1740 -1.4676
27914SOL    HW287148   1.102   4.602   5.033 -0.6381 -2.9967 -0.9928
27915SOL     OW87149   5.545   2.686   2.562  0.2495  0.6027 -0.5154
27915SOL    HW187150   5.507   2.773   2.567 -1.6662 -0.2416 -0.1582
27915SOL    HW287151   5.474   2.629   2.533  1.4849 -0.8388 -0.8190
27916SOL     OW87152   6.382   0.447   0.974 -0.5453  0.8511  0.5000
27916SOL    HW187153   6.401   0.389   1.048  1.0285  0.8749  0.1262
27916SOL    HW287154   6.416   0.401   0.898  0.1494  1.9682  0.1208
27917SOL     OW87155   2.303   4.189   6.641 -0.3851  0.1985 -0.0383
27917SOL    HW187156   2.332   4.099   6.656  1.2170  0.7066  0.0538
27917SOL    HW287157   2.208   4.184   6.640 -0.2928 -1.6235 -0.8525
27918SOL     OW87158  10.400   6.984   9.443  0.3101  0.5653 -0.4138
27918SOL    HW187159  10.440   6.899   9.425  0.0291  0.5899 -1.1870
27918SOL    HW287160  10.451   7.046   9.390 -0.0838  0.7415 -0.5930
27919SOL     OW87161   1.435   0.839  10.198  0.2531 -0.1353  0.3997
27919SOL    HW187162   1.361   0.894  10.223  1.2909  0.5529  1.9852
27919SOL    HW287163   1.410   0.751  10.228 -0.2810 -0.0722  0.1545
27920SOL     OW87164   4.220   7.090   6.677  0.2647 -0.3844 -0.1668
27920SOL    HW187165   4.250   7.013   6.629 -1.2077 -0.3572 -1.1793
27920SOL    HW287166   4.171   7.055   6.752  2.3851 -0.4249  1.2466
27921SOL     OW87167   6.292   3.908   8.624 -0.3162  0.1427 -0.1778
27921SOL    HW187168   6.224   3.901   8.557 -0.5965 -0.3528  0.1538
27921SOL    HW287169   6.371   3.873   8.582 -0.2529  0.7509 -0.5741
27922SOL     OW87170   3.292   1.538   6.580  0.0010  0.3021  0.6059
27922SOL    HW187171   3.342   1.601   6.528 -0.3957  1.2795  1.3895
27922SOL    HW287172   3.223   1.508   6.521  0.4711  0.2493  0.0765
27923SOL     OW87173   6.938   3.702   4.862 -0.6096  0.0403 -0.5721
27923SOL    HW187174   6.904   3.790   4.850  2.5544  1.3608 -0.1929
27923SOL    HW287175   6.982   3.681   4.780 -0.8025 -0.9228 -0.4337
27924SOL     OW87176   5.435   3.911   5.489 -0.4474 -0.2773  0.2690
27924SOL    HW187177   5.530   3.922   5.490 -0.3389 -1.1918  0.9473
27924SOL    HW287178   5.419   3.843   5.423 -0.8923  1.9886 -2.0221
27925SOL     OW87179   4.803   4.888   0.756 -0.5702  0.1378  0.3778
27925SOL    HW187180   4.834   4.971   0.793  0.3174  0.3440 -0.8251
27925SOL    HW287181   4.710   4.904   0.738 -0.3284  0.9789 -0.1513
27926SOL     OW87182   7.135   3.739   2.579 -0.6933  0.9676 -0.3827
27926SOL    HW187183   7.203   3.784   2.529  0.0611 -0.2292 -0.4682
27926SOL    HW287184   7.073   3.808   2.603  1.2019  2.3366  0.7794
27927SOL     OW87185   3.104   6.558   2.500 -0.2413 -0.2344 -0.8006
27927SOL    HW187186   3.016   6.519   2.502 -1.0383  1.5397 -0.5790
27927SOL    HW287187   3.092   6.646   2.534  1.8744 -0.4068  0.4925
27928SOL     OW87188   0.532   2.160   3.488 -0.0984  0.0621 -0.5449
27928SOL    HW187189   0.605   2.210   3.525 -1.6779  1.5731  0.5504
27928SOL    HW287190   0.455   2.189   3.536 -1.6027 -0.7933 -2.3659
27929SOL     OW87191   1.409   9.065   6.764  0.5447 -0.0525 -0.2500
27929SOL    HW187192   1.346   8.999   6.735  0.0675  0.7457 -1.0798
27929SOL    HW287193   1.364   9.112   6.834  0.6395 -0.2063 -0.0875
27930SOL     OW87194   5.323   0.522   7.275 -0.2704 -0.1076 -0.4865
27930SOL    HW187195   5.252   0.549   7.217 -0.3054 -0.1374 -0.4588
27930SOL    HW287196   5.333   0.428   7.259 -1.6513 -0.5295  1.0333
27931SOL     OW87197   4.702   1.747   9.082  0.4417  0.3537 -0.1307
27931SOL    HW187198   4.752   1.672   9.052 -0.6735 -1.3916  2.2070
27931SOL    HW287199   4.615   1.712   9.103 -0.1735  2.3162  0.7861
27932SOL     OW87200   4.257   9.743   2.454  0.5292 -0.9122 -0.1468
27932SOL    HW187201   4.272   9.688   2.377 -0.3536  1.9731 -2.4645
27932SOL    HW287202   4.344   9.776   2.478  0.7391 -1.4062 -0.2365
27933SOL     OW87203   1.959   3.665   3.466  0.3703 -0.8969  0.3138
27933SOL    HW187204   1.893   3.616   3.416 -0.8017 -0.1415  1.0856
27933SOL    HW287205   1.908   3.711   3.534  1.7592 -0.7194  1.2502
27934SOL     OW87206   0.090   5.533   0.032  0.1659  0.3765  0.6761
27934SOL    HW187207   0.113   5.603   0.093 -2.7767  1.6626  0.3808
27934SOL    HW287208   0.016   5.489   0.073  0.8415 -1.4308 -0.0097
27935SOL     OW87209   6.023   9.208   6.490 -0.3753  0.1946 -0.4134
27935SOL    HW187210   6.027   9.285   6.434  0.8686  1.3820  1.2623
27935SOL    HW287211   6.023   9.243   6.579  0.9960 -1.7604  0.3798
27936SOL     OW87212   1.734   5.349   2.196 -0.2922 -0.3565 -0.7473
27936SOL    HW187213   1.733   5.383   2.107 -0.2844  0.1198 -0.5659
27936SOL    HW287214   1.693   5.263   2.190 -3.7800  1.2040 -0.5851
27937SOL     OW87215   7.550   1.674  10.729  0.1982  0.4166 -0.1983
27937SOL    HW187216   7.543   1.717  10.814 -3.9873  0.2793 -0.3697
27937SOL    HW287217   7.504   1.732  10.669 -2.0357 -2.3119 -1.2111
27938SOL     OW87218   9.817   2.472   9.893 -0.4743 -0.2279 -0.4409
27938SOL    HW187219   9.825   2.393   9.946  0.8236  0.0242 -0.2344
27938SOL    HW287220   9.851   2.542   9.949  0.5464  0.1007 -1.4549
27939SOL     OW87221   9.981   2.727   2.075  0.4942  0.6717  0.0756
27939SOL    HW187222  10.059   2.735   2.130 -0.3704 -1.4507  1.7156
27939SOL    HW287223   9.914   2.776   2.123 -0.1461 -0.8006  0.7245
27940SOL     OW87224  10.860   3.818   4.613 -0.1841  0.2077 -0.2136
27940SOL    HW187225  10.844   3.735   4.568  0.4821  0.1953 -0.4425
27940SOL    HW287226  10.933   3.857   4.565 -1.7626  1.8437 -1.3292
27941SOL     OW87227   0.186   6.238  10.119 -0.2250 -0.6065 -0.5954
27941SOL    HW187228   0.096   6.209  10.130 -1.1753  1.5684 -2.4020
27941SOL    HW287229   0.197   6.307  10.184 -0.6921  0.8745 -2.0508
27942SOL     OW87230   4.303   6.392  10.099  0.3149  0.0541  0.2923
27942SOL    HW187231   4.356   6.328  10.148  0.4435  0.5066  0.7446
27942SOL    HW287232   4.355   6.410  10.020 -0.8078 -2.1955 -1.0268
27943SOL     OW87233   2.485   6.454   3.022 -0.2470  0.1894 -0.2746
27943SOL    HW187234   2.517   6.464   2.932 -0.2512  1.8461 -0.1146
27943SOL    HW287235   2.448   6.540   3.043 -1.9367 -0.7424  0.6586
27944SOL     OW87236   4.376   1.271   8.216 -0.0660  0.4699  0.1271
27944SOL    HW187237   4.452   1.330   8.210 -0.6416  1.2173  0.0602
27944SOL    HW287238   4.302   1.330   8.226 -0.6361 -0.2654  0.2080
27945SOL     OW87239   9.802   3.654   0.219  0.5183 -0.2856  0.1673
27945SOL    HW187240   9.877   3.709   0.200  0.6207  0.0178  1.4258
27945SOL    HW287241   9.727   3.700   0.180  0.4151  1.3780  2.2889
27946SOL     OW87242  10.868   3.366   6.599 -0.4991 -0.3410  0.4760
27946SOL    HW187243  10.833   3.414   6.674 -0.7111  1.4668 -0.7432
27946SOL    HW287244  10.791   3.341   6.549 -0.2087  2.2249 -1.3590
27947SOL     OW87245   7.712   6.520   6.242  0.2554 -0.7671 -0.6362
27947SOL    HW187246   7.619   6.503   6.223  0.3035 -1.5687 -0.1864
27947SOL    HW287247   7.712   6.562   6.327  0.2161  0.5169 -1.2586
27948SOL     OW87248   9.642  10.649   5.267  0.1234 -0.1505 -0.3689
27948SOL    HW187249   9.591  10.640   5.347  0.6510 -0.1063 -0.0262
27948SOL    HW287250   9.588  10.608   5.199 -0.6160  0.4069 -0.1189
27949SOL     OW87251   8.311   9.137   0.980 -0.3487  0.6030 -0.1551
27949SOL    HW187252   8.228   9.128   1.026  0.0122  0.8556  0.5437
27949SOL    HW287253   8.367   9.069   1.017 -1.1814 -1.5722 -2.7307
27950SOL     OW87254   1.904   8.754   8.363 -0.0215 -0.4518  0.2624
27950SOL    HW187255   1.820   8.715   8.386 -0.0208 -2.3179 -2.5437
27950SOL    HW287256   1.968   8.684   8.379  1.0510  0.9658  2.4350
27951SOL     OW87257   6.837   0.617   9.788  0.1199  0.1206  0.5608
27951SOL    HW187258   6.749   0.640   9.819  0.6245 -0.7246  2.7037
27951SOL    HW287259   6.893   0.687   9.821  0.3774  0.3076 -0.2448
27952SOL     OW87260   4.883   5.058   8.149  0.2967 -0.1011  0.5317
27952SOL    HW187261   4.835   5.077   8.068  0.9657  0.7761  0.3285
27952SOL    HW287262   4.884   4.963   8.155 -0.3899 -0.1556 -0.1125
27953SOL     OW87263   3.649   0.760   0.495 -0.3181 -0.0362 -0.2755
27953SOL    HW187264   3.685   0.696   0.556 -1.1741 -1.0429 -0.8116
27953SOL    HW287265   3.581   0.806   0.545 -1.1747 -1.0136 -0.5211
27954SOL     OW87266   0.975   4.779   3.372  0.0356  0.1840 -0.3095
27954SOL    HW187267   0.941   4.693   3.348  0.5700 -0.0890 -0.0993
27954SOL    HW287268   1.005   4.816   3.289  0.8555 -0.3029 -0.2341
27955SOL     OW87269   6.799  10.873  10.718 -0.3531  0.1844 -0.0870
27955SOL    HW187270   6.810  10.966  10.700  1.5116  0.0932  0.4734
27955SOL    HW287271   6.747  10.870  10.798  2.1425  0.8267  1.6130
27956SOL     OW87272   2.146   8.086   1.714  0.4776 -0.1717 -0.1670
27956SOL    HW187273   2.067   8.081   1.768  2.3144 -1.1359  2.5853
27956SOL    HW287274   2.186   8.169   1.740  0.9755 -0.2527 -0.6754
27957SOL     OW87275   5.889   6.693   9.459  0.9624  0.1051  0.5856
27957SOL    HW187276   5.927   6.732   9.380  1.6176  1.1296  1.3787
27957SOL    HW287277   5.866   6.604   9.434  2.6138 -0.0895 -0.3287
27958SOL     OW87278   0.801   5.294   2.836 -0.1872 -0.5001  0.3828
27958SOL    HW187279   0.888   5.331   2.826 -1.0437  1.3822 -0.2224
27958SOL    HW287280   0.790   5.237   2.760 -0.0528  0.4083 -0.3216
27959SOL     OW87281  10.295   0.726   1.423  0.1289  0.1585 -0.0814
27959SOL    HW187282  10.327   0.679   1.346  0.1135  0.0059  0.0052
27959SOL    HW287283  10.200   0.732   1.409  0.4065  2.2104 -1.2224
27960SOL     OW87284   6.218   3.147   8.170  0.4651  0.6910  0.2245
27960SOL    HW187285   6.212   3.146   8.075 -0.6705  0.9606  0.2835
27960SOL    HW287286   6.311   3.161   8.188  1.2247 -2.6567 -0.8037
27961SOL     OW87287   3.454   8.234   4.137  0.3646 -0.1383  0.7912
27961SOL    HW187288   3.424   8.310   4.087  1.7809  0.6794  1.1576
27961SOL    HW287289   3.544   8.219   4.108  0.4011 -1.1349  1.3607
27962SOL     OW87290   6.532   4.859   7.271  0.1418  0.0704 -0.4804
27962SOL    HW187291   6.502   4.811   7.348  0.5318 -1.6059 -1.3525
27962SOL    HW287292   6.462   4.848   7.207 -0.9482  2.8737  0.1654
27963SOL     OW87293   6.169   6.265   2.432 -0.4676  0.2432 -0.0770
27963SOL    HW187294   6.105   6.194   2.422 -0.7838  0.6375 -0.8232
27963SOL    HW287295   6.118   6.345   2.426 -0.0358  0.5492  0.3008
27964SOL     OW87296   1.007   5.695   4.109  0.1909  0.2555  0.0708
27964SOL    HW187297   0.931   5.696   4.050  1.6713  0.3169 -1.9025
27964SOL    HW287298   1.037   5.604   4.107 -0.1554  0.1146  1.2825
27965SOL     OW87299  10.771   1.169   8.243  0.4182  0.1764  0.6075
27965SOL    HW187300  10.830   1.114   8.294  0.4283  0.0206  0.4280
27965SOL    HW287301  10.684   1.151   8.279  0.4476  0.2048  0.6918
27966SOL     OW87302   1.408   6.202  10.087  0.1273  0.6549  0.1845
27966SOL    HW187303   1.452   6.171  10.008 -0.3555  0.4634 -0.0142
27966SOL    HW287304   1.459   6.277  10.116  2.5677 -1.5259  1.8289
27967SOL     OW87305   9.839   6.707   0.128  0.3885  0.7805  0.7067
27967SOL    HW187306   9.859   6.686   0.037 -1.7755  1.6254  0.0082
27967SOL    HW287307   9.912   6.764   0.156  0.2996  1.7442 -0.9736
27968SOL     OW87308   4.938   2.219   1.437 -0.2567 -0.6559 -1.0335
27968SOL    HW187309   4.928   2.135   1.393 -1.7459 -0.5618 -0.8760
27968SOL    HW287310   4.989   2.273   1.376  0.5728 -1.6092 -1.1948
27969SOL     OW87311   3.725   4.440   5.487 -0.6473 -0.0557 -0.1038
27969SOL    HW187312   3.706   4.359   5.439  2.2008 -0.8155 -0.0395
27969SOL    HW287313   3.821   4.446   5.486 -0.8046  3.0770  0.2940
27970SOL     OW87314   9.390   0.921   9.751 -0.0044  1.1356  0.0916
27970SOL    HW187315   9.416   0.934   9.842 -0.6954  2.5546  0.1018
27970SOL    HW287316   9.295   0.929   9.752 -0.2456 -1.1791 -0.3960
27971SOL     OW87317   3.902   1.792   8.195  0.0785  0.8420 -0.9387
27971SOL    HW187318   3.814   1.830   8.202  0.2711  1.3402 -1.2110
27971SOL    HW287319   3.925   1.769   8.286 -0.5373  0.2353 -0.9352
27972SOL     OW87320   0.708   4.017  10.011 -0.6825 -0.3449  0.1105
27972SOL    HW187321   0.684   4.054  10.096 -1.8361  0.4541 -0.5387
27972SOL    HW287322   0.714   4.093   9.953  0.0274 -0.8884 -0.5328
27973SOL     OW87323   9.037   5.941   4.836  0.1799 -0.0329  0.6987
27973SOL    HW187324   9.119   5.898   4.860  0.1666  0.3084  1.3745
27973SOL    HW287325   8.969   5.885   4.875  0.0369 -0.8095 -0.6134
27974SOL     OW87326   8.732   9.138   5.407  0.3639 -0.1469 -0.8638
27974SOL    HW187327   8.820   9.148   5.372  0.5519  0.0484 -0.3408
27974SOL    HW287328   8.675   9.185   5.346  0.4356 -1.5615 -2.0383
27975SOL     OW87329   9.650   1.954   0.582 -0.3013  0.1396  0.3252
27975SOL    HW187330   9.578   1.916   0.532  0.3061  0.1127 -0.5433
27975SOL    HW287331   9.620   1.954   0.672 -0.9721 -0.8409  0.1019
27976SOL     OW87332   8.949   7.485   3.127  0.2230 -0.5899 -0.1120
27976SOL    HW187333   8.917   7.395   3.134  2.7893 -1.4645  0.8562
27976SOL    HW287334   9.019   7.481   3.062 -0.5355  0.9956 -1.0726
27977SOL     OW87335   8.494   5.660   1.273 -0.2122 -0.6194 -0.0833
27977SOL    HW187336   8.444   5.716   1.213  2.8046  0.7290 -1.4327
27977SOL    HW287337   8.486   5.572   1.237 -0.2043 -0.1450 -1.2558
27978SOL     OW87338   4.002   5.792   7.730 -0.5346  0.2484  0.4100
27978SOL    HW187339   4.052   5.711   7.721 -0.8667 -0.0809  1.5349
27978SOL    HW287340   4.039   5.836   7.806  2.1499  2.9831 -2.2988
27979SOL     OW87341   9.746   7.165   1.950 -0.1132 -0.5558 -0.0626
27979SOL    HW187342   9.825   7.219   1.940 -1.3122  1.3173  0.1880
27979SOL    HW287343   9.737   7.119   1.867  0.6995 -0.0194 -0.4494
27980SOL     OW87344   1.409   6.350   0.803  0.3197  0.6520 -0.0723
27980SOL    HW187345   1.342   6.343   0.735 -0.6570  0.8500  0.8586
27980SOL    HW287346   1.383   6.426   0.855  0.7884  0.2142  0.8201
27981SOL     OW87347  10.835   3.794   9.006  0.4623 -0.1124  0.1777
27981SOL    HW187348  10.831   3.735   8.930  0.6117  1.1487 -0.8223
27981SOL    HW287349  10.838   3.735   9.082  1.2706 -1.4007 -0.8345
27982SOL     OW87350   9.405   1.731  10.197  0.2019  0.2340  0.3798
27982SOL    HW187351   9.451   1.781  10.130 -0.8044  0.8562  0.1456
27982SOL    HW287352   9.402   1.789  10.273  1.5419 -0.5557  1.0592
27983SOL     OW87353   6.949   3.616   3.819  0.2075 -0.1229 -0.0032
27983SOL    HW187354   6.890   3.587   3.889  1.0318 -1.9984 -0.0403
27983SOL    HW287355   7.036   3.592   3.849  0.4163 -2.8817 -2.4980
27984SOL     OW87356   3.582   1.367   3.589  0.0171  0.7048  0.1822
27984SOL    HW187357   3.624   1.312   3.523 -2.4739  1.0712 -1.7800
27984SOL    HW287358   3.612   1.332   3.673 -0.2293 -2.5727 -1.0467
27985SOL     OW87359   4.247   2.252   0.110 -0.5675 -0.4476 -0.4897
27985SOL    HW187360   4.298   2.249   0.191  0.7855 -0.4795 -1.3334
27985SOL    HW287361   4.216   2.163   0.098 -2.7251  0.0131  1.1903
27986SOL     OW87362   8.895   6.015   7.897  0.3286  0.4389  0.1219
27986SOL    HW187363   8.941   5.933   7.912 -1.6512 -0.7726 -0.2205
27986SOL    HW287364   8.932   6.050   7.816 -0.6871 -1.5099 -1.2317
27987SOL     OW87365   2.630   5.682   3.610  1.2799 -0.0841 -0.6171
27987SOL    HW187366   2.696   5.731   3.658 -0.9316 -0.7225  3.2454
27987SOL    HW287367   2.560   5.745   3.593  0.7144 -0.6003 -0.2507
27988SOL     OW87368   9.911   1.832   5.978 -0.2027 -0.1636 -0.0328
27988SOL    HW187369   9.873   1.897   6.037 -0.0864 -1.9086  2.0683
27988SOL    HW287370   9.894   1.865   5.890 -1.9084  1.6893  0.9583
27989SOL     OW87371   3.581   1.802   7.714  0.0431 -0.3988  0.2652
27989SOL    HW187372   3.667   1.840   7.698  0.8390 -2.6879 -1.1472
27989SOL    HW287373   3.591   1.754   7.797 -0.6058  1.3748  1.3950
27990SOL     OW87374   6.855   8.503   3.234 -0.4734  0.0630 -0.2606
27990SOL    HW187375   6.814   8.445   3.299 -1.5988 -0.0925 -1.0972
27990SOL    HW287376   6.949   8.499   3.254 -0.5694 -1.7744 -0.0755
27991SOL     OW87377   4.893   6.157   6.007 -0.2830  0.0759 -0.8975
27991SOL    HW187378   4.919   6.065   6.003  0.5885  0.3799 -2.4230
27991SOL    HW287379   4.940   6.199   5.935 -2.1364  1.3653 -1.3961
27992SOL     OW87380   7.335   9.492   8.202  0.3874  0.4917  0.4393
27992SOL    HW187381   7.326   9.582   8.235 -1.0701  0.7370 -0.5499
27992SOL    HW287382   7.254   9.449   8.230 -0.2202  0.3016 -1.4943
27993SOL     OW87383   6.277   6.282   8.162  0.1340 -0.3622 -0.4943
27993SOL    HW187384   6.218   6.285   8.087  0.8598  1.7358 -1.0134
27993SOL    HW287385   6.340   6.214   8.141 -1.8451 -2.3699 -0.1050
27994SOL     OW87386   4.224   6.835   2.202 -0.4026 -0.0901 -0.3598
27994SOL    HW187387   4.183   6.887   2.272 -0.0121  1.1377 -1.0221
27994SOL    HW287388   4.173   6.754   2.200 -1.7138  0.7007 -0.0213
27995SOL     OW87389   4.923   8.426   2.553 -0.2278 -0.1428 -0.4931
27995SOL    HW187390   4.939   8.338   2.521 -2.6063 -1.2803  1.3345
27995SOL    HW287391   4.837   8.449   2.519 -0.5171  0.6568  0.7515
27996SOL     OW87392   4.815   3.704   5.264 -0.0951  0.4364  0.2160
27996SOL    HW187393   4.746   3.770   5.263  0.0203  0.5766  1.0848
27996SOL    HW287394   4.872   3.726   5.190 -1.3942 -0.1268 -0.9643
27997SOL     OW87395   5.653  10.858   6.492  0.7844 -0.1105  0.9343
27997SOL    HW187396   5.667  10.891   6.404  0.0533 -0.7020  0.5934
27997SOL    HW287397   5.708  10.913   6.548 -1.5572  2.6376  0.5863
27998SOL     OW87398   0.741   6.386  10.175 -0.0462  0.0360  0.3224
27998SOL    HW187399   0.792   6.381  10.094  1.4026  0.8208  1.1531
27998SOL    HW287400   0.727   6.295  10.201 -0.3968 -0.2140 -0.7291
27999SOL     OW87401   8.082   5.156   6.143  0.1202  0.4991  0.1779
27999SOL    HW187402   8.026   5.164   6.220  0.6791 -0.0396  0.6513
27999SOL    HW287403   8.022   5.137   6.072 -0.4279  1.2497  0.4339
28000SOL     OW87404  10.214   3.189   3.053 -0.8009 -0.0142 -0.1600
28000SOL    HW187405  10.162   3.117   3.091 -0.7187  0.9244  1.7594
28000SOL    HW287406  10.290   3.196   3.109 -0.3277  0.9643 -0.9141
28001SOL     OW87407   0.945  10.801   8.510  0.2623  0.2346 -0.4305
28001SOL    HW187408   1.027  10.763   8.478  0.9766  1.2924  0.1357
28001SOL    HW287409   0.881  10.730   8.501  1.3093 -0.7057 -0.5622
28002SOL     OW87410   5.225   5.315   4.866 -0.0707 -0.2980  0.0813
28002SOL    HW187411   5.301   5.373   4.866  1.3157 -2.0361  2.0145
28002SOL    HW287412   5.163   5.357   4.926  0.9484 -0.7918  1.5163
28003SOL     OW87413   2.208   7.949   8.707 -0.1264 -0.1218 -0.2202
28003SOL    HW187414   2.182   7.886   8.775  2.1715 -1.1381 -0.2236
28003SOL    HW287415   2.294   7.980   8.735  0.0932  0.7388 -1.7925
28004SOL     OW87416   6.381   6.082   0.524  0.1968  0.2130  0.1001
28004SOL    HW187417   6.389   6.173   0.494 -0.6805  0.0374 -0.6785
28004SOL    HW287418   6.452   6.036   0.480 -0.3357  0.2068 -0.7724
28005SOL     OW87419   3.127   9.418   4.584 -0.1970 -0.2258  0.1063
28005SOL    HW187420   3.190   9.490   4.592  0.7947 -0.9374 -1.1953
28005SOL    HW287421   3.082   9.435   4.501 -0.6307 -0.5943  0.2659
28006SOL     OW87422   4.346   4.109  10.489 -0.0711 -0.7202  0.2335
28006SOL    HW187423   4.380   4.032  10.444 -1.5790 -0.8964 -0.6389
28006SOL    HW287424   4.276   4.075  10.545 -0.7419 -0.0058 -0.1520
28007SOL     OW87425   1.583   1.855   0.586 -0.1253  0.2629  0.3448
28007SOL    HW187426   1.571   1.771   0.630 -1.6440  0.1948 -0.1633
28007SOL    HW287427   1.521   1.852   0.512  2.0590  0.5341 -1.5525
28008SOL     OW87428   4.318   2.345   6.552  0.2245 -0.5888 -0.3599
28008SOL    HW187429   4.379   2.272   6.539 -0.4862 -1.0430 -1.2332
28008SOL    HW287430   4.372   2.415   6.590  1.7128 -0.3360 -2.8401
28009SOL     OW87431  10.833   8.938   8.703  0.4216  0.1527 -0.1985
28009SOL    HW187432  10.834   8.991   8.783  0.9418  0.4292 -0.3901
28009SOL    HW287433  10.796   8.854   8.731  2.7504 -0.5781  0.8593
28010SOL     OW87434   2.363   4.615  10.979 -0.3033 -0.7705 -0.3393
28010SOL    HW187435   2.412   4.633  11.060 -0.9928 -1.5558  0.2617
28010SOL    HW287436   2.318   4.533  10.997 -1.0725 -0.5429 -1.2472
28011SOL     OW87437   9.899   7.451   8.157 -0.0212 -0.4253  0.5435
28011SOL    HW187438   9.923   7.374   8.104  0.5115 -0.8197  1.3514
28011SOL    HW287439   9.855   7.414   8.234  0.6039  0.0551  1.1351
28012SOL     OW87440   0.911   6.831   5.060  0.2701 -0.0467 -0.0308
28012SOL    HW187441   0.907   6.858   5.152  0.0394  0.8600 -0.3090
28012SOL    HW287442   0.822   6.845   5.027  0.1839 -0.9836 -0.2277
28013SOL     OW87443   6.763   1.251   2.312 -0.6835  0.5707  0.3959
28013SOL    HW187444   6.786   1.336   2.274 -1.5909  0.3199 -0.7109
28013SOL    HW287445   6.743   1.195   2.237  0.7092 -0.8753  1.0617
28014SOL     OW87446   3.834   7.067   4.358 -0.0011 -0.4904 -0.1954
28014SOL    HW187447   3.893   7.042   4.286  0.6435  0.7285 -0.1148
28014SOL    HW287448   3.754   7.096   4.314  0.3895  0.2472 -0.4362
28015SOL     OW87449   3.551  10.867   4.438 -0.8289  0.5108  0.7491
28015SOL    HW187450   3.603  10.930   4.488 -1.5204  0.2615  1.8125
28015SOL    HW287451   3.553  10.900   4.348  1.6468  0.1780  0.6577
28016SOL     OW87452   6.407   1.022   1.309 -0.2620 -0.5564  0.1832
28016SOL    HW187453   6.314   1.041   1.319 -0.2242 -0.6539  0.7124
28016SOL    HW287454   6.439   1.008   1.398  0.3289 -0.2007  0.0304
28017SOL     OW87455   1.197  10.294   9.803 -0.4482 -0.5015 -0.6436
28017SOL    HW187456   1.266  10.241   9.843  0.1047  0.8263  0.1839
28017SOL    HW287457   1.119  10.238   9.808  0.0502 -1.1135  0.5193
28018SOL     OW87458   9.470   5.685   6.011 -0.5306 -0.1750  0.1109
28018SOL    HW187459   9.511   5.756   6.061 -1.4338 -0.3957  1.1930
28018SOL    HW287460   9.527   5.609   6.028 -0.9442 -0.2992  0.9937
28019SOL     OW87461   3.470   3.207   3.917 -0.2977  0.3804  0.0571
28019SOL    HW187462   3.500   3.271   3.853  0.5978  1.2997  1.3626
28019SOL    HW287463   3.551   3.167   3.951 -0.6117  1.3781  2.0894
28020SOL     OW87464   4.679   9.047   5.331  0.1941 -0.0216  0.5962
28020SOL    HW187465   4.661   9.074   5.241  0.4783  1.2005  0.8951
28020SOL    HW287466   4.685   8.952   5.327 -1.2917 -0.0907 -0.4050
28021SOL     OW87467   8.269  10.736   3.184 -0.6531  0.1508  0.1697
28021SOL    HW187468   8.193  10.731   3.126 -0.4931  2.1616 -0.2300
28021SOL    HW287469   8.235  10.711   3.270 -1.0519 -2.1035 -0.5946
28022SOL     OW87470  10.898   9.283   2.531  0.3901  0.2733 -0.4046
28022SOL    HW187471  10.953   9.241   2.598  0.0555 -0.7579 -0.7704
28022SOL    HW287472  10.952   9.354   2.497  1.5125 -0.7271 -0.7610
28023SOL     OW87473   6.716  10.086   0.652 -0.8794 -0.2321  0.0614
28023SOL    HW187474   6.669  10.058   0.573 -2.2219  0.5343  0.5689
28023SOL    HW287475   6.715  10.010   0.709 -1.3112 -0.2834 -0.0166
28024SOL     OW87476   0.054   6.623   4.474 -0.2099  0.8955  0.0927
28024SOL    HW187477   0.066   6.610   4.380 -0.2715  3.0306 -0.2538
28024SOL    HW287478   0.113   6.560   4.515  0.4378  0.5124 -1.3943
28025SOL     OW87479   2.724   3.110   2.783 -0.0768 -0.2380 -0.5638
28025SOL    HW187480   2.801   3.133   2.834  1.9545 -0.7631 -3.2852
28025SOL    HW287481   2.654   3.102   2.848  2.3930 -0.9612  2.1166
28026SOL     OW87482   5.974   1.699   6.720  0.8452 -0.1748  0.2312
28026SOL    HW187483   6.020   1.625   6.758  0.2350 -0.7618 -0.1439
28026SOL    HW287484   6.039   1.768   6.714  1.7317 -1.0649 -0.5092
28027SOL     OW87485   6.661   7.300   3.172 -0.5015 -0.5724 -0.2045
28027SOL    HW187486   6.710   7.373   3.134 -1.5465  0.9183  1.2336
28027SOL    HW287487   6.723   7.259   3.232 -0.6549  0.6593  0.8154
28028SOL     OW87488   5.519   0.237   8.228 -0.6519 -0.0555  0.3790
28028SOL    HW187489   5.498   0.310   8.286  0.7345 -0.9803  2.0849
28028SOL    HW287490   5.558   0.171   8.285  0.9423 -0.9079 -1.6324
28029SOL     OW87491   9.758   4.648   3.068  0.1952  0.2380  0.2416
28029SOL    HW187492   9.742   4.681   3.156  1.3463 -0.3614  0.6804
28029SOL    HW287493   9.825   4.706   3.032  1.1447 -0.7042  0.4770
28030SOL     OW87494   4.137   1.040   2.186 -0.0126 -0.3642  0.4759
28030SOL    HW187495   4.187   1.087   2.253  0.8062  0.7814 -0.9349
28030SOL    HW287496   4.049   1.077   2.191  0.2290  0.2097  0.4358
28031SOL     OW87497   3.379   7.775  10.489  0.5133  0.3419 -0.0606
28031SOL    HW187498   3.408   7.850  10.438  2.3353  0.1112  0.5865
28031SOL    HW287499   3.457   7.747  10.537 -0.9864  0.2134  2.4107
28032SOL     OW87500   9.513   0.908   9.263 -0.4389 -0.5743 -0.6614
28032SOL    HW187501   9.530   0.829   9.315 -0.3870  0.1917  0.5119
28032SOL    HW287502   9.419   0.920   9.267 -0.5447 -1.0755 -1.5885
28033SOL     OW87503   3.210   8.316   2.636  0.5216 -0.0211 -0.1069
28033SOL    HW187504   3.283   8.377   2.639  1.1993 -0.8386  0.5008
28033SOL    HW287505   3.242   8.241   2.586 -0.8053  0.7363 -2.1524
28034SOL     OW87506  10.276  10.316   1.384  0.3344 -0.2120  0.7960
28034SOL    HW187507  10.316  10.230   1.375 -0.5088 -0.6527  1.1958
28034SOL    HW287508  10.229  10.330   1.301  0.0459 -0.3632  0.9324
28035SOL     OW87509   3.812   6.266   8.743  0.6218 -0.0130 -0.3886
28035SOL    HW187510   3.795   6.185   8.790 -0.4138 -0.4779 -1.5456
28035SOL    HW287511   3.901   6.290   8.769  0.2752 -0.5413  1.3619
28036SOL     OW87512   0.025   1.202   3.101 -0.2927  0.0613 -0.2784
28036SOL    HW187513   0.054   1.284   3.140 -0.9059  0.2497 -0.2261
28036SOL    HW287514  -0.066   1.217   3.076 -0.8632 -1.0556  1.0252
28037SOL     OW87515   9.166   2.120   6.744  0.3604  0.3448 -0.4258
28037SOL    HW187516   9.098   2.163   6.796  1.7923  1.4846  0.5296
28037SOL    HW287517   9.149   2.026   6.756 -1.4907  0.6030 -0.8124
28038SOL     OW87518   9.856  10.905   4.796 -0.4903 -0.1734 -0.9853
28038SOL    HW187519   9.797  10.979   4.808  0.2722  0.4385 -0.9491
28038SOL    HW287520   9.942  10.946   4.783  0.5625 -1.0969  2.5117
28039SOL     OW87521   4.473   6.967   7.653 -0.2925 -0.2569  0.3445
28039SOL    HW187522   4.440   6.986   7.741  1.7770  0.5140  0.9964
28039SOL    HW287523   4.446   6.877   7.636 -0.8781 -0.3455  1.7031
28040SOL     OW87524   4.391   7.547   3.535  0.2184 -0.0070  0.7860
28040SOL    HW187525   4.386   7.516   3.625  0.0010  2.9156  1.8263
28040SOL    HW287526   4.311   7.599   3.523 -0.4712 -1.4949 -1.5650
28041SOL     OW87527   1.841   8.106   0.531  0.0039  0.3448  0.1560
28041SOL    HW187528   1.857   8.160   0.454  0.0369 -0.1467 -0.1857
28041SOL    HW287529   1.912   8.128   0.591  0.6922 -0.1770 -0.4552
28042SOL     OW87530   0.307   4.196   3.211  0.0964  0.3072  0.3759
28042SOL    HW187531   0.230   4.235   3.170  2.2835  3.0499 -1.2853
28042SOL    HW287532   0.293   4.210   3.305 -1.2028  1.2627  0.0547
28043SOL     OW87533   1.550   4.211   5.019 -0.6349  0.4309  0.4376
28043SOL    HW187534   1.580   4.266   5.092  1.2632 -0.6344  0.5090
28043SOL    HW287535   1.585   4.253   4.941 -1.1187  0.5813  0.3047
28044SOL     OW87536   8.835   9.792   1.253 -0.6355 -0.4428 -0.0501
28044SOL    HW187537   8.754   9.841   1.240 -0.5513 -0.8443 -2.4067
28044SOL    HW287538   8.817   9.706   1.214  0.2579 -1.2153  1.2145
28045SOL     OW87539  10.880   9.667   7.759 -0.3826 -0.4414 -0.0711
28045SOL    HW187540  10.941   9.731   7.724  1.4774 -2.2467 -0.2518
28045SOL    HW287541  10.845   9.621   7.682 -3.9293  2.1633 -0.1759
28046SOL     OW87542   0.988   1.864   8.014 -0.1381 -0.3848  0.1280
28046SOL    HW187543   1.055   1.888   8.078 -1.9231 -0.6490  2.2005
28046SOL    HW287544   1.010   1.774   7.989  0.3308 -0.4515  0.7505
28047SOL     OW87545   6.462   7.748   0.652 -0.0578  0.6764  0.0053
28047SOL    HW187546   6.516   7.824   0.631  0.4198  0.0296 -1.1792
28047SOL    HW287547   6.504   7.708   0.728  0.0752  1.2081  0.2134
28048SOL     OW87548   3.431   3.354   1.978 -0.0124 -0.3073 -0.9625
28048SOL    HW187549   3.352   3.400   2.007 -1.6298 -3.0538 -0.7938
28048SOL    HW287550   3.487   3.351   2.055 -1.3953 -1.6163  0.0417
28049SOL     OW87551   4.896   1.073  10.634 -0.1831  0.1337 -0.1410
28049SOL    HW187552   4.823   1.126  10.603 -0.6124 -2.1867 -3.3410
28049SOL    HW287553   4.859   0.986  10.650  1.4660 -0.5220  0.2521
28050SOL     OW87554   8.516   5.996   1.168 -0.0563 -0.3508 -0.3459
28050SOL    HW187555   8.612   6.001   1.164  0.0116 -1.5041 -0.2384
28050SOL    HW287556   8.494   5.916   1.121 -0.9291 -0.3913  0.1258
28051SOL     OW87557   5.740  10.231   2.937  0.5813  0.4465 -0.0738
28051SOL    HW187558   5.701  10.315   2.911 -1.0132 -0.2887 -0.1525
28051SOL    HW287559   5.797  10.206   2.864 -0.8204  0.2996 -1.1449
28052SOL     OW87560   0.022   6.563   5.121  0.6058  0.1519  0.7651
28052SOL    HW187561   0.085   6.512   5.071  0.2919  0.4654  0.0445
28052SOL    HW287562  -0.032   6.497   5.165 -0.0569 -0.1535 -0.4864
28053SOL     OW87563   7.011   5.687   6.635 -0.4106 -0.0036  0.2211
28053SOL    HW187564   7.049   5.693   6.547  0.9500  1.5222  0.8899
28053SOL    HW287565   7.031   5.598   6.664  1.3609  0.2991 -0.0292
28054SOL     OW87566   7.972   4.657   4.629 -0.0582  0.6044  0.2971
28054SOL    HW187567   7.885   4.698   4.628 -0.8451 -1.0559 -0.6626
28054SOL    HW287568   7.989   4.640   4.722 -0.6774  1.0995  0.5070
28055SOL     OW87569   9.089   2.368   2.583  0.2388 -0.0874 -0.0661
28055SOL    HW187570   9.002   2.328   2.588 -0.5886  1.7781  1.1482
28055SOL    HW287571   9.126   2.335   2.501 -1.5470 -1.0605 -0.5121
28056SOL     OW87572   7.708   1.789   4.282  0.5297 -0.5872 -0.1977
28056SOL    HW187573   7.659   1.739   4.347 -0.1829 -0.7724 -0.8674
28056SOL    HW287574   7.643   1.812   4.215  1.4981 -1.4201 -1.4430
28057SOL     OW87575   4.588   6.918  10.684  0.1094  0.3268  0.3541
28057SOL    HW187576   4.533   6.890  10.757  0.0610 -0.0319  0.1814
28057SOL    HW287577   4.543   6.885  10.606  3.0924 -4.3306  0.4446
28058SOL     OW87578   2.674   1.126   4.416 -0.2712  0.3268  0.3219
28058SOL    HW187579   2.744   1.175   4.459 -0.9580  2.6054 -1.0623
28058SOL    HW287580   2.719   1.061   4.363  0.7559  0.9665  0.4085
28059SOL     OW87581   6.848   7.401   2.677 -0.1698 -0.4870 -0.1891
28059SOL    HW187582   6.772   7.451   2.646 -1.0559 -2.3290 -1.0915
28059SOL    HW287583   6.819   7.364   2.761 -0.4840 -1.6681 -0.8149
28060SOL     OW87584   8.183   3.337   2.618  0.0265  0.2525 -0.5375
28060SOL    HW187585   8.268   3.358   2.657  0.1826  0.7883 -1.1637
28060SOL    HW287586   8.120   3.388   2.669  0.3587  1.9480 -1.7814
28061SOL     OW87587   2.138   9.174   4.686  0.5002 -0.2983 -0.3670
28061SOL    HW187588   2.074   9.238   4.719 -0.4534 -1.3562 -0.1391
28061SOL    HW287589   2.185   9.145   4.764  1.3585  0.5802 -0.5529
28062SOL     OW87590   3.787   1.074   3.438 -0.1695 -0.2988 -0.7141
28062SOL    HW187591   3.881   1.093   3.440 -0.3025  0.3394 -0.1726
28062SOL    HW287592   3.750   1.145   3.385 -0.5510  0.4276  0.4905
28063SOL     OW87593   9.342   9.610   9.607 -0.0508 -0.1857 -0.5166
28063SOL    HW187594   9.249   9.590   9.616 -0.5347  1.2493 -2.0562
28063SOL    HW287595   9.380   9.532   9.566 -0.6589 -0.5519 -0.3818
28064SOL     OW87596   5.117   4.639   4.240 -0.5384 -0.1304  0.0832
28064SOL    HW187597   5.184   4.573   4.255 -0.1149 -0.4257 -2.8486
28064SOL    HW287598   5.043   4.612   4.295 -0.5252 -3.2879 -1.3752
28065SOL     OW87599   4.606   1.199   3.586 -1.1597 -0.3592  0.1469
28065SOL    HW187600   4.602   1.264   3.656  0.0499 -0.8402  0.6929
28065SOL    HW287601   4.546   1.130   3.614  1.0190 -1.6337  1.9105
28066SOL     OW87602   7.387   0.290   6.277 -0.1020 -0.2930 -0.1539
28066SOL    HW187603   7.472   0.318   6.310 -0.9214  0.4693  1.3751
28066SOL    HW287604   7.402   0.201   6.245  0.9122 -0.8169  1.6648
28067SOL     OW87605  10.721   0.499   4.279  0.7341  0.3946  0.0113
28067SOL    HW187606  10.795   0.555   4.302 -0.4831  2.4379 -0.9022
28067SOL    HW287607  10.654   0.560   4.246 -1.4602 -1.3577  1.0908
28068SOL     OW87608   2.953   2.116   5.294 -0.0222  0.5130  0.1892
28068SOL    HW187609   2.912   2.202   5.300 -1.8204 -0.2654 -0.6039
28068SOL    HW287610   3.029   2.130   5.238 -0.9110  1.3838 -0.8353
28069SOL     OW87611   9.843   8.477   5.286 -0.1500  0.2784 -0.5425
28069SOL    HW187612   9.827   8.388   5.317 -0.8803  0.2034 -1.1351
28069SOL    HW287613   9.919   8.468   5.227  1.1233  0.3980  1.0511
28070SOL     OW87614   8.617   6.186   0.751  0.5857 -0.6183 -0.1245
28070SOL    HW187615   8.676   6.239   0.697 -0.4083 -0.2058 -0.8222
28070SOL    HW287616   8.611   6.234   0.834 -0.0345  0.1856 -0.6291
28071SOL     OW87617   9.751   4.788  10.501 -0.4710 -0.1122 -0.3622
28071SOL    HW187618   9.813   4.860  10.514 -2.1362  1.2699  0.1079
28071SOL    HW287619   9.792   4.713  10.544  1.0408  0.6759 -0.3834
28072SOL     OW87620   7.539   0.459  10.839 -0.4334  0.3387  0.2282
28072SOL    HW187621   7.472   0.421  10.782  1.2650 -0.4996 -1.2621
28072SOL    HW287622   7.490   0.491  10.915 -2.4516 -0.7939 -0.5418
28073SOL     OW87623   3.858   9.076   5.429  0.1306  0.4367 -0.4663
28073SOL    HW187624   3.796   9.138   5.468 -0.2208 -0.7141  0.8358
28073SOL    HW287625   3.929   9.131   5.396 -0.2781  1.5615  0.4806
28074SOL     OW87626   3.159   4.414  10.940 -0.1066  0.0423 -0.0909
28074SOL    HW187627   3.211   4.493  10.953 -3.0978  1.9479  0.8469
28074SOL    HW287628   3.158   4.371  11.026 -3.3903  2.1783  1.0175
28075SOL     OW87629   8.488   1.790   4.497 -0.4346 -0.8309 -0.1000
28075SOL    HW187630   8.448   1.800   4.583 -0.1915 -0.0318 -0.0769
28075SOL    HW287631   8.541   1.710   4.505  0.2146 -0.3270  0.7345
28076SOL     OW87632   0.682   2.686   7.723  0.9678  0.1948  0.2399
28076SOL    HW187633   0.746   2.615   7.723  2.0947  1.2111  0.9278
28076SOL    HW287634   0.723   2.756   7.774  0.0904  1.5451 -0.8841
28077SOL     OW87635   3.700   5.771   6.627  0.0746 -0.0654  0.0038
28077SOL    HW187636   3.787   5.735   6.645  0.2785  0.6120  0.4178
28077SOL    HW287637   3.717   5.844   6.566 -0.0544  0.9199  1.1338
28078SOL     OW87638   4.098   3.661   6.222 -0.2251 -0.3725 -0.4142
28078SOL    HW187639   4.164   3.723   6.252  0.6716 -1.5961  0.2216
28078SOL    HW287640   4.149   3.590   6.182 -1.2181 -0.8073 -0.9156
28079SOL     OW87641   3.601   2.170   7.901  0.0560 -0.2921 -0.0225
28079SOL    HW187642   3.558   2.174   7.816 -1.1850  0.4401  0.6249
28079SOL    HW287643   3.693   2.157   7.880  0.1479  2.3018 -1.5768
28080SOL     OW87644   7.428   1.016   9.419 -0.3053  0.1967  0.6075
28080SOL    HW187645   7.408   1.028   9.326  0.8729 -2.8285 -0.1174
28080SOL    HW287646   7.517   0.979   9.419 -0.4080 -0.1046  2.9059
28081SOL     OW87647   5.745   1.130   0.627 -0.0502 -0.3884 -0.4030
28081SOL    HW187648   5.767   1.041   0.655  0.4335  0.1023  0.8400
28081SOL    HW287649   5.828   1.179   0.636 -0.7427  0.6072  0.7015
28082SOL     OW87650   8.041   5.954   4.769 -0.0376 -0.3935  0.4862
28082SOL    HW187651   8.101   5.886   4.738 -1.3450 -0.5624 -1.7915
28082SOL    HW287652   8.098   6.029   4.788  0.8297  0.0900 -3.4470
28083SOL     OW87653   9.398   7.695   6.019 -0.2427 -0.4974  0.5272
28083SOL    HW187654   9.314   7.697   6.065 -0.7968 -0.1596 -0.4764
28083SOL    HW287655   9.416   7.602   6.006  0.6739 -0.6540  2.7644
28084SOL     OW87656   1.936   7.935   1.529 -0.7803  0.6527  0.0978
28084SOL    HW187657   2.028   7.948   1.554 -0.5613 -1.1221  0.2654
28084SOL    HW287658   1.888   8.000   1.580  0.3038  1.0427  0.6305
28085SOL     OW87659   2.357   8.367   7.326 -0.8531 -0.2230  0.1155
28085SOL    HW187660   2.388   8.426   7.395 -2.4805  1.7015 -0.7432
28085SOL    HW287661   2.321   8.292   7.373 -0.0784  0.1209  1.2790
28086SOL     OW87662   5.495   7.588   5.143  0.2449 -0.0376  0.6746
28086SOL    HW187663   5.420   7.594   5.084  0.4813 -2.0556  0.1311
28086SOL    HW287664   5.459   7.610   5.229 -0.6904  0.2853  0.2098
28087SOL     OW87665   7.471   3.652   3.899  0.2930  0.4619 -0.2975
28087SOL    HW187666   7.461   3.624   3.808 -2.9017 -0.8680  0.4194
28087SOL    HW287667   7.499   3.573   3.945 -0.6092  0.4842  0.2969
28088SOL     OW87668   9.976   5.444   9.041 -0.4346 -0.3227  0.2984
28088SOL    HW187669   9.918   5.521   9.041  0.2691  0.2411 -2.0232
28088SOL    HW287670  10.064   5.480   9.054 -0.1162 -0.7532 -0.6702
28089SOL     OW87671   1.277   9.037   3.799  0.3157 -0.1074  0.5462
28089SOL    HW187672   1.279   9.076   3.712  1.1685 -0.9320  0.1926
28089SOL    HW287673   1.184   9.017   3.814  0.1735 -0.0175 -0.1959
28090SOL     OW87674   3.984   2.601   5.873 -0.0905 -0.0935 -0.3354
28090SOL    HW187675   3.924   2.572   5.804 -0.5630 -0.8944  0.4168
28090SOL    HW287676   4.034   2.523   5.897  0.2376  0.2370  0.0681
28091SOL     OW87677   3.286   3.160   5.717 -0.3764  0.3671 -0.7726
28091SOL    HW187678   3.331   3.176   5.634 -0.1277 -0.2929 -0.7684
28091SOL    HW287679   3.355   3.137   5.779 -0.6082  0.4123 -0.4936
28092SOL     OW87680   7.182   6.436   0.816  0.6127  0.0276 -0.3593
28092SOL    HW187681   7.259   6.385   0.842  0.1559 -0.6897 -0.4014
28092SOL    HW287682   7.114   6.409   0.878  0.2604  0.2901 -0.6343
28093SOL     OW87683   0.578   3.029   0.193  0.1871  0.5600  0.7140
28093SOL    HW187684   0.628   3.110   0.197  1.6441 -0.1958 -1.2911
28093SOL    HW287685   0.632   2.965   0.239  0.0716  0.2352  0.4014
28094SOL     OW87686   7.278   9.836   9.201 -0.6612  0.0784  0.1287
28094SOL    HW187687   7.214   9.771   9.173  0.1613 -1.0670  0.8705
28094SOL    HW287688   7.309   9.805   9.286  0.3960  0.9715  0.0862
28095SOL     OW87689   2.187   3.038   3.469  0.8023  0.9465 -0.5619
28095SOL    HW187690   2.228   3.023   3.383  1.3738  1.0751 -0.3163
28095SOL    HW287691   2.224   3.122   3.498  1.4432  0.3679  0.2941
28096SOL     OW87692   3.100   2.138   7.246  0.1324 -0.1820  0.4242
28096SOL    HW187693   3.081   2.100   7.332 -0.4234 -2.5741 -0.7025
28096SOL    HW287694   3.058   2.078   7.184  1.6304  0.7864 -1.5826
28097SOL     OW87695   2.500   2.636   0.157  0.0581  0.7869 -0.0241
28097SOL    HW187696   2.582   2.645   0.109  0.2469  0.6661  0.2776
28097SOL    HW287697   2.526   2.626   0.248 -0.3957  3.9522  0.5128
28098SOL     OW87698   4.464   0.255   1.669  0.0015 -0.2899  0.0083
28098SOL    HW187699   4.442   0.178   1.721  2.8295 -1.7141 -0.7811
28098SOL    HW287700   4.518   0.221   1.598  2.4339  2.5350  0.3804
28099SOL     OW87701   5.309   3.807   0.218  0.3236 -0.2083  0.0625
28099SOL    HW187702   5.268   3.769   0.295  0.0074 -0.8336 -0.4124
28099SOL    HW287703   5.279   3.898   0.217 -1.0147 -0.6518 -0.2621
28100SOL     OW87704  10.558   5.382  10.110 -0.3153 -0.0753 -0.2971
28100SOL    HW187705  10.587   5.295  10.085 -0.1010 -0.0410 -0.1672
28100SOL    HW287706  10.506   5.368  10.190 -3.0135 -0.4849 -2.0432
28101SOL     OW87707   2.140   3.445   9.135  0.0525 -0.1455  0.5664
28101SOL    HW187708   2.177   3.376   9.080  1.1448 -0.3183  1.5089
28101SOL    HW287709   2.202   3.455   9.207 -1.4350 -0.0122  1.8494
28102SOL     OW87710   4.970   8.489   0.927  0.3121 -0.1869  0.2297
28102SOL    HW187711   5.040   8.477   0.991 -1.5254 -0.5828  2.2298
28102SOL    HW287712   4.987   8.423   0.859  1.1560 -1.1174  1.3415
28103SOL     OW87713   6.792  10.527   1.917  0.4866  0.7840  0.4038
28103SOL    HW187714   6.792  10.623   1.913  0.0029  0.7503 -0.9662
28103SOL    HW287715   6.722  10.506   1.978 -0.5942  1.2934 -0.6250
28104SOL     OW87716   5.813   9.734   5.773  0.0240 -0.2493 -0.2887
28104SOL    HW187717   5.797   9.640   5.785 -0.9700 -0.0666 -0.1268
28104SOL    HW287718   5.860   9.761   5.852  1.9998 -0.9893 -1.1905
28105SOL     OW87719  10.196   2.548   9.033  0.4859  0.2395 -0.3838
28105SOL    HW187720  10.154   2.632   9.046  0.9580  0.3695  0.3500
28105SOL    HW287721  10.131   2.484   9.060  0.4161  0.4033 -0.1619
28106SOL     OW87722   0.713   2.643   5.428 -0.0646 -0.0577 -0.6457
28106SOL    HW187723   0.737   2.566   5.376  0.9619  0.1982 -0.5607
28106SOL    HW287724   0.765   2.636   5.508  0.0158  0.7083 -0.6206
28107SOL     OW87725   8.551   0.352   2.910 -0.4198  0.1156  0.0709
28107SOL    HW187726   8.470   0.335   2.958 -1.0172 -2.1158 -1.6400
28107SOL    HW287727   8.621   0.338   2.974 -1.3714  3.1712  1.8721
28108SOL     OW87728  10.498   4.560   4.342  0.3354 -0.4230  0.0724
28108SOL    HW187729  10.479   4.569   4.435  1.2495 -1.5821  0.3897
28108SOL    HW287730  10.537   4.473   4.334 -1.4146 -1.0789 -1.6858
28109SOL     OW87731   5.758   9.264   0.329  0.0382  0.3746 -0.0045
28109SOL    HW187732   5.708   9.332   0.284 -0.5326 -0.3551 -0.4826
28109SOL    HW287733   5.703   9.186   0.325  0.6392 -0.0948  0.6359
28110SOL     OW87734  10.874   2.030   8.921 -0.0031 -0.3309  0.0431
28110SOL    HW187735  10.886   2.122   8.943  2.7873 -0.7254  0.3237
28110SOL    HW287736  10.811   2.030   8.849  0.3473  1.8411 -0.2748
28111SOL     OW87737   0.662   0.091   5.500 -0.2940 -0.1966 -0.4007
28111SOL    HW187738   0.697   0.072   5.587 -2.5327 -1.3334  0.2715
28111SOL    HW287739   0.713   0.034   5.441  0.0648 -0.6719  0.3626
28112SOL     OW87740   4.629   5.914   0.178 -0.1951 -0.7659 -0.4239
28112SOL    HW187741   4.535   5.898   0.182 -0.6452  1.3780 -1.4745
28112SOL    HW287742   4.661   5.890   0.265 -2.1278  0.7215  0.7554
28113SOL     OW87743   1.717   9.408   0.231 -0.2246 -0.0732  0.2806
28113SOL    HW187744   1.629   9.403   0.269 -0.6170 -0.6226 -0.6761
28113SOL    HW287745   1.719   9.493   0.186 -1.8210 -1.8608 -3.3796
28114SOL     OW87746   8.715   6.647   2.338 -0.0125  0.1480 -0.3765
28114SOL    HW187747   8.749   6.602   2.416  2.6679 -1.1928 -2.2612
28114SOL    HW287748   8.745   6.737   2.349 -0.0669  0.0841  0.3749
28115SOL     OW87749   8.067   4.369   2.699  0.5045  0.1175 -0.2108
28115SOL    HW187750   8.013   4.329   2.631  0.9137 -0.2899 -0.3016
28115SOL    HW287751   8.019   4.353   2.780 -0.0038  0.6392 -0.4064
28116SOL     OW87752   1.167  10.073   5.589 -0.1276  0.2947 -0.4638
28116SOL    HW187753   1.141  10.022   5.512 -2.3176  0.7853 -0.0826
28116SOL    HW287754   1.230  10.136   5.556  1.4140 -1.6058 -1.2342
28117SOL     OW87755   6.039   9.185   9.527  0.1486 -0.0643  0.1600
28117SOL    HW187756   6.039   9.114   9.592  1.1371 -0.6735 -0.4950
28117SOL    HW287757   6.105   9.159   9.463 -3.5285 -1.3623 -3.2020
28118SOL     OW87758  10.261   5.285   7.191  0.4494 -0.7982 -0.3097
28118SOL    HW187759  10.175   5.289   7.233  0.4188  0.4738 -0.4755
28118SOL    HW287760  10.322   5.269   7.263  0.0420 -2.1030 -0.2427
28119SOL     OW87761   9.256   6.274   3.195  0.6653  0.8113  0.0507
28119SOL    HW187762   9.221   6.187   3.214  0.0341  1.4608  1.9624
28119SOL    HW287763   9.324   6.259   3.130 -1.1231 -0.8284 -1.5154
28120SOL     OW87764   0.506   4.031   0.474  0.1214 -0.1502  0.1699
28120SOL    HW187765   0.412   4.020   0.490  0.1662 -1.1145 -0.2309
28120SOL    HW287766   0.512   4.058   0.383  0.2219  0.2900  0.3002
28121SOL     OW87767   8.550   8.643   5.783 -0.8835  0.4210  0.7169
28121SOL    HW187768   8.476   8.583   5.782 -1.0891  0.6545 -1.7911
28121SOL    HW287769   8.520   8.719   5.733  1.3556  0.0891 -1.2227
28122SOL     OW87770   2.007  10.765   3.499 -0.1471 -0.1458  0.1840
28122SOL    HW187771   1.999  10.740   3.407 -0.9263 -0.2977  0.2895
28122SOL    HW287772   1.939  10.831   3.512  2.1054  2.2862 -0.1705
28123SOL     OW87773   7.059   5.650   7.995  0.3777  0.2230 -0.5433
28123SOL    HW187774   7.151   5.676   8.004  0.6357 -0.1127 -2.1738
28123SOL    HW287775   7.051   5.618   7.905 -1.1913 -0.3478 -0.2157
28124SOL     OW87776   2.008   8.387   6.860 -0.5741 -0.2993  0.0538
28124SOL    HW187777   1.919   8.375   6.892 -0.9965  0.7545 -0.6814
28124SOL    HW287778   2.001   8.377   6.765  0.2016 -0.7893  0.0399
28125SOL     OW87779   3.897   6.574   9.298  0.0799  0.1347  0.3937
28125SOL    HW187780   3.863   6.663   9.297  2.5106  1.0931  0.1296
28125SOL    HW287781   3.897   6.549   9.390  0.6403  0.9086  0.6074
28126SOL     OW87782   4.706   0.720   2.998 -0.0410 -0.2571 -0.5718
28126SOL    HW187783   4.758   0.646   3.028 -0.6679 -0.3292  0.3490
28126SOL    HW287784   4.764   0.796   3.008  0.8689 -0.7141 -2.2390
28127SOL     OW87785   0.636   1.677   8.709  0.3072  0.4672  0.1399
28127SOL    HW187786   0.575   1.607   8.733 -0.3086  1.0093  0.1707
28127SOL    HW287787   0.674   1.648   8.626  1.4872 -0.8090  1.0939
28128SOL     OW87788  10.366   1.735   8.226  0.2920  0.1405 -0.6731
28128SOL    HW187789  10.401   1.656   8.186 -0.6794 -1.4249  1.4694
28128SOL    HW287790  10.440   1.771   8.276  0.5950  0.3268 -1.2516
28129SOL     OW87791   1.163  10.252   1.742  0.2580 -0.4556  0.1032
28129SOL    HW187792   1.083  10.211   1.775  0.4235 -2.3093 -1.7169
28129SOL    HW287793   1.234  10.196   1.775  0.6867  0.0636  0.0687
28130SOL     OW87794   1.448   4.698   4.402  0.2312 -0.0147 -0.2446
28130SOL    HW187795   1.427   4.676   4.311  0.7058  0.2384 -0.4183
28130SOL    HW287796   1.516   4.765   4.395 -0.2621  0.5473  0.2953
28131SOL     OW87797  10.010   5.584   0.063  0.2424 -0.4049  0.2716
28131SOL    HW187798  10.020   5.574   0.158 -1.0332  1.8473  0.6675
28131SOL    HW287799  10.036   5.675   0.045 -1.0411 -0.3306 -1.3120
28132SOL     OW87800   5.959   0.981   9.291 -0.5964  0.1072 -0.3641
28132SOL    HW187801   6.050   0.978   9.263 -0.4089 -0.0184  0.2392
28132SOL    HW287802   5.915   0.914   9.239  0.0935 -1.3104  0.8730
28133SOL     OW87803   6.925   3.959   4.826  0.1160 -0.1759 -0.0904
28133SOL    HW187804   6.897   4.023   4.891  0.3214 -0.2997  0.1229
28133SOL    HW287805   7.014   3.986   4.802  0.2039 -0.3763  0.0017
28134SOL     OW87806  10.693   3.494   2.294 -0.1842 -0.2351 -0.5029
28134SOL    HW187807  10.723   3.463   2.209 -0.4576  2.9335 -1.8035
28134SOL    HW287808  10.622   3.555   2.274  0.6875  1.6487  1.8629
28135SOL     OW87809  10.425   6.146   1.481  0.4412 -0.1123 -0.2476
28135SOL    HW187810  10.400   6.153   1.573 -0.0700  0.4074 -0.4209
28135SOL    HW287811  10.341   6.139   1.434  0.6820  0.0479 -0.7091
28136SOL     OW87812   0.459   3.711   9.197 -0.8774  0.4804 -0.0425
28136SOL    HW187813   0.365   3.693   9.201 -0.5069 -1.1849  2.5777
28136SOL    HW287814   0.491   3.692   9.285  1.8789  1.2943 -0.8112
28137SOL     OW87815   3.517   1.703   3.917 -0.1354 -0.0558  0.5219
28137SOL    HW187816   3.482   1.785   3.881 -0.1238 -0.6470 -0.8575
28137SOL    HW287817   3.574   1.731   3.989  0.0631  1.1623 -0.1013
28138SOL     OW87818   2.335   3.491   7.873  0.2746  0.0593 -0.2276
28138SOL    HW187819   2.307   3.562   7.930  0.7476  0.0731 -0.0045
28138SOL    HW287820   2.424   3.516   7.846  0.0267  0.0807 -1.0177
28139SOL     OW87821   7.967   6.283   1.429 -0.2738 -0.5830  0.0465
28139SOL    HW187822   8.019   6.234   1.493 -0.7269 -0.6209  0.3815
28139SOL    HW287823   7.952   6.368   1.471 -0.3082 -0.4969 -0.1402
28140SOL     OW87824  10.753   4.833   5.349  0.4241  0.0452  0.4011
28140SOL    HW187825  10.703   4.910   5.375  1.6121  0.7958  0.4893
28140SOL    HW287826  10.788   4.854   5.263  1.1578 -0.1861  0.6339
28141SOL     OW87827   6.411   6.021   4.181  0.4222 -0.0583 -0.3755
28141SOL    HW187828   6.430   6.073   4.259  0.0872 -0.7474  0.1702
28141SOL    HW287829   6.364   5.945   4.214  0.2486 -0.3375 -1.2582
28142SOL     OW87830  10.784   6.329   6.235  0.0094 -0.1902 -0.1128
28142SOL    HW187831  10.830   6.376   6.305  0.1839 -1.8219  0.8783
28142SOL    HW287832  10.740   6.257   6.279 -0.1587 -1.0433 -1.6359
28143SOL     OW87833   2.822   5.140   2.678 -0.2691 -0.1123 -0.1705
28143SOL    HW187834   2.788   5.224   2.648 -0.6210 -0.4752 -0.7922
28143SOL    HW287835   2.756   5.077   2.651  0.3556 -0.6843 -0.3611
28144SOL     OW87836   3.398   6.499   3.173 -0.0810  0.2204 -0.1058
28144SOL    HW187837   3.386   6.583   3.217  1.4937  0.8357 -0.7983
28144SOL    HW287838   3.312   6.458   3.174 -1.4761  2.9868 -2.0939
28145SOL     OW87839   3.932   5.204   6.396 -0.3919 -0.5993 -0.0705
28145SOL    HW187840   3.905   5.213   6.305  1.0247 -1.0516 -0.5427
28145SOL    HW287841   3.966   5.115   6.403  1.8970  0.2491  0.2418
28146SOL     OW87842   4.966   1.320   7.215  0.1916  0.2355  0.6950
28146SOL    HW187843   5.014   1.400   7.193  0.8112 -0.6542 -1.2535
28146SOL    HW287844   4.886   1.326   7.163 -0.6319  0.4307  1.9344
28147SOL     OW87845   8.797   9.971   3.299 -0.3708 -0.1493 -0.4472
28147SOL    HW187846   8.759  10.004   3.218  0.6481 -0.8252 -1.2221
28147SOL    HW287847   8.881  10.016   3.306 -0.6042  0.1589  0.4206
28148SOL     OW87848   9.700   5.728  10.133  0.0255 -0.4925  0.0160
28148SOL    HW187849   9.692   5.762  10.043 -1.5192  0.4768  0.5083
28148SOL    HW287850   9.659   5.641  10.129  0.5013 -0.7102 -0.3360
28149SOL     OW87851  10.056   7.832  10.728 -0.8879 -0.0417  0.2659
28149SOL    HW187852   9.963   7.855  10.727 -1.0164 -0.5906 -0.5723
28149SOL    HW287853  10.059   7.747  10.773 -0.7363  0.1797  0.6827
28150SOL     OW87854   8.533   6.697  10.647 -0.0035  0.1893 -0.5612
28150SOL    HW187855   8.480   6.771  10.677  2.4518  1.8223 -0.1010
28150SOL    HW287856   8.616   6.736  10.621  1.2456 -2.3841 -0.6095
28151SOL     OW87857   4.521   2.620   1.325  0.1922 -0.5970  0.4903
28151SOL    HW187858   4.538   2.632   1.418 -0.6846  3.1469  0.2184
28151SOL    HW287859   4.447   2.676   1.306 -0.1748 -1.9224 -2.3393
28152SOL     OW87860   8.814   6.653   4.560 -0.3230  0.0021  0.0139
28152SOL    HW187861   8.733   6.703   4.547  1.1205  2.8212  1.3325
28152SOL    HW287862   8.869   6.680   4.486 -0.2516 -1.1980 -0.3703
28153SOL     OW87863   5.285   1.383   1.180  0.0101 -0.0603 -0.9424
28153SOL    HW187864   5.340   1.307   1.203 -0.3734  0.0640  0.4690
28153SOL    HW287865   5.269   1.374   1.087  1.1878 -0.9263 -1.0756
28154SOL     OW87866   6.161   5.189   1.379  0.0907  0.0110 -0.1551
28154SOL    HW187867   6.215   5.172   1.301  2.2251  0.9779  1.0533
28154SOL    HW287868   6.096   5.253   1.350 -0.5102 -1.2551 -1.6801
28155SOL     OW87869   0.050   1.586   2.379 -0.1686 -0.4240  0.5846
28155SOL    HW187870   0.058   1.490   2.385 -0.2671 -0.4851 -0.1493
28155SOL    HW287871   0.112   1.619   2.444  2.4478 -0.9559 -1.5251
28156SOL     OW87872   9.080  10.309   5.019 -0.1928 -0.4636 -0.2859
28156SOL    HW187873   9.151  10.330   5.081 -0.2331  1.3278 -0.8304
28156SOL    HW287874   9.075  10.386   4.962 -2.3580 -0.7236 -0.4661
28157SOL     OW87875   1.355   9.736  10.437 -0.1140  0.1954 -0.2568
28157SOL    HW187876   1.324   9.800  10.374  0.3867  0.7478  0.0581
28157SOL    HW287877   1.440   9.707  10.403 -0.1489  0.0034 -0.1830
28158SOL     OW87878   7.458   7.353   3.183 -0.0178  0.1215  0.1762
28158SOL    HW187879   7.390   7.420   3.183 -2.3613 -2.2082 -0.8696
28158SOL    HW287880   7.473   7.334   3.276  0.0304  1.4128  0.4467
28159SOL     OW87881   8.979   3.787   6.732 -0.4169 -0.1303 -0.4597
28159SOL    HW187882   9.017   3.851   6.792  0.2932 -0.2831 -0.7511
28159SOL    HW287883   8.885   3.791   6.750 -0.1823 -0.3481  0.8269
28160SOL     OW87884   7.657   6.211   9.905 -0.3820 -0.3039 -0.0006
28160SOL    HW187885   7.653   6.141   9.839 -0.6368  1.0085 -1.3998
28160SOL    HW287886   7.732   6.264   9.878  0.1510 -0.3476  1.3821
28161SOL     OW87887   9.743  10.351   8.669  0.7534  0.0140  0.5958
28161SOL    HW187888   9.725  10.435   8.627 -0.5228 -0.8610 -0.6696
28161SOL    HW287889   9.696  10.355   8.753 -2.5928 -0.8853 -1.1354
28162SOL     OW87890   1.237   5.520  10.708  0.1555  0.2742 -0.3144
28162SOL    HW187891   1.329   5.494  10.710 -0.3219 -1.5550 -1.4297
28162SOL    HW287892   1.234   5.598  10.652  0.7879 -0.6624 -1.6588
28163SOL     OW87893   7.529   7.259   1.545  0.7512 -0.8164 -0.2355
28163SOL    HW187894   7.591   7.317   1.590  0.3200  0.2191 -0.9498
28163SOL    HW287895   7.463   7.240   1.611  2.0721 -2.3335  0.6878
28164SOL     OW87896   7.299   5.464   7.469  0.1074  0.2951 -0.5428
28164SOL    HW187897   7.342   5.383   7.441  1.7849  0.2676  1.8724
28164SOL    HW287898   7.337   5.532   7.414 -0.0980 -0.3512 -1.4886
28165SOL     OW87899   4.406   7.160   3.741 -0.4200  0.1709 -0.6037
28165SOL    HW187900   4.323   7.115   3.723  0.2517 -0.4446 -2.3222
28165SOL    HW287901   4.459   7.144   3.663  1.1225  1.0246  0.2431
28166SOL     OW87902   8.289   6.138   1.113 -0.0164 -0.0824  0.1623
28166SOL    HW187903   8.381   6.127   1.136  0.0163  0.6652  0.4327
28166SOL    HW287904   8.284   6.228   1.080 -0.5147 -0.3596 -0.5315
28167SOL     OW87905   6.435   8.458   7.891 -0.5031  0.2629 -0.9430
28167SOL    HW187906   6.471   8.487   7.808 -0.2637 -1.7887 -1.5853
28167SOL    HW287907   6.495   8.389   7.921 -1.2095  0.1888  0.3737
28168SOL     OW87908  10.016   6.568   7.518  0.2270  0.3389  0.5567
28168SOL    HW187909   9.924   6.579   7.539 -0.7759 -3.1082 -1.5478
28168SOL    HW287910  10.025   6.604   7.429  1.3511  2.3199  1.4458
28169SOL     OW87911   0.656  10.153   1.349 -0.0543  0.1806  0.0883
28169SOL    HW187912   0.677  10.129   1.439  0.0437 -0.2736 -0.0516
28169SOL    HW287913   0.618  10.241   1.355 -0.9069 -0.2196  0.6653
28170SOL     OW87914   0.439   3.203   2.982 -0.3901  0.7046  0.4547
28170SOL    HW187915   0.407   3.214   3.072  1.7220  0.0062  1.3274
28170SOL    HW287916   0.417   3.113   2.959  1.0021  0.1857  1.0997
28171SOL     OW87917  10.554   7.477   9.973 -0.1828  0.4859  0.4156
28171SOL    HW187918  10.535   7.513   9.887 -2.1215 -0.0625  0.6010
28171SOL    HW287919  10.560   7.382   9.960  0.0486  0.4445  0.7886
28172SOL     OW87920  10.647   1.058   5.406 -0.2886 -0.5962  0.0476
28172SOL    HW187921  10.611   1.054   5.495 -0.2045 -1.1625  0.0594
28172SOL    HW287922  10.721   1.119   5.413 -0.9364  0.1887  0.1273
28173SOL     OW87923   7.237   4.209   4.548  0.2888  0.0105  0.0119
28173SOL    HW187924   7.310   4.148   4.544  0.3131  0.0617 -0.3379
28173SOL    HW287925   7.182   4.186   4.473 -0.3046 -0.3499  0.5594
28174SOL     OW87926   4.761   9.635   9.775  0.4631 -0.2596 -0.0596
28174SOL    HW187927   4.680   9.685   9.769  0.1813 -0.8495 -1.4047
28174SOL    HW287928   4.733   9.543   9.769  1.1905 -0.4834 -0.1263
28175SOL     OW87929  10.313   0.239   4.146  0.0854 -0.5116 -0.3035
28175SOL    HW187930  10.262   0.159   4.157  1.2234 -1.4780 -1.8709
28175SOL    HW287931  10.391   0.226   4.199 -0.8238  0.5733  1.3409
28176SOL     OW87932   0.597   6.699   6.687 -0.0432 -0.2710  0.0422
28176SOL    HW187933   0.553   6.651   6.757  0.0980 -2.2070 -1.1613
28176SOL    HW287934   0.690   6.686   6.703 -0.0045 -0.4608 -0.3218
28177SOL     OW87935   8.299   5.561  10.652 -0.2098 -0.1928 -0.0875
28177SOL    HW187936   8.391   5.533  10.649  0.0546  0.6496 -0.1648
28177SOL    HW287937   8.266   5.527  10.735  0.3727  0.0794  0.2625
28178SOL     OW87938   9.745   7.427   3.402 -0.0866  0.1773 -0.2401
28178SOL    HW187939   9.838   7.414   3.421 -0.3894 -0.6354  0.7467
28178SOL    HW287940   9.699   7.382   3.473 -1.2393  0.3306 -0.8633
28179SOL     OW87941   7.484   3.286   9.034  0.4910 -0.0700  0.2010
28179SOL    HW187942   7.518   3.358   9.087  0.4195 -0.2939  0.5498
28179SOL    HW287943   7.456   3.328   8.953 -1.9558  0.7221  1.3963
28180SOL     OW87944   0.424   8.653   5.523  0.2568 -0.4653  0.6015
28180SOL    HW187945   0.333   8.636   5.498  0.1865  0.4589  0.2236
28180SOL    HW287946   0.452   8.725   5.468  1.6113 -1.5059 -0.1247
28181SOL     OW87947   9.472   0.683  10.732 -0.3316 -0.2699  0.0141
28181SOL    HW187948   9.414   0.608  10.742 -0.8827  0.0313 -0.8696
28181SOL    HW287949   9.540   0.670  10.798 -1.4969 -0.5321  1.1684
28182SOL     OW87950   6.315   8.558   1.735  0.0078 -0.0429  0.1026
28182SOL    HW187951   6.278   8.508   1.808 -1.0202 -1.0818 -1.1090
28182SOL    HW287952   6.344   8.491   1.673 -0.2799  0.8442 -0.9962
28183SOL     OW87953   1.488   1.369   3.502  0.3224  0.5511  0.0505
28183SOL    HW187954   1.465   1.361   3.594 -0.6087 -1.6725 -0.3467
28183SOL    HW287955   1.511   1.280   3.475  2.8542  1.5412 -1.3038
28184SOL     OW87956   9.516   2.610   8.773 -0.2477  0.6149  0.3877
28184SOL    HW187957   9.546   2.679   8.832 -0.7988  1.4091 -0.2381
28184SOL    HW287958   9.423   2.600   8.793 -0.3479  0.6107 -0.0730
28185SOL     OW87959   9.889   8.650  10.141 -0.1330  0.0323 -0.4307
28185SOL    HW187960   9.847   8.623  10.060  0.2880 -0.7489 -0.3966
28185SOL    HW287961   9.979   8.620  10.133  0.1075  0.6088  0.0139
28186SOL     OW87962   9.763   4.821   8.237 -0.5102  0.0519  0.7787
28186SOL    HW187963   9.690   4.763   8.258 -0.3202 -0.4667  0.0146
28186SOL    HW287964   9.811   4.829   8.320 -1.2623  0.1650  1.2119
28187SOL     OW87965   7.538   0.037   2.689  0.2185 -0.0993  0.0081
28187SOL    HW187966   7.558   0.017   2.780 -1.8648  0.3174  0.5638
28187SOL    HW287967   7.532  -0.049   2.646 -0.1453 -0.3324  0.5346
28188SOL     OW87968   6.458   6.078   8.128  0.3271  0.0894 -0.3340
28188SOL    HW187969   6.455   6.016   8.201 -0.5950  0.1855 -0.2807
28188SOL    HW287970   6.536   6.054   8.079  0.0166 -1.0643 -0.2760
28189SOL     OW87971   9.751   7.693   7.074  0.1856 -0.1087 -0.2739
28189SOL    HW187972   9.771   7.616   7.021 -0.8606  0.7832 -2.0359
28189SOL    HW287973   9.688   7.662   7.139  0.6306 -0.9871 -0.2623
28190SOL     OW87974   6.652   8.172   2.936  0.3852  0.1664  0.0910
28190SOL    HW187975   6.701   8.092   2.952  0.8897  0.4594  0.0107
28190SOL    HW287976   6.560   8.144   2.933  0.3259 -0.0596  2.5400
28191SOL     OW87977   2.866   3.381  10.640 -0.2091 -0.2526  0.0672
28191SOL    HW187978   2.864   3.379  10.735  0.1675 -1.4588  0.0562
28191SOL    HW287979   2.950   3.341  10.616  0.0887  0.8109 -0.7581
28192SOL     OW87980   7.527  10.305   3.488 -0.4705 -0.1908  0.2861
28192SOL    HW187981   7.549  10.217   3.520  0.4842  0.1102  0.4850
28192SOL    HW287982   7.549  10.363   3.561  0.3113  0.3533 -0.3831
28193SOL     OW87983   7.741   8.253   0.495 -0.0941  0.2031  0.2821
28193SOL    HW187984   7.819   8.199   0.503  1.5449  2.6035  1.1917
28193SOL    HW287985   7.691   8.213   0.424  2.7931 -0.3956 -1.5008
28194SOL     OW87986   0.288   7.848   6.898 -0.3145  0.2084  0.3616
28194SOL    HW187987   0.238   7.792   6.957  1.5800 -0.8072  1.0229
28194SOL    HW287988   0.375   7.852   6.936  0.3590  1.2502 -1.2455
28195SOL     OW87989   1.628   4.475   4.424  0.2350  0.1895 -0.0463
28195SOL    HW187990   1.714   4.495   4.461  0.8774 -0.9859 -0.9112
28195SOL    HW287991   1.572   4.546   4.455  0.1863 -1.9116  5.1901
28196SOL     OW87992   3.799   3.885   5.591  0.0581 -0.0210 -0.5528
28196SOL    HW187993   3.728   3.842   5.639  0.1632  0.6915  0.2487
28196SOL    HW287994   3.864   3.906   5.658  0.9040 -0.4154 -1.2434
28197SOL     OW87995   5.382  10.007   9.954 -0.1306  0.0915  0.2968
28197SOL    HW187996   5.337  10.022   9.871  1.4920  1.8528 -0.2966
28197SOL    HW287997   5.345  10.072  10.014 -0.5073 -0.4484  0.6588
28198SOL     OW87998   3.962   8.116   1.933 -0.1211  0.0147  0.0223
28198SOL    HW187999   4.056   8.095   1.933  0.2662  1.6978  0.2326
28198SOL    HW288000   3.929   8.077   1.852  0.7044 -0.8094  0.0696
28199SOL     OW88001   8.726   5.575  10.502 -0.0725  0.2598  0.3350
28199SOL    HW188002   8.707   5.644  10.438  1.1623  0.1712 -0.1417
28199SOL    HW288003   8.640   5.548  10.534 -0.7852 -0.2838 -1.9116
28200SOL     OW88004  10.549   3.868   9.182  0.0006  0.9714  0.3104
28200SOL    HW188005  10.526   3.818   9.261 -1.2329 -0.6207 -1.0247
28200SOL    HW288006  10.638   3.898   9.198 -0.3139  0.8856  2.4213
28201SOL     OW88007   1.572   2.046   6.661 -0.1962 -0.0732  0.1186
28201SOL    HW188008   1.481   2.035   6.690  0.6636 -2.6696  2.0361
28201SOL    HW288009   1.616   2.086   6.736  0.1892  1.6021 -0.9722
28202SOL     OW88010   4.029   4.703   6.415 -0.0439 -0.2428  0.3118
28202SOL    HW188011   4.019   4.651   6.495 -1.1987  0.0650  0.3747
28202SOL    HW288012   4.093   4.656   6.363  0.2571 -0.7730  1.1545
28203SOL     OW88013   8.809   4.020   7.923  0.1149 -0.0115 -0.1173
28203SOL    HW188014   8.770   3.937   7.895 -0.4207  0.3801 -0.5438
28203SOL    HW288015   8.735   4.080   7.932  0.5022  0.4302  0.1530
28204SOL     OW88016   7.600   7.450   4.573 -0.0385 -0.2873  0.6827
28204SOL    HW188017   7.601   7.543   4.548  1.1198 -0.8315 -1.4403
28204SOL    HW288018   7.650   7.447   4.655  2.6631  0.5815 -0.8571
28205SOL     OW88019   5.146   9.627   1.096 -0.0622  0.0035 -0.0977
28205SOL    HW188020   5.149   9.554   1.158  0.9567  1.0530  1.1283
28205SOL    HW288021   5.127   9.587   1.012  1.5726 -1.8314  0.3705
28206SOL     OW88022   9.872   9.885   6.039  0.3703 -0.0341  0.4394
28206SOL    HW188023   9.864   9.878   6.135 -0.6296  3.0560  0.6351
28206SOL    HW288024   9.893   9.977   6.024 -1.2308 -0.1093 -2.4637
28207SOL     OW88025   0.359   5.775   0.381 -0.3303 -0.5420  0.6815
28207SOL    HW188026   0.397   5.746   0.298 -0.6303  1.4274 -0.1714
28207SOL    HW288027   0.422   5.838   0.415 -1.0512 -0.0402  1.1007
28208SOL     OW88028   0.366   3.039   9.791  0.6071 -0.1298  0.5815
28208SOL    HW188029   0.461   3.049   9.787  0.4112  1.9540  0.3990
28208SOL    HW288030   0.345   2.977   9.722  1.8908 -1.0732  1.0243
28209SOL     OW88031  10.951   1.780   0.162  0.3866 -0.0714 -0.5666
28209SOL    HW188032  10.941   1.838   0.086 -0.2909 -1.4151 -1.5208
28209SOL    HW288033  10.927   1.835   0.237 -1.4864  0.5260 -1.5726
28210SOL     OW88034   7.820   2.833   0.562  0.3752  0.0518 -0.0183
28210SOL    HW188035   7.820   2.769   0.632  0.8194  0.6809  0.5667
28210SOL    HW288036   7.753   2.897   0.588 -0.6663 -0.6142 -1.0115
28211SOL     OW88037   2.313   0.929   0.703 -0.0778 -0.3192 -0.0785
28211SOL    HW188038   2.325   0.835   0.692 -0.9412 -0.4622  0.1315
28211SOL    HW288039   2.323   0.943   0.797  0.3234 -0.1587 -0.1449
28212SOL     OW88040   3.281   4.661  10.975 -0.2000  0.6201 -0.0346
28212SOL    HW188041   3.333   4.663  10.895  1.2532  2.2295  0.9102
28212SOL    HW288042   3.246   4.750  10.982 -0.3214  0.4833  1.1122
28213SOL     OW88043   3.234   7.544   3.797 -0.1242 -0.5468 -0.3901
28213SOL    HW188044   3.267   7.535   3.887  0.5194 -2.0345 -0.7599
28213SOL    HW288045   3.162   7.482   3.792 -1.6255  1.1225 -0.2589
28214SOL     OW88046   2.732   3.380   1.365 -0.0964 -0.4408  0.0984
28214SOL    HW188047   2.703   3.359   1.455 -0.2278  0.5523  0.2898
28214SOL    HW288048   2.786   3.458   1.375  1.1906 -1.2483 -0.4974
28215SOL     OW88049   5.132   7.917   2.489  0.1438  0.4670  0.2714
28215SOL    HW188050   5.173   7.882   2.569  0.3716  0.6923  0.2546
28215SOL    HW288051   5.082   7.844   2.454  1.6066 -0.2252 -0.4284
28216SOL     OW88052   0.652   1.263   8.862  0.0769  0.3036  0.0760
28216SOL    HW188053   0.684   1.286   8.775  0.7142  1.9081  0.7193
28216SOL    HW288054   0.558   1.284   8.860 -0.0486 -0.3047 -0.4359
28217SOL     OW88055   2.778   4.506   7.932 -0.4140  0.5966 -0.5736
28217SOL    HW188056   2.819   4.578   7.884  0.2986 -0.0270 -0.9135
28217SOL    HW288057   2.826   4.428   7.903 -1.2038 -0.0152 -0.2400
28218SOL     OW88058   4.750   6.969   5.730 -0.3964 -0.1239 -0.1646
28218SOL    HW188059   4.782   7.059   5.738 -1.5603  0.3758 -0.9397
28218SOL    HW288060   4.740   6.956   5.635  0.4701 -1.3298 -0.0976
28219SOL     OW88061  10.696   1.621   8.200 -0.1522  0.7671  0.0749
28219SOL    HW188062  10.665   1.707   8.228  2.0529  1.7734 -0.4918
28219SOL    HW288063  10.728   1.580   8.281  1.9315  1.8504 -0.1664
28220SOL     OW88064   3.946   5.474   3.377  0.4082 -0.8262 -0.6996
28220SOL    HW188065   3.902   5.480   3.462 -1.2923 -2.7935 -1.4049
28220SOL    HW288066   4.010   5.545   3.379 -1.4185  0.8465  1.1586
28221SOL     OW88067   6.791   8.929   0.465 -0.1055  0.4158  0.5356
28221SOL    HW188068   6.844   8.868   0.517 -1.1835 -2.2256 -1.3741
28221SOL    HW288069   6.820   8.916   0.375 -2.1840  0.8000 -0.2180
28222SOL     OW88070   2.367   7.127   3.434 -0.2248  0.0947  0.5089
28222SOL    HW188071   2.454   7.132   3.395 -0.6379  0.7577 -0.3348
28222SOL    HW288072   2.370   7.186   3.510 -0.3436  1.1486 -0.3013
28223SOL     OW88073   4.954   7.763   4.211  0.1687 -0.4310 -0.0267
28223SOL    HW188074   4.890   7.833   4.225 -0.0260 -0.1116 -2.3179
28223SOL    HW288075   5.039   7.805   4.227  0.0386  0.2722 -1.1522
28224SOL     OW88076   9.580  10.319   9.735  0.0971 -0.1291 -0.5304
28224SOL    HW188077   9.610  10.229   9.730  2.8553  0.6605  0.5741
28224SOL    HW288078   9.529  10.323   9.816 -1.0617 -0.9695 -1.2188
28225SOL     OW88079   5.301   9.121   7.941  0.3646  0.2282 -0.1951
28225SOL    HW188080   5.361   9.103   8.013 -1.1886 -0.8875  0.8553
28225SOL    HW288081   5.267   9.209   7.958 -0.4556 -0.2682  0.7959
28226SOL     OW88082   8.256   4.838   6.096  0.5045 -0.7749  0.0742
28226SOL    HW188083   8.273   4.898   6.023  1.6067 -0.7634  0.3257
28226SOL    HW288084   8.284   4.886   6.174 -2.9453  0.1633  0.8110
28227SOL     OW88085   4.098   3.592   9.058  0.1679  0.4110 -0.2467
28227SOL    HW188086   4.021   3.580   9.003  0.5947  1.9591 -1.2399
28227SOL    HW288087   4.130   3.504   9.075 -2.3655 -0.3149  1.0123
28228SOL     OW88088   0.434  10.407   1.016  0.1840 -0.2541  0.1926
28228SOL    HW188089   0.503  10.467   1.046  0.1550  0.1278 -0.4956
28228SOL    HW288090   0.434  10.337   1.081 -1.4439  1.6962  2.3855
28229SOL     OW88091  10.370   5.670   7.925 -0.3622 -0.5655 -0.1359
28229SOL    HW188092  10.331   5.677   7.838 -2.4185  0.0186  0.7976
28229SOL    HW288093  10.449   5.618   7.912  0.1298  0.7237 -2.5767
28230SOL     OW88094   5.301   1.276   2.623  0.1767  0.7857 -0.1557
28230SOL    HW188095   5.274   1.291   2.533  2.0907 -2.1825 -1.2969
28230SOL    HW288096   5.245   1.204   2.653  0.4435  0.8769  0.5807
28231SOL     OW88097   8.315   5.562   9.311 -0.0408 -0.2119 -0.1653
28231SOL    HW188098   8.291   5.647   9.347  1.9960  0.8354 -1.1820
28231SOL    HW288099   8.258   5.500   9.356 -0.5840  1.5269  1.6204
28232SOL     OW88100   5.104   8.338   2.808 -0.1390 -0.3908  0.5519
28232SOL    HW188101   5.060   8.254   2.802  1.4099 -1.3127  1.7355
28232SOL    HW288102   5.127   8.360   2.717 -2.4368 -0.1803 -0.0004
28233SOL     OW88103   2.157   1.826   8.906 -0.6241  0.0435 -0.2664
28233SOL    HW188104   2.079   1.795   8.951  0.6652 -0.3926  1.7442
28233SOL    HW288105   2.181   1.907   8.953  0.3567 -0.0563 -0.5888
28234SOL     OW88106   1.144   3.299   1.863 -0.4510 -0.4875 -0.4717
28234SOL    HW188107   1.129   3.207   1.842  0.0992 -0.4222 -1.2004
28234SOL    HW288108   1.239   3.311   1.852 -0.6487  0.3840 -1.3126
28235SOL     OW88109   3.809   4.787   7.790 -0.1891 -1.0448  0.3130
28235SOL    HW188110   3.727   4.835   7.804 -0.1944 -0.4076 -1.7617
28235SOL    HW288111   3.864   4.812   7.864 -1.1769  0.0497  0.6904
28236SOL     OW88112   9.090   1.958  10.779 -0.1191 -0.0322 -0.0214
28236SOL    HW188113   9.118   1.996  10.696 -2.6590  0.9568 -0.4612
28236SOL    HW288114   9.121   1.867  10.775  0.7470  0.3087 -1.5570
28237SOL     OW88115   6.125   4.754  10.042  0.6931 -0.1093 -0.2070
28237SOL    HW188116   6.083   4.669  10.047  2.1382 -0.8379 -0.2396
28237SOL    HW288117   6.101   4.798  10.124  1.9441 -1.4951  0.9262
28238SOL     OW88118   9.442   3.910   3.543 -0.2716 -0.2389 -0.0221
28238SOL    HW188119   9.432   3.959   3.625 -1.5496 -0.3756 -0.0970
28238SOL    HW288120   9.535   3.919   3.522  0.0180  0.0199  1.3058
28239SOL     OW88121   4.292   1.882   4.214 -0.0036 -0.0086  0.0291
28239SOL    HW188122   4.378   1.857   4.179 -0.8157 -0.3962 -1.7169
28239SOL    HW288123   4.305   1.884   4.309  1.4333 -1.9865 -0.0954
28240SOL     OW88124   0.751   7.356  10.237  0.4019  0.1297  0.8870
28240SOL    HW188125   0.687   7.292  10.267  2.0163 -1.2382  1.4127
28240SOL    HW288126   0.829   7.305  10.216  0.2451  1.3385 -3.0685
28241SOL     OW88127  10.021   8.842   9.592 -0.3448  0.0255 -0.2349
28241SOL    HW188128  10.053   8.817   9.679 -0.7536 -1.4882 -0.4962
28241SOL    HW288129  10.049   8.932   9.581  2.2459 -0.6647  0.3022
28242SOL     OW88130   8.669   9.014   0.054  0.3165  0.6338 -0.2287
28242SOL    HW188131   8.632   8.981  -0.028  0.0645  0.5606 -0.0864
28242SOL    HW288132   8.667   8.938   0.112 -0.9159  1.0705  0.3226
28243SOL     OW88133   2.280   7.487   2.468  0.1680 -0.1119 -0.5807
28243SOL    HW188134   2.223   7.425   2.514 -0.9888  2.5164  1.7052
28243SOL    HW288135   2.338   7.520   2.536  0.5298  1.5320 -1.6713
28244SOL     OW88136  10.758   2.141   7.666 -0.0729  0.1194 -0.3744
28244SOL    HW188137  10.792   2.213   7.720  1.3594 -0.7779 -0.0383
28244SOL    HW288138  10.784   2.164   7.576 -0.9268  0.7537 -0.4614
28245SOL     OW88139   7.647   1.571   0.957 -0.2624  0.2386  0.1556
28245SOL    HW188140   7.587   1.547   0.887  0.4146 -0.5753 -0.1492
28245SOL    HW288141   7.593   1.567   1.036 -0.4939 -0.9957 -0.0529
28246SOL     OW88142   2.273   9.282   3.071 -0.2326 -0.6502  0.7581
28246SOL    HW188143   2.361   9.313   3.049 -0.0930 -0.6027  1.3765
28246SOL    HW288144   2.215   9.336   3.018  0.0574  0.0709  1.1712
28247SOL     OW88145   2.090   0.551   4.074 -0.0174  0.1912 -0.3201
28247SOL    HW188146   2.089   0.456   4.088 -0.3049  0.1437 -0.6508
28247SOL    HW288147   2.136   0.563   3.991  0.6890  0.3951  0.0957
28248SOL     OW88148   7.463   0.728   8.473 -0.0526  1.0734  0.3124
28248SOL    HW188149   7.539   0.705   8.419 -0.6729 -1.9081  0.6284
28248SOL    HW288150   7.398   0.761   8.410 -0.6784 -2.1412 -0.8479
28249SOL     OW88151   0.274  10.641  10.188 -0.2376 -0.1871 -0.1061
28249SOL    HW188152   0.331  10.564  10.197 -1.9002 -1.4229  0.2243
28249SOL    HW288153   0.197  10.619  10.240 -1.0434  1.4160 -0.6064
28250SOL     OW88154   4.196   8.084   4.459  0.5040 -0.2739  0.1367
28250SOL    HW188155   4.272   8.043   4.501  0.0896 -1.2162 -0.0138
28250SOL    HW288156   4.205   8.177   4.478  0.4002 -0.6636  2.1640
28251SOL     OW88157   6.339   2.891   5.712  0.1736  0.3162  0.3757
28251SOL    HW188158   6.384   2.821   5.759  0.9983  1.1125  0.7961
28251SOL    HW288159   6.309   2.850   5.631  0.8881 -0.4623  0.4949
28252SOL     OW88160   6.710   6.112   2.879 -0.0808  0.3159 -0.1555
28252SOL    HW188161   6.794   6.086   2.917 -0.1913  0.8060  0.4273
28252SOL    HW288162   6.645   6.060   2.926 -0.1845  0.6242  0.0395
28253SOL     OW88163   7.058   2.079   1.335 -0.0541 -0.4162  0.1041
28253SOL    HW188164   7.103   2.009   1.384 -1.6385 -2.5239 -1.3542
28253SOL    HW288165   7.116   2.097   1.261 -0.5928 -1.6687 -0.6392
28254SOL     OW88166   6.075   3.096   5.544 -0.7585  0.0108 -0.2031
28254SOL    HW188167   6.097   3.028   5.480 -0.8006 -0.3073  0.1199
28254SOL    HW288168   6.082   3.052   5.629 -0.1915  0.5685  0.0414
28255SOL     OW88169   7.959   8.669   3.893  0.2419 -0.1290 -0.8089
28255SOL    HW188170   7.869   8.689   3.921  0.6185  1.3228 -0.5671
28255SOL    HW288171   8.006   8.752   3.904  1.2486 -0.4705 -2.3855
28256SOL     OW88172   1.490   3.799   0.905  0.1384  0.3791 -0.1279
28256SOL    HW188173   1.556   3.791   0.973 -0.9096 -0.6102  0.8064
28256SOL    HW288174   1.438   3.875   0.930  1.0772  1.3271 -1.0143
28257SOL     OW88175   9.065   2.741   8.157  0.6961  0.7279  0.0518
28257SOL    HW188176   9.117   2.725   8.078  0.4973 -0.1427  0.0925
28257SOL    HW288177   9.016   2.821   8.138 -1.7497 -1.1784 -1.9685
28258SOL     OW88178   8.504   6.878   3.344  0.0550 -0.9131 -0.1421
28258SOL    HW188179   8.566   6.934   3.297 -0.8471 -0.7696 -1.1939
28258SOL    HW288180   8.470   6.819   3.277 -0.7585 -1.1546  0.4734
28259SOL     OW88181   6.488   0.179  10.725  0.6368  0.0429  0.5903
28259SOL    HW188182   6.566   0.209  10.772  2.0806 -0.8785 -1.1156
28259SOL    HW288183   6.518   0.170  10.634 -1.5337 -0.1306 -0.1243
28260SOL     OW88184   1.207   3.744   4.289 -0.0762 -0.4237  1.0795
28260SOL    HW188185   1.244   3.773   4.372 -1.5422 -0.4471  1.7599
28260SOL    HW288186   1.156   3.819   4.258 -2.2282 -1.5201  1.8492
28261SOL     OW88187   4.306   2.492   8.149 -0.5453  0.1091 -0.0741
28261SOL    HW188188   4.323   2.460   8.060 -1.2799  2.4070 -1.0934
28261SOL    HW288189   4.220   2.458   8.172 -0.6981  0.1513 -0.5753
28262SOL     OW88190   3.889   6.683   7.305 -0.2650 -0.6894 -0.1279
28262SOL    HW188191   3.885   6.689   7.210  0.1961  1.2720 -0.0441
28262SOL    HW288192   3.978   6.654   7.323 -0.0481 -0.1367 -0.2784
28263SOL     OW88193  10.879   9.565   1.301 -0.6544 -0.4604 -0.5506
28263SOL    HW188194  10.919   9.495   1.353 -1.3960 -0.1087  0.5134
28263SOL    HW288195  10.951   9.627   1.285 -0.5326 -0.3080  0.5285
28264SOL     OW88196   3.723   5.837   9.714 -0.6562  0.6494 -0.1070
28264SOL    HW188197   3.645   5.893   9.711 -1.0281  0.1344 -0.1616
28264SOL    HW288198   3.717   5.784   9.635 -0.1096  0.7861 -0.2397
28265SOL     OW88199   8.404  10.251   5.347  0.3363  0.6879 -0.4591
28265SOL    HW188200   8.449  10.285   5.269  0.0662  2.8315  0.2898
28265SOL    HW288201   8.389  10.158   5.327  2.6640  0.5691 -1.8374
28266SOL     OW88202  10.882   7.435   1.523 -0.1780 -0.0897 -0.1310
28266SOL    HW188203  10.824   7.361   1.541 -1.6047  0.5085 -1.9653
28266SOL    HW288204  10.851   7.469   1.438  0.8232  2.2241  0.3826
28267SOL     OW88205   1.380   2.295   4.159  0.4851 -0.6369  0.1361
28267SOL    HW188206   1.302   2.243   4.142 -0.4403  0.6877  0.3096
28267SOL    HW288207   1.348   2.383   4.177  2.0128 -0.0650  0.1864
28268SOL     OW88208   2.302   6.480   0.381  0.3650  0.0588  0.0709
28268SOL    HW188209   2.389   6.471   0.342 -0.7911  0.2140 -2.6696
28268SOL    HW288210   2.263   6.393   0.374 -0.0416  0.2105  0.4052
28269SOL     OW88211   0.422   9.577   8.572  0.9371 -0.3458  0.4300
28269SOL    HW188212   0.418   9.658   8.622  1.3512 -0.5593  0.8096
28269SOL    HW288213   0.331   9.561   8.546  0.6093 -0.6024  1.7051
28270SOL     OW88214  10.224   4.292   1.840  0.8521  0.0954  0.0282
28270SOL    HW188215  10.263   4.217   1.887  1.3464  0.1235 -0.3320
28270SOL    HW288216  10.262   4.288   1.753  0.6344  0.5864 -0.0912
28271SOL     OW88217   0.608   7.597   5.569  0.3183 -0.1645  0.3591
28271SOL    HW188218   0.562   7.626   5.490 -0.3708 -0.8315  0.5024
28271SOL    HW288219   0.644   7.512   5.546 -1.7113 -1.3400  1.4266
28272SOL     OW88220   6.049   9.138   2.063 -0.0938 -0.1351 -0.0641
28272SOL    HW188221   6.004   9.211   2.106  0.5268  1.5462 -2.2038
28272SOL    HW288222   5.980   9.090   2.018 -0.3352 -0.1930  0.3595
28273SOL     OW88223   1.048   0.982   2.663  0.2235 -0.2168 -0.4421
28273SOL    HW188224   1.093   0.898   2.669  2.1206  0.8478  0.5759
28273SOL    HW288225   1.034   0.995   2.569  0.4659 -1.3602 -0.6474
28274SOL     OW88226  10.199   9.625   7.777 -0.2128  0.2042  0.5593
28274SOL    HW188227  10.237   9.712   7.763 -1.3768  0.3882 -1.5871
28274SOL    HW288228  10.227   9.574   7.701 -0.7003 -0.9163  1.1136
28275SOL     OW88229   9.861   8.499   9.037  0.1177  0.1938 -0.2580
28275SOL    HW188230   9.835   8.415   8.999  1.9721  0.0035 -1.1759
28275SOL    HW288231   9.930   8.477   9.100 -0.2686  0.8991  0.4180
28276SOL     OW88232  10.666   0.560   3.271  0.0366 -0.2286  0.4041
28276SOL    HW188233  10.635   0.586   3.358 -0.5464 -0.0297  0.1365
28276SOL    HW288234  10.619   0.478   3.252  0.2996 -0.3680  0.3516
28277SOL     OW88235   4.634   0.300   3.944  0.1946  0.0713 -0.1714
28277SOL    HW188236   4.712   0.270   3.897  0.3927  1.8044 -1.0014
28277SOL    HW288237   4.654   0.281   4.036  0.4248 -1.9974 -0.6238
28278SOL     OW88238   6.831   3.400   1.427 -0.2187 -0.0369  0.0329
28278SOL    HW188239   6.883   3.398   1.346  0.6522 -0.8596  0.6034
28278SOL    HW288240   6.818   3.494   1.444  0.3441  0.1589 -0.5858
28279SOL     OW88241   8.904   9.646   4.089 -0.2755  0.2303  0.0586
28279SOL    HW188242   8.819   9.610   4.114 -0.1722  0.5122  0.8566
28279SOL    HW288243   8.898   9.659   3.995 -1.1134  0.2413  0.1074
28280SOL     OW88244   5.535   5.604   0.886  0.0098 -0.1974 -0.4146
28280SOL    HW188245   5.447   5.587   0.919 -1.0736  0.7767 -2.6973
28280SOL    HW288246   5.558   5.690   0.922  0.1276 -0.5397  0.3404
28281SOL     OW88247   0.798   4.836   8.156 -0.3292 -0.2054 -0.0230
28281SOL    HW188248   0.855   4.856   8.082 -2.9206 -0.6365 -2.2011
28281SOL    HW288249   0.748   4.916   8.170 -0.0781 -0.2321  1.0740
28282SOL     OW88250   9.289   2.565   1.244  0.0989 -0.0699 -0.0347
28282SOL    HW188251   9.256   2.481   1.277 -1.9704  0.9588  0.5570
28282SOL    HW288252   9.211   2.612   1.215  1.2676  1.5582 -0.5999
28283SOL     OW88253   7.473   5.949   4.261 -0.3302 -0.6155 -0.4181
28283SOL    HW188254   7.532   5.907   4.323 -0.1648 -1.7835 -1.3454
28283SOL    HW288255   7.503   6.040   4.258 -1.7662  0.0045  2.8703
28284SOL     OW88256   1.524   1.031   4.242 -0.1318 -0.3630 -0.5331
28284SOL    HW188257   1.549   1.010   4.152  1.1825  0.0342 -0.2674
28284SOL    HW288258   1.489   0.949   4.277 -0.6561 -0.5143 -1.4078
28285SOL     OW88259   6.645   3.751   7.512 -0.6682 -0.1336  0.8520
28285SOL    HW188260   6.715   3.687   7.506  1.3533  1.8959  1.8653
28285SOL    HW288261   6.588   3.732   7.437  0.3581 -2.5225  0.6576
28286SOL     OW88262   1.460   7.791   0.571  0.2836 -0.1261  0.1556
28286SOL    HW188263   1.443   7.870   0.519  1.1233 -1.9268 -2.9848
28286SOL    HW288264   1.555   7.786   0.577  0.2350 -0.8158  0.4821
28287SOL     OW88265   6.325   3.416   3.892 -0.4400  0.7203  0.2894
28287SOL    HW188266   6.395   3.441   3.952 -1.1526 -1.1290  1.9264
28287SOL    HW288267   6.319   3.321   3.899  0.7589  0.2340 -4.1966
28288SOL     OW88268   3.531   4.378   2.613  0.7647  0.8375  0.5891
28288SOL    HW188269   3.611   4.427   2.631  1.1615  1.2935 -2.1445
28288SOL    HW288270   3.556   4.314   2.546 -1.0839  0.8820 -0.1974
28289SOL     OW88271   6.543   2.541   8.812  0.4423  0.5697  0.1736
28289SOL    HW188272   6.599   2.534   8.889  2.3745  0.0581 -1.2486
28289SOL    HW288273   6.566   2.626   8.773  1.1375 -0.2128 -1.1257
28290SOL     OW88274  10.235   9.157   9.003  0.0602 -0.1561  0.0371
28290SOL    HW188275  10.169   9.196   8.946  0.1507  1.3441  0.9292
28290SOL    HW288276  10.316   9.204   8.982 -0.2961  1.8044  2.7187
28291SOL     OW88277   3.026   8.200   8.650 -0.3651 -0.0168  0.4287
28291SOL    HW188278   3.066   8.235   8.730 -0.2189 -0.3366  0.4957
28291SOL    HW288279   3.084   8.129   8.624  0.8140  1.4923 -1.1845
28292SOL     OW88280   2.027   9.918  10.667  0.1369  0.3631 -0.5155
28292SOL    HW188281   1.960   9.852  10.645  0.8179 -0.3711 -0.3872
28292SOL    HW288282   1.976   9.995  10.694 -0.6739 -0.8828  1.6468
28293SOL     OW88283   0.046   5.214   9.191 -0.2791  0.6460  0.2568
28293SOL    HW188284   0.134   5.177   9.190 -0.4825  0.1649 -0.0423
28293SOL    HW288285   0.033   5.247   9.102 -1.0449 -0.8279 -0.2031
28294SOL     OW88286   9.964   9.307   4.306  0.6447 -0.1790  0.0266
28294SOL    HW188287   9.908   9.230   4.314 -0.9066  0.8310 -0.7871
28294SOL    HW288288  10.045   9.274   4.266 -1.0246 -0.9680 -2.9026
28295SOL     OW88289   8.502   4.549   8.437  0.0137  0.1900 -0.5880
28295SOL    HW188290   8.586   4.509   8.413  0.2467 -0.7085  1.5875
28295SOL    HW288291   8.438   4.479   8.427  0.0469 -0.0707  0.8655
28296SOL     OW88292   4.174   1.705   3.589 -0.1860  0.1940 -0.6630
28296SOL    HW188293   4.104   1.659   3.542 -1.7380  1.0774  0.7185
28296SOL    HW288294   4.254   1.657   3.567 -1.0088 -0.0139 -3.3959
28297SOL     OW88295   9.397   9.900   3.621  0.3948 -0.3182  0.1310
28297SOL    HW188296   9.360   9.926   3.706  0.4601 -1.7216  0.6008
28297SOL    HW288297   9.361   9.813   3.605 -0.4406  0.3410 -1.7840
28298SOL     OW88298   9.280   7.682   9.154 -0.3840 -0.3876 -0.3014
28298SOL    HW188299   9.306   7.696   9.063 -0.5888  1.2229 -0.1262
28298SOL    HW288300   9.282   7.587   9.165  0.5160 -0.5512 -1.7307
28299SOL     OW88301   9.240   2.723   7.421 -0.5502 -0.1958  0.0811
28299SOL    HW188302   9.262   2.722   7.328  0.1741  2.8869  0.1781
28299SOL    HW288303   9.301   2.661   7.461  1.6577  1.2613 -0.9786
28300SOL     OW88304   3.958   0.044   3.306 -0.8300  0.1163 -0.4770
28300SOL    HW188305   3.898   0.115   3.327 -0.2590 -0.0873  2.0483
28300SOL    HW288306   3.965  -0.006   3.387  2.3706 -0.1244 -0.8366
28301SOL     OW88307   2.231   6.346   6.426 -0.1344  0.1937  0.5334
28301SOL    HW188308   2.224   6.269   6.483 -1.2782  0.8765  1.3342
28301SOL    HW288309   2.319   6.340   6.389 -0.6209 -2.1596 -0.3584
28302SOL     OW88310   5.219   9.019   0.354 -0.2333  0.1819  0.4517
28302SOL    HW188311   5.274   9.040   0.279 -1.5491 -1.0708 -0.9032
28302SOL    HW288312   5.159   8.951   0.322 -1.8718  0.7685  2.1639
28303SOL     OW88313   2.232   6.967  10.976 -0.1638 -0.1660  0.2094
28303SOL    HW188314   2.298   7.010  10.923 -0.0126 -1.9834 -1.0947
28303SOL    HW288315   2.280   6.903  11.028 -0.6161  0.0100  0.8513
28304SOL     OW88316   9.598   2.894   6.073  0.1502 -0.1218 -0.0883
28304SOL    HW188317   9.664   2.921   6.137 -0.7930 -1.2981  1.4286
28304SOL    HW288318   9.557   2.975   6.045  0.6893  0.4200  0.6744
28305SOL     OW88319   6.605   8.601   2.086  0.1320 -0.2159  0.5834
28305SOL    HW188320   6.582   8.604   1.993 -1.9286 -0.2332  1.0529
28305SOL    HW288321   6.539   8.656   2.128  1.3204  0.1581  1.9914
28306SOL     OW88322  10.728   4.257   4.681 -0.3334 -0.2040  0.2639
28306SOL    HW188323  10.703   4.196   4.611 -1.5385  1.6225 -0.9899
28306SOL    HW288324  10.821   4.273   4.667 -0.5628  0.1500 -0.9799
28307SOL     OW88325   8.670   7.660  10.559  0.4980 -0.1662 -0.1035
28307SOL    HW188326   8.684   7.644  10.652 -1.7021  0.7513  0.4194
28307SOL    HW288327   8.633   7.749  10.555  0.1156 -0.3742 -1.7923
28308SOL     OW88328   9.539  10.283   3.573  0.0715  0.4270 -0.0609
28308SOL    HW188329   9.540  10.345   3.646 -0.3076 -0.4186  0.6603
28308SOL    HW288330   9.615  10.228   3.587 -0.8499 -0.7126  0.5438
28309SOL     OW88331   7.400  10.589   8.361  0.2048  0.3916  0.0693
28309SOL    HW188332   7.493  10.570   8.373 -0.1086 -1.3984 -0.1656
28309SOL    HW288333   7.385  10.579   8.267 -0.2189  0.6576  0.1059
28310SOL     OW88334   9.684   2.936   9.041  0.1682 -0.1715  0.2245
28310SOL    HW188335   9.613   2.905   8.985  0.8439  0.1530 -0.8366
28310SOL    HW288336   9.663   2.903   9.128 -1.1393 -0.2990 -0.1361
28311SOL     OW88337   1.623   0.907   4.863  0.3992 -0.5050  0.3990
28311SOL    HW188338   1.694   0.971   4.872 -0.4795  0.4766  0.4126
28311SOL    HW288339   1.628   0.878   4.772 -0.7131  1.3894 -0.2872
28312SOL     OW88340   1.351   5.000   4.777 -0.0623 -0.4825 -0.1813
28312SOL    HW188341   1.314   4.934   4.836  0.0066 -0.4666 -0.1202
28312SOL    HW288342   1.440   5.014   4.810 -0.7165  1.0594  0.9673
28313SOL     OW88343   7.717   6.071   6.104 -0.0929  0.7367  0.1071
28313SOL    HW188344   7.800   6.046   6.144  0.3259 -0.4266 -1.4249
28313SOL    HW288345   7.737   6.149   6.053 -0.0084  0.6272 -0.0263
28314SOL     OW88346   5.640   1.344   7.872 -0.2370  0.1496  0.3588
28314SOL    HW188347   5.587   1.372   7.797 -0.0650  0.2356  0.2704
28314SOL    HW288348   5.701   1.416   7.887  0.1970 -0.1724  0.1367
28315SOL     OW88349   3.914   6.539   3.697  0.3489 -0.1938  0.0658
28315SOL    HW188350   3.962   6.457   3.683  0.3290 -0.3509  0.9130
28315SOL    HW288351   3.981   6.602   3.724  0.6328  0.5119 -2.1360
28316SOL     OW88352   5.358   6.957   2.927  0.3105  0.2748 -0.3960
28316SOL    HW188353   5.321   6.883   2.878 -0.4008  0.3695 -0.0009
28316SOL    HW288354   5.291   7.025   2.923  1.0483  0.9936 -0.9439
28317SOL     OW88355   6.859   4.871   7.795 -0.7276  0.2922 -0.1168
28317SOL    HW188356   6.883   4.934   7.727  0.8138 -0.3079 -0.1652
28317SOL    HW288357   6.850   4.924   7.875  1.0390  0.5430 -0.0523
28318SOL     OW88358   1.340   2.092   1.336  0.3893 -0.5721  0.0768
28318SOL    HW188359   1.420   2.134   1.304  1.0812 -1.6748  0.2910
28318SOL    HW288360   1.302   2.051   1.259  0.1437 -0.2138  0.0103
28319SOL     OW88361   5.577   8.732   7.091  0.3105 -0.0357  0.1362
28319SOL    HW188362   5.590   8.643   7.123  0.2921  0.1503  0.6670
28319SOL    HW288363   5.484   8.738   7.072  0.3408 -0.1824 -0.0615
28320SOL     OW88364   5.682   1.817  10.406 -0.1778  0.2082 -0.4385
28320SOL    HW188365   5.738   1.895  10.404 -1.3032  1.0985  1.4157
28320SOL    HW288366   5.595   1.851  10.427 -0.8903 -1.4458 -0.6347
28321SOL     OW88367   7.841   9.296   8.274  0.2427 -0.2872 -0.3230
28321SOL    HW188368   7.759   9.254   8.250  0.1304 -1.9135  2.6697
28321SOL    HW288369   7.817   9.386   8.297 -1.0000 -1.2133  2.1196
28322SOL     OW88370   7.935   4.992   4.382 -0.3406  0.0216 -0.2112
28322SOL    HW188371   8.018   4.943   4.379 -0.7412 -0.6805  0.1012
28322SOL    HW288372   7.920   5.006   4.476 -0.1578  0.8736 -0.3041
28323SOL     OW88373   3.873  10.271  10.697 -0.5574  0.1341  0.3271
28323SOL    HW188374   3.928  10.259  10.620 -0.6775  0.5630  0.1733
28323SOL    HW288375   3.888  10.362  10.723  1.0354 -0.5762  2.0089
28324SOL     OW88376   7.785   9.670   9.816  0.2049 -1.0080 -0.3283
28324SOL    HW188377   7.690   9.677   9.823  0.1559 -0.5816 -1.4354
28324SOL    HW288378   7.801   9.629   9.731  1.0174 -0.9185 -0.2268
28325SOL     OW88379   5.324   8.063   6.122  0.2735 -0.7038 -0.0623
28325SOL    HW188380   5.334   8.151   6.160 -1.6835 -0.3342 -0.3920
28325SOL    HW288381   5.373   8.007   6.182 -0.8909  0.1948  1.8036
28326SOL     OW88382   1.123   7.604  10.744 -0.4262 -0.4162 -0.2531
28326SOL    HW188383   1.097   7.526  10.696 -0.8507  0.5733 -1.6618
28326SOL    HW288384   1.212   7.623  10.713 -0.5871  0.0565 -0.4286
28327SOL     OW88385   7.709   9.753   9.200  0.1041 -0.0937  0.5947
28327SOL    HW188386   7.702   9.848   9.215  0.7434  0.0968 -0.2776
28327SOL    HW288387   7.621   9.727   9.174  0.3963  0.6537 -1.2649
28328SOL     OW88388  10.955   8.419   6.949  0.6005  0.2315 -0.0046
28328SOL    HW188389  10.967   8.334   6.992  0.7778  0.5010  0.4836
28328SOL    HW288390  10.913   8.474   7.016  0.4626  0.5231 -0.3276
28329SOL     OW88391   8.214   5.412   7.736 -0.8253  0.0326  0.6320
28329SOL    HW188392   8.244   5.443   7.651 -2.6684  0.8632  0.2606
28329SOL    HW288393   8.285   5.435   7.797  0.5026 -0.5759 -0.6671
28330SOL     OW88394   9.145   4.238  10.717 -0.2045 -0.2438  0.6007
28330SOL    HW188395   9.225   4.203  10.678  0.5974 -0.7560  2.6638
28330SOL    HW288396   9.079   4.170  10.702 -0.3697  0.3376 -1.4287
28331SOL     OW88397   2.821   2.374   4.230  0.2428  0.7299 -0.0837
28331SOL    HW188398   2.791   2.289   4.262  0.8494  0.1837 -0.9480
28331SOL    HW288399   2.790   2.437   4.295 -0.6681 -0.0938  0.2797
28332SOL     OW88400   9.368   5.846   0.824 -0.1035 -0.3230 -0.3421
28332SOL    HW188401   9.401   5.777   0.881 -0.1248  0.8321  1.1049
28332SOL    HW288402   9.446   5.888   0.789 -0.0609  0.2538  0.4332
28333SOL     OW88403   6.571   7.271  10.216  0.9944  0.4426 -0.3659
28333SOL    HW188404   6.557   7.238  10.305  0.5365 -1.8404 -1.2611
28333SOL    HW288405   6.492   7.321  10.196  0.7629  0.3202  0.2302
28334SOL     OW88406   3.374   5.698   6.364  0.3018 -0.0562  0.5949
28334SOL    HW188407   3.286   5.714   6.331  0.6810  0.1249 -0.3664
28334SOL    HW288408   3.381   5.603   6.368  0.1453 -0.0763  0.4251
28335SOL     OW88409  10.870   7.667   6.682 -0.1858  0.6603 -1.2867
28335SOL    HW188410  10.801   7.733   6.692  1.1841  2.2191 -1.9984
28335SOL    HW288411  10.842   7.595   6.739 -1.1712  2.2773  0.3328
28336SOL     OW88412   9.112   7.694   6.666  0.1631  0.2912 -0.1242
28336SOL    HW188413   9.172   7.620   6.672  0.8945  0.8991  0.0433
28336SOL    HW288414   9.095   7.703   6.572  0.7801  0.4830 -0.2164
28337SOL     OW88415   5.445   2.704   6.097 -0.4012 -0.2940  0.1818
28337SOL    HW188416   5.505   2.654   6.042  0.7482  0.1688  0.9835
28337SOL    HW288417   5.358   2.675   6.071  0.2056 -1.7057 -0.3138
28338SOL     OW88418   3.421   6.661   7.699  1.2126 -0.3945  0.2638
28338SOL    HW188419   3.371   6.723   7.751  0.9356  0.1547 -0.6361
28338SOL    HW288420   3.512   6.679   7.721  1.2382  1.6266 -1.3730
28339SOL     OW88421   1.755   5.786   0.738 -0.4065  0.0603  0.2282
28339SOL    HW188422   1.833   5.747   0.777 -0.8326  0.2165  1.2577
28339SOL    HW288423   1.703   5.712   0.708 -0.8770 -0.1656  1.5333
28340SOL     OW88424   7.501   7.358   6.427 -0.4317 -0.0373  0.1259
28340SOL    HW188425   7.408   7.380   6.429 -0.1503  1.1529  0.7024
28340SOL    HW288426   7.519   7.338   6.335 -0.6778  2.4018 -0.4940
28341SOL     OW88427   6.857   8.976   5.246  0.2263 -0.4583 -0.5520
28341SOL    HW188428   6.942   8.976   5.289  0.1258  0.0507 -0.3575
28341SOL    HW288429   6.802   8.922   5.302 -0.0211  0.5543  0.1842
28342SOL     OW88430   2.595   5.797   3.100  0.3371 -0.3020 -0.7973
28342SOL    HW188431   2.633   5.815   3.186  2.1032 -0.8605 -1.4408
28342SOL    HW288432   2.518   5.744   3.118  0.1375  0.4162  0.5002
28343SOL     OW88433   9.975   0.487   6.587 -0.3375 -0.9304 -1.0199
28343SOL    HW188434   9.945   0.501   6.677  0.0720 -2.7893 -0.5786
28343SOL    HW288435  10.019   0.568   6.563  3.0149 -1.7852  1.8450
28344SOL     OW88436   2.611   3.493   7.191 -0.0196 -0.1243  0.1706
28344SOL    HW188437   2.567   3.479   7.275 -0.5906  0.5466 -0.0077
28344SOL    HW288438   2.666   3.570   7.205  0.4533 -0.4547  0.1427
28345SOL     OW88439   0.589   2.809   4.579  0.6286 -0.3308 -0.2860
28345SOL    HW188440   0.495   2.797   4.590 -0.1071  2.6356 -2.6930
28345SOL    HW288441   0.627   2.784   4.664 -2.5978  1.0879  1.6651
28346SOL     OW88442   1.122   6.675   9.128 -0.3907 -0.0074  0.5211
28346SOL    HW188443   1.077   6.594   9.105  1.9243 -0.6937 -1.8968
28346SOL    HW288444   1.179   6.651   9.201 -0.0954 -0.4534  0.1504
28347SOL     OW88445  10.096   8.653   4.587 -0.0343 -0.0062 -0.3121
28347SOL    HW188446  10.046   8.613   4.516  1.1382  1.3699 -1.9519
28347SOL    HW288447  10.188   8.640   4.562  0.3952  2.9107 -0.5163
28348SOL     OW88448   2.897   9.851   1.149 -0.0857 -0.1530  0.4224
28348SOL    HW188449   2.926   9.775   1.098  0.1512 -0.8921  1.6428
28348SOL    HW288450   2.827   9.889   1.097 -0.0151 -1.0427 -0.3378
28349SOL     OW88451   8.088   2.812   7.406 -0.4276  0.2806  0.0609
28349SOL    HW188452   8.154   2.749   7.435  0.4980  1.1761 -0.0767
28349SOL    HW288453   8.058   2.854   7.487 -1.1725 -0.4463  0.1712
28350SOL     OW88454  10.149   1.548   1.065  0.2761  0.6391 -0.3468
28350SOL    HW188455  10.136   1.605   0.989 -0.0702 -0.1646 -0.8965
28350SOL    HW288456  10.217   1.487   1.039 -1.4731 -1.1462 -0.9025
28351SOL     OW88457   8.009   8.169   0.504  0.4661 -0.0748  0.1735
28351SOL    HW188458   8.083   8.208   0.456  0.6295 -1.6198 -0.8656
28351SOL    HW288459   8.042   8.156   0.593  0.9838  0.5310  0.0741
28352SOL     OW88460   5.183   8.344   5.025 -0.1179  0.2665  0.1363
28352SOL    HW188461   5.115   8.285   4.992  1.2247 -0.3184 -1.6743
28352SOL    HW288462   5.166   8.351   5.119 -1.9702 -0.7818 -0.0996
28353SOL     OW88463   0.042   3.892   3.002 -0.1787  0.0647 -0.1658
28353SOL    HW188464  -0.039   3.867   3.047  0.8968 -0.3166  1.6196
28353SOL    HW288465   0.102   3.819   3.017  1.6132  1.8237  1.5217
28354SOL     OW88466   1.633   6.852   9.649 -0.3157  0.1053 -0.0126
28354SOL    HW188467   1.573   6.793   9.602 -0.9456 -0.5332  1.5642
28354SOL    HW288468   1.716   6.804   9.652  0.2880  0.9482 -2.1114
28355SOL     OW88469  10.892   8.801   0.708 -0.0287  0.9178 -0.4294
28355SOL    HW188470  10.947   8.871   0.674 -0.0916  2.0363  1.6945
28355SOL    HW288471  10.806   8.840   0.719 -0.8009 -0.2914 -1.8550
28356SOL     OW88472   3.657   3.834  10.626 -0.6533 -0.0860 -0.4945
28356SOL    HW188473   3.713   3.828  10.703 -0.9196  0.6831 -0.2340
28356SOL    HW288474   3.717   3.834  10.552 -0.3397  0.1948 -0.2398
28357SOL     OW88475   0.689   0.378   0.620  0.0655 -0.4125  0.3331
28357SOL    HW188476   0.672   0.317   0.548 -1.9914  0.3008  0.1939
28357SOL    HW288477   0.620   0.361   0.683 -0.6747  1.9037  0.1969
28358SOL     OW88478   1.414   8.342   8.664 -0.2206  0.6688 -0.1573
28358SOL    HW188479   1.372   8.322   8.748  1.9527  0.0423  0.8199
28358SOL    HW288480   1.500   8.377   8.688 -0.0409  1.6552 -2.1083
28359SOL     OW88481   3.927   6.419   3.222 -0.1364 -0.3950 -0.3159
28359SOL    HW188482   3.990   6.491   3.220 -0.2987 -0.2298  0.4773
28359SOL    HW288483   3.937   6.376   3.136 -0.4165  0.8890 -0.9924
28360SOL     OW88484   9.864   0.293  10.416  0.0825 -0.2385 -0.3461
28360SOL    HW188485   9.861   0.274  10.510 -0.9967  0.6856 -0.1877
28360SOL    HW288486   9.923   0.226  10.381  1.0795 -0.1451  1.0886
28361SOL     OW88487   5.616   3.612   1.508  0.5013 -0.2531 -0.4789
28361SOL    HW188488   5.660   3.617   1.593  0.8943  0.3011 -0.7100
28361SOL    HW288489   5.671   3.665   1.450  0.5875 -1.1528 -1.2281
28362SOL     OW88490   8.860   9.440   6.868 -0.0411  0.0697 -0.1725
28362SOL    HW188491   8.911   9.467   6.944  1.6515  0.7092 -1.4817
28362SOL    HW288492   8.788   9.389   6.904  0.0385  1.3762  1.9340
28363SOL     OW88493   5.045  10.206   8.495  0.1430 -0.1459  0.3547
28363SOL    HW188494   5.119  10.244   8.449  0.2804  0.2600  0.9109
28363SOL    HW288495   5.011  10.139   8.435  1.3981 -0.8301  0.3949
28364SOL     OW88496   4.243  10.014   3.189  0.0172 -0.4469  0.5055
28364SOL    HW188497   4.199  10.093   3.158  0.2358 -0.5017  0.0560
28364SOL    HW288498   4.248  10.025   3.284 -0.1065 -0.0005  0.4598
28365SOL     OW88499   1.722   0.934   5.871  0.1761 -0.0528  0.8754
28365SOL    HW188500   1.716   0.853   5.923  0.1720 -0.6967 -0.1209
28365SOL    HW288501   1.644   0.984   5.896 -0.8213 -1.2024  0.0718
28366SOL     OW88502   4.900   3.096   1.152  0.2824  0.3317 -0.3442
28366SOL    HW188503   4.978   3.084   1.207 -0.4868  1.0730  0.9347
28366SOL    HW288504   4.827   3.098   1.214 -0.4878  2.4068 -1.2601
28367SOL     OW88505  10.234   3.159   6.587 -0.0755  0.3449  0.3688
28367SOL    HW188506  10.242   3.186   6.495 -0.2142 -2.1788 -0.4124
28367SOL    HW288507  10.227   3.242   6.635  0.5007  1.7271 -1.8305
28368SOL     OW88508   9.810   2.352   7.852 -0.1427  0.9600 -0.3663
28368SOL    HW188509   9.868   2.286   7.890  0.5468  0.6568 -1.9528
28368SOL    HW288510   9.724   2.310   7.852  0.1797  0.2870 -0.8005
28369SOL     OW88511   4.396   4.672   0.004  0.1328  0.1754 -0.2195
28369SOL    HW188512   4.303   4.652   0.019  0.2192  0.2581  0.4413
28369SOL    HW288513   4.433   4.591  -0.028 -0.2402  0.2327 -0.8108
28370SOL     OW88514   5.105   9.413   3.013 -0.0706 -0.1352 -0.4674
28370SOL    HW188515   5.040   9.443   3.076 -0.6285  1.3065 -1.6919
28370SOL    HW288516   5.188   9.418   3.060 -0.5446  0.4173  0.3204
28371SOL     OW88517   0.606   1.151   8.029 -0.1882 -0.1949  0.2047
28371SOL    HW188518   0.515   1.121   8.032 -0.1583 -0.5397 -1.7851
28371SOL    HW288519   0.658   1.070   8.035 -0.0527 -0.1820 -0.7083
28372SOL     OW88520   4.760   3.750   9.499  0.2065 -0.5721 -0.4603
28372SOL    HW188521   4.855   3.760   9.503  0.2665 -0.1452 -2.6233
28372SOL    HW288522   4.739   3.690   9.571  1.6810  2.1068  2.3420
28373SOL     OW88523   4.385   4.304   8.375  0.0358  0.2147  0.1307
28373SOL    HW188524   4.352   4.300   8.285 -0.8374 -1.6574  0.5129
28373SOL    HW288525   4.437   4.384   8.377 -1.2285  1.1358 -1.6006
28374SOL     OW88526   2.737   3.462   0.328  0.1268  0.6566 -0.1019
28374SOL    HW188527   2.735   3.415   0.244  1.1375  0.6607 -0.1341
28374SOL    HW288528   2.723   3.553   0.304 -0.6907  0.5229 -0.1533
28375SOL     OW88529   5.870   3.687   3.647  0.0444  0.2307  0.2390
28375SOL    HW188530   5.911   3.751   3.705  2.0629  1.5027 -2.5160
28375SOL    HW288531   5.941   3.628   3.622 -0.9901 -0.8142 -0.2952
28376SOL     OW88532   0.310   5.252   1.452  0.1495 -0.0413  0.0224
28376SOL    HW188533   0.306   5.213   1.540  0.7172  0.0055  0.0694
28376SOL    HW288534   0.359   5.333   1.464  1.4135 -0.7085 -0.5789
28377SOL     OW88535   2.232   3.889   7.840  0.1745 -0.3097 -0.4731
28377SOL    HW188536   2.304   3.879   7.779 -0.1934  1.6411 -1.2630
28377SOL    HW288537   2.155   3.905   7.785  0.1599  3.4325  0.4620
28378SOL     OW88538   1.759   0.706   3.112 -0.2795  0.0160 -0.0314
28378SOL    HW188539   1.802   0.691   3.196 -0.7997  2.7119  0.7625
28378SOL    HW288540   1.824   0.752   3.060 -0.1635 -1.1421 -0.9404
28379SOL     OW88541   6.285   6.564   0.370 -0.4053  0.4737  0.3587
28379SOL    HW188542   6.263   6.646   0.327 -0.9259  1.0577  1.6960
28379SOL    HW288543   6.232   6.564   0.450 -1.5056 -1.8319 -0.3186
28380SOL     OW88544   7.561  10.759   9.126 -0.6515  0.1319 -0.3449
28380SOL    HW188545   7.613  10.781   9.049  0.0179 -0.0566  0.0548
28380SOL    HW288546   7.480  10.809   9.114 -0.8446 -0.4298 -1.5098
28381SOL     OW88547   0.091   0.197  10.748  0.4438  0.1346  0.4898
28381SOL    HW188548   0.030   0.141  10.700  1.5996 -0.3940 -0.3704
28381SOL    HW288549   0.049   0.210  10.833 -0.4279 -1.0005  0.2448
28382SOL     OW88550   3.724   2.506   1.578  0.3468  0.4282  0.5337
28382SOL    HW188551   3.692   2.427   1.622 -0.3712  0.3982 -0.0475
28382SOL    HW288552   3.797   2.535   1.633  1.9068 -1.7502 -0.2946
28383SOL     OW88553   3.483   5.938   8.271  0.3304  0.1677  0.0116
28383SOL    HW188554   3.400   5.985   8.260  0.0021 -0.3757  0.0936
28383SOL    HW288555   3.512   5.919   8.182  0.7210  0.9599 -0.0329
28384SOL     OW88556   3.593   6.079  10.863 -0.4934 -0.2875 -0.7370
28384SOL    HW188557   3.559   6.111  10.780 -0.0542  0.8309 -0.5018
28384SOL    HW288558   3.517   6.041  10.907 -1.3263  1.5340 -0.5210
28385SOL     OW88559   7.009   6.411   4.042 -0.7684 -0.1286 -0.2751
28385SOL    HW188560   6.962   6.332   4.014  0.8147 -0.4911 -1.9779
28385SOL    HW288561   7.022   6.461   3.961  1.5068  0.1130  0.2164
28386SOL     OW88562   4.942  10.174   1.779  0.3467  0.7358  0.4776
28386SOL    HW188563   4.937  10.085   1.813 -0.9285  0.6655  0.1335
28386SOL    HW288564   5.021  10.174   1.725  0.5806 -0.0742  0.8098
28387SOL     OW88565   0.623   9.456   4.684  0.2606  0.0534 -0.1709
28387SOL    HW188566   0.546   9.452   4.627  0.2308 -0.7064 -0.0882
28387SOL    HW288567   0.670   9.374   4.666  0.2104 -0.2268  0.9535
28388SOL     OW88568   2.837   1.203   1.434  0.3413  0.2719  0.0112
28388SOL    HW188569   2.882   1.211   1.518 -1.3299 -1.1479  1.0967
28388SOL    HW288570   2.781   1.125   1.445 -1.1208  1.0336 -1.8404
28389SOL     OW88571   7.184   5.702   4.904 -0.5394 -0.4376  0.3182
28389SOL    HW188572   7.248   5.673   4.968 -1.2708  0.2690  1.4058
28389SOL    HW288573   7.208   5.793   4.886  0.1383 -0.8722 -1.0295
28390SOL     OW88574   3.683   6.461   2.500  0.4485  0.0264  0.0788
28390SOL    HW188575   3.640   6.377   2.514 -0.8009  0.7341  0.5887
28390SOL    HW288576   3.617   6.526   2.525  1.1584  1.1695 -0.9464
28391SOL     OW88577   8.291   0.251   1.093 -0.0198 -0.3605 -0.2158
28391SOL    HW188578   8.264   0.232   1.183 -1.8542 -0.7516 -0.8411
28391SOL    HW288579   8.276   0.345   1.084 -2.1313 -0.7322 -0.8536
28392SOL     OW88580   5.591   3.115  10.818 -0.3102 -0.0833 -0.0911
28392SOL    HW188581   5.513   3.134  10.765 -0.9664  0.4059  1.0359
28392SOL    HW288582   5.634   3.042  10.773 -1.1410 -0.0275 -0.9911
28393SOL     OW88583   6.932  10.643   5.463 -0.8279 -0.5661 -0.3642
28393SOL    HW188584   6.914  10.550   5.478  0.9004 -0.5429  1.9378
28393SOL    HW288585   6.890  10.687   5.537  1.6277  0.1568  0.6120
28394SOL     OW88586   9.633   2.204   5.357 -0.3774  0.6166  0.0906
28394SOL    HW188587   9.729   2.197   5.358 -0.3391  0.9878 -0.6987
28394SOL    HW288588   9.615   2.290   5.396 -0.5381 -0.7032  3.1124
28395SOL     OW88589   7.109   1.014  10.343 -0.2699  0.5031  0.3401
28395SOL    HW188590   7.066   1.019  10.428 -0.0423 -0.9102  0.5589
28395SOL    HW288591   7.187   0.960  10.360 -2.5423 -3.6338 -1.6649
28396SOL     OW88592   6.001   4.333   1.595  0.0187  0.1098  0.2996
28396SOL    HW188593   6.045   4.385   1.662  0.2361 -1.5658  1.5025
28396SOL    HW288594   5.931   4.390   1.563 -0.2334  0.8684  2.1222
28397SOL     OW88595   5.146   5.199   6.610 -0.9466 -0.2767 -0.4038
28397SOL    HW188596   5.141   5.278   6.665  0.7818  1.0568 -2.1037
28397SOL    HW288597   5.090   5.218   6.535 -1.3281 -1.0759 -0.3191
28398SOL     OW88598  10.475   7.328   8.482  0.6250  0.0356  0.0932
28398SOL    HW188599  10.503   7.328   8.574 -0.1343  0.2654  0.3249
28398SOL    HW288600  10.463   7.236   8.461 -0.2862  0.0446  0.5584
28399SOL     OW88601   0.793   0.310   4.674 -0.1070 -0.3867 -0.6682
28399SOL    HW188602   0.764   0.249   4.606 -1.0545 -1.2967  0.5140
28399SOL    HW288603   0.716   0.365   4.691  0.3375  0.2805 -0.8078
28400SOL     OW88604   6.530   7.444   9.045 -0.6355 -0.3860  0.1691
28400SOL    HW188605   6.435   7.441   9.055 -0.5498 -1.0526  0.7648
28400SOL    HW288606   6.565   7.410   9.127  0.0787 -2.7634 -1.0596
28401SOL     OW88607   8.958   8.702   6.898  0.1022  0.7490 -0.3326
28401SOL    HW188608   8.960   8.792   6.866  2.6680  1.8214  2.5929
28401SOL    HW288609   9.041   8.664   6.870  0.4610  0.3514  1.2213
28402SOL     OW88610   1.520   2.494   0.630  0.5997  0.0695 -0.2194
28402SOL    HW188611   1.549   2.408   0.660  0.3148 -0.0636 -0.3237
28402SOL    HW288612   1.466   2.528   0.702  0.5902  0.0972 -0.2396
28403SOL     OW88613   8.895   7.178   4.608 -0.5273 -0.4688  0.8808
28403SOL    HW188614   8.874   7.091   4.642 -0.6478 -0.8495 -0.1622
28403SOL    HW288615   8.845   7.186   4.527 -0.2439  0.4365  0.7791
28404SOL     OW88616   1.933   2.683  10.258  0.4887 -0.2459  0.0349
28404SOL    HW188617   1.930   2.594  10.224  0.8513 -0.2102 -0.0899
28404SOL    HW288618   2.020   2.715  10.234  0.4161  0.0859  0.2150
28405SOL     OW88619   5.567  10.413   1.700 -0.6044  0.0281 -0.5681
28405SOL    HW188620   5.661  10.401   1.708 -0.5970  0.7801  0.6313
28405SOL    HW288621   5.554  10.452   1.613  0.3988  1.9843  0.1364
28406SOL     OW88622   0.141   5.751   0.209 -0.3856  0.3928  0.2798
28406SOL    HW188623   0.202   5.752   0.283  0.3147  0.4651 -0.2898
28406SOL    HW288624   0.115   5.843   0.198 -2.1133  0.0791  1.7588
28407SOL     OW88625   1.971   2.939   3.084 -0.9343  0.2241 -0.2721
28407SOL    HW188626   2.042   2.875   3.077 -2.1766 -1.0471 -1.1891
28407SOL    HW288627   1.961   2.953   3.178 -1.6451 -2.0328  0.0029
28408SOL     OW88628   9.463  10.444   8.078  0.1830 -0.0540 -0.1397
28408SOL    HW188629   9.516  10.397   8.015 -0.2945 -0.8797  0.0737
28408SOL    HW288630   9.460  10.387   8.155 -1.3857 -0.2245 -0.3134
28409SOL     OW88631   2.271  10.855   4.863  0.1425  0.0843  0.1137
28409SOL    HW188632   2.196  10.909   4.838  0.7400  0.5348 -0.7219
28409SOL    HW288633   2.347  10.899   4.824  0.8040 -0.5565  0.6616
28410SOL     OW88634   9.810   6.101   2.236  0.1891  0.1935 -0.0226
28410SOL    HW188635   9.776   6.027   2.186 -0.4967 -0.1280  0.9078
28410SOL    HW288636   9.768   6.177   2.197 -1.1860 -0.1537  0.7647
28411SOL     OW88637   0.814   4.947   7.007  0.2652 -0.1666  0.3734
28411SOL    HW188638   0.769   4.909   6.931  0.6514 -0.8438  0.4764
28411SOL    HW288639   0.907   4.927   6.992  0.5350  1.2397  0.1533
28412SOL     OW88640   2.926  10.527   3.977 -0.0615  0.8998  0.3837
28412SOL    HW188641   2.938  10.604   3.921  0.3607  0.9361  0.5200
28412SOL    HW288642   2.888  10.563   4.058  0.6932  1.0471  0.6728
28413SOL     OW88643   2.187   1.682   2.140 -0.0795  0.1768  0.0048
28413SOL    HW188644   2.218   1.668   2.050 -0.2638  1.3133 -0.2357
28413SOL    HW288645   2.254   1.737   2.180 -0.4163  0.3618  0.3119
28414SOL     OW88646   4.655   8.894   3.584  0.5720  0.5948 -0.0153
28414SOL    HW188647   4.647   8.941   3.501 -3.3329 -0.7634 -0.4995
28414SOL    HW288648   4.642   8.802   3.560 -2.8301  0.3827  2.3130
28415SOL     OW88649   1.440   9.077   4.380  0.5654  0.0954  0.3246
28415SOL    HW188650   1.393   9.034   4.452 -1.3399  2.6437  0.6686
28415SOL    HW288651   1.517   9.116   4.422 -0.0955  0.8516  0.8608
28416SOL     OW88652   2.464   7.414   1.324  0.1277  0.0716  0.7541
28416SOL    HW188653   2.374   7.442   1.310  0.2878  0.5229  0.6141
28416SOL    HW288654   2.466   7.322   1.299  0.1925  0.6026 -1.2327
28417SOL     OW88655   5.732   1.544  10.397  0.3092  0.1043  0.3861
28417SOL    HW188656   5.713   1.518  10.487  2.2699  0.4340  0.9245
28417SOL    HW288657   5.686   1.627  10.386 -1.2538 -0.7375  0.5461
28418SOL     OW88658   0.916  10.240   2.476  0.3136 -0.9313 -0.6366
28418SOL    HW188659   0.857  10.277   2.542 -0.3044 -1.0184 -1.1351
28418SOL    HW288660   0.942  10.156   2.513 -0.9701 -1.5136 -1.0174
28419SOL     OW88661   7.310   1.694   5.975 -0.7716 -0.7550 -0.0053
28419SOL    HW188662   7.220   1.666   5.994 -0.4604  0.1636  3.0526
28419SOL    HW288663   7.358   1.612   5.963 -1.2920 -1.3718  1.9828
28420SOL     OW88664   5.351   2.981  10.424 -0.1163 -0.1917 -0.4399
28420SOL    HW188665   5.437   3.003  10.386 -0.1538 -0.4217 -0.6596
28420SOL    HW288666   5.288   3.011  10.359 -0.3143  2.3473  0.8565
28421SOL     OW88667  10.486   2.826   8.521 -0.5632 -0.4064 -0.2505
28421SOL    HW188668  10.548   2.806   8.452 -0.3965 -0.0982 -0.1899
28421SOL    HW288669  10.504   2.917   8.545 -1.6058 -0.0463 -0.8262
28422SOL     OW88670  10.696   4.257   4.951  0.3077  0.0832 -0.0649
28422SOL    HW188671  10.686   4.239   4.857  0.1462 -1.5389  0.2465
28422SOL    HW288672  10.784   4.295   4.958  0.5692 -0.3616 -0.8076
28423SOL     OW88673   7.300   9.081   1.729 -0.3705  0.2435  0.0357
28423SOL    HW188674   7.392   9.054   1.731 -0.0797  1.3472  1.6247
28423SOL    HW288675   7.285   9.105   1.637  1.0586  0.4869 -0.1526
28424SOL     OW88676   6.607   4.011   8.028  0.3992 -0.2619 -0.4498
28424SOL    HW188677   6.537   4.033   7.966 -0.2823  0.0528  0.4123
28424SOL    HW288678   6.571   4.035   8.113  0.4958 -2.7257  0.3011
28425SOL     OW88679   5.747   6.433   6.183 -0.2058 -0.4046 -0.0795
28425SOL    HW188680   5.800   6.362   6.148 -2.2387 -0.8386 -2.4437
28425SOL    HW288681   5.784   6.513   6.146 -0.2844 -0.5780 -0.5322
28426SOL     OW88682   2.954   1.428   7.647  0.1820 -0.4120 -0.4155
28426SOL    HW188683   2.976   1.511   7.690 -2.2229  0.0314  0.0461
28426SOL    HW288684   2.990   1.436   7.559  0.5181  0.8553 -0.1767
28427SOL     OW88685   0.985   7.555   8.043  0.5806  0.0740  0.2178
28427SOL    HW188686   0.962   7.583   7.955  0.0717 -1.5629 -0.1749
28427SOL    HW288687   0.911   7.583   8.097 -0.4569 -1.4773 -0.3639
28428SOL     OW88688   9.909   1.641   2.355  0.4888 -0.3636 -0.1741
28428SOL    HW188689   9.818   1.669   2.354  0.0296 -1.8475 -1.0166
28428SOL    HW288690   9.950   1.693   2.285  0.7862  1.8052  1.5433
28429SOL     OW88691   9.878   4.226   8.400 -0.9349 -0.5027  0.4580
28429SOL    HW188692   9.949   4.196   8.343 -0.9632 -0.5836  0.4669
28429SOL    HW288693   9.804   4.242   8.341 -0.9938 -0.6746  0.4840
28430SOL     OW88694   7.222   3.184   5.797 -0.3087  0.2045  0.2583
28430SOL    HW188695   7.220   3.280   5.795 -0.7005  0.1803 -1.2839
28430SOL    HW288696   7.158   3.160   5.864  0.2986  1.0350  1.1429
28431SOL     OW88697   6.594   9.864   1.936 -0.3042 -0.5048  0.7073
28431SOL    HW188698   6.501   9.876   1.918 -0.0880  2.1756  1.2142
28431SOL    HW288699   6.635   9.856   1.850 -0.7174  0.6527  0.3998
28432SOL     OW88700   0.384   2.642   7.182 -0.4413  0.8241  0.1752
28432SOL    HW188701   0.470   2.667   7.147  0.3666  0.8380  2.0949
28432SOL    HW288702   0.352   2.575   7.121  0.1483  2.0533 -1.5328
28433SOL     OW88703   6.313   3.058   1.418 -0.0692  0.1711  0.0394
28433SOL    HW188704   6.281   2.985   1.472  1.2182  0.0553  0.6643
28433SOL    HW288705   6.359   3.015   1.346 -0.9061  0.3429 -0.5973
28434SOL     OW88706   9.005   6.410   4.260  0.4811  0.9257 -0.5151
28434SOL    HW188707   9.094   6.443   4.245  1.6335 -1.7723  0.0616
28434SOL    HW288708   9.010   6.367   4.345 -0.8560 -0.9833 -1.3687
28435SOL     OW88709   6.097   6.586   5.041 -0.1231  0.3396  0.2889
28435SOL    HW188710   6.042   6.630   5.107  0.6299  0.8108  0.6022
28435SOL    HW288711   6.185   6.619   5.057 -0.0016  0.8235 -1.2681
28436SOL     OW88712   1.597   1.555   7.151 -0.1027 -0.0834 -0.8477
28436SOL    HW188713   1.617   1.462   7.136  1.4068  0.2714 -1.1021
28436SOL    HW288714   1.643   1.576   7.233 -0.0196  0.5623 -1.0601
28437SOL     OW88715   7.410   5.672   2.063  0.0608 -0.1734 -0.1907
28437SOL    HW188716   7.497   5.654   2.100  0.0520  2.1780  1.0082
28437SOL    HW288717   7.424   5.666   1.968  1.0695 -1.7770  0.0243
28438SOL     OW88718   9.679   0.492   6.431 -0.0075  0.3153  0.0680
28438SOL    HW188719   9.653   0.469   6.520  0.4955 -1.1199 -0.1461
28438SOL    HW288720   9.725   0.415   6.399  0.6006  1.1652 -1.1239
28439SOL     OW88721   9.805   4.917   0.894 -0.0223  0.3377  0.5218
28439SOL    HW188722   9.825   4.950   0.806  1.7724  2.2533  1.5941
28439SOL    HW288723   9.865   4.843   0.906  0.4686  0.7316  0.5183
28440SOL     OW88724   6.927   0.462   9.170  0.0284  0.0121  0.2773
28440SOL    HW188725   6.908   0.412   9.249 -0.0379 -1.0384 -0.3943
28440SOL    HW288726   6.985   0.404   9.119 -1.9304 -0.3608 -1.5753
28441SOL     OW88727  10.665   6.558   8.922  0.7060 -0.5411 -0.2183
28441SOL    HW188728  10.572   6.573   8.908  0.7770  0.2573  0.1499
28441SOL    HW288729  10.676   6.559   9.017  1.2300  0.2427 -0.2863
28442SOL     OW88730   7.689   9.433   2.456  0.0514  0.1174 -0.8050
28442SOL    HW188731   7.685   9.506   2.518  2.7368  1.0165 -1.5861
28442SOL    HW288732   7.665   9.471   2.372  0.8665 -0.0049 -1.1056
28443SOL     OW88733   3.323   0.598   9.658 -0.7365  0.6364  0.9502
28443SOL    HW188734   3.249   0.559   9.706 -1.5654  1.4209  0.3174
28443SOL    HW288735   3.304   0.692   9.658  0.5811  0.9095  1.3130
28444SOL     OW88736   9.080   1.684   8.714 -0.0391 -0.5172 -0.1822
28444SOL    HW188737   9.125   1.639   8.786  0.4358 -1.1963 -0.8963
28444SOL    HW288738   9.066   1.773   8.746 -0.2767 -0.9505  0.9447
28445SOL     OW88739   2.550   6.418   8.595 -0.2356  0.1129  0.5066
28445SOL    HW188740   2.627   6.431   8.649  0.5133 -1.1928 -0.2125
28445SOL    HW288741   2.580   6.436   8.506 -1.1506  1.0768  0.3785
28446SOL     OW88742   0.356   1.080   4.118 -0.0341  0.0424  0.7341
28446SOL    HW188743   0.270   1.080   4.075  0.9521  1.5840 -1.2907
28446SOL    HW288744   0.389   1.169   4.105  1.7614 -0.4631  1.7543
28447SOL     OW88745   1.805   1.763   1.534 -0.0737 -0.7713  0.1911
28447SOL    HW188746   1.848   1.839   1.494 -2.5420  0.8504  0.4802
28447SOL    HW288747   1.852   1.749   1.616  1.4822 -0.6421 -0.6576
28448SOL     OW88748   6.309   7.206   9.879  0.3104  0.2202  0.5256
28448SOL    HW188749   6.257   7.126   9.876  1.4143 -0.4638 -1.3911
28448SOL    HW288750   6.397   7.178   9.854  0.3126  2.3142 -1.9909
28449SOL     OW88751   9.078   7.848   9.349 -0.8575 -0.2741 -0.2986
28449SOL    HW188752   9.030   7.900   9.414 -1.5228  0.3871 -1.3060
28449SOL    HW288753   9.043   7.876   9.265  0.2289 -0.8968 -0.9739
28450SOL     OW88754   2.183   6.907   6.755  0.1796  0.3661  0.7113
28450SOL    HW188755   2.094   6.941   6.764  0.4710  0.8814  1.7043
28450SOL    HW288756   2.180   6.852   6.676 -0.7977  1.0670  0.2518
28451SOL     OW88757   2.648   2.921   8.104  0.1257 -0.2049 -0.1235
28451SOL    HW188758   2.683   3.003   8.138  0.0063 -1.2645  2.7235
28451SOL    HW288759   2.554   2.927   8.117 -0.0003 -0.3662 -0.9204
28452SOL     OW88760   1.888   0.685   0.614 -0.2298  0.2976 -0.4202
28452SOL    HW188761   1.941   0.726   0.545  0.4725  1.5462  0.8361
28452SOL    HW288762   1.828   0.754   0.642  1.7975  0.9372  2.5851
28453SOL     OW88763   4.053   1.954   5.090 -0.3338 -0.0145  0.3201
28453SOL    HW188764   4.098   1.870   5.098 -1.0461 -0.4902 -0.6018
28453SOL    HW288765   4.034   1.980   5.181  1.5646  0.0892  0.7200
28454SOL     OW88766   8.896   2.326   0.123 -0.1808 -0.2816 -0.4018
28454SOL    HW188767   8.912   2.322   0.029  0.6807  1.2512 -0.3240
28454SOL    HW288768   8.926   2.412   0.149 -2.1301  0.0097  0.9705
28455SOL     OW88769  10.873   3.029   8.380  0.6779 -0.2271 -0.3201
28455SOL    HW188770  10.834   2.954   8.335  0.8252 -0.5001  0.0034
28455SOL    HW288771  10.857   3.103   8.321  0.3225 -0.4675 -0.5293
28456SOL     OW88772   2.746   3.776   2.464  0.0764 -0.1503  0.1146
28456SOL    HW188773   2.839   3.754   2.463  0.1628  0.1967  0.6448
28456SOL    HW288774   2.705   3.704   2.512  0.2101  0.2677  0.8441
28457SOL     OW88775   9.106   7.133   8.240  0.4121 -0.3330 -0.5425
28457SOL    HW188776   9.028   7.132   8.185  1.0881 -1.4903 -1.5077
28457SOL    HW288777   9.173   7.177   8.187  0.6119  0.0348  0.0047
28458SOL     OW88778   0.598   6.055   6.333  0.1078 -0.3764  0.2834
28458SOL    HW188779   0.612   5.987   6.268  0.3872  0.4469 -0.5369
28458SOL    HW288780   0.678   6.055   6.386 -0.5731 -1.7918  1.3421
28459SOL     OW88781   3.850   4.770   4.056  0.4110  0.2592  0.0950
28459SOL    HW188782   3.779   4.710   4.080 -1.2153  2.0732  0.0168
28459SOL    HW288783   3.863   4.823   4.134  1.4266  0.1810 -0.0246
28460SOL     OW88784   4.486  10.563   0.441  0.4564  0.2217 -0.0208
28460SOL    HW188785   4.570  10.593   0.476  0.2944  1.3229 -0.5629
28460SOL    HW288786   4.430  10.641   0.442  0.2064  0.1002 -1.9794
28461SOL     OW88787   2.987   5.200   2.401  0.1380 -0.6459  0.1321
28461SOL    HW188788   2.983   5.121   2.454 -0.8391 -1.4526 -1.1062
28461SOL    HW288789   2.897   5.214   2.370  0.8328 -0.7574 -2.0758
28462SOL     OW88790   4.241   1.086   8.044 -0.5843  0.1285 -0.1217
28462SOL    HW188791   4.322   1.104   8.091 -0.1128 -1.2046 -0.3849
28462SOL    HW288792   4.236   0.990   8.041  0.0771  0.1469 -3.8930
28463SOL     OW88793   7.470   9.319   4.662  0.4524  0.3888  0.4830
28463SOL    HW188794   7.456   9.260   4.587  1.6564  0.2583  0.3492
28463SOL    HW288795   7.422   9.398   4.639 -1.5204 -0.6602  0.8409
28464SOL     OW88796   6.793   4.652   9.716 -0.2894 -0.1170  0.2033
28464SOL    HW188797   6.833   4.685   9.796  0.2817 -1.7838  0.6264
28464SOL    HW288798   6.856   4.588   9.682 -1.7049 -1.3458 -0.1622
28465SOL     OW88799   1.801   5.774   9.234  0.0925  0.3890  0.5193
28465SOL    HW188800   1.780   5.705   9.171 -0.2679  0.1234  0.9284
28465SOL    HW288801   1.883   5.811   9.202  0.3522 -0.3080  0.3657
28466SOL     OW88802  10.072   0.466   7.248  0.2012 -0.3981  0.3210
28466SOL    HW188803  10.058   0.472   7.343 -1.3711  1.4861  0.0070
28466SOL    HW288804  10.158   0.505   7.234 -0.3065  0.9501  0.8173
28467SOL     OW88805  10.572   7.815   9.895  0.0148  0.6221 -0.2201
28467SOL    HW188806  10.492   7.762   9.902  0.3888  0.1119  0.1617
28467SOL    HW288807  10.609   7.792   9.810  0.0569  0.4409 -0.1510
28468SOL     OW88808   1.860   8.999   4.009  0.4696 -0.0621  0.0072
28468SOL    HW188809   1.896   9.085   4.028  0.8638 -0.2479  0.1194
28468SOL    HW288810   1.804   8.979   4.084 -1.4827  1.0842 -1.1009
28469SOL     OW88811   9.900   9.001   5.682 -0.0621 -0.2709 -0.1156
28469SOL    HW188812   9.989   8.966   5.686 -0.5520 -1.7262 -1.6238
28469SOL    HW288813   9.886   9.022   5.590 -1.0192  0.6631  0.2352
28470SOL     OW88814   5.405   6.819   6.675  0.8396  0.4491 -0.1464
28470SOL    HW188815   5.446   6.734   6.660  2.8902  1.3633  0.1234
28470SOL    HW288816   5.355   6.836   6.595  1.7944 -0.2214 -0.8878
28471SOL     OW88817   5.019   3.854   1.203 -0.4351 -0.3064 -0.1779
28471SOL    HW188818   5.098   3.882   1.248 -0.5221  1.8839 -1.3280
28471SOL    HW288819   4.957   3.836   1.274  0.0829  1.0613  0.6468
28472SOL     OW88820   2.299   2.811   6.948  0.2369  1.0167  0.5357
28472SOL    HW188821   2.260   2.761   7.020 -0.7087  1.3789  0.2703
28472SOL    HW288822   2.298   2.750   6.874  1.4064  0.5693  0.8698
28473SOL     OW88823   9.842   1.716   1.256  0.4588  0.3499  0.2738
28473SOL    HW188824   9.785   1.735   1.330 -1.0084 -1.5906 -0.3283
28473SOL    HW288825   9.877   1.629   1.274  0.3551  0.0058 -1.1401
28474SOL     OW88826   7.665   0.619   6.852 -0.1652 -0.1874  0.3156
28474SOL    HW188827   7.727   0.596   6.782 -0.9479 -0.4316 -0.3004
28474SOL    HW288828   7.618   0.695   6.817  0.0582  0.2393  0.9454
28475SOL     OW88829   3.214   4.185   1.249  0.2429  0.3566 -0.5851
28475SOL    HW188830   3.210   4.278   1.269 -0.2256  0.2689 -0.2839
28475SOL    HW288831   3.281   4.179   1.180  0.7168  0.8344 -0.1732
28476SOL     OW88832   7.769   8.518   0.869 -0.2258  0.3103  0.0019
28476SOL    HW188833   7.774   8.423   0.857 -1.0384  0.1129  1.1850
28476SOL    HW288834   7.682   8.533   0.904  0.3860  1.3646  1.0972
28477SOL     OW88835   6.248   5.675   5.875 -0.0927  0.2325 -0.6466
28477SOL    HW188836   6.163   5.639   5.899 -0.2306  0.8327 -0.2294
28477SOL    HW288837   6.299   5.599   5.847 -0.3312 -0.3052  0.3643
28478SOL     OW88838   4.787  10.830   2.693  0.1538 -0.0271  0.4377
28478SOL    HW188839   4.853  10.899   2.700 -1.4458  1.5452  0.4854
28478SOL    HW288840   4.743  10.829   2.778 -1.5545  0.7025 -0.4153
28479SOL     OW88841   0.727   1.142   5.911  0.8135  0.4903  0.0031
28479SOL    HW188842   0.725   1.172   5.820 -0.7070 -0.7854 -0.3927
28479SOL    HW288843   0.733   1.223   5.962  0.4158  1.2876 -1.1870
28480SOL     OW88844   6.982   6.523   2.368  0.0323  0.5227  0.5474
28480SOL    HW188845   6.922   6.560   2.302 -0.9178 -1.6092  0.1725
28480SOL    HW288846   6.935   6.530   2.451 -0.2487 -0.0231  0.4391
28481SOL     OW88847   3.662   8.370  10.689 -0.0246 -0.0323 -0.6179
28481SOL    HW188848   3.746   8.362  10.734 -0.7779 -0.6511  0.6914
28481SOL    HW288849   3.641   8.280  10.662  0.5566  0.3661 -2.4729
28482SOL     OW88850   2.886   1.600   8.338  0.4546 -0.0288  0.5462
28482SOL    HW188851   2.942   1.568   8.408  1.4142  2.4545  0.9517
28482SOL    HW288852   2.871   1.523   8.283  1.6321 -1.4600  2.1593
28483SOL     OW88853   2.277   2.685   0.508 -0.0729  0.8431  0.2006
28483SOL    HW188854   2.370   2.676   0.488 -0.1201  0.8354 -0.0133
28483SOL    HW288855   2.248   2.596   0.529 -0.1038  0.7979 -0.0376
28484SOL     OW88856  10.776   3.492   4.463 -0.6019 -0.0342  0.2888
28484SOL    HW188857  10.750   3.525   4.549  0.1035  0.4943  0.3026
28484SOL    HW288858  10.834   3.559   4.428 -2.1240  0.5029 -1.2667
28485SOL     OW88859   5.812  10.914   5.751  0.6892 -0.1019  0.2398
28485SOL    HW188860   5.889  10.901   5.805  1.5082  2.9611 -0.0844
28485SOL    HW288861   5.845  10.958   5.672 -1.1118 -0.4884 -0.7665
28486SOL     OW88862   1.194   5.985   4.519 -0.1895 -0.0851 -0.5621
28486SOL    HW188863   1.216   5.934   4.597  0.0181  1.4935  0.4366
28486SOL    HW288864   1.099   5.978   4.511 -0.2405 -0.0343 -0.0016
28487SOL     OW88865   4.528   9.598   9.973 -0.1475  0.0010 -0.1342
28487SOL    HW188866   4.549   9.513   9.936  1.0078  0.9451 -1.7198
28487SOL    HW288867   4.450   9.627   9.925  0.4253  0.5436 -0.7432
28488SOL     OW88868   6.076   4.509   5.863 -0.4948 -0.2998 -0.0618
28488SOL    HW188869   6.016   4.505   5.789  1.7789  1.2061 -2.0429
28488SOL    HW288870   6.077   4.601   5.888 -0.8653 -0.7236  1.5642
28489SOL     OW88871   1.934   8.572   8.687  0.1280 -0.0717  0.2763
28489SOL    HW188872   1.846   8.600   8.711 -0.4584 -2.8524  1.5591
28489SOL    HW288873   1.987   8.590   8.765 -0.0413 -1.5212  0.7384
28490SOL     OW88874   2.729   4.089   6.978  0.0281 -0.1722  0.1951
28490SOL    HW188875   2.665   4.156   7.001 -1.1177 -1.1043 -0.2640
28490SOL    HW288876   2.714   4.071   6.885  2.3676  1.1242 -0.4830
28491SOL     OW88877   1.173   5.408   4.698 -0.0307  0.1829 -0.5799
28491SOL    HW188878   1.241   5.347   4.668 -0.5052 -0.2176 -0.8376
28491SOL    HW288879   1.123   5.428   4.619  1.1427  2.2223 -0.8671
28492SOL     OW88880   1.234   7.337   6.161 -0.2531  0.5843  0.1259
28492SOL    HW188881   1.146   7.376   6.158  0.3368  2.2378  2.4708
28492SOL    HW288882   1.243   7.306   6.251  0.9605 -1.0896 -0.5586
28493SOL     OW88883   1.981   6.964   1.908  0.4110 -0.2416  0.4124
28493SOL    HW188884   2.033   6.896   1.866  1.2585  0.8307 -0.3410
28493SOL    HW288885   1.903   6.920   1.941 -0.9264 -0.9394 -3.4232
28494SOL     OW88886   3.264   0.096  10.470 -0.1815  0.1019  0.2954
28494SOL    HW188887   3.249   0.090  10.376 -1.3268  0.0264  0.4749
28494SOL    HW288888   3.331   0.164  10.479 -2.8014  2.8931 -0.3646
28495SOL     OW88889   0.493   6.673   4.528  0.5224 -0.3537 -0.7962
28495SOL    HW188890   0.561   6.720   4.576 -0.5666  1.1166 -0.6312
28495SOL    HW288891   0.431   6.644   4.595 -0.7157  1.2298 -1.1907
28496SOL     OW88892   3.135   0.913   6.975 -0.5223  0.3638 -0.1539
28496SOL    HW188893   3.090   0.841   7.021 -0.3439 -0.0444 -0.6139
28496SOL    HW288894   3.212   0.872   6.936  0.0683  0.9901  0.3242
28497SOL     OW88895   4.354   9.401   7.615 -0.0953 -0.0180  0.1171
28497SOL    HW188896   4.324   9.382   7.704 -0.6071  1.0062  0.1710
28497SOL    HW288897   4.388   9.490   7.619  1.9171 -0.7434 -0.2176
28498SOL     OW88898   2.853   5.159   6.725  0.2653 -0.1749 -0.9454
28498SOL    HW188899   2.888   5.096   6.788 -2.3617 -0.7419  0.0144
28498SOL    HW288900   2.850   5.242   6.773 -0.2352 -0.2553 -0.8339
28499SOL     OW88901  10.079  10.072   1.858  0.2675  0.2338  0.0506
28499SOL    HW188902  10.049  10.163   1.866 -0.0123  0.3591 -2.2881
28499SOL    HW288903  10.152  10.076   1.796  1.9568 -0.7858  1.9077
28500SOL     OW88904   0.418   6.252   0.388 -0.3127  0.4423  0.7932
28500SOL    HW188905   0.449   6.342   0.400  0.2108  0.2978  0.5193
28500SOL    HW288906   0.334   6.261   0.344 -1.6934  0.9410  3.4387
28501SOL     OW88907   6.200   3.141   8.893 -0.0678  0.1337 -0.2020
28501SOL    HW188908   6.184   3.047   8.882 -0.6700  0.3638 -1.4152
28501SOL    HW288909   6.278   3.146   8.947 -0.6370 -1.0657  0.7584
28502SOL     OW88910   6.304   9.767   6.051 -0.3152 -0.2800  0.6160
28502SOL    HW188911   6.338   9.852   6.021 -1.3609 -0.6987 -1.8737
28502SOL    HW288912   6.380   9.724   6.091  1.0091  0.5824 -0.8938
28503SOL     OW88913   3.219   7.254   0.123 -0.1814  0.7591  0.1905
28503SOL    HW188914   3.189   7.345   0.120 -1.8562  0.2422  0.6933
28503SOL    HW288915   3.144   7.205   0.158  1.0862 -0.6516  0.9654
28504SOL     OW88916   4.940   5.461   3.899 -0.1122 -0.2157  0.1266
28504SOL    HW188917   4.867   5.404   3.874  1.4972 -1.7170 -1.2548
28504SOL    HW288918   4.952   5.518   3.823 -0.1848  0.4007  0.5743
28505SOL     OW88919   7.484   8.729   3.545 -0.0811  0.5732  0.1702
28505SOL    HW188920   7.459   8.792   3.477 -0.2634  0.2817 -0.0364
28505SOL    HW288921   7.490   8.781   3.625 -0.0734  0.8819 -0.0281
28506SOL     OW88922   3.767   8.234   2.927  0.0102 -0.2548 -0.7226
28506SOL    HW188923   3.716   8.227   2.846 -1.7185  0.1077  0.3057
28506SOL    HW288924   3.820   8.154   2.929  0.4717 -0.0119 -2.4721
28507SOL     OW88925   0.645   4.363   1.676 -0.7932 -0.1037  0.1781
28507SOL    HW188926   0.608   4.441   1.634 -1.1511  0.5627  1.6944
28507SOL    HW288927   0.739   4.379   1.679 -0.8768  0.3391  0.5867
28508SOL     OW88928  10.796   8.281   0.752 -0.3927  0.1876 -0.1657
28508SOL    HW188929  10.747   8.218   0.805 -0.4138  0.0408 -0.3608
28508SOL    HW288930  10.800   8.359   0.807 -2.1102  0.6984 -0.7381
28509SOL     OW88931   2.023   8.522   8.420 -0.0890  0.0549  0.0328
28509SOL    HW188932   2.113   8.489   8.422 -0.2645 -0.5110 -1.1415
28509SOL    HW288933   1.999   8.530   8.512  0.9759 -0.3081  0.3524
28510SOL     OW88934   6.070   7.193   3.904  0.1166  0.4726  0.3072
28510SOL    HW188935   5.978   7.179   3.927 -0.4401  0.2154 -1.9925
28510SOL    HW288936   6.083   7.287   3.915 -1.0238  0.8554 -1.4028
28511SOL     OW88937   4.927   5.654   3.715  0.9124  0.1860  0.0844
28511SOL    HW188938   4.843   5.677   3.674  0.5873 -1.3929 -0.1346
28511SOL    HW288939   4.974   5.737   3.719  0.7832  0.4593 -3.0574
28512SOL     OW88940   6.555   2.214   9.126 -0.0930 -0.0763  0.0627
28512SOL    HW188941   6.633   2.197   9.179  0.4729 -0.2577 -0.8091
28512SOL    HW288942   6.582   2.281   9.064 -0.8900  0.4815  0.3034
28513SOL     OW88943   8.619   9.812   8.864  0.3442  0.1605 -0.2580
28513SOL    HW188944   8.599   9.748   8.796 -0.7081 -0.2682  0.4344
28513SOL    HW288945   8.700   9.781   8.904 -0.4393 -1.0622  0.4280
28514SOL     OW88946   8.638   1.263   4.574 -0.3224 -0.6423 -0.6116
28514SOL    HW188947   8.588   1.345   4.573  1.5101  0.5459  0.3635
28514SOL    HW288948   8.625   1.229   4.663  0.5201 -0.3650 -0.3778
28515SOL     OW88949   3.801   5.043   8.255  0.2171 -0.1689  0.9534
28515SOL    HW188950   3.839   5.011   8.337  0.7688  1.4797  1.3640
28515SOL    HW288951   3.714   5.075   8.280  0.1305 -0.2576  0.7693
28516SOL     OW88952   7.201   4.516   0.187  0.7388 -0.0656 -0.0931
28516SOL    HW188953   7.244   4.579   0.129 -0.1651  1.4176  0.8039
28516SOL    HW288954   7.127   4.482   0.136 -0.8286  2.1946  0.5751
28517SOL     OW88955   4.344   7.858   0.900 -0.2235 -0.5407 -0.2622
28517SOL    HW188956   4.379   7.828   0.815  0.3038 -0.9259  0.0864
28517SOL    HW288957   4.401   7.817   0.965 -0.3594  0.1080  0.2684
28518SOL     OW88958   9.481   5.937   8.824  0.2523  0.5552 -0.1368
28518SOL    HW188959   9.453   6.027   8.837 -0.2488  0.1160  1.9376
28518SOL    HW288960   9.558   5.927   8.879 -0.2881 -0.5513  0.4510
28519SOL     OW88961   2.746   0.137   5.129  0.0002 -0.2280 -0.2213
28519SOL    HW188962   2.656   0.158   5.105 -0.1746 -3.1893 -2.3648
28519SOL    HW288963   2.794   0.219   5.116 -2.0434  0.9273 -0.6789
28520SOL     OW88964   6.953   2.613   1.470 -0.6467  0.7332 -0.0700
28520SOL    HW188965   6.965   2.704   1.498  0.5544  0.8595 -0.9267
28520SOL    HW288966   7.042   2.580   1.459 -1.0707 -0.7731  0.9178
28521SOL     OW88967  10.132   5.775   3.265 -0.2211 -0.9152 -0.0136
28521SOL    HW188968  10.150   5.799   3.174 -0.1124 -0.4186  0.1341
28521SOL    HW288969  10.046   5.813   3.282  0.3221  0.1184  0.4849
28522SOL     OW88970   7.533   1.031   0.010 -0.1996  0.0851 -0.6566
28522SOL    HW188971   7.548   0.947   0.053  0.3341 -0.0264 -1.0520
28522SOL    HW288972   7.451   1.064   0.048  0.1347 -0.1240  0.2570
28523SOL     OW88973   4.929   3.439   3.374 -0.5413  0.0650  0.1262
28523SOL    HW188974   4.981   3.494   3.315 -0.4570  1.8531  1.8201
28523SOL    HW288975   4.917   3.357   3.326  1.3980  0.6698 -1.4582
28524SOL     OW88976   4.084   2.026  10.017  0.0722 -0.2079 -0.1566
28524SOL    HW188977   4.090   2.069  10.102  0.2556 -1.4286  0.4573
28524SOL    HW288978   3.995   2.047   9.986 -0.3523 -0.5848  0.7862
28525SOL     OW88979   8.434   5.210   5.224 -0.0422 -0.1618  0.5037
28525SOL    HW188980   8.452   5.213   5.318  0.8045  0.0037  0.3385
28525SOL    HW288981   8.339   5.217   5.218 -0.1415 -0.7245  1.3732
28526SOL     OW88982  10.764  10.938   4.896 -0.1986  0.5041 -0.5867
28526SOL    HW188983  10.703  11.011   4.909 -1.0989 -0.0675 -1.5134
28526SOL    HW288984  10.762  10.890   4.979  0.2207  1.3928 -0.0552
28527SOL     OW88985   6.553   6.251   2.039 -0.1287 -0.3110  0.3881
28527SOL    HW188986   6.501   6.241   2.118 -1.3693  1.1423 -0.2187
28527SOL    HW288987   6.640   6.278   2.071 -0.1646 -1.2781  1.3158
28528SOL     OW88988   5.403   2.411   2.563 -0.6401  0.1935  0.4365
28528SOL    HW188989   5.338   2.456   2.618 -0.1596 -0.0211  1.1820
28528SOL    HW288990   5.395   2.454   2.478 -0.2579  1.6420  1.1107
28529SOL     OW88991   4.518  10.236   3.137 -0.0127  0.2337  0.0455
28529SOL    HW188992   4.448  10.171   3.144 -1.1463  1.0522 -2.8669
28529SOL    HW288993   4.524  10.255   3.044  2.6632  1.7835  0.4691
28530SOL     OW88994   9.932   8.991   9.300  0.0956 -0.0134 -0.4116
28530SOL    HW188995   9.863   8.925   9.310 -0.3101  0.5611  0.7557
28530SOL    HW288996   9.970   8.999   9.388  1.1837  0.1852 -0.8961
28531SOL     OW88997   1.193   0.682   7.064  0.6414  0.0857  0.6143
28531SOL    HW188998   1.145   0.763   7.082  0.3402 -0.0712  0.5084
28531SOL    HW288999   1.139   0.635   7.001  1.7510  0.6996 -0.8332
28532SOL     OW89000  10.522   1.350   8.621 -0.1803  0.0956  0.3326
28532SOL    HW189001  10.484   1.336   8.707 -0.0963 -0.8526  0.2202
28532SOL    HW289002  10.448   1.376   8.566 -0.0843  1.5915  0.8903
28533SOL     OW89003   2.289   2.648   3.577  0.2951  0.4786 -0.3977
28533SOL    HW189004   2.312   2.555   3.568  0.0401  0.3562  0.1656
28533SOL    HW289005   2.365   2.687   3.619 -0.8772 -0.1243  2.4111
28534SOL     OW89006   4.470   7.199   0.275  0.2789  0.0292 -0.3326
28534SOL    HW189007   4.442   7.220   0.186  0.6911  1.1032 -0.2130
28534SOL    HW289008   4.490   7.105   0.273 -1.6831 -0.4052 -0.8498
28535SOL     OW89009   7.352   9.913   5.522 -0.1425  0.0493 -0.1603
28535SOL    HW189010   7.355   9.817   5.531  3.9856 -0.2088 -3.2453
28535SOL    HW289011   7.358   9.945   5.612  2.5571 -2.6037  0.6872
28536SOL     OW89012   8.380  10.500   1.748  0.3711  0.3640  0.4944
28536SOL    HW189013   8.344  10.558   1.680  0.0458 -1.5701 -1.0350
28536SOL    HW289014   8.471  10.486   1.721  0.0742 -0.8782  0.1383
28537SOL     OW89015   2.857   8.731   4.173 -0.5057  0.3430 -0.0673
28537SOL    HW189016   2.883   8.780   4.251 -1.7061  0.6046  0.1770
28537SOL    HW289017   2.825   8.798   4.113  0.7722  0.1859 -0.9433
28538SOL     OW89018   8.069   8.579   8.618 -0.2009 -0.0639  0.5684
28538SOL    HW189019   8.047   8.634   8.693 -1.7862 -2.0609  1.6152
28538SOL    HW289020   8.019   8.616   8.546 -0.0727  0.7737  0.9019
28539SOL     OW89021   0.630   6.670  10.778  0.1571 -0.0369  0.5594
28539SOL    HW189022   0.574   6.735  10.737  0.1762 -0.6340 -0.4313
28539SOL    HW289023   0.661   6.712  10.858 -2.2732  0.0498  1.4949
28540SOL     OW89024   3.167   4.238   8.564  0.0975 -0.1826  0.3026
28540SOL    HW189025   3.180   4.144   8.553  0.1666 -0.1200 -0.1592
28540SOL    HW289026   3.252   4.271   8.594  0.8588  0.1278 -2.0958
28541SOL     OW89027   2.080   7.161   5.957  0.2143 -0.0517 -0.2371
28541SOL    HW189028   2.168   7.138   5.930  0.4829  0.9396 -0.2092
28541SOL    HW289029   2.051   7.226   5.893 -0.2973  0.0214  0.0635
28542SOL     OW89030   5.884   9.682  10.913  0.1172  0.2396 -0.0677
28542SOL    HW189031   5.840   9.712  10.833  1.4829 -0.3135 -1.0356
28542SOL    HW289032   5.817   9.631  10.959 -0.4119 -0.2175 -1.3126
28543SOL     OW89033   4.480   1.209   6.707 -0.0434  0.3139  0.0076
28543SOL    HW189034   4.390   1.209   6.674  0.5985 -0.5786 -1.7650
28543SOL    HW289035   4.479   1.144   6.777 -0.2503 -1.3751 -1.5318
28544SOL     OW89036   1.144  10.593   6.639 -0.3384 -0.1539  0.3612
28544SOL    HW189037   1.193  10.649   6.699  1.4034  0.1475 -1.2841
28544SOL    HW289038   1.071  10.648   6.609  0.0383  0.4563  0.5397
28545SOL     OW89039   8.670   4.600   7.781  0.6714  0.5753 -0.0400
28545SOL    HW189040   8.577   4.623   7.793  0.5429  0.0655 -0.0353
28545SOL    HW289041   8.668   4.509   7.751  1.2647 -0.1521  2.0397
28546SOL     OW89042   7.686   8.657   3.972 -0.0535  0.4042  0.0310
28546SOL    HW189043   7.620   8.617   3.915  1.1078 -2.0862  0.3323
28546SOL    HW289044   7.645   8.660   4.058 -0.2547  0.1089 -0.0542
28547SOL     OW89045   9.389   7.454   9.626 -0.5351  0.3610 -0.0808
28547SOL    HW189046   9.346   7.417   9.549 -0.4099 -1.7627  0.8417
28547SOL    HW289047   9.332   7.528   9.651  0.8635  2.8345 -3.7288
28548SOL     OW89048   9.559  10.790  10.792  0.1558  0.4237 -0.3545
28548SOL    HW189049   9.654  10.788  10.805  0.0408  1.2086  0.7073
28548SOL    HW289050   9.548  10.814  10.700  0.9838 -0.2693 -0.6436
28549SOL     OW89051   6.205   2.291   6.067  0.3270 -0.3922  0.3324
28549SOL    HW189052   6.287   2.258   6.105 -0.1256 -2.0718 -0.1101
28549SOL    HW289053   6.143   2.219   6.079 -0.9347  0.6683  0.1700
28550SOL     OW89054   5.946   1.171   5.766  0.5987 -0.9097  0.5734
28550SOL    HW189055   5.873   1.196   5.711 -0.7399 -0.9276  2.3174
28550SOL    HW289056   5.975   1.252   5.808  0.5093 -1.1663  1.1438
28551SOL     OW89057   7.486   0.677   3.004  0.0466  0.2423 -0.5485
28551SOL    HW189058   7.512   0.766   2.983 -0.4382  0.1788 -1.4524
28551SOL    HW289059   7.494   0.671   3.100 -1.3617  1.7125 -0.3211
28552SOL     OW89060   3.978   4.212   6.241  0.1943 -0.1538  0.4785
28552SOL    HW189061   3.987   4.221   6.336 -0.1906  2.3440  0.3076
28552SOL    HW289062   3.915   4.141   6.230 -1.3954  0.9647  2.1343
28553SOL     OW89063   7.008   5.199   5.624  0.5349 -0.9695 -0.0696
28553SOL    HW189064   6.959   5.271   5.666  0.9341 -0.4498 -0.4976
28553SOL    HW289065   7.098   5.210   5.655  0.5875 -1.3159 -0.0981
28554SOL     OW89066   9.628   8.887   0.376  0.0797  0.6618 -0.3292
28554SOL    HW189067   9.578   8.968   0.370 -0.4127  0.5347  1.5120
28554SOL    HW289068   9.606   8.853   0.463  0.4884 -1.3021 -0.9809
28555SOL     OW89069   7.481   9.935   7.982 -0.4016 -0.3662  0.3008
28555SOL    HW189070   7.563   9.887   7.969 -0.1017 -0.0716  1.0717
28555SOL    HW289071   7.414   9.867   7.981 -0.1950 -0.5586 -0.7731
28556SOL     OW89072   5.481   8.518   4.701  0.3841  0.5857  0.4980
28556SOL    HW189073   5.575   8.505   4.686  0.1800 -1.5818  0.9784
28556SOL    HW289074   5.439   8.487   4.620  0.1061  2.2331 -0.0058
28557SOL     OW89075   7.595   0.845   4.562 -0.3265 -0.3556  0.5884
28557SOL    HW189076   7.666   0.807   4.614 -0.3164 -0.2471  0.6545
28557SOL    HW289077   7.556   0.770   4.516  0.2829 -0.3213  0.0074
28558SOL     OW89078   4.505   4.916  10.106 -0.1654 -0.0118  0.4880
28558SOL    HW189079   4.540   4.833  10.075  1.5478  0.0241  2.1635
28558SOL    HW289080   4.515   4.912  10.201 -0.1455  2.0630  0.6026
28559SOL     OW89081   5.022   3.291   3.981  0.0536  0.6856 -0.5048
28559SOL    HW189082   5.096   3.235   3.958 -0.9782 -0.8702 -0.1468
28559SOL    HW289083   4.981   3.247   4.056 -1.2581  1.4897 -0.7273
28560SOL     OW89084   1.118   8.190   5.561 -0.2597 -0.5790 -0.5422
28560SOL    HW189085   1.039   8.241   5.541 -0.0793  0.1665  0.5741
28560SOL    HW289086   1.136   8.209   5.653  0.6474 -1.5434 -0.5093
28561SOL     OW89087   6.766   5.866   9.072  0.5640  0.2380 -0.2175
28561SOL    HW189088   6.811   5.935   9.023  1.5650 -0.0560  0.2721
28561SOL    HW289089   6.674   5.892   9.073  0.8118  1.1305 -0.7560
28562SOL     OW89090   2.781   3.414   8.464  0.6004 -0.2223 -0.5003
28562SOL    HW189091   2.770   3.319   8.473  0.7918 -0.0710  1.5472
28562SOL    HW289092   2.696   3.450   8.491  1.2694  0.2920  0.9129
28563SOL     OW89093   2.612   2.994   3.646  0.0180 -0.3586 -0.3605
28563SOL    HW189094   2.598   3.046   3.725  1.4152 -0.2123 -0.2055
28563SOL    HW289095   2.597   2.904   3.673  2.4192 -0.5071  0.5581
28564SOL     OW89096   0.965   6.956   8.709  0.1296 -0.1483 -0.0461
28564SOL    HW189097   0.921   7.035   8.677  0.1796 -0.2249 -0.3048
28564SOL    HW289098   1.045   6.951   8.658  0.0784 -0.4237 -0.1002
28565SOL     OW89099   5.524   3.125   7.758  0.2893  0.0677 -0.1686
28565SOL    HW189100   5.500   3.065   7.688 -1.9072  1.3282 -0.5344
28565SOL    HW289101   5.537   3.209   7.715 -0.5058  0.7213  0.8483
28566SOL     OW89102   1.509   3.669   5.507 -0.0896  0.2658 -0.2248
28566SOL    HW189103   1.559   3.682   5.427 -0.4290  2.5126 -0.1020
28566SOL    HW289104   1.432   3.619   5.480  1.9809 -2.9299 -0.4744
28567SOL     OW89105   6.356   9.875   0.091  0.4851  0.1810 -0.0973
28567SOL    HW189106   6.287   9.865   0.025 -0.3826 -1.0924  1.0013
28567SOL    HW289107   6.388   9.787   0.106  1.6961  0.6458  0.1378
28568SOL     OW89108   1.590   4.723   2.610 -0.2211  0.1831 -0.4149
28568SOL    HW189109   1.585   4.730   2.515 -1.8740  1.7722 -0.2301
28568SOL    HW289110   1.518   4.665   2.635  0.1936 -0.2152 -0.1035
28569SOL     OW89111   9.271   6.374   9.386 -0.1901 -0.3452 -0.1587
28569SOL    HW189112   9.238   6.373   9.297 -1.5033 -0.9146  0.3172
28569SOL    HW289113   9.323   6.294   9.394  0.3657 -0.0253 -0.5673
28570SOL     OW89114   5.495   5.211   0.897  0.3940 -0.1132  0.0063
28570SOL    HW189115   5.589   5.230   0.888  0.1572  0.9045 -0.3107
28570SOL    HW289116   5.475   5.152   0.824  0.7667 -0.2648  0.0247
28571SOL     OW89117   2.218   3.379   2.826 -0.0481  0.2131  0.5519
28571SOL    HW189118   2.255   3.304   2.778 -1.6500  0.3716 -0.9733
28571SOL    HW289119   2.260   3.375   2.912  1.0215 -1.5521 -0.0186
28572SOL     OW89120   4.324   0.462   6.296  0.6310  0.0401 -0.4148
28572SOL    HW189121   4.340   0.534   6.357  2.2909  0.6457 -1.5069
28572SOL    HW289122   4.408   0.451   6.250 -0.5466 -0.4357 -2.5245
28573SOL     OW89123   2.079   1.788   9.908  0.1122 -0.2301  0.5104
28573SOL    HW189124   2.025   1.730   9.962  0.4453 -0.9792  0.0481
28573SOL    HW289125   2.144   1.730   9.869 -1.0052  0.0286 -1.8375
28574SOL     OW89126   7.853   1.517   8.777 -0.0030  0.4491 -0.3107
28574SOL    HW189127   7.802   1.583   8.731 -0.4862  0.4121  0.1721
28574SOL    HW289128   7.943   1.533   8.748 -0.2577  0.6287 -1.0154
28575SOL     OW89129   3.378   3.892   9.273 -0.3822  0.0962  0.6933
28575SOL    HW189130   3.365   3.939   9.191 -3.7623  0.5904  1.4350
28575SOL    HW289131   3.441   3.945   9.322 -0.7878  1.4984 -0.2816
28576SOL     OW89132   4.335   7.604   8.026 -0.2465 -0.4008  0.0499
28576SOL    HW189133   4.420   7.633   7.993  0.3562 -2.2117 -0.0507
28576SOL    HW289134   4.276   7.678   8.008  1.3427  0.9750  0.3572
28577SOL     OW89135   1.140   9.132   4.707 -0.3166 -0.3012 -0.2186
28577SOL    HW189136   1.236   9.130   4.702 -0.2649  0.3160  0.4433
28577SOL    HW289137   1.116   9.218   4.675 -0.7714 -1.0786 -2.0132
28578SOL     OW89138   2.947   6.152   3.733 -0.1907 -0.4633 -0.6567
28578SOL    HW189139   2.907   6.140   3.647 -0.6533  0.6817 -0.6044
28578SOL    HW289140   3.040   6.167   3.715 -0.4861  0.9985 -1.0473
28579SOL     OW89141   9.016   1.310   7.916  0.1437  0.0643  0.1155
28579SOL    HW189142   8.938   1.322   7.969 -0.6072 -0.8537 -0.7464
28579SOL    HW289143   9.055   1.397   7.908  0.0130  0.2763  1.7634
28580SOL     OW89144   0.456   8.959  10.810  0.2529  0.1372 -0.1361
28580SOL    HW189145   0.536   8.935  10.857  0.5890 -0.0956 -0.8374
28580SOL    HW289146   0.410   8.876  10.797 -0.1724  0.2856  0.3761
28581SOL     OW89147   1.661  10.106   0.876 -0.4039 -0.4079 -0.3519
28581SOL    HW189148   1.696  10.077   0.960  0.9786 -1.7049 -1.3609
28581SOL    HW289149   1.735  10.149   0.832 -0.8954 -0.4694 -1.2504
28582SOL     OW89150   2.908   6.921   7.733 -0.0544  0.6167  0.0709
28582SOL    HW189151   2.964   6.996   7.711 -0.0879  0.0277 -2.0895
28582SOL    HW289152   2.949   6.847   7.690 -1.3558 -0.1981  0.2280
28583SOL     OW89153   4.725   4.701   4.661 -0.2683  0.0501  0.1309
28583SOL    HW189154   4.754   4.664   4.578  0.7500 -0.2671  0.6255
28583SOL    HW289155   4.696   4.625   4.713 -0.1423  0.1630  0.3687
28584SOL     OW89156   5.691   3.780  10.361  0.1255 -0.0982 -0.3323
28584SOL    HW189157   5.673   3.750  10.450  0.7713 -0.1616 -0.2206
28584SOL    HW289158   5.634   3.728  10.305 -0.7030  0.3444  0.0982
28585SOL     OW89159   9.497   2.284   8.190  0.5247  0.1191 -0.3337
28585SOL    HW189160   9.479   2.197   8.156 -0.3596  0.2887 -0.3192
28585SOL    HW289161   9.578   2.275   8.240  0.3530 -0.7301 -0.2098
28586SOL     OW89162   4.583   4.428   6.031 -0.3780  0.0251  0.7328
28586SOL    HW189163   4.596   4.509   5.981  1.4691 -0.2599  0.7118
28586SOL    HW289164   4.656   4.372   6.004 -1.3449 -1.4440  1.1553
28587SOL     OW89165   8.899   5.121   2.684  0.1648  0.1338  0.5027
28587SOL    HW189166   8.955   5.157   2.616  1.4218  0.6400  1.7760
28587SOL    HW289167   8.957   5.064   2.734 -0.9582 -0.9206  0.6288
28588SOL     OW89168   7.372   8.813   2.441  0.1452 -0.1268 -0.3804
28588SOL    HW189169   7.277   8.818   2.428  0.0637 -0.5357  0.0428
28588SOL    HW289170   7.384   8.744   2.506  0.6714  0.5117  0.2181
28589SOL     OW89171   7.855   1.733   8.290 -0.1014  0.5466  0.7194
28589SOL    HW189172   7.873   1.819   8.328 -0.0437  1.1707 -0.6824
28589SOL    HW289173   7.900   1.734   8.205 -0.9887 -0.4599  0.2222
28590SOL     OW89174   4.996   0.644   6.106  0.4140 -0.0977 -0.2465
28590SOL    HW189175   4.945   0.612   6.031 -0.3002  0.0755  0.1642
28590SOL    HW289176   5.019   0.734   6.083 -2.0458  0.8425  0.8761
28591SOL     OW89177   3.902   9.801   2.162 -0.3269 -0.3490 -0.1455
28591SOL    HW189178   3.899   9.839   2.250  1.6941  0.3645 -0.3469
28591SOL    HW289179   3.983   9.835   2.124 -0.0306 -2.4133 -1.4715
28592SOL     OW89180   6.176   5.119   9.520 -0.0895 -0.2600 -0.1540
28592SOL    HW189181   6.131   5.083   9.443  3.7412 -0.9736 -2.2153
28592SOL    HW289182   6.225   5.044   9.556  0.3285  0.7049  1.3319
28593SOL     OW89183   9.099   1.417   5.672 -0.4123 -0.2960 -0.7098
28593SOL    HW189184   9.156   1.469   5.728 -1.5232 -0.6141  0.7391
28593SOL    HW289185   9.122   1.327   5.691 -1.4115 -0.4252 -0.1121
28594SOL     OW89186   2.521   2.185   4.036 -0.5046 -0.0684 -0.0488
28594SOL    HW189187   2.578   2.228   3.972 -0.1125  0.3005  0.5394
28594SOL    HW289188   2.450   2.147   3.984  0.4513 -0.8232 -0.8408
28595SOL     OW89189   7.192   8.048   5.888  0.7267  0.2755 -0.1446
28595SOL    HW189190   7.101   8.076   5.889  0.9919  1.1501  1.0481
28595SOL    HW289191   7.241   8.128   5.866  1.2869  0.1230  0.5224
28596SOL     OW89192   8.281  10.014   0.601  0.2286 -0.3682  0.2017
28596SOL    HW189193   8.194   9.988   0.629  0.0400  1.2395  1.1672
28596SOL    HW289194   8.270  10.102   0.566  1.4177 -0.2504  0.0986
28597SOL     OW89195   6.789   5.462   4.258  0.9359 -0.2452 -0.1613
28597SOL    HW189196   6.882   5.484   4.264  1.3528 -1.4066 -1.9194
28597SOL    HW289197   6.772   5.406   4.333  1.1826  1.5635  1.2615
28598SOL     OW89198   1.625   6.126   2.766  0.4027  0.5849  0.2840
28598SOL    HW189199   1.690   6.057   2.779  0.5690  0.3327 -1.7293
28598SOL    HW289200   1.597   6.115   2.675 -1.6858  1.3618  0.8067
28599SOL     OW89201   7.734   0.263   0.598 -0.6037  0.0740  0.0726
28599SOL    HW189202   7.739   0.348   0.640  0.0228  0.0619  0.0309
28599SOL    HW289203   7.820   0.251   0.557 -0.1667 -1.2123  1.3205
28600SOL     OW89204   3.703   1.634   6.442 -0.3098 -0.1618 -0.3628
28600SOL    HW189205   3.700   1.720   6.400 -1.0613 -0.2147 -0.4321
28600SOL    HW289206   3.697   1.653   6.535  1.5666 -0.0324 -0.2522
28601SOL     OW89207   8.837  10.554  10.594 -0.2248 -0.0086  0.5453
28601SOL    HW189208   8.783  10.488  10.638  0.8009 -0.7896  0.6468
28601SOL    HW289209   8.922  10.548  10.638  0.4844 -0.0442 -0.8298
28602SOL     OW89210   2.570   7.510   5.107  0.1989  0.2590 -0.3428
28602SOL    HW189211   2.525   7.483   5.027  0.5208  0.9410 -0.7585
28602SOL    HW289212   2.596   7.428   5.149  0.6147 -0.0988 -1.2759
28603SOL     OW89213  10.292   5.905   1.594 -0.0151 -0.2984  0.2871
28603SOL    HW189214  10.353   5.850   1.642 -0.7885 -1.4296 -0.0041
28603SOL    HW289215  10.345   5.977   1.560  0.8230 -0.3412  1.4871
28604SOL     OW89216   1.777  10.036  10.350  0.5234 -0.4419  0.4171
28604SOL    HW189217   1.706  10.096  10.329  1.6840  0.5446 -0.7937
28604SOL    HW289218   1.734   9.958  10.386 -1.2656 -0.3790 -1.5173
28605SOL     OW89219   3.644   6.880   8.301 -0.3079 -0.5564  0.1421
28605SOL    HW189220   3.701   6.941   8.346 -0.2332 -0.0757 -0.5902
28605SOL    HW289221   3.682   6.794   8.319 -0.2396 -0.3604  0.9210
28606SOL     OW89222   7.103   2.110   1.926  0.1818  0.0172 -0.7867
28606SOL    HW189223   7.041   2.057   1.977  1.1400 -2.3333 -1.9579
28606SOL    HW289224   7.047   2.168   1.874 -0.9971 -0.9706 -0.6627
28607SOL     OW89225   0.494   7.325   2.087 -0.1053 -0.5165 -0.0049
28607SOL    HW189226   0.484   7.416   2.113  0.6982 -0.1408 -0.9764
28607SOL    HW289227   0.475   7.275   2.166 -1.8365  0.4296  0.2085
28608SOL     OW89228   0.780   5.699   2.910  0.1726  0.0431  0.6064
28608SOL    HW189229   0.712   5.645   2.870  0.2621  0.2147  0.2212
28608SOL    HW289230   0.751   5.789   2.896  0.2340  0.1051  0.8755
28609SOL     OW89231   8.326   1.633   3.476  0.4044  0.1410  0.3793
28609SOL    HW189232   8.334   1.548   3.431  2.3528  1.7960 -2.5741
28609SOL    HW289233   8.413   1.647   3.515  0.6671  1.5449 -0.6696
28610SOL     OW89234   5.432   1.684   5.385 -0.3208  0.2822 -0.1834
28610SOL    HW189235   5.502   1.748   5.397 -1.3512  1.5293 -0.6533
28610SOL    HW289236   5.399   1.701   5.296 -0.7252 -0.7702 -0.2347
28611SOL     OW89237  10.887   7.495   7.480 -0.7013  0.1510  0.4422
28611SOL    HW189238  10.918   7.480   7.391 -0.4965 -0.4550  0.6116
28611SOL    HW289239  10.856   7.409   7.510  1.9166 -0.3403  1.9699
28612SOL     OW89240   8.975   1.274   0.493  0.2789 -0.4789  0.3520
28612SOL    HW189241   8.926   1.351   0.468 -0.0303 -0.5774  0.6449
28612SOL    HW289242   9.051   1.308   0.541 -0.0386 -0.3741  0.7793
28613SOL     OW89243   2.221   7.922   1.938 -0.2609 -0.4201 -0.0167
28613SOL    HW189244   2.206   7.967   1.855 -2.8040 -1.8227 -0.3564
28613SOL    HW289245   2.209   7.990   2.005  2.5830  0.9057 -0.7395
28614SOL     OW89246   2.891   8.453   8.619 -0.2301 -0.3207  0.2714
28614SOL    HW189247   2.911   8.444   8.712 -0.1700 -1.2790  0.1680
28614SOL    HW289248   2.906   8.366   8.582 -2.3733 -0.5119 -0.2161
28615SOL     OW89249   7.666   5.596   0.660 -0.4350 -0.0267 -0.5627
28615SOL    HW189250   7.612   5.538   0.714  0.2586 -0.0245  0.1400
28615SOL    HW289251   7.750   5.552   0.655 -0.3802  0.1695 -1.3196
28616SOL     OW89252   5.500   4.494   4.843 -0.1769 -0.4483 -1.1325
28616SOL    HW189253   5.576   4.542   4.810  0.8316 -0.1764  1.4293
28616SOL    HW289254   5.442   4.562   4.879  1.6235 -1.0646  3.2284
28617SOL     OW89255   6.852   0.369   0.963  0.5442  0.1649 -0.0553
28617SOL    HW189256   6.834   0.309   1.035  2.0340 -0.8225 -0.4756
28617SOL    HW289257   6.907   0.318   0.903  0.1395  1.2967 -1.4018
28618SOL     OW89258   8.566   0.107   9.973 -0.4421  0.7847  0.1700
28618SOL    HW189259   8.523   0.179   9.927  0.0393  1.4799  0.7841
28618SOL    HW289260   8.653   0.103   9.934 -0.1551  1.1425  0.7622
28619SOL     OW89261   8.237   9.286   9.778 -0.1996 -0.2691 -0.7319
28619SOL    HW189262   8.153   9.292   9.823 -0.4733  0.4642 -1.3105
28619SOL    HW289263   8.225   9.218   9.712  0.9101 -2.9530  1.7330
28620SOL     OW89264   6.777   9.067   7.771 -0.4420  0.0966  0.0423
28620SOL    HW189265   6.689   9.100   7.753  1.0039  2.3293 -3.5778
28620SOL    HW289266   6.812   9.128   7.836 -2.1314 -1.9041  2.9327
28621SOL     OW89267   0.865   0.350  10.818 -0.1906 -0.1786  0.2065
28621SOL    HW189268   0.904   0.263  10.833  0.1349  0.0136  0.4824
28621SOL    HW289269   0.778   0.331  10.782  0.0199 -0.6131 -0.0740
28622SOL     OW89270   8.878   9.399   5.082  0.3583 -0.4893  0.8217
28622SOL    HW189271   8.949   9.421   5.021 -0.7018  1.1008  0.1311
28622SOL    HW289272   8.922   9.359   5.157  1.8476 -0.8253 -0.2165
28623SOL     OW89273   0.450   6.066  10.661 -0.9506 -0.7643 -0.1969
28623SOL    HW189274   0.500   6.066  10.742 -0.6247  3.3624 -0.3036
28623SOL    HW289275   0.362   6.039  10.687 -0.8023  0.3508  1.5077
28624SOL     OW89276   0.294   7.388   2.418 -0.0027  0.4042  0.5380
28624SOL    HW189277   0.390   7.384   2.426  0.0749  0.8758 -0.1646
28624SOL    HW289278   0.277   7.368   2.326 -0.4801  1.9867  0.2698
28625SOL     OW89279   8.965   4.758   6.305  0.3517  0.4198 -0.1187
28625SOL    HW189280   8.927   4.676   6.274 -1.8370  1.6731 -0.8547
28625SOL    HW289281   9.046   4.766   6.255  0.3798 -1.0783 -0.3541
28626SOL     OW89282   6.879   0.893   8.991 -0.4059  0.3191 -0.3019
28626SOL    HW189283   6.823   0.957   8.948 -0.1528  0.7466 -0.0045
28626SOL    HW289284   6.912   0.939   9.069 -0.5528 -0.3112  0.1334
28627SOL     OW89285  10.677   3.638   4.052 -0.3035 -0.2680 -0.3618
28627SOL    HW189286  10.611   3.669   4.114  0.3449 -0.8348  0.6256
28627SOL    HW289287  10.627   3.607   3.977 -1.1314 -0.0293  0.0867
28628SOL     OW89288   3.132   0.967   4.787 -0.0194  0.2539 -0.0602
28628SOL    HW189289   3.079   0.888   4.796  0.0040  0.2400 -0.0422
28628SOL    HW289290   3.222   0.937   4.802 -0.0773  0.3989  0.5905
28629SOL     OW89291   2.209   0.264  10.592 -0.2935  0.1879 -0.6321
28629SOL    HW189292   2.223   0.284  10.499  1.8971  3.5490  0.3409
28629SOL    HW289293   2.281   0.204  10.614  1.4134  2.3178 -0.2605
28630SOL     OW89294   8.785  10.479  10.205 -0.7499 -0.0373  0.0835
28630SOL    HW189295   8.846  10.410  10.182  0.0197  1.0535 -1.2031
28630SOL    HW289296   8.777  10.473  10.300  1.7084  0.0957  0.3293
28631SOL     OW89297   0.322   6.412   8.018 -0.0764 -0.4023  0.3917
28631SOL    HW189298   0.297   6.330   8.061 -0.6488 -1.2474 -1.5085
28631SOL    HW289299   0.256   6.426   7.951  0.3627  1.3120  0.2858
28632SOL     OW89300   3.848   8.425   1.631 -0.7519 -0.3370  0.2101
28632SOL    HW189301   3.905   8.355   1.599 -0.7896  0.1886 -1.0105
28632SOL    HW289302   3.778   8.379   1.678  1.1448 -0.9777  2.5737
28633SOL     OW89303   2.072   2.538   0.907 -0.2288 -0.2099  0.1587
28633SOL    HW189304   2.022   2.513   0.984  2.0159 -0.2137  1.6639
28633SOL    HW289305   2.136   2.468   0.896  1.4760  1.3158  0.1500
28634SOL     OW89306   4.225   5.971   3.294  0.2591  0.0282 -0.2251
28634SOL    HW189307   4.189   6.047   3.341  1.0688  0.0194  0.4246
28634SOL    HW289308   4.320   5.979   3.306  0.2594 -2.6488  2.3186
28635SOL     OW89309   8.496   8.139   6.348 -0.0279  0.1347  0.0472
28635SOL    HW189310   8.485   8.142   6.253  1.4701  0.7390 -0.1171
28635SOL    HW289311   8.413   8.170   6.382  0.2851  2.3034 -1.1054
28636SOL     OW89312   4.358   3.639   4.419 -0.1297  0.2907 -0.2969
28636SOL    HW189313   4.365   3.734   4.434  0.9625  0.2896 -0.6804
28636SOL    HW289314   4.372   3.600   4.505  2.9948  0.3822 -0.7043
28637SOL     OW89315   0.146   2.442   9.835  0.0453 -0.0046  0.2165
28637SOL    HW189316   0.131   2.348   9.836 -0.4665  0.0784  1.0630
28637SOL    HW289317   0.216   2.455   9.771  0.6163 -1.0436  0.6176
28638SOL     OW89318   6.056   8.173   7.428 -0.5198 -0.0671 -0.8513
28638SOL    HW189319   5.971   8.182   7.472 -0.5946 -0.2724 -0.9523
28638SOL    HW289320   6.051   8.088   7.384  0.2036 -0.6507  0.1762
28639SOL     OW89321   8.794   5.756   8.501  0.5168 -0.2284  0.0004
28639SOL    HW189322   8.862   5.819   8.526 -1.1955  0.7994  2.2651
28639SOL    HW289323   8.821   5.674   8.543  1.9111 -0.6386 -1.6318
28640SOL     OW89324   3.937   7.973  10.270 -0.1829  0.2260  0.0932
28640SOL    HW189325   3.973   7.974  10.181 -2.0240 -0.6166 -0.6850
28640SOL    HW289326   4.009   8.004  10.325  0.5969  1.9023 -1.8270
28641SOL     OW89327   8.877   0.109   7.679 -0.2193  1.0889 -0.4610
28641SOL    HW189328   8.880   0.041   7.747  1.3472  1.3622 -0.2267
28641SOL    HW289329   8.923   0.069   7.605 -1.5264  0.9615 -1.2033
28642SOL     OW89330   6.858   6.547   1.517 -0.3636  0.1268 -0.1715
28642SOL    HW189331   6.870   6.570   1.425 -1.9461 -0.0528 -0.4287
28642SOL    HW289332   6.833   6.455   1.517 -1.6567  0.4601  0.3317
28643SOL     OW89333   3.865   1.456   0.791  0.0516  0.0363  0.2782
28643SOL    HW189334   3.919   1.377   0.804  0.4441 -0.1833 -2.4879
28643SOL    HW289335   3.817   1.465   0.874  3.5502 -0.3305  2.4605
28644SOL     OW89336   9.632  10.580   6.675 -0.4120 -0.3121 -0.3372
28644SOL    HW189337   9.701  10.514   6.686  0.0541  0.0367 -1.0937
28644SOL    HW289338   9.672  10.647   6.619 -0.8055  0.7139  0.5917
28645SOL     OW89339   7.601   6.446   8.436 -0.1581  0.2288  0.3187
28645SOL    HW189340   7.667   6.515   8.427  1.4253 -1.1732  0.9185
28645SOL    HW289341   7.588   6.413   8.347  1.0974 -0.5247  0.4085
28646SOL     OW89342   9.520   4.701   0.385 -0.5946 -0.1636 -0.0184
28646SOL    HW189343   9.466   4.743   0.452 -1.2757 -2.1225  0.7265
28646SOL    HW289344   9.533   4.612   0.419  2.7985  0.1391 -0.3668
28647SOL     OW89345   7.044   9.682   9.926 -0.1222  0.5091 -0.6033
28647SOL    HW189346   7.093   9.751   9.971  0.5615 -0.6504  0.4605
28647SOL    HW289347   6.957   9.683   9.966 -0.2283  0.9983 -0.8459
28648SOL     OW89348   9.365   0.279   6.725 -0.0457 -0.0444  0.0736
28648SOL    HW189349   9.348   0.185   6.733  0.2125 -0.3062 -2.2999
28648SOL    HW289350   9.278   0.318   6.713  0.0871 -0.2845 -1.7246
28649SOL     OW89351   1.520   5.392   7.588 -0.0130 -0.2968  0.7299
28649SOL    HW189352   1.518   5.335   7.511  0.3261 -0.7566  1.0542
28649SOL    HW289353   1.529   5.480   7.553  2.2427 -0.6688  0.2917
28650SOL     OW89354   1.964   0.238   4.395  0.1297 -0.1060 -0.1155
28650SOL    HW189355   1.927   0.152   4.416 -0.0652  0.0504  0.1852
28650SOL    HW289356   1.894   0.300   4.418  0.2271  0.1224 -0.4414
28651SOL     OW89357   4.743   8.740   2.013 -0.2205 -0.2652 -0.1538
28651SOL    HW189358   4.806   8.728   2.084  0.3958  3.8041  0.0984
28651SOL    HW289359   4.790   8.792   1.947 -1.2971 -2.6134 -2.8797
28652SOL     OW89360  10.920   7.173   2.371 -0.1081  0.0454 -0.3068
28652SOL    HW189361  10.966   7.094   2.401 -1.8196 -0.8100  0.1234
28652SOL    HW289362  10.837   7.141   2.336 -1.1234  1.7179  0.5053
28653SOL     OW89363   1.373   8.919   0.735  0.0127 -0.2070  0.8457
28653SOL    HW189364   1.280   8.938   0.722  0.2438 -1.2017 -2.9790
28653SOL    HW289365   1.381   8.825   0.717  1.9872  0.2126 -0.7032
28654SOL     OW89366  10.336   7.799  10.584  0.0998  0.1852 -0.4229
28654SOL    HW189367  10.350   7.812  10.678 -1.7940  0.3194 -0.1391
28654SOL    HW289368  10.249   7.759  10.578  0.2239  0.1437 -2.1150
28655SOL     OW89369   6.559   7.309   5.221  0.4334  0.0803 -0.1297
28655SOL    HW189370   6.545   7.215   5.207 -0.6699  0.2066  0.0413
28655SOL    HW289371   6.528   7.325   5.310  2.0395  0.3361  0.3972
28656SOL     OW89372   7.581   5.311   7.538  0.7078  0.3071 -0.7224
28656SOL    HW189373   7.539   5.255   7.473  1.1736 -0.1701 -0.6150
28656SOL    HW289374   7.663   5.267   7.558 -0.5109 -0.7989  1.9916
28657SOL     OW89375   1.580   7.834   3.352 -0.5480 -0.0055  0.3228
28657SOL    HW189376   1.676   7.835   3.357 -0.4998 -1.6197  0.0912
28657SOL    HW289377   1.554   7.921   3.379  1.0148  0.5859 -0.0036
28658SOL     OW89378   4.135   6.890   9.704 -0.7529 -0.0327  0.2584
28658SOL    HW189379   4.116   6.983   9.718  1.5187  0.5438 -0.2419
28658SOL    HW289380   4.092   6.845   9.777 -0.1888  1.6096  1.6322
28659SOL     OW89381   1.264   0.656   3.722 -0.4527 -0.2580 -0.4207
28659SOL    HW189382   1.339   0.641   3.780 -1.2885  0.5923  0.9092
28659SOL    HW289383   1.281   0.741   3.683 -1.6829  0.8987  1.4554
28660SOL     OW89384   1.516   1.079   9.947 -0.3442  0.7025  0.6675
28660SOL    HW189385   1.540   0.998   9.991  0.9559  0.5986 -0.2007
28660SOL    HW289386   1.422   1.088   9.963 -0.6335 -1.3089  0.2467
28661SOL     OW89387  10.688   8.743   6.148  0.0022 -0.5255 -1.1139
28661SOL    HW189388  10.676   8.764   6.056  0.5030 -1.8450 -1.5010
28661SOL    HW289389  10.711   8.650   6.148 -0.3140 -0.6126  0.3642
28662SOL     OW89390   9.054  10.363   8.922 -0.2308 -0.1003  0.5435
28662SOL    HW189391   9.026  10.443   8.878 -3.0416 -0.7910  1.0093
28662SOL    HW289392   9.053  10.296   8.854 -2.1185 -0.6334  1.0725
28663SOL     OW89393   7.212   4.186   8.217  0.4866  0.2018  0.3662
28663SOL    HW189394   7.190   4.274   8.188  0.1385  0.4096  1.2349
28663SOL    HW289395   7.273   4.153   8.152  0.6411  1.0987  0.0563
28664SOL     OW89396   6.117   4.303   6.484  0.1934  0.5449 -0.1044
28664SOL    HW189397   6.207   4.336   6.492  1.1396 -2.4045  2.1292
28664SOL    HW289398   6.119   4.247   6.407  0.5806 -0.3639  0.5525
28665SOL     OW89399   2.106  10.101   6.468 -0.1786 -0.6559 -0.1168
28665SOL    HW189400   2.071  10.149   6.393 -0.7446  0.5708  0.9156
28665SOL    HW289401   2.176  10.157   6.502 -0.4520 -0.8253  0.7477
28666SOL     OW89402   3.083   0.910   3.401  0.5718  0.1066 -0.5380
28666SOL    HW189403   3.101   0.965   3.325  1.7177  1.0364  0.3833
28666SOL    HW289404   3.008   0.951   3.443  1.1357  0.7059 -0.1086
28667SOL     OW89405   5.797   7.589   7.382  0.6994 -0.1278 -0.5490
28667SOL    HW189406   5.720   7.532   7.386 -0.3875  1.3201 -0.4252
28667SOL    HW289407   5.866   7.539   7.426 -0.9995 -0.2031  2.1253
28668SOL     OW89408   2.240   5.340   1.133  0.2515 -0.3972 -0.5330
28668SOL    HW189409   2.263   5.273   1.069  0.8005 -1.6518  0.9531
28668SOL    HW289410   2.145   5.331   1.144  0.3460 -1.0486 -0.2224
28669SOL     OW89411   7.258   9.490   9.247 -0.1878 -0.5313  0.6603
28669SOL    HW189412   7.182   9.531   9.205  0.4808  0.7202  0.6507
28669SOL    HW289413   7.309   9.455   9.174  1.6075  2.7280  0.2523
28670SOL     OW89414   4.447   5.729  10.602 -0.5093  0.4670  0.0046
28670SOL    HW189415   4.521   5.782  10.632  0.2195  0.5264 -1.8197
28670SOL    HW289416   4.421   5.679  10.679  0.5481  1.4632  1.0363
28671SOL     OW89417   2.867   8.765  10.535  0.4002  0.3634  0.1427
28671SOL    HW189418   2.940   8.703  10.534  0.0600 -0.0441  0.1414
28671SOL    HW289419   2.873   8.808  10.620  1.2195  1.0281 -0.2423
28672SOL     OW89420   2.098   7.689   8.234 -0.4172 -0.4570  0.1636
28672SOL    HW189421   2.092   7.609   8.285 -0.2821  0.4521  1.6385
28672SOL    HW289422   2.146   7.663   8.155  1.6339 -1.3527  1.6537
28673SOL     OW89423   6.675   2.513   3.399 -0.2264  0.0701 -0.0537
28673SOL    HW189424   6.678   2.431   3.448  2.3654  1.1616  1.7351
28673SOL    HW289425   6.653   2.580   3.464 -1.0988  0.9762 -1.2551
28674SOL     OW89426   4.161   2.758   9.118  0.8285  0.3202  0.3019
28674SOL    HW189427   4.140   2.769   9.211 -0.0703 -0.9820  0.2532
28674SOL    HW289428   4.149   2.665   9.101  1.0601  0.5371 -1.1157
28675SOL     OW89429   7.845  10.488   5.216 -0.4713 -0.4286  0.2615
28675SOL    HW189430   7.839  10.393   5.216 -0.9389 -0.4092  2.1028
28675SOL    HW289431   7.857  10.512   5.308 -2.7923  1.4104  0.1287
28676SOL     OW89432   0.293   7.229   6.838  0.2839 -0.1929  0.0908
28676SOL    HW189433   0.293   7.294   6.908  1.2935 -0.2768  0.1842
28676SOL    HW289434   0.206   7.189   6.842 -0.0688  0.5998  0.5427
28677SOL     OW89435   6.488   9.405   8.839 -0.0398 -0.1891  0.1651
28677SOL    HW189436   6.545   9.473   8.802  1.3901  0.0204  2.6492
28677SOL    HW289437   6.470   9.347   8.765  1.6176  0.9620 -1.1931
28678SOL     OW89438   4.409   2.005   0.240 -0.1454 -0.2280 -0.2402
28678SOL    HW189439   4.467   1.954   0.296 -1.1671 -0.1317  0.9441
28678SOL    HW289440   4.342   1.943   0.211 -1.6586  0.4875  1.5795
28679SOL     OW89441   7.503   3.893   4.742  0.4194 -0.2498  0.5110
28679SOL    HW189442   7.416   3.856   4.727  0.3080  1.0730 -2.4262
28679SOL    HW289443   7.562   3.834   4.696  0.9902 -0.5781  1.6481
28680SOL     OW89444   3.804  10.751   5.401  0.1560  0.0899  0.2202
28680SOL    HW189445   3.852  10.752   5.484  1.5036 -0.3510 -0.5363
28680SOL    HW289446   3.796  10.844   5.377 -1.5560  0.3164  1.5618
28681SOL     OW89447   5.977   8.555   0.093 -0.0772 -0.6716  0.3205
28681SOL    HW189448   5.982   8.491   0.022  0.0734 -1.5760  1.1328
28681SOL    HW289449   6.052   8.534   0.149 -1.5522 -1.5490  2.0498
28682SOL     OW89450   8.614   8.735   8.991 -0.9650  1.0644 -0.0589
28682SOL    HW189451   8.708   8.750   8.993 -0.5512 -1.4962  1.4064
28682SOL    HW289452   8.591   8.737   8.898  0.8668 -0.1982 -0.5581
28683SOL     OW89453   1.182   6.432   9.600 -0.7447  0.0474 -0.5134
28683SOL    HW189454   1.241   6.367   9.639 -0.2403  0.4173 -0.6544
28683SOL    HW289455   1.215   6.516   9.633 -1.7207  0.1983  0.1103
28684SOL     OW89456   6.352  10.410   8.848  0.2194 -0.1608 -0.0413
28684SOL    HW189457   6.418  10.462   8.893 -0.1924 -0.5394  1.0183
28684SOL    HW289458   6.287  10.390   8.916 -1.2161  0.5870 -1.1721
28685SOL     OW89459   0.321   8.832   6.145  0.1558  0.0380  0.5351
28685SOL    HW189460   0.382   8.828   6.071 -1.2111  1.9824 -0.7260
28685SOL    HW289461   0.234   8.833   6.106 -0.6235  0.3911  2.2035
28686SOL     OW89462   0.660   4.433   5.876 -0.1564  0.6039 -0.1844
28686SOL    HW189463   0.669   4.416   5.970 -0.3088 -0.3022 -0.3274
28686SOL    HW289464   0.674   4.527   5.867 -0.8709  0.8146  0.8364
28687SOL     OW89465   0.292   4.819   4.086 -0.4258  0.2372  0.1982
28687SOL    HW189466   0.294   4.723   4.096  2.5981  0.3006  0.6112
28687SOL    HW289467   0.340   4.836   4.005  0.7465  1.4949  1.1295
28688SOL     OW89468   4.008   0.370   2.308  0.5072 -0.1629  0.3281
28688SOL    HW189469   4.101   0.377   2.326  0.5687 -1.7957  0.6927
28688SOL    HW289470   3.966   0.425   2.374  1.1256 -0.6923  1.1584
28689SOL     OW89471   9.000   4.842   7.563 -0.5293  0.4690 -0.8484
28689SOL    HW189472   9.039   4.758   7.540  0.3874  0.7305 -0.2531
28689SOL    HW289473   8.905   4.825   7.560 -0.3478 -0.9171  0.5195
28690SOL     OW89474   3.291   4.926   8.305  0.1100  0.0963  0.3987
28690SOL    HW189475   3.300   4.834   8.331  1.6174 -0.0875 -0.7205
28690SOL    HW289476   3.306   4.926   8.210 -1.5496  1.2771  0.1172
28691SOL     OW89477  10.724   2.727   6.942 -0.2864 -0.0849  0.0541
28691SOL    HW189478  10.739   2.812   6.983 -0.0797 -1.1047  2.1352
28691SOL    HW289479  10.812   2.693   6.925 -0.3682 -0.0037 -0.5647
28692SOL     OW89480   0.752   9.660   4.803 -0.3473 -0.2566 -0.3386
28692SOL    HW189481   0.738   9.754   4.798 -2.2020 -0.4996 -0.0924
28692SOL    HW289482   0.701   9.624   4.730  1.7571 -0.9546 -1.5165
28693SOL     OW89483   0.041   5.843   2.414 -0.5321  0.4721  0.2214
28693SOL    HW189484  -0.017   5.789   2.467 -2.2379  0.5018 -1.5673
28693SOL    HW289485   0.041   5.928   2.458 -0.6936  0.0615  1.0291
28694SOL     OW89486   9.076   4.578   7.480  0.1965  0.6800  0.0893
28694SOL    HW189487   9.055   4.593   7.388  0.9399 -1.6747 -0.5075
28694SOL    HW289488   9.005   4.522   7.512  0.6805  0.3134  0.5413
28695SOL     OW89489   9.977   8.155   2.967 -0.0681  0.2545 -0.5575
28695SOL    HW189490   9.893   8.111   2.955  0.5658 -0.7043 -1.6399
28695SOL    HW289491  10.000   8.139   3.058 -0.1038 -1.2003 -0.7942
28696SOL     OW89492  10.922   3.959   9.840 -0.2870 -0.5924 -0.1827
28696SOL    HW189493  10.913   4.041   9.792  3.3348  1.6306  2.6530
28696SOL    HW289494  10.834   3.940   9.873 -1.1645  2.1698 -0.8575
28697SOL     OW89495   7.394   2.895   5.179 -0.4881 -0.0709 -0.0625
28697SOL    HW189496   7.473   2.942   5.151  0.3681 -1.5051 -0.1253
28697SOL    HW289497   7.364   2.943   5.256  0.3715  0.5840 -0.1238
28698SOL     OW89498   1.446   6.938   1.179 -0.7818 -0.2647 -0.5707
28698SOL    HW189499   1.378   6.881   1.142 -1.3929 -0.2902  0.5653
28698SOL    HW289500   1.401   6.988   1.247 -0.7439  3.1601 -2.9666
28699SOL     OW89501   4.069   4.402   9.189 -0.2965  0.0845 -0.6528
28699SOL    HW189502   4.155   4.370   9.162 -0.3529 -0.0120 -0.7209
28699SOL    HW289503   4.084   4.492   9.215 -0.2229  0.1466 -0.9075
28700SOL     OW89504   6.275   2.961   5.137  0.1182 -0.1478  0.2832
28700SOL    HW189505   6.246   2.870   5.130 -1.6465  0.3960  0.5057
28700SOL    HW289506   6.297   2.986   5.047  1.9991 -1.2297  0.4158
28701SOL     OW89507   7.187   3.472   2.374  0.0314  0.3625  0.3635
28701SOL    HW189508   7.199   3.378   2.370  0.2240  0.1798  3.5262
28701SOL    HW289509   7.250   3.508   2.313  0.5393 -1.5219 -0.2424
28702SOL     OW89510   3.619   4.121  10.720 -0.4459  0.3634  0.1903
28702SOL    HW189511   3.663   4.054  10.667  0.6199  1.6795 -0.6117
28702SOL    HW289512   3.689   4.159  10.774 -0.7534  1.8482 -0.4357
28703SOL     OW89513   1.712   7.187   6.890 -0.7291  0.4534  0.0110
28703SOL    HW189514   1.677   7.237   6.816 -0.2914  0.8263  0.0509
28703SOL    HW289515   1.640   7.184   6.953 -1.1941 -0.0916 -0.5362
28704SOL     OW89516   9.909   8.161   0.703 -0.1113 -0.2136  0.0050
28704SOL    HW189517   9.896   8.192   0.613  0.0216 -1.9445 -0.6291
28704SOL    HW289518   9.957   8.232   0.746 -2.2501  1.6633 -0.5982
28705SOL     OW89519   6.869   5.912   6.407  0.6717  0.0980 -0.6499
28705SOL    HW189520   6.851   5.995   6.452  0.6686  0.5220 -1.4152
28705SOL    HW289521   6.791   5.859   6.422  1.3878 -0.4433  1.3243
28706SOL     OW89522  10.558   4.209   1.670  0.2985 -0.3324  0.2291
28706SOL    HW189523  10.581   4.302   1.667  0.4909 -0.2608  2.5459
28706SOL    HW289524  10.477   4.203   1.620  0.9998  0.8384 -1.0870
28707SOL     OW89525   9.889   1.925   6.793 -0.4086  0.2483 -0.6058
28707SOL    HW189526   9.960   1.887   6.741 -1.8115 -1.5897 -1.2361
28707SOL    HW289527   9.875   2.012   6.754 -2.0917 -1.4740 -3.9932
28708SOL     OW89528   6.814   1.803   0.167 -1.0139  0.4214  0.6511
28708SOL    HW189529   6.834   1.894   0.191  1.5422  0.1823 -0.3593
28708SOL    HW289530   6.738   1.809   0.110 -0.9664  1.9125  0.7186
28709SOL     OW89531   6.394   2.719   9.582  0.4734 -0.0245 -0.5098
28709SOL    HW189532   6.375   2.764   9.665  2.2437 -1.7456  0.8845
28709SOL    HW289533   6.414   2.789   9.521 -0.9941  1.2917  0.4735
28710SOL     OW89534   3.860   5.950   9.315  0.8132  0.1894  0.6203
28710SOL    HW189535   3.927   5.929   9.380  0.9703  0.3597  0.5153
28710SOL    HW289536   3.906   5.947   9.231  0.4181 -0.8743  0.4326
28711SOL     OW89537   0.856   5.213   1.314  0.1022  0.0050  0.0734
28711SOL    HW189538   0.906   5.149   1.364 -2.2657 -1.1261  1.0260
28711SOL    HW289539   0.791   5.246   1.375 -0.7876  0.9251 -1.3565
28712SOL     OW89540  10.044   4.144   7.219  0.9725  0.1230 -0.3190
28712SOL    HW189541   9.993   4.179   7.145 -1.9866 -3.3393 -0.0601
28712SOL    HW289542  10.115   4.095   7.177 -0.0155 -0.8588 -0.8698
28713SOL     OW89543   7.617   3.182   9.376 -0.3830  0.3276 -0.8101
28713SOL    HW189544   7.565   3.259   9.402 -0.5490 -0.3152  0.8391
28713SOL    HW289545   7.669   3.162   9.454  1.6008  0.3275 -2.0896
28714SOL     OW89546   6.095   0.174   4.389 -0.0566  0.4565  0.6604
28714SOL    HW189547   6.077   0.150   4.298 -0.7476 -1.2871  1.2330
28714SOL    HW289548   6.069   0.097   4.440  1.5995  0.8912  2.2236
28715SOL     OW89549   8.496   7.079   6.788  0.1118  0.1681 -0.0075
28715SOL    HW189550   8.526   7.026   6.862 -1.2209 -1.2505 -0.4589
28715SOL    HW289551   8.449   7.152   6.828 -1.4945 -1.1476  0.5404
28716SOL     OW89552   3.304   0.833   4.309 -0.2589 -0.0155 -0.0807
28716SOL    HW189553   3.232   0.782   4.272  1.0824 -0.9090 -1.5592
28716SOL    HW289554   3.357   0.769   4.357  2.5251 -0.5214 -3.6026
28717SOL     OW89555   4.605   0.234   2.950 -0.1110  0.2105 -0.8069
28717SOL    HW189556   4.599   0.248   3.045 -0.2601  0.1228 -0.8035
28717SOL    HW289557   4.523   0.191   2.927  1.5480 -3.3538 -0.3256
28718SOL     OW89558   2.954   2.487   8.721  0.0178 -0.0762 -0.5433
28718SOL    HW189559   2.893   2.550   8.682 -1.4350 -0.7391  0.5860
28718SOL    HW289560   3.027   2.540   8.751 -1.4255  1.1636  0.8841
28719SOL     OW89561  10.546   4.261   3.028 -0.2999  0.3848  0.3041
28719SOL    HW189562  10.641   4.262   3.026 -0.1836  1.3473  3.3541
28719SOL    HW289563  10.520   4.352   3.017 -0.8323  0.2470  0.3632
28720SOL     OW89564   7.481   4.967   2.841  0.0637 -0.0065 -0.4955
28720SOL    HW189565   7.396   5.006   2.818 -1.0413 -2.4737 -0.7684
28720SOL    HW289566   7.545   5.022   2.796 -1.4916  0.9973 -1.5570
28721SOL     OW89567  10.471   6.022   9.722  0.5513  0.2430  0.1472
28721SOL    HW189568  10.565   6.022   9.739  1.1751 -0.1400 -2.8716
28721SOL    HW289569  10.460   5.958   9.651 -2.0065  0.1825  0.5410
28722SOL     OW89570   7.376   1.347   7.224  0.0016 -0.1836 -0.0055
28722SOL    HW189571   7.449   1.401   7.195  0.6517 -1.9474 -1.7942
28722SOL    HW289572   7.407   1.305   7.305  0.1940  0.6496  0.3560
28723SOL     OW89573   2.552   3.475   8.621 -0.3169  0.4245  0.3858
28723SOL    HW189574   2.466   3.454   8.585 -0.6957  2.0634  0.2994
28723SOL    HW289575   2.545   3.566   8.650  1.4196  0.6161  0.2716
28724SOL     OW89576   6.977   1.156   8.786  0.7267 -0.0945  0.0404
28724SOL    HW189577   6.891   1.115   8.784 -0.4359  2.2241  0.6773
28724SOL    HW289578   7.036   1.085   8.811 -1.1141 -1.5223  0.4931
28725SOL     OW89579  10.896   2.491   0.436 -0.0414  0.7567 -0.4346
28725SOL    HW189580  10.847   2.520   0.513  0.8793  0.8474  0.1268
28725SOL    HW289581  10.832   2.446   0.382 -0.0407 -2.3644  2.0043
28726SOL     OW89582   6.098   8.975   3.545 -0.1837 -0.6438 -0.0306
28726SOL    HW189583   6.034   8.947   3.480 -0.9614  0.7231  0.1239
28726SOL    HW289584   6.121   8.895   3.593 -2.6078 -0.9716  0.6350
28727SOL     OW89585   5.382   1.954   6.519 -0.1225  0.0014  0.4908
28727SOL    HW189586   5.360   1.875   6.568  0.7285 -0.3409  0.3478
28727SOL    HW289587   5.444   2.000   6.575  1.0524 -0.5191 -0.3455
28728SOL     OW89588  10.571   4.403   9.436 -0.1928 -0.1605  0.2138
28728SOL    HW189589  10.540   4.352   9.361  0.7611  1.4553 -1.3119
28728SOL    HW289590  10.507   4.474   9.445 -0.2047 -0.2467  0.8225
28729SOL     OW89591   7.058   4.645   0.410 -0.3402  0.0400  0.4877
28729SOL    HW189592   7.113   4.593   0.351 -1.5455  0.5113 -1.0693
28729SOL    HW289593   7.091   4.735   0.400 -1.6647  0.3965 -0.7948
28730SOL     OW89594   4.465  10.038   5.282 -0.5354 -0.0052 -0.2433
28730SOL    HW189595   4.523  10.109   5.310 -1.8687  0.8766  0.3157
28730SOL    HW289596   4.389  10.044   5.339  0.3717 -3.4479  1.4550
28731SOL     OW89597   9.283   4.063   1.548 -0.2149 -0.4535  0.5494
28731SOL    HW189598   9.247   4.004   1.615  0.9244 -1.1931  0.5126
28731SOL    HW289599   9.326   4.005   1.485  3.1244  0.5268  1.8215
28732SOL     OW89600   1.154   9.435  10.245  0.3403 -0.0262  0.1975
28732SOL    HW189601   1.118   9.524  10.244  0.2124 -0.0747  0.5350
28732SOL    HW289602   1.117   9.394  10.167 -2.0426 -0.7360  1.6232
28733SOL     OW89603   1.034   3.241   6.238 -0.2103  0.2197  0.1644
28733SOL    HW189604   1.115   3.290   6.222  0.6932 -1.3117 -0.0149
28733SOL    HW289605   1.054   3.152   6.210 -1.4908 -0.4926  1.4762
28734SOL     OW89606   3.799  10.797   4.844 -0.4634  0.1335 -0.3431
28734SOL    HW189607   3.894  10.805   4.854 -0.4199  0.7291 -1.1511
28734SOL    HW289608   3.765  10.792   4.933  0.4791 -1.9169 -0.0686
28735SOL     OW89609   0.411   4.349   2.056  0.0621  0.1965 -0.2331
28735SOL    HW189610   0.411   4.367   2.149  0.1072 -0.2628 -0.1426
28735SOL    HW289611   0.439   4.258   2.049 -1.3642 -0.2205 -0.6029
28736SOL     OW89612   6.147  10.328   9.000 -0.5929  0.2285  0.2481
28736SOL    HW189613   6.083  10.399   8.996 -0.8916 -0.1215 -1.2509
28736SOL    HW289614   6.159  10.313   9.094 -0.9352  1.8809  0.5751
28737SOL     OW89615   7.904   4.233   5.867 -0.3369  0.8756 -0.7897
28737SOL    HW189616   7.968   4.287   5.914 -0.7896 -0.4971  1.4316
28737SOL    HW289617   7.842   4.296   5.830 -1.1640  1.8666  2.2105
28738SOL     OW89618   4.239   0.910   6.913 -0.0967 -0.2741  0.2788
28738SOL    HW189619   4.334   0.922   6.906  0.2198 -2.6837 -0.0140
28738SOL    HW289620   4.208   0.908   6.822 -0.4731  0.7817  0.3789
28739SOL     OW89621  10.344   8.771   3.926  0.1572 -0.0421  0.4670
28739SOL    HW189622  10.375   8.681   3.927 -1.9528 -0.7976  0.3349
28739SOL    HW289623  10.248   8.764   3.928 -0.0858  2.1420 -1.3634
28740SOL     OW89624  10.774   2.247   9.807 -0.7856 -0.0344  0.3899
28740SOL    HW189625  10.692   2.259   9.855  0.0940  2.5304  1.2767
28740SOL    HW289626  10.754   2.278   9.718 -1.5010 -1.8578 -0.1120
28741SOL     OW89627   9.719   7.357   1.725  0.9462  0.2198  0.2673
28741SOL    HW189628   9.705   7.444   1.763  1.7087 -0.1328  1.3824
28741SOL    HW289629   9.805   7.331   1.758  1.9570  0.2008 -2.3023
28742SOL     OW89630   8.236  10.787   2.529 -0.9303  0.3064  0.1604
28742SOL    HW189631   8.255  10.876   2.561 -0.5289 -0.2032  1.3576
28742SOL    HW289632   8.315  10.761   2.481  0.0734 -0.4706  2.1865
28743SOL     OW89633   9.722   4.160   8.669 -0.2953  0.3457  0.3514
28743SOL    HW189634   9.777   4.093   8.709 -1.2836 -0.6694  0.0567
28743SOL    HW289635   9.773   4.192   8.595 -0.4023 -1.1483 -0.3893
28744SOL     OW89636   9.637   7.157   3.982 -0.3130 -0.3112  0.0628
28744SOL    HW189637   9.601   7.090   4.040  2.5311 -2.1398 -0.1412
28744SOL    HW289638   9.639   7.115   3.896 -0.6005  0.8605 -0.5242
28745SOL     OW89639   4.362   4.408   7.712  0.3622  0.1516 -0.0782
28745SOL    HW189640   4.283   4.456   7.736  0.5414  0.6046 -0.3845
28745SOL    HW289641   4.370   4.420   7.617  0.7807  0.0849 -0.0532
28746SOL     OW89642   5.886   6.778   1.160  0.5833  0.2005  0.1101
28746SOL    HW189643   5.918   6.791   1.070  0.1598  3.1159  0.3558
28746SOL    HW289644   5.791   6.776   1.151  0.5719 -0.5693  0.3773
28747SOL     OW89645   8.545   5.319   7.533  0.1766  0.1804  0.0179
28747SOL    HW189646   8.462   5.317   7.487 -0.2271 -1.4842  0.7941
28747SOL    HW289647   8.524   5.292   7.623  1.6597 -1.0327  0.0190
28748SOL     OW89648   5.734   4.976   5.612  0.7127  0.4265 -0.2303
28748SOL    HW189649   5.715   5.048   5.552  0.6763  0.5104 -0.1178
28748SOL    HW289650   5.779   5.017   5.685 -0.7051  0.5677  0.5684
28749SOL     OW89651   7.393   1.387   3.910 -0.0118  0.1294 -0.1713
28749SOL    HW189652   7.467   1.443   3.886  0.1862 -1.1032 -2.5389
28749SOL    HW289653   7.412   1.359   4.000  0.8672  2.2419  0.3160
28750SOL     OW89654   4.381   5.133   4.876  0.0293 -0.4454 -0.5585
28750SOL    HW189655   4.406   5.048   4.912  1.8810  1.2487  2.3707
28750SOL    HW289656   4.298   5.154   4.918  1.5148  0.9125  1.7988
28751SOL     OW89657   5.610   5.480   1.608  0.0197  0.6908  0.1635
28751SOL    HW189658   5.617   5.455   1.516 -0.6223  1.0409  0.0110
28751SOL    HW289659   5.700   5.480   1.641  0.2103  0.2147 -0.3717
28752SOL     OW89660  10.541   6.960  10.406  0.0872  0.0075  0.4219
28752SOL    HW189661  10.604   6.916  10.349 -0.0733 -0.2838  0.4716
28752SOL    HW289662  10.595   7.013  10.464  0.2246  0.7549 -0.3746
28753SOL     OW89663   4.527   1.098   3.192  0.3305 -0.1545 -0.3511
28753SOL    HW189664   4.574   1.156   3.132  0.8380 -0.9660 -0.7461
28753SOL    HW289665   4.481   1.036   3.134 -0.2607 -0.1013  0.0613
28754SOL     OW89666   3.135   2.821   7.888  0.1575 -0.1057 -0.1658
28754SOL    HW189667   3.050   2.856   7.861 -0.8761 -3.1417 -1.0531
28754SOL    HW289668   3.165   2.771   7.812 -0.5186 -4.7327  2.4396
28755SOL     OW89669   4.545   9.757   0.378 -0.0945 -0.4823  0.2960
28755SOL    HW189670   4.470   9.762   0.438  0.3810 -2.0230  1.0507
28755SOL    HW289671   4.506   9.736   0.293 -0.5541 -0.8948  0.6060
28756SOL     OW89672   8.108   0.976  10.820 -0.0437 -0.0602 -0.1344
28756SOL    HW189673   8.162   0.935  10.753 -0.0856  0.2667 -0.3703
28756SOL    HW289674   8.166   0.983  10.896  0.0744 -0.2228 -0.2089
28757SOL     OW89675   3.852   2.283   8.634 -0.1231 -0.4757 -0.2900
28757SOL    HW189676   3.824   2.199   8.600 -2.1140 -0.4876  1.2728
28757SOL    HW289677   3.842   2.344   8.560 -0.3653 -1.2667 -0.9104
28758SOL     OW89678   7.943   1.780   3.839 -0.4376  0.1679 -0.0500
28758SOL    HW189679   7.973   1.787   3.749 -0.6635  1.4034 -0.0409
28758SOL    HW289680   7.879   1.851   3.849  1.1038  1.3798  1.6819
28759SOL     OW89681   3.993   4.553  10.607 -0.5531 -0.2658 -0.2085
28759SOL    HW189682   3.926   4.524  10.545  0.3473 -0.5199 -1.0671
28759SOL    HW289683   3.946   4.612  10.666 -2.5432 -3.6658  1.8204
28760SOL     OW89684   8.327   2.949   0.323 -0.0432 -0.2892  0.1858
28760SOL    HW189685   8.355   3.014   0.388 -3.1152  0.2921  0.9965
28760SOL    HW289686   8.380   2.872   0.342  0.3672  0.4525  2.2499
28761SOL     OW89687   3.672   7.427   4.109  0.1020 -0.7500 -0.2927
28761SOL    HW189688   3.597   7.476   4.075 -0.0537 -1.2626 -0.6945
28761SOL    HW289689   3.741   7.441   4.044 -0.6249 -2.8806 -1.5682
28762SOL     OW89690   7.185   6.590   9.446 -0.0172 -0.2889 -0.2070
28762SOL    HW189691   7.251   6.611   9.512 -0.8829  0.9575  0.2706
28762SOL    HW289692   7.220   6.513   9.401  0.4456 -1.3584  1.9023
28763SOL     OW89693   7.270   0.751   7.402 -0.8040 -0.3724 -0.5576
28763SOL    HW189694   7.196   0.804   7.431 -0.5176 -0.8920  1.1905
28763SOL    HW289695   7.263   0.669   7.451  0.5396 -0.6923 -0.8632
28764SOL     OW89696   3.725   5.975   6.467  0.3787  0.0358  0.3736
28764SOL    HW189697   3.675   6.003   6.390  1.1616 -1.4276 -0.6789
28764SOL    HW289698   3.791   6.043   6.479  0.1021  0.3878 -0.1025
28765SOL     OW89699   9.104   8.718   7.894  0.1397  0.3195 -0.3972
28765SOL    HW189700   9.131   8.715   7.802 -0.0887  0.3177 -0.4644
28765SOL    HW289701   9.118   8.629   7.926  0.0093  0.2629 -0.4926
28766SOL     OW89702   9.817   1.431   0.737  0.3774 -0.2531  0.2254
28766SOL    HW189703   9.741   1.455   0.685  1.4359  0.8525 -0.8363
28766SOL    HW289704   9.799   1.467   0.824  0.1636  0.9747 -0.3149
28767SOL     OW89705   5.127   4.717   2.928 -0.1727 -0.1422  0.1803
28767SOL    HW189706   5.153   4.628   2.950 -0.5732 -0.4466 -0.5601
28767SOL    HW289707   5.191   4.746   2.863  0.0254  0.1483  0.5063
28768SOL     OW89708  10.123   1.628   9.350  0.9753  0.3782  0.2026
28768SOL    HW189709  10.093   1.648   9.439 -0.0180 -1.8317  0.3883
28768SOL    HW289710  10.216   1.608   9.360  0.7478 -0.3709  0.8221
28769SOL     OW89711   6.806   3.778   3.073  0.1751  0.2215  0.5077
28769SOL    HW189712   6.767   3.752   3.156  0.6259  0.5897  0.8337
28769SOL    HW289713   6.798   3.700   3.018 -3.2065  1.0087 -0.2545
28770SOL     OW89714   5.255   5.978   1.108 -0.6282 -0.5954 -0.3918
28770SOL    HW189715   5.315   5.916   1.149  0.9143  1.1001 -0.0059
28770SOL    HW289716   5.222   5.933   1.031  1.0438 -1.6121 -0.5369
28771SOL     OW89717   7.680   8.673  10.003  0.2460  0.3562  0.3063
28771SOL    HW189718   7.593   8.660  10.041  0.1480  3.0701  1.1069
28771SOL    HW289719   7.740   8.638  10.069 -0.0907  1.7697  1.3821
28772SOL     OW89720   1.851   1.243   7.387  0.3996  0.2808  0.0061
28772SOL    HW189721   1.899   1.261   7.306 -0.9412  0.8668 -0.6709
28772SOL    HW289722   1.918   1.245   7.455  1.5572 -0.3072 -1.0957
28773SOL     OW89723   6.527   6.366   0.911 -0.8823  0.3482 -0.6196
28773SOL    HW189724   6.435   6.389   0.901 -0.7420  1.4139  0.4711
28773SOL    HW289725   6.539   6.355   1.005  0.4282  1.5928 -0.6231
28774SOL     OW89726   9.435   4.537   6.324 -0.1751 -0.4293  0.4680
28774SOL    HW189727   9.359   4.495   6.284 -0.2632 -0.0498  0.2309
28774SOL    HW289728   9.495   4.465   6.342  0.4351 -0.4661 -1.5755
28775SOL     OW89729  10.472   9.924   9.659 -0.0157 -0.3208 -0.1670
28775SOL    HW189730  10.470   9.833   9.632  0.0294 -0.6182  0.8197
28775SOL    HW289731  10.541   9.928   9.725 -0.6614  0.2408  0.4798
28776SOL     OW89732   8.302   0.447   7.412  0.2790 -0.6167  0.1305
28776SOL    HW189733   8.367   0.517   7.413 -0.5310  0.1536 -0.3441
28776SOL    HW289734   8.348   0.371   7.375  1.6342 -0.8242  2.1953
28777SOL     OW89735   2.348  10.847  10.053 -0.6096  0.1978 -0.0094
28777SOL    HW189736   2.393  10.786  10.111 -1.9835  0.1063  0.9742
28777SOL    HW289737   2.335  10.925  10.106  2.7850  2.1328 -1.7874
28778SOL     OW89738   3.684   2.488   2.881 -0.0745 -0.2508  0.1496
28778SOL    HW189739   3.702   2.494   2.787  1.3253 -0.1514  0.4250
28778SOL    HW289740   3.592   2.462   2.885 -0.6444  1.4108 -1.2354
28779SOL     OW89741   5.973   5.359  10.404 -0.2918 -0.2248  0.7000
28779SOL    HW189742   5.909   5.386  10.338 -0.1549  2.2615  1.5332
28779SOL    HW289743   5.929   5.374  10.487  1.2324  1.2647  1.2789
28780SOL     OW89744   6.553   8.507   6.331  0.7537  0.3705  0.1500
28780SOL    HW189745   6.564   8.552   6.414 -1.7100 -0.0482  0.7639
28780SOL    HW289746   6.539   8.577   6.267  1.2012  0.6328  0.3378
28781SOL     OW89747   2.185   8.418   2.085  0.3428  0.5330 -0.2022
28781SOL    HW189748   2.160   8.410   2.177 -2.8726 -1.8029 -1.1704
28781SOL    HW289749   2.171   8.510   2.064 -3.7653  0.1553  0.4549
28782SOL     OW89750   7.408   0.043   1.420 -0.5322 -0.4652  0.3447
28782SOL    HW189751   7.502   0.031   1.405 -0.3185  0.9310  0.4286
28782SOL    HW289752   7.365  -0.012   1.355  0.3724  0.5888 -1.1837
28783SOL     OW89753   7.863   7.988  10.101 -0.1756  0.3303 -0.0544
28783SOL    HW189754   7.915   7.949  10.031  1.9737  0.6367  1.3144
28783SOL    HW289755   7.858   7.919  10.167  0.7518  1.1965  0.9365
28784SOL     OW89756  10.881   9.298   5.821  0.6869 -0.1805  0.2502
28784SOL    HW189757  10.916   9.359   5.886  1.4845  0.1541 -0.4900
28784SOL    HW289758  10.846   9.355   5.752  0.9028 -0.5583 -0.1654
28785SOL     OW89759   7.104   2.000   0.400 -0.4267 -0.8643  0.0071
28785SOL    HW189760   7.063   2.083   0.375  1.5026  0.2850  0.5292
28785SOL    HW289761   7.081   1.988   0.492  0.4865 -0.1434  0.3424
28786SOL     OW89762   7.400   4.537   4.787  0.5445  0.5057  0.1809
28786SOL    HW189763   7.328   4.600   4.790  1.7049  1.8638 -0.0597
28786SOL    HW289764   7.476   4.585   4.818  1.3067 -0.9992  0.6999
28787SOL     OW89765   8.450   8.176   7.319 -0.0319 -0.7596  0.5454
28787SOL    HW189766   8.417   8.112   7.383 -1.1804  0.1324  0.8649
28787SOL    HW289767   8.385   8.176   7.249 -0.0962  0.1081  0.5927
28788SOL     OW89768   5.671   8.073   2.213 -0.3000  0.1184 -0.0284
28788SOL    HW189769   5.715   8.051   2.295  0.2985  0.1326 -0.3430
28788SOL    HW289770   5.712   8.017   2.147  0.4418  1.3069 -0.6241
28789SOL     OW89771   0.106   0.171   2.074 -0.2972  0.3933  0.3777
28789SOL    HW189772   0.138   0.237   2.012  1.9403 -1.6933 -0.7800
28789SOL    HW289773   0.023   0.142   2.037 -0.6885  1.6780  0.2326
28790SOL     OW89774   5.311   2.055   8.284 -0.5364  0.1551 -0.0421
28790SOL    HW189775   5.219   2.076   8.268 -0.4748  1.8522  1.6305
28790SOL    HW289776   5.359   2.107   8.220 -0.7306 -1.1817 -1.3134
28791SOL     OW89777   2.483   0.569   0.418 -0.1009  0.2041 -0.7473
28791SOL    HW189778   2.417   0.608   0.361 -0.6305  0.4370  0.0310
28791SOL    HW289779   2.555   0.547   0.358 -1.6637 -1.8956 -1.9385
28792SOL     OW89780   1.835   8.161   8.607 -0.1771  0.0969 -0.2019
28792SOL    HW189781   1.926   8.149   8.581  0.4189 -1.1026  2.2197
28792SOL    HW289782   1.789   8.086   8.569  0.2426 -0.3666  0.1840
28793SOL     OW89783   1.013   9.033   2.100  0.2542  0.3634  0.7189
28793SOL    HW189784   1.003   9.115   2.051  1.5649  0.1732  0.1128
28793SOL    HW289785   0.928   9.020   2.142 -1.0840  0.3048 -1.8792
28794SOL     OW89786  10.232   6.740   9.573  0.0581 -0.0647  0.0260
28794SOL    HW189787  10.292   6.719   9.501  1.7805 -0.7215  1.5852
28794SOL    HW289788  10.284   6.796   9.631 -0.5939 -1.2044  1.7564
28795SOL     OW89789   0.995   6.288   5.841 -0.3284  0.4520  0.1142
28795SOL    HW189790   1.035   6.294   5.755 -1.2528 -0.1623 -0.3762
28795SOL    HW289791   0.903   6.312   5.826 -0.8296 -1.0328  0.6462
28796SOL     OW89792  10.353   5.056   2.807 -0.5810 -0.4115 -0.2750
28796SOL    HW189793  10.310   5.086   2.728 -1.2279 -1.9557 -0.5133
28796SOL    HW289794  10.445   5.077   2.794 -0.8527  0.3514 -0.9533
28797SOL     OW89795   4.186   3.914  10.880 -0.7772 -0.2485  0.1910
28797SOL    HW189796   4.184   3.939  10.788 -1.0903  0.3632  0.3647
28797SOL    HW289797   4.179   3.996  10.928  0.0812 -0.5050  0.7701
28798SOL     OW89798   6.000   7.702   2.692 -0.1186 -0.2705 -0.2324
28798SOL    HW189799   6.011   7.736   2.603 -2.4941  1.9400  0.2586
28798SOL    HW289800   6.081   7.725   2.736 -0.1989  1.5152 -0.9601
28799SOL     OW89801   6.934   8.900   6.507 -0.4236  0.4481 -0.3347
28799SOL    HW189802   6.936   8.806   6.527 -1.8780  0.2951 -0.8440
28799SOL    HW289803   6.890   8.906   6.423  0.0514  1.5641 -0.5100
28800SOL     OW89804   1.430   4.391   4.723 -0.3572 -0.4261  0.0087
28800SOL    HW189805   1.371   4.375   4.796 -0.0882 -0.8959  0.1275
28800SOL    HW289806   1.422   4.485   4.706  2.2886  0.4473  3.0345
28801SOL     OW89807   7.367   4.728   1.731  0.7265 -0.0229  0.0202
28801SOL    HW189808   7.333   4.755   1.816  0.2517 -0.9557  0.1292
28801SOL    HW289809   7.431   4.796   1.708 -0.5356  1.2644  0.2243
28802SOL     OW89810   6.738   4.583   2.569 -0.4007 -0.1228  0.3505
28802SOL    HW189811   6.794   4.651   2.531  0.2501  0.4092  2.2118
28802SOL    HW289812   6.772   4.501   2.533  0.3210  0.3440 -0.0512
28803SOL     OW89813   6.752   2.507   2.650 -0.0518  0.5000  0.4276
28803SOL    HW189814   6.672   2.514   2.701 -1.8721 -1.5128 -2.0021
28803SOL    HW289815   6.749   2.580   2.589 -0.6754 -0.2402 -0.4506
28804SOL     OW89816   6.513   0.346   2.826 -0.2855 -0.0248 -0.3449
28804SOL    HW189817   6.455   0.287   2.874  0.8584 -0.9210 -0.0407
28804SOL    HW289818   6.572   0.381   2.892  0.2689 -0.0357 -0.8206
28805SOL     OW89819  10.303   6.947   2.905 -0.2443  0.0159 -0.0399
28805SOL    HW189820  10.239   6.957   2.975  1.8332 -0.6900  2.0271
28805SOL    HW289821  10.320   7.036   2.873  0.3031  0.5731  1.7697
28806SOL     OW89822   5.271   3.951   2.203  0.3016  0.1370 -0.3338
28806SOL    HW189823   5.184   3.920   2.177 -0.4987  1.9871  0.0627
28806SOL    HW289824   5.328   3.929   2.129 -0.6957 -0.1775 -1.0126
28807SOL     OW89825   3.104   8.569   0.134  0.4568  0.0686  0.6017
28807SOL    HW189826   3.093   8.597   0.224 -1.5718  1.4132 -0.0381
28807SOL    HW289827   3.037   8.501   0.122  0.8267 -0.2205  0.1525
28808SOL     OW89828   0.455   9.326   2.624 -0.5624  0.3066  0.0388
28808SOL    HW189829   0.521   9.301   2.559 -0.1783 -0.1121  0.5885
28808SOL    HW289830   0.422   9.410   2.593  0.5267  0.7165 -0.0254
28809SOL     OW89831   0.148   4.724   7.288 -0.1128 -0.3299 -0.1106
28809SOL    HW189832   0.086   4.678   7.232  1.1785 -1.5677 -0.5547
28809SOL    HW289833   0.221   4.663   7.299  0.8124  0.9004  0.8058
28810SOL     OW89834  10.321   7.263   1.863 -0.1558  0.2258  0.1801
28810SOL    HW189835  10.258   7.296   1.799 -0.0078  0.2100  0.0253
28810SOL    HW289836  10.358   7.342   1.903  1.8006  0.3283 -1.7403
28811SOL     OW89837   2.860   1.092   6.234 -0.3266 -0.6049  0.1007
28811SOL    HW189838   2.883   1.080   6.326 -0.8195  1.2807  0.4878
28811SOL    HW289839   2.893   1.013   6.191 -0.3502 -1.6525  1.9264
28812SOL     OW89840   5.203   6.348   6.079 -0.1029  0.6523  0.2380
28812SOL    HW189841   5.288   6.360   6.120 -0.4967  1.0460  0.9515
28812SOL    HW289842   5.144   6.404   6.129 -0.7052  0.6886 -0.5031
28813SOL     OW89843   3.197   8.459   9.695 -0.0451 -0.8943 -0.9660
28813SOL    HW189844   3.284   8.468   9.657  0.0149  0.7472 -0.4783
28813SOL    HW289845   3.212   8.450   9.789 -0.4246  0.3739 -0.7683
28814SOL     OW89846   8.666  10.125   8.443 -0.3856 -0.1948 -0.0942
28814SOL    HW189847   8.643  10.176   8.366 -0.5077  1.6717  1.1614
28814SOL    HW289848   8.755  10.094   8.426  0.4895  2.1705  0.0147
28815SOL     OW89849   9.524   5.005   8.890 -1.1031  0.5944 -0.7035
28815SOL    HW189850   9.439   5.006   8.934 -0.2961  2.0651  0.8817
28815SOL    HW289851   9.555   4.915   8.900 -1.7432  0.4592  0.1459
28816SOL     OW89852   3.868   5.979   8.618  0.6027  0.7112 -0.1667
28816SOL    HW189853   3.932   6.049   8.633  0.0169  1.2714 -0.2516
28816SOL    HW289854   3.889   5.913   8.684  1.6943  0.5868 -0.6358
28817SOL     OW89855   9.029   4.372   8.956  0.1279  0.2807 -0.1285
28817SOL    HW189856   9.016   4.466   8.973  0.3290  0.1975  0.4918
28817SOL    HW289857   8.983   4.356   8.873  1.6054  1.3074 -1.1728
28818SOL     OW89858   5.916   7.627  10.764  0.3886  0.0146 -0.3336
28818SOL    HW189859   6.001   7.589  10.742  0.8153  0.1977  0.9841
28818SOL    HW289860   5.886   7.578  10.839 -0.7705 -0.1721 -0.9110
28819SOL     OW89861   2.657   9.521  10.120 -0.2207  0.4788 -0.0297
28819SOL    HW189862   2.565   9.530  10.094  0.1253  0.7503 -1.1671
28819SOL    HW289863   2.658   9.547  10.212 -1.5845 -1.2234  0.4895
28820SOL     OW89864   2.087   5.410   2.299  0.3850  0.0960 -0.1660
28820SOL    HW189865   2.146   5.400   2.374 -0.8604 -0.1519  0.7904
28820SOL    HW289866   2.101   5.501   2.270  0.3185  0.4235  0.8273
28821SOL     OW89867   7.110   5.217   8.264 -0.1987  0.6344 -0.2494
28821SOL    HW189868   7.145   5.271   8.334  0.1792 -0.0765  0.1154
28821SOL    HW289869   7.066   5.279   8.206  1.6345  1.5494 -0.7121
28822SOL     OW89870   6.536   5.653   9.278  0.5092  0.0202  0.4853
28822SOL    HW189871   6.580   5.703   9.347  0.8473  0.9760 -0.3981
28822SOL    HW289872   6.443   5.658   9.299  0.2485  3.4500 -1.0749
28823SOL     OW89873   2.341   6.690   6.250  0.0323  0.4827 -0.0109
28823SOL    HW189874   2.299   6.775   6.236 -1.1305  0.0683  0.8044
28823SOL    HW289875   2.307   6.635   6.179 -1.1602  0.0319  0.8904
28824SOL     OW89876   2.936   4.541   1.378  0.1665  0.1279 -0.2925
28824SOL    HW189877   2.854   4.542   1.427  0.6288  0.6192  0.4804
28824SOL    HW289878   2.910   4.559   1.288 -0.6163 -0.1301 -0.1236
28825SOL     OW89879  10.932   0.665   4.359 -0.2060 -0.4425  0.3819
28825SOL    HW189880  11.002   0.647   4.421 -1.1511 -0.2828  1.5059
28825SOL    HW289881  10.888   0.743   4.394 -1.5507 -1.1002  0.2268
28826SOL     OW89882   6.853   2.040   4.436  0.1430  0.2920 -0.3794
28826SOL    HW189883   6.763   2.022   4.410 -0.2453  3.0066 -1.0962
28826SOL    HW289884   6.904   2.030   4.356  0.0824  1.1466 -0.5376
28827SOL     OW89885   4.118   2.855   8.674  0.0577 -0.2700  0.0032
28827SOL    HW189886   4.144   2.898   8.755 -0.9131  1.0508 -0.3608
28827SOL    HW289887   4.077   2.925   8.622  0.6870 -1.0896 -1.6228
28828SOL     OW89888   2.126   9.800   2.930  0.4989 -0.1180 -0.3521
28828SOL    HW189889   2.159   9.861   2.997 -0.7884 -0.2270  0.3922
28828SOL    HW289890   2.105   9.721   2.979  1.4520 -0.9121 -1.2077
28829SOL     OW89891   2.928  10.346   0.256 -0.0138 -0.3207 -0.3136
28829SOL    HW189892   2.904  10.432   0.222 -0.2231 -0.1057  0.3663
28829SOL    HW289893   2.935  10.290   0.178  0.5913  0.4232 -0.7970
28830SOL     OW89894   6.644   4.513  10.490  0.1403  0.3397 -0.0580
28830SOL    HW189895   6.572   4.532  10.550  0.4984 -0.8476  0.7830
28830SOL    HW289896   6.653   4.592  10.437 -1.6995  0.5447 -0.1087
28831SOL     OW89897   1.784   3.838   9.189 -0.3745  0.8133  0.2516
28831SOL    HW189898   1.807   3.842   9.282 -2.2857  1.4669  0.7215
28831SOL    HW289899   1.860   3.798   9.147 -0.0194 -0.6899  2.2770
28832SOL     OW89900   8.943   1.681   5.521  0.3361 -0.7120 -0.3582
28832SOL    HW189901   8.973   1.716   5.437  0.5057 -1.3478 -0.5661
28832SOL    HW289902   8.848   1.669   5.509  0.7604 -3.4684 -1.4591
28833SOL     OW89903   9.750   4.656   4.130 -0.3301  0.2363  0.1554
28833SOL    HW189904   9.825   4.620   4.082 -3.5367 -1.6187 -3.8453
28833SOL    HW289905   9.745   4.747   4.101 -0.7284 -0.1743 -1.1197
28834SOL     OW89906   2.434  10.949   2.139  0.3490 -0.4141 -0.2205
28834SOL    HW189907   2.451  10.868   2.188  0.9404 -0.3948 -0.3956
28834SOL    HW289908   2.476  11.018   2.190 -0.7427 -0.1087  0.2952
28835SOL     OW89909   1.950   8.250   5.855  0.1862  0.0067 -0.2979
28835SOL    HW189910   1.857   8.240   5.876 -0.0276  1.6232 -0.4164
28835SOL    HW289911   1.953   8.249   5.760  0.2383  0.3845 -0.3002
28836SOL     OW89912   6.279  10.339   7.681 -0.5208  0.3153 -0.2325
28836SOL    HW189913   6.325  10.414   7.718  0.7827 -0.2085 -0.7383
28836SOL    HW289914   6.312  10.333   7.591 -1.1001 -0.4538 -0.3963
28837SOL     OW89915   7.077  10.941   8.349 -0.1263  0.0296 -0.5740
28837SOL    HW189916   7.093  11.035   8.342 -0.7859  0.0211 -2.3647
28837SOL    HW289917   7.112  10.917   8.435 -0.1225  1.9403 -0.0281
28838SOL     OW89918   6.783   2.873   8.490  0.0269  0.2801 -0.3865
28838SOL    HW189919   6.715   2.940   8.480  0.4163  0.8418  0.6714
28838SOL    HW289920   6.865   2.919   8.472  0.3010  0.0856  0.3538
28839SOL     OW89921   3.592  10.462   6.236 -0.8259  0.7342  0.2375
28839SOL    HW189922   3.524  10.498   6.178 -0.1194 -3.8483 -3.7447
28839SOL    HW289923   3.542  10.422   6.307 -2.2152 -0.1660 -1.1908
28840SOL     OW89924   6.759   5.856   0.647  0.7397  0.1563  0.1664
28840SOL    HW189925   6.756   5.889   0.737 -1.8381 -0.6761  0.4191
28840SOL    HW289926   6.807   5.774   0.653 -0.0653 -0.2708  0.9412
28841SOL     OW89927   1.620  10.824   1.178 -0.7064  0.4887 -0.3088
28841SOL    HW189928   1.557  10.841   1.109 -1.8742  0.9727  0.8592
28841SOL    HW289929   1.607  10.732   1.201  0.3472  0.0600 -1.3779
28842SOL     OW89930   0.796   3.096   1.923  0.3095 -0.0730 -0.5293
28842SOL    HW189931   0.717   3.055   1.887  1.3762  0.1863 -3.3089
28842SOL    HW289932   0.848   3.023   1.956 -0.7586 -0.3083  0.6620
28843SOL     OW89933   5.499   9.622  10.736 -0.1652  0.4681  0.9654
28843SOL    HW189934   5.467   9.572  10.811 -1.8244 -1.1804 -0.7884
28843SOL    HW289935   5.547   9.557  10.683 -0.9198  1.0704 -0.4922
28844SOL     OW89936   2.315   5.155   7.114 -0.1736  0.6824 -0.3651
28844SOL    HW189937   2.403   5.161   7.077  0.7666  0.2196  1.7000
28844SOL    HW289938   2.327   5.107   7.196 -2.1003  2.0223  0.7446
28845SOL     OW89939   5.456   5.406   9.006  0.1991 -0.0470  0.0913
28845SOL    HW189940   5.396   5.353   9.059 -0.0876  1.4634  1.3119
28845SOL    HW289941   5.529   5.426   9.064  1.1302 -0.5088 -0.8965
28846SOL     OW89942   1.239   3.220   9.795 -0.1733  0.1252 -0.4403
28846SOL    HW189943   1.308   3.164   9.832  0.9106  0.2445 -2.2047
28846SOL    HW289944   1.158   3.172   9.811  0.4464 -0.6174  0.5590
28847SOL     OW89945   2.148   2.468   5.249  0.5201  0.4498  0.1936
28847SOL    HW189946   2.149   2.373   5.266  1.9387  0.4095 -0.0221
28847SOL    HW289947   2.056   2.491   5.248  0.1723 -0.8470  0.7752
28848SOL     OW89948   8.031   3.924   5.413  0.3323 -0.4724  0.4485
28848SOL    HW189949   8.092   3.954   5.347 -1.0501  0.0611 -0.6118
28848SOL    HW289950   8.085   3.874   5.475  1.5171 -1.6489 -1.4887
28849SOL     OW89951   0.645  10.387   8.898 -0.0155 -0.3686 -0.3652
28849SOL    HW189952   0.551  10.371   8.911  0.2500 -0.1802  2.0713
28849SOL    HW289953   0.653  10.482   8.900  0.3523 -0.4141  0.5316
28850SOL     OW89954   7.737  10.979   9.307 -0.0898 -0.2317 -0.3008
28850SOL    HW189955   7.807  10.931   9.352 -0.3050  0.5079  0.8572
28850SOL    HW289956   7.671  10.994   9.375 -1.0652 -0.3051 -1.2113
28851SOL     OW89957   9.059   1.426   2.384 -0.2682 -0.1166  0.1022
28851SOL    HW189958   8.969   1.419   2.418 -0.1090 -0.7362  0.3918
28851SOL    HW289959   9.095   1.338   2.391 -0.2521 -0.2778 -1.7548
28852SOL     OW89960   8.727   9.305   9.838 -0.3013 -0.3773 -0.6735
28852SOL    HW189961   8.684   9.375   9.789 -1.7693 -0.3159  0.6819
28852SOL    HW289962   8.819   9.312   9.813 -0.3378  2.3207 -0.2444
28853SOL     OW89963   6.206   9.125   7.639 -0.2463 -0.3127 -0.2568
28853SOL    HW189964   6.135   9.135   7.702 -0.2927 -1.0435 -0.1825
28853SOL    HW289965   6.258   9.052   7.673  0.7981  0.5007 -0.0768
28854SOL     OW89966   2.909   2.427  10.676 -0.0831  0.1782  0.1593
28854SOL    HW189967   2.940   2.516  10.657  0.6645 -0.2610 -0.6953
28854SOL    HW289968   2.843   2.439  10.744  0.7589  1.2868  0.7931
28855SOL     OW89969   8.354   6.210   4.557  0.7024 -0.3336 -0.1856
28855SOL    HW189970   8.327   6.234   4.646 -0.9111  0.0048 -0.7426
28855SOL    HW289971   8.275   6.172   4.518  1.9979 -2.5188 -0.7727
28856SOL     OW89972  10.676   9.034   0.763  1.0738 -0.6498 -0.6958
28856SOL    HW189973  10.593   9.078   0.781 -0.0778 -3.2376  0.6467
28856SOL    HW289974  10.743   9.093   0.797 -0.1325  1.8396 -2.4902
28857SOL     OW89975   5.257  10.272   8.162 -0.0476 -0.4038 -0.3730
28857SOL    HW189976   5.200  10.341   8.195 -0.5772 -0.8724 -0.2928
28857SOL    HW289977   5.345  10.309   8.165 -0.0878 -0.4066  1.4919
28858SOL     OW89978   0.329   8.300   5.360 -0.0225 -0.2139 -0.1451
28858SOL    HW189979   0.278   8.369   5.401  1.4599  0.5563  0.3941
28858SOL    HW289980   0.413   8.340   5.338  1.5989 -2.2887  1.8989
28859SOL     OW89981  10.457   4.854   8.778 -0.8286 -0.0398 -0.4237
28859SOL    HW189982  10.484   4.773   8.823 -0.6907  0.7750  1.0056
28859SOL    HW289983  10.460   4.832   8.685  0.6912 -1.2278 -0.1184
28860SOL     OW89984   5.324   8.701   4.351  0.1053 -0.6176  0.1831
28860SOL    HW189985   5.288   8.638   4.288  0.3623 -1.0972  0.5119
28860SOL    HW289986   5.272   8.780   4.339 -0.3945 -0.9812 -0.0422
28861SOL     OW89987   6.828   7.978   9.828 -0.2134  0.2072 -0.6045
28861SOL    HW189988   6.780   7.896   9.816 -0.9733  0.3646  1.1395
28861SOL    HW289989   6.791   8.038   9.763 -1.9677  0.1296  0.2740
28862SOL     OW89990   5.183   7.955  10.581  0.1218  0.1154  0.2481
28862SOL    HW189991   5.150   7.996  10.501  1.6899 -0.2468 -0.6086
28862SOL    HW289992   5.158   7.863  10.573  1.1684 -0.1256 -0.3211
28863SOL     OW89993   0.388   9.629   1.483  0.4628  0.1356  0.1645
28863SOL    HW189994   0.405   9.607   1.391  0.2940 -1.7521  0.5674
28863SOL    HW289995   0.395   9.725   1.486 -0.1650  0.2751 -1.9306
28864SOL     OW89996   8.469   0.760   3.429 -0.5608 -0.8595 -0.6906
28864SOL    HW189997   8.479   0.665   3.439 -0.2237 -0.6996  0.5261
28864SOL    HW289998   8.538   0.797   3.484 -0.8929  0.1026 -0.9201
28865SOL     OW89999   4.226   1.155   4.066 -0.1960 -0.2037 -0.0240
28865SOL    HW190000   4.240   1.244   4.032  0.3792 -0.7155 -1.1778
28865SOL    HW290001   4.136   1.135   4.042  0.2336 -0.5941 -1.3769
28866SOL     OW90002  10.664   0.853  10.588  0.2057 -0.2359  0.7489
28866SOL    HW190003  10.612   0.851  10.508  0.4284  0.3829  0.5838
28866SOL    HW290004  10.600   0.864  10.658  0.1366  0.9903  0.5097
28867SOL     OW90005  10.212   7.904   7.345  0.3756 -0.1470  0.0262
28867SOL    HW190006  10.220   7.985   7.294 -0.3269  0.2948  0.6107
28867SOL    HW290007  10.123   7.873   7.327 -0.5686  1.0274  2.4609
28868SOL     OW90008   7.757   4.665   5.959  0.2442 -0.2088 -0.0873
28868SOL    HW190009   7.753   4.761   5.966 -1.8018 -0.3797  1.5614
28868SOL    HW290010   7.838   4.641   6.005  0.3614  0.6893  0.1821
28869SOL     OW90011   3.364  10.404   1.085 -0.3243 -0.0151  0.4595
28869SOL    HW190012   3.375  10.478   1.026  0.1963 -0.7226 -0.3366
28869SOL    HW290013   3.452  10.389   1.121  0.3748 -2.5731 -2.1813
28870SOL     OW90014   6.065  10.015   5.380  0.4328  0.0760 -0.0531
28870SOL    HW190015   6.006   9.946   5.410  0.6063 -0.4995 -1.0312
28870SOL    HW290016   6.072  10.074   5.455  0.3020 -0.9731  0.8095
28871SOL     OW90017  10.031   8.561   2.779  0.0175 -0.2683 -0.1011
28871SOL    HW190018  10.049   8.483   2.727  0.3550  0.8423 -1.6708
28871SOL    HW290019  10.117   8.598   2.798 -0.1764  0.2655 -0.2267
28872SOL     OW90020   2.949   6.084   5.681  0.3135 -0.3590 -0.0998
28872SOL    HW190021   2.926   6.110   5.591  0.5364 -0.4318 -0.1793
28872SOL    HW290022   3.016   6.146   5.708  1.7972 -1.6267 -0.7686
28873SOL     OW90023   2.114   7.303   1.401 -0.2536 -0.1419  0.5800
28873SOL    HW190024   2.055   7.352   1.458 -0.6564 -0.1079  0.1296
28873SOL    HW290025   2.057   7.244   1.352 -0.0990  1.0218 -1.0259
28874SOL     OW90026   6.253   3.484   9.136 -0.5167 -0.1431  0.4250
28874SOL    HW190027   6.254   3.520   9.225  0.9195 -0.6733  0.6371
28874SOL    HW290028   6.302   3.402   9.143  0.9752  0.5820 -1.1546
28875SOL     OW90029   1.370   4.287   6.909 -0.1213  0.2104 -0.2069
28875SOL    HW190030   1.315   4.265   6.833 -0.2675 -2.1769  0.5362
28875SOL    HW290031   1.444   4.226   6.903  0.4668  0.7927  0.9454
28876SOL     OW90032   6.067   9.462   6.343 -0.4731 -0.2561  0.5921
28876SOL    HW190033   6.083   9.535   6.402 -1.4840 -0.4433  1.1190
28876SOL    HW290034   6.150   9.414   6.339  0.2378  0.9897  0.1296
28877SOL     OW90035   8.258   7.791   9.971  0.3062 -0.2755 -0.1621
28877SOL    HW190036   8.323   7.726   9.943  1.2119  0.2996  0.5732
28877SOL    HW290037   8.191   7.789   9.903  2.1267  0.6289 -2.0489
28878SOL     OW90038   6.888   5.717   9.994 -0.0411  0.1429 -0.1683
28878SOL    HW190039   6.927   5.713   9.906 -0.2017  1.6143 -0.3136
28878SOL    HW290040   6.899   5.808  10.021  2.2101 -0.8352  2.3673
28879SOL     OW90041   7.946  10.598   8.653  0.3477 -0.0633  0.1543
28879SOL    HW190042   7.939  10.547   8.734  1.1822 -0.1314  0.1909
28879SOL    HW290043   7.882  10.668   8.663 -1.6107 -1.7304 -0.3767
28880SOL     OW90044   4.631   6.020   5.351 -1.0565  0.5613  0.3295
28880SOL    HW190045   4.679   6.034   5.432  0.4033 -0.2535 -0.3977
28880SOL    HW290046   4.684   6.063   5.284 -0.4030 -1.8620 -0.7552
28881SOL     OW90047   8.423   5.190   5.503 -0.2797 -0.0582 -0.7498
28881SOL    HW190048   8.462   5.118   5.552  2.2400  0.4069 -1.9329
28881SOL    HW290049   8.428   5.265   5.562  0.9284  0.0495 -0.9653
28882SOL     OW90050   0.727   9.926   4.859 -0.3880  0.2534 -0.0981
28882SOL    HW190051   0.656   9.957   4.915  0.2547 -1.1443  1.5620
28882SOL    HW290052   0.795   9.993   4.865 -0.4704  0.2812  0.5374
28883SOL     OW90053   3.129   5.203   4.834  0.1951 -0.4396  0.3614
28883SOL    HW190054   3.106   5.235   4.746 -4.1495 -1.2453  1.0741
28883SOL    HW290055   3.099   5.272   4.893  0.9044 -0.9582  1.3438
28884SOL     OW90056   7.126   7.264   9.142  0.4749  0.4316  0.0836
28884SOL    HW190057   7.066   7.283   9.069 -2.7765  0.6133  2.6651
28884SOL    HW290058   7.170   7.347   9.160  0.4148  0.6772 -0.8922
28885SOL     OW90059   8.730   0.626   1.178 -0.0190  0.5301  0.3019
28885SOL    HW190060   8.732   0.645   1.084 -0.2804  1.7132  0.5247
28885SOL    HW290061   8.709   0.533   1.183 -1.3952  0.7656 -0.7878
28886SOL     OW90062   6.725   8.527   8.566  0.4314 -0.6364 -0.5722
28886SOL    HW190063   6.652   8.465   8.568  0.7284 -0.9794 -0.0467
28886SOL    HW290064   6.803   8.472   8.571  0.7420 -0.3006 -1.7269
28887SOL     OW90065   6.322   9.817  10.472  0.7823  0.0238 -0.5042
28887SOL    HW190066   6.336   9.753  10.402 -1.9121 -0.5196 -0.6227
28887SOL    HW290067   6.381   9.790  10.542 -1.1389 -3.3230 -0.0984
28888SOL     OW90068   3.008   6.396   9.147  0.0275 -0.0433  0.3760
28888SOL    HW190069   2.944   6.425   9.082  0.8463 -0.3280 -0.5547
28888SOL    HW290070   3.013   6.469   9.209  1.2363  1.3885 -1.3502
28889SOL     OW90071   6.877   2.090   9.660  0.6916  0.0228  0.4900
28889SOL    HW190072   6.917   2.019   9.609 -0.7103 -0.6750  0.3433
28889SOL    HW290073   6.802   2.049   9.703  1.4356  0.7761  2.5664
28890SOL     OW90074   8.521   7.494   0.543  0.2056 -0.1395 -0.0527
28890SOL    HW190075   8.473   7.470   0.464 -0.3903  0.9481 -0.0303
28890SOL    HW290076   8.613   7.475   0.523 -0.1322 -1.5148 -0.3669
28891SOL     OW90077   1.349   6.335  10.915  0.3204  0.2569  0.8867
28891SOL    HW190078   1.398   6.310  10.994 -1.3605 -1.4553  1.4032
28891SOL    HW290079   1.265   6.367  10.948  0.1065  0.7928 -0.1550
28892SOL     OW90080   7.665   9.593   2.930  0.2624 -0.0767 -0.1392
28892SOL    HW190081   7.571   9.601   2.943  0.4430  3.2710 -0.3747
28892SOL    HW290082   7.703   9.662   2.985  2.5483 -0.9819 -0.4976
28893SOL     OW90083   8.309   4.412   9.673  0.4080 -0.1430 -0.1422
28893SOL    HW190084   8.403   4.417   9.690  0.5703  0.6738 -1.2251
28893SOL    HW290085   8.269   4.457   9.748  0.8009 -1.5078  0.9086
28894SOL     OW90086   9.778   9.446   2.048  0.0357 -0.4170 -0.3490
28894SOL    HW190087   9.837   9.371   2.047 -0.5687 -0.9053  0.4738
28894SOL    HW290088   9.750   9.456   1.957  0.1667 -1.1393 -0.4662
28895SOL     OW90089   8.597  10.892   0.461  0.1431 -0.1809  0.3715
28895SOL    HW190090   8.518  10.842   0.444  0.4896 -0.1412 -1.5037
28895SOL    HW290091   8.587  10.972   0.410  2.8393 -1.6656 -2.7024
28896SOL     OW90092   6.789   4.470   8.212 -0.5843 -0.1114 -0.3679
28896SOL    HW190093   6.825   4.554   8.239  0.3197 -0.4324 -0.5587
28896SOL    HW290094   6.835   4.449   8.131 -1.3288 -0.4498 -0.7097
28897SOL     OW90095   1.787   8.522   9.367 -0.3446  0.1335  0.6682
28897SOL    HW190096   1.809   8.446   9.421 -0.9035  0.0004  0.7142
28897SOL    HW290097   1.709   8.559   9.409 -0.7939  0.0185 -0.0588
28898SOL     OW90098   4.558   9.729   8.959  0.1791  0.6100  0.1847
28898SOL    HW190099   4.637   9.780   8.938 -0.7543  1.6547 -0.8871
28898SOL    HW290100   4.498   9.793   8.998 -0.5119  0.0598  0.0324
28899SOL     OW90101   8.136   9.589   8.289  0.7358  0.2259  0.0608
28899SOL    HW190102   8.175   9.658   8.344  1.1945 -0.4199  0.5533
28899SOL    HW290103   8.164   9.611   8.200  1.8472  0.0368  0.3484
28900SOL     OW90104   6.938   1.061   5.203  0.0691 -0.0208 -0.4187
28900SOL    HW190105   7.029   1.034   5.194  0.0783  0.4006 -1.7829
28900SOL    HW290106   6.903   1.007   5.274  1.2582 -0.4865 -0.1787
28901SOL     OW90107   4.533   4.531   8.453  0.8709 -0.1859 -0.1149
28901SOL    HW190108   4.512   4.597   8.387 -0.1292  0.2273  0.6079
28901SOL    HW290109   4.567   4.581   8.527  1.8544 -0.6388 -0.2418
28902SOL     OW90110  10.740   1.741   3.757 -0.0493 -0.2888 -0.0023
28902SOL    HW190111  10.718   1.729   3.850  0.3109 -1.6140 -0.0835
28902SOL    HW290112  10.777   1.829   3.753  0.0385 -0.2645  1.1438
28903SOL     OW90113   7.728   0.448   3.516  0.6840 -0.1377 -0.3268
28903SOL    HW190114   7.675   0.368   3.513  0.0833  0.2709 -0.8256
28903SOL    HW290115   7.702   0.496   3.437  1.4644  0.2795 -0.3285
28904SOL     OW90116   1.098   9.669   9.084 -0.2266 -0.4001 -0.1508
28904SOL    HW190117   1.032   9.671   9.152  1.3108 -0.5233  1.3797
28904SOL    HW290118   1.133   9.580   9.087  0.7799 -0.0132 -0.1803
28905SOL     OW90119   9.029   1.315   8.304 -0.1869  0.0310  1.1898
28905SOL    HW190120   9.072   1.356   8.380  1.9777 -1.5181  0.8468
28905SOL    HW290121   9.101   1.296   8.244 -1.7327 -0.0143 -0.6768
28906SOL     OW90122   1.564   1.883   2.466 -0.4235  0.0430 -0.3211
28906SOL    HW190123   1.629   1.920   2.526 -0.8725  0.3107 -0.0018
28906SOL    HW290124   1.614   1.819   2.415  0.2978  0.8872 -0.6918
28907SOL     OW90125   2.677   3.579  10.694 -0.0089 -0.0253 -0.8236
28907SOL    HW190126   2.739   3.516  10.656 -0.2234 -0.2179 -0.8582
28907SOL    HW290127   2.605   3.583  10.630 -2.2035 -3.2269  1.2948
28908SOL     OW90128  10.310   7.603  10.962 -0.4399  0.0926 -0.0829
28908SOL    HW190129  10.236   7.577  10.908 -0.1824 -0.7803 -0.0257
28908SOL    HW290130  10.270   7.632  11.045 -0.6940 -0.7916  0.1099
28909SOL     OW90131   6.199   4.852   5.838 -0.3311 -0.4766 -0.1341
28909SOL    HW190132   6.252   4.923   5.875  0.7569 -0.4175 -1.7671
28909SOL    HW290133   6.162   4.890   5.758 -2.5192 -0.6624  0.7481
28910SOL     OW90134   3.403   1.733   8.172  0.3367  0.4117  0.2609
28910SOL    HW190135   3.309   1.719   8.157  0.5638 -0.6340 -0.2365
28910SOL    HW290136   3.406   1.794   8.246 -0.7216 -0.9801  1.4765
28911SOL     OW90137   7.794   7.498  10.232  0.2844 -0.0625  0.3051
28911SOL    HW190138   7.821   7.571  10.288 -2.8107 -0.1384  2.0130
28911SOL    HW290139   7.808   7.420  10.285 -0.2867 -0.3726  0.0023
28912SOL     OW90140   8.230   9.557   6.054  0.1271 -0.3622 -0.3261
28912SOL    HW190141   8.324   9.568   6.068 -0.1294 -0.3672  1.4939
28912SOL    HW290142   8.208   9.623   5.988  0.9918  1.1937  0.9013
28913SOL     OW90143   7.213   2.481   0.900  0.7977 -0.1663 -0.6560
28913SOL    HW190144   7.268   2.543   0.854  0.2485  1.0107  0.2573
28913SOL    HW290145   7.163   2.534   0.962  0.5395 -1.5459  0.3382
28914SOL     OW90146   9.235   3.043   2.614  0.1013  0.2233 -0.3466
28914SOL    HW190147   9.202   3.051   2.703 -1.6023  0.1369 -0.9584
28914SOL    HW290148   9.291   3.120   2.602  0.7413 -0.0309  0.9572
28915SOL     OW90149  10.342   4.279   9.827  0.0757 -0.1228  0.4947
28915SOL    HW190150  10.285   4.337   9.777  1.8712  0.9562 -0.3604
28915SOL    HW290151  10.374   4.216   9.762  0.7371 -0.0245  0.7193
28916SOL     OW90152   7.573  10.044   1.739 -0.0347  0.0496  0.6840
28916SOL    HW190153   7.644   9.996   1.782 -0.2497 -0.2037  0.7615
28916SOL    HW290154   7.617  10.106   1.681  0.2328 -1.3677 -0.6469
28917SOL     OW90155   2.347   7.968   4.029  0.4461  0.2677 -0.2026
28917SOL    HW190156   2.407   8.008   3.966  1.0087 -0.1563  0.0577
28917SOL    HW290157   2.323   7.885   3.989 -2.2329  1.6543 -1.6413
28918SOL     OW90158   1.062   8.697  10.139  0.2855 -0.3493 -0.7942
28918SOL    HW190159   1.121   8.629  10.105  1.1000  0.1672 -0.4301
28918SOL    HW290160   1.062   8.765  10.072  0.8944  0.0974 -0.3491
28919SOL     OW90161   2.231   4.783   2.037 -0.0721  0.3060 -0.4927
28919SOL    HW190162   2.239   4.691   2.012 -0.1349  0.6953 -2.0060
28919SOL    HW290163   2.168   4.820   1.975 -0.9294  1.1171  0.8271
28920SOL     OW90164   8.534   1.443   0.206 -0.1231  0.3107 -0.3749
28920SOL    HW190165   8.584   1.486   0.275 -0.1618 -0.5141  0.1774
28920SOL    HW290166   8.596   1.381   0.167 -0.2812  0.3371 -0.6652
28921SOL     OW90167   7.544   0.669   4.361 -0.2485  0.3520  0.2608
28921SOL    HW190168   7.456   0.705   4.365 -0.5449 -0.5841  3.6334
28921SOL    HW290169   7.533   0.582   4.322 -1.0431 -0.2641  1.7912
28922SOL     OW90170   4.631   9.063  10.597  0.1014  0.4225  0.0935
28922SOL    HW190171   4.638   8.979  10.643  3.2527  0.5871 -0.0137
28922SOL    HW290172   4.537   9.073  10.581 -0.3124 -3.2398 -0.2149
28923SOL     OW90173   9.929   2.338   8.199 -0.2048 -0.1337  0.1063
28923SOL    HW190174   9.989   2.411   8.213 -0.0136 -0.4596  1.0166
28923SOL    HW290175   9.849   2.362   8.246  0.5788 -1.4038  2.1542
28924SOL     OW90176   6.119   7.985  10.935 -0.1930 -0.1048  0.0806
28924SOL    HW190177   6.160   8.040  10.867 -0.7479  0.3963  0.1507
28924SOL    HW290178   6.034   8.025  10.950 -0.8319 -1.3156 -0.2700
28925SOL     OW90179   6.650   4.573   6.924  0.2788  0.4885  0.1081
28925SOL    HW190180   6.696   4.643   6.971 -1.3642 -0.7656  3.7363
28925SOL    HW290181   6.559   4.581   6.953 -0.4769 -1.3556 -1.6630
28926SOL     OW90182   5.666   6.244   4.463  0.5817  0.3090 -0.5801
28926SOL    HW190183   5.743   6.290   4.496  0.3503  1.6948 -1.9468
28926SOL    HW290184   5.702   6.172   4.411  0.9519  0.9512 -1.2178
28927SOL     OW90185   8.677   9.189   3.995 -0.3766  0.8762  0.0699
28927SOL    HW190186   8.628   9.172   4.076 -3.1500 -1.5706 -2.0040
28927SOL    HW290187   8.640   9.270   3.961 -1.3430  0.3099 -0.2527
28928SOL     OW90188   3.215   5.846   0.281 -0.0822 -0.9369 -0.2085
28928SOL    HW190189   3.246   5.926   0.324 -0.0208 -1.5785  0.9727
28928SOL    HW290190   3.294   5.807   0.244  0.3938 -1.9590  1.7786
28929SOL     OW90191   1.863   3.236   1.607 -0.4840 -0.0650 -0.2176
28929SOL    HW190192   1.810   3.298   1.557 -2.8385 -1.6376  0.2945
28929SOL    HW290193   1.844   3.151   1.568  1.0480 -0.7588  0.5180
28930SOL     OW90194   6.710   4.633   4.039 -0.0658 -0.2872  0.6804
28930SOL    HW190195   6.799   4.667   4.050  0.1387 -0.4111 -0.5251
28930SOL    HW290196   6.677   4.624   4.128  1.2791 -0.6466  1.1560
28931SOL     OW90197   4.234   9.311   3.557 -0.6493 -0.3617  1.0830
28931SOL    HW190198   4.293   9.379   3.525 -0.9082  1.1254  3.6776
28931SOL    HW290199   4.286   9.262   3.620 -0.7795 -1.9904 -0.0343
28932SOL     OW90200   2.747   2.590   5.766  0.0083  0.2428 -0.4210
28932SOL    HW190201   2.790   2.676   5.771 -0.2831  0.3365  0.8369
28932SOL    HW290202   2.815   2.528   5.795  0.0710  0.1111 -0.8578
28933SOL     OW90203   8.160   1.064   0.268 -0.7238  0.0168  0.4969
28933SOL    HW190204   8.082   1.029   0.310 -0.6267  0.2019  0.8317
28933SOL    HW290205   8.178   1.146   0.314  0.6833 -0.8858  1.6226
28934SOL     OW90206   7.552   7.153   1.947 -0.3284 -0.4792 -0.6009
28934SOL    HW190207   7.522   7.206   2.021 -0.8660 -1.3483 -0.1817
28934SOL    HW290208   7.543   7.062   1.978  1.5757 -0.8029 -0.9022
28935SOL     OW90209   7.349   3.832   6.381 -0.6053  0.4403  0.1228
28935SOL    HW190210   7.314   3.794   6.301 -1.6959  1.7168 -0.0118
28935SOL    HW290211   7.272   3.849   6.435 -0.0203  1.2746  0.7061
28936SOL     OW90212   0.573   1.387   1.187 -0.2196 -0.5833 -0.3779
28936SOL    HW190213   0.608   1.474   1.204 -4.4086  0.3336  4.7596
28936SOL    HW290214   0.646   1.327   1.206  1.7221  1.6476 -0.6799
28937SOL     OW90215   5.624  10.979   2.663  0.5958 -0.1997  0.7394
28937SOL    HW190216   5.593  10.929   2.739 -0.6758 -0.8746 -0.2005
28937SOL    HW290217   5.547  11.027   2.633  1.0276 -0.1344 -0.2780
28938SOL     OW90218   6.599   0.102   3.844  0.1405  0.0155 -0.6363
28938SOL    HW190219   6.583   0.156   3.922 -0.1161 -0.8566 -0.0678
28938SOL    HW290220   6.530   0.036   3.847  0.6360 -0.5314 -1.1425
28939SOL     OW90221   7.695   6.405   3.287 -0.0751 -0.7031  0.1685
28939SOL    HW190222   7.786   6.377   3.297 -0.0271 -1.1989 -1.4075
28939SOL    HW290223   7.643   6.332   3.320  0.0973 -0.4360  1.0311
28940SOL     OW90224   7.612   9.175   9.638  0.4045 -0.5499  0.3463
28940SOL    HW190225   7.564   9.105   9.683 -0.9113  0.0871 -0.0208
28940SOL    HW290226   7.651   9.132   9.562  1.7239 -1.4008  1.4797
28941SOL     OW90227   6.399   3.116   0.840 -0.1266 -0.4199 -0.9542
28941SOL    HW190228   6.407   3.021   0.846 -1.4169 -0.4075  1.5210
28941SOL    HW290229   6.320   3.130   0.786 -0.5862 -0.7680 -0.3783
28942SOL     OW90230   1.033   3.576   3.515  0.5266  0.3373 -0.5449
28942SOL    HW190231   0.964   3.640   3.499  1.7321  1.2841 -2.0800
28942SOL    HW290232   1.021   3.510   3.447 -0.6597 -1.0409  0.9803
28943SOL     OW90233   4.126   8.558   5.499  0.2956 -0.6427  0.0137
28943SOL    HW190234   4.181   8.604   5.563 -0.0118  0.4074 -0.4639
28943SOL    HW290235   4.181   8.486   5.469  0.8180 -0.5553  0.7281
28944SOL     OW90236   3.523  10.245   4.288  0.7084  0.3475  0.5539
28944SOL    HW190237   3.508  10.219   4.379 -1.4905  0.9933  0.4100
28944SOL    HW290238   3.598  10.305   4.292 -0.1756  1.3907  2.1326
28945SOL     OW90239   5.655   9.046   8.389  0.6438 -0.0889 -0.1440
28945SOL    HW190240   5.639   8.952   8.378 -0.9296  0.3260 -1.5563
28945SOL    HW290241   5.748   9.052   8.410  0.9747 -1.9111 -0.9920
28946SOL     OW90242  10.560   6.036   5.358  0.0130 -0.2411  0.1138
28946SOL    HW190243  10.483   5.997   5.316 -0.2190  0.1150  0.2057
28946SOL    HW290244  10.634   5.989   5.320 -0.3092 -1.3073  0.8057
28947SOL     OW90245   0.874   4.796   7.778 -0.5999 -0.2253  0.0393
28947SOL    HW190246   0.783   4.824   7.783 -0.5632 -0.0450 -0.2648
28947SOL    HW290247   0.906   4.833   7.695 -0.3015 -0.4296  0.0622
28948SOL     OW90248  10.077   0.558   8.836  0.6562  0.1160 -0.2634
28948SOL    HW190249  10.081   0.500   8.760  0.4925  2.6766 -2.2961
28948SOL    HW290250  10.161   0.603   8.836  0.4465  0.5284  0.7820
28949SOL     OW90251   2.622   7.053   5.433  0.7127  0.0742 -0.3098
28949SOL    HW190252   2.675   7.013   5.502 -0.0689 -1.1080 -0.3855
28949SOL    HW290253   2.622   6.989   5.362 -0.4184  0.2683 -0.5019
28950SOL     OW90254   5.303  10.654  10.720  0.1822 -0.2454  0.1741
28950SOL    HW190255   5.304  10.742  10.682 -2.2613 -0.7880 -1.2476
28950SOL    HW290256   5.254  10.664  10.801 -0.4010 -0.3603 -0.1628
28951SOL     OW90257   7.301   1.543   4.472 -0.2634 -0.0883  0.2471
28951SOL    HW190258   7.307   1.465   4.527  1.5742  0.8354  1.3842
28951SOL    HW290259   7.390   1.560   4.444 -0.7409  1.2730 -0.4877
28952SOL     OW90260   0.524   2.581   1.563 -0.6052  0.0282 -0.2743
28952SOL    HW190261   0.501   2.669   1.592  0.6224 -0.0634  0.9798
28952SOL    HW290262   0.458   2.525   1.603 -1.6580  0.3938 -1.4305
28953SOL     OW90263   4.263   8.933   5.390 -0.4259 -0.5617 -0.4269
28953SOL    HW190264   4.229   8.858   5.342 -0.8386  0.5529 -1.9178
28953SOL    HW290265   4.307   8.895   5.466 -0.2977 -2.3260 -1.3578
28954SOL     OW90266   1.913   3.045   3.337 -0.3124 -0.8771 -0.1675
28954SOL    HW190267   1.998   3.049   3.383 -0.6646 -0.8480  0.4924
28954SOL    HW290268   1.849   3.064   3.405 -0.8457 -0.8213 -0.6887
28955SOL     OW90269   0.127   4.805   9.374 -0.2454 -0.9727 -0.4276
28955SOL    HW190270   0.141   4.800   9.279 -1.0667  0.0852 -0.6130
28955SOL    HW290271   0.076   4.885   9.386  0.7447 -0.5407  1.0108
28956SOL     OW90272   3.223   8.387   9.954 -0.2237  0.5434 -0.3150
28956SOL    HW190273   3.265   8.305   9.928  0.0270  0.1766  1.1684
28956SOL    HW290274   3.205   8.375  10.048  0.0490  2.2918 -0.0281
28957SOL     OW90275   7.950   7.565   6.273 -0.7007  0.3083  0.0562
28957SOL    HW190276   7.922   7.603   6.356 -2.0665 -0.3251 -0.1051
28957SOL    HW290277   8.004   7.490   6.298 -2.0125 -0.5383  0.3851
28958SOL     OW90278   6.223   4.702   6.463 -0.0729 -0.4295  0.0151
28958SOL    HW190279   6.174   4.677   6.384  1.3021 -1.3168 -0.5799
28958SOL    HW290280   6.256   4.619   6.497 -1.7227 -0.2139  2.2774
28959SOL     OW90281   2.274   7.363   5.182 -0.0799  0.1330  0.0116
28959SOL    HW190282   2.230   7.442   5.211  1.1491  1.2024 -0.9956
28959SOL    HW290283   2.297   7.317   5.263 -0.5336  0.9378  0.6010
28960SOL     OW90284  10.844   4.426   4.449 -0.5138  0.1742  0.0795
28960SOL    HW190285  10.835   4.493   4.517 -0.5141 -1.5036  1.7687
28960SOL    HW290286  10.883   4.351   4.494 -1.1124 -1.1937 -1.6204
28961SOL     OW90287   5.240   2.660   4.481  0.4453  0.2154 -0.4504
28961SOL    HW190288   5.260   2.630   4.569 -1.4779 -0.7831 -0.3237
28961SOL    HW290289   5.323   2.654   4.433  0.9286 -1.6633  0.6042
28962SOL     OW90290  10.831   6.774   2.573 -0.2079  0.0609  0.3677
28962SOL    HW190291  10.880   6.856   2.582  2.2575 -0.9163 -2.7606
28962SOL    HW290292  10.895   6.706   2.596 -1.1472 -1.0941 -0.3805
28963SOL     OW90293   7.552   2.680   3.241  0.2627 -0.0146 -0.2274
28963SOL    HW190294   7.465   2.716   3.255  1.1231  2.0201  0.0048
28963SOL    HW290295   7.578   2.643   3.325 -0.2524 -0.3812 -0.2286
28964SOL     OW90296  10.067   6.942   4.280  0.0940 -0.1593 -0.8469
28964SOL    HW190297  10.060   7.023   4.230  1.9480 -0.1614 -1.1412
28964SOL    HW290298  10.029   6.963   4.365  1.5081  1.3307 -0.5710
28965SOL     OW90299   2.329   6.212   5.437 -0.1454 -0.9304 -0.0522
28965SOL    HW190300   2.412   6.259   5.449 -0.8414  0.4616 -0.4661
28965SOL    HW290301   2.274   6.275   5.390 -0.8632 -2.4803 -1.2900
28966SOL     OW90302  10.870   1.106   6.336  0.1950 -0.3692 -0.3927
28966SOL    HW190303  10.922   1.169   6.386 -0.9650  0.4935 -0.2416
28966SOL    HW290304  10.837   1.045   6.402 -0.7431  0.3482 -0.1838
28967SOL     OW90305   2.888   9.311   2.870 -0.7741 -0.3752  0.2883
28967SOL    HW190306   2.976   9.288   2.843 -0.6237  2.5179 -1.9796
28967SOL    HW290307   2.833   9.297   2.793 -1.7836  0.4305  0.8265
28968SOL     OW90308   3.905   1.485   1.488  0.1098 -0.3200 -0.2250
28968SOL    HW190309   3.895   1.393   1.462  0.7869  0.0178 -1.7790
28968SOL    HW290310   3.906   1.533   1.405 -0.1990  1.0906  0.5741
28969SOL     OW90311   7.024   3.277   7.062  0.1488  0.0553  0.8571
28969SOL    HW190312   7.116   3.260   7.043  0.8032  2.7223  1.3943
28969SOL    HW290313   7.016   3.269   7.157  0.1341  1.1035  0.9522
28970SOL     OW90314   8.149  10.877   2.238  0.8679  0.0489 -0.1385
28970SOL    HW190315   8.122  10.810   2.300 -2.8725 -0.2944 -1.9984
28970SOL    HW290316   8.105  10.854   2.157  2.8786  2.4205 -1.9949
28971SOL     OW90317   1.311   6.262   8.697  0.3200 -0.1121  0.5727
28971SOL    HW190318   1.337   6.176   8.729  0.2330 -0.7245 -0.9903
28971SOL    HW290319   1.236   6.286   8.752 -0.1326 -1.3578  0.5117
28972SOL     OW90320   8.711  10.623   9.069 -0.1409 -0.3076  0.0429
28972SOL    HW190321   8.731  10.709   9.106  0.0931 -0.5185  0.4027
28972SOL    HW290322   8.654  10.581   9.133 -1.2514  0.0445 -0.6949
28973SOL     OW90323   5.056   2.529   4.757 -0.1325  0.2169  0.0515
28973SOL    HW190324   5.078   2.560   4.845  1.6990 -0.3277 -0.1899
28973SOL    HW290325   5.078   2.436   4.758 -2.9353 -0.4988 -0.0932
28974SOL     OW90326   2.152  10.137   1.214 -0.2261 -0.1663  0.6489
28974SOL    HW190327   2.154  10.232   1.209 -2.1841 -0.0049  2.1972
28974SOL    HW290328   2.114  10.118   1.300  3.0495 -2.3720  1.7113
28975SOL     OW90329   9.848  10.814   6.026  0.2651  0.3924 -0.2534
28975SOL    HW190330   9.925  10.870   6.038  0.7075 -0.2317 -0.1349
28975SOL    HW290331   9.775  10.875   6.017  0.8313  1.0069 -0.7969
28976SOL     OW90332   7.713   8.888   1.533 -0.2661 -0.4042 -0.2323
28976SOL    HW190333   7.786   8.847   1.580 -0.2746 -0.7388 -0.5047
28976SOL    HW290334   7.703   8.834   1.454 -0.3121  0.0980 -0.5676
28977SOL     OW90335   4.854   8.934   4.256  0.3055 -0.2499 -0.1695
28977SOL    HW190336   4.870   8.979   4.339  1.3943 -0.7461 -0.1035
28977SOL    HW290337   4.941   8.925   4.217 -0.0063 -1.5547 -0.5644
28978SOL     OW90338   1.203   9.068   5.741 -0.2395 -0.1258 -0.1903
28978SOL    HW190339   1.117   9.028   5.751  0.3882 -1.1028  1.6197
28978SOL    HW290340   1.235   9.034   5.658 -2.1124  1.2912 -1.5271
28979SOL     OW90341   0.096   5.820   9.401 -0.0085  0.2297  0.1341
28979SOL    HW190342   0.024   5.835   9.341 -0.1034 -0.4121  0.0859
28979SOL    HW290343   0.172   5.859   9.358  0.0618 -0.8498 -0.7214
28980SOL     OW90344   8.879   0.685   3.342 -0.6003 -0.4446  0.1494
28980SOL    HW190345   8.857   0.768   3.299 -2.9505 -0.2827  1.6013
28980SOL    HW290346   8.834   0.618   3.290  0.4088 -0.7157 -0.3854
28981SOL     OW90347   4.359   4.226   1.763 -0.0780 -0.5012  0.2340
28981SOL    HW190348   4.448   4.253   1.743  0.1951 -0.7138  1.1141
28981SOL    HW290349   4.353   4.136   1.729  1.3971 -2.0544  3.7534
28982SOL     OW90350   6.533   0.601   3.173  0.5809  0.3851  0.3426
28982SOL    HW190351   6.485   0.678   3.142  2.6924  1.7260  0.3061
28982SOL    HW290352   6.504   0.591   3.264  0.1289  1.0944  0.2852
28983SOL     OW90353   1.742   1.524   0.636  0.2401 -0.3266  0.1886
28983SOL    HW190354   1.695   1.577   0.700  0.3535 -2.3540  2.0066
28983SOL    HW290355   1.816   1.488   0.685  0.3072 -1.9399 -1.0558
28984SOL     OW90356   4.097   5.886   3.600  0.5934  0.2332 -0.2777
28984SOL    HW190357   4.157   5.927   3.537  0.6135 -0.1091 -0.4807
28984SOL    HW290358   4.038   5.957   3.627  1.3961  0.6942  0.2953
28985SOL     OW90359   0.631   2.986  10.019  0.0131 -0.1827 -0.0907
28985SOL    HW190360   0.698   2.935  10.064 -0.6740  2.4576  4.2518
28985SOL    HW290361   0.674   3.016   9.939  2.1101 -3.1689 -0.1572
28986SOL     OW90362   9.285   3.239   9.154  0.4584 -0.0963 -0.7368
28986SOL    HW190363   9.307   3.243   9.061  1.6404 -2.8563 -0.6112
28986SOL    HW290364   9.201   3.193   9.157 -0.2072  1.0952 -0.4836
28987SOL     OW90365   1.498   0.206   4.973  0.1452  0.4969  0.4369
28987SOL    HW190366   1.496   0.111   4.963 -0.2057  0.5836 -0.3907
28987SOL    HW290367   1.428   0.225   5.035 -1.4387  0.4174 -1.2800
28988SOL     OW90368   4.526   0.247   9.828 -0.2146  0.5324  0.1311
28988SOL    HW190369   4.463   0.318   9.841 -0.9663  0.1227 -1.1907
28988SOL    HW290370   4.593   0.284   9.771 -0.1897  0.4300  0.0940
28989SOL     OW90371   2.168   7.395   4.548 -0.0237  0.1727 -0.1321
28989SOL    HW190372   2.178   7.490   4.537  2.2131 -0.2952 -2.4774
28989SOL    HW290373   2.082   7.375   4.511 -0.9714  1.3819  1.3154
28990SOL     OW90374   6.799   2.264   1.296 -0.0184 -0.3060 -0.0139
28990SOL    HW190375   6.774   2.316   1.220 -1.6767 -0.9862  0.0551
28990SOL    HW290376   6.869   2.207   1.264 -1.4967 -1.4112 -1.3578
28991SOL     OW90377   0.487   8.975   6.520 -0.1172 -0.6296  0.0713
28991SOL    HW190378   0.398   8.948   6.497  0.2949 -1.7906 -0.1909
28991SOL    HW290379   0.528   8.897   6.555  0.7925 -0.0907  0.2372
28992SOL     OW90380   2.290   3.682   8.068 -0.1447 -0.0087 -0.5075
28992SOL    HW190381   2.385   3.672   8.078 -0.2786 -0.9690 -0.1405
28992SOL    HW290382   2.267   3.748   8.134  0.2169 -0.0554 -0.3287
28993SOL     OW90383   7.202   0.786   5.173  0.3210  0.4540  0.3829
28993SOL    HW190384   7.128   0.730   5.150 -0.1581  1.8694 -1.6436
28993SOL    HW290385   7.200   0.791   5.269 -2.1045  0.3422  0.3536
28994SOL     OW90386   2.066   5.339   6.759  0.3575 -0.4907  0.0259
28994SOL    HW190387   2.140   5.364   6.703 -1.5996 -0.0003 -2.3830
28994SOL    HW290388   2.074   5.244   6.768  0.3157 -0.6643 -1.6441
28995SOL     OW90389   6.857   3.936   1.059 -0.3441 -0.3838 -0.6051
28995SOL    HW190390   6.767   3.964   1.042 -0.3045  1.7565  2.3456
28995SOL    HW290391   6.849   3.870   1.127  0.2386 -1.4498 -1.5486
28996SOL     OW90392   9.754   0.245   8.957 -0.9597  0.2170 -0.0414
28996SOL    HW190393   9.775   0.258   8.864  1.6083  0.3152  0.4998
28996SOL    HW290394   9.677   0.300   8.972 -0.9990  0.7288 -1.9636
28997SOL     OW90395   6.989   5.709   9.123  0.3231 -0.0377 -0.4023
28997SOL    HW190396   6.918   5.773   9.126 -0.0741 -0.4351 -1.3106
28997SOL    HW290397   7.043   5.736   9.048  1.1002  0.2223  0.2401
28998SOL     OW90398   5.992   6.532   6.557 -0.0836  0.2236 -0.3301
28998SOL    HW190399   5.927   6.576   6.612  0.3972  0.6839 -0.1304
28998SOL    HW290400   6.049   6.603   6.526  0.2357 -0.1619 -0.6224
28999SOL     OW90401   8.282   0.575  10.756 -0.2037  0.2538 -0.0346
28999SOL    HW190402   8.202   0.536  10.791  0.2124 -0.6656 -0.0866
28999SOL    HW290403   8.265   0.584  10.662  0.7469 -2.4855 -0.5175
29000SOL     OW90404   1.761   6.334   3.795 -0.0179  0.1725  0.2831
29000SOL    HW190405   1.734   6.356   3.706 -1.3945  0.3802  0.7426
29000SOL    HW290406   1.762   6.238   3.797  1.1669  0.1630 -0.2870
29001SOL     OW90407   1.219   0.163   0.731 -0.1153 -0.5399 -0.1877
29001SOL    HW190408   1.181   0.245   0.697 -0.1380 -0.5745 -0.2470
29001SOL    HW290409   1.177   0.151   0.816 -0.0318 -0.4336 -0.1319
29002SOL     OW90410   1.280   4.245   0.798  0.0561 -0.7519  0.8315
29002SOL    HW190411   1.320   4.320   0.841  1.4364  1.2421 -3.6101
29002SOL    HW290412   1.189   4.271   0.783  0.9172  0.8182 -2.1025
29003SOL     OW90413   2.981   7.900   6.210 -0.7537 -0.0901 -0.0793
29003SOL    HW190414   2.944   7.842   6.276  1.4637 -0.5981  0.7692
29003SOL    HW290415   3.039   7.844   6.158 -0.9886  0.7069 -1.2287
29004SOL     OW90416   7.513   8.702   6.663 -0.4879 -0.5371  0.4130
29004SOL    HW190417   7.576   8.674   6.597  0.5587  1.0773  0.7135
29004SOL    HW290418   7.455   8.627   6.674 -0.3318 -1.0274 -1.9218
29005SOL     OW90419   5.967   1.657   0.567 -0.3302  0.2058  0.0941
29005SOL    HW190420   5.980   1.606   0.648  0.0573 -1.1236 -0.7901
29005SOL    HW290421   6.052   1.652   0.522 -0.9828 -0.3210 -1.0952
29006SOL     OW90422  10.675   9.396   1.321 -0.1670  0.2862  0.4628
29006SOL    HW190423  10.640   9.374   1.234 -1.6564 -2.0442  1.6198
29006SOL    HW290424  10.752   9.450   1.302  0.6917 -1.7948 -2.3989
29007SOL     OW90425   9.426   8.413   2.545 -0.3439 -0.2951  0.4136
29007SOL    HW190426   9.506   8.464   2.554  0.2537 -0.7293 -1.9101
29007SOL    HW290427   9.441   8.334   2.597  2.8856 -2.7402 -3.8227
29008SOL     OW90428   6.599   7.995   1.376 -0.1922  0.9923  1.0651
29008SOL    HW190429   6.610   8.022   1.467  0.7201 -1.5342  1.7449
29008SOL    HW290430   6.677   8.029   1.331  0.8164 -0.2746  1.8442
29009SOL     OW90431   9.955   5.752   5.567 -0.6179 -0.3061 -0.2942
29009SOL    HW190432   9.876   5.697   5.569 -1.0866  0.3851  0.5955
29009SOL    HW290433  10.017   5.708   5.624 -0.3076 -0.9059 -1.0754
29010SOL     OW90434   2.188   3.891   2.580  0.1103  0.5512  0.0772
29010SOL    HW190435   2.184   3.816   2.639 -3.0009 -0.7118 -1.6107
29010SOL    HW290436   2.182   3.854   2.492 -3.1292  2.7674 -0.7514
29011SOL     OW90437   0.130   5.179   0.998 -0.2710 -0.0850 -0.1240
29011SOL    HW190438   0.184   5.210   0.925 -0.2052 -1.4157 -0.6596
29011SOL    HW290439   0.190   5.130   1.053 -0.2493  1.2053  1.0273
29012SOL     OW90440   4.469   4.726   1.211 -0.4478  0.1534 -0.7042
29012SOL    HW190441   4.495   4.798   1.154 -1.6570  0.6009 -0.7002
29012SOL    HW290442   4.393   4.759   1.260 -1.6715 -1.4465 -1.4521
29013SOL     OW90443   0.080   9.480   1.892 -0.0504  0.4048  0.3512
29013SOL    HW190444   0.089   9.385   1.879  0.0626  0.4775 -0.0811
29013SOL    HW290445  -0.009   9.491   1.925 -0.1305  0.1695  0.2116
29014SOL     OW90446   7.657   7.181   5.747 -0.3330  0.1868  0.0475
29014SOL    HW190447   7.747   7.211   5.761 -0.0893 -0.3757 -0.3030
29014SOL    HW290448   7.632   7.141   5.831  0.1943 -0.7912 -0.2542
29015SOL     OW90449   4.375   2.100   8.045 -0.1645  0.0862 -0.1286
29015SOL    HW190450   4.455   2.092   7.993  0.6729  0.9431  1.0087
29015SOL    HW290451   4.400   2.155   8.119 -1.1462 -1.7178  1.5800
29016SOL     OW90452   0.576   8.429   5.091 -0.2735 -0.0829 -0.4451
29016SOL    HW190453   0.611   8.341   5.107  1.4314  0.4826 -1.0012
29016SOL    HW290454   0.542   8.426   5.001  2.2064  0.5590 -1.4519
29017SOL     OW90455   1.224   2.061   1.855 -0.4556  0.7555 -0.1336
29017SOL    HW190456   1.195   2.152   1.846 -0.5520  0.6372 -1.0620
29017SOL    HW290457   1.253   2.036   1.767  0.4715  0.1943  0.3273
29018SOL     OW90458   5.756   4.258   8.835  0.1139 -0.3047 -0.2764
29018SOL    HW190459   5.731   4.317   8.764 -2.0176 -0.6972  0.1005
29018SOL    HW290460   5.851   4.250   8.828  0.1317  1.1027 -1.9401
29019SOL     OW90461   3.055   6.782   0.228 -0.6143  0.4755 -0.5766
29019SOL    HW190462   2.972   6.805   0.269 -0.8531 -1.9016  0.3823
29019SOL    HW290463   3.076   6.696   0.264  0.9604 -0.0991 -2.7510
29020SOL     OW90464   8.356   1.502   1.342  0.3807 -0.1142  0.6910
29020SOL    HW190465   8.387   1.592   1.356  1.8953 -0.4234 -0.6172
29020SOL    HW290466   8.384   1.480   1.253  0.8976 -2.2362  1.3580
29021SOL     OW90467   4.118   3.602   3.479  0.4371 -0.3091 -0.1285
29021SOL    HW190468   4.068   3.523   3.496 -0.9033  0.0758 -2.2100
29021SOL    HW290469   4.054   3.673   3.482  1.4022  0.5579  0.4040
29022SOL     OW90470   8.489   3.578   1.615 -0.2416  0.3192 -0.4025
29022SOL    HW190471   8.421   3.521   1.649  0.2745 -0.3652 -0.5044
29022SOL    HW290472   8.501   3.644   1.683  0.4244 -0.7484  0.5451
29023SOL     OW90473   3.319   2.166   2.037  0.6328  0.1430  0.0492
29023SOL    HW190474   3.252   2.100   2.017 -0.2337  0.7175  1.0138
29023SOL    HW290475   3.271   2.237   2.080  2.1392 -0.2616  2.4970
29024SOL     OW90476   2.171   0.287   7.403 -0.3673 -0.3913  0.0462
29024SOL    HW190477   2.132   0.200   7.411 -0.1572 -0.5382 -0.5316
29024SOL    HW290478   2.262   0.275   7.430 -0.4878 -0.2301  0.5314
29025SOL     OW90479   6.921   2.840   2.680 -0.5050  0.0076 -0.3718
29025SOL    HW190480   6.932   2.765   2.739  1.5509  0.4194 -0.1908
29025SOL    HW290481   6.909   2.801   2.593 -0.3992 -0.5538 -0.1343
29026SOL     OW90482   9.295   5.944   4.420  0.1403  0.0269 -0.3420
29026SOL    HW190483   9.230   6.003   4.381  1.6561  1.1739 -1.1969
29026SOL    HW290484   9.263   5.856   4.400 -1.3867  0.5645 -0.3393
29027SOL     OW90485   8.460  10.488   9.231 -0.7260 -0.0477  0.3762
29027SOL    HW190486   8.482  10.403   9.195  3.0582  0.8740  0.3691
29027SOL    HW290487   8.460  10.475   9.326 -0.2945 -0.0793  0.3702
29028SOL     OW90488   7.747   5.545   5.471  0.4820  0.5224  0.2274
29028SOL    HW190489   7.772   5.464   5.428  1.2190  0.2786  1.1108
29028SOL    HW290490   7.657   5.561   5.441  1.0657  0.5123 -1.6006
29029SOL     OW90491   6.544   1.314   4.939  0.4703 -0.3205 -0.5554
29029SOL    HW190492   6.596   1.248   4.985  1.4946  1.3617  0.7364
29029SOL    HW290493   6.586   1.397   4.959 -1.3457  0.8479 -1.4067
29030SOL     OW90494   7.716  10.410   6.693 -0.0242  0.7182  0.0868
29030SOL    HW190495   7.805  10.376   6.683  0.3917  2.0036 -0.6417
29030SOL    HW290496   7.699  10.458   6.612 -0.6503  2.1188  1.0308
29031SOL     OW90497   2.930   3.871   9.875  0.5522 -0.2759 -0.4059
29031SOL    HW190498   2.932   3.795   9.817  1.4978 -1.8687  1.6838
29031SOL    HW290499   3.019   3.879   9.908  0.3740  1.5176 -0.2988
29032SOL     OW90500   0.382   1.314   6.752  0.3868  0.7727 -0.2046
29032SOL    HW190501   0.360   1.359   6.670  1.6931  1.6967 -0.0650
29032SOL    HW290502   0.455   1.256   6.729  1.6232  1.9801  0.5455
29033SOL     OW90503  10.140   0.025   0.375 -0.6332  0.3521 -0.1915
29033SOL    HW190504  10.117  -0.031   0.301 -1.9425  0.0659  0.4132
29033SOL    HW290505  10.059   0.071   0.397 -0.5504 -0.3646  1.7393
29034SOL     OW90506   6.018   4.406   4.731  0.0145  0.3638 -0.7534
29034SOL    HW190507   6.020   4.432   4.823  0.8285  1.2707 -1.0140
29034SOL    HW290508   5.968   4.324   4.730  1.7488 -0.7405  0.7654
29035SOL     OW90509   4.905   8.192   0.239 -0.5063 -0.1750  0.1270
29035SOL    HW190510   4.836   8.148   0.188 -0.5822  2.0701 -1.7978
29035SOL    HW290511   4.869   8.198   0.327 -2.2964 -0.1196 -0.5717
29036SOL     OW90512   7.592   0.311   5.308  0.0984 -0.3766 -0.7218
29036SOL    HW190513   7.657   0.291   5.240  0.3111 -1.3290 -0.2410
29036SOL    HW290514   7.574   0.404   5.296  2.1226  0.0886 -0.3660
29037SOL     OW90515   7.110   3.380  10.107  0.1873  0.7374  0.0143
29037SOL    HW190516   7.122   3.426  10.024  0.3565 -1.6108 -1.3123
29037SOL    HW290517   7.028   3.414  10.143 -1.5637 -0.4910 -2.6818
29038SOL     OW90518  10.815   0.759   3.114 -0.2266 -0.3178  0.0010
29038SOL    HW190519  10.779   0.712   3.189  0.6876 -1.0549 -0.0213
29038SOL    HW290520  10.878   0.820   3.152 -0.8914  0.4040 -0.0356
29039SOL     OW90521   3.873   3.753   4.704 -0.0379 -0.1146 -0.0166
29039SOL    HW190522   3.937   3.682   4.707  0.4988  0.3711  0.0948
29039SOL    HW290523   3.803   3.721   4.648 -0.2285 -1.0958  0.7793
29040SOL     OW90524   3.630   9.681   2.846  0.2567  0.1790  0.1582
29040SOL    HW190525   3.564   9.739   2.808 -0.2622 -0.3000  0.3055
29040SOL    HW290526   3.714   9.718   2.819 -0.1020 -0.2726 -1.6221
29041SOL     OW90527   9.100   5.027   5.177 -0.6503  0.3522  0.7378
29041SOL    HW190528   9.025   4.974   5.203  0.3234 -0.3849  2.0809
29041SOL    HW290529   9.176   4.972   5.194  0.1144  0.3188 -2.5467
29042SOL     OW90530   5.168   5.770   0.185  0.0943  0.1541 -0.2619
29042SOL    HW190531   5.097   5.799   0.127 -1.1096  0.2865  1.2577
29042SOL    HW290532   5.163   5.675   0.184  1.7587  0.0395 -2.4106
29043SOL     OW90533   5.296   4.892   5.006 -0.3347  0.6445  0.4439
29043SOL    HW190534   5.340   4.811   4.979 -3.2994 -0.1447 -2.4158
29043SOL    HW290535   5.310   4.898   5.100  1.9704 -1.9375  0.3103
29044SOL     OW90536  10.916  10.474   7.791  0.3693 -0.4745 -0.0672
29044SOL    HW190537  10.903  10.537   7.862 -0.1127 -0.9233  0.2414
29044SOL    HW290538  10.830  10.433   7.778  0.3065  0.0324 -1.3180
29045SOL     OW90539   5.034   1.047   8.966 -0.0950 -0.5788 -1.1180
29045SOL    HW190540   5.071   0.963   8.993  0.0768 -0.5938 -1.3890
29045SOL    HW290541   4.950   1.025   8.927 -1.2338 -0.3588  1.1667
29046SOL     OW90542   4.678   1.206  10.534 -0.3209 -0.5545 -0.3462
29046SOL    HW190543   4.622   1.146  10.484 -0.8371  0.3886 -0.9133
29046SOL    HW290544   4.694   1.279  10.474 -1.1035  0.6812  0.9155
29047SOL     OW90545   9.743   6.401   6.440  0.0783 -0.2715  0.3810
29047SOL    HW190546   9.786   6.350   6.509  1.3836  0.3301  0.0406
29047SOL    HW290547   9.812   6.414   6.375 -1.2504 -1.2121 -1.2518
29048SOL     OW90548   4.898   0.982   7.818 -0.3420  0.0546  0.2332
29048SOL    HW190549   4.867   1.051   7.759  0.8514 -0.3808 -0.9354
29048SOL    HW290550   4.890   0.902   7.767 -1.4722 -0.6620  1.4951
29049SOL     OW90551   1.059   6.249   1.209  0.0402 -0.0731 -0.1137
29049SOL    HW190552   0.998   6.215   1.143  2.6974 -1.8689 -1.7634
29049SOL    HW290553   1.142   6.208   1.187  2.2133  3.4572  1.1801
29050SOL     OW90554   6.816   1.708   9.954 -0.5721 -0.6058 -0.5578
29050SOL    HW190555   6.852   1.619   9.954 -0.6103 -0.6210 -0.3785
29050SOL    HW290556   6.743   1.704  10.016 -1.7892 -0.9443 -1.9909
29051SOL     OW90557   5.588   8.223   5.104  0.0815  0.0726  0.3224
29051SOL    HW190558   5.565   8.138   5.142 -0.5251  0.7724  1.5473
29051SOL    HW290559   5.515   8.245   5.047  0.0515 -0.0460  0.3158
29052SOL     OW90560   7.848   4.624   0.068 -0.0639 -0.1743  0.6200
29052SOL    HW190561   7.837   4.712   0.104  2.4120 -0.2409  1.6383
29052SOL    HW290562   7.858   4.568   0.145  0.3936 -1.0491 -0.0740
29053SOL     OW90563   0.205   7.853   5.605  0.0089 -0.5552  0.1459
29053SOL    HW190564   0.156   7.935   5.606 -0.1060 -0.6306  0.5257
29053SOL    HW290565   0.297   7.880   5.593 -0.0773 -0.3977 -0.1853
29054SOL     OW90566   6.059  10.898   5.916 -0.5075  0.0354 -0.1488
29054SOL    HW190567   6.072  10.992   5.903 -2.2324  0.3405  0.2559
29054SOL    HW290568   6.146  10.860   5.901  0.5501  1.8424  1.1314
29055SOL     OW90569   8.839   5.667   1.139 -0.3615  0.0406  0.0023
29055SOL    HW190570   8.905   5.673   1.070  0.5037  0.6967  0.8666
29055SOL    HW290571   8.770   5.613   1.101  0.1508  0.2932 -1.3324
29056SOL     OW90572   3.938   3.973  10.221 -0.4722  0.4676  0.0030
29056SOL    HW190573   3.919   4.064  10.195 -1.0615 -0.2046 -2.0310
29056SOL    HW290574   4.021   3.953  10.178  0.0051  0.2436  1.0093
29057SOL     OW90575   8.711   8.504   2.254 -0.3997  0.2099  0.7043
29057SOL    HW190576   8.706   8.523   2.347  1.2049  0.0059  0.8467
29057SOL    HW290577   8.728   8.409   2.249  0.5871  0.3966  0.2535
29058SOL     OW90578   1.237   2.562   7.782  0.7044 -0.0885 -0.1111
29058SOL    HW190579   1.187   2.629   7.830  2.6353  1.2005  0.1733
29058SOL    HW290580   1.244   2.489   7.844  0.3161  0.2419  0.3275
29059SOL     OW90581   6.553   5.674   4.696 -0.3693 -0.5688 -0.5392
29059SOL    HW190582   6.462   5.647   4.710 -0.1078 -0.6396  1.1055
29059SOL    HW290583   6.601   5.592   4.684 -0.8698 -0.4415 -3.7683
29060SOL     OW90584   0.696   0.163   2.849 -0.1249 -0.1835 -0.2687
29060SOL    HW190585   0.768   0.199   2.899 -1.1557  1.5486  0.0104
29060SOL    HW290586   0.628   0.145   2.914 -0.6724  0.0699 -0.7642
29061SOL     OW90587  10.707   0.601   7.956 -0.0986 -0.4002 -0.3115
29061SOL    HW190588  10.627   0.647   7.980 -0.3800 -0.9372 -0.2059
29061SOL    HW290589  10.730   0.637   7.870  1.1828  1.8788  0.9396
29062SOL     OW90590   7.941   9.227   8.585 -0.0475 -0.3196 -0.2081
29062SOL    HW190591   7.875   9.236   8.654  0.8583  3.0415  0.3164
29062SOL    HW290592   7.915   9.149   8.537 -3.4114 -0.0755  1.0837
29063SOL     OW90593   0.803   1.548   9.951  0.9384  0.1434  0.4551
29063SOL    HW190594   0.776   1.605  10.023  3.1424  2.2508 -0.3173
29063SOL    HW290595   0.823   1.608   9.879 -1.6359 -1.9465 -2.1055
29064SOL     OW90596   9.240   6.386   1.629  0.1151  0.5804 -0.1299
29064SOL    HW190597   9.287   6.458   1.587  1.3971 -0.9200 -1.3289
29064SOL    HW290598   9.242   6.315   1.565 -1.1858 -0.5112  1.0042
29065SOL     OW90599   6.792   4.808   8.988 -0.5319 -0.0554  0.4643
29065SOL    HW190600   6.744   4.726   8.993 -0.4889 -0.0620  0.7746
29065SOL    HW290601   6.772   4.853   9.070  0.9455 -0.5989  1.1595
29066SOL     OW90602   1.077   3.207   3.850 -1.0461 -0.4788  0.9461
29066SOL    HW190603   1.168   3.233   3.833 -1.2889 -0.0613  0.2687
29066SOL    HW290604   1.045   3.269   3.915 -1.2577  0.1951  0.2023
29067SOL     OW90605   7.621   7.119   7.562  0.4254  0.1203 -0.5070
29067SOL    HW190606   7.713   7.093   7.566  0.2846 -0.4799 -1.0834
29067SOL    HW290607   7.576   7.045   7.521 -0.2280  0.6416 -0.7588
29068SOL     OW90608   5.288   5.175   1.267 -0.3453 -0.8769  0.1774
29068SOL    HW190609   5.273   5.262   1.303 -1.9206 -1.5085  1.0753
29068SOL    HW290610   5.202   5.133   1.266 -0.1761 -1.2741 -3.3644
29069SOL     OW90611   0.635   5.495   2.817 -0.2956 -0.0397 -0.2069
29069SOL    HW190612   0.673   5.528   2.735  1.2633  1.8923  1.2532
29069SOL    HW290613   0.687   5.418   2.838 -1.9016 -1.6718 -1.9581
29070SOL     OW90614   0.814   8.870   4.098 -0.2731  0.4269 -0.2769
29070SOL    HW190615   0.824   8.893   4.190 -0.8227  1.0242 -0.3611
29070SOL    HW290616   0.739   8.922   4.069 -0.2718  0.0302 -0.9889
29071SOL     OW90617   7.543   7.220   6.974  0.2321 -0.2271 -0.6950
29071SOL    HW190618   7.474   7.279   6.944  0.0973 -0.0305 -0.0011
29071SOL    HW290619   7.625   7.268   6.958  0.1226  0.1694 -0.1115
29072SOL     OW90620   3.139   6.094   4.865  0.0067  0.3976  0.4428
29072SOL    HW190621   3.146   6.001   4.847 -1.0076  0.7740 -2.1138
29072SOL    HW290622   3.096   6.100   4.950 -0.7448 -1.4437  0.1945
29073SOL     OW90623   9.132   8.717   8.457 -0.1029 -0.0800 -0.4107
29073SOL    HW190624   9.146   8.753   8.369 -1.3997 -0.9943 -1.0238
29073SOL    HW290625   9.218   8.687   8.484  0.4734  0.9839 -1.0245
29074SOL     OW90626   0.054  10.916   6.946  0.3083  0.3016 -0.1536
29074SOL    HW190627   0.063  10.827   6.978 -2.2330  0.4053  0.9203
29074SOL    HW290628   0.129  10.928   6.888  1.4490 -2.0422  0.7785
29075SOL     OW90629   0.896   6.488   3.971 -0.5562  0.4195 -0.2004
29075SOL    HW190630   0.920   6.573   3.933 -0.0171  0.5640  0.4552
29075SOL    HW290631   0.927   6.493   4.061  0.7436 -1.0047 -0.5577
29076SOL     OW90632   5.729   7.581   9.871  0.3545 -0.6635  0.1343
29076SOL    HW190633   5.707   7.644   9.940  0.8008 -0.7623  0.3638
29076SOL    HW290634   5.683   7.501   9.897 -1.6669  0.0595 -1.0775
29077SOL     OW90635   7.594   6.573   1.496 -0.3590 -0.0668 -0.1617
29077SOL    HW190636   7.622   6.490   1.458 -0.2616 -1.7667  3.4315
29077SOL    HW290637   7.500   6.564   1.509 -0.9182  1.6501 -2.6270
29078SOL     OW90638   4.330   5.109   8.534  1.2367  0.8659 -0.0387
29078SOL    HW190639   4.346   5.181   8.595  0.4165  0.7391  0.3411
29078SOL    HW290640   4.331   5.150   8.448  0.6793  1.3490  0.1830
29079SOL     OW90641   4.939   4.052   9.965  0.1621 -0.1017  0.3673
29079SOL    HW190642   4.870   4.002   9.919  1.1714 -1.7042  0.5578
29079SOL    HW290643   4.966   4.118   9.901  0.8957 -1.7122 -1.0374
29080SOL     OW90644   0.585   9.677  10.648 -0.1377 -0.2472  0.6890
29080SOL    HW190645   0.551   9.603  10.598 -1.6761 -0.7797  2.4418
29080SOL    HW290646   0.584   9.646  10.739  0.7953  1.3455  1.2539
29081SOL     OW90647   3.761   3.379   4.778  0.0601  0.4458 -0.3773
29081SOL    HW190648   3.788   3.360   4.689  0.7684 -0.5403  0.0422
29081SOL    HW290649   3.842   3.384   4.828 -0.3869 -0.1435  0.4302
29082SOL     OW90650  10.148   1.269   5.715  0.0320  0.2153  0.0868
29082SOL    HW190651  10.102   1.204   5.661  0.8891  0.1839 -0.6273
29082SOL    HW290652  10.235   1.275   5.675 -0.0981  1.9301  0.0570
29083SOL     OW90653   3.595   1.918   6.035 -0.9349 -0.4498  1.3494
29083SOL    HW190654   3.508   1.887   6.008 -0.0099 -1.1281 -1.0471
29083SOL    HW290655   3.626   1.969   5.960  1.0748 -0.9451  1.8098
29084SOL     OW90656   1.841   7.454   0.675 -0.0304 -0.1040 -0.2429
29084SOL    HW190657   1.755   7.474   0.641 -1.0574 -0.3617  2.0783
29084SOL    HW290658   1.825   7.388   0.743  2.0661 -0.6939 -0.2801
29085SOL     OW90659   9.424   0.226   0.038  0.5616  0.4156  0.1951
29085SOL    HW190660   9.437   0.216  -0.056  3.0723  2.6673  0.2272
29085SOL    HW290661   9.428   0.137   0.073 -1.1685 -0.5030 -1.8955
29086SOL     OW90662   9.850   1.610   5.727 -0.2378 -0.0273  0.0722
29086SOL    HW190663   9.792   1.687   5.732 -0.4992 -0.0953 -1.6896
29086SOL    HW290664   9.922   1.638   5.670  0.6449 -0.4860  0.9385
29087SOL     OW90665   2.479   5.469   7.438  0.2483 -0.1833  0.5962
29087SOL    HW190666   2.464   5.383   7.479  1.0212 -0.2728  0.7011
29087SOL    HW290667   2.572   5.486   7.452  0.1308  0.5976  0.4197
29088SOL     OW90668   5.252   1.502   2.778  0.4815 -0.0096  0.6232
29088SOL    HW190669   5.281   1.469   2.863 -2.8617 -1.4465  1.2592
29088SOL    HW290670   5.282   1.435   2.716  0.8525 -0.1381  0.9344
29089SOL     OW90671   0.372   9.106   1.489  0.1315 -0.3948  0.2919
29089SOL    HW190672   0.319   9.185   1.494 -0.3067 -0.6736  0.0398
29089SOL    HW290673   0.382   9.078   1.580 -0.3782 -0.4962  0.3156
29090SOL     OW90674   7.731   6.697   3.826  0.2000 -0.5787  0.3289
29090SOL    HW190675   7.825   6.680   3.837  0.1236 -0.2369  1.6205
29090SOL    HW290676   7.689   6.625   3.873 -0.1527  0.9528  2.3828
29091SOL     OW90677   1.882   8.524   2.736  0.1268  0.4508  0.0030
29091SOL    HW190678   1.916   8.562   2.816 -1.5295  2.2693 -0.1238
29091SOL    HW290679   1.862   8.433   2.759 -1.0028  1.1443  1.8513
29092SOL     OW90680   2.970   9.861   5.751 -0.0104 -0.5635  0.1490
29092SOL    HW190681   2.980   9.771   5.720 -0.8911 -0.6157 -0.0106
29092SOL    HW290682   3.059   9.891   5.769  0.3404 -1.2364 -0.4486
29093SOL     OW90683   3.609   6.714   9.534  1.0793  0.0771 -0.2859
29093SOL    HW190684   3.684   6.654   9.543  1.9471  1.0926 -0.6029
29093SOL    HW290685   3.625   6.782   9.599  0.7327  0.6059 -0.7486
29094SOL     OW90686  10.148   3.717   4.613 -0.1926  0.2628 -0.3720
29094SOL    HW190687  10.206   3.793   4.606  0.1794  0.0653  0.5419
29094SOL    HW290688  10.135   3.706   4.707 -1.7222  0.3082 -0.5690
29095SOL     OW90689   5.129   9.785   4.506  0.2301  0.1417 -0.2570
29095SOL    HW190690   5.175   9.712   4.548  0.1681  0.8591  1.0727
29095SOL    HW290691   5.158   9.782   4.415  0.8110 -1.0815 -0.0400
29096SOL     OW90692   6.427   8.040   6.601  0.0711  0.1941  0.1070
29096SOL    HW190693   6.395   8.085   6.679 -0.8924  1.8098 -1.1855
29096SOL    HW290694   6.420   8.105   6.531  2.3172 -0.7523 -1.0469
29097SOL     OW90695   6.676   3.815   6.691 -0.1618 -0.3293 -0.3730
29097SOL    HW190696   6.726   3.800   6.612 -2.9486 -0.4483 -2.1795
29097SOL    HW290697   6.655   3.727   6.723 -0.2517 -0.2762 -0.2846
29098SOL     OW90698   5.879   1.417   2.235  0.5451  1.0147  0.3726
29098SOL    HW190699   5.797   1.454   2.266 -0.6393 -0.1243 -1.3304
29098SOL    HW290700   5.909   1.479   2.168  1.3077  1.6376  1.2663
29099SOL     OW90701   1.742   0.001   4.713 -0.0936  0.8610  0.2225
29099SOL    HW190702   1.679   0.036   4.651 -1.3703 -1.3596  0.2284
29099SOL    HW290703   1.704  -0.082   4.742  2.7097 -0.4235  0.3921
29100SOL     OW90704   9.521   5.494   8.394 -0.5292  0.1929  0.3637
29100SOL    HW190705   9.490   5.435   8.326 -0.2022 -0.3320  0.6608
29100SOL    HW290706   9.442   5.538   8.427 -0.9720 -1.1805  1.1641
29101SOL     OW90707   2.000   3.135  10.143 -0.6345  0.6911 -0.0073
29101SOL    HW190708   2.084   3.124  10.187 -2.2877 -3.2090  2.4802
29101SOL    HW290709   2.004   3.077  10.067 -1.8832 -1.3868  1.4686
29102SOL     OW90710   6.393   1.451  10.543  0.1555 -0.1020 -0.6194
29102SOL    HW190711   6.331   1.523  10.530  0.8879  0.8414  0.9402
29102SOL    HW290712   6.476   1.484  10.508  0.5777 -0.0425  0.4290
29103SOL     OW90713   7.160   7.729   4.899 -0.4609  0.0670 -0.3591
29103SOL    HW190714   7.186   7.812   4.940 -1.8394  1.0922 -1.4940
29103SOL    HW290715   7.075   7.709   4.939  0.7532 -1.8352  1.3342
29104SOL     OW90716   6.188   1.528   2.367 -0.5071  0.1944 -0.6382
29104SOL    HW190717   6.252   1.536   2.437 -0.5976  0.2727 -0.5653
29104SOL    HW290718   6.104   1.524   2.411 -0.3690 -3.0167 -0.5437
29105SOL     OW90719   4.519   7.514   5.708 -0.2661  0.1957  0.0467
29105SOL    HW190720   4.553   7.438   5.660  2.6959 -0.3113  2.7985
29105SOL    HW290721   4.594   7.572   5.719 -1.3903  1.3480  2.0804
29106SOL     OW90722   7.366   9.842   1.091 -0.6620 -0.5982  0.4269
29106SOL    HW190723   7.361   9.907   1.022  0.8743  0.1459  0.9893
29106SOL    HW290724   7.307   9.874   1.160  0.0943  0.2085  0.7030
29107SOL     OW90725   2.227   5.922  10.730  0.2667  0.2028  0.7774
29107SOL    HW190726   2.296   5.907  10.794 -0.0180 -0.3428  0.9563
29107SOL    HW290727   2.153   5.954  10.781  0.3598  0.7207  0.5935
29108SOL     OW90728   5.866   3.982  10.336 -0.0591  0.0231 -0.3449
29108SOL    HW190729   5.852   4.071  10.369  0.3469  1.5466 -4.0289
29108SOL    HW290730   5.805   3.928  10.387  0.4756  2.1760  2.7257
29109SOL     OW90731   1.944   5.454   0.209 -0.2237 -0.1669  0.0250
29109SOL    HW190732   1.944   5.394   0.284 -1.6423 -0.0813  0.1109
29109SOL    HW290733   1.874   5.516   0.228 -1.3764 -0.8269 -1.8973
29110SOL     OW90734   9.309   0.495   5.872  0.0606 -0.1124  0.3669
29110SOL    HW190735   9.303   0.403   5.898  0.7132 -0.0467  0.7558
29110SOL    HW290736   9.400   0.519   5.890 -0.2259  0.7381  0.6949
29111SOL     OW90737   5.718   8.012   8.806  0.5458  0.3095  0.0163
29111SOL    HW190738   5.698   8.104   8.789  0.0972  0.3996  0.9965
29111SOL    HW290739   5.645   7.964   8.766  0.7820  0.3680 -0.4974
29112SOL     OW90740   8.094   4.636  10.261 -0.0387  0.3664  0.2462
29112SOL    HW190741   8.013   4.597  10.226  0.0450  2.0702 -2.0039
29112SOL    HW290742   8.079   4.641  10.355 -1.2552 -2.2630  0.2375
29113SOL     OW90743   1.138   9.571   7.720 -0.0028  0.1356 -0.5081
29113SOL    HW190744   1.061   9.520   7.747 -0.1983  0.8183  0.2595
29113SOL    HW290745   1.193   9.509   7.673 -0.7284 -0.5231 -0.4965
29114SOL     OW90746  10.030   0.999   7.871  0.3996  0.3409  0.0837
29114SOL    HW190747  10.106   1.009   7.928  0.6947  0.7967 -0.3817
29114SOL    HW290748  10.035   1.074   7.811 -0.1239  0.0850 -0.2854
29115SOL     OW90749   0.133   0.383   0.572  0.2305 -0.2467 -0.3689
29115SOL    HW190750   0.038   0.369   0.565  0.2641 -0.7487  0.1821
29115SOL    HW290751   0.159   0.413   0.485 -0.2056 -1.5191 -0.9504
29116SOL     OW90752   6.229   4.661   5.160  0.3809  0.4225  0.2971
29116SOL    HW190753   6.237   4.594   5.228 -1.4743 -1.2637 -1.1034
29116SOL    HW290754   6.139   4.693   5.168 -0.8331 -1.8518 -3.1660
29117SOL     OW90755   7.966   2.486   7.592  0.4333 -0.5788 -0.4613
29117SOL    HW190756   8.052   2.510   7.557  0.4702  1.0508  0.6472
29117SOL    HW290757   7.973   2.507   7.686 -1.0833 -0.6699 -0.3208
29118SOL     OW90758   5.779   0.404   6.359  0.1398  0.5091  0.2829
29118SOL    HW190759   5.840   0.442   6.295  0.1378  0.5877  0.3276
29118SOL    HW290760   5.833   0.389   6.437  0.4162 -0.6859 -0.1270
29119SOL     OW90761   7.655   2.725   0.850  0.0028  0.0682  0.5931
29119SOL    HW190762   7.638   2.719   0.944  1.0266  0.8499  0.8399
29119SOL    HW290763   7.672   2.818   0.834 -0.4100 -0.0190 -0.4154
29120SOL     OW90764   2.740   7.371   5.690 -0.5294 -0.1406 -0.2561
29120SOL    HW190765   2.763   7.341   5.602 -0.1121  0.0161 -0.2014
29120SOL    HW290766   2.728   7.291   5.741 -1.4161 -0.2473 -0.6167
29121SOL     OW90767   1.704   6.262   2.142  0.1762  0.0817  0.2671
29121SOL    HW190768   1.760   6.311   2.081  0.9750 -0.7373  0.3443
29121SOL    HW290769   1.615   6.288   2.117  0.5806  1.4560  0.2045
29122SOL     OW90770   9.784   3.081   5.712  0.2185  0.5623  0.0313
29122SOL    HW190771   9.823   3.044   5.792  0.5317 -1.0652 -0.8535
29122SOL    HW290772   9.856   3.124   5.668  0.0454  1.4673  0.6157
29123SOL     OW90773   9.751   5.149   8.907 -0.4182 -0.4376 -0.0251
29123SOL    HW190774   9.669   5.101   8.897 -1.7089  1.4578  1.1346
29123SOL    HW290775   9.788   5.117   8.989 -0.4383 -0.6598 -0.1014
29124SOL     OW90776   5.050   4.377  10.210 -0.4278 -0.3822 -0.1522
29124SOL    HW190777   5.116   4.426  10.259 -1.2673 -0.1831  0.8072
29124SOL    HW290778   4.999   4.332  10.278 -1.1765 -0.6487 -0.8901
29125SOL     OW90779   8.529  10.330   4.979  0.1207  0.3771 -0.2575
29125SOL    HW190780   8.612  10.339   5.026  0.9443  0.7947 -1.7291
29125SOL    HW290781   8.528  10.240   4.947  0.6879  0.7677 -1.4252
29126SOL     OW90782   8.372   2.922   7.513  0.6965 -0.3709  0.3403
29126SOL    HW190783   8.372   2.845   7.569 -2.7302 -0.6148  0.1072
29126SOL    HW290784   8.346   2.994   7.571  1.1382  0.1257 -0.0643
29127SOL     OW90785   9.694   1.596  10.474 -0.2575 -0.3958  0.0177
29127SOL    HW190786   9.755   1.617  10.546 -0.2241 -2.3602  0.5901
29127SOL    HW290787   9.725   1.649  10.401  1.0406  0.0140  0.8370
29128SOL     OW90788   7.170   5.264   1.895 -0.6565 -0.0409  0.2681
29128SOL    HW190789   7.089   5.234   1.937 -0.6498  0.0763  0.3635
29128SOL    HW290790   7.195   5.191   1.838 -1.1544  0.1576 -0.2123
29129SOL     OW90791   1.204   0.471   3.505 -0.5212  0.1096  0.0600
29129SOL    HW190792   1.214   0.530   3.431 -1.5284 -0.1010 -0.2556
29129SOL    HW290793   1.219   0.527   3.582 -2.8101  1.1424 -0.1720
29130SOL     OW90794  10.802   9.426   2.142 -0.1384  0.0374  0.1555
29130SOL    HW190795  10.806   9.503   2.199 -0.9125 -0.0744  0.3657
29130SOL    HW290796  10.756   9.360   2.194  0.4030 -0.5281 -0.0744
29131SOL     OW90797   4.468   1.997   9.091 -0.1843  0.0252 -0.3671
29131SOL    HW190798   4.507   1.987   9.004  0.0356 -1.4447 -0.1126
29131SOL    HW290799   4.473   2.091   9.109  0.6194  0.2185 -1.5450
29132SOL     OW90800   2.553   0.955   0.342 -0.0081 -0.2541 -0.0919
29132SOL    HW190801   2.521   0.911   0.264 -0.9959  0.0215  0.1435
29132SOL    HW290802   2.483   1.016   0.365  0.2516 -0.3549  1.0135
29133SOL     OW90803   6.841   8.774   6.223  0.0517  0.1080 -0.5429
29133SOL    HW190804   6.865   8.737   6.138 -1.3371  0.2794 -1.0237
29133SOL    HW290805   6.746   8.762   6.228 -0.3438  3.0784 -0.4481
29134SOL     OW90806   6.483   8.401   0.835 -0.2515  0.5773  0.2713
29134SOL    HW190807   6.403   8.430   0.791 -0.6213 -0.0800  0.5081
29134SOL    HW290808   6.547   8.470   0.817 -0.6043  0.6520 -0.7063
29135SOL     OW90809   9.565   8.225   0.989 -0.2789 -0.4606 -0.1191
29135SOL    HW190810   9.615   8.270   0.921  0.3018 -2.2237 -0.8976
29135SOL    HW290811   9.560   8.134   0.959 -1.6710 -0.8678  1.2613
29136SOL     OW90812   0.569   6.542   3.123  0.6625  0.4000 -0.3603
29136SOL    HW190813   0.656   6.524   3.157  0.9147 -1.3466 -1.8161
29136SOL    HW290814   0.584   6.577   3.035 -0.0393  2.8156  0.4277
29137SOL     OW90815   8.745   1.701   7.881 -0.2983  0.2114 -0.2254
29137SOL    HW190816   8.700   1.707   7.797 -0.7304 -2.6724 -0.2795
29137SOL    HW290817   8.838   1.696   7.859 -0.3620  0.2836 -0.4995
29138SOL     OW90818   7.863   3.687   6.363 -0.5187  0.4012  0.2222
29138SOL    HW190819   7.851   3.615   6.301 -0.3145  0.0076  0.6341
29138SOL    HW290820   7.920   3.650   6.431  1.5859  1.6787 -0.7938
29139SOL     OW90821   3.840   9.838   2.711 -0.4718  0.1298  0.4496
29139SOL    HW190822   3.910   9.800   2.658 -1.1464 -1.1635  0.4744
29139SOL    HW290823   3.885   9.891   2.776  0.5618 -1.6526  1.2228
29140SOL     OW90824   6.445  10.469   4.117 -0.1084 -0.2873  0.5901
29140SOL    HW190825   6.371  10.526   4.141  0.2998  0.2211  0.6464
29140SOL    HW290826   6.411  10.380   4.130 -1.2838 -0.0974 -1.1144
29141SOL     OW90827   8.549   6.045   4.447  0.0695  0.0895  0.1546
29141SOL    HW190828   8.613   6.086   4.505  0.1957  0.6249 -0.3550
29141SOL    HW290829   8.466   6.086   4.470 -0.0591 -0.4824  0.7005
29142SOL     OW90830   1.082   4.964   7.247 -0.2832  0.0641 -0.2994
29142SOL    HW190831   1.030   4.960   7.328 -2.2161  0.3897 -1.4935
29142SOL    HW290832   1.173   4.959   7.277 -0.9726 -0.1031  1.8760
29143SOL     OW90833  10.704   0.738   4.937 -0.5091  0.5503 -0.1985
29143SOL    HW190834  10.646   0.812   4.954 -2.8873 -0.6663 -2.6880
29143SOL    HW290835  10.645   0.665   4.920  1.7707 -1.1422 -1.0488
29144SOL     OW90836   4.932   6.223   2.031 -0.4610  0.8506 -0.4769
29144SOL    HW190837   4.870   6.277   1.984 -1.0470  0.3981 -0.2396
29144SOL    HW290838   4.946   6.268   2.114  1.0667  1.9778 -1.3324
29145SOL     OW90839   9.869   4.241   4.662 -0.3184 -0.3066 -0.4637
29145SOL    HW190840   9.935   4.310   4.668  0.3402 -0.9779  0.1907
29145SOL    HW290841   9.801   4.267   4.723 -0.5503  0.2683 -0.9605
29146SOL     OW90842   1.302   9.367   8.246  0.3176 -0.4718 -0.5601
29146SOL    HW190843   1.384   9.412   8.223  0.2272 -0.3919 -0.7287
29146SOL    HW290844   1.259   9.427   8.307 -0.3019  0.1670 -1.6101
29147SOL     OW90845   3.508   6.194   9.483 -0.3547  0.3434 -0.5450
29147SOL    HW190846   3.569   6.214   9.411  1.3192 -0.4223  0.6349
29147SOL    HW290847   3.504   6.275   9.533  1.4602 -0.2602  0.6307
29148SOL     OW90848   2.591  10.741   1.400 -0.1646 -0.0486  0.3693
29148SOL    HW190849   2.659  10.803   1.426  0.7135 -1.1186  0.6653
29148SOL    HW290850   2.508  10.785   1.421  0.4659  0.7225  1.2740
29149SOL     OW90851   1.301   3.796  10.629 -0.2558 -0.5157  0.5522
29149SOL    HW190852   1.235   3.730  10.652 -0.1538 -0.9771 -0.4528
29149SOL    HW290853   1.376   3.745  10.599 -0.7346  0.0489 -1.7395
29150SOL     OW90854   5.640   3.515   2.718  0.0825 -0.1089 -0.2893
29150SOL    HW190855   5.720   3.560   2.746  0.3940 -1.2103  0.6582
29150SOL    HW290856   5.572   3.582   2.718  0.6959  0.5107  0.3532
29151SOL     OW90857   8.834   0.295   7.236 -0.2669 -0.0760 -0.2051
29151SOL    HW190858   8.913   0.325   7.281 -0.3541 -0.8744  0.4842
29151SOL    HW290859   8.858   0.209   7.202 -0.8686 -0.3566  0.0864
29152SOL     OW90860   2.615   4.141   7.498 -0.4517  0.0511  0.8527
29152SOL    HW190861   2.697   4.090   7.501  0.2388  1.1817  1.5954
29152SOL    HW290862   2.586   4.132   7.407  1.9988  1.9277 -0.1843
29153SOL     OW90863   0.246   7.519   6.747 -0.3925 -0.6757  0.1942
29153SOL    HW190864   0.187   7.513   6.672  0.3394  1.2413 -0.5485
29153SOL    HW290865   0.296   7.437   6.745  0.2722 -0.2355 -1.9520
29154SOL     OW90866  10.306   1.084   5.430 -0.2350  0.0975  0.5363
29154SOL    HW190867  10.350   1.145   5.490 -1.5672  0.4882  1.1407
29154SOL    HW290868  10.223   1.064   5.473 -0.9261 -0.1463 -0.8798
29155SOL     OW90869   0.065  10.385   4.911  0.0351  1.0065 -0.4182
29155SOL    HW190870  -0.023  10.419   4.926 -0.5659  0.6969 -2.9163
29155SOL    HW290871   0.121  10.462   4.915 -0.6961  1.6038 -1.3846
29156SOL     OW90872   8.554   0.635   5.639 -0.0095 -0.5208  0.2485
29156SOL    HW190873   8.462   0.624   5.617  0.4313 -0.9805 -1.4272
29156SOL    HW290874   8.568   0.578   5.715 -0.9173 -1.0186  0.0477
29157SOL     OW90875   5.231   7.970   7.741  0.2811 -0.2330 -0.4055
29157SOL    HW190876   5.197   7.938   7.657  1.2155 -0.7655 -0.5886
29157SOL    HW290877   5.269   7.892   7.782  0.8325  0.2524  0.0135
29158SOL     OW90878   9.150   0.581   4.597  0.2597  0.3823  0.2855
29158SOL    HW190879   9.200   0.562   4.517 -0.7184 -0.0588 -0.2254
29158SOL    HW290880   9.170   0.509   4.656 -2.2949 -1.5181 -1.1112
29159SOL     OW90881   2.748   8.199   4.007  0.2198 -0.2690 -0.5028
29159SOL    HW190882   2.827   8.168   3.963  0.8485  0.2306  0.2619
29159SOL    HW290883   2.771   8.286   4.041 -0.9853  0.3205 -1.1628
29160SOL     OW90884   7.307   0.465   2.458 -0.2632 -0.2153 -0.0983
29160SOL    HW190885   7.227   0.446   2.409  0.1429  0.7958 -1.1895
29160SOL    HW290886   7.321   0.559   2.446  2.0288 -0.6763 -1.4104
29161SOL     OW90887   6.965   9.264   6.957  0.2477 -0.1264 -0.3565
29161SOL    HW190888   6.990   9.325   7.027  0.1340 -1.4484  0.8674
29161SOL    HW290889   6.878   9.232   6.983 -0.2984  0.2418 -1.7032
29162SOL     OW90890   0.219   2.145   3.097  0.7002  0.4153 -0.0315
29162SOL    HW190891   0.288   2.148   3.164  0.1278  0.9827  0.5425
29162SOL    HW290892   0.143   2.185   3.139  0.6632  1.8422 -1.4076
29163SOL     OW90893   4.556   7.408   6.538  0.1811 -0.1605  0.0792
29163SOL    HW190894   4.522   7.478   6.482  1.0706  0.1392 -0.1017
29163SOL    HW290895   4.480   7.376   6.586  0.0733  2.1542  1.5240
29164SOL     OW90896   1.119   0.878   5.654 -0.2814 -0.3785  0.3507
29164SOL    HW190897   1.118   0.828   5.736 -0.8135  0.0765  0.6205
29164SOL    HW290898   1.197   0.932   5.659 -0.4844 -0.1146  0.7049
29165SOL     OW90899   7.429   7.619  10.701 -0.8496 -0.1419  0.0254
29165SOL    HW190900   7.373   7.546  10.674  0.8838 -0.3351 -3.3175
29165SOL    HW290901   7.472   7.587  10.780 -2.3487 -1.5616  0.3121
29166SOL     OW90902   1.332   1.357   3.707 -0.2583 -0.0111 -0.5699
29166SOL    HW190903   1.356   1.325   3.793  0.8813 -0.1680 -0.9402
29166SOL    HW290904   1.329   1.452   3.717 -0.7327 -0.0631 -0.2075
29167SOL     OW90905   7.878   0.641   5.968  0.3161 -0.2360 -0.5839
29167SOL    HW190906   7.888   0.558   6.014  1.0571 -0.7137 -1.5774
29167SOL    HW290907   7.785   0.646   5.945  0.0882 -0.3356  0.3046
29168SOL     OW90908   5.099   1.927  10.267  0.2956  0.3390 -0.2115
29168SOL    HW190909   5.170   1.890  10.320  0.5726 -1.5723 -1.8608
29168SOL    HW290910   5.142   1.984  10.204  0.2469  0.0728 -0.4821
29169SOL     OW90911   4.692   4.036   6.644 -0.4915 -0.3352  0.3732
29169SOL    HW190912   4.636   4.003   6.574  0.5923 -0.2596 -0.5461
29169SOL    HW290913   4.638   4.100   6.690 -1.4719 -0.9460  0.0860
29170SOL     OW90914   6.147   2.613   5.644  0.0983 -0.4583  0.3293
29170SOL    HW190915   6.165   2.614   5.738 -1.5987 -1.2645  0.6910
29170SOL    HW290916   6.054   2.637   5.638  0.5850  1.1169 -1.2523
29171SOL     OW90917   0.293   5.578   2.626  0.4546 -0.3041  0.0675
29171SOL    HW190918   0.372   5.593   2.678  0.2342  1.1930 -0.0057
29171SOL    HW290919   0.222   5.575   2.691  0.2676  0.8571 -0.0763
29172SOL     OW90920   8.128   0.034   7.751 -0.0462 -0.1809  0.4407
29172SOL    HW190921   8.154  -0.042   7.802  1.5848 -1.6861 -2.5502
29172SOL    HW290922   8.032   0.035   7.757 -0.1138 -2.8139 -0.0085
29173SOL     OW90923   1.224   7.058   9.267 -0.1831 -0.4204  0.2746
29173SOL    HW190924   1.233   7.153   9.272  0.5582 -0.4633 -0.1748
29173SOL    HW290925   1.135   7.040   9.298 -1.0600  0.5870 -1.5769
29174SOL     OW90926   0.214   0.236  10.226 -0.3858 -0.6818 -0.3961
29174SOL    HW190927   0.123   0.232  10.197 -1.0199  0.5364  1.3382
29174SOL    HW290928   0.222   0.323  10.265  0.7499 -1.7994  1.9377
29175SOL     OW90929   7.838   4.353   9.590  0.2115 -0.5229 -0.1849
29175SOL    HW190930   7.826   4.281   9.527 -0.1318  0.0772 -0.8130
29175SOL    HW290931   7.749   4.373   9.619  0.3452 -0.6149  0.2837
29176SOL     OW90932   9.184   2.245   9.389  0.0482 -0.3706 -0.7784
29176SOL    HW190933   9.140   2.273   9.469  1.4496 -2.6969  0.8852
29176SOL    HW290934   9.276   2.268   9.403 -0.0585  1.3372 -2.7518
29177SOL     OW90935   7.652   3.736   5.437  0.3289 -0.4942  0.1536
29177SOL    HW190936   7.659   3.796   5.364  0.1760 -1.2349 -0.4717
29177SOL    HW290937   7.629   3.792   5.512  0.0442  0.1975 -0.4435
29178SOL     OW90938   7.986   8.387   5.001  0.0724  0.3468  0.3494
29178SOL    HW190939   8.035   8.337   4.935 -2.0053  0.3198 -1.2174
29178SOL    HW290940   7.920   8.326   5.033 -1.2822  1.5062 -0.2254
29179SOL     OW90941   0.897   2.500   4.848  0.1119 -0.2793 -0.0816
29179SOL    HW190942   0.825   2.438   4.832 -1.4544  0.8827  2.1357
29179SOL    HW290943   0.954   2.455   4.910 -1.7364  0.9241  2.5933
29180SOL     OW90944  10.517   2.417  10.227 -0.3069 -0.1335 -0.5205
29180SOL    HW190945  10.553   2.480  10.289  1.8098 -1.2650 -0.5514
29180SOL    HW290946  10.532   2.456  10.141 -2.0663  0.8364 -0.4168
29181SOL     OW90947   1.146  10.867   4.921  0.0880 -0.1186  0.2176
29181SOL    HW190948   1.161  10.912   5.004  1.4801 -0.0655 -0.0489
29181SOL    HW290949   1.218  10.896   4.865  0.5775 -2.0999 -0.1943
29182SOL     OW90950   0.173   0.028   4.820  0.0371 -0.2357  0.0633
29182SOL    HW190951   0.140   0.088   4.886  0.2489  2.1985 -1.9893
29182SOL    HW290952   0.264   0.013   4.845  0.7297  2.3190 -0.7573
29183SOL     OW90953   9.509   8.900   7.178  0.2073  0.2138  0.2343
29183SOL    HW190954   9.561   8.937   7.249  0.0715 -0.7451  0.8454
29183SOL    HW290955   9.464   8.975   7.140  0.7422  0.8185  0.7761
29184SOL     OW90956   2.684   6.236   9.869 -0.4076  0.0484  0.0369
29184SOL    HW190957   2.634   6.157   9.847 -0.2576  0.1190 -0.5515
29184SOL    HW290958   2.675   6.243   9.964 -0.3040 -0.7560  0.1130
29185SOL     OW90959   8.074   3.247   4.335  0.0282 -0.0015 -0.2597
29185SOL    HW190960   8.056   3.164   4.292 -0.9565  0.2294 -0.3195
29185SOL    HW290961   8.163   3.271   4.307 -0.1840 -0.3892 -1.2821
29186SOL     OW90962   3.639   9.984   0.638  0.2455 -0.1127 -0.1621
29186SOL    HW190963   3.714  10.042   0.633  1.1909 -1.0919  2.0156
29186SOL    HW290964   3.623   9.972   0.731 -0.7873 -2.2263 -0.5634
29187SOL     OW90965   1.821   1.889   8.367  0.0172  0.5078  0.2648
29187SOL    HW190966   1.811   1.819   8.432  0.6134 -0.2094 -0.3942
29187SOL    HW290967   1.913   1.882   8.339 -0.1198  1.0810 -0.3343
29188SOL     OW90968   6.362  10.789   1.328 -0.1733  0.2638  0.0702
29188SOL    HW190969   6.306  10.867   1.322 -1.4035 -0.6162 -0.0778
29188SOL    HW290970   6.404  10.797   1.413  0.1821  1.4073 -0.2010
29189SOL     OW90971   7.505   6.225   3.396  0.2949  0.1082  0.3267
29189SOL    HW190972   7.501   6.149   3.454 -1.1932  1.2042  1.7110
29189SOL    HW290973   7.433   6.213   3.334  0.2846  0.1932  0.3211
29190SOL     OW90974   4.948  10.808  10.520  0.2375 -0.2967  0.5114
29190SOL    HW190975   4.893  10.827  10.595 -2.0716 -0.1269 -1.1759
29190SOL    HW290976   4.887  10.801  10.446  2.4657 -0.0657 -1.4230
29191SOL     OW90977   6.416   0.579   7.168 -0.4906  0.1190 -0.1526
29191SOL    HW190978   6.456   0.583   7.255 -0.0186  0.0029 -0.3658
29191SOL    HW290979   6.465   0.643   7.116 -2.0459  1.6293  0.1815
29192SOL     OW90980   4.702   3.826   2.603  0.2279 -0.3338  0.0808
29192SOL    HW190981   4.644   3.802   2.675 -1.3777  0.8469 -0.7848
29192SOL    HW290982   4.644   3.863   2.536  2.0126  1.2770 -0.6386
29193SOL     OW90983   7.546   8.451   7.762  0.4427  0.2264  0.4900
29193SOL    HW190984   7.610   8.506   7.717 -0.6957  0.5971 -0.7247
29193SOL    HW290985   7.545   8.370   7.712  0.0215  0.1994  0.5412
29194SOL     OW90986   1.084  10.199   1.051 -0.7082  0.1407 -0.1257
29194SOL    HW190987   1.028  10.215   1.128 -0.1030  2.5070 -0.1571
29194SOL    HW290988   1.171  10.186   1.087 -0.6738 -0.1381 -0.3108
29195SOL     OW90989   1.326   0.074   2.677 -0.4637 -0.5600 -0.2567
29195SOL    HW190990   1.327   0.031   2.592  0.0903 -1.7401  0.3383
29195SOL    HW290991   1.274   0.017   2.733 -1.1579  0.4046  0.1117
29196SOL     OW90992   2.070   4.933   1.837  0.0569  0.1355 -0.0138
29196SOL    HW190993   2.089   4.886   1.756 -0.4139 -0.2989  0.1341
29196SOL    HW290994   1.977   4.918   1.854  0.2935 -0.3153  0.9553
29197SOL     OW90995  10.088   8.327   5.197  0.2533  0.3639 -0.0921
29197SOL    HW190996  10.132   8.410   5.177  0.5904 -0.0099 -0.9314
29197SOL    HW290997  10.099   8.316   5.291  2.8215 -0.2166 -0.4329
29198SOL     OW90998   0.622   9.918   7.412 -0.4745  0.5027 -0.0449
29198SOL    HW190999   0.552   9.870   7.455 -1.0150  1.0787 -0.2748
29198SOL    HW291000   0.596   9.923   7.320 -0.4818  1.3269 -0.0052
29199SOL     OW91001   8.300   9.317   2.611 -0.0676 -0.4065 -0.0239
29199SOL    HW191002   8.371   9.340   2.552  0.6817 -1.0674  0.6111
29199SOL    HW291003   8.249   9.252   2.564  0.0520 -0.3201 -0.2711
29200SOL     OW91004   6.436   3.358   3.265 -0.3506  0.1934  0.2031
29200SOL    HW191005   6.450   3.333   3.173 -0.6964  1.6818 -0.2672
29200SOL    HW291006   6.522   3.389   3.294 -0.3618  0.1947  0.2347
29201SOL     OW91007   2.756   2.787   8.378 -0.1433  0.1329  0.4746
29201SOL    HW191008   2.675   2.805   8.330  1.1685 -0.6422 -2.0844
29201SOL    HW291009   2.821   2.844   8.338  0.5626  0.9854  2.7340
29202SOL     OW91010   9.406   0.306   5.452  0.1029  0.0680 -0.1567
29202SOL    HW191011   9.478   0.337   5.398 -1.0066  0.6971 -1.2946
29202SOL    HW291012   9.339   0.375   5.446 -0.7078 -0.6292  0.6488
29203SOL     OW91013   6.211   4.697   2.992 -0.5117  0.1734  0.4507
29203SOL    HW191014   6.283   4.654   2.946 -0.7520 -0.0783  0.3065
29203SOL    HW291015   6.151   4.724   2.922  0.2057  1.8276  0.4343
29204SOL     OW91016   0.659   8.425   3.318 -0.0373 -0.0261  0.7689
29204SOL    HW191017   0.686   8.344   3.362  1.7694  0.0594 -0.1398
29204SOL    HW291018   0.686   8.495   3.378  1.5301  0.0472 -0.0138
29205SOL     OW91019   4.194   6.192  10.898 -0.1282  0.0678 -0.2877
29205SOL    HW191020   4.099   6.202  10.905 -0.2588  1.3289 -3.1555
29205SOL    HW291021   4.208   6.166  10.807  2.5826  4.5327 -1.2658
29206SOL     OW91022   7.167   6.234   9.971 -0.2321 -0.0762  0.5373
29206SOL    HW191023   7.162   6.312   9.916  0.9532  0.1039  0.6846
29206SOL    HW291024   7.139   6.263  10.057  2.2197  0.6802  1.0962
29207SOL     OW91025   8.412   1.935  10.777 -0.1137  0.2808 -0.2152
29207SOL    HW191026   8.384   1.918  10.867  2.0494  0.3195  0.4815
29207SOL    HW291027   8.418   2.030  10.772 -1.3947  0.3461 -0.7833
29208SOL     OW91028   7.096   4.585   1.217 -0.2874  0.3290 -0.0577
29208SOL    HW191029   7.097   4.668   1.264 -0.6016  0.7697 -0.8163
29208SOL    HW291030   7.044   4.526   1.271 -0.6180  0.8192  0.1561
29209SOL     OW91031   0.255   7.977   7.542  0.0044  0.4055 -0.1552
29209SOL    HW191032   0.330   8.037   7.543 -0.3602  0.8613  0.3803
29209SOL    HW291033   0.231   7.968   7.635 -0.8953  0.6441 -0.3593
29210SOL     OW91034   2.604   8.296   7.805 -0.3678  0.4669 -0.0753
29210SOL    HW191035   2.681   8.277   7.751  0.6691  1.1877  1.1270
29210SOL    HW291036   2.531   8.258   7.756  0.8596 -1.0405 -0.7944
29211SOL     OW91037   4.652   5.926   7.801 -0.1562  0.1813  0.5191
29211SOL    HW191038   4.668   5.858   7.736  3.4841  1.9450 -0.5645
29211SOL    HW291039   4.585   5.982   7.762  0.0745 -0.2717 -0.5383
29212SOL     OW91040   1.798   2.120   8.234 -0.3711  0.9187 -0.4321
29212SOL    HW191041   1.795   2.037   8.282  0.8132  2.0293  1.6552
29212SOL    HW291042   1.743   2.179   8.286 -1.2534  1.4236 -1.9323
29213SOL     OW91043  10.143   3.215   3.951  0.0791 -0.2529 -0.1006
29213SOL    HW191044  10.100   3.276   3.891  1.1966  0.0475 -0.6265
29213SOL    HW291045  10.174   3.144   3.895  1.4323  0.1982  0.0380
29214SOL     OW91046   8.852   0.223   3.832 -0.7229  0.0298 -0.0395
29214SOL    HW191047   8.821   0.148   3.781 -1.6039  1.5167 -1.7188
29214SOL    HW291048   8.797   0.222   3.911  1.0793 -2.6598  1.2889
29215SOL     OW91049   6.841   5.822   7.447 -0.0131 -0.2407 -0.5042
29215SOL    HW191050   6.798   5.898   7.406 -0.4907 -0.7000 -0.8726
29215SOL    HW291051   6.837   5.754   7.379  0.5008 -0.5603 -0.2112
29216SOL     OW91052   2.627   9.771   9.816  0.9727 -0.1887 -0.0243
29216SOL    HW191053   2.713   9.813   9.811  0.2289  1.3437 -0.2736
29216SOL    HW291054   2.574   9.818   9.751 -0.6643  0.3567  1.6688
29217SOL     OW91055   6.839   6.875   9.181 -0.1276 -0.3090  0.2798
29217SOL    HW191056   6.926   6.844   9.155 -0.5158  0.1310 -1.6435
29217SOL    HW291057   6.857   6.943   9.247  1.0813  0.9480 -1.2976
29218SOL     OW91058   1.889   5.611   8.360  0.4589  0.1296 -0.3389
29218SOL    HW191059   1.904   5.591   8.453  1.0528  1.2203 -0.1940
29218SOL    HW291060   1.845   5.696   8.361 -1.4942 -0.8523 -0.9729
29219SOL     OW91061   8.355   3.979   2.493  0.1983 -0.0791  0.7610
29219SOL    HW191062   8.301   4.053   2.465  1.1065  0.8011  1.2403
29219SOL    HW291063   8.409   4.016   2.563  1.9332 -0.7273 -0.2130
29220SOL     OW91064   0.280   6.016   9.228  0.4341 -0.0241  0.3250
29220SOL    HW191065   0.297   6.061   9.144 -4.6854  1.2306 -0.1940
29220SOL    HW291066   0.283   6.086   9.293  2.8075 -0.7506  1.0604
29221SOL     OW91067   4.565   1.897  10.587  0.2285 -0.3937 -0.1476
29221SOL    HW191068   4.504   1.970  10.595 -0.8311 -1.2565 -0.1670
29221SOL    HW291069   4.589   1.876  10.677  1.6982  0.9311 -0.2208
29222SOL     OW91070  10.860   0.664  10.107 -0.0185 -0.3834  0.6786
29222SOL    HW191071  10.858   0.687  10.201 -3.5570 -2.3753  1.1749
29222SOL    HW291072  10.813   0.736  10.065 -0.3011 -0.5709  0.6784
29223SOL     OW91073   2.317   9.146   9.972  0.6155  0.6192  0.5099
29223SOL    HW191074   2.383   9.206   9.939  0.8177 -0.5168 -1.1615
29223SOL    HW291075   2.305   9.082   9.903 -1.7501  0.4092  1.0537
29224SOL     OW91076  10.675   5.699   0.484 -0.2297 -0.0226  0.0623
29224SOL    HW191077  10.619   5.627   0.455  0.9062 -0.3548 -1.4157
29224SOL    HW291078  10.745   5.701   0.419  1.0969  0.8152  1.4928
29225SOL     OW91079  10.101   3.672   6.057  0.2769  0.2470  0.3843
29225SOL    HW191080  10.161   3.598   6.068  1.3549  1.1117  0.3938
29225SOL    HW291081  10.065   3.661   5.969  0.5814 -0.1834  0.3132
29226SOL     OW91082  10.505   7.561   9.729  0.0103  0.0798 -0.1601
29226SOL    HW191083  10.586   7.534   9.684 -0.4968  0.3300 -1.2389
29226SOL    HW291084  10.454   7.607   9.662 -0.7814  0.4279  0.6670
29227SOL     OW91085   7.888   4.314   0.515  0.1608  0.4122  0.4284
29227SOL    HW191086   7.827   4.311   0.589  1.3287  0.0630  1.3910
29227SOL    HW291087   7.954   4.247   0.536 -0.0698 -0.4378 -1.4345
29228SOL     OW91088   3.868   1.665   6.995  0.0725  0.0989 -0.1488
29228SOL    HW191089   3.866   1.631   7.085 -0.6726 -1.8956 -0.8786
29228SOL    HW291090   3.925   1.603   6.948 -1.0704  0.0113 -1.4530
29229SOL     OW91091   5.793   9.441   7.444 -0.3063 -0.1101 -0.7325
29229SOL    HW191092   5.808   9.530   7.475  0.6133 -0.5696  0.1886
29229SOL    HW291093   5.703   9.441   7.410 -0.2485  1.2014 -0.9061
29230SOL     OW91094   9.551   0.932   6.409 -0.3874 -0.6001  0.0216
29230SOL    HW191095   9.609   0.958   6.338  0.3663 -1.7191  0.2231
29230SOL    HW291096   9.476   0.991   6.401 -0.3237 -0.7195 -1.7178
29231SOL     OW91097   6.507   7.945   9.755  0.3540  0.4521  0.1663
29231SOL    HW191098   6.586   7.940   9.701 -0.3957  0.2725 -0.9035
29231SOL    HW291099   6.514   8.029   9.799  0.7510  0.7891 -0.5371
29232SOL     OW91100   9.517   9.771  10.198  0.7107  0.4916  0.3263
29232SOL    HW191101   9.460   9.696  10.183  1.6758 -0.2047  0.1191
29232SOL    HW291102   9.480   9.840  10.142 -1.1470  0.6922  1.7425
29233SOL     OW91103   0.759   9.173   8.378  0.2926  0.0050  0.2795
29233SOL    HW191104   0.775   9.138   8.291 -2.2864  0.0933 -0.2562
29233SOL    HW291105   0.670   9.146   8.400 -0.3775  2.8816  1.4473
29234SOL     OW91106   8.537  10.722   6.043  0.3739  0.1377 -0.4345
29234SOL    HW191107   8.573  10.810   6.045 -0.5976  0.5184  0.6420
29234SOL    HW291108   8.523  10.704   5.950  0.9915  0.9452 -0.6840
29235SOL     OW91109   7.989   5.062   4.090  0.2922  0.8594  0.1961
29235SOL    HW191110   7.964   5.021   4.173 -1.2265 -0.6991 -0.9752
29235SOL    HW291111   7.915   5.118   4.068  0.0546  0.1731 -0.7889
29236SOL     OW91112   3.629  10.693   6.387 -0.0055 -0.2261 -0.0191
29236SOL    HW191113   3.637  10.759   6.318  2.5015  0.1629  0.5984
29236SOL    HW291114   3.621  10.610   6.339 -0.0980  0.2153 -0.7778
29237SOL     OW91115   7.475   4.462   8.164 -0.5937  0.1736  0.0005
29237SOL    HW191116   7.390   4.467   8.119 -0.0794 -0.0056 -0.9885
29237SOL    HW291117   7.512   4.379   8.136 -0.4914 -0.1895  1.1734
29238SOL     OW91118   1.804   3.376   0.415 -0.0953  0.2268  0.2969
29238SOL    HW191119   1.879   3.430   0.441 -0.5172  0.3718  1.2580
29238SOL    HW291120   1.728   3.429   0.440 -0.5247  0.2557 -1.0377
29239SOL     OW91121   5.166   5.480   0.788  0.4718 -0.0613  0.6753
29239SOL    HW191122   5.240   5.481   0.849  0.5039  1.2657  0.6357
29239SOL    HW291123   5.089   5.489   0.844  0.4158 -0.2180  0.6233
29240SOL     OW91124   3.092   5.901   6.515 -0.1663  0.6778 -0.2462
29240SOL    HW191125   3.157   5.960   6.478  0.4851  0.1980  0.1131
29240SOL    HW291126   3.092   5.825   6.457 -2.0076  1.5986 -1.5025
29241SOL     OW91127   9.365   9.867  10.906 -0.1363  0.4683  0.2326
29241SOL    HW191128   9.446   9.888  10.953 -0.4836  1.4523  0.3947
29241SOL    HW291129   9.305   9.938  10.928 -1.3015 -0.6450  0.7148
29242SOL     OW91130   2.876   0.898   2.210  0.2798  0.5654 -0.8436
29242SOL    HW191131   2.943   0.944   2.261  0.3251 -0.2655 -0.1363
29242SOL    HW291132   2.802   0.958   2.208  0.9863  1.4155 -1.4774
29243SOL     OW91133   9.613   4.258   0.207 -0.1421  0.2871 -0.1639
29243SOL    HW191134   9.530   4.305   0.208  0.2668  1.0907 -2.2307
29243SOL    HW291135   9.677   4.322   0.239 -0.1395  0.0057  0.4016
29244SOL     OW91136   1.991   4.086   1.575  0.2804  0.1010 -0.6299
29244SOL    HW191137   1.949   4.015   1.623  1.2594  0.8696  1.4067
29244SOL    HW291138   2.080   4.054   1.558  0.6757  0.7749  0.1623
29245SOL     OW91139   0.135   6.556   5.741 -0.2097 -0.2596 -0.3893
29245SOL    HW191140   0.139   6.521   5.652 -1.0201 -2.2522  0.3362
29245SOL    HW291141   0.042   6.574   5.756 -0.4621 -2.6227  1.0499
29246SOL     OW91142   9.047   6.496   6.157 -0.4295  0.2214 -0.3231
29246SOL    HW191143   9.067   6.455   6.073  1.2584 -0.3462  0.3418
29246SOL    HW291144   9.065   6.589   6.144 -0.7701  0.2262 -0.7610
29247SOL     OW91145   0.154  10.148   0.874 -0.0338  0.1506  0.0837
29247SOL    HW191146   0.193  10.099   0.947 -0.1851 -0.2668 -0.1120
29247SOL    HW291147   0.224  10.157   0.810 -0.3368 -0.8835 -0.4088
29248SOL     OW91148  10.003   7.163   5.092 -0.0374 -0.2328  0.4707
29248SOL    HW191149   9.981   7.252   5.120 -0.2999 -0.0779 -0.2183
29248SOL    HW291150  10.029   7.172   5.001 -1.0109 -1.0056  0.1083
29249SOL     OW91151   7.435   5.299   2.028 -0.1338  0.0586 -0.0995
29249SOL    HW191152   7.341   5.301   2.008 -0.7598 -0.6111  2.6851
29249SOL    HW291153   7.465   5.215   1.993 -0.8913 -0.4299  0.4126
29250SOL     OW91154   9.627   9.367   5.663 -0.0255 -0.3364 -0.1194
29250SOL    HW191155   9.610   9.281   5.702  1.0630 -0.6503 -0.3125
29250SOL    HW291156   9.656   9.347   5.574 -0.1383  0.2532 -0.2878
29251SOL     OW91157   8.896   1.388   5.852 -0.1024  0.9070  0.1547
29251SOL    HW191158   8.951   1.434   5.916  1.5302 -1.0917  0.2440
29251SOL    HW291159   8.950   1.387   5.772  0.5521 -2.1031  0.5669
29252SOL     OW91160   0.007   0.115   5.483 -0.8278  0.2310  0.3506
29252SOL    HW191161  -0.002   0.210   5.485  2.8963  0.6649 -0.0237
29252SOL    HW291162   0.050   0.093   5.565 -1.3114 -1.1236  0.2591
29253SOL     OW91163  10.911   7.152   3.642 -0.2325  0.2160  0.3225
29253SOL    HW191164  10.979   7.144   3.709  1.0844 -1.5778 -1.2029
29253SOL    HW291165  10.936   7.230   3.592 -0.7965  1.1110  1.3952
29254SOL     OW91166   4.110   6.169   0.242  0.4710 -0.0205 -0.3424
29254SOL    HW191167   4.068   6.203   0.163 -2.1706  1.7200  1.7076
29254SOL    HW291168   4.134   6.247   0.292 -0.2243 -1.0771  1.7115
29255SOL     OW91169   1.164   8.163   5.825  0.4900  0.1232 -0.5724
29255SOL    HW191170   1.159   8.205   5.911 -0.1671  0.7097 -0.8903
29255SOL    HW291171   1.120   8.079   5.836 -0.4519  0.6131 -0.5796
29256SOL     OW91172   7.694   9.816   8.887 -0.9682  0.0113  0.0597
29256SOL    HW191173   7.646   9.733   8.881 -0.5039 -0.5499  3.3614
29256SOL    HW291174   7.628   9.879   8.916 -0.6578  0.1650  0.4283
29257SOL     OW91175   8.665   8.983   6.660 -0.0102  0.1522  0.6031
29257SOL    HW191176   8.636   8.985   6.752  0.2466  0.3264  0.6834
29257SOL    HW291177   8.654   8.892   6.633 -2.6177  0.6182 -0.0277
29258SOL     OW91178   0.993   3.444   1.678  0.1953 -0.0568 -0.7157
29258SOL    HW191179   1.021   3.535   1.687 -1.5554  0.4964 -0.7279
29258SOL    HW291180   1.046   3.397   1.742  1.7806  0.8172 -1.3631
29259SOL     OW91181   0.062   3.778   6.453  0.4742  0.2355  0.4450
29259SOL    HW191182   0.140   3.772   6.398  0.8992  2.0130  0.8354
29259SOL    HW291183  -0.001   3.827   6.400  0.2894  0.4711  0.8840
29260SOL     OW91184   3.186   8.671   9.966 -0.2101 -0.4422  0.2958
29260SOL    HW191185   3.274   8.704   9.948  0.5476 -0.8305  3.0643
29260SOL    HW291186   3.190   8.578   9.944 -0.2117 -0.2534 -0.5039
29261SOL     OW91187   9.278   7.967   3.847 -0.2211  0.0843 -0.5477
29261SOL    HW191188   9.206   7.977   3.910  1.2943  0.8259  1.1189
29261SOL    HW291189   9.259   8.032   3.779 -1.1878  0.1932 -0.1912
29262SOL     OW91190   5.204   3.818   2.439  0.3796  0.6765  0.0268
29262SOL    HW191191   5.147   3.889   2.469  0.4736  1.4890 -1.6079
29262SOL    HW291192   5.261   3.860   2.375  0.3526 -0.9127 -1.0677
29263SOL     OW91193   8.106   0.881   9.270 -0.3154  0.9951  0.2050
29263SOL    HW191194   8.039   0.915   9.211 -0.6186  0.1795  0.0672
29263SOL    HW291195   8.144   0.806   9.223 -1.2410 -0.2734  1.4361
29264SOL     OW91196   0.960   1.233   0.960  0.0668 -0.5892  0.2391
29264SOL    HW191197   1.024   1.270   0.899  1.8393  0.3029  2.5796
29264SOL    HW291198   0.978   1.139   0.960  1.6418 -0.3038  1.1535
29265SOL     OW91199   7.475   0.152   0.871  0.0130  0.5101 -0.1087
29265SOL    HW191200   7.383   0.126   0.880  0.5161 -1.3352  0.0166
29265SOL    HW291201   7.472   0.247   0.860 -1.9262  0.4398 -0.4513
29266SOL     OW91202   6.611   3.894   3.636  0.3047  0.2718 -0.2933
29266SOL    HW191203   6.671   3.924   3.705 -1.5066  2.0641  0.5498
29266SOL    HW291204   6.654   3.920   3.554  1.0203  0.8974  0.2713
29267SOL     OW91205   3.068   5.191   5.109 -0.2910  0.1075  0.0121
29267SOL    HW191206   3.159   5.194   5.081 -0.6046 -1.1052 -1.1907
29267SOL    HW291207   3.071   5.158   5.199  0.5500  1.6096  0.5550
29268SOL     OW91208   8.422   2.216   5.052 -0.2672  0.1125  0.0428
29268SOL    HW191209   8.348   2.229   5.111 -0.0685 -0.5687  0.4569
29268SOL    HW291210   8.472   2.297   5.058  0.4112 -0.3952  1.7749
29269SOL     OW91211   9.523  10.264   6.611  0.6895 -0.1628  0.2183
29269SOL    HW191212   9.502  10.329   6.678  1.4908  0.6355 -0.3009
29269SOL    HW291213   9.585  10.205   6.653 -0.4070 -0.8902  0.8471
29270SOL     OW91214  10.291   0.429   2.847  0.5874  0.2304 -0.3544
29270SOL    HW191215  10.263   0.392   2.931  1.0000  1.0377  0.1491
29270SOL    HW291216  10.364   0.487   2.869 -0.6857  2.1389 -0.9719
29271SOL     OW91217   0.946   6.621  10.764 -0.2958 -0.0266  0.4184
29271SOL    HW191218   0.995   6.618  10.681 -0.2458  0.8547  0.4170
29271SOL    HW291219   0.855   6.636  10.738 -0.9042 -3.4503  0.3040
29272SOL     OW91220   2.319   1.782   2.861  0.5674  0.7408 -0.1285
29272SOL    HW191221   2.318   1.738   2.776  1.3148 -0.9078  0.7044
29272SOL    HW291222   2.396   1.746   2.906  0.2623  1.7096  1.1916
29273SOL     OW91223   2.633  10.621   9.924  0.1418 -0.1128  0.2420
29273SOL    HW191224   2.634  10.704   9.970 -2.4319 -0.8425  1.6882
29273SOL    HW291225   2.630  10.645   9.831  1.1030  1.3762  0.5845
29274SOL     OW91226   8.270   9.651   7.836 -0.0686 -0.1504  0.0374
29274SOL    HW191227   8.218   9.731   7.829 -0.0589 -0.2485 -1.3629
29274SOL    HW291228   8.223   9.587   7.782  0.0644 -1.0144  0.9320
29275SOL     OW91229   5.926   5.126   1.954 -0.3016  0.4644 -0.0443
29275SOL    HW191230   5.950   5.152   2.043 -0.8166 -2.3361  0.9722
29275SOL    HW291231   6.008   5.099   1.914 -0.5908 -1.8898  0.8876
29276SOL     OW91232   2.132   9.341   0.494  0.2310  0.3776 -0.6234
29276SOL    HW191233   2.071   9.349   0.420  0.1607 -2.6418 -0.9527
29276SOL    HW291234   2.213   9.309   0.454 -0.1141 -2.2598  0.7160
29277SOL     OW91235   9.266   2.230   7.677 -0.3563 -0.0146  0.3908
29277SOL    HW191236   9.262   2.316   7.719 -1.1670 -1.2214  2.8826
29277SOL    HW291237   9.178   2.216   7.642  0.0468  0.5562 -0.9037
29278SOL     OW91238   0.491   2.863   0.967  0.0873  0.6180 -0.0400
29278SOL    HW191239   0.475   2.769   0.976 -1.5902  0.9370  0.5800
29278SOL    HW291240   0.467   2.882   0.876 -2.0886  0.8777  0.5525
29279SOL     OW91241   3.723   9.160   1.365 -0.1614 -0.6980 -0.1535
29279SOL    HW191242   3.692   9.239   1.408  1.7999 -0.2215  0.4381
29279SOL    HW291243   3.647   9.102   1.363 -0.8971  0.1423  1.9189
29280SOL     OW91244   4.709   2.742   3.914  0.4183 -0.1904  1.1121
29280SOL    HW191245   4.771   2.749   3.986  1.7406 -0.4350 -0.0008
29280SOL    HW291246   4.656   2.665   3.935  0.1846  0.2802  2.2789
29281SOL     OW91247   2.262   3.368   4.237  0.0656  0.6170  0.2134
29281SOL    HW191248   2.200   3.326   4.177  0.8651  1.0997 -0.9656
29281SOL    HW291249   2.215   3.446   4.269 -0.4961  0.1652  0.4939
29282SOL     OW91250   8.720   1.205   1.182 -0.5734 -0.3210 -0.1906
29282SOL    HW191251   8.722   1.110   1.189  0.0344 -0.2941  0.0138
29282SOL    HW291252   8.632   1.225   1.150 -1.0475 -0.8916  0.7285
29283SOL     OW91253   3.022   5.927   0.042 -0.0439 -0.1096 -0.1494
29283SOL    HW191254   3.002   6.005   0.093 -1.6354 -1.0806  0.7561
29283SOL    HW291255   3.075   5.873   0.100 -0.7178 -0.6180  0.0030
29284SOL     OW91256   2.519   2.368   9.861  0.2312  0.0883 -0.2942
29284SOL    HW191257   2.600   2.317   9.867  0.0277 -0.2738 -0.6073
29284SOL    HW291258   2.459   2.312   9.812  0.1951  0.8796 -1.1594
29285SOL     OW91259   3.896   6.195   2.147  0.0443  0.2163  0.0114
29285SOL    HW191260   3.877   6.265   2.208 -0.3950 -0.5060  0.7140
29285SOL    HW291261   3.818   6.139   2.148  1.1112 -1.3187  0.9234
29286SOL     OW91262   9.769   9.332   5.979 -0.3998  0.3023 -0.2050
29286SOL    HW191263   9.763   9.418   5.937 -1.4735  0.7372  0.8106
29286SOL    HW291264   9.807   9.350   6.064  0.6842 -0.4249 -0.5279
29287SOL     OW91265   9.080   2.803   9.964 -0.0314 -0.5480 -0.6949
29287SOL    HW191266   9.053   2.872   9.903 -0.6781 -1.4710 -1.4744
29287SOL    HW291267   9.151   2.758   9.919  0.2818 -0.4863 -0.2582
29288SOL     OW91268   2.020   0.474  10.675 -0.0541 -0.2437 -0.0791
29288SOL    HW191269   2.097   0.417  10.669 -0.7297 -1.2541  0.7331
29288SOL    HW291270   1.992   0.486  10.584 -0.0506 -1.4158 -0.2384
29289SOL     OW91271   2.695   4.725   6.488  0.0771 -0.1487 -0.1387
29289SOL    HW191272   2.747   4.719   6.408  0.2011  0.1957 -0.0885
29289SOL    HW291273   2.715   4.813   6.522 -1.5757  0.5048 -0.8276
29290SOL     OW91274   1.826   2.595  10.937  0.2964 -0.0830  0.0618
29290SOL    HW191275   1.798   2.579  11.027 -0.5068  2.4175  0.2987
29290SOL    HW291276   1.820   2.510  10.894 -2.2021 -0.7315  1.5983
29291SOL     OW91277   5.835   1.622   4.497 -0.1287 -0.2549  0.4668
29291SOL    HW191278   5.811   1.562   4.426  0.3994 -1.4396  1.2784
29291SOL    HW291279   5.819   1.709   4.460  0.2556 -0.8425 -1.1489
29292SOL     OW91280   1.828   7.734   7.440 -0.7328  0.6189 -0.0995
29292SOL    HW191281   1.793   7.721   7.528  0.2838  1.7576  0.4920
29292SOL    HW291282   1.887   7.660   7.427  0.1497  1.1603  0.7286
29293SOL     OW91283   3.475   0.821   3.689 -0.4063 -0.3891  0.5914
29293SOL    HW191284   3.505   0.731   3.693 -2.0292 -0.9068  1.5764
29293SOL    HW291285   3.400   0.820   3.629 -0.3450  0.3210  0.4915
29294SOL     OW91286   4.260   3.083   4.808 -0.1801 -0.0255 -0.0997
29294SOL    HW191287   4.166   3.078   4.821  0.0969  0.0491  2.0632
29294SOL    HW291288   4.282   3.003   4.760 -1.1721 -0.6956  0.5441
29295SOL     OW91289   8.360   8.550   9.930  0.5727  0.3191  0.3642
29295SOL    HW191290   8.384   8.516   9.843  0.6915  2.9550 -0.6795
29295SOL    HW291291   8.266   8.533   9.937  0.6346 -0.2427 -0.1190
29296SOL     OW91292   9.313   8.984   4.403 -0.6447  0.0459  0.3900
29296SOL    HW191293   9.268   9.068   4.403 -0.2240  0.2676 -0.5398
29296SOL    HW291294   9.387   8.997   4.462 -0.1575  0.5459 -0.3375
29297SOL     OW91295   9.807   0.590   5.063 -0.1466 -0.1129  0.5953
29297SOL    HW191296   9.823   0.527   5.133  1.9632  1.5379  1.6601
29297SOL    HW291297   9.879   0.578   5.002 -0.7009  0.0802 -0.1110
29298SOL     OW91298   8.591   9.927   1.622  0.3206  0.2888  0.3133
29298SOL    HW191299   8.635   9.846   1.596  0.1290  0.3604 -0.2236
29298SOL    HW291300   8.562   9.910   1.712 -0.1089 -0.3960  0.0441
29299SOL     OW91301   8.610   0.597   1.542 -0.7993 -0.3126 -0.1573
29299SOL    HW191302   8.608   0.531   1.472  0.1012  1.8903 -2.3581
29299SOL    HW291303   8.702   0.619   1.553 -1.0085 -0.0522  1.1658
29300SOL     OW91304   6.337   4.856  10.674  0.6905  0.1031  0.0444
29300SOL    HW191305   6.410   4.892  10.724  0.1678 -0.4473  1.2346
29300SOL    HW291306   6.260   4.877  10.726  0.1936 -1.0034 -0.2374
29301SOL     OW91307   8.950   8.152   8.806 -0.1230  0.0754 -0.0053
29301SOL    HW191308   8.976   8.151   8.898  1.2296 -0.3923 -0.3741
29301SOL    HW291309   8.944   8.059   8.781  1.1329  0.2021 -0.8171
29302SOL     OW91310   0.679   4.136   0.665  0.4652 -0.6257  0.2466
29302SOL    HW191311   0.592   4.130   0.625  0.7533  2.5620 -0.9583
29302SOL    HW291312   0.737   4.096   0.601 -0.0570 -2.7628  1.0537
29303SOL     OW91313  10.458   6.614   7.182 -0.4186 -0.3645 -0.2272
29303SOL    HW191314  10.540   6.578   7.147  0.6881  1.5480  0.2784
29303SOL    HW291315  10.427   6.673   7.113 -1.2388 -0.8852 -0.3071
29304SOL     OW91316   6.819   4.413   6.295 -0.1672  0.2411  0.3283
29304SOL    HW191317   6.760   4.340   6.317  0.0970  0.3875  1.5396
29304SOL    HW291318   6.764   4.474   6.245 -0.5371 -0.5163 -0.2006
29305SOL     OW91319   0.030   6.561   2.588 -0.0174 -0.4948 -0.0902
29305SOL    HW191320   0.082   6.590   2.664 -1.9689  1.0423  0.6889
29305SOL    HW291321   0.017   6.467   2.603  0.9310 -0.5219  0.6682
29306SOL     OW91322   6.510   4.515   2.373 -0.1849  0.2280 -0.1105
29306SOL    HW191323   6.533   4.592   2.320  2.2913 -1.4348 -1.5142
29306SOL    HW291324   6.534   4.540   2.462 -2.1611  2.1561 -0.0597
29307SOL     OW91325   2.075   5.682   7.584  0.4660 -0.2195 -0.1785
29307SOL    HW191326   2.170   5.697   7.587  0.7421 -1.4342 -1.9088
29307SOL    HW291327   2.041   5.756   7.534  0.3524  0.7915  1.3710
29308SOL     OW91328   0.712   7.304   2.733 -0.0446 -0.1361 -0.0218
29308SOL    HW191329   0.753   7.374   2.784 -0.2533  0.4435 -0.6419
29308SOL    HW291330   0.703   7.341   2.645 -0.2115 -0.9222 -0.3362
29309SOL     OW91331   4.762   8.182   0.993  0.3579 -0.0265  0.1133
29309SOL    HW191332   4.686   8.197   1.050  0.2694 -2.4556  0.6846
29309SOL    HW291333   4.733   8.210   0.906 -0.7940  0.1415  0.5475
29310SOL     OW91334   5.543   2.309   3.371 -0.1182  0.1163  0.1319
29310SOL    HW191335   5.459   2.270   3.394 -0.4632  1.5889  1.4451
29310SOL    HW291336   5.522   2.376   3.306  0.0872  0.2706  0.2226
29311SOL     OW91337   1.891   1.447   8.237 -0.2747  0.0639 -0.2517
29311SOL    HW191338   1.901   1.515   8.170  0.2609 -0.7188 -0.9754
29311SOL    HW291339   1.827   1.386   8.199 -1.8960  0.9432  1.0302
29312SOL     OW91340   7.195   6.034   1.269 -0.2096  0.0359 -0.0632
29312SOL    HW191341   7.210   5.987   1.187  0.8270  1.0262 -0.4539
29312SOL    HW291342   7.282   6.046   1.306 -0.6431 -0.0615  0.9966
29313SOL     OW91343  10.086  10.777   6.199 -0.0756  0.0374 -0.6074
29313SOL    HW191344  10.156  10.711   6.195 -0.6474 -0.6586  0.5252
29313SOL    HW291345  10.016  10.739   6.146 -0.6975 -0.6525  0.6738
29314SOL     OW91346   4.465   7.874   8.762 -0.3862  0.2852  0.1418
29314SOL    HW191347   4.396   7.856   8.826 -0.1423 -0.7340  0.1339
29314SOL    HW291348   4.538   7.908   8.814 -0.2168 -0.4640  0.4080
29315SOL     OW91349   7.440   6.876   7.855 -0.5000 -0.1208 -0.6093
29315SOL    HW191350   7.466   6.834   7.772 -0.1576 -3.5775  1.1492
29315SOL    HW291351   7.488   6.959   7.855  2.7771 -1.9024 -2.0133
29316SOL     OW91352   8.282  10.393   1.419 -0.2061  0.1284 -0.4968
29316SOL    HW191353   8.206  10.401   1.361  0.1084  0.2671 -0.8896
29316SOL    HW291354   8.299  10.482   1.449 -0.0330  0.1344 -0.6163
29317SOL     OW91355   2.806   5.034   5.394  0.3248  0.0674 -0.2653
29317SOL    HW191356   2.897   5.029   5.423  0.4567 -0.7499 -0.7925
29317SOL    HW291357   2.769   4.949   5.418  0.0761 -0.1108 -1.2478
29318SOL     OW91358   8.501   2.731   1.069 -0.2652 -0.5271 -0.2530
29318SOL    HW191359   8.413   2.768   1.055 -0.9532 -2.3489 -0.9468
29318SOL    HW291360   8.543   2.792   1.129 -0.9662  1.9623 -2.1686
29319SOL     OW91361   1.950   5.237   1.793 -0.5794 -0.0794 -0.2512
29319SOL    HW191362   2.004   5.284   1.730 -0.0798  1.6666  1.4107
29319SOL    HW291363   1.983   5.148   1.792 -0.7133 -0.1325 -2.5699
29320SOL     OW91364   7.381   3.831   8.060 -0.0862  0.1266  0.1309
29320SOL    HW191365   7.471   3.832   8.028 -0.4087 -0.3696 -0.8105
29320SOL    HW291366   7.360   3.739   8.073 -0.4014  0.2483  0.5264
29321SOL     OW91367  10.465   8.887   7.320  0.0898 -0.1598  0.1891
29321SOL    HW191368  10.411   8.901   7.397  0.5057 -3.3807  1.1268
29321SOL    HW291369  10.414   8.829   7.264  0.9435 -0.0683 -0.7147
29322SOL     OW91370   9.605   0.734   7.756 -0.2329  0.1458 -0.0103
29322SOL    HW191371   9.589   0.641   7.773  0.5600 -0.2488 -1.2859
29322SOL    HW291372   9.688   0.753   7.800  1.3194 -0.6288 -2.4834
29323SOL     OW91373   7.633   1.899   3.792  0.3308  0.3856 -0.3231
29323SOL    HW191374   7.624   1.845   3.714 -1.1460  0.6919 -0.3768
29323SOL    HW291375   7.573   1.859   3.855 -0.0428  1.3867 -0.0471
29324SOL     OW91376   9.910   0.881   0.362  0.3913 -0.0554  0.2791
29324SOL    HW191377   9.984   0.847   0.312  1.3455 -1.6359  2.6383
29324SOL    HW291378   9.944   0.961   0.403  0.8309 -0.7488  1.3138
29325SOL     OW91379   2.785   1.670   3.856 -0.0446 -0.0375 -0.0275
29325SOL    HW191380   2.814   1.663   3.766  0.1710  0.4289  0.0045
29325SOL    HW291381   2.689   1.676   3.850 -0.3492 -3.8134 -0.0039
29326SOL     OW91382   8.389   2.316   4.143  0.2243  0.2614  0.6374
29326SOL    HW191383   8.374   2.243   4.083  0.3977  0.3866  0.4397
29326SOL    HW291384   8.417   2.388   4.086  0.7921  0.2617  0.9136
29327SOL     OW91385   7.175  10.443   8.490 -0.0539  0.0565 -0.2627
29327SOL    HW191386   7.229  10.466   8.415 -0.5479  0.7037 -0.4270
29327SOL    HW291387   7.235  10.443   8.565  0.4333 -0.5741 -0.6558
29328SOL     OW91388   6.732   2.641   5.743  0.5278 -0.3792 -0.7777
29328SOL    HW191389   6.752   2.727   5.707  0.1230  0.2952  0.5606
29328SOL    HW291390   6.802   2.624   5.805  0.8820 -1.2499 -1.4047
29329SOL     OW91391  10.254   6.753   7.038  0.0905 -0.4931  0.2490
29329SOL    HW191392  10.216   6.841   7.035  0.2977 -0.4173 -0.1547
29329SOL    HW291393  10.193   6.703   7.091  0.1035 -0.0420  0.6936
29330SOL     OW91394   9.759   1.582   6.564  0.2037  0.1837  0.5125
29330SOL    HW191395   9.742   1.576   6.658 -2.4052 -2.8140 -0.0673
29330SOL    HW291396   9.782   1.493   6.538 -2.3961  0.2081 -2.2141
29331SOL     OW91397   1.638   8.029  10.748 -0.0531 -0.1153 -0.1863
29331SOL    HW191398   1.676   7.961  10.803  0.4159  0.3696  0.0957
29331SOL    HW291399   1.668   8.008  10.659 -0.9595 -1.0003 -0.2913
29332SOL     OW91400   1.863   9.823   5.925 -0.3837 -0.2797  0.1817
29332SOL    HW191401   1.848   9.738   5.966 -1.4756 -0.1268  0.1065
29332SOL    HW291402   1.914   9.803   5.846 -1.4588 -0.9723 -0.3479
29333SOL     OW91403   3.786   8.271   4.089 -0.0289 -0.6476 -0.2707
29333SOL    HW191404   3.765   8.345   4.032  0.3822 -1.4167 -1.4368
29333SOL    HW291405   3.881   8.279   4.104  0.0897 -1.1422 -0.7184
29334SOL     OW91406   8.133   0.386   0.089  0.3020  0.2958  0.0279
29334SOL    HW191407   8.138   0.398   0.184 -3.2588 -0.6210  0.4050
29334SOL    HW291408   8.060   0.326   0.076  0.2782  0.9481 -3.3312
29335SOL     OW91409   8.361   2.894   6.182 -0.2186  0.0627 -0.0741
29335SOL    HW191410   8.439   2.876   6.129 -0.7336 -2.6771 -0.0109
29335SOL    HW291411   8.352   2.816   6.238 -1.3923  1.5831  1.9367
29336SOL     OW91412   3.126   5.543   9.410 -0.5911  0.2257 -0.7717
29336SOL    HW191413   3.208   5.493   9.409 -0.5493  0.2424  0.8391
29336SOL    HW291414   3.127   5.591   9.327  1.1628  0.4270 -0.6575
29337SOL     OW91415   4.708   1.846   3.034 -0.8093 -0.9831  0.3933
29337SOL    HW191416   4.714   1.755   3.006 -0.1691 -1.2052  1.2363
29337SOL    HW291417   4.683   1.894   2.955 -1.3551 -1.9114 -0.0058
29338SOL     OW91418   8.019   4.137   0.639  0.1946  0.4845  0.4145
29338SOL    HW191419   7.996   4.137   0.731 -2.0436 -0.1206 -0.1263
29338SOL    HW291420   8.079   4.063   0.629 -0.1313  0.1120  1.2328
29339SOL     OW91421   6.726   3.229   7.919 -0.1074 -0.3208  0.0833
29339SOL    HW191422   6.799   3.205   7.861  0.4422  0.5410  0.4032
29339SOL    HW291423   6.658   3.260   7.860  0.4237  0.4794 -0.1254
29340SOL     OW91424   4.663   7.981  10.152 -0.1983 -0.5454 -0.1116
29340SOL    HW191425   4.740   7.950  10.200  1.5616  1.0312 -1.8597
29340SOL    HW291426   4.595   7.989  10.219  1.6006 -0.4412  1.7422
29341SOL     OW91427   1.232   0.720   6.411  0.8321  0.7536  0.0090
29341SOL    HW191428   1.293   0.648   6.425  3.2856  2.8657  0.5114
29341SOL    HW291429   1.193   0.735   6.497 -1.2814 -1.3193 -0.5459
29342SOL     OW91430   0.877   9.424   4.869  0.1946  0.0545 -0.2238
29342SOL    HW191431   0.902   9.365   4.798  1.5811  0.9088 -0.4689
29342SOL    HW291432   0.833   9.497   4.826  0.5068  0.2885 -0.1470
29343SOL     OW91433   0.781   7.633  10.249  0.2804  0.1558 -0.3854
29343SOL    HW191434   0.799   7.552  10.296  2.3858  0.5033 -0.5432
29343SOL    HW291435   0.868   7.670  10.230 -0.4643  0.2532 -4.1346
29344SOL     OW91436   5.377   9.313   1.184  0.0545  0.4729 -0.1867
29344SOL    HW191437   5.297   9.356   1.216 -0.2254  0.8731 -1.4009
29344SOL    HW291438   5.347   9.227   1.155  0.0363  0.6465 -0.6986
29345SOL     OW91439   7.305   0.620  10.947  0.7798 -0.1042 -0.7538
29345SOL    HW191440   7.319   0.667  11.029 -1.0233 -2.4555  0.9621
29345SOL    HW291441   7.220   0.651  10.916 -0.7722 -2.7204  0.7777
29346SOL     OW91442  10.389   3.009   2.219  0.2088  0.3248  0.8451
29346SOL    HW191443  10.451   2.950   2.263  0.8562 -0.2441 -0.7929
29346SOL    HW291444  10.431   3.095   2.224 -0.1667  0.4517  2.1548
29347SOL     OW91445   4.432   3.154   5.025 -0.0013  0.2128 -0.1537
29347SOL    HW191446   4.375   3.181   5.096  0.8393  0.9844  0.2346
29347SOL    HW291447   4.372   3.130   4.954 -0.8891 -1.6268  1.1575
29348SOL     OW91448   7.779   4.078   8.991  0.2203  0.0808  0.1094
29348SOL    HW191449   7.870   4.098   8.971  0.1199 -0.5881 -1.0586
29348SOL    HW291450   7.729   4.118   8.920 -0.3682  0.0535  0.4981
29349SOL     OW91451  10.224   8.450   8.946 -0.1774  0.1895 -0.6693
29349SOL    HW191452  10.140   8.409   8.966  0.6355 -0.4748  1.4486
29349SOL    HW291453  10.219   8.537   8.986 -0.4268  0.7321 -1.8592
29350SOL     OW91454   0.432   9.274   9.163  0.1041 -0.7159  0.1755
29350SOL    HW191455   0.386   9.261   9.246 -1.3694 -1.8046 -0.7783
29350SOL    HW291456   0.491   9.198   9.157 -1.8731 -2.2040 -1.0908
29351SOL     OW91457   1.078   7.829   2.711  0.0606 -0.5766  0.4176
29351SOL    HW191458   1.090   7.742   2.749  0.6028  0.4560  2.6412
29351SOL    HW291459   1.029   7.878   2.777 -2.2790  0.1686 -1.7467
29352SOL     OW91460   9.566   0.887   2.882 -0.5201 -0.0888  0.0897
29352SOL    HW191461   9.545   0.929   2.799 -0.0482 -0.4799 -0.2310
29352SOL    HW291462   9.661   0.879   2.881 -0.6655 -2.1724 -0.3491
29353SOL     OW91463   6.423   7.740  10.544 -0.0831 -0.2761  0.6171
29353SOL    HW191464   6.484   7.803  10.506 -0.8513  1.4935  2.2431
29353SOL    HW291465   6.366   7.715  10.471  1.6922 -0.9137 -0.5898
29354SOL     OW91466   8.925   9.701   3.322  0.4252 -0.2141 -0.0919
29354SOL    HW191467   8.883   9.787   3.317 -1.1400 -1.0186 -1.0525
29354SOL    HW291468   8.936   9.685   3.416  0.7565  1.0399  0.0958
29355SOL     OW91469   8.188   0.631  10.510 -0.0109 -0.2012 -0.3651
29355SOL    HW191470   8.172   0.575  10.434 -0.4169  0.7010 -0.9442
29355SOL    HW291471   8.107   0.626  10.561 -0.2179  0.2128 -0.6491
29356SOL     OW91472   5.368   6.602   8.188 -0.4364  0.0894 -0.5065
29356SOL    HW191473   5.427   6.624   8.116  0.7219 -2.1941 -0.2900
29356SOL    HW291474   5.318   6.527   8.156 -0.5470 -0.3747  0.7406
29357SOL     OW91475   1.135   4.126   8.575  0.1717  0.1013 -0.2342
29357SOL    HW191476   1.160   4.076   8.653  2.0400 -2.0375 -2.1606
29357SOL    HW291477   1.208   4.186   8.560  0.6117 -0.6923 -1.3240
29358SOL     OW91478  10.862   6.742  10.577  0.0817 -0.3923  0.2125
29358SOL    HW191479  10.881   6.826  10.535 -2.1348  0.0603  0.0717
29358SOL    HW291480  10.861   6.679  10.504  0.8403 -0.4125  0.2091
29359SOL     OW91481   8.873   3.453   8.366  0.1080  0.0899  0.2115
29359SOL    HW191482   8.856   3.544   8.343 -0.3036 -0.2825 -1.0324
29359SOL    HW291483   8.962   3.436   8.337 -0.6403 -0.5686 -1.7671
29360SOL     OW91484   1.458   4.573  10.573  0.0829  0.5960 -0.4382
29360SOL    HW191485   1.530   4.511  10.579 -1.3674 -0.9026  2.8497
29360SOL    HW291486   1.494   4.655  10.607  0.8886  0.4901 -1.0283
29361SOL     OW91487   7.037   8.239   5.399 -0.0100  0.4443 -0.1439
29361SOL    HW191488   7.090   8.301   5.448 -0.8636  0.9711  0.1222
29361SOL    HW291489   7.014   8.171   5.463 -2.0608  1.7053  0.5114
29362SOL     OW91490   5.215   6.723   1.436  0.4553  0.4076 -0.3573
29362SOL    HW191491   5.147   6.714   1.502 -0.1462  0.7661 -0.9338
29362SOL    HW291492   5.274   6.649   1.453  0.7430  0.9433  1.0755
29363SOL     OW91493   9.680   0.776  10.201 -0.2719  0.4236 -0.1778
29363SOL    HW191494   9.755   0.766  10.260 -0.0829  1.0624 -0.3076
29363SOL    HW291495   9.604   0.780  10.259 -0.6261 -3.9692 -0.1746
29364SOL     OW91496   5.320   6.330   3.964 -0.1183 -0.0929 -0.0789
29364SOL    HW191497   5.260   6.257   3.979  0.2897 -0.5632 -0.7398
29364SOL    HW291498   5.381   6.328   4.037  0.2343 -0.7583 -0.3876
29365SOL     OW91499   6.392   3.389   9.644  0.9592 -0.0528  0.3554
29365SOL    HW191500   6.427   3.302   9.624  1.5288  0.1039  0.6748
29365SOL    HW291501   6.467   3.438   9.678  0.8261  0.8186 -0.5975
29366SOL     OW91502   2.443   6.881   3.713  1.2430  0.4571 -0.7569
29366SOL    HW191503   2.412   6.868   3.802  0.2937  0.7235 -1.0454
29366SOL    HW291504   2.487   6.799   3.691  2.7178  0.9049  0.4473
29367SOL     OW91505   0.239   4.010   8.311  0.5918  0.0386 -0.1689
29367SOL    HW191506   0.150   3.989   8.281 -0.0590  1.4905  0.6621
29367SOL    HW291507   0.289   3.930   8.295 -0.2617 -0.0069 -2.9426
29368SOL     OW91508   3.907   0.792   8.737 -0.5105  0.0541  0.0570
29368SOL    HW191509   3.901   0.778   8.832 -1.0793 -0.7395 -0.0870
29368SOL    HW291510   3.844   0.861   8.718 -1.0681 -0.4212  0.1390
29369SOL     OW91511  10.467  10.648   6.475 -0.2244  0.0998 -0.9281
29369SOL    HW191512  10.405  10.625   6.544 -2.9997  0.8174 -3.0810
29369SOL    HW291513  10.484  10.742   6.489 -0.3516  0.1225 -0.9346
29370SOL     OW91514   0.408   7.081   0.110 -0.0623 -0.0509 -0.0779
29370SOL    HW191515   0.373   7.132   0.037 -0.6889  1.6383  1.3600
29370SOL    HW291516   0.330   7.056   0.161  0.4636 -0.1724  0.6776
29371SOL     OW91517   1.949   7.326   3.853 -0.3155  0.2711 -0.2287
29371SOL    HW191518   1.990   7.248   3.890  2.0656  0.7818 -1.6578
29371SOL    HW291519   1.932   7.382   3.928  2.7064  0.5050  0.3673
29372SOL     OW91520   8.317   5.390   7.420  0.4635  0.1702  0.3466
29372SOL    HW191521   8.344   5.481   7.431  0.2545  0.0634  1.8329
29372SOL    HW291522   8.275   5.388   7.334 -2.9405  2.3400  1.8319
29373SOL     OW91523   0.425   2.160   4.399  0.0835  0.0047  0.0750
29373SOL    HW191524   0.368   2.227   4.437 -0.1354  1.1635 -2.2110
29373SOL    HW291525   0.366   2.086   4.382  0.3462 -0.8655  2.7016
29374SOL     OW91526   5.810   9.795   9.412  0.5742  0.6629 -0.1053
29374SOL    HW191527   5.722   9.783   9.377  0.3373  0.2793  0.5984
29374SOL    HW291528   5.835   9.883   9.386  0.8828 -0.0357 -2.2544
29375SOL     OW91529   4.385   3.805   5.995 -0.1295 -0.0743  0.1049
29375SOL    HW191530   4.310   3.752   5.968  0.4882 -0.3309 -1.1522
29375SOL    HW291531   4.410   3.854   5.917  1.6941 -0.8336  0.1826
29376SOL     OW91532   3.287   5.900   6.727 -0.2147  0.5149  0.1131
29376SOL    HW191533   3.237   5.980   6.708 -0.7201  0.0600 -0.4741
29376SOL    HW291534   3.261   5.838   6.659  1.1397  0.2630 -0.1975
29377SOL     OW91535   7.979   1.578   9.952 -0.0893  0.1486  0.0219
29377SOL    HW191536   8.070   1.608   9.953 -0.1498  0.3180  1.7492
29377SOL    HW291537   7.935   1.637   9.891  0.3916  1.8019  1.2550
29378SOL     OW91538   4.781   6.025   4.070 -0.2682  0.1212  0.1361
29378SOL    HW191539   4.795   6.099   4.129  0.1941 -0.6355  0.9955
29378SOL    HW291540   4.802   5.948   4.123  0.0292 -0.5846 -0.9828
29379SOL     OW91541   2.957   6.426   7.704 -0.3055  0.5519  0.1087
29379SOL    HW191542   3.017   6.473   7.762 -1.2252  0.3506  1.2375
29379SOL    HW291543   3.004   6.346   7.680  0.8045  1.4826 -0.9068
29380SOL     OW91544   4.178   5.875   5.751  0.0136 -0.0998  0.1843
29380SOL    HW191545   4.259   5.926   5.742 -0.3641  0.3404 -0.9212
29380SOL    HW291546   4.136   5.909   5.830  2.0371 -1.9666  2.0844
29381SOL     OW91547   6.504   1.279   2.176 -0.4721 -0.1173 -0.1571
29381SOL    HW191548   6.502   1.335   2.254  3.3738  1.1711 -0.8711
29381SOL    HW291549   6.526   1.192   2.209 -0.6106  0.0452  0.3695
29382SOL     OW91550   5.600   7.504   9.645 -0.4532 -0.1002  0.3407
29382SOL    HW191551   5.531   7.570   9.645 -0.4212 -0.0615 -0.6024
29382SOL    HW291552   5.636   7.508   9.733 -3.2156 -1.7740  1.6183
29383SOL     OW91553  10.770   4.266   5.603  0.2326 -0.1050  0.1556
29383SOL    HW191554  10.764   4.252   5.509  2.5643 -0.3990  0.0129
29383SOL    HW291555  10.865   4.267   5.621 -0.1773  0.2594  2.4330
29384SOL     OW91556   1.889   2.154  10.628 -0.0535 -0.2464  0.1972
29384SOL    HW191557   1.904   2.062  10.648  0.2578  0.0946  1.6389
29384SOL    HW291558   1.976   2.191  10.616 -0.0511  0.2375  1.5142
29385SOL     OW91559   3.909   6.328   2.797  0.0041 -0.5098 -0.2363
29385SOL    HW191560   3.901   6.302   2.705 -0.4775 -1.2389  0.0085
29385SOL    HW291561   3.847   6.271   2.843 -0.1422  0.2210  0.4693
29386SOL     OW91562   0.636   2.741   8.746 -0.3229 -0.0244  0.4136
29386SOL    HW191563   0.594   2.684   8.809  1.2280  1.3544  2.7768
29386SOL    HW291564   0.730   2.726   8.758  0.1157  2.6741  0.8493
29387SOL     OW91565   8.925   1.536   0.994  0.0450 -0.0213  0.6002
29387SOL    HW191566   8.951   1.444   0.982 -0.2681 -0.3541  2.3107
29387SOL    HW291567   8.980   1.567   1.067  1.1154  1.5586 -0.8489
29388SOL     OW91568   8.966   2.421   7.597  1.1574  0.5000  0.0524
29388SOL    HW191569   9.016   2.409   7.517  0.2756  1.8550 -0.7290
29388SOL    HW291570   9.020   2.383   7.666  1.1890 -2.1626 -1.4040
29389SOL     OW91571   8.845  10.646   1.688  0.6630 -0.8779 -0.1216
29389SOL    HW191572   8.821  10.704   1.760 -2.6183 -0.5281 -1.4500
29389SOL    HW291573   8.879  10.705   1.621 -1.5776 -0.5605 -1.0154
29390SOL     OW91574   9.430   9.791   5.062 -0.1874  0.1598 -0.2412
29390SOL    HW191575   9.423   9.849   5.138 -1.7152 -1.3301  0.8043
29390SOL    HW291576   9.517   9.752   5.069 -0.0494  0.5652  0.3396
29391SOL     OW91577   7.080   2.011   5.302 -0.0239 -0.3217  0.1641
29391SOL    HW191578   7.015   1.957   5.347  0.0347 -0.0153  0.6148
29391SOL    HW291579   7.126   1.950   5.245 -2.5698 -0.0615 -2.2978
29392SOL     OW91580   2.030   3.134   7.766  0.0130  0.8989 -0.9817
29392SOL    HW191581   1.936   3.131   7.749 -0.4820 -0.5665  1.6447
29392SOL    HW291582   2.040   3.202   7.833  0.9805  1.8011 -2.0173
29393SOL     OW91583   4.187   4.858   9.572  0.4401 -0.3645 -0.0477
29393SOL    HW191584   4.219   4.945   9.548  0.7648 -0.1069  1.2749
29393SOL    HW291585   4.203   4.804   9.495  0.6515  0.6410 -0.7166
29394SOL     OW91586   6.907   4.219   0.324 -0.0920 -0.0117 -0.4999
29394SOL    HW191587   6.899   4.305   0.283  0.7115 -0.6610 -2.0793
29394SOL    HW291588   6.893   4.157   0.252 -1.7977 -1.2260  0.8373
29395SOL     OW91589   2.838   0.858   0.877 -0.3618 -0.8611  0.5146
29395SOL    HW191590   2.887   0.830   0.800 -3.1057 -1.6884 -0.9854
29395SOL    HW291591   2.894   0.925   0.918 -0.4289  2.3103 -4.2181
29396SOL     OW91592   6.428   2.269   7.486 -0.2163 -0.7692  0.0689
29396SOL    HW191593   6.448   2.340   7.426  0.1478  0.1947  1.3098
29396SOL    HW291594   6.366   2.214   7.439  0.6607 -0.4636 -1.4888
29397SOL     OW91595  10.879   7.949   8.890  0.1950  0.4762  0.3001
29397SOL    HW191596  10.946   7.924   8.826  0.4051  0.0704  0.6801
29397SOL    HW291597  10.836   8.025   8.851 -1.1356 -1.0821 -1.3491
29398SOL     OW91598   5.351  10.085   9.152  0.1609  0.0790  0.2853
29398SOL    HW191599   5.345  10.023   9.080  0.1217 -0.0625  0.4102
29398SOL    HW291600   5.439  10.122   9.144  0.1234  0.1325  0.1094
29399SOL     OW91601   8.554  10.278   7.253 -0.5900 -0.0606 -0.1286
29399SOL    HW191602   8.562  10.183   7.259 -0.6408 -0.0248  0.5662
29399SOL    HW291603   8.644  10.310   7.258 -0.2245 -0.2520 -4.2005
29400SOL     OW91604   7.058  10.692   7.509 -0.1195  0.1622  0.4091
29400SOL    HW191605   7.087  10.655   7.592 -0.1022 -0.1017  0.2870
29400SOL    HW291606   7.042  10.784   7.528  0.6110  0.2686  0.5268
29401SOL     OW91607   4.387   8.253   1.742  0.1668  0.2241 -0.1211
29401SOL    HW191608   4.467   8.212   1.775  0.0196  0.1061  0.0907
29401SOL    HW291609   4.316   8.199   1.776 -0.0515  0.8980  0.5173
29402SOL     OW91610  10.443   6.411   8.673  0.0631 -0.7064 -0.1143
29402SOL    HW191611  10.358   6.423   8.629  0.6580  0.1832 -1.0456
29402SOL    HW291612  10.466   6.498   8.705 -0.4698 -1.3799  2.2164
29403SOL     OW91613   8.345   6.726   7.991 -0.2157  0.3532  0.2129
29403SOL    HW191614   8.289   6.683   8.055 -1.0541 -0.0055 -0.7594
29403SOL    HW291615   8.411   6.661   7.969  0.7251  0.8456  1.5125
29404SOL     OW91616   8.697   5.246   0.513 -0.8761  0.1712 -0.0804
29404SOL    HW191617   8.640   5.322   0.509 -1.0761  0.1047  1.2768
29404SOL    HW291618   8.753   5.253   0.435 -2.0067  0.8025 -0.8389
29405SOL     OW91619   5.762   5.424   4.565 -0.2418  0.1853 -0.1232
29405SOL    HW191620   5.838   5.375   4.534 -0.5092  0.2222 -0.8615
29405SOL    HW291621   5.792   5.468   4.644  0.9460  1.3601 -1.1937
29406SOL     OW91622   9.145   5.918   9.597 -0.3223 -0.4354  0.4684
29406SOL    HW191623   9.176   5.918   9.506 -1.3107 -0.9907  0.1270
29406SOL    HW291624   9.080   5.988   9.601  0.2649  0.0851  0.9405
29407SOL     OW91625  10.522   4.875   1.806 -0.3912  0.2547  0.1894
29407SOL    HW191626  10.543   4.904   1.895  0.2605  1.1519 -0.2489
29407SOL    HW291627  10.603   4.835   1.774 -0.4477  0.4484 -0.2022
29408SOL     OW91628   1.605   8.246   5.412 -0.3969  0.2541 -0.3156
29408SOL    HW191629   1.642   8.292   5.337  2.0055 -0.4123  0.4331
29408SOL    HW291630   1.589   8.314   5.478  2.5679  0.1631  0.5614
29409SOL     OW91631  10.367   5.065   4.975 -0.1072 -0.8780  0.3728
29409SOL    HW191632  10.376   4.974   4.948 -1.0930 -0.9026  0.1095
29409SOL    HW291633  10.457   5.099   4.977 -0.0040 -0.6462 -3.8366
29410SOL     OW91634   1.845   6.312   2.777 -0.2692 -0.6259  0.7279
29410SOL    HW191635   1.825   6.223   2.806 -0.5783 -0.7665  0.0998
29410SOL    HW291636   1.861   6.303   2.683  0.7888 -0.1923  0.8601
29411SOL     OW91637   2.687   0.860   5.927 -0.9460  0.5837 -0.0597
29411SOL    HW191638   2.664   0.929   5.990 -0.7072 -0.4450  1.1706
29411SOL    HW291639   2.748   0.902   5.867  0.5622  0.9994  1.7154
29412SOL     OW91640   5.758   7.112   1.973 -0.1228  0.7872  0.2535
29412SOL    HW191641   5.841   7.082   2.009 -0.5187  0.4037  0.8456
29412SOL    HW291642   5.775   7.202   1.944 -0.0185  1.3698  2.0918
29413SOL     OW91643   3.235   9.648   9.493 -0.2186  0.4598  0.1777
29413SOL    HW191644   3.283   9.699   9.428 -0.7343 -0.8842 -1.2969
29413SOL    HW291645   3.154   9.623   9.448 -1.1631  0.5950  1.7912
29414SOL     OW91646   1.559   4.429   3.152 -0.4386 -0.1697  0.3959
29414SOL    HW191647   1.494   4.480   3.200 -2.7594  0.3308 -3.0176
29414SOL    HW291648   1.641   4.476   3.164 -1.4172  1.2151  1.9129
29415SOL     OW91649   7.873   6.470   0.720 -0.0603  0.4141 -0.0518
29415SOL    HW191650   7.948   6.433   0.766  0.9244  0.5112 -1.5306
29415SOL    HW291651   7.883   6.565   0.729 -0.1663  0.4188  0.0184
29416SOL     OW91652   0.887   6.246  10.440 -0.4251 -0.3462 -0.5464
29416SOL    HW191653   0.823   6.309  10.473  0.9598  0.5285  0.5188
29416SOL    HW291654   0.931   6.292  10.369 -0.4864 -0.6929 -0.8129
29417SOL     OW91655   4.830   0.297   7.855 -0.1144  0.1114 -0.1147
29417SOL    HW191656   4.850   0.219   7.908 -0.9381  0.5219  0.8269
29417SOL    HW291657   4.860   0.370   7.909 -3.4059  0.7021  1.0398
29418SOL     OW91658   5.136   8.297   9.258 -0.0786 -0.2819 -0.0823
29418SOL    HW191659   5.070   8.286   9.325 -1.0829 -0.7845 -1.1318
29418SOL    HW291660   5.165   8.208   9.238 -1.1068 -0.3037 -1.5963
29419SOL     OW91661   3.480   5.961   9.622  0.0798 -0.1151  0.0602
29419SOL    HW191662   3.471   5.900   9.549  0.3270  0.6477 -0.6109
29419SOL    HW291663   3.501   6.045   9.581 -1.6813  0.7467  0.8802
29420SOL     OW91664   3.406   0.027   1.987 -0.6208  0.6182  0.5158
29420SOL    HW191665   3.438   0.022   2.077 -0.8921 -0.5191  0.5622
29420SOL    HW291666   3.316   0.058   1.995 -1.2672 -1.2909  0.7872
29421SOL     OW91667   1.723   1.157   0.419  0.3053 -0.0356  0.0512
29421SOL    HW191668   1.700   1.068   0.392  0.1898 -0.6557  2.0471
29421SOL    HW291669   1.640   1.203   0.427  0.0831 -0.7428  2.1962
29422SOL     OW91670   1.429   2.282   3.392  0.3123 -0.3884  0.3463
29422SOL    HW191671   1.365   2.305   3.325  0.1005 -0.7427  0.4282
29422SOL    HW291672   1.441   2.188   3.384  0.3838 -0.4138  0.7180
29423SOL     OW91673  10.665   3.866  10.650  0.6548 -0.2823  0.2393
29423SOL    HW191674  10.694   3.831  10.566 -1.4402 -1.7308  0.0834
29423SOL    HW291675  10.671   3.961  10.640 -2.8745 -0.2530 -2.8748
29424SOL     OW91676   2.534   2.612   0.427 -0.3701 -0.0886 -0.1226
29424SOL    HW191677   2.625   2.634   0.446 -0.2776 -0.3295 -0.2816
29424SOL    HW291678   2.529   2.517   0.436 -0.3116 -0.2187 -1.2982
29425SOL     OW91679  10.887   5.655   0.319 -0.2987 -0.1582 -0.3670
29425SOL    HW191680  10.911   5.619   0.404 -1.6932  1.3063  0.6772
29425SOL    HW291681  10.970   5.682   0.280  0.4422 -1.7271  0.1006
29426SOL     OW91682   6.742   4.981   8.584  0.1237 -0.0772  0.3400
29426SOL    HW191683   6.726   5.034   8.662  0.2600 -0.8404  0.8992
29426SOL    HW291684   6.793   5.037   8.527  0.0130  0.4993  0.8049
29427SOL     OW91685   4.391   1.143   4.809 -0.1401 -0.0480  0.1006
29427SOL    HW191686   4.463   1.095   4.849 -0.0857 -1.3691 -1.5549
29427SOL    HW291687   4.425   1.175   4.726 -1.8151 -1.7999 -1.3104
29428SOL     OW91688   6.792   7.913   1.049  0.1590  0.3002 -0.1825
29428SOL    HW191689   6.771   8.004   1.071 -0.3577  0.2988 -0.6678
29428SOL    HW291690   6.865   7.919   0.988  1.3388  0.3177  1.2206
29429SOL     OW91691   0.497   5.473   0.973  0.0212 -0.1205 -0.7993
29429SOL    HW191692   0.486   5.560   1.011  2.5065 -0.1002 -0.0212
29429SOL    HW291693   0.591   5.466   0.954  0.1906 -3.2687  0.7780
29430SOL     OW91694   7.563   2.004   6.278  0.2924 -0.1937  0.0878
29430SOL    HW191695   7.546   2.054   6.358 -0.0515 -0.0814 -0.0553
29430SOL    HW291696   7.485   1.949   6.268 -0.7639  1.5294 -1.4824
29431SOL     OW91697   5.137  10.259   5.274  0.3384  0.2107 -0.1103
29431SOL    HW191698   5.061  10.217   5.314  0.6167  0.7239  0.9608
29431SOL    HW291699   5.119  10.352   5.278  1.2913  0.3729  0.7303
29432SOL     OW91700  10.888   9.250   7.339  0.2500  0.4221 -0.1523
29432SOL    HW191701  10.978   9.275   7.318  0.3990  1.6020  1.7553
29432SOL    HW291702  10.887   9.241   7.434 -2.0442  2.1066  0.0248
29433SOL     OW91703   1.881   2.707   0.548  0.0069 -0.0481 -0.6312
29433SOL    HW191704   1.797   2.748   0.526 -0.2761  0.0078  0.5315
29433SOL    HW291705   1.944   2.748   0.488 -0.2528  2.1357  0.5248
29434SOL     OW91706   2.359   6.266   0.105  0.2538 -0.8697 -0.0765
29434SOL    HW191707   2.422   6.233   0.041  0.5637  1.2355 -0.8796
29434SOL    HW291708   2.382   6.222   0.187  0.8424 -2.3940 -1.0561
29435SOL     OW91709   3.061   6.294   6.271 -0.2548 -0.0529  0.1971
29435SOL    HW191710   3.062   6.288   6.176  1.5707  0.1741  0.1857
29435SOL    HW291711   3.014   6.216   6.300 -0.7914 -0.1299 -0.8850
29436SOL     OW91712   6.185   3.266   8.638 -0.7464 -0.1135  0.1347
29436SOL    HW191713   6.160   3.212   8.713  1.6292 -0.9251  0.3736
29436SOL    HW291714   6.115   3.252   8.574 -0.9383 -2.2740  0.7817
29437SOL     OW91715   4.287   7.939   3.544 -0.4185  0.0573  0.9090
29437SOL    HW191716   4.374   7.924   3.507 -0.8096  0.3811 -0.1681
29437SOL    HW291717   4.298   8.016   3.600 -0.1267  0.4627  0.3065
29438SOL     OW91718   4.516  10.261  10.181  0.1989 -0.9285  0.0766
29438SOL    HW191719   4.463  10.210  10.120  0.9949  1.2713 -2.5970
29438SOL    HW291720   4.600  10.273  10.135  1.4119 -0.5706  2.3087
29439SOL     OW91721   9.062   7.279   3.646 -0.0765 -0.0021 -0.6670
29439SOL    HW191722   9.130   7.326   3.597  0.1130 -0.0697 -0.4728
29439SOL    HW291723   9.109   7.241   3.721 -0.3826  0.1921 -0.3752
29440SOL     OW91724   8.070   9.351   0.514  0.1967 -0.0637 -0.0150
29440SOL    HW191725   8.028   9.278   0.560  0.7576 -1.2952 -1.4163
29440SOL    HW291726   8.027   9.353   0.429 -1.6049  2.9052  0.8921
29441SOL     OW91727   2.396   5.774   6.807 -0.1873  0.1426  0.3748
29441SOL    HW191728   2.467   5.837   6.812 -0.6829  0.7395 -0.0375
29441SOL    HW291729   2.438   5.692   6.782  0.6907 -0.1049  2.5463
29442SOL     OW91730   0.732   7.154   1.557 -0.5866  0.7602  0.3085
29442SOL    HW191731   0.711   7.210   1.483  0.1291 -1.0938 -1.3179
29442SOL    HW291732   0.703   7.204   1.634 -0.5554  3.0546 -1.1423
29443SOL     OW91733   7.222   4.590   7.729 -0.8129 -0.6215  0.6498
29443SOL    HW191734   7.215   4.505   7.687  0.3807 -0.6288  0.4546
29443SOL    HW291735   7.145   4.638   7.699  0.0424 -0.5996 -1.5766
29444SOL     OW91736   1.249   5.325   5.820 -0.0998 -0.3405 -0.1184
29444SOL    HW191737   1.241   5.421   5.826  0.6062 -0.0509 -2.8296
29444SOL    HW291738   1.312   5.302   5.888  0.4965  1.2479 -0.0991
29445SOL     OW91739   8.425   2.703   5.806 -0.0588 -0.2496  0.0221
29445SOL    HW191740   8.412   2.756   5.884 -0.9785  0.3156 -0.5104
29445SOL    HW291741   8.413   2.613   5.836 -1.7966  0.0430  0.2613
29446SOL     OW91742   3.132   6.499   0.274  0.0702 -0.0981  0.0790
29446SOL    HW191743   3.191   6.507   0.349 -0.3781  2.1298  0.2401
29446SOL    HW291744   3.188   6.514   0.198  0.6998 -3.2516 -0.1269
29447SOL     OW91745   9.494   1.634   0.893 -0.5196 -0.0753 -0.4491
29447SOL    HW191746   9.499   1.541   0.917 -0.5796 -0.0886 -0.4888
29447SOL    HW291747   9.563   1.675   0.945 -0.7147 -0.0899 -0.1798
29448SOL     OW91748  10.464   0.477  10.716  0.0613 -0.2205  0.4532
29448SOL    HW191749  10.427   0.564  10.727 -0.1277 -0.3488  0.8478
29448SOL    HW291750  10.418   0.441  10.640  2.6571  1.3490 -1.9332
29449SOL     OW91751   4.700   0.141   5.535  0.0094 -0.1999  0.0653
29449SOL    HW191752   4.726   0.164   5.446  1.1076 -0.0671  0.4077
29449SOL    HW291753   4.776   0.163   5.588 -0.5884 -0.4111  1.0199
29450SOL     OW91754   2.997   0.692   6.667  0.0212 -0.3680 -0.2132
29450SOL    HW191755   2.978   0.782   6.693 -0.8279 -0.0491 -1.8911
29450SOL    HW291756   2.987   0.641   6.748 -0.4174  0.9006  0.5445
29451SOL     OW91757   4.461   3.043   7.437 -0.3179  0.6437  0.3725
29451SOL    HW191758   4.460   3.059   7.343  1.2654  0.3299  0.2917
29451SOL    HW291759   4.440   2.950   7.445  0.5763  0.4375  0.2793
29452SOL     OW91760   3.872   4.229   9.241  0.3438  0.1818  0.1074
29452SOL    HW191761   3.919   4.153   9.207 -0.3035  0.5139 -1.5677
29452SOL    HW291762   3.929   4.303   9.222 -0.6356  0.5292 -1.4972
29453SOL     OW91763   0.276  10.782   1.798  0.6357 -0.0105 -0.0187
29453SOL    HW191764   0.191  10.827   1.793 -0.0579 -1.1708  1.2140
29453SOL    HW291765   0.295  10.759   1.707 -1.4089 -1.6582 -0.0703
29454SOL     OW91766   3.846   5.756   7.010  0.3272  0.7156  0.0329
29454SOL    HW191767   3.878   5.689   6.949 -2.3462  0.4837 -1.1688
29454SOL    HW291768   3.817   5.828   6.954 -0.1547  1.4034  1.1556
29455SOL     OW91769   8.073   3.523   1.819 -0.2798 -0.0628  0.0878
29455SOL    HW191770   7.987   3.500   1.854  0.1185 -1.3698  0.2139
29455SOL    HW291771   8.114   3.576   1.887 -0.8895  0.3692  0.1207
29456SOL     OW91772   9.583   6.135   6.255 -0.9421 -0.3486  0.2090
29456SOL    HW191773   9.507   6.137   6.312  0.7362  0.6978  2.5034
29456SOL    HW291774   9.594   6.224   6.224 -0.0218 -0.2404  0.8024
29457SOL     OW91775   0.952   2.908   2.032 -0.0171  0.1858 -0.4561
29457SOL    HW191776   1.000   2.852   1.971  0.5362 -0.7246  0.7746
29457SOL    HW291777   0.912   2.847   2.094  2.4698  1.1813  2.2799
29458SOL     OW91778   6.410   3.607  10.897  0.2698 -0.6025 -0.0867
29458SOL    HW191779   6.317   3.606  10.919 -0.2243 -0.5076 -2.0428
29458SOL    HW291780   6.455   3.622  10.980 -1.4992  0.0649  0.7676
29459SOL     OW91781   2.196   7.011   8.844 -0.4169  0.7174  0.1461
29459SOL    HW191782   2.245   7.073   8.790  0.1378 -0.4519 -0.7349
29459SOL    HW291783   2.234   7.019   8.931 -1.5631  2.8936  0.4808
29460SOL     OW91784   1.260   1.629   7.324 -0.0362  0.2906  0.2061
29460SOL    HW191785   1.235   1.713   7.287  1.0993  0.3760 -0.3777
29460SOL    HW291786   1.299   1.650   7.408  0.7693  0.4006 -0.1907
29461SOL     OW91787   9.695   3.666   3.028 -0.4983 -0.2316  0.8262
29461SOL    HW191788   9.715   3.752   3.065 -3.5317  1.3125 -0.9668
29461SOL    HW291789   9.644   3.621   3.095 -3.7295  1.5684 -0.3195
29462SOL     OW91790   2.099   2.453   7.652 -0.4032 -0.0269 -0.2087
29462SOL    HW191791   2.133   2.540   7.671 -0.7471 -0.3899  2.2839
29462SOL    HW291792   2.177   2.399   7.638 -0.0163 -0.0668  1.8594
29463SOL     OW91793   9.719   4.822   0.586 -0.3101  0.6668 -0.2380
29463SOL    HW191794   9.799   4.874   0.571  1.4596 -1.7633  0.3953
29463SOL    HW291795   9.731   4.745   0.532 -2.3163  0.2981 -0.1867
29464SOL     OW91796   6.203   7.468  10.956  0.3939 -0.3862  0.0580
29464SOL    HW191797   6.298   7.472  10.944  0.4633 -0.1259  0.6631
29464SOL    HW291798   6.183   7.544  11.012 -0.3228  0.2470 -1.0415
29465SOL     OW91799   9.377   0.204   9.782  0.2553 -0.2450  0.6008
29465SOL    HW191800   9.336   0.263   9.719  1.9266  1.8552  1.3888
29465SOL    HW291801   9.425   0.141   9.728 -0.7215 -0.2762 -0.2508
29466SOL     OW91802   8.473   5.988   8.127  0.6473  0.2735  0.0307
29466SOL    HW191803   8.517   5.971   8.044  0.2020 -2.1722  0.2577
29466SOL    HW291804   8.541   5.977   8.193  0.4858 -0.0377  0.1446
29467SOL     OW91805  10.669   6.758   8.082  0.1982  0.2466 -0.2057
29467SOL    HW191806  10.597   6.731   8.026 -1.4568  0.9759  1.5112
29467SOL    HW291807  10.683   6.850   8.061  0.6918  0.0891 -0.5835
29468SOL     OW91808   5.843   5.686   3.629  0.2415 -0.4318 -0.1440
29468SOL    HW191809   5.749   5.686   3.647  0.2510 -0.3111 -0.0937
29468SOL    HW291810   5.851   5.733   3.546  0.4729  1.5748  0.9692
29469SOL     OW91811   1.563   3.738   7.657 -0.0252 -0.0668  0.6529
29469SOL    HW191812   1.509   3.792   7.600 -0.8110  0.0224  1.4713
29469SOL    HW291813   1.644   3.725   7.608 -0.6626  0.0594 -0.4501
29470SOL     OW91814   5.597   1.906   9.305 -0.0672 -0.1452 -0.2766
29470SOL    HW191815   5.653   1.978   9.335  0.4921 -0.9737  0.6859
29470SOL    HW291816   5.632   1.882   9.219 -0.9062  1.4118 -1.0829
29471SOL     OW91817   9.102   1.289   4.411  0.1193 -0.1491 -0.0259
29471SOL    HW191818   9.026   1.263   4.463  0.2491 -1.5342 -0.4908
29471SOL    HW291819   9.070   1.292   4.321  0.4448 -0.0513 -0.1383
29472SOL     OW91820   2.258   6.422   4.469  0.2657 -0.3880  0.3097
29472SOL    HW191821   2.191   6.448   4.532 -1.4962 -0.3806 -1.5173
29472SOL    HW291822   2.298   6.505   4.441 -0.4162 -0.2061 -0.1474
29473SOL     OW91823  10.428   9.198   7.850  0.5061  0.7147 -0.0906
29473SOL    HW191824  10.367   9.265   7.880  0.6909  0.1839  1.5373
29473SOL    HW291825  10.372   9.127   7.818  0.2886  0.6858  0.3626
29474SOL     OW91826   6.689   3.138  10.233  0.5562 -0.4274 -0.1094
29474SOL    HW191827   6.726   3.219  10.197 -0.4729 -0.4064 -1.1707
29474SOL    HW291828   6.696   3.074  10.162  1.0013 -1.1603  0.5906
29475SOL     OW91829   4.711   3.245  10.423  0.2148  0.6258 -0.3780
29475SOL    HW191830   4.735   3.337  10.430  0.9677  0.4209 -0.1852
29475SOL    HW291831   4.788   3.203  10.385  0.3850 -0.1304  0.7513
29476SOL     OW91832   9.718  10.659  10.123 -0.3482  0.1039  0.1693
29476SOL    HW191833   9.623  10.662  10.109 -0.6325 -0.7791  1.7240
29476SOL    HW291834   9.738  10.565  10.125  0.8109  0.2931 -1.6288
29477SOL     OW91835   5.028   9.184   9.768  0.1959 -0.3386  0.0810
29477SOL    HW191836   5.054   9.248   9.702  1.9064 -1.1929 -0.1131
29477SOL    HW291837   4.991   9.237   9.839  1.4843  0.8852 -0.1205
29478SOL     OW91838   0.996   7.656   6.664  0.0625  0.1160 -0.7285
29478SOL    HW191839   1.073   7.710   6.680  0.6976 -0.9033 -0.3840
29478SOL    HW291840   0.972   7.675   6.573 -0.3403  1.7723 -0.3019
29479SOL     OW91841   3.417   0.063   1.221  0.3860  0.1136  0.3298
29479SOL    HW191842   3.432   0.010   1.300  0.9097 -1.0557 -0.5305
29479SOL    HW291843   3.504   0.096   1.198  0.3179  0.0582 -0.0162
29480SOL     OW91844   9.549   8.515   4.177 -0.4437 -0.6908 -0.1984
29480SOL    HW191845   9.488   8.453   4.138 -1.0435 -0.9857  1.1980
29480SOL    HW291846   9.516   8.601   4.150 -2.2457 -0.7793  1.5917
29481SOL     OW91847   7.895   6.151   4.575 -0.2781  0.5626 -0.1947
29481SOL    HW191848   7.881   6.066   4.615 -0.5042  0.9306  0.5091
29481SOL    HW291849   7.962   6.135   4.508  2.2195  0.5113  2.2613
29482SOL     OW91850   5.865   1.930   7.348 -0.9568  0.2960 -0.6548
29482SOL    HW191851   5.779   1.907   7.314 -0.5161 -1.5671 -0.5860
29482SOL    HW291852   5.879   1.869   7.421  0.6864  0.1137 -1.0983
29483SOL     OW91853   7.532   6.336   3.697  0.4251 -0.2886  0.6448
29483SOL    HW191854   7.516   6.242   3.688 -0.7443  0.1113 -1.6310
29483SOL    HW291855   7.473   6.363   3.768 -0.3115 -0.9909  0.3106
29484SOL     OW91856   6.014   5.423  10.871  0.1575 -0.2322 -0.0804
29484SOL    HW191857   6.061   5.448  10.951  1.2075 -1.8137 -0.1644
29484SOL    HW291858   5.928   5.465  10.879  0.8127  0.9022  1.1301
29485SOL     OW91859   0.285   7.753   7.958 -0.1789 -0.2072 -0.2974
29485SOL    HW191860   0.264   7.720   8.046 -2.6164  0.3039 -0.6756
29485SOL    HW291861   0.283   7.676   7.902  0.3371 -0.3681 -0.0985
29486SOL     OW91862  10.403   9.714   9.189 -0.0463  0.2029 -0.2130
29486SOL    HW191863  10.456   9.635   9.181  0.7002  0.6227  0.5239
29486SOL    HW291864  10.339   9.693   9.257  1.7733  1.0922  1.8413
29487SOL     OW91865   4.826  10.919   3.567  0.2605 -0.7927 -0.2996
29487SOL    HW191866   4.885  10.972   3.513 -0.4953  0.0527 -0.3047
29487SOL    HW291867   4.812  10.839   3.515 -0.1751 -0.1385 -1.2114
29488SOL     OW91868   0.923   7.903   7.622 -0.2709  0.2939  0.0601
29488SOL    HW191869   0.999   7.953   7.591 -0.2434 -1.0507 -2.1024
29488SOL    HW291870   0.870   7.888   7.544 -2.3113  0.3875  1.3826
29489SOL     OW91871   4.349   9.577   2.239 -0.5729  0.0268  0.3015
29489SOL    HW191872   4.424   9.528   2.270 -0.3932  0.8420  1.1737
29489SOL    HW291873   4.282   9.511   2.223 -0.0392 -0.5868  0.5849
29490SOL     OW91874   0.771  10.741   1.814 -0.1133  0.7139 -0.3291
29490SOL    HW191875   0.676  10.753   1.819 -0.0996  0.5653  0.2997
29490SOL    HW291876   0.801  10.747   1.905  0.3051 -0.6744 -0.3591
29491SOL     OW91877   7.756   5.451   0.366  0.5118 -0.0731 -0.4081
29491SOL    HW191878   7.664   5.424   0.371  0.5037  0.1354  1.0772
29491SOL    HW291879   7.803   5.371   0.346  0.2429 -0.7511  1.4887
29492SOL     OW91880   4.163   7.421   5.557  0.4664 -0.2505 -0.5570
29492SOL    HW191881   4.171   7.326   5.565 -0.9541 -0.5493 -2.3357
29492SOL    HW291882   4.114   7.434   5.476  3.0407  2.1115 -1.8022
29493SOL     OW91883   1.795   1.112   4.899 -0.0334  0.4781 -0.4761
29493SOL    HW191884   1.887   1.108   4.872 -0.2697  1.0453 -1.3853
29493SOL    HW291885   1.798   1.112   4.994  0.7773 -2.6987 -0.4341
29494SOL     OW91886   5.851  10.640   5.180  0.6619  0.1738 -0.1818
29494SOL    HW191887   5.842  10.558   5.229  2.2757  0.3948  0.5244
29494SOL    HW291888   5.945  10.646   5.161  0.7446  2.4381  0.7911
29495SOL     OW91889   8.102   0.039   3.533 -0.0383  0.2975 -0.2183
29495SOL    HW191890   8.141   0.122   3.506  0.3801 -0.2640 -1.3656
29495SOL    HW291891   8.056   0.008   3.455 -1.0818 -0.0442  0.5112
29496SOL     OW91892   8.060  10.572   4.540 -0.1364 -0.1614  0.6634
29496SOL    HW191893   8.072  10.481   4.512  0.9954 -0.0493  0.7820
29496SOL    HW291894   7.979  10.570   4.592  0.2364 -1.2272  1.2130
29497SOL     OW91895   8.325   0.025   8.053 -0.1409  0.2728 -0.3396
29497SOL    HW191896   8.247  -0.021   8.084 -0.2402  0.4712 -0.2946
29497SOL    HW291897   8.397  -0.034   8.072 -0.0065  1.0953  1.8249
29498SOL     OW91898   1.077  10.664  10.581  0.0522  0.1286  0.4212
29498SOL    HW191899   1.009  10.681  10.646  1.0127 -2.2606  2.1391
29498SOL    HW291900   1.144  10.615  10.629  1.5500 -0.2598 -1.9776
29499SOL     OW91901   9.715   8.506   4.646 -0.0933  0.3949 -0.0632
29499SOL    HW191902   9.740   8.495   4.738  2.6776  0.0503 -0.7887
29499SOL    HW291903   9.648   8.574   4.647 -2.3263 -1.7036  2.4893
29500SOL     OW91904  10.099   8.537   1.865  0.8161  0.0398  0.9372
29500SOL    HW191905  10.023   8.499   1.821  0.2434  1.4918  0.6074
29500SOL    HW291906  10.061   8.590   1.936  1.1512  4.0997 -1.7220
29501SOL     OW91907   0.140   3.569   7.640 -0.4154  0.1850  0.3107
29501SOL    HW191908   0.216   3.618   7.672 -1.2114 -0.0308  2.6317
29501SOL    HW291909   0.176   3.485   7.613  0.3981  0.6568 -0.1241
29502SOL     OW91910   4.351   1.257   6.330 -0.1762  0.3792 -0.3037
29502SOL    HW191911   4.294   1.302   6.267  0.8912  0.4995 -1.2028
29502SOL    HW291912   4.440   1.283   6.305  0.4357 -1.8515 -0.5425
29503SOL     OW91913   6.147   4.207   3.447 -0.2487 -0.2555 -0.3269
29503SOL    HW191914   6.114   4.146   3.512  1.4899  1.3239  2.1637
29503SOL    HW291915   6.074   4.266   3.429 -0.7979 -0.8196  0.0706
29504SOL     OW91916   4.968   8.428   6.589 -0.3648 -0.1994 -0.2758
29504SOL    HW191917   5.048   8.400   6.634 -0.7147  0.3130  0.6830
29504SOL    HW291918   4.932   8.496   6.645 -0.4742  0.9121 -1.6554
29505SOL     OW91919   5.772   8.410   0.186 -0.5118  0.4482  0.2389
29505SOL    HW191920   5.841   8.476   0.186  0.3946 -0.4853 -0.7444
29505SOL    HW291921   5.791   8.355   0.261 -1.1545  1.1639  0.9427
29506SOL     OW91922   8.546   3.397   2.296 -0.0976  0.2359 -0.0303
29506SOL    HW191923   8.560   3.312   2.336  1.1732 -0.1644 -1.2835
29506SOL    HW291924   8.595   3.458   2.352  1.3864 -0.2741 -0.7313
29507SOL     OW91925  10.647   8.418   3.233  0.6014 -0.1689 -0.5582
29507SOL    HW191926  10.720   8.462   3.277 -0.1488 -0.8929  1.4487
29507SOL    HW291927  10.670   8.325   3.235  0.8877 -0.1477 -2.3401
29508SOL     OW91928   1.674   5.636   8.017  0.4241 -0.0164  0.0415
29508SOL    HW191929   1.705   5.558   8.063 -1.2920 -0.8856 -0.2331
29508SOL    HW291930   1.724   5.637   7.935  0.4080 -0.8710  0.0105
29509SOL     OW91931   1.165   2.020   5.169  0.0129 -0.4555  0.1108
29509SOL    HW191932   1.211   1.980   5.243 -0.4331 -0.2055  0.5267
29509SOL    HW291933   1.172   1.956   5.099  1.0309 -0.4042  0.1642
29510SOL     OW91934   1.036   1.262   8.146  0.1618  0.7570 -0.3050
29510SOL    HW191935   0.967   1.320   8.179  1.1255  1.0283  1.2705
29510SOL    HW291936   1.034   1.274   8.051 -0.0523  2.8963 -0.0519
29511SOL     OW91937   7.604   7.284   9.194 -0.5315 -0.0886 -0.2335
29511SOL    HW191938   7.603   7.375   9.221 -1.2603  0.4362 -1.9934
29511SOL    HW291939   7.563   7.236   9.266  1.2705  0.7520  1.3948
29512SOL     OW91940   7.122   3.083   2.078  0.0631  0.7336 -0.1982
29512SOL    HW191941   7.122   2.989   2.060  2.6564  0.4553  0.9654
29512SOL    HW291942   7.038   3.100   2.119 -0.0970 -1.2517  0.3601
29513SOL     OW91943   2.698   7.612   5.556 -0.3608 -0.0388  0.9635
29513SOL    HW191944   2.697   7.517   5.550 -2.4098 -0.1452  2.5646
29513SOL    HW291945   2.772   7.632   5.613  2.0202 -0.4580 -1.8690
29514SOL     OW91946   1.728   7.477  10.476  0.2624  0.0100  0.7148
29514SOL    HW191947   1.707   7.388  10.448 -0.1928  1.0267 -2.3673
29514SOL    HW291948   1.650   7.528  10.454  2.3895  2.1062 -2.3642
29515SOL     OW91949   2.970   7.382   1.190  0.0712  0.8576 -0.1973
29515SOL    HW191950   3.002   7.469   1.215  1.0026  0.3700  0.3526
29515SOL    HW291951   3.037   7.348   1.131 -0.5247  0.7015 -0.7806
29516SOL     OW91952   3.309   9.050   0.892 -0.4790  0.3026  0.2849
29516SOL    HW191953   3.360   8.978   0.855 -0.1444  0.2636  0.8204
29516SOL    HW291954   3.320   9.122   0.830 -0.9014 -0.1349 -0.3058
29517SOL     OW91955   6.581   4.046   1.931 -0.5941  0.5005 -0.4125
29517SOL    HW191956   6.672   4.037   1.958 -0.4449 -2.0015 -1.5786
29517SOL    HW291957   6.558   4.136   1.953  1.3631  0.4094  2.2710
29518SOL     OW91958   2.325   4.610  10.257  0.3070 -0.2498 -0.0203
29518SOL    HW191959   2.289   4.600  10.168 -0.6363  2.2221  0.0613
29518SOL    HW291960   2.410   4.652  10.244  0.2144  0.0169  0.2530
29519SOL     OW91961   0.579   1.886   1.148  0.2820  0.1875  0.0598
29519SOL    HW191962   0.515   1.954   1.126 -0.2836 -0.1128  0.7560
29519SOL    HW291963   0.643   1.889   1.076  1.1958  2.6037  0.9265
29520SOL     OW91964   3.090   4.232   9.005  0.0389 -0.4093  0.0613
29520SOL    HW191965   3.180   4.261   9.019  0.5427 -1.5013 -0.8371
29520SOL    HW291966   3.082   4.151   9.057 -0.4669 -0.2340  0.2607
29521SOL     OW91967   0.010   3.525  10.671 -0.0479 -0.1227 -0.5147
29521SOL    HW191968   0.076   3.560  10.732 -0.4146  0.6901 -0.5830
29521SOL    HW291969  -0.005   3.436  10.702  1.3225 -0.4394 -0.6907
29522SOL     OW91970   2.867  10.467   9.131 -0.0509  0.7886  0.0872
29522SOL    HW191971   2.781  10.452   9.091 -0.6716 -0.4314  1.8337
29522SOL    HW291972   2.847  10.493   9.221  1.3924  1.5091  0.2177
29523SOL     OW91973   5.494   8.864  10.818  0.8817  0.0551 -0.3195
29523SOL    HW191974   5.549   8.918  10.762  1.7206 -1.7778 -1.3333
29523SOL    HW291975   5.556   8.824  10.880  0.5073 -0.8690 -0.5258
29524SOL     OW91976   2.685   4.177   2.185 -0.4316 -0.1235  0.0430
29524SOL    HW191977   2.662   4.164   2.277  1.6628 -0.7625  0.4938
29524SOL    HW291978   2.687   4.272   2.174  0.8549 -0.0082  1.0912
29525SOL     OW91979   8.637   7.682   5.574 -0.1014  0.0273 -0.3372
29525SOL    HW191980   8.572   7.658   5.508  0.0842 -1.4229 -0.0013
29525SOL    HW291981   8.690   7.603   5.586 -0.8085 -0.0825  2.3554
29526SOL     OW91982   7.124   8.586   0.996 -0.2189  0.1465  0.2982
29526SOL    HW191983   7.206   8.564   0.954 -0.2781  0.0499  0.2348
29526SOL    HW291984   7.144   8.663   1.050 -0.5266  1.3239 -1.2072
29527SOL     OW91985   9.672   1.493   2.267  0.1390 -0.2744  0.0213
29527SOL    HW191986   9.755   1.453   2.238 -0.3369 -1.4446  0.2421
29527SOL    HW291987   9.605   1.445   2.219 -0.5797 -1.2323  1.9275
29528SOL     OW91988   8.664   6.539   5.011  0.0947 -0.4296  0.0734
29528SOL    HW191989   8.590   6.505   4.960 -0.4358  0.8618 -0.0197
29528SOL    HW291990   8.729   6.468   5.007 -0.7474 -1.1872 -0.6503
29529SOL     OW91991   5.912   5.481   4.152  0.2074  0.0615  0.1013
29529SOL    HW191992   5.980   5.453   4.213 -0.3725 -0.5999  0.4560
29529SOL    HW291993   5.881   5.564   4.188  1.2837  0.7113 -0.4351
29530SOL     OW91994   1.708   9.326   1.814  1.1174  0.5216 -0.0970
29530SOL    HW191995   1.618   9.355   1.796  1.0514  0.5832  0.3139
29530SOL    HW291996   1.749   9.320   1.728 -0.1871 -2.5011 -0.5824
29531SOL     OW91997   6.161  10.445   4.494 -0.6513  0.5748  0.6575
29531SOL    HW191998   6.211  10.520   4.526  0.5562  0.3422 -0.6559
29531SOL    HW291999   6.118  10.477   4.414  0.3846 -0.3042 -0.2661
29532SOL     OW92000   9.035   2.208   1.742  0.5240 -0.1309  0.0119
29532SOL    HW192001   9.011   2.121   1.773 -1.9513 -0.1834 -1.9314
29532SOL    HW292002   9.068   2.252   1.820 -1.5635 -1.6290  1.8146
29533SOL     OW92003   7.409   6.856   1.955  0.0446  0.8272  0.4355
29533SOL    HW192004   7.322   6.897   1.959  0.7131  2.2214  0.9568
29533SOL    HW292005   7.391   6.765   1.931 -1.5736  1.0664  0.6526
29534SOL     OW92006   7.926   6.105   0.262  0.2756 -0.5288 -0.2668
29534SOL    HW192007   7.947   6.158   0.185 -0.1811  0.3596  0.2068
29534SOL    HW292008   7.958   6.157   0.336 -2.8071  0.5316  0.4286
29535SOL     OW92009   2.144   5.618   1.410  0.0887  0.0713 -0.4368
29535SOL    HW192010   2.159   5.555   1.481  0.8144  0.2382 -0.4429
29535SOL    HW292011   2.223   5.614   1.357 -0.0501  0.6620 -0.6907
29536SOL     OW92012  10.101   2.955   0.722  0.1893  0.5848  0.3581
29536SOL    HW192013  10.162   2.881   0.722 -0.3480  0.1272 -0.5970
29536SOL    HW292014  10.040   2.936   0.794  1.5878  1.4118  1.7921
29537SOL     OW92015   4.939   7.061   7.071 -0.3400 -0.2917  0.0706
29537SOL    HW192016   4.864   7.117   7.092 -0.9793 -1.6534  1.5192
29537SOL    HW292017   4.926   6.982   7.123  0.9630 -1.4799 -1.3303
29538SOL     OW92018   9.215   3.810   3.705 -0.2639  0.6636  0.4402
29538SOL    HW192019   9.289   3.828   3.648 -0.4971  0.0494 -0.0688
29538SOL    HW292020   9.253   3.760   3.778 -0.3707 -0.6757 -0.4159
29539SOL     OW92021   5.475   7.207  10.086 -0.2227  0.5699 -0.7091
29539SOL    HW192022   5.441   7.296  10.098  0.1799  0.7130 -0.5862
29539SOL    HW292023   5.468   7.167  10.173 -1.2747  0.1666 -0.9833
29540SOL     OW92024   1.255   7.319   7.545 -0.3216 -0.1517  0.0353
29540SOL    HW192025   1.241   7.369   7.465 -1.5136  0.1867  0.4435
29540SOL    HW292026   1.343   7.343   7.574 -1.2942  2.6080  0.8571
29541SOL     OW92027   7.353   0.506   9.832 -0.2790 -0.3816 -0.7930
29541SOL    HW192028   7.260   0.494   9.815 -0.2026 -0.6977 -0.9920
29541SOL    HW292029   7.386   0.418   9.851 -0.5747  0.0889  2.0602
29542SOL     OW92030   0.280   3.877   7.058  0.5748 -0.0325 -0.5959
29542SOL    HW192031   0.194   3.835   7.057  1.2697 -1.5013  0.2635
29542SOL    HW292032   0.282   3.926   7.140  0.9521 -0.8232 -0.1351
29543SOL     OW92033  10.148   5.897   7.126  0.6591  0.2155  0.0965
29543SOL    HW192034  10.165   5.907   7.220 -4.0810  1.1874  0.9951
29543SOL    HW292035  10.202   5.963   7.084  1.3765  1.0844  2.3444
29544SOL     OW92036   9.035   2.710   7.590 -0.0270 -0.7768  0.0570
29544SOL    HW192037   9.105   2.699   7.525 -0.3561 -3.5135  0.0900
29544SOL    HW292038   8.999   2.622   7.601 -2.2657  0.2637  1.4193
29545SOL     OW92039   5.609  10.822   5.588  0.6957  0.2098  0.5716
29545SOL    HW192040   5.645  10.841   5.501 -1.3929  2.1108  0.0658
29545SOL    HW292041   5.665  10.871   5.648  0.9879  0.4460  0.1114
29546SOL     OW92042   4.619   3.302   4.718  0.2569  0.1797  0.2772
29546SOL    HW192043   4.699   3.329   4.674  0.8202  0.8218  1.6477
29546SOL    HW292044   4.631   3.209   4.736  0.1282 -0.0248 -0.6965
29547SOL     OW92045   8.174   7.338   8.994  0.6975 -0.3143 -0.0546
29547SOL    HW192046   8.181   7.349   8.899  0.6136 -0.8677 -0.1264
29547SOL    HW292047   8.220   7.256   9.011 -0.0699 -0.6780  0.2743
29548SOL     OW92048   2.851   6.771   7.949  0.3967 -0.4863 -0.1937
29548SOL    HW192049   2.919   6.704   7.949  1.4658  0.5837  0.9658
29548SOL    HW292050   2.878   6.833   7.882  1.8176  1.1576  1.8419
29549SOL     OW92051   3.191   4.188   7.307  0.2245 -0.2563 -0.0913
29549SOL    HW192052   3.135   4.251   7.353 -0.1905  0.0952 -1.0633
29549SOL    HW292053   3.231   4.239   7.236  0.1981 -0.9936 -0.6364
29550SOL     OW92054   7.552   5.443   0.830 -0.1146 -0.3235 -0.0219
29550SOL    HW192055   7.603   5.493   0.894  0.4754  0.7130 -1.2789
29550SOL    HW292056   7.461   5.467   0.849  0.1018  0.5023  0.0142
29551SOL     OW92057   6.899   0.394  10.907  0.2482  0.0164  0.3443
29551SOL    HW192058   6.889   0.299  10.916 -0.5553  0.3419  3.3662
29551SOL    HW292059   6.812   0.424  10.881  0.6180 -0.0938 -1.0731
29552SOL     OW92060   3.800   1.344  10.024  0.3158  0.1834  0.2890
29552SOL    HW192061   3.790   1.252  10.001  0.1227 -0.3559  2.3694
29552SOL    HW292062   3.872   1.345  10.087 -0.2360  1.3317  0.9265
29553SOL     OW92063   9.806   4.527   2.274 -0.1868 -0.0864 -0.1715
29553SOL    HW192064   9.861   4.494   2.203  0.8982  0.9183  0.1808
29553SOL    HW292065   9.823   4.469   2.348 -0.4071 -0.4037 -0.3672
29554SOL     OW92066  10.971   7.867   3.028  0.2511  0.1222  0.5550
29554SOL    HW192067  10.889   7.917   3.037  2.1854  3.6322 -0.5614
29554SOL    HW292068  10.972   7.841   2.936  0.4245  0.1355  0.5548
29555SOL     OW92069   3.936   5.782   4.547 -0.0827  0.3474  0.1140
29555SOL    HW192070   3.878   5.853   4.522 -1.6285 -0.9346 -0.0316
29555SOL    HW292071   3.996   5.773   4.474  0.1840  1.5432  0.1720
29556SOL     OW92072   6.282   7.015   1.459  0.2110  0.1205  0.5229
29556SOL    HW192073   6.259   7.108   1.463 -0.3105 -0.0550  1.5173
29556SOL    HW292074   6.299   6.999   1.366  0.7707  1.3224  0.4031
29557SOL     OW92075   1.450   5.682   5.396 -0.0825 -0.2259  0.0584
29557SOL    HW192076   1.529   5.732   5.419  0.1592 -0.6345  0.1129
29557SOL    HW292077   1.483   5.599   5.363 -0.5128 -0.6821  0.7615
29558SOL     OW92078  10.959   3.250   0.016 -0.0810 -0.1218  0.7060
29558SOL    HW192079  10.907   3.300   0.079  1.9605  0.7479  1.7322
29558SOL    HW292080  10.929   3.160   0.026 -1.5226  0.3950  1.1237
29559SOL     OW92081   6.144   6.721  10.036 -0.0796  0.9170  0.2581
29559SOL    HW192082   6.053   6.723  10.065 -0.0381 -1.3426  0.6296
29559SOL    HW292083   6.188   6.665  10.099  0.9352 -0.4462 -1.5949
29560SOL     OW92084   7.152   1.659   0.442 -0.8305  0.6713 -0.0377
29560SOL    HW192085   7.240   1.677   0.475 -0.9486 -0.3645  0.8502
29560SOL    HW292086   7.149   1.705   0.358  0.4511  0.9667  0.0626
29561SOL     OW92087   5.235  10.935   2.756  0.7123  0.0233  0.3218
29561SOL    HW192088   5.147  10.973   2.755 -0.4554 -2.6057  1.4387
29561SOL    HW292089   5.222  10.841   2.746  3.4091 -0.4230  0.5005
29562SOL     OW92090   5.165   1.302   2.372  0.3316  0.4116  0.0155
29562SOL    HW192091   5.100   1.245   2.331  0.8274 -0.1041 -0.0503
29562SOL    HW292092   5.222   1.330   2.301  1.7853 -1.2734  0.5005
29563SOL     OW92093   3.206   8.689  10.888  0.2629 -0.0528 -0.3325
29563SOL    HW192094   3.152   8.640  10.950 -0.0319 -1.6122 -1.7705
29563SOL    HW292095   3.286   8.711  10.937 -0.7955  0.4800  1.1759
29564SOL     OW92096   5.742   2.256   0.221 -0.7371 -0.0292 -0.2076
29564SOL    HW192097   5.765   2.198   0.148 -0.4166 -0.9305  0.5948
29564SOL    HW292098   5.801   2.230   0.292  0.9952  2.8178 -0.5291
29565SOL     OW92099   8.767   1.682   3.930  0.7932  0.0895 -0.2904
29565SOL    HW192100   8.832   1.617   3.903  0.5695  0.7874 -2.5441
29565SOL    HW292101   8.683   1.643   3.904  0.4741  0.2307  0.5106
29566SOL     OW92102   0.720  10.696   2.912 -0.0912  0.2581 -0.0342
29566SOL    HW192103   0.796  10.641   2.895  0.0876  0.1700  1.0400
29566SOL    HW292104   0.748  10.784   2.887 -0.3541 -0.1088 -1.6887
29567SOL     OW92105   3.664   5.377   4.333  0.3472  0.0615  0.7414
29567SOL    HW192106   3.642   5.284   4.331 -0.2533  0.1809  1.5232
29567SOL    HW292107   3.760   5.378   4.337  0.3530 -0.5282  0.8876
29568SOL     OW92108   8.729   2.735  10.721  0.2859  0.1332  0.0217
29568SOL    HW192109   8.820   2.751  10.747  0.1975 -1.5586  1.4825
29568SOL    HW292110   8.687   2.820  10.727  1.0597  0.3974  2.4394
29569SOL     OW92111   6.412   8.774  10.163  0.2447  0.0233  0.7210
29569SOL    HW192112   6.434   8.863  10.192  1.9723 -0.3980  0.7866
29569SOL    HW292113   6.378   8.731  10.242 -0.8960  0.7084  0.6125
29570SOL     OW92114   1.072   8.624   7.476 -0.7180  0.4762 -0.6168
29570SOL    HW192115   0.977   8.626   7.488 -0.7027 -1.0833 -0.2421
29570SOL    HW292116   1.106   8.590   7.558  0.3129  2.6976 -0.0777
29571SOL     OW92117   4.224   8.326   5.396 -0.0444 -0.3105  0.2961
29571SOL    HW192118   4.190   8.241   5.366  2.1439 -1.3018  0.5201
29571SOL    HW292119   4.244   8.312   5.489  2.3879 -0.2601 -0.1822
29572SOL     OW92120   1.096   1.941   0.535  0.4731  0.8738  0.1118
29572SOL    HW192121   1.064   1.976   0.618  0.5675  2.5344 -0.5295
29572SOL    HW292122   1.040   1.865   0.517 -0.4644  1.3483  0.9874
29573SOL     OW92123   6.102  10.602   9.861 -0.2598 -0.9500  0.4165
29573SOL    HW192124   6.159  10.652   9.920  0.3036  2.1035 -2.5896
29573SOL    HW292125   6.015  10.637   9.877 -0.2021 -0.5623 -0.1238
29574SOL     OW92126  10.620   5.355   0.819  0.2805 -0.2715  0.0181
29574SOL    HW192127  10.580   5.294   0.881  0.2620  0.5833  0.8550
29574SOL    HW292128  10.553   5.370   0.752 -0.1429 -0.2512  0.4488
29575SOL     OW92129   1.873   6.859   9.261 -0.5181  0.0190  0.0596
29575SOL    HW192130   1.786   6.885   9.291 -0.7764  0.5341 -1.1184
29575SOL    HW292131   1.897   6.925   9.196  1.1656  0.4259  1.0700
29576SOL     OW92132   6.755   7.351   8.326  0.0964  0.1632 -0.0966
29576SOL    HW192133   6.731   7.270   8.282 -1.2412  1.2682 -1.4335
29576SOL    HW292134   6.744   7.331   8.419 -1.5440 -0.7842 -0.4723
29577SOL     OW92135   2.564  10.421  10.095 -0.0143  0.4549 -0.2727
29577SOL    HW192136   2.588  10.501  10.049  0.4902  1.0276  0.9672
29577SOL    HW292137   2.578  10.351  10.031 -2.4731  1.5215 -2.0680
29578SOL     OW92138  10.275   8.696   7.251  0.4247  0.1784  0.0799
29578SOL    HW192139  10.189   8.701   7.293  0.9706  0.2586  1.1843
29578SOL    HW292140  10.257   8.715   7.159 -0.6469  0.8101  0.4137
29579SOL     OW92141   6.738   5.929   2.197  0.1451 -0.4062 -0.8028
29579SOL    HW192142   6.710   5.953   2.108 -0.7589 -1.4901 -0.8179
29579SOL    HW292143   6.704   5.840   2.210 -0.2411 -0.0364  0.8449
29580SOL     OW92144   9.770   3.789   6.287 -0.0945  0.4485 -0.5453
29580SOL    HW192145   9.795   3.814   6.198 -0.2145  0.4348 -0.5821
29580SOL    HW292146   9.845   3.739   6.319  0.4652  1.4917 -0.2053
29581SOL     OW92147   4.136   3.230   7.913 -0.3024 -0.2072  0.2787
29581SOL    HW192148   4.176   3.313   7.890 -1.8678  0.3792 -0.3967
29581SOL    HW292149   4.143   3.225   8.008  0.3041  0.4326  0.2663
29582SOL     OW92150   1.455   5.338   1.466  0.5196  0.2220 -0.7539
29582SOL    HW192151   1.446   5.422   1.511 -1.0753  1.0182 -2.4940
29582SOL    HW292152   1.538   5.346   1.418  0.8020  0.4535 -0.2397
29583SOL     OW92153   8.145   9.883   2.311  0.1417  0.0940  0.4686
29583SOL    HW192154   8.206   9.863   2.240  1.0166 -1.4684  1.6166
29583SOL    HW292155   8.089   9.805   2.318  0.5862 -0.1092  1.9978
29584SOL     OW92156   6.494   9.224   6.101 -0.0496  0.4371  0.4481
29584SOL    HW192157   6.546   9.214   6.022 -0.5304  0.5995  0.1104
29584SOL    HW292158   6.410   9.257   6.071 -0.2012  0.5971  1.0360
29585SOL     OW92159   1.342   3.398   0.421  0.3568 -0.2926 -0.1848
29585SOL    HW192160   1.349   3.318   0.473 -2.9324  0.3824  1.4828
29585SOL    HW292161   1.428   3.440   0.429  1.2873 -2.3914  1.0651
29586SOL     OW92162  10.424   1.802   0.717  0.1657 -0.1285  0.0938
29586SOL    HW192163  10.399   1.766   0.632  1.7064  0.2948 -0.5549
29586SOL    HW292164  10.474   1.731   0.759  1.2935  0.4351 -0.2711
29587SOL     OW92165   4.521   3.664   2.325 -0.0938  0.3566  0.2766
29587SOL    HW192166   4.441   3.612   2.329 -1.4570  2.5124  1.3333
29587SOL    HW292167   4.500   3.746   2.368  2.7491  0.9130  0.7251
29588SOL     OW92168   8.856   6.489   7.052  0.1217  0.0146 -0.1395
29588SOL    HW192169   8.909   6.556   7.095  1.3519  0.9304 -2.9703
29588SOL    HW292170   8.854   6.515   6.960 -2.7794 -1.6605 -0.6111
29589SOL     OW92171  10.978   5.258   4.835 -0.7113  0.1719 -0.5718
29589SOL    HW192172  10.992   5.164   4.841  0.5594  0.3687 -0.3311
29589SOL    HW292173  11.059   5.293   4.799 -0.8221  1.2708  0.1891
29590SOL     OW92174   0.337   9.540   6.213 -0.2731  0.8054 -0.1547
29590SOL    HW192175   0.422   9.551   6.172 -0.3593 -1.0269 -0.8729
29590SOL    HW292176   0.357   9.508   6.301 -0.2288 -1.5439 -0.9775
29591SOL     OW92177   5.609   6.686   9.580  0.7215  0.3435 -0.0140
29591SOL    HW192178   5.652   6.620   9.526 -1.2138 -0.1871 -0.9447
29591SOL    HW292179   5.635   6.770   9.542  0.0831 -0.0035 -1.2483
29592SOL     OW92180   6.691  10.045   1.343  0.4619  0.2315  0.3536
29592SOL    HW192181   6.684  10.052   1.248 -0.5562 -3.2992  0.0774
29592SOL    HW292182   6.601  10.047   1.375  0.5377 -2.3735  0.8446
29593SOL     OW92183   1.528   7.860   2.184  0.4874 -0.3025 -0.1222
29593SOL    HW192184   1.457   7.917   2.215  2.5660  1.2225  2.0373
29593SOL    HW292185   1.544   7.888   2.094  0.8164  1.9238  0.5857
29594SOL     OW92186   7.502   9.576   9.387 -0.1483 -0.2982  0.3596
29594SOL    HW192187   7.420   9.552   9.344  0.0830 -1.1072  0.3605
29594SOL    HW292188   7.556   9.497   9.380  0.3803  0.0133  0.9487
29595SOL     OW92189   5.351   0.573   6.043 -0.4865 -0.2552 -0.1826
29595SOL    HW192190   5.320   0.618   5.964 -1.0780  0.7803  0.6358
29595SOL    HW292191   5.436   0.536   6.017  0.3855  1.9865 -0.6692
29596SOL     OW92192   9.174   5.722   1.596  0.1351 -0.5267 -0.3546
29596SOL    HW192193   9.165   5.728   1.501  0.1373 -0.3412 -0.3428
29596SOL    HW292194   9.121   5.794   1.630  2.1668  0.9550 -0.3097
29597SOL     OW92195   9.131   4.572   8.099  0.1524 -0.7951 -0.1665
29597SOL    HW192196   9.072   4.642   8.070  0.1466 -1.4595 -1.7864
29597SOL    HW292197   9.130   4.579   8.195 -2.1823 -0.5003 -0.1685
29598SOL     OW92198   6.777   6.935   3.970 -0.6657 -0.6918  0.2344
29598SOL    HW192199   6.725   7.007   4.007 -0.1517 -0.4245  0.4480
29598SOL    HW292200   6.868   6.963   3.984 -0.4592 -1.6471  0.8325
29599SOL     OW92201   3.806   3.022  10.284  0.0466  0.5409 -0.2862
29599SOL    HW192202   3.872   2.996  10.348  0.2826  0.5464 -0.5272
29599SOL    HW292203   3.750   3.084  10.331 -0.3708 -0.2135  0.2146
29600SOL     OW92204  10.076   0.697   3.020  0.2270  0.2327 -0.1743
29600SOL    HW192205  10.018   0.647   3.077  1.1803 -1.4346 -0.6348
29600SOL    HW292206  10.051   0.788   3.035 -2.7760 -0.4481 -0.6463
29601SOL     OW92207  10.888   6.437  10.696 -0.4185  1.1167 -0.6593
29601SOL    HW192208  10.848   6.382  10.764 -0.7043 -1.1139 -2.5587
29601SOL    HW292209  10.852   6.524  10.711 -1.1769  0.4821  1.4634
29602SOL     OW92210   6.397   1.278   1.047  0.2088 -0.1397 -0.5096
29602SOL    HW192211   6.435   1.300   0.961  1.9896  0.4321  0.3965
29602SOL    HW292212   6.450   1.205   1.078 -1.1965 -1.1288 -0.3885
29603SOL     OW92213   0.796   6.210   9.817 -0.0461 -0.5096  0.0119
29603SOL    HW192214   0.702   6.215   9.805  0.2537  0.6846 -2.0556
29603SOL    HW292215   0.822   6.298   9.844  0.3317 -1.1764  1.9481
29604SOL     OW92216   9.765  10.311   1.880 -0.2371 -0.5796  0.1923
29604SOL    HW192217   9.672  10.332   1.886  0.2568  1.9328 -0.4597
29604SOL    HW292218   9.800  10.375   1.818  1.7478 -2.1357 -0.3523
29605SOL     OW92219   4.181   6.768   6.878 -0.1581 -0.3642  0.4930
29605SOL    HW192220   4.256   6.710   6.866 -0.8191 -1.2027  0.3849
29605SOL    HW292221   4.185   6.793   6.970 -0.9147 -2.0281  0.9788
29606SOL     OW92222   8.096   7.146   3.351 -0.4801 -0.3452 -0.6981
29606SOL    HW192223   8.055   7.144   3.437  0.7821 -0.2704 -0.1017
29606SOL    HW292224   8.188   7.163   3.367 -0.2993  0.0990 -2.0906
29607SOL     OW92225   1.769   7.115   8.084 -0.5785 -0.4237 -0.7198
29607SOL    HW192226   1.782   7.153   8.171  2.7750  0.3208 -1.4848
29607SOL    HW292227   1.738   7.188   8.030  1.6877  0.2614 -1.1591
29608SOL     OW92228   8.729   2.883   4.138 -0.0310 -0.3061  0.3954
29608SOL    HW192229   8.820   2.909   4.152 -0.1593 -0.0916  0.8271
29608SOL    HW292230   8.722   2.868   4.044  0.7193 -1.2948  0.4850
29609SOL     OW92231   9.127   0.342   4.733  0.4592  0.1294  0.3246
29609SOL    HW192232   9.211   0.318   4.693 -0.5402 -3.2563  0.1302
29609SOL    HW292233   9.144   0.337   4.827  0.6675  0.2248  0.2942
29610SOL     OW92234   3.018   6.426   1.813  0.1929 -0.0723  0.1485
29610SOL    HW192235   2.994   6.347   1.764 -0.3837 -0.5925  1.2528
29610SOL    HW292236   2.935   6.469   1.831  0.2660 -0.6322  1.9032
29611SOL     OW92237   3.246  10.790   3.070 -0.4679 -0.4005 -0.2894
29611SOL    HW192238   3.239  10.696   3.085  0.6968 -0.5593 -0.7289
29611SOL    HW292239   3.176  10.828   3.125 -1.5786 -1.5722 -0.8687
29612SOL     OW92240   8.657   2.386   1.249 -0.2982 -0.2986  0.0382
29612SOL    HW192241   8.715   2.445   1.200  1.7944 -1.1467  1.4318
29612SOL    HW292242   8.648   2.309   1.192 -0.5202  0.0585 -0.4186
29613SOL     OW92243   9.345   7.051   2.636 -0.4924 -0.1375  0.1057
29613SOL    HW192244   9.306   6.963   2.635 -0.7281 -0.0468  0.8617
29613SOL    HW292245   9.439   7.036   2.632 -0.5195 -0.4387  0.5901
29614SOL     OW92246   9.088   5.272   8.111 -0.5237 -0.4424  0.4188
29614SOL    HW192247   9.121   5.261   8.201  0.4781 -2.0374 -0.1281
29614SOL    HW292248   9.001   5.309   8.123 -0.6637 -1.2370  2.0868
29615SOL     OW92249   5.065   6.514   3.870 -0.1651  0.7560  0.0674
29615SOL    HW192250   5.011   6.564   3.931 -0.7895 -0.0697  0.1907
29615SOL    HW292251   5.153   6.520   3.906 -0.3701  1.0896  0.5191
29616SOL     OW92252   0.649   4.649   8.674  0.1933  0.4566  0.6605
29616SOL    HW192253   0.663   4.705   8.597 -1.5071  0.7046  0.5078
29616SOL    HW292254   0.674   4.561   8.644  2.1834  0.9851  0.6820
29617SOL     OW92255   4.273   5.528   9.670 -0.0607 -0.1284  0.3297
29617SOL    HW192256   4.244   5.604   9.721  1.2102  1.7181 -1.6112
29617SOL    HW292257   4.368   5.533   9.672  0.1302 -3.1327  2.2205
29618SOL     OW92258   1.492   2.268   3.849 -0.6156  0.8720 -0.8427
29618SOL    HW192259   1.498   2.344   3.907 -2.7163  0.5328 -0.1557
29618SOL    HW292260   1.575   2.269   3.801  1.0540  1.3314  1.9347
29619SOL     OW92261   5.567   7.861   4.212  0.0446 -0.0335 -0.1946
29619SOL    HW192262   5.600   7.894   4.129  2.5979 -0.6799  0.5012
29619SOL    HW292263   5.627   7.896   4.278 -0.3578 -1.6560  1.0972
29620SOL     OW92264   7.508   4.105   4.592  0.4383  0.5450 -0.4620
29620SOL    HW192265   7.478   4.025   4.636  0.3572  0.4279 -0.7281
29620SOL    HW292266   7.507   4.171   4.660 -1.3645  0.7601 -0.6793
29621SOL     OW92267  10.669   8.639   2.688  0.2978  0.7408 -0.1686
29621SOL    HW192268  10.693   8.709   2.626  1.1645 -0.6363 -1.4122
29621SOL    HW292269  10.702   8.559   2.647 -0.8575 -0.4236  1.1669
29622SOL     OW92270  10.352   1.017   9.991 -0.2781  0.1552  0.4794
29622SOL    HW192271  10.348   1.108   9.962  1.7796 -0.2434 -1.1920
29622SOL    HW292272  10.291   0.970   9.934  0.9407  0.0050 -0.7284
29623SOL     OW92273   0.466   4.665   3.738 -0.1275 -0.5112  0.0746
29623SOL    HW192274   0.437   4.734   3.798  1.1471 -0.9370  1.1913
29623SOL    HW292275   0.500   4.597   3.795  0.2247 -1.3262 -1.1102
29624SOL     OW92276   5.668   4.944   3.669 -0.3729  0.1231  0.4294
29624SOL    HW192277   5.662   4.912   3.579  0.9719 -0.9528  0.7023
29624SOL    HW292278   5.687   4.865   3.720  3.1726  1.3595  1.1069
29625SOL     OW92279   8.082   1.372   1.207 -0.4668 -0.1787 -0.3081
29625SOL    HW192280   8.098   1.462   1.179 -1.7364 -0.1313 -0.9057
29625SOL    HW292281   8.143   1.359   1.281  1.9037  0.1358 -2.1402
29626SOL     OW92282   2.423   0.265   1.945  0.0729 -0.2711  0.3951
29626SOL    HW192283   2.352   0.227   1.996 -0.1810 -1.2229 -0.6415
29626SOL    HW292284   2.502   0.248   1.997 -0.2835 -0.5086  0.8598
29627SOL     OW92285   4.016   3.676   9.298  0.1983 -0.0551  0.3261
29627SOL    HW192286   3.994   3.769   9.289  0.8678  0.0182 -0.6811
29627SOL    HW292287   4.029   3.647   9.208 -0.3905 -1.2231  0.6146
29628SOL     OW92288   5.485   4.951   9.895 -0.6516  0.0795 -0.2538
29628SOL    HW192289   5.430   4.933   9.971 -0.1686 -1.7384 -0.3304
29628SOL    HW292290   5.496   4.867   9.852 -1.0436  1.1169 -2.4333
29629SOL     OW92291   2.563   4.810   8.433 -0.2666 -0.5182  0.1378
29629SOL    HW192292   2.517   4.787   8.352  0.5779  0.6031 -0.6995
29629SOL    HW292293   2.523   4.893   8.460  0.6193  0.0074 -0.1147
29630SOL     OW92294  10.105   6.665   6.745 -0.5385  0.1415 -0.5192
29630SOL    HW192295  10.071   6.593   6.798  0.8501  0.1471  0.4131
29630SOL    HW292296  10.189   6.633   6.713  1.2121  2.1618  1.8199
29631SOL     OW92297   0.646   8.263   3.707 -0.0293 -0.1136 -0.2182
29631SOL    HW192298   0.553   8.241   3.711 -0.5327  1.9634 -0.0723
29631SOL    HW292299   0.687   8.187   3.664 -1.8821 -0.7469 -0.8989
29632SOL     OW92300   1.487   0.074  10.773 -0.1021 -0.0818 -0.0347
29632SOL    HW192301   1.533  -0.007  10.748 -0.2049 -0.6126  1.4456
29632SOL    HW292302   1.554   0.127  10.816 -0.0987  0.5130 -0.7739
29633SOL     OW92303   4.030   5.833  10.592 -0.2802  0.5062  0.2693
29633SOL    HW192304   3.964   5.764  10.582  0.3632 -0.0583 -0.1330
29633SOL    HW292305   4.038   5.844  10.687 -1.3912  1.0101  0.3053
29634SOL     OW92306   2.250   6.567   8.410  0.4020 -0.1468 -0.3064
29634SOL    HW192307   2.161   6.543   8.384  0.2272  0.9812 -0.7637
29634SOL    HW292308   2.239   6.628   8.482  0.7893  0.4418 -0.7420
29635SOL     OW92309   2.370   2.104   4.605  0.1895  0.7597 -0.3567
29635SOL    HW192310   2.316   2.099   4.525 -1.1969  1.0548  0.5517
29635SOL    HW292311   2.424   2.182   4.592  1.6951 -0.5068 -2.0579
29636SOL     OW92312   1.818   9.403   9.308 -0.4280  0.1330  0.0111
29636SOL    HW192313   1.834   9.310   9.293  1.6668  0.3590  0.6291
29636SOL    HW292314   1.725   9.414   9.290 -0.2906 -1.6640 -2.0711
29637SOL     OW92315   7.580   3.372   7.260 -0.6150 -0.3982 -0.0253
29637SOL    HW192316   7.556   3.281   7.279 -1.3989 -0.2206 -0.1485
29637SOL    HW292317   7.675   3.370   7.250 -0.7824 -1.4778 -1.5237
29638SOL     OW92318   4.180   1.348   1.026  0.0073 -0.1647 -0.1767
29638SOL    HW192319   4.104   1.339   0.969  0.0735 -2.8698  0.0782
29638SOL    HW292320   4.191   1.261   1.065  2.3881  0.5488  0.8478
29639SOL     OW92321   5.935   2.672   1.026  0.5341 -0.3214 -0.4727
29639SOL    HW192322   5.842   2.655   1.033 -0.0391  2.3224 -0.9895
29639SOL    HW292323   5.968   2.605   0.966 -0.8664 -1.7495  0.3139
29640SOL     OW92324   3.039   3.588   6.802  0.1859 -0.0793 -0.0880
29640SOL    HW192325   3.010   3.675   6.829 -1.0554 -0.6724  0.5103
29640SOL    HW292326   3.109   3.605   6.739 -0.5751  1.3600 -0.5674
29641SOL     OW92327   8.345   8.620   3.941  0.0462  0.3912 -0.3821
29641SOL    HW192328   8.390   8.621   4.025  1.6654  1.6039 -1.2333
29641SOL    HW292329   8.413   8.600   3.877 -1.1711 -0.5332 -1.4118
29642SOL     OW92330   8.876   7.947   7.571 -0.2583  0.2147 -0.0609
29642SOL    HW192331   8.869   8.018   7.635 -1.0104  1.4664 -1.5089
29642SOL    HW292332   8.786   7.916   7.560  0.3751 -2.7252  2.4827
29643SOL     OW92333   6.125   8.401  10.320  0.2125 -0.0501  0.1603
29643SOL    HW192334   6.098   8.388  10.229  1.7187 -1.7103 -0.0742
29643SOL    HW292335   6.052   8.365  10.372 -0.2440  0.0706 -0.3883
29644SOL     OW92336   2.449  10.743   2.315  0.2480  0.3600  0.2561
29644SOL    HW192337   2.402  10.781   2.389  1.6995  0.7767  0.9665
29644SOL    HW292338   2.472  10.655   2.345  1.4023  0.7591  0.5459
29645SOL     OW92339  10.603  10.774   1.568 -0.2821 -0.4014 -0.5361
29645SOL    HW192340  10.565  10.862   1.563  1.0168  0.1437 -0.8684
29645SOL    HW292341  10.688  10.787   1.610 -0.4912 -1.6320  0.2936
29646SOL     OW92342   2.366   6.993   1.670  0.9006 -0.6323  0.3255
29646SOL    HW192343   2.332   7.081   1.650  1.1086 -0.1733  1.8927
29646SOL    HW292344   2.353   6.943   1.590  1.3238  1.0050 -0.7911
29647SOL     OW92345   8.627   0.335   1.777 -0.2870  0.1575  0.3136
29647SOL    HW192346   8.689   0.375   1.838 -0.6200  1.4922 -0.2196
29647SOL    HW292347   8.682   0.281   1.719  0.4520  1.7152 -0.4597
29648SOL     OW92348   0.735   2.166   1.103  0.0472  0.0305  0.5411
29648SOL    HW192349   0.781   2.107   1.042 -1.0095  0.5359 -0.7770
29648SOL    HW292350   0.804   2.221   1.139  0.6780 -0.1193 -0.3954
29649SOL     OW92351   7.933   5.596  10.154 -0.7490  0.1891  0.0132
29649SOL    HW192352   8.021   5.569  10.127 -0.2601  1.8273 -0.1109
29649SOL    HW292353   7.875   5.555  10.090 -0.0254 -0.4202 -0.2633
29650SOL     OW92354   1.518   6.679   4.106 -0.5607 -0.3116 -0.2747
29650SOL    HW192355   1.449   6.647   4.164  0.2137 -0.9999  0.2827
29650SOL    HW292356   1.546   6.601   4.057 -2.0887  0.4955 -2.5282
29651SOL     OW92357   2.852   9.398   3.914  0.0631 -0.0701  0.2641
29651SOL    HW192358   2.773   9.447   3.890 -0.2788  0.3201  2.1000
29651SOL    HW292359   2.863   9.415   4.008  0.7644 -2.3433  0.6221
29652SOL     OW92360   9.803   7.397   5.192 -0.4687  0.1742  0.9098
29652SOL    HW192361   9.886   7.442   5.207  0.0689 -0.6385  0.4073
29652SOL    HW292362   9.752   7.456   5.137  0.6939 -0.3400 -0.7445
29653SOL     OW92363  10.764   4.998   3.993 -0.6681 -0.1215 -0.4938
29653SOL    HW192364  10.839   4.975   4.047 -0.4276 -0.7730 -1.0871
29653SOL    HW292365  10.688   4.984   4.050 -0.3836 -0.2531 -0.1468
29654SOL     OW92366   1.549   7.479   4.570 -0.2767 -0.1388  0.1237
29654SOL    HW192367   1.525   7.416   4.638 -0.2477 -0.1185  0.1532
29654SOL    HW292368   1.610   7.433   4.514  1.3129  0.4994  1.2977
29655SOL     OW92369   2.268   3.811   9.541  0.2610  0.3728 -0.3152
29655SOL    HW192370   2.336   3.841   9.482 -0.7016  2.5151 -0.3816
29655SOL    HW292371   2.289   3.719   9.557  2.1209  0.5184 -1.7428
29656SOL     OW92372   3.654   6.490   4.269 -0.1068  0.2164 -1.2062
29656SOL    HW192373   3.684   6.578   4.291 -5.2441  1.7057  0.7332
29656SOL    HW292374   3.595   6.502   4.194 -1.8263 -1.3099 -0.1700
29657SOL     OW92375   6.014   0.946  10.177 -0.3716 -0.2585  0.4738
29657SOL    HW192376   6.097   0.939  10.129  0.7348  1.1594  2.1375
29657SOL    HW292377   5.951   0.978  10.112  0.8061  0.3926 -0.3576
29658SOL     OW92378   0.865   0.366   5.520  0.9195  0.8810  0.1125
29658SOL    HW192379   0.902   0.432   5.461  3.0313 -0.1238  0.2761
29658SOL    HW292380   0.937   0.344   5.579  0.4717 -2.1500 -0.4275
29659SOL     OW92381   8.415   6.440   6.568  0.3940  0.7096 -0.1214
29659SOL    HW192382   8.463   6.521   6.588  1.8285 -0.7551  2.7897
29659SOL    HW292383   8.323   6.465   6.571  0.8281  2.3086  0.3729
29660SOL     OW92384   5.441   6.751   2.425  0.3029  0.2264 -0.4748
29660SOL    HW192385   5.503   6.791   2.486  0.9249  0.4155 -1.2194
29660SOL    HW292386   5.467   6.659   2.423  0.5713  0.3076 -0.7951
29661SOL     OW92387   9.662   3.361   4.172 -0.1315 -0.3672 -0.1719
29661SOL    HW192388   9.756   3.376   4.186 -0.1098 -0.1334 -0.5525
29661SOL    HW292389   9.648   3.382   4.080 -0.5067 -0.6684 -0.1849
29662SOL     OW92390   1.947   0.564   9.130 -0.9204  0.1976 -0.0001
29662SOL    HW192391   1.966   0.622   9.055 -0.2977 -1.2654 -0.9976
29662SOL    HW292392   1.863   0.594   9.163 -0.1144  2.3878  0.1847
29663SOL     OW92393   3.560   5.129   6.149 -0.2877  0.4708  0.2040
29663SOL    HW192394   3.491   5.080   6.104  0.6833  1.8273 -2.8985
29663SOL    HW292395   3.515   5.208   6.181 -0.6227  0.3668 -0.0017
29664SOL     OW92396   5.927   9.584   3.714  0.6474  0.0656  0.8240
29664SOL    HW192397   5.887   9.665   3.746 -1.9138 -0.6811 -0.3580
29664SOL    HW292398   5.969   9.609   3.632  1.9471  0.6940  1.6704
29665SOL     OW92399   2.067   2.843   8.057 -0.6165  0.5077 -0.5141
29665SOL    HW192400   1.986   2.889   8.076 -0.2583  1.2235 -0.7044
29665SOL    HW292401   2.070   2.772   8.122 -1.1734  0.7447 -0.2242
29666SOL     OW92402   5.657   0.476   2.423  0.0921  0.0583 -0.0055
29666SOL    HW192403   5.706   0.413   2.477 -1.1445 -0.4916  0.4984
29666SOL    HW292404   5.724   0.537   2.391  1.2193 -1.1561 -0.0037
29667SOL     OW92405  10.348  10.229   5.835  1.0280  0.3548 -0.0946
29667SOL    HW192406  10.351  10.320   5.805 -0.9865  0.2664 -0.6555
29667SOL    HW292407  10.334  10.178   5.756  0.0833 -0.2489  0.4414
29668SOL     OW92408   9.896   1.027   6.716 -0.3533 -0.1025  0.2322
29668SOL    HW192409   9.817   1.067   6.679 -0.6691  0.5651  1.6093
29668SOL    HW292410   9.923   0.963   6.650 -2.3652 -0.7525  0.0092
29669SOL     OW92411   2.331   4.469   1.496 -0.0425  0.2151  0.3250
29669SOL    HW192412   2.244   4.501   1.521  0.5108  1.6668  0.4271
29669SOL    HW292413   2.386   4.486   1.573  0.8148  1.2459 -0.5067
29670SOL     OW92414   3.733   5.875   0.491  0.0660 -0.2439  0.1142
29670SOL    HW192415   3.711   5.898   0.401 -1.2110 -1.5810  0.0725
29670SOL    HW292416   3.826   5.851   0.488 -0.4008 -1.8855 -1.1552
29671SOL     OW92417   1.023   9.166   7.708  0.3313 -0.2861  0.6891
29671SOL    HW192418   1.092   9.206   7.763 -0.2361  0.5013  0.8276
29671SOL    HW292419   0.961   9.130   7.771  0.0492 -0.0250  0.5573
29672SOL     OW92420   7.434   2.920   0.307  0.0742 -0.3969  0.1741
29672SOL    HW192421   7.500   2.965   0.255 -0.0101 -1.8564 -1.2676
29672SOL    HW292422   7.371   2.887   0.242 -0.1262 -2.1107  1.1915
29673SOL     OW92423   9.466   2.319   1.029 -0.0209  0.1083 -0.1254
29673SOL    HW192424   9.489   2.389   0.968  0.9718  2.5682  2.9424
29673SOL    HW292425   9.379   2.343   1.062  0.6606  0.3444  1.5317
29674SOL     OW92426   1.012   4.503   8.473  0.2764 -0.1807 -0.2997
29674SOL    HW192427   0.974   4.488   8.387  1.4982  0.3238 -0.9396
29674SOL    HW292428   1.027   4.598   8.477 -1.0350 -0.0147  1.0098
29675SOL     OW92429   8.010   9.264   4.343 -0.0820 -0.2782 -0.1195
29675SOL    HW192430   7.988   9.273   4.250 -1.6316 -0.9562  0.1752
29675SOL    HW292431   7.966   9.338   4.385 -2.4370 -2.0535  0.5782
29676SOL     OW92432   8.642   9.815   8.486  0.0433 -0.3313 -0.1094
29676SOL    HW192433   8.658   9.877   8.414  1.3637 -1.0761 -0.4773
29676SOL    HW292434   8.614   9.735   8.442 -1.1263 -0.1819  0.3380
29677SOL     OW92435   9.987  10.395   5.541 -0.4246 -0.7262  0.5334
29677SOL    HW192436   9.955  10.455   5.474 -0.1788 -1.4057 -0.1961
29677SOL    HW292437   9.920  10.397   5.609 -0.5313  0.1944  0.4066
29678SOL     OW92438   3.589   1.652   7.480 -0.2882  0.2213  0.1944
29678SOL    HW192439   3.669   1.690   7.443  0.4791 -0.0930  1.4932
29678SOL    HW292440   3.570   1.705   7.557 -1.0620 -0.0033  0.1657
29679SOL     OW92441   7.330   9.821  10.312  0.8308  0.5742 -0.1495
29679SOL    HW192442   7.330   9.917  10.316  0.2915  0.6116 -0.8784
29679SOL    HW292443   7.419   9.796  10.334  0.8993  1.2350  0.3389
29680SOL     OW92444   7.236   9.767   8.262  0.3209 -0.0420  0.0236
29680SOL    HW192445   7.245   9.855   8.224  1.2516  0.2563  0.9093
29680SOL    HW292446   7.145   9.763   8.292  0.7588  1.3131  1.6244
29681SOL     OW92447  10.520   0.804   5.341  0.0003  0.0171 -0.1325
29681SOL    HW192448  10.567   0.882   5.371 -1.5912  0.2696  1.8414
29681SOL    HW292449  10.457   0.786   5.411  0.1631 -2.8941 -0.6747
29682SOL     OW92450  10.394   3.347   1.051  0.0338  0.1387 -0.3079
29682SOL    HW192451  10.477   3.367   1.008 -0.3962 -0.7242 -1.5790
29682SOL    HW292452  10.346   3.429   1.049  1.0672  0.7907  0.9431
29683SOL     OW92453   1.094   5.539   0.478 -0.2496  0.5697 -0.2683
29683SOL    HW192454   1.025   5.604   0.463 -1.0256  0.0271  0.8526
29683SOL    HW292455   1.156   5.553   0.407 -1.1433  1.5673 -0.8708
29684SOL     OW92456   9.420   3.309   3.218 -0.3630  0.3539  0.2866
29684SOL    HW192457   9.403   3.367   3.144 -0.3672  0.1363  0.1144
29684SOL    HW292458   9.453   3.228   3.177 -0.1441  0.3188  0.5366
29685SOL     OW92459   4.554   9.118   0.859  0.1281 -0.3625 -0.7857
29685SOL    HW192460   4.547   9.179   0.785 -1.1429 -0.1746 -0.5208
29685SOL    HW292461   4.494   9.153   0.925  3.2698  1.0098  1.4424
29686SOL     OW92462   5.507   5.905   0.696  0.0056  0.3428  0.4340
29686SOL    HW192463   5.596   5.916   0.663  0.6891 -0.7845  1.8447
29686SOL    HW292464   5.509   5.944   0.784 -0.3199 -1.4798  1.2797
29687SOL     OW92465   4.677   6.495   8.757  0.2616  0.2927  0.0941
29687SOL    HW192466   4.764   6.529   8.778 -0.0160 -0.0166  1.7759
29687SOL    HW292467   4.689   6.400   8.752 -0.1005  0.2037  0.9067
29688SOL     OW92468   9.956   8.422   3.308 -0.6008 -0.0541  0.6172
29688SOL    HW192469  10.038   8.373   3.309  0.2084  1.2649  1.6670
29688SOL    HW292470   9.896   8.368   3.257  0.7303 -1.3458  0.3790
29689SOL     OW92471   8.540   2.803   0.068 -0.3598 -0.1321  0.0947
29689SOL    HW192472   8.598   2.872   0.035 -0.1181  0.1338  1.0759
29689SOL    HW292473   8.599   2.729   0.085 -0.4372 -0.1628  0.2263
29690SOL     OW92474   1.388   2.546   1.558 -0.8068  0.3378  0.3154
29690SOL    HW192475   1.451   2.547   1.486  1.3853 -0.6453  2.1452
29690SOL    HW292476   1.346   2.460   1.551 -0.1690  0.0020  0.5486
29691SOL     OW92477   2.354   8.704   9.029  0.1300  0.3271  0.0441
29691SOL    HW192478   2.423   8.755   9.072  0.4854 -0.5762  0.5433
29691SOL    HW292479   2.369   8.614   9.057 -1.3309  0.1341  0.2650
29692SOL     OW92480   7.413   0.724   2.298 -0.0243  0.6436 -0.2708
29692SOL    HW192481   7.420   0.819   2.286 -2.4880  0.8336 -0.3266
29692SOL    HW292482   7.336   0.699   2.248  0.7709 -1.4584 -0.4951
29693SOL     OW92483   3.062  10.814   1.655 -0.3662  0.1051  0.0859
29693SOL    HW192484   3.027  10.812   1.744 -1.3749  0.1214 -0.3036
29693SOL    HW292485   2.984  10.814   1.598  0.2789 -0.7332 -0.8103
29694SOL     OW92486   6.244  10.895   3.175  0.1084  0.1874  0.6600
29694SOL    HW192487   6.243  10.851   3.090  2.0152  0.7603  0.3149
29694SOL    HW292488   6.313  10.851   3.224 -0.7398  0.0983  1.7977
29695SOL     OW92489   2.467   5.076   3.053  0.6169  0.2045 -0.3921
29695SOL    HW192490   2.484   5.031   3.135 -0.1437 -0.7496 -0.7542
29695SOL    HW292491   2.411   5.016   3.003  1.7708  0.3807 -1.9587
29696SOL     OW92492   1.368   0.261   5.222 -0.3497  0.3878  0.2807
29696SOL    HW192493   1.316   0.321   5.168  0.2564  0.0718 -0.6705
29696SOL    HW292494   1.374   0.304   5.307 -1.0429  1.0529 -0.0002
29697SOL     OW92495   2.437   7.914   7.993  0.0616  0.2402  0.1984
29697SOL    HW192496   2.455   7.980   8.060  0.5140  0.3264 -0.0059
29697SOL    HW292497   2.523   7.880   7.969 -0.2127 -0.8776  0.7568
29698SOL     OW92498   5.001   8.530   6.303  0.3810 -0.3472  0.2564
29698SOL    HW192499   4.932   8.593   6.283  1.2879  0.8592  0.8263
29698SOL    HW292500   4.971   8.485   6.382  0.3031  0.2504  0.5670
29699SOL     OW92501   6.788   0.611   8.441  0.3801 -0.2643  0.0302
29699SOL    HW192502   6.722   0.676   8.466  0.8861 -0.2955  1.4826
29699SOL    HW292503   6.868   0.639   8.485  1.4319 -0.0710 -1.9502
29700SOL     OW92504   8.676   3.538   9.572 -0.0266  0.4551 -0.0411
29700SOL    HW192505   8.765   3.552   9.539 -0.2653 -1.7341 -1.7582
29700SOL    HW292506   8.680   3.561   9.664  1.7527  2.5682 -0.6003
29701SOL     OW92507   4.085   7.828   0.941  0.1985 -0.5695  0.6603
29701SOL    HW192508   4.170   7.868   0.921  0.5300 -1.2569  0.7031
29701SOL    HW292509   4.106   7.740   0.972 -0.3463  0.0978  3.0418
29702SOL     OW92510   7.110   8.542   3.267  0.0039 -0.3944 -0.1434
29702SOL    HW192511   7.162   8.583   3.198 -0.6153  0.5056 -0.0786
29702SOL    HW292512   7.161   8.554   3.347  0.4062 -0.8510 -0.3276
29703SOL     OW92513   1.597   6.154   9.894 -0.0428 -0.0973  0.1683
29703SOL    HW192514   1.571   6.214   9.823  0.2938  0.0353  0.1545
29703SOL    HW292515   1.689   6.133   9.875 -0.9928 -3.0531 -1.5695
29704SOL     OW92516   3.656  10.008   5.249 -0.5760  0.1590 -0.5973
29704SOL    HW192517   3.673   9.991   5.342  0.3557  1.1348 -0.5816
29704SOL    HW292518   3.647  10.103   5.243 -1.5861  0.0261 -1.3557
29705SOL     OW92519   3.320   3.672   0.490  0.3604  0.6528 -0.2961
29705SOL    HW192520   3.344   3.612   0.420 -0.2593  0.3460 -0.2464
29705SOL    HW292521   3.383   3.744   0.483  1.4013 -0.2296 -0.0461
29706SOL     OW92522   9.468   6.366   9.706 -0.1505  0.2813  0.2260
29706SOL    HW192523   9.401   6.419   9.750  0.4205  0.3004  1.0842
29706SOL    HW292524   9.550   6.395   9.745  0.3030 -0.1652 -0.3987
29707SOL     OW92525   1.156   9.876  10.582 -0.2515 -0.9284  0.0598
29707SOL    HW192526   1.182   9.964  10.557 -0.8315 -1.1796 -1.4502
29707SOL    HW292527   1.215   9.818  10.533 -1.9957 -1.4418 -1.5116
29708SOL     OW92528   8.832   0.041   2.554 -0.2147  0.8612  0.1275
29708SOL    HW192529   8.836   0.130   2.589  0.7159  0.9408 -0.1610
29708SOL    HW292530   8.787  -0.010   2.622  1.1939  1.1047  1.2817
29709SOL     OW92531   5.594   3.747   1.863 -0.0279 -0.3472  0.2808
29709SOL    HW192532   5.573   3.813   1.929 -0.2456 -0.4584  0.3239
29709SOL    HW292533   5.688   3.758   1.847  0.5147 -1.7926  2.2352
29710SOL     OW92534   2.510   9.014   4.815  0.0955  0.4077  0.4108
29710SOL    HW192535   2.512   9.044   4.906  0.7695  1.8091 -0.0548
29710SOL    HW292536   2.599   9.030   4.783  0.4815 -2.1058  0.1344
29711SOL     OW92537   5.299   6.389  10.818  0.3299 -0.1713  0.1392
29711SOL    HW192538   5.318   6.381  10.911  0.3247 -1.2492  0.0501
29711SOL    HW292539   5.379   6.424  10.780  0.0551  1.0721  0.6615
29712SOL     OW92540   9.607   7.204   9.920 -0.2631 -0.3048 -0.2016
29712SOL    HW192541   9.675   7.262   9.953 -1.5530  0.4732  1.1828
29712SOL    HW292542   9.599   7.226   9.827  1.1833 -0.2459 -0.3154
29713SOL     OW92543   6.692   4.831   7.048 -0.2477 -0.7586 -0.0817
29713SOL    HW192544   6.732   4.912   7.016 -1.3029 -0.0154  0.4288
29713SOL    HW292545   6.646   4.858   7.127 -0.0160 -2.0115  0.4830
29714SOL     OW92546   6.604   4.951   0.312  0.5759 -0.0229  0.5478
29714SOL    HW192547   6.601   4.974   0.220  1.2598  3.5878  1.3380
29714SOL    HW292548   6.690   4.982   0.342  0.6077 -1.6715  2.2603
29715SOL     OW92549   8.479   8.309   2.775  0.2403 -0.0128 -0.1879
29715SOL    HW192550   8.462   8.322   2.868  0.2941 -1.2646  0.0044
29715SOL    HW292551   8.485   8.214   2.764  1.2976  0.1604 -1.2825
29716SOL     OW92552   2.376   9.441   1.652  0.1489  0.2426  0.5311
29716SOL    HW192553   2.322   9.438   1.573 -1.5644  0.8982  1.6359
29716SOL    HW292554   2.404   9.533   1.658  0.5025  0.1323  0.5157
29717SOL     OW92555   0.968   5.253   5.253  0.1542  0.4958  0.1823
29717SOL    HW192556   0.968   5.183   5.317  1.6185  1.2006  0.9764
29717SOL    HW292557   1.006   5.328   5.299  0.9337  1.1042 -1.4109
29718SOL     OW92558   0.946   3.668  10.881 -0.2064  0.6512 -0.2649
29718SOL    HW192559   0.906   3.723  10.948 -0.7846  0.3436 -0.3585
29718SOL    HW292560   0.873   3.639  10.826 -0.4292 -2.9496  1.7541
29719SOL     OW92561   4.434   0.257  10.147 -0.1814 -0.3556  0.2809
29719SOL    HW192562   4.362   0.194  10.143 -0.6519  0.2450 -1.3758
29719SOL    HW292563   4.505   0.214  10.099 -0.4291  0.2657 -0.6582
29720SOL     OW92564   9.660   0.875   6.686  0.1920 -0.3165  0.4839
29720SOL    HW192565   9.614   0.895   6.604 -0.4242  1.4852  1.2306
29720SOL    HW292566   9.750   0.859   6.659  0.0402  0.4600 -0.5404
29721SOL     OW92567   0.726   6.239   1.191  0.4600  0.4505  0.1757
29721SOL    HW192568   0.671   6.273   1.120  0.5925  0.8777  0.2716
29721SOL    HW292569   0.766   6.318   1.229  1.4456  0.1225 -0.1534
29722SOL     OW92570  10.504   2.395   9.739 -0.0505 -0.5176  0.5276
29722SOL    HW192571  10.436   2.328   9.747  0.8652 -1.4503  0.6590
29722SOL    HW292572  10.560   2.363   9.667  0.2477  0.2347  0.4224
29723SOL     OW92573   2.443   7.507   5.747  0.4084  0.7607 -0.2309
29723SOL    HW192574   2.462   7.500   5.840  2.2329 -0.4923 -0.6799
29723SOL    HW292575   2.523   7.541   5.708  0.0691  0.1540 -1.4935
29724SOL     OW92576   5.686   2.527   8.923 -0.2626  0.1161 -0.0238
29724SOL    HW192577   5.675   2.551   9.015 -1.1057  1.4948 -0.4710
29724SOL    HW292578   5.617   2.464   8.906 -0.2721  0.0621  0.2119
29725SOL     OW92579   2.961   1.976   6.786  0.2631  0.0873  0.2837
29725SOL    HW192580   2.992   1.973   6.695  2.2316 -1.2736  0.9448
29725SOL    HW292581   2.866   1.967   6.779  0.5798 -2.5750 -1.5450
29726SOL     OW92582   8.749   8.922   4.590 -0.0499  0.3666  0.4692
29726SOL    HW192583   8.718   8.992   4.533  2.4542  0.8316 -0.3816
29726SOL    HW292584   8.816   8.877   4.538  0.1589 -1.0678  1.9520
29727SOL     OW92585   1.706   6.026   0.152  0.2209 -0.4555 -0.0782
29727SOL    HW192586   1.714   6.092   0.084  0.8547 -0.8445 -0.3858
29727SOL    HW292587   1.671   5.949   0.107 -0.5879 -0.3143  0.2937
29728SOL     OW92588   0.376   0.059   3.452 -0.0176 -0.4307 -0.1710
29728SOL    HW192589   0.314  -0.003   3.491  1.1507 -1.1624  0.5439
29728SOL    HW292590   0.386   0.127   3.519  1.0177 -1.0421  0.3212
29729SOL     OW92591   9.897   0.814   6.553  0.2892 -0.3787 -0.6597
29729SOL    HW192592   9.980   0.766   6.548  0.9134  0.7064 -0.9483
29729SOL    HW292593   9.882   0.843   6.463 -0.2674 -0.3370 -0.5518
29730SOL     OW92594  10.050   4.526   2.597  0.5156 -0.0642 -0.5321
29730SOL    HW192595  10.028   4.447   2.647 -0.1894 -0.3265 -1.2505
29730SOL    HW292596  10.127   4.500   2.545  2.0612  0.5978  1.3475
29731SOL     OW92597  10.516   9.159   4.375  0.0228 -0.2601 -0.1733
29731SOL    HW192598  10.510   9.065   4.363 -1.2583 -0.0165 -1.6680
29731SOL    HW292599  10.534   9.171   4.469  0.3889 -1.9767 -0.0211
29732SOL     OW92600   5.543   8.597  10.342 -0.6174 -0.2769 -0.5245
29732SOL    HW192601   5.523   8.651  10.266 -1.4332  0.4241  0.1683
29732SOL    HW292602   5.518   8.651  10.417  1.4491 -0.4067  0.3042
29733SOL     OW92603   6.170   0.843   9.830 -0.0940 -0.2753  0.1353
29733SOL    HW192604   6.144   0.934   9.844  1.1049 -0.1260  1.4773
29733SOL    HW292605   6.187   0.838   9.736  4.0456  2.0765  0.6454
29734SOL     OW92606   4.920   6.815   6.014 -0.2188 -0.0166  0.6576
29734SOL    HW192607   4.836   6.858   6.030  0.7713  1.9323  0.8208
29734SOL    HW292608   4.922   6.741   6.074 -1.8802 -0.1582  0.5454
29735SOL     OW92609   1.710   0.026   5.672 -0.0774  0.0273  0.0270
29735SOL    HW192610   1.802   0.042   5.692 -0.2720  0.5009  0.5663
29735SOL    HW292611   1.668   0.017   5.758  0.0554 -3.7123 -0.1970
29736SOL     OW92612   2.473   0.847   3.742  0.2390 -0.0427  0.3190
29736SOL    HW192613   2.531   0.884   3.809 -2.2745  1.5722  1.6849
29736SOL    HW292614   2.448   0.921   3.687  0.6662 -1.0005 -1.1896
29737SOL     OW92615   1.579   4.601   4.882  0.7948  0.1373  0.1352
29737SOL    HW192616   1.502   4.627   4.830 -0.2790  0.8989  2.0595
29737SOL    HW292617   1.645   4.577   4.816 -0.2193  1.9579 -1.6127
29738SOL     OW92618   4.644   7.257   5.634  0.5814 -0.4736  0.2309
29738SOL    HW192619   4.714   7.223   5.578 -0.1488 -2.6067  0.5932
29738SOL    HW292620   4.568   7.203   5.614  0.5010 -1.8113  3.8067
29739SOL     OW92621   4.057   5.519   2.159  0.1465  0.1268  0.8851
29739SOL    HW192622   3.989   5.522   2.227  0.9332 -1.2219  1.7677
29739SOL    HW292623   4.054   5.605   2.118 -0.3601  0.9827  2.6502
29740SOL     OW92624   5.932   6.425   7.609  0.2606  0.2665 -0.4257
29740SOL    HW192625   5.981   6.497   7.649  3.5278 -0.7446 -2.4005
29740SOL    HW292626   5.896   6.376   7.683  0.1506  2.4736  1.0134
29741SOL     OW92627   8.873   0.211   5.599 -0.2648 -0.2777 -0.3300
29741SOL    HW192628   8.885   0.295   5.554 -2.0056  0.0532 -0.2333
29741SOL    HW292629   8.884   0.145   5.530 -0.0815  0.0965 -0.6628
29742SOL     OW92630   5.480   4.999   6.926 -0.2407 -0.3148 -0.1983
29742SOL    HW192631   5.532   5.079   6.920 -1.8464  0.7053 -1.0525
29742SOL    HW292632   5.414   5.017   6.993  0.4524 -1.5720  0.8487
29743SOL     OW92633   1.474   9.641   3.775  0.5961 -0.1808  0.5185
29743SOL    HW192634   1.487   9.691   3.695  2.3543 -0.2216  0.7723
29743SOL    HW292635   1.422   9.566   3.748  0.8779 -0.0153 -0.5115
29744SOL     OW92636   1.870  10.242   0.762  0.1783  0.4159 -0.1984
29744SOL    HW192637   1.838  10.328   0.788  1.9042  0.5291  1.6742
29744SOL    HW292638   1.919  10.257   0.681  2.4818  1.5996  1.3918
29745SOL     OW92639   6.850   0.247   6.652  0.0331 -0.2277 -0.1781
29745SOL    HW192640   6.815   0.279   6.569 -0.3019  0.4862  0.2399
29745SOL    HW292641   6.941   0.277   6.653 -0.5207  1.4730  0.6062
29746SOL     OW92642   8.565   2.877   5.013 -0.0012  0.2023  1.2242
29746SOL    HW192643   8.527   2.918   5.090 -1.8384 -1.7991  1.4213
29746SOL    HW292644   8.564   2.946   4.946  0.7623  1.6663  2.6807
29747SOL     OW92645   9.618   7.237   3.610  0.6439  0.0272  0.2292
29747SOL    HW192646   9.599   7.197   3.525  0.7298  1.1290 -0.3180
29747SOL    HW292647   9.615   7.164   3.672 -1.2853 -0.5064 -0.4407
29748SOL     OW92648   0.622   5.042  10.577  0.5662  0.7005 -0.5742
29748SOL    HW192649   0.543   5.078  10.619 -1.3742 -2.5987 -1.1658
29748SOL    HW292650   0.645   4.966  10.631  1.7689  0.0990 -1.9022
29749SOL     OW92651   2.038   2.613   6.655  0.0825 -0.3159 -0.1579
29749SOL    HW192652   2.002   2.668   6.586  2.2167 -0.3442 -1.3267
29749SOL    HW292653   2.026   2.665   6.735 -2.4234 -0.3009 -0.5156
29750SOL     OW92654   2.099   8.845   3.162  0.0585 -0.2904 -0.9322
29750SOL    HW192655   2.131   8.766   3.205 -1.3746 -0.2034  0.3070
29750SOL    HW292656   2.048   8.891   3.229 -2.4712 -0.3046 -2.7730
29751SOL     OW92657   3.451   4.009   3.018  0.1641  0.1492  0.1853
29751SOL    HW192658   3.366   4.012   3.060  1.4667  2.5940  2.8054
29751SOL    HW292659   3.444   4.069   2.944 -0.7967 -0.7451 -0.4592
29752SOL     OW92660   6.065   2.342   5.162 -0.0959  0.4447  0.5741
29752SOL    HW192661   6.062   2.436   5.184 -0.1746  0.4790  0.4094
29752SOL    HW292662   6.149   2.313   5.198 -1.1280  0.0459  2.7786
29753SOL     OW92663   5.135   5.154   8.114 -0.5549 -0.2952 -0.0426
29753SOL    HW192664   5.053   5.112   8.090 -0.5369 -0.0741 -0.4905
29753SOL    HW292665   5.186   5.085   8.157 -1.2752 -0.2444  0.9338
29754SOL     OW92666   9.733   2.473   4.617  0.3529 -0.3557 -0.1184
29754SOL    HW192667   9.773   2.437   4.538 -1.2958  0.3945 -1.3253
29754SOL    HW292668   9.756   2.566   4.615 -0.5599 -0.1262 -0.2893
29755SOL     OW92669   9.678   5.238   5.695  0.2714 -0.3004 -0.1026
29755SOL    HW192670   9.678   5.201   5.606 -0.6703 -1.8129  0.5089
29755SOL    HW292671   9.676   5.162   5.752  2.0340  0.6382  1.2578
29756SOL     OW92672   4.999   3.650   2.355  0.1910  0.4021  0.4082
29756SOL    HW192673   5.048   3.717   2.404 -1.3585  1.2254  0.8515
29756SOL    HW292674   4.934   3.699   2.305  0.3049 -0.6261 -0.8021
29757SOL     OW92675   5.780   5.100   4.338 -0.4422  0.5594 -0.1421
29757SOL    HW192676   5.798   5.095   4.244  0.0373 -0.3940 -0.0002
29757SOL    HW292677   5.815   5.186   4.363  2.5413 -0.5574 -0.2023
29758SOL     OW92678   1.140   8.052   3.196 -0.3910  0.1081 -0.1150
29758SOL    HW192679   1.047   8.074   3.192 -0.7723 -1.3296  0.4362
29758SOL    HW292680   1.167   8.076   3.285 -0.4075 -0.0875 -0.0554
29759SOL     OW92681   3.738   0.375   1.730 -0.6100  0.3305  0.5148
29759SOL    HW192682   3.691   0.323   1.796 -1.5960 -0.4053 -0.7454
29759SOL    HW292683   3.787   0.311   1.679 -2.9384  0.3794 -1.9566
29760SOL     OW92684   9.383   9.969   4.236  0.3136 -0.3841  0.0621
29760SOL    HW192685   9.290   9.981   4.216 -0.2383 -1.6286  1.6725
29760SOL    HW292686   9.407  10.045   4.288  0.2122 -0.0088 -0.4457
29761SOL     OW92687   5.493   2.439   0.083  0.3558 -0.0962  0.4131
29761SOL    HW192688   5.476   2.449  -0.010 -0.2993 -0.0917  0.5294
29761SOL    HW292689   5.422   2.382   0.114  0.9845 -0.6976  0.7673
29762SOL     OW92690   3.359   1.279   6.678  0.3620  0.3176 -0.0664
29762SOL    HW192691   3.377   1.224   6.603  1.7410  0.0465  0.4478
29762SOL    HW292692   3.366   1.369   6.645  1.2535  0.2007 -0.2020
29763SOL     OW92693   9.716   2.731   0.997 -0.0774 -0.1720 -0.1474
29763SOL    HW192694   9.687   2.804   1.052  1.5087  1.3087 -1.2151
29763SOL    HW292695   9.789   2.692   1.045 -0.6543 -0.8218  0.2217
29764SOL     OW92696   8.176   0.013   9.496  0.0167 -0.2975 -0.0127
29764SOL    HW192697   8.236   0.006   9.571  0.4275 -1.4175 -0.4296
29764SOL    HW292698   8.185  -0.071   9.451 -0.4873  0.2448 -1.1304
29765SOL     OW92699   5.063   7.902   3.382  0.2973  0.0907 -0.2381
29765SOL    HW192700   5.035   7.823   3.429  0.1604  0.2865  0.0117
29765SOL    HW292701   5.033   7.889   3.293 -0.6402  0.3263  0.0417
29766SOL     OW92702   9.546   2.328   7.643 -0.2080  0.8087 -0.4009
29766SOL    HW192703   9.603   2.269   7.591  0.8311 -0.3197  1.9391
29766SOL    HW292704   9.458   2.291   7.632  0.0837  0.2375 -0.9065
29767SOL     OW92705   6.843   0.352   5.861 -0.2509  0.5792 -0.1091
29767SOL    HW192706   6.792   0.368   5.781 -0.7544 -6.0402 -1.4331
29767SOL    HW292707   6.934   0.359   5.832 -0.4340 -1.1394 -1.2083
29768SOL     OW92708   2.175   5.107   2.903  0.7865 -0.1451  0.0432
29768SOL    HW192709   2.105   5.073   2.846  0.6372 -1.5952  1.0656
29768SOL    HW292710   2.132   5.173   2.957  0.5581  0.0755 -0.4079
29769SOL     OW92711   5.778   0.041   1.242 -0.8715 -0.0566 -0.7494
29769SOL    HW192712   5.792   0.068   1.152 -1.1676 -0.2411 -0.8523
29769SOL    HW292713   5.782   0.122   1.293  0.1682 -0.0590 -0.8187
29770SOL     OW92714   0.915   8.040   1.995 -0.3716 -0.5028 -0.0262
29770SOL    HW192715   0.856   8.003   2.060 -1.6381  2.3307  0.4956
29770SOL    HW292716   0.861   8.050   1.916 -0.2894  1.0745  0.1174
29771SOL     OW92717   8.493   0.440   2.417  0.5125  0.1233  0.0433
29771SOL    HW192718   8.438   0.392   2.479  0.6085  1.5902  1.2786
29771SOL    HW292719   8.507   0.378   2.346  0.3309 -1.5734  1.4371
29772SOL     OW92720   0.034   3.663   6.054  0.1232 -0.3085  0.0442
29772SOL    HW192721   0.026   3.614   6.136 -0.4512 -1.7413 -0.8457
29772SOL    HW292722   0.033   3.755   6.081 -1.5932 -0.7231  1.5168
29773SOL     OW92723   6.927  10.592   5.786  0.2893 -0.3894  0.5239
29773SOL    HW192724   6.870  10.667   5.805 -0.3117 -0.7700  0.2412
29773SOL    HW292725   6.891  10.521   5.840  1.1010 -0.3731  1.1023
29774SOL     OW92726   2.975   9.062   0.214 -0.1208  0.1432 -0.1224
29774SOL    HW192727   2.964   9.125   0.286  2.0349 -0.7211  1.0189
29774SOL    HW292728   2.888   9.052   0.177 -1.1949  0.9609  2.1121
29775SOL     OW92729  10.707   2.192   8.035 -0.1075 -0.1329 -0.1012
29775SOL    HW192730  10.766   2.236   7.973 -2.1098  0.9442 -1.2881
29775SOL    HW292731  10.766   2.156   8.102  1.9075  0.7770 -1.3236
29776SOL     OW92732   3.304   3.628   5.539  0.2843 -0.6104  0.2199
29776SOL    HW192733   3.226   3.623   5.483 -0.5722  0.2219  1.2973
29776SOL    HW292734   3.333   3.719   5.531  1.1845 -0.9272 -0.2067
29777SOL     OW92735   4.114   8.965   0.166  0.2712  0.5781 -0.3683
29777SOL    HW192736   4.190   8.909   0.147  0.4057  0.6134  0.0693
29777SOL    HW292737   4.127   9.042   0.110 -0.5087 -0.3185 -1.8430
29778SOL     OW92738   3.300   1.604   5.887 -0.1174 -0.0041 -0.3862
29778SOL    HW192739   3.338   1.677   5.838 -0.2131  0.0534 -0.3757
29778SOL    HW292740   3.283   1.641   5.974  0.1739 -0.1424 -0.2698
29779SOL     OW92741   6.282   7.413   6.918 -0.0658  0.1255 -0.2218
29779SOL    HW192742   6.253   7.324   6.896  2.8061 -0.3046 -2.6298
29779SOL    HW292743   6.345   7.401   6.989  0.3148  0.2285 -0.5408
29780SOL     OW92744   4.812   4.068   1.928 -0.9491  0.2070 -0.1445
29780SOL    HW192745   4.745   4.005   1.956  0.3369 -0.2276  2.1259
29780SOL    HW292746   4.816   4.130   2.001  0.0853  1.0610 -0.9299
29781SOL     OW92747  10.408  10.946   1.997  0.2117  0.5746  0.1842
29781SOL    HW192748  10.361  10.863   1.990  1.3781 -0.0829  0.0246
29781SOL    HW292749  10.388  10.978   2.085 -0.1834  0.0888  0.2700
29782SOL     OW92750   9.033   3.185   6.428 -0.2179  0.6461  0.2153
29782SOL    HW192751   8.966   3.131   6.469  1.4636 -1.2360  0.6117
29782SOL    HW292752   8.988   3.265   6.402 -2.4764 -0.3690  0.8957
29783SOL     OW92753   5.623   2.189   4.294  0.7402  0.3763 -0.3394
29783SOL    HW192754   5.687   2.139   4.344  0.8337  0.0463 -0.7798
29783SOL    HW292755   5.619   2.274   4.338 -0.7213 -0.6041  1.4729
29784SOL     OW92756   7.225   5.117   6.816 -0.3560 -0.4015  0.3139
29784SOL    HW192757   7.201   5.207   6.837  1.2895  0.1790 -0.2408
29784SOL    HW292758   7.143   5.068   6.827 -1.1316  1.0410  1.2034
29785SOL     OW92759   7.467   4.876   5.239  0.3998  0.5061  0.9961
29785SOL    HW192760   7.534   4.938   5.209  1.0400 -1.3378 -1.5376
29785SOL    HW292761   7.494   4.792   5.201 -3.8990 -0.0936 -0.9883
29786SOL     OW92762   7.690   6.692   2.928  0.2688 -0.4956 -0.0332
29786SOL    HW192763   7.630   6.624   2.959  1.7802 -1.5485  0.6236
29786SOL    HW292764   7.776   6.662   2.955  1.1012  1.0186 -0.9548
29787SOL     OW92765   8.389   6.684   7.575  0.0635  0.1291 -0.3867
29787SOL    HW192766   8.405   6.650   7.487  0.4113 -1.3783  0.2338
29787SOL    HW292767   8.335   6.761   7.562  0.1420 -0.0611 -1.9282
29788SOL     OW92768   2.468   5.340   5.699 -0.5583 -0.0092 -0.0189
29788SOL    HW192769   2.516   5.260   5.678 -0.0779 -0.0675  1.2630
29788SOL    HW292770   2.480   5.352   5.793 -0.6522  1.5568 -0.1855
29789SOL     OW92771   7.791   6.587   5.437 -0.5785 -0.1595 -0.6758
29789SOL    HW192772   7.773   6.670   5.394 -0.4639  0.4352  0.4148
29789SOL    HW292773   7.851   6.542   5.378 -2.2273 -0.3409 -2.2554
29790SOL     OW92774   9.459   1.261   2.881 -0.1643  0.3094  0.2565
29790SOL    HW192775   9.437   1.233   2.970  0.5751  0.9728  0.6503
29790SOL    HW292776   9.399   1.334   2.864 -0.1188  0.3639  0.3221
29791SOL     OW92777  10.076   3.758   0.528  0.7236  0.2163 -0.4557
29791SOL    HW192778   9.987   3.784   0.550  0.5238  1.1007 -2.1580
29791SOL    HW292779  10.067   3.671   0.489  0.5804  0.3707 -0.7691
29792SOL     OW92780   1.502   5.776   4.855 -0.6645  0.1844  0.3575
29792SOL    HW192781   1.439   5.846   4.877 -0.7921  0.5556 -1.1458
29792SOL    HW292782   1.502   5.773   4.760  0.3239 -1.0009  0.3853
29793SOL     OW92783   6.211   1.977   6.016 -0.1668 -0.0971  0.0243
29793SOL    HW192784   6.291   2.019   6.047 -0.2093  0.6989 -0.9180
29793SOL    HW292785   6.148   1.991   6.087  0.1966  0.2701  0.2779
29794SOL     OW92786   2.709   4.494   8.815  0.5583 -0.6261 -0.3206
29794SOL    HW192787   2.776   4.442   8.771  1.0409  0.2499 -0.6293
29794SOL    HW292788   2.653   4.527   8.745  0.6013 -0.2488 -0.1819
29795SOL     OW92789   2.220   7.664   4.502 -0.1010  0.5527 -0.3427
29795SOL    HW192790   2.208   7.649   4.408 -2.3122  0.4420 -0.0550
29795SOL    HW292791   2.221   7.759   4.512 -4.7622  0.6331  0.0728
29796SOL     OW92792   1.155   1.531   8.804  0.4642 -0.4559  0.1134
29796SOL    HW192793   1.074   1.582   8.807  0.1361 -0.9656  0.0122
29796SOL    HW292794   1.225   1.596   8.798  0.1906  0.0711  2.1904
29797SOL     OW92795   4.568   0.047   9.467  0.1529  0.2216 -0.2479
29797SOL    HW192796   4.476   0.038   9.491  0.1373  0.0930 -0.3589
29797SOL    HW292797   4.568   0.051   9.371  0.2107  0.7842 -0.2285
29798SOL     OW92798   0.438  10.950   1.029 -0.2095 -0.6421 -0.5662
29798SOL    HW192799   0.406  11.013   1.094 -2.3589  0.2215 -2.3641
29798SOL    HW292800   0.403  10.866   1.058 -1.5003 -0.1988 -0.7771
29799SOL     OW92801   0.791   8.009   7.944  0.1084  0.1826 -0.3472
29799SOL    HW192802   0.757   8.019   8.033  0.0963  0.8873 -0.4342
29799SOL    HW292803   0.734   7.942   7.905 -0.7473  0.8451 -0.2619
29800SOL     OW92804   1.738   8.546  10.781  0.1904  0.1589  0.3112
29800SOL    HW192805   1.686   8.614  10.823  1.0094  0.1926  1.2927
29800SOL    HW292806   1.681   8.469  10.780 -0.9711  1.0096 -1.3802
29801SOL     OW92807   9.430   9.746   7.807  0.2316 -0.2455 -0.1931
29801SOL    HW192808   9.402   9.671   7.859 -0.8932 -0.1452 -0.6265
29801SOL    HW292809   9.424   9.715   7.716  1.9040 -0.3329 -0.2879
29802SOL     OW92810   6.509   6.148   6.902 -0.0100 -0.1404 -0.0267
29802SOL    HW192811   6.448   6.076   6.887 -1.5117  0.9957  0.5196
29802SOL    HW292812   6.473   6.196   6.976  1.7693  0.3296  0.5750
29803SOL     OW92813   0.750  10.842   8.232  0.1300  0.0835  0.1086
29803SOL    HW192814   0.825  10.838   8.173  0.7557 -0.2163  0.9301
29803SOL    HW292815   0.763  10.923   8.282 -0.7229  0.6680 -0.5793
29804SOL     OW92816   2.536   4.023   3.846 -0.0335 -0.1737 -0.0337
29804SOL    HW192817   2.523   3.952   3.908  0.2477 -1.8422 -1.8572
29804SOL    HW292818   2.450   4.038   3.808  0.3109 -0.9256 -1.1224
29805SOL     OW92819   8.743  10.907   6.336 -0.0237 -0.6055  0.3004
29805SOL    HW192820   8.837  10.890   6.344  0.0990  0.2558  0.7562
29805SOL    HW292821   8.701  10.836   6.384  0.3849 -1.0794 -0.0345
29806SOL     OW92822   4.453   6.534   1.553 -0.2419 -0.0251 -0.3586
29806SOL    HW192823   4.481   6.566   1.467 -0.8004  2.2626  0.2878
29806SOL    HW292824   4.459   6.610   1.610  0.3136 -1.5670  1.7060
29807SOL     OW92825   3.441   7.248   3.647 -0.1336  0.4481 -0.0952
29807SOL    HW192826   3.526   7.224   3.608 -0.3957  0.1555 -0.4987
29807SOL    HW292827   3.383   7.256   3.571 -0.1921  1.8123  0.0777
29808SOL     OW92828   2.162   6.472   8.972  0.1940 -0.1080 -0.7946
29808SOL    HW192829   2.204   6.509   8.894  0.0086 -0.0542 -0.8678
29808SOL    HW292830   2.144   6.381   8.950 -0.0324 -0.0421 -0.8837
29809SOL     OW92831   0.014   4.438   0.279  0.2187 -0.3395  0.2938
29809SOL    HW192832   0.007   4.389   0.197  0.0344 -1.0314  0.7194
29809SOL    HW292833  -0.032   4.521   0.261 -1.6423 -1.3434  0.3655
29810SOL     OW92834   1.427   6.486   3.508 -0.2908 -0.2025  0.0112
29810SOL    HW192835   1.363   6.493   3.579  0.0727 -1.5164  0.4845
29810SOL    HW292836   1.394   6.544   3.440 -1.7325 -0.4978  0.4510
29811SOL     OW92837  10.639   1.720  10.646  0.5471  0.0067 -0.1982
29811SOL    HW192838  10.557   1.688  10.608  1.6460 -0.8482 -1.8811
29811SOL    HW292839  10.694   1.740  10.571  1.4241  1.8264  0.9023
29812SOL     OW92840   5.983   1.712   4.048 -0.0690  0.3797 -0.0106
29812SOL    HW192841   6.021   1.795   4.075  0.7953 -0.0078 -0.0338
29812SOL    HW292842   6.002   1.652   4.120  0.6934 -0.2027 -0.6909
29813SOL     OW92843   8.281   3.005   9.644  0.0339  0.0103  0.3846
29813SOL    HW192844   8.338   3.060   9.591  1.1334 -1.7101 -0.2687
29813SOL    HW292845   8.279   3.048   9.730  1.3148  0.7647  0.0470
29814SOL     OW92846   3.549   7.733   2.628  0.7499 -0.2978 -0.0499
29814SOL    HW192847   3.584   7.648   2.656  0.2232 -1.6366 -3.2246
29814SOL    HW292848   3.614   7.796   2.659  0.4861 -1.6456  3.5866
29815SOL     OW92849   5.541   9.763   5.321  0.1671  0.3795  0.0447
29815SOL    HW192850   5.532   9.808   5.405 -0.7520  0.8060 -0.2842
29815SOL    HW292851   5.452   9.754   5.288  0.3319 -1.6597  0.0807
29816SOL     OW92852   2.288   7.666   7.705 -0.1691  0.5312  0.1933
29816SOL    HW192853   2.265   7.669   7.798  1.8716 -0.1616  0.7344
29816SOL    HW292854   2.310   7.575   7.688 -0.0877  0.7430 -0.8747
29817SOL     OW92855   4.241   5.589   1.835 -0.5751  0.5074 -0.1828
29817SOL    HW192856   4.212   5.663   1.781 -2.0604  1.4532  1.8821
29817SOL    HW292857   4.325   5.618   1.871 -1.0849  1.1458  0.5078
29818SOL     OW92858   9.195   6.400   2.609  0.1095  0.2262 -0.1397
29818SOL    HW192859   9.203   6.450   2.527 -0.6712  2.3816  1.0522
29818SOL    HW292860   9.242   6.452   2.673 -0.2538 -0.8738  1.0353
29819SOL     OW92861  10.441   2.141   6.101  0.1524  0.2566 -0.2225
29819SOL    HW192862  10.390   2.087   6.161 -1.2516  0.3186 -1.3356
29819SOL    HW292863  10.421   2.231   6.126 -0.4992  0.2831 -0.8315
29820SOL     OW92864   8.911   8.860   8.049 -0.3234  0.3736  0.5192
29820SOL    HW192865   8.967   8.797   8.004  0.3371  0.1390  1.6684
29820SOL    HW292866   8.845   8.884   7.984  2.0914  1.9535 -1.4502
29821SOL     OW92867   1.938   5.774  10.489 -0.0252  0.6365 -0.0837
29821SOL    HW192868   1.933   5.867  10.470  1.3618  0.6929 -0.2243
29821SOL    HW292869   1.901   5.731  10.412  1.0521  1.0145 -0.8157
29822SOL     OW92870  10.397  10.413   7.242  0.0246  0.1919 -0.1530
29822SOL    HW192871  10.383  10.429   7.336 -1.2910  0.5365 -0.3980
29822SOL    HW292872  10.327  10.461   7.199  0.8386  0.3192 -1.3433
29823SOL     OW92873   8.140   0.722   7.433 -0.1170  0.1105 -0.2230
29823SOL    HW192874   8.062   0.753   7.388 -1.1579  1.6113  2.5157
29823SOL    HW292875   8.123   0.630   7.450 -0.7814  0.1585 -0.6146
29824SOL     OW92876   3.569   7.393   4.548 -0.0858 -0.0220  0.0509
29824SOL    HW192877   3.591   7.473   4.500  0.8030  0.4927  1.2992
29824SOL    HW292878   3.476   7.378   4.529  0.0252  0.6882 -1.0728
29825SOL     OW92879   8.937   3.420   6.782  0.3103 -0.2459 -0.0933
29825SOL    HW192880   8.979   3.433   6.697 -0.8352  0.3435 -0.5789
29825SOL    HW292881   8.869   3.355   6.765  0.6266 -0.7655  0.5688
29826SOL     OW92882   9.934   9.847   0.175 -0.2089 -0.3344  0.0990
29826SOL    HW192883   9.854   9.870   0.128  0.5149 -0.1450 -1.0603
29826SOL    HW292884   9.926   9.753   0.191 -1.4689  0.0003  1.5587
29827SOL     OW92885   5.244   7.425   6.094  0.3952  0.1071  0.1756
29827SOL    HW192886   5.285   7.373   6.024  0.0758  0.9431 -0.6463
29827SOL    HW292887   5.191   7.362   6.143  1.1999 -0.6280  0.1199
29828SOL     OW92888   3.090   7.433   5.908 -0.1663 -0.3326 -0.3215
29828SOL    HW192889   3.051   7.468   5.828  1.2833 -0.5883 -1.1652
29828SOL    HW292890   3.158   7.497   5.930  0.6916 -1.2309 -0.3593
29829SOL     OW92891   2.149   6.326  10.906 -0.1059 -0.8212 -0.2690
29829SOL    HW192892   2.224   6.312  10.964  0.4371  0.4635 -0.6297
29829SOL    HW292893   2.187   6.332  10.818 -0.3341  1.8696 -0.2513
29830SOL     OW92894   5.460   7.606   7.463  0.1418  0.8521 -0.8464
29830SOL    HW192895   5.387   7.619   7.404 -1.6702  1.7414  1.5193
29830SOL    HW292896   5.512   7.686   7.455  0.3396  0.6314 -1.8041
29831SOL     OW92897   8.247   8.606   4.879  0.2045  0.0421 -0.2163
29831SOL    HW192898   8.162   8.602   4.923  0.1464  0.1200 -0.3239
29831SOL    HW292899   8.230   8.648   4.795 -0.3097 -3.1518 -1.7746
29832SOL     OW92900   3.258   6.667   6.540  0.0816 -0.0546  0.1925
29832SOL    HW192901   3.253   6.648   6.447  2.3757  0.9591 -0.1775
29832SOL    HW292902   3.224   6.755   6.549  4.0807  1.6733 -0.4252
29833SOL     OW92903   2.871   2.605   1.767 -0.1518 -0.6062  0.1234
29833SOL    HW192904   2.825   2.689   1.766 -1.1300 -1.1239  0.3970
29833SOL    HW292905   2.957   2.624   1.731  0.2465  0.8468  1.8066
29834SOL     OW92906   0.655   6.110  10.186 -0.6283 -0.5095 -0.3463
29834SOL    HW192907   0.693   6.098  10.273  1.7222  4.1626 -0.5505
29834SOL    HW292908   0.671   6.027  10.141  1.2196 -1.8004  2.5490
29835SOL     OW92909   6.179   5.120   3.065 -0.0175 -0.1359 -0.3653
29835SOL    HW192910   6.263   5.077   3.049  1.0674  1.2590  1.3201
29835SOL    HW292911   6.153   5.089   3.153 -1.9966 -1.6568 -1.4311
29836SOL     OW92912   1.647   9.772   6.434 -0.2177  0.0174  0.0954
29836SOL    HW192913   1.648   9.822   6.515 -0.6854 -0.3881  0.3515
29836SOL    HW292914   1.714   9.705   6.446 -1.7434 -1.3793  0.9963
29837SOL     OW92915   5.593   1.611   3.285 -0.3082 -0.0812  0.5070
29837SOL    HW192916   5.499   1.621   3.302 -0.6941  0.3737 -1.7426
29837SOL    HW292917   5.604   1.643   3.195  1.9770 -0.2906  0.6997
29838SOL     OW92918   5.887   4.118   8.419  0.2838  0.0689 -0.3199
29838SOL    HW192919   5.959   4.158   8.467  0.1651  0.4439 -0.4592
29838SOL    HW292920   5.879   4.030   8.457  1.3376 -0.2603 -0.8512
29839SOL     OW92921   5.959   7.300   5.522  0.3282  0.3314  0.1410
29839SOL    HW192922   5.963   7.254   5.606  0.5902  0.4205  0.1773
29839SOL    HW292923   5.977   7.392   5.544  0.8618  0.2828 -0.0735
29840SOL     OW92924   9.134   7.866  10.246  0.0035  0.2360 -0.8713
29840SOL    HW192925   9.101   7.777  10.237  0.3015  0.3007 -2.9784
29840SOL    HW292926   9.056   7.922  10.243 -0.2594  0.0278  1.3240
29841SOL     OW92927   2.359   8.970   4.601 -0.0326  0.3177  0.0067
29841SOL    HW192928   2.393   8.987   4.689 -0.0314  0.6399 -0.0550
29841SOL    HW292929   2.300   8.895   4.612 -0.8352  0.9966  0.4760
29842SOL     OW92930   1.313   7.039   1.381 -0.1276  0.1343 -0.4595
29842SOL    HW192931   1.380   7.034   1.449  0.3441  2.5613 -0.7166
29842SOL    HW292932   1.236   6.998   1.421  0.4709  0.5153  1.1208
29843SOL     OW92933   9.288   1.293   8.802  0.1829  0.0091 -0.6693
29843SOL    HW192934   9.373   1.331   8.822  0.6082 -0.9927 -0.5156
29843SOL    HW292935   9.292   1.273   8.708  1.0790 -2.3432 -0.1605
29844SOL     OW92936   4.224   5.611   3.120 -0.1749 -0.0904  0.5636
29844SOL    HW192937   4.289   5.675   3.089  0.0625 -0.6933 -0.2111
29844SOL    HW292938   4.168   5.660   3.179  1.2046  0.3673  1.5120
29845SOL     OW92939   2.820   5.383   4.171 -0.8916 -1.0330  0.1185
29845SOL    HW192940   2.791   5.302   4.213 -1.9656 -1.3184 -1.1655
29845SOL    HW292941   2.800   5.371   4.078  1.3498 -0.3427 -0.4762
29846SOL     OW92942   1.377   7.861   1.151 -0.2453  0.1304 -0.1475
29846SOL    HW192943   1.308   7.796   1.137 -0.3035  0.3242 -0.7682
29846SOL    HW292944   1.432   7.854   1.074 -0.7772  1.4798 -0.6621
29847SOL     OW92945   8.449   5.264  10.892  0.6124 -0.4292 -0.2188
29847SOL    HW192946   8.447   5.253  10.987  1.2771 -1.7869 -0.3558
29847SOL    HW292947   8.374   5.214  10.861  0.0720  0.4664 -0.3813
29848SOL     OW92948   1.593   1.314   2.535 -0.6455  0.1953  0.3345
29848SOL    HW192949   1.635   1.278   2.614 -0.3545  0.0960  0.1363
29848SOL    HW292950   1.579   1.407   2.556 -1.3935 -0.0302  0.8444
29849SOL     OW92951   2.429   1.864  10.897 -0.4534 -0.1453 -0.3155
29849SOL    HW192952   2.343   1.859  10.939  0.0472 -0.1675  0.7003
29849SOL    HW292953   2.469   1.943  10.933  0.1808 -0.4432 -0.3551
29850SOL     OW92954   6.848   0.716   2.439  0.0629 -0.0477  0.3202
29850SOL    HW192955   6.864   0.700   2.346 -2.1330  1.5070 -0.3890
29850SOL    HW292956   6.845   0.629   2.479  0.1954 -0.7714 -1.2179
29851SOL     OW92957   3.574   1.250   8.642 -0.6945 -0.0866  0.6233
29851SOL    HW192958   3.495   1.245   8.588 -0.4271  0.6917  0.1508
29851SOL    HW292959   3.574   1.340   8.675 -0.7397 -0.4956  1.7442
29852SOL     OW92960   2.519  10.064   5.752  0.0234 -0.0658  0.2410
29852SOL    HW192961   2.526  10.030   5.662  0.6986  1.3152 -0.2329
29852SOL    HW292962   2.447  10.126   5.749 -0.0918 -0.1704  0.7145
29853SOL     OW92963   1.611   6.371   2.995  0.2439 -0.3986 -0.7783
29853SOL    HW192964   1.545   6.418   3.045  0.3040 -0.2258 -0.8620
29853SOL    HW292965   1.695   6.397   3.033  0.2289 -1.1083 -0.2587
29854SOL     OW92966   0.422  10.801   2.876  0.5052 -0.3810  0.0146
29854SOL    HW192967   0.425  10.705   2.886 -1.3618 -0.3424  0.9741
29854SOL    HW292968   0.504  10.821   2.830  0.4671 -2.5416 -1.0916
29855SOL     OW92969   7.078  10.356   9.754  0.5011 -0.4954 -0.5698
29855SOL    HW192970   7.038  10.443   9.752 -0.8122 -1.0856 -0.1039
29855SOL    HW292971   7.058  10.322   9.841  1.5086 -1.0490 -0.5400
29856SOL     OW92972   4.267   6.453   6.349  0.1471  0.3538 -0.2110
29856SOL    HW192973   4.255   6.425   6.259  0.8642  1.0073 -0.5159
29856SOL    HW292974   4.336   6.396   6.383 -0.3443 -0.1041  0.0238
29857SOL     OW92975  10.394   3.545   1.681  0.3096  0.6108 -0.3563
29857SOL    HW192976  10.439   3.591   1.752  1.9635 -0.2317 -0.8252
29857SOL    HW292977  10.443   3.569   1.602 -0.5598  0.3034 -0.9958
29858SOL     OW92978   5.625   3.071   8.010  0.2171 -0.1654  0.3083
29858SOL    HW192979   5.685   3.000   7.986  2.0946  1.4617  0.0523
29858SOL    HW292980   5.569   3.081   7.933  1.1265 -0.1829 -0.3763
29859SOL     OW92981   2.930  10.188   0.013  0.1626  0.2831  0.1774
29859SOL    HW192982   3.007  10.223  -0.032  0.2088 -0.8767 -0.6554
29859SOL    HW292983   2.964  10.117   0.068 -0.5395 -1.4481 -1.5686
29860SOL     OW92984   6.333   1.556   2.617 -0.4898  0.0152 -0.2159
29860SOL    HW192985   6.279   1.590   2.689  1.2728  0.8699  0.7178
29860SOL    HW292986   6.401   1.621   2.605 -0.3476 -0.4724 -2.2132
29861SOL     OW92987   4.252   4.329   2.281  0.1015  0.3910  0.3791
29861SOL    HW192988   4.224   4.254   2.333  2.4485 -0.3435  0.6718
29861SOL    HW292989   4.269   4.398   2.344 -1.4678  0.9982  0.1604
29862SOL     OW92990   8.372   1.605   8.116  0.4547  0.2707  0.3177
29862SOL    HW192991   8.381   1.680   8.057 -2.1180  0.1661 -0.3095
29862SOL    HW292992   8.424   1.536   8.076 -0.4317  0.5257 -1.3237
29863SOL     OW92993   0.653   6.248   5.358  0.6914  0.6439  0.3236
29863SOL    HW192994   0.597   6.174   5.384  1.3397  0.1094  0.2161
29863SOL    HW292995   0.604   6.326   5.386 -0.1284  0.1845  0.1859
29864SOL     OW92996   3.937   5.688   2.736 -0.0781  0.0179 -0.2303
29864SOL    HW192997   3.914   5.599   2.763  0.9154 -0.3668 -0.6272
29864SOL    HW292998   3.861   5.718   2.686 -0.1411 -0.8737 -0.6890
29865SOL     OW92999   3.172  10.288   6.170 -0.2414 -0.1694 -0.6774
29865SOL    HW193000   3.243  10.241   6.213 -1.0089 -0.8675 -0.1754
29865SOL    HW293001   3.203  10.379   6.166  1.5863 -0.8396 -2.3833
29866SOL     OW93002   6.293   2.365   1.485  0.4792  0.0484 -0.0789
29866SOL    HW193003   6.198   2.353   1.490  0.7532 -2.1559  0.4983
29866SOL    HW293004   6.316   2.333   1.397  0.5989  1.3225 -0.5170
29867SOL     OW93005   8.592   7.273   2.434 -0.2102  0.2650 -0.0751
29867SOL    HW193006   8.528   7.202   2.431 -0.3182  0.3910 -0.8505
29867SOL    HW293007   8.604   7.298   2.342 -0.9954  1.9892  0.2732
29868SOL     OW93008   0.691   4.795   9.905 -0.1553 -0.3666  0.5978
29868SOL    HW193009   0.602   4.827   9.890 -0.1495 -0.8908 -0.6623
29868SOL    HW293010   0.744   4.842   9.841  0.2826 -0.9113  0.5575
29869SOL     OW93011   0.338   7.153   8.752 -0.2572 -0.0415  0.0183
29869SOL    HW193012   0.279   7.082   8.727 -0.1433 -0.7960  1.7734
29869SOL    HW293013   0.315   7.171   8.843 -0.0255  1.9305 -0.3047
29870SOL     OW93014   2.029   2.542   3.642 -0.5807  0.1440  0.0729
29870SOL    HW193015   2.112   2.587   3.627 -0.1967 -0.2841  0.8684
29870SOL    HW293016   2.028   2.524   3.737 -1.6109  0.2203  0.0832
29871SOL     OW93017   5.314   4.501   6.359 -0.3923 -0.2688  0.4149
29871SOL    HW193018   5.241   4.509   6.421 -1.3918 -1.6692 -0.5595
29871SOL    HW293019   5.286   4.550   6.282  0.3686  0.5019  0.6158
29872SOL     OW93020   0.938   4.617   6.042  0.2723 -0.5958 -0.0691
29872SOL    HW193021   0.939   4.702   6.086 -3.0290 -0.1349 -0.7259
29872SOL    HW293022   0.977   4.634   5.957 -1.5413  0.6079 -0.6948
29873SOL     OW93023   4.365   5.064   6.557 -0.1838  0.0893  0.2388
29873SOL    HW193024   4.386   5.042   6.466 -0.9172 -1.8412  0.5009
29873SOL    HW293025   4.269   5.065   6.560 -0.1834  2.1385  0.5650
29874SOL     OW93026   7.807   2.305   4.871 -0.1345  0.2073  0.3856
29874SOL    HW193027   7.719   2.283   4.840  0.6883 -2.3810 -0.2100
29874SOL    HW293028   7.802   2.398   4.891 -3.4446 -0.1974  1.8310
29875SOL     OW93029   1.801   3.927   1.280  0.1370 -0.5823 -0.1278
29875SOL    HW193030   1.766   3.980   1.352  1.5000 -1.3865  1.1510
29875SOL    HW293031   1.893   3.950   1.275 -0.0261 -0.2615 -1.8831
29876SOL     OW93032   1.641   6.348   0.369 -0.1534  0.2155 -0.5872
29876SOL    HW193033   1.704   6.284   0.402 -2.1925 -1.3321  0.4448
29876SOL    HW293034   1.622   6.405   0.443  0.0917  0.7143 -0.9090
29877SOL     OW93035   9.544   6.613   2.946  0.1513  0.0778  0.1663
29877SOL    HW193036   9.530   6.587   3.037 -1.4167 -0.6473 -0.2648
29877SOL    HW293037   9.607   6.550   2.912  1.3945  0.8597  0.9663
29878SOL     OW93038   2.600   9.202   3.331 -0.1761  0.2762  0.0557
29878SOL    HW193039   2.643   9.145   3.395  1.5746 -0.0622 -1.3641
29878SOL    HW293040   2.509   9.205   3.359  0.1358 -1.5233  1.3803
29879SOL     OW93041  10.934   1.484   4.886  0.3442 -0.7577  0.2726
29879SOL    HW193042  10.951   1.404   4.936  1.0345 -1.1862 -0.6578
29879SOL    HW293043  11.018   1.530   4.885 -0.5257  0.9991  2.5813
29880SOL     OW93044   9.934   2.483   2.465 -0.2596  0.3191  0.0206
29880SOL    HW193045   9.967   2.420   2.528  1.1217  0.8040 -0.1934
29880SOL    HW293046   9.939   2.438   2.381 -0.6114  0.2306  0.0435
29881SOL     OW93047   8.081   1.402  10.553 -0.2682  0.5409 -0.1081
29881SOL    HW193048   8.116   1.482  10.593 -1.3274  1.1408 -0.3826
29881SOL    HW293049   8.133   1.332  10.593  0.2140  1.3004  0.6410
29882SOL     OW93050   7.701   5.631   2.603 -0.2954  0.1565  0.5105
29882SOL    HW193051   7.710   5.550   2.654  0.9317  0.3998  0.7095
29882SOL    HW293052   7.789   5.648   2.570 -0.7011  1.0131 -0.1476
29883SOL     OW93053   8.744   4.788   7.598 -0.1236  0.0373 -0.3770
29883SOL    HW193054   8.659   4.806   7.558 -0.7124 -1.6832  0.0401
29883SOL    HW293055   8.726   4.719   7.662  0.9277  2.2396  2.3705
29884SOL     OW93056   5.143   5.266   7.085  0.0352  0.2015  0.3736
29884SOL    HW193057   5.055   5.298   7.103  0.1362  0.4590  0.4200
29884SOL    HW293058   5.185   5.338   7.037  0.1846  0.0380  0.2580
29885SOL     OW93059   0.139   5.152  10.250 -0.3164 -0.0311  0.6815
29885SOL    HW193060   0.122   5.117  10.162  0.0081 -0.0728  0.6357
29885SOL    HW293061   0.108   5.243  10.246 -0.3098 -0.0354  0.5274
29886SOL     OW93062   8.471   6.272   8.109  0.1235 -0.5389 -0.1974
29886SOL    HW193063   8.491   6.179   8.117 -0.4043 -0.6711 -0.4096
29886SOL    HW293064   8.376   6.276   8.099 -0.0109  0.1138  1.1798
29887SOL     OW93065   6.173   4.405   0.267 -0.8448 -0.9684 -0.3336
29887SOL    HW193066   6.142   4.329   0.316  0.6508 -1.2631  0.1711
29887SOL    HW293067   6.221   4.457   0.332 -2.6300  0.8995 -0.4269
29888SOL     OW93068   4.097   5.279   5.324  0.3914  0.2590 -0.5186
29888SOL    HW193069   4.076   5.358   5.275 -1.2475  0.1610 -0.0017
29888SOL    HW293070   4.071   5.207   5.267 -0.4565  0.1321  0.0165
29889SOL     OW93071   2.521   3.472   5.402 -0.0991 -0.3687  0.0738
29889SOL    HW193072   2.468   3.397   5.377  0.4032 -0.8286  0.3646
29889SOL    HW293073   2.583   3.436   5.466 -0.9039  0.6189  1.4324
29890SOL     OW93074   5.085  10.883   5.495  0.4461 -0.4523 -0.6896
29890SOL    HW193075   5.148  10.811   5.491  1.0052  0.0926 -1.9823
29890SOL    HW293076   5.117  10.938   5.567  0.1438 -1.3526  0.1546
29891SOL     OW93077  10.636   7.048   7.620 -0.3936 -0.6584  1.1457
29891SOL    HW193078  10.570   7.099   7.667 -1.5661  0.5173 -1.6840
29891SOL    HW293079  10.587   6.978   7.577  0.0589  0.5146 -1.3911
29892SOL     OW93080   0.277   0.571   1.264  0.5349 -0.7462  0.0409
29892SOL    HW193081   0.354   0.620   1.235 -0.1755  0.5176  0.2533
29892SOL    HW293082   0.301   0.479   1.250  1.1670 -0.2882 -2.1676
29893SOL     OW93083   0.607   0.890   5.895 -0.4395  0.2671  0.6979
29893SOL    HW193084   0.582   0.889   5.803  1.1974 -1.0015  0.2456
29893SOL    HW293085   0.656   0.973   5.905  0.7274 -0.3214  0.0301
29894SOL     OW93086   6.275   4.690   8.344  0.0636  0.3799  0.4226
29894SOL    HW193087   6.183   4.711   8.362  0.2475  0.9484  0.7362
29894SOL    HW293088   6.312   4.772   8.312  0.3788  0.0581 -0.0366
29895SOL     OW93089   1.543  10.603   9.172  0.1802  1.0565  0.1353
29895SOL    HW193090   1.611  10.633   9.112 -0.0119  1.6910  0.2370
29895SOL    HW293091   1.505  10.683   9.208 -1.0328  0.7227 -0.3751
29896SOL     OW93092  10.364   1.572   5.721  0.4660  0.1142 -0.0856
29896SOL    HW193093  10.344   1.659   5.686 -1.3876 -0.6108 -0.9081
29896SOL    HW293094  10.425   1.534   5.658 -1.2633 -0.3944 -1.5176
29897SOL     OW93095  10.491   1.961   6.603  0.0571  0.3132 -0.3817
29897SOL    HW193096  10.422   2.027   6.613 -0.8689 -0.5386 -1.0602
29897SOL    HW293097  10.527   1.951   6.691 -0.8231  0.6254  0.0224
29898SOL     OW93098   5.372   6.430   1.715  0.2105 -0.4746  0.6481
29898SOL    HW193099   5.345   6.446   1.624 -1.5352 -1.4782  0.9601
29898SOL    HW293100   5.338   6.505   1.763  0.9100 -0.0728  0.5274
29899SOL     OW93101   2.027   8.443  10.574  0.3322  0.3700 -0.5440
29899SOL    HW193102   2.083   8.498  10.628  2.2736  0.0559 -2.1680
29899SOL    HW293103   1.963   8.504  10.536  1.0145  1.1226 -0.4969
29900SOL     OW93104   1.484   7.798   3.101 -0.5950  0.6360  0.5272
29900SOL    HW193105   1.483   7.865   3.033 -0.4415  1.1190  0.9998
29900SOL    HW293106   1.540   7.834   3.169  0.0332 -0.2593  0.4958
29901SOL     OW93107   8.431   1.655   4.113 -0.5468 -0.0397  0.0459
29901SOL    HW193108   8.388   1.663   4.028  1.1602 -0.4640 -0.8739
29901SOL    HW293109   8.452   1.562   4.121  1.3378  0.3583 -0.0968
29902SOL     OW93110   2.490   2.135   0.321  0.8627 -0.0037 -0.9059
29902SOL    HW193111   2.426   2.139   0.250  1.3139 -0.3127 -1.3326
29902SOL    HW293112   2.495   2.043   0.344  0.1873  0.1873  0.0160
29903SOL     OW93113   1.810   7.567   9.152  0.3788  0.0223  0.1476
29903SOL    HW193114   1.744   7.522   9.204  0.4213 -0.3731 -0.1428
29903SOL    HW293115   1.762   7.637   9.107  0.1095 -0.4198 -0.2575
29904SOL     OW93116   1.350   3.507   3.009  0.2620  0.0470  0.0822
29904SOL    HW193117   1.276   3.448   3.025 -0.7020  0.8883 -1.1344
29904SOL    HW293118   1.426   3.450   3.006 -0.2436 -0.7714  1.9719
29905SOL     OW93119   6.855   3.406   6.113 -0.4420 -0.6114 -0.6404
29905SOL    HW193120   6.802   3.383   6.036 -0.8163 -1.3680 -0.1543
29905SOL    HW293121   6.794   3.448   6.173 -0.7686 -2.5609  0.4266
29906SOL     OW93122   2.793   7.380   5.428 -0.0613 -0.2728  0.5463
29906SOL    HW193123   2.830   7.316   5.366 -0.1558 -0.5207  0.7434
29906SOL    HW293124   2.835   7.463   5.405 -0.5218 -0.2479 -0.2139
29907SOL     OW93125   6.882   2.565   7.992  0.4049  0.0842 -0.3405
29907SOL    HW193126   6.949   2.560   8.060  0.2377  0.2070 -0.1646
29907SOL    HW293127   6.816   2.625   8.028  0.0362 -0.3001 -0.3699
29908SOL     OW93128   3.173   8.271   9.148 -0.3457 -0.1240  0.6582
29908SOL    HW193129   3.171   8.196   9.207 -2.4249  1.3305  2.5236
29908SOL    HW293130   3.216   8.340   9.198  0.8126  0.2077 -0.7475
29909SOL     OW93131   6.799   8.697   7.950 -0.5046 -0.3721  0.1560
29909SOL    HW193132   6.735   8.735   8.010  0.0584  0.4382  0.2536
29909SOL    HW293133   6.881   8.743   7.970 -0.7093  1.3009 -2.5297
29910SOL     OW93134   2.399   1.856   2.521  0.1919 -0.4956  0.3246
29910SOL    HW193135   2.329   1.856   2.586  0.3749  0.3531  0.5273
29910SOL    HW293136   2.381   1.933   2.466  2.0954  0.8884  1.6151
29911SOL     OW93137   2.863   6.945   0.002 -0.6336 -0.6366 -0.1654
29911SOL    HW193138   2.835   6.865   0.045 -0.9899  0.4713  1.7489
29911SOL    HW293139   2.822   7.015   0.053  1.2550  0.8307 -0.5904
29912SOL     OW93140   1.335   5.844   9.331 -0.1951  0.3555  0.0808
29912SOL    HW193141   1.338   5.823   9.238 -0.5923 -0.0167  0.1509
29912SOL    HW293142   1.424   5.831   9.363 -0.2845 -0.5096 -0.0275
29913SOL     OW93143   4.870   6.415   4.814  0.2364 -0.6670  0.0074
29913SOL    HW193144   4.843   6.344   4.755 -1.3553 -1.8400  2.0996
29913SOL    HW293145   4.804   6.484   4.799 -2.0765 -2.2056  2.6433
29914SOL     OW93146   2.000   1.880   1.370  0.3152  0.4189  0.3712
29914SOL    HW193147   2.070   1.816   1.365  0.3856  0.5250 -0.0112
29914SOL    HW293148   2.026   1.939   1.440  0.4548  0.2724  0.4411
29915SOL     OW93149   8.690   4.584   5.400  0.0663  0.3566  0.4471
29915SOL    HW193150   8.675   4.556   5.310  0.1444 -0.3991  0.6601
29915SOL    HW293151   8.640   4.522   5.453  0.0144  0.7979  0.9207
29916SOL     OW93152   2.224  10.828   8.661  0.7119  0.2120  0.0094
29916SOL    HW193153   2.162  10.848   8.591  1.2266  4.0949  0.5263
29916SOL    HW293154   2.172  10.783   8.728 -0.9277  0.9393 -0.7540
29917SOL     OW93155   9.995   2.549   3.732 -0.2515  0.2073  0.0012
29917SOL    HW193156  10.083   2.569   3.765 -0.4914  1.3817 -0.0386
29917SOL    HW293157  10.003   2.461   3.696  0.7104 -0.0057  0.7034
29918SOL     OW93158   1.339   0.744   4.368  0.1404 -0.1236  0.6440
29918SOL    HW193159   1.281   0.820   4.357 -0.5039 -0.8176 -0.7557
29918SOL    HW293160   1.330   0.694   4.287  1.2096 -1.2663  1.2134
29919SOL     OW93161   8.463   5.173   1.425  0.5082 -0.1200 -0.2744
29919SOL    HW193162   8.399   5.223   1.375  2.2442  1.8849 -0.5840
29919SOL    HW293163   8.418   5.092   1.449 -2.2737  1.4482 -0.0593
29920SOL     OW93164   2.835   4.442   6.970  0.2939  0.5388  0.1796
29920SOL    HW193165   2.757   4.403   7.009 -0.0475  0.5920 -0.4501
29920SOL    HW293166   2.879   4.487   7.043 -0.8684  1.4980  0.3042
29921SOL     OW93167   0.993   4.058   7.605  0.4224  0.0103 -0.3019
29921SOL    HW193168   1.059   4.118   7.639 -0.2055 -0.4535  1.8572
29921SOL    HW293169   0.913   4.083   7.652 -0.6496 -0.2209 -1.9818
29922SOL     OW93170   9.113   6.561   3.020  0.1871  0.5028  0.0967
29922SOL    HW193171   9.129   6.642   3.068  1.9753  0.5314 -0.5148
29922SOL    HW293172   9.123   6.492   3.087  0.4435  0.6771  0.2392
29923SOL     OW93173   8.165   5.542   2.722 -0.2483  0.1587  0.0778
29923SOL    HW193174   8.248   5.583   2.747 -0.0094 -0.8646  1.0500
29923SOL    HW293175   8.105   5.565   2.793 -1.0921  1.7501 -1.1351
29924SOL     OW93176   3.243   8.001   7.988  0.0385  0.7467 -0.0240
29924SOL    HW193177   3.304   7.994   7.914 -0.0602  1.1508 -0.1474
29924SOL    HW293178   3.283   7.949   8.057 -0.0050  0.1377 -0.4556
29925SOL     OW93179   1.929   8.219  10.852  0.0698  0.1919  0.1119
29925SOL    HW193180   1.957   8.162  10.923 -2.4251  0.0541  1.0548
29925SOL    HW293181   1.837   8.238  10.872  0.2465  2.7966 -1.3315
29926SOL     OW93182   8.063   0.796   5.048  0.3157  0.3261 -0.2179
29926SOL    HW193183   8.064   0.703   5.069 -0.7742  0.0405 -1.3808
29926SOL    HW293184   8.126   0.805   4.976  0.1927  0.4295 -0.3134
29927SOL     OW93185   4.372  10.552  10.098  0.0423  0.1047 -0.2455
29927SOL    HW193186   4.300  10.571  10.037 -0.1472  0.7292  0.1625
29927SOL    HW293187   4.370  10.625  10.160 -0.5977 -1.1923  1.2836
29928SOL     OW93188   5.040   4.133   0.881 -0.2574  0.8733 -0.3854
29928SOL    HW193189   5.003   4.210   0.837 -0.6682  0.6385 -0.4538
29928SOL    HW293190   5.016   4.145   0.973 -2.4834 -0.3957 -0.7529
29929SOL     OW93191  10.702   1.860   9.208 -0.5491 -0.2472  1.1500
29929SOL    HW193192  10.642   1.901   9.145  0.3119 -0.8081 -0.0464
29929SOL    HW293193  10.766   1.813   9.154  0.8264  0.1231  2.4090
29930SOL     OW93194   6.066   5.534   9.920  0.0667 -0.2333 -0.5579
29930SOL    HW193195   6.104   5.451   9.950  1.7874  1.1900  1.3081
29930SOL    HW293196   6.079   5.595   9.993 -1.7301  1.5416 -1.6554
29931SOL     OW93197   3.941   2.597   1.722  0.4916 -0.3036  0.7236
29931SOL    HW193198   3.952   2.521   1.779 -0.2331 -0.3086  0.8625
29931SOL    HW293199   3.924   2.669   1.782  1.7464  0.0841  0.6260
29932SOL     OW93200   7.746   2.152   3.342 -0.1970 -0.3187 -0.2826
29932SOL    HW193201   7.699   2.235   3.334 -0.2661 -0.2483  0.7610
29932SOL    HW293202   7.734   2.126   3.434 -0.3192 -1.5657 -0.6328
29933SOL     OW93203   9.001   7.992  10.639 -0.2310  0.5236  0.0408
29933SOL    HW193204   8.957   7.981  10.723 -0.6785 -0.5757 -0.3224
29933SOL    HW293205   8.970   8.076  10.606  0.4787  1.2916  1.2819
29934SOL     OW93206   8.789   0.622   2.477  0.4344 -0.4388 -0.3411
29934SOL    HW193207   8.841   0.542   2.470  0.3911 -0.3142 -2.1692
29934SOL    HW293208   8.698   0.593   2.471  0.4332 -0.2039 -1.4627
29935SOL     OW93209   1.271   9.114   9.695  0.3377 -0.2527 -0.3293
29935SOL    HW193210   1.334   9.050   9.730 -0.8464 -0.6534  1.1504
29935SOL    HW293211   1.284   9.111   9.600  0.0893 -2.9532 -0.3220
29936SOL     OW93212   6.235  10.874  10.598 -0.2216  0.2178  0.1033
29936SOL    HW193213   6.143  10.876  10.572 -0.0071 -0.4272 -0.6930
29936SOL    HW293214   6.243  10.946  10.661 -1.3759 -0.0260  0.5438
29937SOL     OW93215  10.774   2.801   9.210  0.5293  0.2975  0.0833
29937SOL    HW193216  10.737   2.740   9.146  0.3248  0.8220 -0.3108
29937SOL    HW293217  10.822   2.746   9.271 -1.4292 -0.4929  0.9730
29938SOL     OW93218   1.285   8.199   3.443 -0.4431  0.0405 -0.0969
29938SOL    HW193219   1.255   8.169   3.529 -0.2546 -0.2301 -0.1258
29938SOL    HW293220   1.274   8.294   3.446  0.8170  0.1707  0.6995
29939SOL     OW93221   1.463   2.626   5.522  0.1415 -0.2653 -0.1311
29939SOL    HW193222   1.404   2.614   5.596 -1.6556 -1.9615 -1.7839
29939SOL    HW293223   1.545   2.658   5.561 -1.3769  0.7286  2.3473
29940SOL     OW93224   4.287   3.757   8.921 -0.2810  0.4186 -0.4495
29940SOL    HW193225   4.236   3.809   8.860 -1.1112  2.5655  1.9724
29940SOL    HW293226   4.226   3.736   8.992  1.9956  2.8224  2.3789
29941SOL     OW93227   1.207   6.994   2.574 -0.0863 -0.2566  0.1360
29941SOL    HW193228   1.131   7.011   2.518 -1.4697 -0.9436  1.7437
29941SOL    HW293229   1.230   7.080   2.610 -0.1031 -0.0385 -0.3786
29942SOL     OW93230   1.498   6.223   1.504 -0.2960  0.2031 -0.2177
29942SOL    HW193231   1.497   6.127   1.495 -0.4533  0.0563  1.2104
29942SOL    HW293232   1.591   6.244   1.515 -0.3503  0.1109  0.4342
29943SOL     OW93233   8.727   2.113   5.636 -0.8990 -0.4960  0.0252
29943SOL    HW193234   8.648   2.113   5.582 -0.6461  0.2372 -0.3484
29943SOL    HW293235   8.798   2.092   5.575 -0.6003  0.4347  0.0541
29944SOL     OW93236   8.645   2.476   6.441  0.4036 -0.3405  0.2857
29944SOL    HW193237   8.666   2.383   6.455  1.5617 -0.0628  0.4399
29944SOL    HW293238   8.730   2.517   6.422 -0.0538  0.7467  0.5759
29945SOL     OW93239   8.295   2.931   3.800 -0.1119  0.3834  0.2845
29945SOL    HW193240   8.383   2.965   3.785 -0.5002  1.0443 -0.5215
29945SOL    HW293241   8.254   2.995   3.859 -0.4761  0.7518 -0.3595
29946SOL     OW93242   1.264   3.904   1.880 -0.0995  0.4717 -0.4427
29946SOL    HW193243   1.352   3.938   1.867  0.7392 -1.6959 -0.6023
29946SOL    HW293244   1.258   3.885   1.973 -0.7293  1.4711 -0.2703
29947SOL     OW93245   1.655   7.268   1.745  0.1041 -0.1771  0.1011
29947SOL    HW193246   1.663   7.363   1.747 -1.1825  0.0077 -1.8394
29947SOL    HW293247   1.722   7.237   1.806 -1.1895  2.0388  2.7343
29948SOL     OW93248   6.427   4.189   0.828 -0.5184  0.3279 -0.0021
29948SOL    HW193249   6.473   4.225   0.753 -0.3545 -1.9235 -1.0242
29948SOL    HW293250   6.335   4.212   0.812 -0.5005 -0.2277 -0.9493
29949SOL     OW93251  10.419   7.464   4.600 -0.3416 -0.5514  0.5165
29949SOL    HW193252  10.510   7.457   4.571 -0.5484 -0.9118 -0.0483
29949SOL    HW293253  10.407   7.392   4.661 -0.4481 -0.9225  0.0579
29950SOL     OW93254   4.977  10.182   3.492  0.3217  0.4567 -0.3085
29950SOL    HW193255   4.910  10.238   3.453 -0.4680 -0.2928 -0.0358
29950SOL    HW293256   5.043  10.243   3.524 -0.8878  1.2832  0.6647
29951SOL     OW93257   3.400   4.198   5.338 -0.2297 -0.2104  0.1165
29951SOL    HW193258   3.350   4.260   5.284 -2.4135  0.0566  2.3374
29951SOL    HW293259   3.382   4.113   5.299 -2.4918 -0.1149  0.8646
29952SOL     OW93260   2.508   8.330   2.097  0.3826  0.0209  0.2929
29952SOL    HW193261   2.552   8.391   2.156 -0.5263 -0.0846  1.0935
29952SOL    HW293262   2.492   8.381   2.018  3.2306 -0.3532 -0.5825
29953SOL     OW93263   0.922   5.517   1.460 -0.9102 -0.2769  0.0105
29953SOL    HW193264   0.912   5.442   1.518  0.8128 -1.9114 -1.7165
29953SOL    HW293265   1.015   5.518   1.438 -1.2738  1.1396 -1.5945
29954SOL     OW93266   0.877  10.480   4.455  0.0936  0.0991 -0.2045
29954SOL    HW193267   0.957  10.464   4.405  1.3443  2.4966  0.9090
29954SOL    HW293268   0.831  10.547   4.405  0.3845  1.0609  0.7923
29955SOL     OW93269   3.864   4.809   2.341  0.4410  0.5731 -0.2606
29955SOL    HW193270   3.928   4.876   2.316  0.3174  0.3834 -1.0739
29955SOL    HW293271   3.784   4.834   2.296  0.3280  0.0114 -0.3738
29956SOL     OW93272   0.371   3.737   3.366 -0.0522 -0.1765  0.5527
29956SOL    HW193273   0.305   3.803   3.386 -0.5053 -0.5037  0.1689
29956SOL    HW293274   0.349   3.707   3.277  0.7978 -0.0672  0.2986
29957SOL     OW93275   2.835   0.471   2.640 -0.2534 -1.0036 -0.7883
29957SOL    HW193276   2.764   0.497   2.699  0.3607  2.3547 -1.4522
29957SOL    HW293277   2.803   0.492   2.553  1.5586  0.5761 -1.0970
29958SOL     OW93278   0.682   0.672   2.931 -0.1928  0.2722  0.5679
29958SOL    HW193279   0.744   0.744   2.938 -1.0272  0.8799  1.9432
29958SOL    HW293280   0.694   0.622   3.012 -1.3954  0.3286  0.7951
29959SOL     OW93281   4.705   8.898   0.689  1.1825 -0.2335  0.1016
29959SOL    HW193282   4.783   8.948   0.666  0.9182  0.8882  1.5756
29959SOL    HW293283   4.632   8.952   0.659  0.8957  0.2050  1.5827
29960SOL     OW93284  10.694  10.278   5.300 -0.5342 -0.1183  0.3249
29960SOL    HW193285  10.633  10.309   5.234 -0.3751  0.4241  0.4305
29960SOL    HW293286  10.639  10.252   5.374 -0.7262 -0.9701 -0.1175
29961SOL     OW93287   9.471   0.926  10.855 -0.0722  0.1803  0.1835
29961SOL    HW193288   9.559   0.917  10.893 -0.3230  1.1935  1.0087
29961SOL    HW293289   9.459   0.845  10.805  1.2921 -0.0166  0.1472
29962SOL     OW93290   7.878   5.941   9.830 -0.3043  0.4568 -0.0934
29962SOL    HW193291   7.890   5.932   9.735  1.1411  0.0479  0.1232
29962SOL    HW293292   7.817   5.870   9.852  2.0664 -1.6943 -0.2028
29963SOL     OW93293   2.280   5.566   0.540  0.5972 -0.4394 -0.2530
29963SOL    HW193294   2.246   5.478   0.527 -2.1658  0.4999  0.1708
29963SOL    HW293295   2.239   5.618   0.470  1.0774  0.7750  0.3478
29964SOL     OW93296   7.491   2.853   2.920 -0.4742  0.0692  0.1650
29964SOL    HW193297   7.428   2.783   2.939 -0.5784  0.0161 -0.3555
29964SOL    HW293298   7.447   2.908   2.856  1.7520 -2.6545 -3.9481
29965SOL     OW93299   8.094   7.355   1.930 -0.0815 -0.1909  0.2760
29965SOL    HW193300   8.077   7.417   2.001 -2.0118 -0.6032  0.1773
29965SOL    HW293301   8.031   7.284   1.944  0.1310 -0.7093 -1.3273
29966SOL     OW93302   0.077   5.412   8.403 -0.3652 -0.3135 -0.7751
29966SOL    HW193303   0.064   5.496   8.358 -1.1440 -0.1953 -0.3401
29966SOL    HW293304  -0.010   5.390   8.438  0.3672 -0.0719  1.2357
29967SOL     OW93305   1.014   4.284   3.130 -0.0107 -0.3634  0.3716
29967SOL    HW193306   1.077   4.298   3.200 -0.8303 -1.1191  1.2721
29967SOL    HW293307   0.976   4.371   3.114  1.0133  0.0335  0.0379
29968SOL     OW93308   6.664   4.141   3.858  0.0444 -0.5753 -0.0694
29968SOL    HW193309   6.712   4.172   3.781 -0.3856  0.8391  0.2087
29968SOL    HW293310   6.716   4.069   3.892 -1.6824 -3.7651 -3.8516
29969SOL     OW93311  10.243   9.191   4.768 -0.5222 -0.4965 -0.0016
29969SOL    HW193312  10.215   9.281   4.755 -0.1667 -0.5904 -1.5194
29969SOL    HW293313  10.321   9.198   4.824  0.0108  0.2121 -0.8139
29970SOL     OW93314   9.254   5.820   4.973 -0.3642 -1.0841 -0.3851
29970SOL    HW193315   9.236   5.800   5.065 -1.5248  0.5638 -0.2358
29970SOL    HW293316   9.343   5.857   4.973 -0.5433 -0.6501  0.1425
29971SOL     OW93317   2.617   1.545   6.188  0.1072  0.4989 -0.3588
29971SOL    HW193318   2.522   1.543   6.185  0.1421 -1.7517 -0.4521
29971SOL    HW293319   2.642   1.469   6.239  1.8820  0.7290 -0.8391
29972SOL     OW93320   5.966   1.056   5.205  0.3839  0.1941  0.1484
29972SOL    HW193321   5.997   1.018   5.123  1.0053  1.3917 -0.1843
29972SOL    HW293322   5.983   0.989   5.271 -0.0863 -0.7639 -0.6856
29973SOL     OW93323   3.395   7.847   0.809 -0.2564  0.3973  0.4455
29973SOL    HW193324   3.392   7.907   0.883  2.7082  0.9177  0.2102
29973SOL    HW293325   3.426   7.764   0.847 -2.3625 -0.4351  0.4116
29974SOL     OW93326   7.372  10.776   9.463  0.1502 -0.3001 -0.2873
29974SOL    HW193327   7.289  10.736   9.490  0.6463 -0.5050  0.9627
29974SOL    HW293328   7.407  10.814   9.544  0.5349  1.1246 -1.1076
29975SOL     OW93329   4.424   6.149  10.197 -1.0919 -0.3994 -0.1622
29975SOL    HW193330   4.508   6.179  10.232 -0.0343  0.3496 -3.2009
29975SOL    HW293331   4.427   6.053  10.206 -1.4918 -0.1492  3.0774
29976SOL     OW93332   5.635   8.019   9.635 -0.1634 -0.2870  0.6733
29976SOL    HW193333   5.609   7.927   9.643 -0.6865 -0.2441 -0.4028
29976SOL    HW293334   5.567   8.058   9.579  1.2254  0.2526 -0.6559
29977SOL     OW93335   4.817   1.295   2.391  0.5738  0.3272  0.3058
29977SOL    HW193336   4.815   1.382   2.352  0.8713 -0.0354 -0.5417
29977SOL    HW293337   4.745   1.294   2.454 -0.3327  0.7089 -0.7201
29978SOL     OW93338   7.430   7.440   2.545  0.0036 -0.8982  0.1990
29978SOL    HW193339   7.471   7.354   2.546  2.2114  0.1127  1.2511
29978SOL    HW293340   7.428   7.467   2.637 -0.9273  0.0356 -0.0837
29979SOL     OW93341   0.402   4.068   5.641 -0.2776  0.2761  0.2858
29979SOL    HW193342   0.424   4.146   5.691  1.4983 -0.7764  1.1770
29979SOL    HW293343   0.386   4.000   5.706 -0.6456 -0.4188 -0.5100
29980SOL     OW93344   0.723   0.052   3.604 -0.3656 -0.6159  0.1045
29980SOL    HW193345   0.639   0.051   3.649 -0.7204 -1.6256 -0.5666
29980SOL    HW293346   0.788   0.055   3.674 -0.9554  1.1566  0.6078
29981SOL     OW93347   9.296   6.132   4.948  0.0386 -0.1636  0.4949
29981SOL    HW193348   9.227   6.074   4.914 -1.5758  1.7239  0.4943
29981SOL    HW293349   9.289   6.123   5.043 -2.6707  2.7532  0.6394
29982SOL     OW93350   4.092   8.565   5.874  0.2934  0.5496  0.2294
29982SOL    HW193351   4.032   8.541   5.803  1.4717 -0.6824 -0.3555
29982SOL    HW293352   4.106   8.659   5.862 -0.6891  0.6472 -0.2475
29983SOL     OW93353   0.179   8.881   9.547 -0.4831 -0.5035  0.0817
29983SOL    HW193354   0.132   8.801   9.523  1.0609 -0.7992 -2.1291
29983SOL    HW293355   0.120   8.952   9.520 -0.3436 -0.8806 -1.2675
29984SOL     OW93356   9.619   3.564   7.588 -0.0973 -0.3652 -0.1282
29984SOL    HW193357   9.529   3.533   7.599 -0.4629  0.5371 -0.5321
29984SOL    HW293358   9.633   3.623   7.662 -0.0515 -0.0167 -0.4163
29985SOL     OW93359   9.471   4.864   2.254 -0.1713  0.0276  0.1097
29985SOL    HW193360   9.511   4.868   2.341  1.4491  1.0692 -0.6613
29985SOL    HW293361   9.533   4.812   2.202 -1.2444 -0.7774 -0.3828
29986SOL     OW93362   5.811   1.878   9.548 -0.0457 -0.7472 -0.3052
29986SOL    HW193363   5.886   1.869   9.607 -0.2120 -2.1862 -0.3009
29986SOL    HW293364   5.848   1.915   9.468  0.1498  1.4076  0.7483
29987SOL     OW93365   1.339   1.921   6.725  0.5161 -0.4187  0.6046
29987SOL    HW193366   1.388   1.886   6.799  3.0033  0.7856 -0.4150
29987SOL    HW293367   1.269   1.858   6.710  1.8222 -2.2462  2.0202
29988SOL     OW93368   5.526   3.515   3.615 -0.2346  0.2432 -0.5129
29988SOL    HW193369   5.569   3.595   3.645 -1.4260  1.6712 -2.4243
29988SOL    HW293370   5.437   3.520   3.650 -0.4449 -0.0351 -0.9959
29989SOL     OW93371   8.136   6.495   5.396  0.1705 -0.3227  0.3031
29989SOL    HW193372   8.077   6.528   5.464  0.0986 -0.5192  0.3367
29989SOL    HW293373   8.178   6.574   5.362  0.4342 -0.2480  0.7872
29990SOL     OW93374   3.425   9.372   3.739 -0.0565 -0.2813  0.4651
29990SOL    HW193375   3.471   9.300   3.697 -0.0249 -0.5380  0.9311
29990SOL    HW293376   3.463   9.451   3.700 -0.1068 -0.5189 -0.0571
29991SOL     OW93377   5.816   2.070   0.041 -0.1883 -0.3308 -0.0497
29991SOL    HW193378   5.868   2.005   0.089  1.1370 -1.1549 -2.5265
29991SOL    HW293379   5.879   2.114  -0.015 -1.4793  1.5794 -0.0385
29992SOL     OW93380   2.858   5.917  10.188 -0.5651 -0.2630 -0.0895
29992SOL    HW193381   2.779   5.877  10.152  0.5264 -1.2335 -1.4516
29992SOL    HW293382   2.926   5.850  10.177  0.1659  0.0516  2.2822
29993SOL     OW93383   6.247  10.589   6.047  0.0048 -0.3292 -0.0456
29993SOL    HW193384   6.247  10.637   5.964  1.0064  0.0273  0.1474
29993SOL    HW293385   6.284  10.651   6.110  1.6079 -1.4440  0.1440
29994SOL     OW93386   3.658   5.618   0.522 -0.3048 -0.3649 -0.3715
29994SOL    HW193387   3.671   5.597   0.430  1.0698 -1.2332  0.0147
29994SOL    HW293388   3.691   5.708   0.531  0.4973 -0.6443 -0.5145
29995SOL     OW93389   8.919   4.278   5.897  0.4534  0.0239  0.7124
29995SOL    HW193390   9.002   4.319   5.874 -0.1065  0.1567 -1.1632
29995SOL    HW293391   8.925   4.190   5.859 -1.2495  0.8864 -1.6125
29996SOL     OW93392  10.783   0.369   5.130  0.0410  0.3025 -0.3035
29996SOL    HW193393  10.871   0.391   5.101  0.6478 -1.4862  0.0860
29996SOL    HW293394  10.736   0.452   5.133  1.9182  1.3533  0.1799
29997SOL     OW93395   1.086   5.354   1.865 -0.0642 -0.1405  0.1576
29997SOL    HW193396   0.992   5.374   1.870 -0.5422 -1.9245 -1.3172
29997SOL    HW293397   1.095   5.268   1.907  0.9667  0.1416  0.5341
29998SOL     OW93398  10.030  10.382   4.652  0.4807  0.2132  0.6150
29998SOL    HW193399   9.979  10.463   4.647  1.3542  0.6822 -1.0251
29998SOL    HW293400   9.971  10.314   4.618  0.3375  0.4652  0.3584
29999SOL     OW93401   1.133   2.718   0.476 -0.2498  0.3322 -0.2765
29999SOL    HW193402   1.199   2.781   0.503 -1.3839  1.0365  0.8839
29999SOL    HW293403   1.071   2.768   0.423 -1.8775  0.5264  1.7469
30000SOL     OW93404   9.617   6.052  10.014  0.0374 -0.0541 -0.7774
30000SOL    HW193405   9.607   6.055  10.109  0.0475  2.5142 -0.8048
30000SOL    HW293406   9.547   5.994   9.984 -0.4105 -0.3226  0.7626
30001SOL     OW93407   7.866   3.483  10.545  0.4181  0.4769  0.3353
30001SOL    HW193408   7.916   3.531  10.478 -0.4194  0.0753 -0.5986
30001SOL    HW293409   7.890   3.391  10.531  0.1330  0.3773  0.5014
30002SOL     OW93410   5.668   1.513   0.337 -0.1108 -0.0651  0.2265
30002SOL    HW193411   5.677   1.424   0.302 -0.2820  0.7902 -2.0818
30002SOL    HW293412   5.752   1.531   0.379  0.7496 -0.5261 -1.2422
30003SOL     OW93413   4.729   2.659  10.181 -0.4112  0.1960  0.5913
30003SOL    HW193414   4.703   2.595  10.248 -1.2804  0.7067  0.7473
30003SOL    HW293415   4.817   2.632  10.156 -1.0439 -1.5034  0.1267
30004SOL     OW93416   5.258   3.940   9.005 -0.0730  0.2118  0.5067
30004SOL    HW193417   5.239   3.860   9.054 -1.9224  0.8467  0.8703
30004SOL    HW293418   5.295   3.999   9.070  0.4733 -0.0353  0.4261
30005SOL     OW93419   8.394   2.012  10.510 -0.4452 -0.2263 -0.4276
30005SOL    HW193420   8.409   1.966  10.592  2.4384 -0.4048 -1.0229
30005SOL    HW293421   8.476   2.005  10.463 -1.3668  1.7687 -2.4137
30006SOL     OW93422   1.360   6.012   4.896 -0.1356 -0.6179 -0.4657
30006SOL    HW193423   1.390   6.080   4.835  0.0656 -0.1557  0.1407
30006SOL    HW293424   1.269   5.996   4.872 -0.1668 -0.1754 -0.6515
30007SOL     OW93425   8.139   5.339   7.197  0.4182  0.4873  0.5064
30007SOL    HW193426   8.070   5.400   7.172  0.0555 -0.2496 -0.3335
30007SOL    HW293427   8.214   5.365   7.144  0.4004  0.4884  0.4810
30008SOL     OW93428   9.834   4.647  10.012  0.4017 -0.3243  0.5274
30008SOL    HW193429   9.798   4.667   9.926  0.0990 -0.0327  0.7175
30008SOL    HW293430   9.819   4.727  10.063 -1.8880 -1.4098  1.6548
30009SOL     OW93431  10.917   2.281  10.078 -0.3812 -0.3082 -0.0155
30009SOL    HW193432  10.890   2.268  10.169 -1.0234 -0.7632 -0.2665
30009SOL    HW293433  10.952   2.370  10.076 -0.3060 -0.3188  0.6917
30010SOL     OW93434   9.648   2.423  10.585  0.4599 -0.0747 -0.3050
30010SOL    HW193435   9.714   2.492  10.581  0.5134 -0.0773  0.3619
30010SOL    HW293436   9.610   2.432  10.673 -1.2191  0.6536 -1.0886
30011SOL     OW93437   2.679   6.705   8.439  0.0669 -0.2235 -0.5793
30011SOL    HW193438   2.715   6.794   8.435 -1.6510  0.5184 -0.0002
30011SOL    HW293439   2.689   6.672   8.350  2.0583  0.0004 -0.4604
30012SOL     OW93440  10.652   8.784   0.297  0.2986  0.6066  0.3055
30012SOL    HW193441  10.598   8.801   0.221  0.8512  0.0743 -0.2196
30012SOL    HW293442  10.635   8.856   0.357  0.8445  1.7157 -0.8725
30013SOL     OW93443   6.250   5.214  10.421  0.0804 -1.1136  0.4970
30013SOL    HW193444   6.238   5.225  10.515  0.8699  0.0783  0.4711
30013SOL    HW293445   6.163   5.225  10.384  0.2026  1.2674  0.8454
30014SOL     OW93446   0.633   7.124  10.338 -0.0639  0.1380 -0.3724
30014SOL    HW193447   0.671   7.060  10.398 -1.1359  0.6522  0.8695
30014SOL    HW293448   0.586   7.071  10.274 -2.2008 -0.3109  1.4999
30015SOL     OW93449  10.581   9.831   2.666 -0.2395  0.3241  0.1981
30015SOL    HW193450  10.496   9.874   2.655 -0.7257 -0.6427  0.1420
30015SOL    HW293451  10.566   9.765   2.733  0.6413  0.6124  0.6694
30016SOL     OW93452   5.868   1.715   5.774  0.3794  0.5897 -0.2916
30016SOL    HW193453   5.948   1.742   5.818  0.2261 -0.3348  0.5569
30016SOL    HW293454   5.897   1.655   5.705  0.3759 -0.1004  0.3084
30017SOL     OW93455   5.799   2.028   3.667  0.0254 -0.1199  0.4120
30017SOL    HW193456   5.823   2.086   3.595  0.6335  0.2352  0.8953
30017SOL    HW293457   5.755   2.085   3.730  0.9897 -0.0930  1.0720
30018SOL     OW93458   8.137   2.709   2.154  0.1036 -0.1447  0.3873
30018SOL    HW193459   8.108   2.739   2.240 -1.3973  1.6341 -0.6972
30018SOL    HW293460   8.069   2.649   2.125  0.0044  0.1890 -0.0687
30019SOL     OW93461   3.754   2.144   9.491 -0.5246  0.4289 -0.2700
30019SOL    HW193462   3.836   2.153   9.443 -1.0857 -1.3499 -1.6396
30019SOL    HW293463   3.780   2.144   9.583  0.8087  1.6757 -0.6309
30020SOL     OW93464   3.871   8.754   9.956 -0.1435 -0.5186  0.0009
30020SOL    HW193465   3.817   8.829   9.935 -0.5987 -1.6587 -3.0983
30020SOL    HW293466   3.961   8.786   9.953 -0.4108  0.2347  0.1572
30021SOL     OW93467   8.583   0.468   4.265 -0.0519 -0.3354  0.4748
30021SOL    HW193468   8.504   0.482   4.214  0.7149 -0.5049 -0.7680
30021SOL    HW293469   8.588   0.373   4.277  0.2527 -0.3691  0.0876
30022SOL     OW93470  10.644   6.597   0.125  0.1731 -0.1870  0.4132
30022SOL    HW193471  10.656   6.512   0.166 -1.6220 -0.8220 -0.3500
30022SOL    HW293472  10.663   6.582   0.032 -0.2743  0.1998  0.2561
30023SOL     OW93473   1.193   0.004   0.337 -0.0864  0.1219  0.0953
30023SOL    HW193474   1.248   0.043   0.268 -1.0868 -0.0841 -0.8409
30023SOL    HW293475   1.135  -0.056   0.290 -0.8008 -0.0085  1.1236
30024SOL     OW93476   2.646   1.343   3.154 -0.2546  0.2789  0.2049
30024SOL    HW193477   2.572   1.351   3.094 -0.0330 -1.0558 -0.2630
30024SOL    HW293478   2.648   1.426   3.201 -1.0176  0.9840 -0.9726
30025SOL     OW93479   5.568   4.158  10.458 -0.1328  0.4095  0.7467
30025SOL    HW193480   5.519   4.197  10.530  2.4297  0.3118  2.6029
30025SOL    HW293481   5.644   4.118  10.500  0.9819 -0.3702 -1.9308
30026SOL     OW93482  10.817   2.119   9.208 -0.0532  0.4249  0.5191
30026SOL    HW193483  10.842   2.098   9.118  1.5203  0.0076  1.0375
30026SOL    HW293484  10.783   2.037   9.244 -0.8676  0.6408  0.2543
30027SOL     OW93485   2.182   4.252   7.077 -0.0233  0.4462  0.3195
30027SOL    HW193486   2.097   4.287   7.100 -0.5600 -0.4187 -0.2879
30027SOL    HW293487   2.194   4.276   6.985  0.0071 -0.1708  0.1596
30028SOL     OW93488   6.430   2.011   8.224  0.5296  0.0226  0.5519
30028SOL    HW193489   6.520   2.018   8.193  1.4065 -1.0140  2.7668
30028SOL    HW293490   6.430   2.056   8.308 -1.9301  3.3120 -1.0608
30029SOL     OW93491   5.328   9.060   0.087  0.4378  0.8978  0.1281
30029SOL    HW193492   5.370   8.976   0.066  2.3224  1.8364  0.0562
30029SOL    HW293493   5.261   9.071   0.020  0.1215 -0.5782  0.1808
30030SOL     OW93494   3.149   6.329   8.352  0.3323  0.0674  0.2822
30030SOL    HW193495   3.099   6.264   8.302  0.3821 -0.3436  0.7746
30030SOL    HW293496   3.228   6.343   8.300  0.2262 -0.1122  0.0691
30031SOL     OW93497   2.428   1.369   3.404  0.0338  0.3669  0.0938
30031SOL    HW193498   2.342   1.331   3.427 -1.4124  3.7829  0.6090
30031SOL    HW293499   2.416   1.463   3.415  2.9395  1.1682 -2.9884
30032SOL     OW93500   5.495   2.994   2.962  0.3304 -0.2018  0.4548
30032SOL    HW193501   5.407   2.980   2.925  1.0226 -2.2091 -0.5521
30032SOL    HW293502   5.540   3.047   2.896  0.4061 -0.6641  0.1263
30033SOL     OW93503   2.903   6.896   4.864  0.2669  0.5018 -0.0353
30033SOL    HW193504   2.933   6.813   4.902 -1.1435  0.5419  1.2099
30033SOL    HW293505   2.829   6.872   4.809 -0.6117  0.9982  0.9057
30034SOL     OW93506   1.774  10.479   0.844 -0.3541  0.7530  0.1570
30034SOL    HW193507   1.848  10.519   0.891 -1.0499  1.5179  0.6048
30034SOL    HW293508   1.697  10.521   0.881 -0.9825  0.4250 -0.7796
30035SOL     OW93509   8.514   2.784   2.632  0.1414 -0.2846 -0.0337
30035SOL    HW193510   8.560   2.867   2.618 -0.3237 -0.0827 -0.3623
30035SOL    HW293511   8.422   2.807   2.637  0.0646 -0.6985  0.5983
30036SOL     OW93512   4.709   3.453   6.643  0.1042  0.1581  0.4591
30036SOL    HW193513   4.706   3.493   6.730  1.1549 -1.9888  1.5085
30036SOL    HW293514   4.787   3.397   6.645 -0.8770 -1.3123 -1.2457
30037SOL     OW93515   7.635   5.762   9.888 -0.0501  0.8544  0.5123
30037SOL    HW193516   7.606   5.825   9.954 -1.8623 -0.0099  0.5711
30037SOL    HW293517   7.559   5.750   9.831  0.3950 -0.9617  0.2521
30038SOL     OW93518   1.317   1.303   6.669  0.3051 -0.0974 -0.3298
30038SOL    HW193519   1.304   1.231   6.730  0.9802  0.4760  0.5099
30038SOL    HW293520   1.405   1.289   6.633  0.4019  0.2520 -0.2331
30039SOL     OW93521   5.688   3.502  10.869 -0.3257  0.6802 -0.3507
30039SOL    HW193522   5.661   3.481  10.780  2.6972  0.8517 -1.3437
30039SOL    HW293523   5.684   3.598  10.873  2.7408  0.8854 -1.3973
30040SOL     OW93524   0.223   8.502   6.365  0.1983  0.0816  0.5427
30040SOL    HW193525   0.237   8.430   6.427 -0.6615 -1.3664 -0.9100
30040SOL    HW293526   0.129   8.518   6.367  0.4614  1.7137  1.4033
30041SOL     OW93527   9.557   0.604   6.878  0.1310 -0.1450 -0.2424
30041SOL    HW193528   9.560   0.552   6.798  0.9945 -1.1840  0.4425
30041SOL    HW293529   9.588   0.544   6.946 -0.0090  0.9095  0.7649
30042SOL     OW93530   9.108  10.181   0.934 -0.2230  0.4715 -0.3146
30042SOL    HW193531   9.108  10.154   1.025 -2.4152 -0.8642 -0.6501
30042SOL    HW293532   9.086  10.101   0.885  0.9636  1.1428 -2.0228
30043SOL     OW93533   0.957   8.012  10.711  0.0561  0.7197 -0.4780
30043SOL    HW193534   0.976   7.927  10.672 -1.0635  0.4714 -0.5012
30043SOL    HW293535   0.928   8.066  10.637 -2.3761  0.1589  0.0256
30044SOL     OW93536   3.412   1.597   9.700  0.0997 -0.6716  0.4899
30044SOL    HW193537   3.343   1.531   9.701  1.4180 -2.0903 -0.5116
30044SOL    HW293538   3.383   1.663   9.763 -2.2880 -1.1135 -0.1104
30045SOL     OW93539   4.459   3.027   8.290  0.4027 -0.0632  0.0319
30045SOL    HW193540   4.405   2.956   8.324  1.3994 -2.0922 -2.4616
30045SOL    HW293541   4.545   3.014   8.331  0.9340 -1.0800 -1.3672
30046SOL     OW93542   7.557   9.680   1.165 -0.2815  0.2583 -0.2323
30046SOL    HW193543   7.589   9.636   1.086  1.9227 -0.5859  1.0753
30046SOL    HW293544   7.484   9.734   1.135  1.2429  0.8393 -3.0685
30047SOL     OW93545   8.354   6.271   8.743  0.3506 -0.8452  0.2151
30047SOL    HW193546   8.271   6.224   8.751 -0.0100 -0.1308  0.7541
30047SOL    HW293547   8.420   6.205   8.765 -0.2267 -0.7976  2.2411
30048SOL     OW93548  10.895   2.986  10.901  0.0713  0.6038  0.3526
30048SOL    HW193549  10.911   2.930  10.825  0.0091  1.0812 -0.0087
30048SOL    HW293550  10.814   2.951  10.939  0.0081  0.4758  0.1024
30049SOL     OW93551   3.312   2.149   7.061  0.6980  0.0728  0.1762
30049SOL    HW193552   3.288   2.241   7.057 -0.9597 -0.4077 -1.6378
30049SOL    HW293553   3.251   2.111   7.125  1.3347  0.2179  0.8723
30050SOL     OW93554  10.705  10.282   0.594  0.1319  0.0623 -0.1846
30050SOL    HW193555  10.741  10.252   0.510  0.8501  2.1803 -0.6489
30050SOL    HW293556  10.631  10.223   0.611  0.6293 -1.0457 -1.7669
30051SOL     OW93557   2.417   8.420  10.566  0.1356  0.6541 -0.2145
30051SOL    HW193558   2.344   8.432  10.505  1.9819  1.8425 -2.2682
30051SOL    HW293559   2.481   8.487  10.541  1.3642  0.5358  2.4228
30052SOL     OW93560   9.777   5.109   9.968  0.2108  0.0936  0.2221
30052SOL    HW193561   9.807   5.064  10.047 -1.0437 -0.3748  0.4469
30052SOL    HW293562   9.705   5.055   9.935  0.1220  0.7692 -0.7290
30053SOL     OW93563   8.666   1.118   3.732  0.0988 -0.0834  0.4633
30053SOL    HW193564   8.725   1.110   3.807 -1.1434  1.1022  1.5913
30053SOL    HW293565   8.611   1.193   3.752 -2.1893 -1.4911 -0.2827
30054SOL     OW93566   4.996   1.784   1.124 -0.3574 -0.2005  0.4138
30054SOL    HW193567   4.979   1.690   1.131  1.1771 -0.3979  1.8459
30054SOL    HW293568   5.090   1.790   1.105 -0.6872  1.0193 -0.9841
30055SOL     OW93569   1.189   3.996   1.342 -0.2315  0.5612  0.3962
30055SOL    HW193570   1.098   3.973   1.359  0.0856 -3.4224 -2.5148
30055SOL    HW293571   1.237   3.959   1.417 -0.7549  0.0366  0.4780
30056SOL     OW93572   1.469   0.354   9.744 -0.3786 -0.3061 -0.1080
30056SOL    HW193573   1.479   0.421   9.811 -1.8284  1.2049 -1.3631
30056SOL    HW293574   1.551   0.357   9.694  0.1781 -0.5444  0.7790
30057SOL     OW93575   9.176   1.872   8.163 -0.4315 -0.5507  0.8358
30057SOL    HW193576   9.169   1.879   8.259 -0.2883 -4.6210  1.2030
30057SOL    HW293577   9.088   1.850   8.134 -0.1694 -0.7353  0.1771
30058SOL     OW93578   2.472   0.571   7.030  0.1138 -0.1439 -0.0229
30058SOL    HW193579   2.443   0.493   6.982 -4.2155  0.5557  1.2832
30058SOL    HW293580   2.485   0.539   7.120  0.1837  0.2367  0.1013
30059SOL     OW93581   4.244   4.465   1.853 -0.0592  0.0309  0.4192
30059SOL    HW193582   4.173   4.420   1.899  1.1733 -1.6605  0.7092
30059SOL    HW293583   4.293   4.395   1.810 -0.0122  1.4132 -1.8388
30060SOL     OW93584   3.228   8.779   9.224  0.2823  0.9811  0.1282
30060SOL    HW193585   3.262   8.746   9.307 -0.9341 -4.9906 -1.5435
30060SOL    HW293586   3.137   8.802   9.243 -0.2532 -1.1805  0.3688
30061SOL     OW93587   9.050   9.812   0.043 -0.2423 -0.2126  0.5431
30061SOL    HW193588   9.070   9.901   0.017  0.6846 -0.0565  1.7265
30061SOL    HW293589   9.100   9.757  -0.018 -0.0705  0.0880  0.4134
30062SOL     OW93590   7.327   8.085   0.858  0.1858  0.5867  0.1523
30062SOL    HW193591   7.312   7.992   0.841 -0.9656  0.2809  2.5471
30062SOL    HW293592   7.422   8.094   0.864  0.3057 -0.4065 -0.2070
30063SOL     OW93593   0.455   1.027   9.195  0.3896 -0.3771 -0.3667
30063SOL    HW193594   0.515   0.994   9.128 -1.4625  1.6423 -3.1459
30063SOL    HW293595   0.480   1.119   9.206 -1.0703  0.0219 -0.3013
30064SOL     OW93596   2.911   1.252   4.526  0.0128 -0.2926 -0.3964
30064SOL    HW193597   2.948   1.245   4.439  2.4007 -1.1485  0.6417
30064SOL    HW293598   2.923   1.344   4.551  2.5424 -0.8059  0.3722
30065SOL     OW93599   2.764   5.406   3.202 -0.0681  0.1475  0.4524
30065SOL    HW193600   2.723   5.491   3.217  1.9572  1.4571 -0.9734
30065SOL    HW293601   2.708   5.363   3.137  0.8240  1.9481 -1.5639
30066SOL     OW93602   4.032   5.385   2.661  0.3491  0.0829 -0.2705
30066SOL    HW193603   4.109   5.415   2.613 -0.2143  0.7039 -0.7931
30066SOL    HW293604   3.968   5.363   2.592 -0.5410  1.1959  0.2021
30067SOL     OW93605   4.606   7.516   8.921  0.2342  0.0283 -0.3299
30067SOL    HW193606   4.606   7.586   8.986  0.7452  0.0526 -0.3545
30067SOL    HW293607   4.515   7.510   8.892  0.1298  0.4639 -0.0951
30068SOL     OW93608   0.981   7.424   6.352 -0.4312  0.0848  0.1421
30068SOL    HW193609   0.955   7.506   6.394  1.4626  0.1271  1.2945
30068SOL    HW293610   0.941   7.356   6.405  0.1877  0.2080  0.7845
30069SOL     OW93611   5.158   7.717   9.506  0.3783 -0.5929 -0.6014
30069SOL    HW193612   5.127   7.740   9.594  0.4546  2.2802 -1.2686
30069SOL    HW293613   5.204   7.634   9.518  0.3559 -0.2719  2.0817
30070SOL     OW93614   0.258   0.032  10.068 -0.2804 -0.7686 -0.1098
30070SOL    HW193615   0.226  -0.033  10.130 -0.1340 -1.1408 -0.4229
30070SOL    HW293616   0.269   0.111  10.121 -0.6844 -0.9268  0.2225
30071SOL     OW93617   5.704   8.815   3.163  0.6438 -0.0671  0.5642
30071SOL    HW193618   5.739   8.903   3.150  2.8365 -1.2784 -2.5058
30071SOL    HW293619   5.782   8.760   3.172 -0.6695 -1.8512  1.1297
30072SOL     OW93620   9.992   5.522   9.901 -0.5321 -0.6575 -0.2943
30072SOL    HW193621  10.070   5.552   9.855 -0.0313 -2.2006 -0.4809
30072SOL    HW293622   9.987   5.577   9.979  1.2978 -1.1980  0.2285
30073SOL     OW93623   6.526   0.992   5.423 -0.5633  0.1633 -0.1008
30073SOL    HW193624   6.491   1.049   5.354 -1.1613 -0.4346 -0.2969
30073SOL    HW293625   6.449   0.957   5.467 -0.1926 -0.0906  0.3526
30074SOL     OW93626   9.154   0.692   8.487  0.6737 -0.7272  0.4976
30074SOL    HW193627   9.152   0.609   8.440  0.8319 -0.1117 -0.5919
30074SOL    HW293628   9.070   0.734   8.466  1.0369 -0.1436  0.2098
30075SOL     OW93629   6.617   9.105   0.161  0.4661  0.0757 -0.0306
30075SOL    HW193630   6.573   9.071   0.083 -2.7676 -1.0355  2.1483
30075SOL    HW293631   6.706   9.071   0.155 -0.4854 -2.2669 -1.8987
30076SOL     OW93632   9.563   3.982   2.275 -0.2823  0.7266  0.3471
30076SOL    HW193633   9.612   4.024   2.345  1.9586 -2.4724  0.8055
30076SOL    HW293634   9.505   3.920   2.320 -0.2008  0.0089 -0.5304
30077SOL     OW93635   5.809   1.230   4.600 -0.4744 -0.5883 -0.0416
30077SOL    HW193636   5.750   1.301   4.576 -1.9418 -1.7935 -0.0746
30077SOL    HW293637   5.884   1.241   4.542  0.3035  2.1910  1.4371
30078SOL     OW93638   9.597   6.570   0.403  0.1455 -0.4854  0.0233
30078SOL    HW193639   9.614   6.536   0.315 -4.1593  1.0099 -1.5159
30078SOL    HW293640   9.605   6.665   0.395 -4.0464 -0.0133  0.1689
30079SOL     OW93641   6.154   7.783  10.059 -0.7305 -0.0203 -0.1165
30079SOL    HW193642   6.204   7.757   9.981 -1.3314 -1.5354 -0.0087
30079SOL    HW293643   6.210   7.848  10.102  0.9799 -1.3753 -0.2240
30080SOL     OW93644   4.837   5.218   1.064 -0.5543  0.0549 -0.2855
30080SOL    HW193645   4.757   5.231   1.012 -1.9440  0.5138  1.8762
30080SOL    HW293646   4.830   5.282   1.135 -0.4852 -2.8339  2.4529
30081SOL     OW93647  10.862   9.139   0.953  0.1794  0.3614  0.2454
30081SOL    HW193648  10.867   9.209   1.018 -1.9477 -1.1848  2.1800
30081SOL    HW293649  10.919   9.070   0.987 -0.0530 -0.0014 -0.0895
30082SOL     OW93650   5.544   1.472   7.447 -0.1112  0.1161 -0.3980
30082SOL    HW193651   5.498   1.548   7.484 -1.1970  0.8498 -3.1333
30082SOL    HW293652   5.617   1.457   7.506 -1.6299  1.3901  1.8784
30083SOL     OW93653   9.984   1.558   1.816 -0.8474 -0.9183 -0.1022
30083SOL    HW193654   9.955   1.626   1.755  0.5584 -0.7855 -0.6433
30083SOL    HW293655   9.926   1.483   1.798 -2.0453 -0.0477  0.1203
30084SOL     OW93656   3.372   1.297   8.178 -0.4850  0.4287  0.8356
30084SOL    HW193657   3.405   1.380   8.143 -1.6867  0.7338  0.4287
30084SOL    HW293658   3.340   1.320   8.265 -3.1533  0.9267 -0.2424
30085SOL     OW93659   6.739   0.722   9.328  0.1615  0.7871  0.2043
30085SOL    HW193660   6.696   0.806   9.316  0.6531  1.0503  0.2505
30085SOL    HW293661   6.833   0.743   9.329  0.2206  0.5320  2.4453
30086SOL     OW93662   7.893   3.115   5.387  0.6508 -0.1620 -0.4289
30086SOL    HW193663   7.974   3.160   5.411  0.2363 -0.0906  0.8401
30086SOL    HW293664   7.826   3.182   5.390 -0.0002 -0.8782  1.6372
30087SOL     OW93665   0.202   8.062   2.946  0.2578  0.4436 -0.5797
30087SOL    HW193666   0.150   7.996   2.993 -0.4930  1.2434 -0.2515
30087SOL    HW293667   0.208   8.135   3.008 -0.2352  1.2788 -1.5076
30088SOL     OW93668   5.400   9.005   1.033  0.0771 -0.1489  0.8565
30088SOL    HW193669   5.325   9.036   1.083 -0.8784 -1.5710  0.3208
30088SOL    HW293670   5.366   8.932   0.981  1.8901 -1.0119  0.8461
30089SOL     OW93671   3.159   3.751   2.994  0.2383 -0.6957 -0.0671
30089SOL    HW193672   3.071   3.730   3.025  0.3669  0.7840  1.3465
30089SOL    HW293673   3.177   3.838   3.030  1.2916  0.0929 -2.4450
30090SOL     OW93674   5.265   3.926   0.513 -0.1174 -0.8769 -0.1399
30090SOL    HW193675   5.170   3.917   0.512 -0.1699 -0.4091 -2.1698
30090SOL    HW293676   5.283   3.992   0.446  1.6941 -1.5777 -0.3637
30091SOL     OW93677   3.863   4.194  10.903  0.4025 -0.2405  0.6903
30091SOL    HW193678   3.818   4.278  10.901 -0.2664 -0.6078  0.2749
30091SOL    HW293679   3.933   4.202  10.838  1.9963  0.9159  2.4933
30092SOL     OW93680   7.314   1.262   7.760 -0.0180  0.1791  0.2011
30092SOL    HW193681   7.339   1.195   7.824 -0.5686  0.4373  0.6926
30092SOL    HW293682   7.355   1.234   7.678  0.6018 -0.2123  0.6439
30093SOL     OW93683   7.556   9.189   2.521  0.3565  0.1450  0.5429
30093SOL    HW193684   7.592   9.277   2.508  1.8927 -0.0446  3.0171
30093SOL    HW293685   7.632   9.135   2.541 -0.7800 -1.3433  0.9527
30094SOL     OW93686   4.848   5.501   2.872  0.6529 -0.7140 -0.6411
30094SOL    HW193687   4.764   5.538   2.900 -0.4425 -2.4589 -1.5497
30094SOL    HW293688   4.867   5.545   2.789  0.6253 -0.3403 -0.4498
30095SOL     OW93689   6.221   8.359   3.214  0.2117  0.5636 -0.3972
30095SOL    HW193690   6.177   8.276   3.233 -0.1932  0.6320 -1.0540
30095SOL    HW293691   6.160   8.426   3.246  1.0196  0.5962  1.1615
30096SOL     OW93692   9.586   4.798   3.871  0.3255  0.1617 -0.1172
30096SOL    HW193693   9.564   4.706   3.859 -0.5319  0.4052 -0.5219
30096SOL    HW293694   9.681   4.802   3.868  0.3489 -0.6727 -0.3760
30097SOL     OW93695   4.387   1.811   6.716 -0.2876 -0.1795 -0.2626
30097SOL    HW193696   4.401   1.788   6.808  0.8666 -1.5362 -0.7545
30097SOL    HW293697   4.467   1.781   6.672 -0.8016  0.5256 -1.6962
30098SOL     OW93698   4.459   5.929   5.114  0.0594  0.4286 -0.1885
30098SOL    HW193699   4.510   5.974   5.181 -0.5106  0.9279 -0.0879
30098SOL    HW293700   4.473   5.836   5.131 -2.3798  0.4771  2.4239
30099SOL     OW93701   6.351   5.438   9.669 -0.2773  0.4017  0.3289
30099SOL    HW193702   6.415   5.497   9.708  1.9943 -0.5022 -1.9140
30099SOL    HW293703   6.266   5.478   9.691  1.1215  3.5376  0.3537
30100SOL     OW93704   9.737   0.207   8.684  0.2845  0.3395 -0.1005
30100SOL    HW193705   9.823   0.166   8.686 -0.0002 -0.2474  0.4274
30100SOL    HW293706   9.740   0.267   8.610  1.5023  1.1162  0.5774
30101SOL     OW93707  10.079   0.096   5.135  0.3735  0.2769 -0.0642
30101SOL    HW193708  10.124   0.172   5.097  1.5458 -1.6197 -2.6055
30101SOL    HW293709  10.138   0.023   5.119 -1.4632 -1.4570  0.9169
30102SOL     OW93710   5.926   9.814   4.566 -0.5583 -0.6263 -0.4619
30102SOL    HW193711   6.017   9.786   4.575 -0.6226 -0.6213  0.2179
30102SOL    HW293712   5.875   9.741   4.603 -0.7507  0.1452  0.8452
30103SOL     OW93713   7.155   4.395   2.480  0.2356 -0.7679 -0.4950
30103SOL    HW193714   7.182   4.431   2.395 -0.6774 -1.0791 -0.9179
30103SOL    HW293715   7.081   4.338   2.460 -1.4354  0.8920  0.7797
30104SOL     OW93716   9.956   9.183  10.548 -0.2029  0.2778  0.2888
30104SOL    HW193717  10.035   9.150  10.505 -1.2515 -0.0235 -1.4804
30104SOL    HW293718   9.958   9.145  10.635  1.7857  0.5651  0.3976
30105SOL     OW93719  10.857   5.122   9.871 -0.1814  0.1237 -0.4537
30105SOL    HW193720  10.819   5.122   9.784 -0.5148  0.1478 -0.3067
30105SOL    HW293721  10.905   5.205   9.877 -1.4172  0.8233 -0.0618
30106SOL     OW93722   8.662   0.016   1.959 -0.1199  0.5282  0.1601
30106SOL    HW193723   8.662   0.086   2.024  0.1945  0.9193 -0.2600
30106SOL    HW293724   8.711  -0.055   2.000  2.3244  1.7043 -0.6322
30107SOL     OW93725   1.907   7.213   9.724 -0.2848 -0.1322  0.1234
30107SOL    HW193726   1.950   7.296   9.702 -0.5187 -0.4202 -1.5372
30107SOL    HW293727   1.975   7.147   9.713 -0.9201 -0.5102 -1.8238
30108SOL     OW93728  10.440  10.581   1.654  0.1356  0.3800 -0.3301
30108SOL    HW193729  10.492  10.519   1.705 -0.1917  0.8167  0.5363
30108SOL    HW293730  10.497  10.656   1.640  0.6324 -0.2221 -1.6266
30109SOL     OW93731   2.390   4.772   4.756 -0.2769  0.3431  0.7635
30109SOL    HW193732   2.345   4.717   4.691 -1.1995 -0.1497  1.8065
30109SOL    HW293733   2.481   4.775   4.725 -0.3556 -1.2214  0.3185
30110SOL     OW93734   5.260   5.323   2.779  0.4398 -0.5357  0.3069
30110SOL    HW193735   5.300   5.399   2.736  1.9983 -0.9340  1.0289
30110SOL    HW293736   5.258   5.347   2.872  2.6852 -2.1061  0.8017
30111SOL     OW93737   0.945   7.765   9.308 -0.0308  0.0487  0.3223
30111SOL    HW193738   0.896   7.831   9.260 -0.3101 -1.1515 -1.0920
30111SOL    HW293739   0.910   7.768   9.397 -0.0391  1.7746  0.2810
30112SOL     OW93740   6.009   6.125   5.824 -0.2114 -0.6036 -0.3285
30112SOL    HW193741   6.091   6.077   5.838 -0.0722 -0.8511 -1.9051
30112SOL    HW293742   6.012   6.151   5.732  0.3480  3.6679  0.7844
30113SOL     OW93743   4.964   2.068   0.173  0.2117  0.3664 -0.3156
30113SOL    HW193744   4.985   2.106   0.259  1.9904  1.3620 -1.1542
30113SOL    HW293745   4.915   2.137   0.128 -0.2817  0.0356 -0.2868
30114SOL     OW93746   2.707   5.573   5.894  0.2933 -0.7796  0.4874
30114SOL    HW193747   2.687   5.587   5.802 -0.4336  0.1131  0.7712
30114SOL    HW293748   2.799   5.548   5.895  0.2834 -0.8832 -0.4884
30115SOL     OW93749   3.398   1.156   1.794 -0.2375  0.3980 -0.4446
30115SOL    HW193750   3.458   1.183   1.725 -0.3695  1.5689 -0.1047
30115SOL    HW293751   3.370   1.237   1.835 -1.2432 -0.2041  0.0872
30116SOL     OW93752  10.094   6.249   2.063 -0.5367 -0.6210  0.5271
30116SOL    HW193753  10.175   6.199   2.077  0.8156  0.9237 -1.4619
30116SOL    HW293754  10.090   6.309   2.138 -0.0502 -0.9815  0.8528
30117SOL     OW93755   9.510  10.557   2.805  0.2203 -0.0401 -0.6538
30117SOL    HW193756   9.547  10.637   2.843 -0.3405  0.3320 -0.8975
30117SOL    HW293757   9.422  10.551   2.842  0.9456 -1.5817  0.8774
30118SOL     OW93758   8.850   8.978   8.902  0.4003 -0.4330 -0.1327
30118SOL    HW193759   8.800   8.985   8.820  0.3913 -0.3126 -0.1162
30118SOL    HW293760   8.810   9.041   8.961  0.9065  0.0405 -0.2914
30119SOL     OW93761   3.298   9.868   1.445  0.4068  0.1469 -0.3436
30119SOL    HW193762   3.207   9.838   1.440  0.5349 -0.1889 -0.6355
30119SOL    HW293763   3.338   9.839   1.363  1.3130 -1.4710  0.6534
30120SOL     OW93764   3.258   0.091  10.200  0.0501  0.0005 -0.1338
30120SOL    HW193765   3.227   0.052  10.119  0.9355 -1.9352  0.4434
30120SOL    HW293766   3.269   0.184  10.179 -0.9023 -0.2686 -1.8671
30121SOL     OW93767  10.135   0.913   9.850  0.1732 -0.1242  0.0419
30121SOL    HW193768  10.072   0.852   9.888  0.5191 -1.5921 -1.6483
30121SOL    HW293769  10.098   1.000   9.865 -0.6794 -0.7940  1.8580
30122SOL     OW93770  10.846   2.517   6.632  0.5589 -0.0511  0.3404
30122SOL    HW193771  10.849   2.545   6.540  1.5813  0.1281  0.4173
30122SOL    HW293772  10.852   2.421   6.628 -0.7764 -0.1282  0.1656
30123SOL     OW93773  10.362   0.731   2.761  0.1970  0.6514 -0.4253
30123SOL    HW193774  10.446   0.764   2.793  0.8979 -0.8017 -0.7101
30123SOL    HW293775  10.304   0.735   2.837  1.3244 -0.9936  0.5681
30124SOL     OW93776   1.642   9.789   5.653  0.2301  0.6989 -0.4265
30124SOL    HW193777   1.678   9.836   5.577 -0.7459 -2.6154 -3.0636
30124SOL    HW293778   1.560   9.753   5.621  0.5669 -2.0950  1.7569
30125SOL     OW93779   1.076   7.370   9.370 -0.0688 -0.6606 -0.4854
30125SOL    HW193780   0.999   7.415   9.337  0.3896  0.2741 -0.3060
30125SOL    HW293781   1.142   7.380   9.300  0.8785  1.2614  0.6350
30126SOL     OW93782   2.056   5.053   8.322  0.0871  0.3483  0.2405
30126SOL    HW193783   2.150   5.038   8.319  0.4129  2.3984 -0.6753
30126SOL    HW293784   2.047   5.148   8.329 -1.9123  0.1850  0.1205
30127SOL     OW93785   2.760   6.552   7.565  0.0569  0.8340  0.1810
30127SOL    HW193786   2.701   6.593   7.628  0.5273 -0.0987  1.2558
30127SOL    HW293787   2.822   6.504   7.619 -0.1227 -0.7921 -1.0135
30128SOL     OW93788   1.885   3.793   4.282 -0.0534 -0.0592 -0.3132
30128SOL    HW193789   1.820   3.734   4.245 -0.9787  1.3387 -0.9355
30128SOL    HW293790   1.845   3.826   4.362 -0.2364  1.0095 -0.8360
30129SOL     OW93791   5.545   6.778   5.256 -0.0903 -0.4903  0.0970
30129SOL    HW193792   5.562   6.869   5.232  1.3685 -0.9008 -0.5363
30129SOL    HW293793   5.524   6.735   5.173 -2.0262 -0.4947  0.5608
30130SOL     OW93794   4.762   0.252   5.286 -0.8675 -0.1382  0.1604
30130SOL    HW193795   4.806   0.336   5.293 -0.2758 -0.5168  0.9935
30130SOL    HW293796   4.828   0.193   5.250 -1.6275  0.0161 -1.5592
30131SOL     OW93797   0.225   1.556   0.369  0.3801 -0.2169  0.1689
30131SOL    HW193798   0.201   1.638   0.412 -0.2620 -1.2395  1.8023
30131SOL    HW293799   0.241   1.495   0.441  0.5727 -1.6121 -1.0372
30132SOL     OW93800   6.792   5.748   4.504  0.3619  0.3204 -0.3231
30132SOL    HW193801   6.790   5.652   4.504  0.6973  0.3153  1.0098
30132SOL    HW293802   6.885   5.770   4.505  0.2824  0.6706 -0.5157
30133SOL     OW93803   9.323  10.517   0.025 -0.0634 -0.0689 -0.5975
30133SOL    HW193804   9.286  10.438   0.062 -1.9336  1.0667  0.0065
30133SOL    HW293805   9.249  10.576   0.013  1.3408  1.7669 -0.6053
30134SOL     OW93806   2.617  10.121   0.894  0.4568  0.3247  0.2055
30134SOL    HW193807   2.672  10.162   0.960  2.3282 -0.3368 -0.8828
30134SOL    HW293808   2.559  10.063   0.943  1.8516 -0.1986  1.2523
30135SOL     OW93809   0.738   9.625   9.992 -0.0150  0.2776 -0.6161
30135SOL    HW193810   0.645   9.617   9.972 -0.0511 -0.2239 -0.2582
30135SOL    HW293811   0.755   9.556  10.056  0.0542  1.9325  1.2023
30136SOL     OW93812   6.070   1.264  10.583 -0.3478 -0.0672 -0.0371
30136SOL    HW193813   6.084   1.358  10.578 -0.3954 -0.0849 -0.4904
30136SOL    HW293814   6.120   1.236  10.660  3.1215 -0.2956 -2.2562
30137SOL     OW93815   8.298   5.521   1.030  0.2857  0.4718  0.5861
30137SOL    HW193816   8.233   5.545   1.096 -0.5340  1.2329 -0.4886
30137SOL    HW293817   8.262   5.554   0.947  0.4022 -2.0912 -0.5377
30138SOL     OW93818   6.275   0.755   0.091  0.0888  0.0003 -1.0625
30138SOL    HW193819   6.195   0.774   0.140 -0.7630 -1.0066 -2.0508
30138SOL    HW293820   6.262   0.796   0.006  0.7136  0.0181 -1.1490
30139SOL     OW93821   9.039   3.937  10.898  0.4096  1.0807 -0.2975
30139SOL    HW193822   8.993   3.970  10.821 -0.7909  0.9113  0.3431
30139SOL    HW293823   9.014   3.845  10.905  0.0514  1.2392  0.6281
30140SOL     OW93824  10.739   8.856   6.640  0.3680  0.2246 -0.3966
30140SOL    HW193825  10.733   8.933   6.584  2.6603  1.0114  0.3794
30140SOL    HW293826  10.744   8.783   6.578  2.0001  1.0215 -1.2535
30141SOL     OW93827   8.730   6.521   5.540  0.5870  0.7782 -0.2368
30141SOL    HW193828   8.725   6.561   5.627  0.4593 -0.1968  0.2083
30141SOL    HW293829   8.642   6.486   5.524  1.9769 -3.8211  1.5683
30142SOL     OW93830   1.498   1.187   5.153 -0.5333  0.1752  0.2502
30142SOL    HW193831   1.592   1.174   5.160 -0.7465 -0.5973  1.9742
30142SOL    HW293832   1.484   1.280   5.173 -0.3537 -0.2553  2.4649
30143SOL     OW93833   2.232   7.653   8.646 -1.0982 -0.2252  0.1923
30143SOL    HW193834   2.292   7.585   8.677  0.3952  1.8690  2.0327
30143SOL    HW293835   2.204   7.698   8.726 -2.4120  1.0359 -0.9566
30144SOL     OW93836   8.339   5.922  10.922  0.1235  0.4078 -0.5174
30144SOL    HW193837   8.313   5.987  10.986 -0.0174  0.0199 -0.1768
30144SOL    HW293838   8.276   5.850  10.934  2.2601 -1.2007  1.3630
30145SOL     OW93839   1.869   1.995   6.270  0.0338 -0.1977  0.5165
30145SOL    HW193840   1.901   1.922   6.324 -0.1432 -0.6400  0.0305
30145SOL    HW293841   1.791   2.026   6.316  0.1152 -0.3047  0.7315
30146SOL     OW93842   0.589   5.160   4.357  0.1401  0.4936 -0.3640
30146SOL    HW193843   0.663   5.190   4.410 -0.0665  1.0025 -0.3618
30146SOL    HW293844   0.583   5.066   4.375 -0.8452  0.9101  1.6466
30147SOL     OW93845   1.166   9.118   2.781 -0.1638  0.3858  0.9378
30147SOL    HW193846   1.225   9.187   2.750 -1.9179  1.3547 -0.3229
30147SOL    HW293847   1.137   9.074   2.701 -0.2977 -0.7968  1.6291
30148SOL     OW93848   8.798   6.246   1.907  0.2631 -0.0793 -0.0513
30148SOL    HW193849   8.755   6.318   1.953 -0.3886  0.4258 -1.3990
30148SOL    HW293850   8.884   6.240   1.947  0.0631  0.9868  0.5603
30149SOL     OW93851   5.138   3.515   2.633 -0.1996  0.7381  0.2614
30149SOL    HW193852   5.204   3.449   2.612 -0.5644  0.7419 -0.9445
30149SOL    HW293853   5.155   3.586   2.571 -1.1075  0.8935  0.1820
30150SOL     OW93854   8.474   2.614   3.231  0.1904 -0.0359  0.2159
30150SOL    HW193855   8.516   2.674   3.169  2.2530 -0.4046  1.2316
30150SOL    HW293856   8.390   2.594   3.190  0.4199  1.7658 -1.2184
30151SOL     OW93857   9.117   7.803   5.040  0.3636  0.5879 -0.0953
30151SOL    HW193858   9.083   7.794   4.951  1.4196  0.0983 -0.4557
30151SOL    HW293859   9.096   7.719   5.082 -2.7599  1.8516  1.0611
30152SOL     OW93860   2.811   8.084   1.089 -0.2307  0.3454  0.6891
30152SOL    HW193861   2.904   8.105   1.096  0.2271 -1.2306 -0.2190
30152SOL    HW293862   2.777   8.143   1.023  1.0688 -1.7878 -1.9853
30153SOL     OW93863   7.589   9.315  10.059  0.0521  0.0006  0.9391
30153SOL    HW193864   7.596   9.410  10.051  0.2351 -0.0898 -0.0909
30153SOL    HW293865   7.633   9.282   9.981  1.4166 -0.9671  2.0942
30154SOL     OW93866   3.293   4.515   1.098 -0.5749 -0.5140 -0.0836
30154SOL    HW193867   3.376   4.484   1.062 -0.8268 -1.9185  0.5130
30154SOL    HW293868   3.286   4.471   1.183 -2.2770 -0.9811 -0.4466
30155SOL     OW93869   6.642   5.657   5.024 -0.0046  0.1080  0.3960
30155SOL    HW193870   6.737   5.660   5.038 -0.1751  0.4391  1.5372
30155SOL    HW293871   6.618   5.749   5.008 -0.0776 -0.0311 -0.3075
30156SOL     OW93872   8.328   7.024   1.360 -0.1604  0.0462 -0.1593
30156SOL    HW193873   8.365   7.052   1.444 -0.6865  1.1652 -0.2922
30156SOL    HW293874   8.273   7.097   1.332 -0.8793 -0.7806 -0.9425
30157SOL     OW93875   1.442   7.444   5.436 -0.0130  0.2454  0.0559
30157SOL    HW193876   1.399   7.529   5.447  0.5771  0.4503  0.7778
30157SOL    HW293877   1.532   7.458   5.466 -0.1087 -0.8262  0.8798
30158SOL     OW93878   0.477   9.727   8.212 -0.3798  0.2366 -0.0060
30158SOL    HW193879   0.503   9.644   8.252 -1.7603 -0.3753 -0.3450
30158SOL    HW293880   0.382   9.723   8.208 -0.3483  0.8155 -2.1928
30159SOL     OW93881   6.955   5.633   0.271  0.2739  0.4151 -0.2373
30159SOL    HW193882   6.925   5.724   0.262  0.5866  0.6385  0.9369
30159SOL    HW293883   7.000   5.631   0.355 -0.6523 -1.0950  0.2306
30160SOL     OW93884   7.262   6.159   1.908  0.3739  0.5962 -0.7960
30160SOL    HW193885   7.203   6.085   1.918  1.5886 -0.3273 -0.3081
30160SOL    HW293886   7.207   6.236   1.924 -0.5850 -0.2645  0.1406
30161SOL     OW93887   6.454   1.100   0.557  0.7601 -0.1359  0.4414
30161SOL    HW193888   6.513   1.083   0.484  0.1441  0.2845 -0.1542
30161SOL    HW293889   6.437   1.194   0.553  0.8474 -0.0837  1.2191
30162SOL     OW93890   8.580  10.538   6.235 -0.0367 -0.7935 -0.1624
30162SOL    HW193891   8.560  10.591   6.157  0.7506 -1.1940 -0.6399
30162SOL    HW293892   8.577  10.601   6.307 -1.6105 -0.5777 -0.3981
30163SOL     OW93893   2.940   7.600   7.092  0.1158  0.4814  0.0944
30163SOL    HW193894   2.878   7.672   7.079 -0.7420 -0.0882  0.9263
30163SOL    HW293895   2.948   7.593   7.187 -0.1192 -0.7787  0.0306
30164SOL     OW93896   4.302   9.460   4.961  0.4478 -0.3940 -0.9464
30164SOL    HW193897   4.280   9.508   4.881  0.7679 -0.5107 -1.1056
30164SOL    HW293898   4.383   9.414   4.940  0.7773 -0.0634 -0.4087
30165SOL     OW93899   8.327   9.993   5.884 -0.2106  0.3799  0.2615
30165SOL    HW193900   8.354   9.966   5.797  0.3163  2.1927 -0.1617
30165SOL    HW293901   8.410  10.003   5.933 -0.4821 -0.2942  0.8714
30166SOL     OW93902   5.191   9.191   4.547  0.2413 -0.4177 -0.0821
30166SOL    HW193903   5.286   9.201   4.540 -0.0882  1.9157 -1.6678
30166SOL    HW293904   5.176   9.175   4.640  2.2027 -1.0361  0.1500
30167SOL     OW93905   6.351   0.992  10.481 -0.5978 -0.1853 -0.4527
30167SOL    HW193906   6.317   1.047  10.411 -1.8478 -2.9656 -2.1173
30167SOL    HW293907   6.322   1.035  10.562 -1.2236  1.7723 -1.6966
30168SOL     OW93908   7.441   3.000   3.418  0.0504  0.4236  0.0056
30168SOL    HW193909   7.495   2.962   3.488 -0.7465  0.1994  0.5057
30168SOL    HW293910   7.375   3.052   3.464 -1.7211 -1.3177 -0.4537
30169SOL     OW93911   8.747   2.839   2.389  0.0601  0.0666  0.6959
30169SOL    HW193912   8.831   2.884   2.400 -0.3597  0.7302  1.2568
30169SOL    HW293913   8.761   2.753   2.429  0.2360  0.4741  1.5413
30170SOL     OW93914   4.439  10.190   8.396 -0.2048 -0.1285 -0.3155
30170SOL    HW193915   4.513  10.210   8.339 -0.1842 -1.8708 -0.9390
30170SOL    HW293916   4.462  10.107   8.437 -0.7345  0.5436  1.3956
30171SOL     OW93917   4.196   1.944   3.705  0.0884  0.1711 -0.1518
30171SOL    HW193918   4.184   1.849   3.702 -1.9547  0.3781  0.7315
30171SOL    HW293919   4.216   1.962   3.797 -0.0665  0.6450 -0.2110
30172SOL     OW93920   3.327   1.705   6.856 -0.4495 -0.1237 -0.5091
30172SOL    HW193921   3.297   1.679   6.769 -1.4869 -2.0100  0.3886
30172SOL    HW293922   3.414   1.666   6.863 -0.8086 -0.8927 -0.2902
30173SOL     OW93923   3.582   1.663   3.651  0.0503  0.1257 -0.6824
30173SOL    HW193924   3.555   1.644   3.741  1.1754  2.7049  0.2548
30173SOL    HW293925   3.584   1.577   3.608  0.5497 -1.2912  2.0423
30174SOL     OW93926   2.886   5.250   2.941  0.3942 -0.3614  0.2145
30174SOL    HW193927   2.881   5.240   2.846  0.6358  1.4193  0.0014
30174SOL    HW293928   2.797   5.271   2.968  0.1311 -1.7913  0.5164
30175SOL     OW93929   8.582   2.877   1.281  0.3043  0.0187 -0.9844
30175SOL    HW193930   8.515   2.893   1.348 -2.4204  1.1734 -3.8712
30175SOL    HW293931   8.609   2.964   1.253  1.9630 -0.4553 -0.9280
30176SOL     OW93932   9.290   4.690   2.625  0.2006 -0.2569  0.3912
30176SOL    HW193933   9.251   4.621   2.573 -0.5249  1.0498 -0.8279
30176SOL    HW293934   9.257   4.675   2.714 -0.8711 -0.7720 -0.0973
30177SOL     OW93935   4.745   2.356   7.150  0.3039 -0.4187  0.0760
30177SOL    HW193936   4.701   2.433   7.114  0.7628 -0.5552 -0.7859
30177SOL    HW293937   4.689   2.282   7.126 -0.0181 -0.3773  0.7043
30178SOL     OW93938   9.379   3.005   5.714 -0.3570  0.4160 -0.5219
30178SOL    HW193939   9.343   2.949   5.645  1.4387  0.2889 -1.3559
30178SOL    HW293940   9.393   2.945   5.788  1.0765 -0.1428 -1.2404
30179SOL     OW93941   8.405   6.760   6.406 -0.1203 -0.0581 -0.2850
30179SOL    HW193942   8.331   6.807   6.445  0.7802  1.8087 -0.7502
30179SOL    HW293943   8.482   6.808   6.437  0.9635 -2.4386  0.8070
30180SOL     OW93944  10.225   4.690   0.890  0.0352  0.2009  0.2352
30180SOL    HW193945  10.278   4.643   0.954  0.1083 -1.4942 -1.0436
30180SOL    HW293946  10.281   4.698   0.812 -1.3765 -1.1882 -0.9654
30181SOL     OW93947   9.580   2.895   7.321 -0.2424  0.0210  0.3219
30181SOL    HW193948   9.540   2.982   7.321  0.8406  0.5263 -0.6666
30181SOL    HW293949   9.659   2.905   7.267  1.1289 -0.9995  2.1021
30182SOL     OW93950   8.728   3.959   5.510  0.1597  0.1762  0.1987
30182SOL    HW193951   8.731   3.897   5.583 -1.4915 -0.4764 -0.2853
30182SOL    HW293952   8.636   3.966   5.488  0.4958  1.6038 -0.7955
30183SOL     OW93953   4.925   3.393   9.434 -0.5728  0.6613 -0.2250
30183SOL    HW193954   4.834   3.419   9.420 -0.9953 -1.4268 -1.6678
30183SOL    HW293955   4.931   3.376   9.528 -1.5056  1.4623 -0.0158
30184SOL     OW93956   2.643   1.447  10.520  0.2512  0.6523 -0.4860
30184SOL    HW193957   2.691   1.386  10.577 -0.1548  0.9196  0.1548
30184SOL    HW293958   2.633   1.400  10.438 -1.8209 -0.9551  0.6486
30185SOL     OW93959   4.668   5.631   7.197 -0.2906 -0.3527  0.3250
30185SOL    HW193960   4.681   5.724   7.217 -1.1002 -0.6678  2.3082
30185SOL    HW293961   4.625   5.631   7.111 -1.5963  1.1354  0.9759
30186SOL     OW93962   5.739   8.308   2.472 -0.1480 -0.6997  0.0343
30186SOL    HW193963   5.651   8.297   2.506 -0.1658  0.0338  0.2387
30186SOL    HW293964   5.791   8.337   2.547  0.5304 -2.2947  0.1968
30187SOL     OW93965  10.407   9.008   8.580 -0.0660  0.4273 -0.8090
30187SOL    HW193966  10.365   8.924   8.595  1.1063  0.1300  0.8908
30187SOL    HW293967  10.336   9.066   8.551 -1.4728 -0.2786  1.1799
30188SOL     OW93968   9.420   7.674  10.114  0.1760  0.0022 -0.5727
30188SOL    HW193969   9.342   7.657  10.167  0.2249 -1.6773 -1.0103
30188SOL    HW293970   9.474   7.730  10.169 -0.4425 -0.4869  0.5608
30189SOL     OW93971   1.078   3.596   7.288 -0.0662  0.2403 -0.1812
30189SOL    HW193972   1.051   3.686   7.306 -1.2570  0.0791 -1.0723
30189SOL    HW293973   1.127   3.569   7.366  0.8056  1.8469 -0.1497
30190SOL     OW93974   2.269   1.893   3.720  0.0297 -0.4312 -0.4645
30190SOL    HW193975   2.286   1.931   3.806  1.0970 -2.2968  0.1700
30190SOL    HW293976   2.178   1.915   3.702  0.2212  1.2269  0.4874
30191SOL     OW93977   4.254   9.187   2.337 -0.1475  0.8963 -0.4442
30191SOL    HW193978   4.314   9.119   2.367 -1.4453 -0.2133 -0.3096
30191SOL    HW293979   4.258   9.184   2.242 -1.7992 -0.8577 -0.4877
30192SOL     OW93980   3.529   5.554   6.636 -0.0810  0.0991 -0.1774
30192SOL    HW193981   3.567   5.641   6.644 -0.1858  0.2733 -1.5316
30192SOL    HW293982   3.565   5.519   6.555 -0.2879 -0.9987  0.1958
30193SOL     OW93983   2.860   1.662   6.605  0.6795  0.6475 -0.0489
30193SOL    HW193984   2.887   1.737   6.658 -0.6383  0.6835  0.5937
30193SOL    HW293985   2.790   1.695   6.550 -2.0759 -0.8161  2.4266
30194SOL     OW93986   7.196   8.525   4.645  0.4527 -0.2495  0.0967
30194SOL    HW193987   7.203   8.499   4.737 -0.1884  0.3293  0.3079
30194SOL    HW293988   7.184   8.620   4.647 -0.5159 -0.3480 -0.5349
30195SOL     OW93989   8.288   2.081   7.560  0.0923  0.0331 -0.7150
30195SOL    HW193990   8.336   2.016   7.612 -0.7477 -0.5572 -0.6829
30195SOL    HW293991   8.218   2.110   7.618  1.2088  1.9147 -0.2474
30196SOL     OW93992   3.492   6.481   6.528 -0.1159  0.6424  0.0102
30196SOL    HW193993   3.522   6.572   6.533  0.5584  0.4668 -0.7897
30196SOL    HW293994   3.418   6.483   6.467 -1.1661  0.9219  1.2706
30197SOL     OW93995   8.606   6.152   3.421  0.3406  0.4567 -0.4475
30197SOL    HW193996   8.570   6.151   3.332  3.3545 -3.1618 -1.7535
30197SOL    HW293997   8.670   6.223   3.420 -0.4875  1.2173 -0.7554
30198SOL     OW93998   7.907   2.721   5.392 -0.0684  0.2262 -0.0620
30198SOL    HW193999   7.973   2.670   5.439  0.8991  1.5307  0.0234
30198SOL    HW294000   7.856   2.656   5.345  0.9320 -0.8538  0.3126
30199SOL     OW94001   6.736   2.946   1.432  0.3959  1.1101  0.9750
30199SOL    HW194002   6.701   3.014   1.489 -0.7678  2.2065 -0.9534
30199SOL    HW294003   6.809   2.988   1.386  0.8257  0.4907  1.0816
30200SOL     OW94004   8.311   5.702   7.377  0.1046 -0.3526  0.2778
30200SOL    HW194005   8.320   5.693   7.282 -1.5135 -2.5764  0.2949
30200SOL    HW294006   8.218   5.723   7.390  0.4282  0.4694  1.3541
30201SOL     OW94007   9.466   0.508   5.054 -0.3301 -0.8972 -0.1174
30201SOL    HW194008   9.397   0.449   5.023  1.0325 -0.8071 -3.4910
30201SOL    HW294009   9.418   0.581   5.095 -2.2596 -1.1047 -1.9064
30202SOL     OW94010   0.955   6.099   9.574 -0.5416 -0.0259 -0.2799
30202SOL    HW194011   0.881   6.076   9.631 -0.2563  2.0195  0.9557
30202SOL    HW294012   1.006   6.018   9.569  0.6641  0.2891  4.3111
30203SOL     OW94013   7.890   8.489   1.928  0.4820  0.0501 -0.4331
30203SOL    HW194014   7.833   8.449   1.863  1.2876  0.1985 -1.2359
30203SOL    HW294015   7.838   8.489   2.009 -0.6718  0.2683 -1.1724
30204SOL     OW94016   2.435   7.282  10.161  0.1186 -0.0229  0.0170
30204SOL    HW194017   2.466   7.260  10.073  1.7534  2.9772 -0.2073
30204SOL    HW294018   2.343   7.304  10.149 -0.1532 -1.4101 -0.6081
30205SOL     OW94019  10.015   7.610   6.020 -0.1598  0.4000 -0.3373
30205SOL    HW194020  10.022   7.705   6.020  0.1567  0.3752 -0.1324
30205SOL    HW294021   9.921   7.593   6.017 -0.1804  0.7153 -1.9187
30206SOL     OW94022   5.966   3.938   1.411 -0.1007 -0.0929  0.7817
30206SOL    HW194023   6.007   3.887   1.481  0.2723 -0.5580  0.2322
30206SOL    HW294024   6.014   3.913   1.332 -2.1587 -1.5069 -0.0658
30207SOL     OW94025   3.637   0.817   6.977 -0.1505  0.0295 -0.4325
30207SOL    HW194026   3.552   0.826   6.933  0.5813 -0.3879 -1.9424
30207SOL    HW294027   3.624   0.745   7.039 -0.9740  0.1406 -0.4706
30208SOL     OW94028   7.752   3.154  10.659 -0.4289 -0.3306 -0.3449
30208SOL    HW194029   7.799   3.071  10.657 -2.3965 -1.4868 -0.1804
30208SOL    HW294030   7.768   3.193  10.573 -0.4772 -1.4635 -0.8820
30209SOL     OW94031   9.951   0.389   3.131  0.1464 -0.3250  0.3632
30209SOL    HW194032   9.931   0.447   3.205  1.0150  0.4585 -0.0127
30209SOL    HW294033   9.886   0.319   3.139 -0.3689  0.2335  1.3288
30210SOL     OW94034   2.440   8.145   7.626  0.1540  0.2765  0.0184
30210SOL    HW194035   2.423   8.161   7.533  1.1653 -1.9498 -0.5987
30210SOL    HW294036   2.473   8.055   7.628  1.0673  0.6512  2.4261
30211SOL     OW94037   6.592   0.196  10.178 -0.2703 -0.5615  0.5188
30211SOL    HW194038   6.651   0.251  10.228 -0.4657 -1.4342  1.7467
30211SOL    HW294039   6.543   0.256  10.122  0.6879  0.3146  0.6232
30212SOL     OW94040   9.426   6.481   8.573  0.2394 -0.1858 -0.5207
30212SOL    HW194041   9.392   6.392   8.562  0.4528 -0.3357  0.0130
30212SOL    HW294042   9.386   6.531   8.501 -0.9248 -0.4108 -0.0440
30213SOL     OW94043   7.398   0.233   9.848 -0.2516 -0.0447  0.1900
30213SOL    HW194044   7.443   0.150   9.859 -0.2042  0.1215  1.3499
30213SOL    HW294045   7.367   0.255   9.936 -0.3476  1.1098 -0.1211
30214SOL     OW94046   4.857   4.791   1.350  0.2279 -0.3585 -0.3147
30214SOL    HW194047   4.865   4.765   1.442  1.0315 -0.9206 -0.5355
30214SOL    HW294048   4.832   4.884   1.353  1.6137  0.0027  0.4682
30215SOL     OW94049   8.172   7.544   3.951 -0.0769 -0.2892 -0.2608
30215SOL    HW194050   8.264   7.537   3.927 -0.0289 -0.8632  0.0828
30215SOL    HW294051   8.140   7.454   3.950 -0.5693 -0.1176 -0.1239
30216SOL     OW94052   3.760   6.202   9.343  0.2441  0.2025  0.1045
30216SOL    HW194053   3.790   6.112   9.352  0.0337  0.0251 -0.9044
30216SOL    HW294054   3.804   6.235   9.264  1.7978  1.6022  1.5095
30217SOL     OW94055  10.802   9.052   5.515 -0.0837 -0.4587 -0.2239
30217SOL    HW194056  10.710   9.077   5.508  0.4301  1.1177 -1.6606
30217SOL    HW294057  10.800   8.961   5.543 -2.0535  0.1402  1.7597
30218SOL     OW94058  10.929   7.450   5.452  0.0124 -0.4006 -0.4571
30218SOL    HW194059  10.887   7.400   5.382  0.8969 -0.7883 -0.7257
30218SOL    HW294060  10.862   7.458   5.520 -0.0589 -2.1930 -0.3048
30219SOL     OW94061   6.459   7.403   1.652 -0.1612  0.7441 -0.4548
30219SOL    HW194062   6.406   7.394   1.573 -0.3613  0.4670 -0.2892
30219SOL    HW294063   6.437   7.326   1.704  4.0837 -2.0647 -2.5491
30220SOL     OW94064   9.343   8.025   1.734  0.0339 -0.1995  0.0906
30220SOL    HW194065   9.288   7.988   1.803  0.6648 -1.4413 -0.0582
30220SOL    HW294066   9.414   8.069   1.782  0.8614 -1.6610  0.2574
30221SOL     OW94067   5.349  10.729   1.865  0.1241 -0.1173  0.1075
30221SOL    HW194068   5.335  10.650   1.814  0.2429 -1.4255  2.0211
30221SOL    HW294069   5.298  10.716   1.945  0.7361  1.4055  0.7859
30222SOL     OW94070   4.712   2.488   9.149  0.4318 -0.2686  0.0539
30222SOL    HW194071   4.730   2.425   9.079  1.2405 -0.0921  0.0920
30222SOL    HW294072   4.676   2.435   9.220  0.8630 -0.6516 -0.0109
30223SOL     OW94073   7.177   3.943   0.117 -0.4751  0.0097 -0.2087
30223SOL    HW194074   7.224   4.022   0.142 -0.5701  0.2366 -0.7316
30223SOL    HW294075   7.151   3.958   0.026 -1.1422 -0.3063 -0.0768
30224SOL     OW94076   2.188   4.946   7.705  0.2439 -0.3048  0.3994
30224SOL    HW194077   2.188   5.007   7.631  0.3592 -0.1569  0.5208
30224SOL    HW294078   2.140   4.991   7.774 -1.4989 -1.1940 -0.2003
30225SOL     OW94079   6.794  10.803   3.119 -0.1215 -0.0012 -0.4230
30225SOL    HW194080   6.846  10.874   3.156 -1.5769  0.1156  1.4674
30225SOL    HW294081   6.840  10.723   3.146 -0.1987  0.1343  0.1137
30226SOL     OW94082   4.051  10.780   4.879  0.7967 -0.0515 -0.3928
30226SOL    HW194083   4.044  10.837   4.956 -1.1675  0.5042 -0.9571
30226SOL    HW294084   4.119  10.821   4.825  0.5990  0.8046 -0.0028
30227SOL     OW94085   4.501   6.769   2.902 -0.4168  0.5929 -0.1002
30227SOL    HW194086   4.511   6.770   2.806 -1.1344 -0.4251 -0.1968
30227SOL    HW294087   4.591   6.758   2.935 -0.2187  0.4520 -0.6751
30228SOL     OW94088   9.255   7.983   0.026  0.0062 -0.2728  1.1319
30228SOL    HW194089   9.340   8.004  -0.012 -2.2718  1.2485 -3.5504
30228SOL    HW294090   9.242   7.890   0.007 -0.6238  0.2131 -0.9422
30229SOL     OW94091   4.462   3.672   6.882  0.2030  0.0178 -0.6872
30229SOL    HW194092   4.530   3.608   6.901  1.3449  1.4729  0.2681
30229SOL    HW294093   4.474   3.741   6.948 -2.6738 -0.0443 -0.0151
30230SOL     OW94094   0.504   8.237   9.187  0.3888  0.3467 -0.3309
30230SOL    HW194095   0.454   8.157   9.170 -2.1018  1.2504  2.2207
30230SOL    HW294096   0.572   8.210   9.248  0.9431 -0.2562 -1.2167
30231SOL     OW94097   6.507   2.976  10.349 -0.7692 -0.1467 -0.3781
30231SOL    HW194098   6.567   3.041  10.312 -2.6166  1.0634 -1.2850
30231SOL    HW294099   6.546   2.891  10.325  0.8579  0.6073 -0.4794
30232SOL     OW94100   0.519  10.116   5.802 -0.6415  0.3152  0.4138
30232SOL    HW194101   0.475  10.068   5.872  0.8408  0.7155  1.6615
30232SOL    HW294102   0.461  10.108   5.727 -1.5769 -1.3500  1.2838
30233SOL     OW94103   3.027   6.280  10.144  0.0885 -0.3798 -0.1187
30233SOL    HW194104   3.077   6.360  10.128  1.9095 -1.5068 -0.1798
30233SOL    HW294105   3.085   6.226  10.198 -2.3219 -0.4333  2.5438
30234SOL     OW94106   0.783  10.450   4.028  0.0830 -0.3056  0.0201
30234SOL    HW194107   0.834  10.399   4.091  0.2697 -1.5876 -1.1399
30234SOL    HW294108   0.709  10.483   4.079 -0.7475 -2.8338  0.5380
30235SOL     OW94109   7.836   3.748   5.088 -0.0076 -0.1082  0.2399
30235SOL    HW194110   7.817   3.778   4.998  0.1357 -0.2158  0.1732
30235SOL    HW294111   7.817   3.824   5.142  1.6850  0.5652 -0.0720
30236SOL     OW94112   9.763  10.142   1.636  0.3520  0.0062  0.5965
30236SOL    HW194113   9.778  10.205   1.706 -0.5109 -1.2895  1.9815
30236SOL    HW294114   9.671  10.155   1.612  0.8746  1.0442 -0.9198
30237SOL     OW94115   3.193  10.954   4.875  0.4049 -0.3361 -0.1568
30237SOL    HW194116   3.150  10.871   4.856 -2.0516  0.9796 -0.5855
30237SOL    HW294117   3.181  11.006   4.796 -0.0473  1.2200  0.9165
30238SOL     OW94118   7.328   2.869   9.755  0.1204  0.4040  0.0586
30238SOL    HW194119   7.377   2.917   9.687 -0.4084  2.2035  0.9235
30238SOL    HW294120   7.246   2.844   9.712  0.6939 -0.3330 -0.6121
30239SOL     OW94121   7.354   9.325   1.862  0.3129  0.3654 -0.3557
30239SOL    HW194122   7.421   9.341   1.796  0.0200 -0.9334 -0.9588
30239SOL    HW294123   7.313   9.243   1.836 -2.1922  1.6390 -0.5536
30240SOL     OW94124   1.294   4.011   7.731  0.0870 -0.3269  0.2235
30240SOL    HW194125   1.386   3.994   7.753  0.1621 -1.1860 -0.7031
30240SOL    HW294126   1.299   4.061   7.650 -0.2230  1.4425  1.2709
30241SOL     OW94127  10.572  10.604   3.510  0.0698 -0.7778 -0.2202
30241SOL    HW194128  10.631  10.679   3.513  0.0822 -0.8446  2.5510
30241SOL    HW294129  10.625  10.533   3.474  1.2489 -0.4631  0.8753
30242SOL     OW94130   0.356   0.973   9.836 -0.0546 -0.0152  0.4257
30242SOL    HW194131   0.343   0.981   9.742 -2.1555 -1.8030  0.5265
30242SOL    HW294132   0.373   1.063   9.866  2.3749  0.3360 -1.8578
30243SOL     OW94133  10.687  10.717   5.901  0.1303  0.9260 -0.0360
30243SOL    HW194134  10.630  10.779   5.945  0.7636  0.5692  1.3342
30243SOL    HW294135  10.632  10.640   5.886  0.8154 -0.4012  3.5464
30244SOL     OW94136   6.675   9.724   4.266 -0.2804  0.3074  0.6492
30244SOL    HW194137   6.767   9.713   4.244 -0.0874  1.3291  0.9419
30244SOL    HW294138   6.635   9.640   4.243  0.6584 -0.0287  0.2260
30245SOL     OW94139   6.634   8.614   3.289 -0.3816  0.4638 -0.1095
30245SOL    HW194140   6.708   8.590   3.234 -1.1226  0.5945 -1.1609
30245SOL    HW294141   6.580   8.535   3.294 -0.2260  0.3914  0.5942
30246SOL     OW94142  10.450   5.953   8.233  0.3044 -0.1634  0.2617
30246SOL    HW194143  10.492   6.038   8.219  1.2548 -0.6240  0.3304
30246SOL    HW294144  10.397   5.940   8.155 -0.6518  0.9612  0.6969
30247SOL     OW94145   3.131   4.896   6.701  0.0086 -0.3177 -0.2900
30247SOL    HW194146   3.170   4.948   6.771 -1.6104  2.1604 -1.1567
30247SOL    HW294147   3.084   4.827   6.746  1.9665 -0.9072  0.9074
30248SOL     OW94148   6.414  10.611   8.212 -0.2344 -0.0715 -0.1664
30248SOL    HW194149   6.470  10.576   8.142  1.3296  1.9009  0.0491
30248SOL    HW294150   6.410  10.705   8.194 -2.4926  0.0088  0.5642
30249SOL     OW94151   9.989   2.222   9.680  0.2211 -0.4194  0.1750
30249SOL    HW194152  10.080   2.204   9.703  0.4944 -0.7410 -1.1017
30249SOL    HW294153   9.978   2.183   9.594 -0.4336  1.6735 -0.7378
30250SOL     OW94154   8.461   6.684   2.261 -0.1562 -0.0336 -0.4397
30250SOL    HW194155   8.454   6.653   2.171  0.1788  2.4351 -1.3592
30250SOL    HW294156   8.543   6.648   2.293 -0.9684 -2.1132 -0.5997
30251SOL     OW94157   3.766   0.209  10.627 -0.1796 -0.2988  0.2945
30251SOL    HW194158   3.721   0.230  10.709 -1.3838 -0.9073 -0.1982
30251SOL    HW294159   3.799   0.120  10.639  1.0376  0.1988  0.7076
30252SOL     OW94160   1.041   7.224   2.630 -0.5050 -0.5770  0.4748
30252SOL    HW194161   1.030   7.318   2.616 -3.3508 -1.0494 -0.7712
30252SOL    HW294162   0.956   7.187   2.610  0.6947 -3.4929  0.5646
30253SOL     OW94163   4.035   5.552   7.405  0.3743 -0.1003  0.7612
30253SOL    HW194164   4.022   5.457   7.405  0.5757 -0.1276  0.8159
30253SOL    HW294165   4.030   5.577   7.497  3.1917 -0.4409  1.0309
30254SOL     OW94166   9.447   1.884   3.730  0.2389 -0.0889 -0.2464
30254SOL    HW194167   9.486   1.942   3.665 -2.0643  2.2599  0.3639
30254SOL    HW294168   9.520   1.862   3.789  0.6861  4.4312  1.0653
30255SOL     OW94169   1.737   2.902   1.589  0.1646 -0.1240 -0.2750
30255SOL    HW194170   1.768   2.871   1.674  0.4743 -0.8574 -0.6522
30255SOL    HW294171   1.643   2.887   1.590  0.1581 -0.0674 -0.0415
30256SOL     OW94172   3.592   4.896   8.825 -0.0487  0.1863  0.0966
30256SOL    HW194173   3.500   4.870   8.829 -1.1915  3.7008 -1.1822
30256SOL    HW294174   3.618   4.909   8.916 -0.8157 -0.7986  0.4592
30257SOL     OW94175   1.227  10.148  10.634  0.1584  0.3692  0.2393
30257SOL    HW194176   1.203  10.155  10.726  0.7597  1.0612  0.3518
30257SOL    HW294177   1.290  10.219  10.621  0.1471  0.2104 -0.6798
30258SOL     OW94178   7.256   9.666   3.573  0.5342  0.1953 -0.4854
30258SOL    HW194179   7.187   9.602   3.557  0.6787  0.5040 -2.5464
30258SOL    HW294180   7.300   9.636   3.652  0.3766 -2.0677 -1.2221
30259SOL     OW94181   5.655   7.350   5.242 -0.6921 -0.6673  0.1957
30259SOL    HW194182   5.602   7.426   5.219  1.8579  1.1051 -0.1030
30259SOL    HW294183   5.714   7.338   5.167  0.3739 -1.5917  1.1525
30260SOL     OW94184   4.645   1.636   5.736 -0.1803 -0.1274 -0.1138
30260SOL    HW194185   4.634   1.717   5.786 -0.9573  0.1589 -0.7326
30260SOL    HW294186   4.563   1.588   5.749 -1.1344  0.7436 -2.5048
30261SOL     OW94187   0.142   9.220   3.810  0.7923 -0.2551  0.1098
30261SOL    HW194188   0.212   9.200   3.748  0.7987  0.0975  0.0036
30261SOL    HW294189   0.073   9.260   3.757  0.1280 -1.4360  0.0549
30262SOL     OW94190   8.283  10.268   3.724  0.6383  0.0056  0.3688
30262SOL    HW194191   8.234  10.350   3.715  0.2623 -0.2592 -0.0316
30262SOL    HW294192   8.221  10.209   3.767 -0.0216 -0.8584 -1.6802
30263SOL     OW94193   8.200   9.410   9.449  0.1497  0.2505  0.2272
30263SOL    HW194194   8.137   9.344   9.478  2.0284 -2.0152 -0.6481
30263SOL    HW294195   8.277   9.395   9.503  0.6927  1.5567 -0.1685
30264SOL     OW94196   4.589   3.799  10.583  0.0748 -0.2226 -0.0440
30264SOL    HW194197   4.618   3.861  10.516 -2.3005  3.2908  1.9754
30264SOL    HW294198   4.663   3.793  10.643  0.6757 -0.0602 -0.7569
30265SOL     OW94199   6.954   0.694   1.736 -0.4101  0.4101 -0.5212
30265SOL    HW194200   6.953   0.652   1.649  1.8838 -1.3439  0.2432
30265SOL    HW294201   6.891   0.644   1.787  2.4001 -2.3371  0.4187
30266SOL     OW94202   2.766   0.148   0.208 -0.0749 -0.1926  0.7109
30266SOL    HW194203   2.814   0.077   0.250 -1.3982 -1.8278 -0.4367
30266SOL    HW294204   2.810   0.161   0.124  0.0878  0.2678  0.8647
30267SOL     OW94205  10.020   8.419   8.538  0.5498 -0.2659  0.1270
30267SOL    HW194206  10.042   8.491   8.597 -1.5035 -0.6579  1.4281
30267SOL    HW294207  10.053   8.341   8.583 -0.1985 -0.4736  0.3160
30268SOL     OW94208  10.195   3.482   2.087  0.0577 -0.4313  0.1082
30268SOL    HW194209  10.148   3.480   2.004  0.1641  1.9059 -0.0528
30268SOL    HW294210  10.288   3.473   2.063  0.0695 -0.0232  0.0022
30269SOL     OW94211   0.218   2.737   9.899 -0.3255 -0.5877 -0.7229
30269SOL    HW194212   0.183   2.649   9.885  0.8270 -1.3783  1.2184
30269SOL    HW294213   0.312   2.725   9.911 -0.0067  1.0240 -1.4061
30270SOL     OW94214   5.063   1.678  10.140 -0.2629  0.8813  0.1270
30270SOL    HW194215   5.034   1.702  10.051 -0.4662 -0.2393 -0.1263
30270SOL    HW294216   5.070   1.761  10.186 -0.4370  1.4604 -0.8618
30271SOL     OW94217   7.938   9.328   0.255 -0.2070  0.1120 -0.2136
30271SOL    HW194218   7.846   9.324   0.229  0.2585  0.7098 -2.0793
30271SOL    HW294219   7.986   9.313   0.173  1.3617 -1.2672  0.9147
30272SOL     OW94220   7.954   7.364   2.569  0.0602 -0.1135  0.0198
30272SOL    HW194221   7.878   7.422   2.566  0.6778  0.6885 -0.2928
30272SOL    HW294222   7.921   7.280   2.535 -0.7562  0.1400  0.1753
30273SOL     OW94223  10.334   0.774   3.198 -0.3591 -0.1522 -0.0666
30273SOL    HW194224  10.351   0.709   3.267  0.6242 -0.1843 -0.3361
30273SOL    HW294225  10.247   0.751   3.165 -0.2279 -1.0246  0.1773
30274SOL     OW94226  10.272  10.705   1.873 -0.1676  0.1022 -0.5054
30274SOL    HW194227  10.297  10.680   1.784 -2.5004 -1.9387 -0.6628
30274SOL    HW294228  10.202  10.769   1.862  0.2598  0.6488 -0.1124
30275SOL     OW94229   7.785   4.412   5.041 -0.0559  0.6464  0.4407
30275SOL    HW194230   7.813   4.402   5.132  0.1815 -1.9867  0.1144
30275SOL    HW294231   7.792   4.506   5.024 -0.6235  1.2560  3.2904
30276SOL     OW94232   5.163   1.013   5.199  0.3750  0.6057  0.4922
30276SOL    HW194233   5.120   1.025   5.284 -0.5635  0.8105 -0.0017
30276SOL    HW294234   5.120   1.076   5.141  1.0227  0.4801 -0.1328
30277SOL     OW94235  10.410   9.590   3.982  0.3767  0.0832  0.2716
30277SOL    HW194236  10.462   9.580   4.062  0.2787  0.2620  0.3577
30277SOL    HW294237  10.452   9.661   3.934  0.1093  0.3436  0.4231
30278SOL     OW94238  10.083   4.798   6.149  0.0758  0.1277 -0.0170
30278SOL    HW194239  10.176   4.819   6.139  0.4490 -1.6126 -0.2489
30278SOL    HW294240  10.066   4.811   6.243  0.7924 -0.4476  0.2004
30279SOL     OW94241   6.549   5.056   4.862 -0.3841 -0.2879 -0.1190
30279SOL    HW194242   6.593   4.974   4.886 -1.7637 -0.9114  0.3138
30279SOL    HW294243   6.501   5.034   4.782 -4.0773 -1.0849  2.2202
30280SOL     OW94244   7.611   0.611   2.035 -0.0061 -0.2699  0.2390
30280SOL    HW194245   7.691   0.563   2.012 -0.7952 -3.2478  3.1559
30280SOL    HW294246   7.552   0.543   2.070 -2.7810  2.2591  0.6891
30281SOL     OW94247   6.330  10.869   0.222 -0.1445 -0.4161 -0.7464
30281SOL    HW194248   6.245  10.863   0.178 -0.0262 -1.3147 -0.8749
30281SOL    HW294249   6.325  10.806   0.293  0.0970  0.1766 -0.2040
30282SOL     OW94250  10.867   6.560  10.304  0.2761  0.0964 -0.7410
30282SOL    HW194251  10.870   6.518  10.218  1.8080 -0.6028 -0.3680
30282SOL    HW294252  10.881   6.488  10.366  2.4633  1.0430 -0.0813
30283SOL     OW94253   5.116   5.691   1.148  0.0591 -0.3609 -0.3039
30283SOL    HW194254   5.080   5.751   1.213  0.3731  0.1618 -0.6080
30283SOL    HW294255   5.094   5.730   1.064  2.6056  0.7562 -0.4966
30284SOL     OW94256   6.252   6.737   6.696 -0.0794 -0.2461  0.0994
30284SOL    HW194257   6.336   6.714   6.657 -1.2022 -0.0952 -2.4896
30284SOL    HW294258   6.216   6.654   6.728  0.0928 -0.6284 -0.7039
30285SOL     OW94259   6.206   0.337   1.620 -0.0061  0.3852 -0.6086
30285SOL    HW194260   6.292   0.324   1.661  0.2961  1.0396 -1.0286
30285SOL    HW294261   6.173   0.249   1.606  0.2891  0.1391  0.2151
30286SOL     OW94262  10.627   5.578   1.632  0.3060  0.0773 -0.0588
30286SOL    HW194263  10.572   5.542   1.701 -0.3630  0.8860 -0.1464
30286SOL    HW294264  10.716   5.574   1.666 -0.0618  0.8247  1.0049
30287SOL     OW94265   8.706   8.323   0.202  0.4107 -0.0297 -0.4060
30287SOL    HW194266   8.674   8.413   0.194  2.6906  0.7748 -0.9599
30287SOL    HW294267   8.716   8.309   0.296 -0.6666  0.0320 -0.2798
30288SOL     OW94268   1.821   0.973   0.772 -0.0100 -0.2657 -0.0457
30288SOL    HW194269   1.871   0.921   0.835  0.1092  1.3623  1.2533
30288SOL    HW294270   1.888   1.023   0.725 -0.1883 -0.5809 -0.6401
30289SOL     OW94271   1.933   9.729   8.701  0.0722  0.2070  0.3172
30289SOL    HW194272   1.997   9.689   8.760  2.0656  1.1205 -1.1685
30289SOL    HW294273   1.861   9.667   8.699  1.2596 -1.2611  1.3860
30290SOL     OW94274   3.725   2.915   4.026 -0.3635  1.0229 -0.1115
30290SOL    HW194275   3.639   2.892   3.991 -0.0595 -1.0068  0.4158
30290SOL    HW294276   3.717   2.900   4.120  0.7235  0.3003 -0.1248
30291SOL     OW94277   4.623   2.519   7.545 -0.3668 -0.1188 -0.5721
30291SOL    HW194278   4.710   2.536   7.510 -0.2958  0.9211  0.0798
30291SOL    HW294279   4.565   2.524   7.470 -0.0501  0.6989 -0.7635
30292SOL     OW94280   2.130   2.301   6.398 -0.1828  0.1384  0.2668
30292SOL    HW194281   2.133   2.365   6.326  2.5430  0.9495  1.0666
30292SOL    HW294282   2.156   2.218   6.357 -1.6654 -0.0623 -0.3135
30293SOL     OW94283   4.697   0.488   6.597  0.7180 -0.7485  0.2738
30293SOL    HW194284   4.632   0.421   6.620  0.2935 -0.9499 -1.4420
30293SOL    HW294285   4.781   0.443   6.608  0.4379 -1.5810 -0.8321
30294SOL     OW94286  10.183   5.067   4.392  0.2383 -0.2018 -0.0276
30294SOL    HW194287  10.144   5.099   4.473  1.1625  0.1596  0.2871
30294SOL    HW294288  10.203   5.146   4.342  1.2682 -0.3439  0.1524
30295SOL     OW94289   8.827   4.450   0.835 -0.1707 -0.4231 -0.4078
30295SOL    HW194290   8.905   4.506   0.832 -0.1174 -0.4875 -0.2140
30295SOL    HW294291   8.859   4.367   0.871 -0.6397  0.0436  1.1253
30296SOL     OW94292   0.713   8.233   2.283  0.3410  0.2037  0.0593
30296SOL    HW194293   0.684   8.292   2.213 -0.0317  1.0538  0.9182
30296SOL    HW294294   0.695   8.146   2.250 -0.8187  0.6348 -0.4820
30297SOL     OW94295   7.006   8.857   8.025 -0.6666 -0.3304  0.6153
30297SOL    HW194296   6.966   8.928   8.075  0.9544 -0.1635  1.6791
30297SOL    HW294297   7.045   8.900   7.949 -0.6785 -0.2368  0.6613
30298SOL     OW94298   6.448   9.348   4.355  0.6713  0.0804 -0.2689
30298SOL    HW194299   6.497   9.387   4.427 -1.2763 -1.4699  1.9978
30298SOL    HW294300   6.365   9.395   4.354 -0.3879 -1.7135  0.3155
30299SOL     OW94301   7.160   1.590   2.251  0.5664 -0.1658 -0.0690
30299SOL    HW194302   7.171   1.614   2.343  1.0058  1.7137 -0.5956
30299SOL    HW294303   7.081   1.636   2.223  0.3403 -0.8597 -0.5938
30300SOL     OW94304   9.542  10.342   0.397 -0.2498  0.0649 -0.0141
30300SOL    HW194305   9.491  10.272   0.436  1.9267 -1.1759  0.7116
30300SOL    HW294306   9.545  10.321   0.304 -0.5133 -0.2080  0.0371
30301SOL     OW94307   2.802   1.979   8.510 -0.5490  0.1758 -0.3495
30301SOL    HW194308   2.829   2.042   8.576  0.9666 -0.9099  0.0900
30301SOL    HW294309   2.784   1.899   8.559 -0.1518 -0.4153 -1.1599
30302SOL     OW94310   8.296   3.122   1.138  0.5810 -0.4879  0.1352
30302SOL    HW194311   8.319   3.181   1.210 -1.3139  1.1172 -0.5389
30302SOL    HW294312   8.343   3.157   1.062  0.0755 -0.3068 -0.0942
30303SOL     OW94313   5.246  10.620   5.376  0.3980  0.0513  0.1838
30303SOL    HW194314   5.165  10.629   5.326  0.2536  0.4765  0.4868
30303SOL    HW294315   5.310  10.674   5.329  0.3681  0.1336  0.2381
30304SOL     OW94316   2.176   2.666   2.375 -0.4430  0.3656  0.0403
30304SOL    HW194317   2.083   2.677   2.352 -0.3903 -1.0309 -0.9165
30304SOL    HW294318   2.206   2.595   2.318  1.6198  1.8512 -0.7945
30305SOL     OW94319   5.307   7.692   5.796 -0.2612  0.0113 -0.1959
30305SOL    HW194320   5.270   7.604   5.793 -0.0200 -0.1282  0.9749
30305SOL    HW294321   5.260   7.740   5.728 -0.8789 -0.8280 -0.3647
30306SOL     OW94322   9.807   0.065   7.889 -0.0305  0.5227 -0.6970
30306SOL    HW194323   9.726   0.104   7.919 -0.1966  0.4530 -1.0424
30306SOL    HW294324   9.832   0.116   7.812 -0.0485  0.1884 -0.9261
30307SOL     OW94325   8.513   1.193   3.316  0.7254  0.3334 -0.5359
30307SOL    HW194326   8.536   1.277   3.277 -1.3304  0.5180 -1.4467
30307SOL    HW294327   8.449   1.155   3.255 -1.9891  0.2622  2.2167
30308SOL     OW94328   8.047   1.767   2.349  0.2265 -0.0198 -0.5701
30308SOL    HW194329   7.999   1.783   2.430  0.6816  1.0874 -0.5045
30308SOL    HW294330   8.008   1.688   2.312 -0.1815 -0.3591  0.5786
30309SOL     OW94331  10.573   4.850   6.413 -0.4696 -0.2137  0.5698
30309SOL    HW194332  10.648   4.909   6.404 -0.5977  0.3137  2.6544
30309SOL    HW294333  10.529   4.853   6.327  0.6728  1.1414  0.0187
30310SOL     OW94334   6.450   4.504   4.156 -0.3712 -0.4236 -0.1677
30310SOL    HW194335   6.433   4.448   4.080 -1.0535  0.2269 -0.4996
30310SOL    HW294336   6.367   4.508   4.203 -0.0907 -0.4026  0.3356
30311SOL     OW94337   4.882   6.274  10.868  0.6354 -0.2376 -0.6133
30311SOL    HW194338   4.853   6.364  10.854 -1.2696 -0.5873  0.9133
30311SOL    HW294339   4.837   6.223  10.801 -0.3486 -0.4150  0.1702
30312SOL     OW94340   7.205   4.826   6.703  0.1129 -0.0225 -0.2276
30312SOL    HW194341   7.273   4.874   6.751 -0.0900 -1.1593  1.2675
30312SOL    HW294342   7.166   4.768   6.769 -0.8949 -0.8901 -1.5492
30313SOL     OW94343   0.079   9.251   4.585  0.5336  0.6109  0.1403
30313SOL    HW194344   0.082   9.346   4.575 -1.8700  0.6737 -0.3227
30313SOL    HW294345   0.082   9.217   4.495 -0.6865  0.3553  0.1836
30314SOL     OW94346   5.049   3.865   6.026 -0.2215 -0.5964  0.0431
30314SOL    HW194347   5.055   3.894   6.117  2.6433 -1.1757  0.0699
30314SOL    HW294348   5.036   3.770   6.031 -0.8468 -0.5306 -0.1735
30315SOL     OW94349  10.284   9.944   4.887  0.3123  0.1100  0.2054
30315SOL    HW194350  10.215   9.879   4.874  0.1276  0.2377  0.5426
30315SOL    HW294351  10.243  10.028   4.865  0.6930  0.0595 -0.7138
30316SOL     OW94352   8.381   9.784   4.425  0.1438 -0.3912 -0.4088
30316SOL    HW194353   8.461   9.734   4.438  0.1307 -0.0788  0.9043
30316SOL    HW294354   8.310   9.720   4.437  0.1644 -0.3655 -0.1429
30317SOL     OW94355   3.625   3.621   8.672  0.2362  0.2218 -0.5401
30317SOL    HW194356   3.665   3.535   8.662  0.5610  0.4548 -1.2892
30317SOL    HW294357   3.678   3.665   8.738  1.0550  0.4266 -1.3262
30318SOL     OW94358   9.114  10.556   8.563  0.1087 -0.1437  0.3942
30318SOL    HW194359   9.040  10.508   8.600 -0.8743 -0.2328 -1.6230
30318SOL    HW294360   9.120  10.635   8.617 -1.7169  0.0517  0.3359
30319SOL     OW94361   0.927   2.406   5.819 -0.2857 -0.2728 -0.2051
30319SOL    HW194362   0.864   2.356   5.765  0.1229 -2.0100  0.8783
30319SOL    HW294363   0.977   2.338   5.865  0.8956  1.1539  0.6270
30320SOL     OW94364   1.452   3.058   9.903  0.2677  0.2940 -0.1981
30320SOL    HW194365   1.515   3.051   9.832 -0.5295 -0.0716 -0.8813
30320SOL    HW294366   1.500   3.100   9.974  1.7510 -1.4311 -0.1436
30321SOL     OW94367   5.011   3.821   0.248 -0.4486 -0.6932 -0.3362
30321SOL    HW194368   5.065   3.778   0.315 -0.3461 -1.1384 -0.6975
30321SOL    HW294369   4.921   3.806   0.276 -0.4304 -1.6356 -0.7458
30322SOL     OW94370   5.340   6.863   6.416  0.3081 -0.2622 -0.0853
30322SOL    HW194371   5.285   6.942   6.411 -0.1078 -0.5528 -0.0833
30322SOL    HW294372   5.404   6.874   6.346 -0.3594 -0.3871 -0.7224
30323SOL     OW94373   1.177   7.691   1.083 -0.4573  0.3313  0.1923
30323SOL    HW194374   1.181   7.626   1.013  1.3818 -0.9230  1.4174
30323SOL    HW294375   1.126   7.648   1.152 -0.0831  0.5788  0.6199
30324SOL     OW94376   1.871   6.950   5.949  0.7530  0.0861 -0.3055
30324SOL    HW194377   1.804   7.001   5.903  0.2225  2.1326  2.6226
30324SOL    HW294378   1.942   7.011   5.964  1.6858 -1.0627  0.0326
30325SOL     OW94379   0.365   9.050   8.064 -0.2282 -0.2361  0.1611
30325SOL    HW194380   0.409   9.064   7.980  0.3895 -0.0169  0.5192
30325SOL    HW294381   0.322   9.134   8.082  0.1162 -0.0976  0.3429
30326SOL     OW94382  10.659   6.978   0.531 -0.2547  0.9416 -0.4642
30326SOL    HW194383  10.602   6.914   0.573 -0.8168  1.1552 -0.8968
30326SOL    HW294384  10.671   7.047   0.596 -0.8467  1.1081 -0.5310
30327SOL     OW94385  10.073   5.806   7.760  0.2126 -0.6994 -0.7647
30327SOL    HW194386  10.015   5.855   7.817  0.7070 -0.5110 -0.4200
30327SOL    HW294387  10.033   5.720   7.752 -0.1273 -0.5609 -0.5610
30328SOL     OW94388   5.604   5.878   3.671  0.1842 -1.0339  0.5482
30328SOL    HW194389   5.644   5.964   3.662  0.7666 -1.3601 -0.0636
30328SOL    HW294390   5.553   5.867   3.590  0.0193 -1.2128  0.6754
30329SOL     OW94391   6.184   4.023   2.951 -0.1635 -0.1896 -0.0868
30329SOL    HW194392   6.136   4.068   3.022  4.3245  3.5363  0.8201
30329SOL    HW294393   6.243   3.963   2.997 -1.5023 -2.2866 -1.0398
30330SOL     OW94394   1.072   5.298  10.695  0.5735 -0.2754  0.3130
30330SOL    HW194395   1.075   5.278  10.602  0.7272 -0.8033  0.4286
30330SOL    HW294396   1.150   5.352  10.710  0.2168  0.3247  0.0196
30331SOL     OW94397   5.448   5.999   7.448 -0.2599 -0.4220  0.0628
30331SOL    HW194398   5.368   6.001   7.502  0.3447  1.5598  0.9748
30331SOL    HW294399   5.423   6.043   7.367  0.0267  0.7380  0.5834
30332SOL     OW94400   8.021   0.256   0.845 -0.0477 -0.1723  0.6276
30332SOL    HW194401   7.995   0.195   0.776  0.3042 -0.5782  0.8465
30332SOL    HW294402   8.105   0.221   0.877  0.1686  0.4447  0.7323
30333SOL     OW94403   8.661   5.992   5.702  0.1256 -0.0238 -0.0798
30333SOL    HW194404   8.680   6.042   5.781  0.9221  0.3911 -0.5203
30333SOL    HW294405   8.568   6.008   5.685 -0.1205 -0.3399  0.9128
30334SOL     OW94406   3.051   0.016   1.001 -0.2475  0.3251  0.3854
30334SOL    HW194407   3.067  -0.016   1.091  0.1691 -0.9601 -0.1261
30334SOL    HW294408   2.959   0.040   1.001 -0.5519 -0.7757  0.8527
30335SOL     OW94409   3.097   8.341   7.228 -0.0175  0.7232  0.3993
30335SOL    HW194410   3.150   8.367   7.304  1.8205  3.8731 -1.8569
30335SOL    HW294411   3.008   8.332   7.263  1.0630  0.4335  3.2398
30336SOL     OW94412   6.767   4.982   3.812  0.2240  0.3807 -0.2783
30336SOL    HW194413   6.791   4.917   3.745  2.0228  2.0601 -1.3132
30336SOL    HW294414   6.681   5.013   3.786 -0.6667 -1.5712  0.2311
30337SOL     OW94415   1.115   2.420   8.668  0.0344 -0.2175  0.0559
30337SOL    HW194416   1.065   2.444   8.746 -0.1624  0.6537 -0.3379
30337SOL    HW294417   1.174   2.494   8.653 -0.3547 -0.1042 -0.9752
30338SOL     OW94418   0.281   2.392   8.116  0.1488 -0.0575  0.1463
30338SOL    HW194419   0.202   2.383   8.169 -0.3803  1.1676 -0.4389
30338SOL    HW294420   0.270   2.474   8.069  1.0404 -0.6801 -1.1812
30339SOL     OW94421   1.149   1.344   0.797 -0.1731 -0.4868 -0.5162
30339SOL    HW194422   1.166   1.426   0.750 -1.0432 -0.6200 -1.0776
30339SOL    HW294423   1.203   1.279   0.752 -1.1788 -0.6617 -1.4985
30340SOL     OW94424   9.457   4.354   8.304 -0.1003 -0.1063  0.3398
30340SOL    HW194425   9.432   4.285   8.366  0.1985  0.3514  0.9816
30340SOL    HW294426   9.381   4.363   8.247  0.0747 -1.3561 -0.1048
30341SOL     OW94427   5.533   8.409   1.646 -0.3626 -0.1919  0.3409
30341SOL    HW194428   5.519   8.423   1.740  0.0480  0.7047  0.2647
30341SOL    HW294429   5.523   8.495   1.607 -0.1079 -0.4956 -0.3979
30342SOL     OW94430   4.640   4.702   4.395  0.1285  0.1593  0.5749
30342SOL    HW194431   4.713   4.720   4.335 -0.1383 -1.1096 -0.1371
30342SOL    HW294432   4.635   4.607   4.398 -1.3261  0.2406  0.8512
30343SOL     OW94433   6.582   7.967   5.726 -0.7089  0.4328  0.4731
30343SOL    HW194434   6.508   8.026   5.719  0.4798  1.8825 -0.2321
30343SOL    HW294435   6.644   7.998   5.659 -0.7298 -2.5938 -1.0266
30344SOL     OW94436   1.678   8.422   4.327 -0.1414  0.9766 -0.5815
30344SOL    HW194437   1.712   8.340   4.290  0.9093  1.5441 -0.8857
30344SOL    HW294438   1.590   8.430   4.290 -0.4405 -0.2470 -0.1829
30345SOL     OW94439  10.277   7.321   9.848 -0.1626 -0.1375  0.1341
30345SOL    HW194440  10.262   7.396   9.791 -0.7668 -0.7635 -0.5403
30345SOL    HW294441  10.250   7.350   9.934 -0.0020  0.5529 -0.0455
30346SOL     OW94442   6.804   7.296   7.238  0.2360 -0.2575  0.0882
30346SOL    HW194443   6.813   7.344   7.319  1.7179  0.2640 -0.3757
30346SOL    HW294444   6.863   7.221   7.247  0.9118  0.1570 -0.7470
30347SOL     OW94445   2.293   3.467   9.338  0.0475 -0.0243  0.5552
30347SOL    HW194446   2.338   3.399   9.388  1.8107  0.9345  0.3078
30347SOL    HW294447   2.279   3.537   9.401 -0.7799 -0.1645  0.5334
30348SOL     OW94448   8.464   6.091   1.876 -0.2948  0.7548  0.1526
30348SOL    HW194449   8.475   6.109   1.783  1.1404  0.6392  0.2851
30348SOL    HW294450   8.519   6.014   1.892 -1.5365 -0.0046  0.8393
30349SOL     OW94451   2.921   8.100  10.893 -0.0219  0.0655 -0.1413
30349SOL    HW194452   2.913   8.116  10.987 -3.6439  1.0577 -0.5357
30349SOL    HW294453   2.991   8.160  10.865  1.8422 -1.0044  2.0385
30350SOL     OW94454   6.467   7.030   6.661 -0.2340 -0.2162  0.7036
30350SOL    HW194455   6.470   7.125   6.669 -3.7733  0.1102 -0.9737
30350SOL    HW294456   6.452   6.999   6.750  1.2653  0.7272  1.3101
30351SOL     OW94457   2.856   9.232   7.056  0.3159 -0.0076  0.1824
30351SOL    HW194458   2.877   9.158   7.113 -0.7976  0.0235  0.6698
30351SOL    HW294459   2.824   9.192   6.975 -2.2962 -0.1323  1.2008
30352SOL     OW94460   4.467   7.942  10.345  0.1846 -0.0623  0.2934
30352SOL    HW194461   4.498   7.871  10.401 -1.3799 -0.6614  0.4322
30352SOL    HW294462   4.390   7.905  10.301  0.1125  1.1260 -0.5910
30353SOL     OW94463   8.152   6.859   7.535 -0.0503  0.0596 -0.6771
30353SOL    HW194464   8.084   6.893   7.478 -0.5365  0.4658  0.1357
30353SOL    HW294465   8.107   6.837   7.617  0.7767  0.2627 -0.1572
30354SOL     OW94466   1.027   1.314   7.873  0.5649 -0.3669  0.1228
30354SOL    HW194467   1.065   1.240   7.826  0.5379 -0.1078 -0.3094
30354SOL    HW294468   0.955   1.343   7.817  0.9191  0.3303  0.0181
30355SOL     OW94469   4.730   7.756   0.325  0.0021 -0.0149  0.0313
30355SOL    HW194470   4.762   7.770   0.236  0.8697  1.2096  0.5255
30355SOL    HW294471   4.735   7.661   0.338  1.7136 -0.0024 -0.5273
30356SOL     OW94472   9.057   1.698   2.279  0.2249  0.2671 -0.0021
30356SOL    HW194473   9.066   1.603   2.287  0.1954  0.3495  1.0670
30356SOL    HW294474   9.069   1.731   2.368  0.7378  1.3129 -0.4477
30357SOL     OW94475   1.281  10.867  10.977 -0.1066 -0.1380  0.3375
30357SOL    HW194476   1.206  10.884  10.921 -0.0607 -0.7717  0.0802
30357SOL    HW294477   1.337  10.944  10.967 -1.5094  1.1020  1.8459
30358SOL     OW94478   1.373   4.480   1.461 -0.3488 -0.1431 -0.4300
30358SOL    HW194479   1.411   4.555   1.415  1.3337 -2.1412 -2.3777
30358SOL    HW294480   1.339   4.424   1.392 -2.9290 -0.5204  1.0913
30359SOL     OW94481   8.453   4.535   2.189 -0.1210 -0.2588 -0.6948
30359SOL    HW194482   8.467   4.464   2.251  0.6100 -0.8350 -1.5029
30359SOL    HW294483   8.452   4.492   2.103  1.5444  0.8211 -1.2959
30360SOL     OW94484   8.901   4.804  10.423  0.1067 -0.2153  0.7469
30360SOL    HW194485   8.978   4.778  10.372  1.0310 -0.0283  2.0282
30360SOL    HW294486   8.835   4.739  10.401  0.3076  0.1801 -1.1256
30361SOL     OW94487   2.811   0.726   9.338  0.1640 -0.0688 -0.0667
30361SOL    HW194488   2.866   0.707   9.414 -1.2327 -0.4057  0.8971
30361SOL    HW294489   2.864   0.702   9.263  0.6193 -2.2812  0.9105
30362SOL     OW94490   7.949   2.951   9.125 -0.7813  0.5366  0.2680
30362SOL    HW194491   7.971   2.975   9.215  2.7890 -1.1673 -0.0425
30362SOL    HW294492   7.879   3.011   9.100 -0.3943  2.4176  3.4805
30363SOL     OW94493   7.492   8.918   2.804 -0.6144 -0.4809 -0.4885
30363SOL    HW194494   7.432   8.953   2.738  2.2509  1.5835 -2.1137
30363SOL    HW294495   7.494   8.984   2.873  0.0844 -0.3456 -0.6352
30364SOL     OW94496   9.481   5.349   9.632 -0.0495 -0.1478  0.0503
30364SOL    HW194497   9.522   5.334   9.547 -0.2038 -1.0876  0.1364
30364SOL    HW294498   9.412   5.283   9.637 -1.5196  1.3491 -0.0495
30365SOL     OW94499  10.519   3.565   3.061 -0.0233 -0.0177 -0.6158
30365SOL    HW194500  10.504   3.501   2.991 -1.8079 -0.2608 -0.0273
30365SOL    HW294501  10.458   3.636   3.042 -1.1689 -0.4882  1.1726
30366SOL     OW94502   9.117   3.916   3.198 -0.7165 -0.1674 -0.1763
30366SOL    HW194503   9.190   3.905   3.259  0.3748  1.8641 -1.0949
30366SOL    HW294504   9.047   3.954   3.251 -1.0822 -1.9377  0.6597
30367SOL     OW94505   6.670   1.283   3.683 -0.3520  0.4676  0.2586
30367SOL    HW194506   6.662   1.208   3.625  0.5867 -0.3802  1.1971
30367SOL    HW294507   6.727   1.344   3.636 -1.5538  0.8401 -0.7371
30368SOL     OW94508   5.769  10.180   6.059  0.7248  0.0587  0.7227
30368SOL    HW194509   5.781  10.165   5.965  0.8798 -0.9529  0.9070
30368SOL    HW294510   5.715  10.260   6.063 -2.3504 -1.8777 -0.2986
30369SOL     OW94511   0.640   1.232   4.580  0.3132  0.0224 -0.1490
30369SOL    HW194512   0.621   1.229   4.487 -0.0302  1.1213 -0.1198
30369SOL    HW294513   0.685   1.316   4.593 -2.1633  1.2043  1.1251
30370SOL     OW94514   6.995   1.531   3.360  0.3954  0.1078  0.4412
30370SOL    HW194515   7.053   1.479   3.304  1.7627  1.4423  0.6044
30370SOL    HW294516   7.020   1.622   3.344 -0.8858  0.6380  1.3565
30371SOL     OW94517  10.852   4.437   2.555  0.0699  0.0840  0.3490
30371SOL    HW194518  10.824   4.525   2.580  0.3946  0.4548 -0.5827
30371SOL    HW294519  10.929   4.451   2.500  1.5703 -0.8838  2.1653
30372SOL     OW94520   8.485   6.217   3.180 -0.1225 -0.3101  0.2363
30372SOL    HW194521   8.394   6.243   3.166  0.2983  1.0015 -0.0882
30372SOL    HW294522   8.489   6.126   3.150 -1.8765 -1.1455  2.4835
30373SOL     OW94523   9.252  10.756   0.317  0.2173  0.4702 -0.6166
30373SOL    HW194524   9.342  10.743   0.349 -0.2272  1.9504  1.3937
30373SOL    HW294525   9.223  10.669   0.290  1.5383 -0.4180  0.7232
30374SOL     OW94526   1.716   6.452   6.969  0.6746 -0.0738  0.0424
30374SOL    HW194527   1.686   6.366   6.938  1.6306 -0.3196 -0.2005
30374SOL    HW294528   1.790   6.433   7.026 -0.8192  0.4185  2.2071
30375SOL     OW94529  10.547   7.173   6.028 -0.5448 -0.0160  0.2748
30375SOL    HW194530  10.579   7.263   6.016  3.1981 -1.4746 -1.4200
30375SOL    HW294531  10.475   7.164   5.966  1.3348  0.7812 -2.0866
30376SOL     OW94532   7.518   6.816   4.493  0.4003 -0.6826 -0.4532
30376SOL    HW194533   7.499   6.905   4.523  0.6676 -0.6686 -0.3288
30376SOL    HW294534   7.613   6.811   4.491  0.3838 -0.6908 -1.2801
30377SOL     OW94535  10.878   7.106   1.755  0.3382  0.1548 -0.2305
30377SOL    HW194536  10.836   7.083   1.838 -1.3796 -0.4654 -1.2496
30377SOL    HW294537  10.821   7.171   1.716  1.4634  0.9072 -0.6578
30378SOL     OW94538  10.496   0.812   0.753 -0.2848 -0.3868 -0.2521
30378SOL    HW194539  10.409   0.850   0.764 -0.3788 -0.9330  1.0665
30378SOL    HW294540  10.537   0.866   0.685 -0.9574  1.0989  0.4788
30379SOL     OW94541   9.436   2.617  10.096 -0.0917 -0.1786 -0.1525
30379SOL    HW194542   9.386   2.609  10.176 -0.9069 -0.0394 -0.6435
30379SOL    HW294543   9.485   2.699  10.106  0.2458 -0.4542  0.4389
30380SOL     OW94544   3.182   2.842   8.568  0.2687  0.4948 -0.3576
30380SOL    HW194545   3.170   2.753   8.535 -2.1670  1.2462 -1.5852
30380SOL    HW294546   3.204   2.830   8.661  0.2996 -1.3966 -0.5959
30381SOL     OW94547   8.604   9.144   6.274  0.6440  0.8018  0.2146
30381SOL    HW194548   8.669   9.077   6.293  0.3207 -0.0223 -1.5080
30381SOL    HW294549   8.520   9.101   6.288  0.4328  0.8115 -1.0376
30382SOL     OW94550   8.204   2.771   9.567 -0.0991  0.3283  0.7396
30382SOL    HW194551   8.285   2.720   9.575  0.5702  1.0532 -1.1209
30382SOL    HW294552   8.230   2.860   9.590 -0.5780  0.3775  1.0702
30383SOL     OW94553   4.571   7.879   2.055  0.1696 -0.1401 -0.4022
30383SOL    HW194554   4.495   7.822   2.041  0.4826 -0.3675 -1.2687
30383SOL    HW294555   4.563   7.946   1.987  0.5537  0.0316 -0.2791
30384SOL     OW94556   5.840   5.381  10.639  0.1900  0.4327  0.2023
30384SOL    HW194557   5.766   5.340  10.684  0.3469 -0.5326 -0.4106
30384SOL    HW294558   5.908   5.388  10.706  1.4433 -3.6020 -0.5266
30385SOL     OW94559   7.883   4.781   1.059 -0.2000  0.4674  0.2801
30385SOL    HW194560   7.938   4.765   0.982 -0.9495 -1.8471  0.1904
30385SOL    HW294561   7.794   4.788   1.024 -0.4006  0.5401  0.8055
30386SOL     OW94562   7.655   8.234   8.752  0.0366  0.3934  0.3546
30386SOL    HW194563   7.701   8.156   8.782 -0.2975  0.4307  0.9750
30386SOL    HW294564   7.562   8.215   8.768 -0.2160  0.1210 -1.3311
30387SOL     OW94565   5.770   1.269   5.097  0.4612 -0.3879 -0.8070
30387SOL    HW194566   5.693   1.244   5.149  0.9178  1.7743  0.9849
30387SOL    HW294567   5.832   1.198   5.110  0.5029  0.0336  1.5193
30388SOL     OW94568   0.670   9.915   2.498 -0.7333  0.0731 -0.1463
30388SOL    HW194569   0.736   9.858   2.536  1.6656  2.9760  0.2447
30388SOL    HW294570   0.635   9.965   2.571 -0.8394  1.0089 -0.8158
30389SOL     OW94571   0.151   6.979   0.176  0.3817 -0.6312  0.1940
30389SOL    HW194572   0.139   6.961   0.083  2.8783  2.7687 -0.8849
30389SOL    HW294573   0.063   6.991   0.210 -0.4460  1.2474 -2.4556
30390SOL     OW94574   7.632   0.354   1.655  0.6951 -0.0521 -0.2683
30390SOL    HW194575   7.620   0.294   1.581  2.3325 -0.0410 -0.5499
30390SOL    HW294576   7.721   0.338   1.685  0.7204  1.3743  0.4378
30391SOL     OW94577   7.633   7.172  10.121  0.6367 -0.2261 -0.1048
30391SOL    HW194578   7.623   7.080  10.097  0.6392 -0.4528  0.7328
30391SOL    HW294579   7.618   7.220  10.040 -2.7750 -0.7851  0.1407
30392SOL     OW94580   9.775   8.187   6.058  0.3751 -0.3043  0.4741
30392SOL    HW194581   9.726   8.269   6.051  0.6493  0.0383  2.2931
30392SOL    HW294582   9.782   8.155   5.968  0.8177  1.9974 -0.3392
30393SOL     OW94583   5.571   2.845   3.347  0.1256  0.1974  0.0811
30393SOL    HW194584   5.569   2.931   3.389 -0.0898  0.3597 -0.2550
30393SOL    HW294585   5.664   2.826   3.336  0.2007 -0.2914  1.5208
30394SOL     OW94586   1.549  10.964   8.923  0.1729  0.0269  0.1265
30394SOL    HW194587   1.620  11.025   8.900  0.5097 -0.2902  0.3178
30394SOL    HW294588   1.470  11.018   8.921  0.5594  0.6576  1.0284
30395SOL     OW94589   6.099   6.451  10.677 -0.2896  0.5276  0.0134
30395SOL    HW194590   6.112   6.420  10.766  0.0663 -0.0316 -0.2334
30395SOL    HW294591   6.024   6.403  10.644  0.3039 -0.1330 -0.3920
30396SOL     OW94592   2.273   6.154   0.855 -0.0381 -0.5145  0.7867
30396SOL    HW194593   2.184   6.183   0.876  0.5630  1.0128  1.2971
30396SOL    HW294594   2.272   6.060   0.872 -1.8546 -0.7144 -0.2680
30397SOL     OW94595   4.697   7.945   3.012  0.0929  0.6268  0.2681
30397SOL    HW194596   4.668   7.936   2.921 -1.1120  1.9850  0.4994
30397SOL    HW294597   4.644   8.016   3.047  1.0192  0.5595  1.8521
30398SOL     OW94598   7.344   3.330   0.667  0.5141 -0.0502 -0.1467
30398SOL    HW194599   7.391   3.413   0.669 -1.3524  1.0319 -0.5184
30398SOL    HW294600   7.253   3.353   0.687  0.0636 -2.0562  0.1971
30399SOL     OW94601   3.454   5.787   9.122 -0.2929 -0.3841  0.4570
30399SOL    HW194602   3.473   5.813   9.212  1.8103 -0.6381  0.1266
30399SOL    HW294603   3.405   5.860   9.085 -2.1329 -0.7436  2.1190
30400SOL     OW94604   5.918   0.865   1.274  0.0378  0.8690 -0.0937
30400SOL    HW194605   5.977   0.831   1.207  0.5084  2.3097 -0.4411
30400SOL    HW294606   5.892   0.951   1.241 -0.4635  1.1969  1.1298
30401SOL     OW94607   0.446   3.412   7.870  0.0988  0.4040  0.8945
30401SOL    HW194608   0.400   3.329   7.858  1.8549 -0.6739  1.4436
30401SOL    HW294609   0.411   3.469   7.802 -1.2120 -0.7385  0.5871
30402SOL     OW94610   7.767   2.938   6.145 -0.1350 -0.1186 -0.0223
30402SOL    HW194611   7.860   2.946   6.170 -0.1421  0.1583 -0.0854
30402SOL    HW294612   7.758   2.996   6.069 -0.0182 -1.2798 -0.9381
30403SOL     OW94613   7.268   0.650   1.696  0.0250  0.0170 -0.5132
30403SOL    HW194614   7.193   0.688   1.742  1.8086  0.5867  2.0657
30403SOL    HW294615   7.298   0.720   1.638  1.1551  1.4008  1.6526
30404SOL     OW94616   5.355   0.265   4.209 -0.3170 -0.3253 -0.0498
30404SOL    HW194617   5.359   0.360   4.201  0.2542 -0.3374  0.1526
30404SOL    HW294618   5.425   0.242   4.269  0.3707 -0.9899 -1.0902
30405SOL     OW94619   5.408   7.805   2.088  0.3981  0.4401 -0.2288
30405SOL    HW194620   5.358   7.747   2.031 -0.6435  2.8699 -1.8797
30405SOL    HW294621   5.394   7.771   2.176  0.2265 -2.0760 -1.2058
30406SOL     OW94622   0.675   1.550   7.796 -0.4550 -0.4566 -0.3766
30406SOL    HW194623   0.741   1.523   7.733  1.0812 -0.3017  1.1450
30406SOL    HW294624   0.669   1.645   7.785 -0.2297 -0.4376 -0.3318
30407SOL     OW94625   6.179  10.456   6.659  0.1215  0.1499  0.1149
30407SOL    HW194626   6.179  10.550   6.678 -0.2149  0.3427 -0.7952
30407SOL    HW294627   6.160  10.451   6.565 -1.7573 -0.9090  0.5277
30408SOL     OW94628   7.586   9.554   0.912  0.5263 -0.5309 -0.2412
30408SOL    HW194629   7.567   9.578   0.822 -2.1025 -0.7077  0.2331
30408SOL    HW294630   7.583   9.458   0.913 -1.1398 -0.4983  0.3349
30409SOL     OW94631   7.177   0.351  10.980  0.4026  0.1881  0.3780
30409SOL    HW194632   7.226   0.406  10.919  0.9108 -1.4957 -0.7550
30409SOL    HW294633   7.085   0.370  10.960  0.5689 -0.0213 -0.6227
30410SOL     OW94634   4.389   2.517   9.012  0.4508  0.0251  0.3233
30410SOL    HW194635   4.441   2.593   9.037 -0.2154  0.4272  0.4894
30410SOL    HW294636   4.349   2.541   8.929 -0.4153  0.1814  0.7805
30411SOL     OW94637   6.425   2.258   1.218  0.5701 -0.2890  0.2722
30411SOL    HW194638   6.458   2.348   1.215  0.4353 -0.2512 -0.0376
30411SOL    HW294639   6.462   2.216   1.140 -0.1077 -0.2494 -0.0770
30412SOL     OW94640   7.964   6.034   9.168 -0.2189 -0.3850  0.2343
30412SOL    HW194641   7.908   6.108   9.145 -1.9590 -1.5421  0.6438
30412SOL    HW294642   8.019   6.020   9.091 -0.1714  1.0554 -0.0043
30413SOL     OW94643  10.054   4.106   4.971  0.5430 -0.1108  0.4752
30413SOL    HW194644   9.974   4.143   5.009  1.8819  2.1747  1.1215
30413SOL    HW294645  10.084   4.172   4.909  2.0953 -0.8409  0.4389
30414SOL     OW94646   6.724   3.633   7.138  0.2373 -0.4346  0.1706
30414SOL    HW194647   6.740   3.691   7.063 -1.1685  1.0776  1.0108
30414SOL    HW294648   6.779   3.669   7.208 -0.0195 -0.6043  0.4607
30415SOL     OW94649   2.444   2.224   4.990 -0.0201  0.0805 -0.3071
30415SOL    HW194650   2.508   2.208   4.921 -0.3724  1.7156 -1.0279
30415SOL    HW294651   2.440   2.141   5.038  2.1826 -0.2435 -0.6076
30416SOL     OW94652   5.003   7.536   6.056  0.3138 -0.3795 -0.0511
30416SOL    HW194653   4.955   7.462   6.019  1.1117  0.2066 -2.3672
30416SOL    HW294654   5.095   7.510   6.048  0.5976  0.9039 -0.9824
30417SOL     OW94655   8.488   2.105   8.199 -0.6523  0.4647  0.1871
30417SOL    HW194656   8.517   2.124   8.110  1.3377 -1.6239  0.3391
30417SOL    HW294657   8.460   2.189   8.234  0.9083  1.7433 -1.5661
30418SOL     OW94658   0.437   1.149   8.613 -0.6965  0.4551 -0.4828
30418SOL    HW194659   0.525   1.123   8.588 -0.9200  0.4642 -1.3020
30418SOL    HW294660   0.401   1.074   8.660 -0.9925 -0.3501 -1.9717
30419SOL     OW94661   6.587   7.730   9.121  0.1864 -0.9754  0.2168
30419SOL    HW194662   6.556   7.655   9.071 -0.9472 -1.6380  1.8585
30419SOL    HW294663   6.507   7.771   9.154  0.9255 -0.9983  2.0932
30420SOL     OW94664   7.567   0.613   9.094 -0.4446  0.2386 -0.7495
30420SOL    HW194665   7.502   0.557   9.137  0.0154 -0.6875 -1.2488
30420SOL    HW294666   7.602   0.667   9.165 -1.2634  0.2552 -0.3531
30421SOL     OW94667   8.342   3.701   2.536  0.0479  0.5086  0.1767
30421SOL    HW194668   8.379   3.688   2.624 -1.9528 -0.0910  0.9644
30421SOL    HW294669   8.370   3.789   2.511 -0.1375  1.0694  1.8443
30422SOL     OW94670   0.726   2.603   3.981  0.5722  0.1304  0.8684
30422SOL    HW194671   0.805   2.563   3.946  0.3953 -0.7577  1.4718
30422SOL    HW294672   0.753   2.691   4.008  1.4400 -0.2998  1.4130
30423SOL     OW94673   0.552   7.043   8.928  0.3522 -0.4157 -0.5508
30423SOL    HW194674   0.528   7.066   8.838 -1.2664 -3.1390 -0.8659
30423SOL    HW294675   0.626   6.982   8.917  0.0737 -0.8430 -0.0465
30424SOL     OW94676   5.827   5.832   1.248 -0.7233 -0.7074  0.3498
30424SOL    HW194677   5.900   5.836   1.186 -2.6612  1.3968 -1.9312
30424SOL    HW294678   5.796   5.742   1.244 -0.6616 -0.6619 -1.6159
30425SOL     OW94679   9.057   5.266   3.409 -0.1398  0.2880  0.0310
30425SOL    HW194680   9.097   5.223   3.333  0.8354 -0.2342  0.8229
30425SOL    HW294681   8.964   5.244   3.403  0.2740 -1.6162  0.1872
30426SOL     OW94682   3.208   3.289   6.268 -0.2778  0.4084  0.3165
30426SOL    HW194683   3.255   3.338   6.336 -1.3614  1.2438  0.4892
30426SOL    HW294684   3.228   3.197   6.286 -0.7033  0.6076  1.8999
30427SOL     OW94685   8.531   8.101   1.575  0.0482  0.2620 -0.2908
30427SOL    HW194686   8.598   8.157   1.615 -0.6814  0.3625  0.8192
30427SOL    HW294687   8.484   8.064   1.650 -2.1000  1.3575 -1.0738
30428SOL     OW94688   2.748  10.435   3.695  0.0300  0.4288 -0.4842
30428SOL    HW194689   2.780  10.363   3.640  0.7141  1.5437 -1.5690
30428SOL    HW294690   2.812  10.505   3.683  0.7199  0.3753  2.4845
30429SOL     OW94691   6.643   6.646   8.629 -0.6858 -0.8297 -0.2459
30429SOL    HW194692   6.715   6.611   8.578 -0.2520  0.4535 -0.5374
30429SOL    HW294693   6.680   6.721   8.675 -1.3835 -1.2409  1.0104
30430SOL     OW94694   5.905   6.374   2.369 -0.0908  0.1073  0.3897
30430SOL    HW194695   5.839   6.350   2.435 -0.5576 -1.2992 -0.5668
30430SOL    HW294696   5.901   6.470   2.366 -4.7185  0.0047 -2.1850
30431SOL     OW94697   3.092   0.405   3.872  0.1678  0.0279 -0.0128
30431SOL    HW194698   3.095   0.462   3.949 -0.1478 -0.3040  0.2438
30431SOL    HW294699   3.058   0.322   3.905 -1.2541  0.2986 -0.7740
30432SOL     OW94700   6.964   6.410  10.790 -0.5908 -0.4253  0.1115
30432SOL    HW194701   6.932   6.429  10.878  1.8406  0.5605  0.8364
30432SOL    HW294702   7.040   6.468  10.779 -1.6453  0.4769 -3.1626
30433SOL     OW94703   4.649   8.306   5.852 -0.0362  0.7320 -0.2758
30433SOL    HW194704   4.741   8.329   5.862  0.1671  0.2147 -0.8807
30433SOL    HW294705   4.646   8.257   5.769 -0.9728  1.3947 -0.6460
30434SOL     OW94706   6.606   9.775   5.644  0.0675 -0.0740 -0.1869
30434SOL    HW194707   6.596   9.687   5.609 -0.6276 -0.0237 -0.1162
30434SOL    HW294708   6.691   9.804   5.612 -0.4612 -0.1174 -1.6653
30435SOL     OW94709   7.405   2.984   4.423 -0.4813 -0.5774  0.8013
30435SOL    HW194710   7.363   2.905   4.456 -0.7122 -0.4828  0.7392
30435SOL    HW294711   7.450   3.021   4.498 -1.3810 -0.1186  1.1261
30436SOL     OW94712   1.485   4.220   2.177  0.4649 -0.4579  0.3943
30436SOL    HW194713   1.520   4.156   2.238 -1.3018 -1.3081  0.5541
30436SOL    HW294714   1.556   4.282   2.164  1.3772 -1.1039  2.1255
30437SOL     OW94715   0.315   5.195   6.313  0.3291  0.3015  0.3013
30437SOL    HW194716   0.372   5.231   6.246 -0.7152  1.1784 -0.1315
30437SOL    HW294717   0.228   5.229   6.291 -0.8852 -3.2267 -0.6800
30438SOL     OW94718   5.366   6.346   2.185 -0.0421 -0.0199 -0.1151
30438SOL    HW194719   5.319   6.418   2.142 -0.1817 -0.0373  0.0070
30438SOL    HW294720   5.299   6.301   2.236  0.3015  0.5641  0.8633
30439SOL     OW94721   7.172   8.406   9.356 -0.5718  0.3924 -0.3662
30439SOL    HW194722   7.186   8.449   9.272  0.6582  1.2676  0.2706
30439SOL    HW294723   7.255   8.416   9.402 -1.2385 -0.0719  0.9585
30440SOL     OW94724   4.872   7.235   9.646 -0.1443 -0.5289 -0.5103
30440SOL    HW194725   4.929   7.178   9.697  0.2658  0.9320  0.6952
30440SOL    HW294726   4.800   7.179   9.618 -0.3025 -1.3843  1.5601
30441SOL     OW94727   7.166   5.005   7.293 -0.5364 -0.0955  0.0624
30441SOL    HW194728   7.144   4.920   7.330 -1.4494  0.0353 -0.1597
30441SOL    HW294729   7.129   5.003   7.205  0.3482  0.1393 -0.3190
30442SOL     OW94730   5.433   5.812   5.222 -0.3146 -0.0362  0.2351
30442SOL    HW194731   5.511   5.819   5.278 -0.4024  0.4154  0.3054
30442SOL    HW294732   5.437   5.724   5.185  1.7634  0.9682 -2.0365
30443SOL     OW94733   8.136   0.731   8.328 -0.4771  1.0637  0.0605
30443SOL    HW194734   8.135   0.746   8.233 -1.0205  0.2027 -0.0699
30443SOL    HW294735   8.043   0.733   8.353 -0.5888 -2.0792  0.0320
30444SOL     OW94736  10.621   8.713   4.641  0.2886  0.4493 -0.0456
30444SOL    HW194737  10.606   8.619   4.652 -2.1347  0.8582  0.4478
30444SOL    HW294738  10.685   8.736   4.708 -2.4792 -0.0547  2.8574
30445SOL     OW94739  10.062   3.819   8.353  0.0583 -0.2999 -0.0394
30445SOL    HW194740  10.076   3.901   8.306 -0.2477  0.3081  0.9379
30445SOL    HW294741  10.091   3.751   8.291 -0.8253  0.4685 -1.3019
30446SOL     OW94742   1.550   6.528   5.033 -0.6104  0.4348 -0.5282
30446SOL    HW194743   1.497   6.561   5.105 -0.8849  0.9234 -0.9487
30446SOL    HW294744   1.496   6.543   4.955  0.2059  1.0720 -0.9743
30447SOL     OW94745   1.294   0.203   4.678  0.4900 -0.0409  0.0287
30447SOL    HW194746   1.326   0.125   4.724 -1.1662 -0.0058  1.3023
30447SOL    HW294747   1.245   0.251   4.745 -1.3520  0.3867 -1.5820
30448SOL     OW94748   8.061   3.567  10.359  1.1968 -0.9840  0.3484
30448SOL    HW194749   8.043   3.551  10.266  0.5758 -2.1233  0.6554
30448SOL    HW294750   8.150   3.536  10.372  2.4808  2.1537 -0.5705
30449SOL     OW94751   1.341   0.414   4.428  0.2331  0.2785  0.1341
30449SOL    HW194752   1.297   0.368   4.500 -0.1374 -0.5761 -0.6228
30449SOL    HW294753   1.270   0.457   4.380  0.4919  0.9498  0.3564
30450SOL     OW94754   5.825  10.716   2.913 -0.1853 -0.2301  0.3683
30450SOL    HW194755   5.746  10.724   2.860  0.2474  1.1609 -0.0935
30450SOL    HW294756   5.833  10.801   2.956  1.0982 -0.3336  0.3492
30451SOL     OW94757   5.111   8.874   4.153  0.8599  0.6748  1.0431
30451SOL    HW194758   5.120   8.785   4.118  1.0314 -0.3761  3.6132
30451SOL    HW294759   5.188   8.920   4.122  0.2987  0.2064 -1.0892
30452SOL     OW94760   7.657   6.889  10.004 -0.2220 -0.5838 -0.1866
30452SOL    HW194761   7.634   6.817  10.063  1.2667 -0.2092  0.9028
30452SOL    HW294762   7.751   6.879   9.991 -0.2193  0.4575 -0.9978
30453SOL     OW94763   8.910   9.992   3.995 -0.1525  0.0355 -0.0848
30453SOL    HW194764   8.964   9.939   4.053 -0.0234  1.3155  0.9845
30453SOL    HW294765   8.879   9.931   3.928  0.8573 -1.1520  0.5175
30454SOL     OW94766   3.117   1.215   4.717 -0.1388 -0.1279  0.4236
30454SOL    HW194767   3.109   1.124   4.746  0.9007 -0.4813 -0.3636
30454SOL    HW294768   3.033   1.236   4.677  0.9316 -2.0535 -3.0298
30455SOL     OW94769   4.740   1.543   8.827  0.0924 -0.0672 -0.2630
30455SOL    HW194770   4.708   1.453   8.821 -1.4833  0.5468 -1.2036
30455SOL    HW294771   4.799   1.542   8.903 -0.6766 -1.6564  0.3423
30456SOL     OW94772   6.978   2.639  10.490 -0.0134  0.1539 -0.4855
30456SOL    HW194773   6.998   2.727  10.458 -1.0304  0.8911  0.9084
30456SOL    HW294774   6.893   2.647  10.532  0.1143 -1.4006  0.0929
30457SOL     OW94775   3.701   7.848   4.327 -0.1000  0.1551  0.3119
30457SOL    HW194776   3.761   7.899   4.382 -0.2863 -2.1542  2.7300
30457SOL    HW294777   3.633   7.911   4.302  1.2672  1.8448  0.7041
30458SOL     OW94778   2.586   7.719   5.882  0.2563  0.2556  0.3071
30458SOL    HW194779   2.608   7.765   5.964  0.8877  0.8333 -0.1841
30458SOL    HW294780   2.532   7.782   5.834  0.9496  0.4019 -0.2780
30459SOL     OW94781  10.085   6.610   1.085  0.8941  0.1045 -0.2046
30459SOL    HW194782  10.143   6.563   1.145 -0.0404 -0.5366  0.2144
30459SOL    HW294783  10.009   6.552   1.076  1.5282 -0.3751 -2.9602
30460SOL     OW94784   2.762   7.798   2.813  0.7503 -0.3716 -0.0155
30460SOL    HW194785   2.710   7.852   2.753  0.7523 -0.1926  0.1423
30460SOL    HW294786   2.781   7.856   2.887 -0.8148 -1.1559  1.0279
30461SOL     OW94787   6.435   8.001   0.459 -0.5061 -0.1245 -0.7090
30461SOL    HW194788   6.342   7.999   0.482 -0.0827 -1.3763  0.9902
30461SOL    HW294789   6.460   8.093   0.471 -1.2090 -0.0415  0.2030
30462SOL     OW94790   7.892   5.775  10.813 -0.7115  0.9534  0.0683
30462SOL    HW194791   7.937   5.798  10.732 -0.5870  0.9158  0.1278
30462SOL    HW294792   7.888   5.857  10.863  0.7809  0.5903  0.7935
30463SOL     OW94793   2.959   0.935   6.758  0.1708  0.1489 -0.2753
30463SOL    HW194794   3.001   0.951   6.843  0.1865 -1.3524  0.0044
30463SOL    HW294795   2.893   1.004   6.752  0.9684  1.0016  0.4155
30464SOL     OW94796  10.496  10.301   2.253 -0.0364 -0.4605 -0.5825
30464SOL    HW194797  10.535  10.236   2.311  0.7233  2.5045  2.3478
30464SOL    HW294798  10.441  10.250   2.193  0.2759 -3.7322  1.8155
30465SOL     OW94799   9.540   5.288   1.321 -0.3717 -0.2974 -0.1595
30465SOL    HW194800   9.567   5.341   1.246  0.2834  1.2616  1.1280
30465SOL    HW294801   9.499   5.351   1.380 -1.0742 -1.5423  0.6844
30466SOL     OW94802   9.973  10.376   7.581  0.1056  0.5703 -0.5093
30466SOL    HW194803  10.056  10.329   7.582 -1.5556 -2.4745  1.2228
30466SOL    HW294804   9.928  10.344   7.503 -0.1345  0.9225 -0.5164
30467SOL     OW94805   2.220   4.183   5.699  0.1840 -0.6498  0.0417
30467SOL    HW194806   2.238   4.108   5.642  1.5610 -1.7875  1.9263
30467SOL    HW294807   2.300   4.194   5.751 -1.3281 -0.1737  2.3433
30468SOL     OW94808   3.623   7.452   7.519  0.4327  0.8759 -0.0694
30468SOL    HW194809   3.570   7.379   7.551 -0.3783  0.8959 -1.3254
30468SOL    HW294810   3.700   7.411   7.479  0.0559  0.7198 -0.6293
30469SOL     OW94811   4.194   0.146   4.879 -0.5188 -0.3356 -0.1399
30469SOL    HW194812   4.288   0.147   4.900 -0.2947  1.3250 -1.1607
30469SOL    HW294813   4.156   0.090   4.946  0.7621  1.4561  2.1704
30470SOL     OW94814   5.644   9.034   0.278  0.3550  0.2223 -0.5158
30470SOL    HW194815   5.734   9.009   0.257 -0.4115 -0.8290 -2.6267
30470SOL    HW294816   5.598   8.951   0.289 -0.4481  0.7590  0.2148
30471SOL     OW94817   4.687   9.861   4.001  0.0586 -0.1910 -0.0447
30471SOL    HW194818   4.746   9.794   4.037  1.7345  0.8819 -0.7114
30471SOL    HW294819   4.713   9.942   4.045 -1.0440  0.2707 -0.2322
30472SOL     OW94820   1.191   4.348   3.651 -0.3167 -0.1627  0.5023
30472SOL    HW194821   1.140   4.420   3.690  0.6763 -0.5889  2.6904
30472SOL    HW294822   1.262   4.334   3.713 -0.4565 -3.0149  0.0784
30473SOL     OW94823  10.591   8.382  10.350  0.5685  1.2028 -0.2591
30473SOL    HW194824  10.654   8.350  10.414 -1.0960 -2.6173 -0.3601
30473SOL    HW294825  10.527   8.431  10.402  0.0663 -0.5710  0.8485
30474SOL     OW94826   3.340   1.203   0.491 -0.1232  0.0977  0.0041
30474SOL    HW194827   3.331   1.204   0.396  1.0431 -1.6779 -0.1443
30474SOL    HW294828   3.391   1.281   0.512  0.4816 -0.0513 -0.9200
30475SOL     OW94829  10.455   7.079   2.577 -0.0789  0.2979  0.6605
30475SOL    HW194830  10.508   6.999   2.565 -1.0438  0.0958 -2.7927
30475SOL    HW294831  10.513   7.150   2.550  0.0757  0.5709  1.7020
30476SOL     OW94832   4.932   3.016   8.492 -0.0340 -0.0265 -0.1317
30476SOL    HW194833   4.995   2.963   8.444 -0.6855 -0.8742 -0.0613
30476SOL    HW294834   4.970   3.104   8.493 -0.5802  0.3051 -3.3187
30477SOL     OW94835   6.555   9.032   7.573 -0.0824  0.0413  0.1243
30477SOL    HW194836   6.641   9.007   7.539  0.6429  0.1022  1.8767
30477SOL    HW294837   6.527   9.104   7.515  1.2603  0.3521 -0.1621
30478SOL     OW94838   2.788   1.596  10.862 -0.6677  0.1526  0.0237
30478SOL    HW194839   2.769   1.650  10.939 -0.1609  0.9816 -0.4240
30478SOL    HW294840   2.729   1.629  10.795 -1.8072 -1.2339  0.3376
30479SOL     OW94841   6.529   5.067   9.546  0.1949 -0.2750  0.0529
30479SOL    HW194842   6.602   5.101   9.495 -1.7939  1.0417 -2.0694
30479SOL    HW294843   6.528   4.973   9.527  0.8499 -0.1612 -0.5618
30480SOL     OW94844   5.524   2.275   4.642  0.0179  0.5739  0.1560
30480SOL    HW194845   5.482   2.262   4.727  3.1128  0.4604  1.7392
30480SOL    HW294846   5.560   2.189   4.620  0.4927  0.9567 -0.5613
30481SOL     OW94847   3.239  10.400   0.402  0.0141  0.2571 -0.6372
30481SOL    HW194848   3.173  10.437   0.461  0.8837  1.5670 -0.4489
30481SOL    HW294849   3.231  10.451   0.322  1.0511  0.6867 -0.4752
30482SOL     OW94850   5.206   8.301   1.569 -0.2551 -0.2286 -0.1603
30482SOL    HW194851   5.220   8.395   1.566 -1.4982 -0.0604 -0.9578
30482SOL    HW294852   5.247   8.273   1.651 -1.7118  1.2973  1.1177
30483SOL     OW94853   4.332   3.789   3.123 -0.2343 -0.1120  0.5607
30483SOL    HW194854   4.282   3.708   3.115 -0.5690 -0.0094  1.5364
30483SOL    HW294855   4.267   3.859   3.119 -0.0341  0.0757  0.5355
30484SOL     OW94856   0.922   3.821   6.101  0.6820  1.0628 -0.4156
30484SOL    HW194857   0.991   3.886   6.090  2.1060 -0.4041 -0.4211
30484SOL    HW294858   0.946   3.750   6.041  0.8070 -0.7920  1.7379
30485SOL     OW94859   0.080   2.499  10.170 -0.2884  0.2895 -0.0432
30485SOL    HW194860   0.100   2.520  10.262  2.1823 -1.2840 -0.1655
30485SOL    HW294861   0.164   2.470  10.134 -1.8033 -1.6308 -2.1074
30486SOL     OW94862   7.216   2.319   9.335  0.3302  0.0069  0.4523
30486SOL    HW194863   7.125   2.312   9.363  0.2288  1.2460  0.4723
30486SOL    HW294864   7.267   2.298   9.413  0.0547  1.6802  1.0882
30487SOL     OW94865   2.460   3.139   8.142 -0.1506 -0.2859  0.0938
30487SOL    HW194866   2.542   3.174   8.175 -0.2854 -0.7831  0.9663
30487SOL    HW294867   2.476   3.122   8.049  0.3947  0.6114  0.0176
30488SOL     OW94868   2.410  10.317   9.191  0.7373 -0.1788 -0.5454
30488SOL    HW194869   2.432  10.223   9.188 -0.6153 -0.4669 -1.8875
30488SOL    HW294870   2.345  10.324   9.261  1.4094 -0.1126  0.0789
30489SOL     OW94871   2.035   8.903   7.211  0.1649  0.0977 -0.6880
30489SOL    HW194872   2.012   8.891   7.304  0.5680 -1.8285 -0.8275
30489SOL    HW294873   1.951   8.913   7.167 -0.1167 -0.6432 -0.3288
30490SOL     OW94874   2.382   8.439   9.848  0.3146 -0.1909 -0.0895
30490SOL    HW194875   2.393   8.495   9.771 -0.2454 -0.5210 -0.4141
30490SOL    HW294876   2.471   8.422   9.878  0.4858  0.8997  0.0367
30491SOL     OW94877   9.294   0.492   7.872 -0.0631  0.2854  0.4224
30491SOL    HW194878   9.258   0.544   7.943  1.0855  0.9137  0.5542
30491SOL    HW294879   9.224   0.487   7.808 -0.1713  2.0516  0.3812
30492SOL     OW94880   9.038   2.793  10.505 -0.5602  0.1305 -0.1373
30492SOL    HW194881   9.019   2.700  10.491  0.0291 -0.2624  1.5581
30492SOL    HW294882   9.004   2.812  10.592  0.5639  1.1559  0.0992
30493SOL     OW94883   3.628  10.323   2.015  0.7124 -0.1440  0.3873
30493SOL    HW194884   3.595  10.327   2.105  3.1761  2.1317  1.2859
30493SOL    HW294885   3.694  10.254   2.016  0.4141 -0.4356  0.1872
30494SOL     OW94886   9.260   6.432   3.609  0.0999  0.1505  0.4229
30494SOL    HW194887   9.345   6.397   3.582 -0.4545 -0.9562  0.0535
30494SOL    HW294888   9.198   6.394   3.547 -0.5796  1.5630  0.2173
30495SOL     OW94889   8.239   4.356   4.046  0.0534  0.7942  0.1220
30495SOL    HW194890   8.300   4.290   4.011 -0.2464 -1.0243  2.8963
30495SOL    HW294891   8.159   4.307   4.066 -0.4653  2.1506  1.4636
30496SOL     OW94892   4.355  10.529   4.003 -0.2973  0.2351  0.2761
30496SOL    HW194893   4.292  10.473   4.048  0.1551 -0.7368 -0.2884
30496SOL    HW294894   4.304  10.570   3.933 -0.7530  0.9451  1.0130
30497SOL     OW94895   2.744   7.580   6.719 -0.1580 -0.2937 -0.8663
30497SOL    HW194896   2.753   7.534   6.636  0.4399  0.8366 -1.4403
30497SOL    HW294897   2.786   7.523   6.784  0.7519 -0.4619 -1.5965
30498SOL     OW94898   0.623  10.725  10.898 -0.3955 -0.1511 -0.0677
30498SOL    HW194899   0.623  10.632  10.922 -0.0993 -0.2078 -0.2807
30498SOL    HW294900   0.563  10.766  10.960 -0.9795 -0.5774 -0.3529
30499SOL     OW94901   0.317   0.487  10.238 -0.1045  0.5205 -0.5016
30499SOL    HW194902   0.269   0.501  10.156  0.4354  1.3652 -0.6793
30499SOL    HW294903   0.382   0.556  10.239 -1.0122  1.3684  1.3211
30500SOL     OW94904   2.118   2.281   6.922  0.0472  0.1545  0.5207
30500SOL    HW194905   2.078   2.199   6.894 -1.2505  0.2378  2.0620
30500SOL    HW294906   2.131   2.331   6.841 -2.7315  0.0049 -0.0618
30501SOL     OW94907   1.533   3.050   1.216 -0.1729  0.3844  0.0280
30501SOL    HW194908   1.491   3.132   1.241 -2.0813 -1.3120  2.7138
30501SOL    HW294909   1.481   3.017   1.143 -0.3464  0.7673 -0.0214
30502SOL     OW94910   9.987   6.603   6.172  0.4246  0.6358  0.4894
30502SOL    HW194911  10.077   6.607   6.138  0.3802 -0.6822  0.1725
30502SOL    HW294912   9.996   6.604   6.267  0.8452 -0.6541  0.4643
30503SOL     OW94913   3.333   7.258   6.014 -0.2279 -0.2002 -0.6933
30503SOL    HW194914   3.401   7.319   5.984 -0.3077 -0.1462 -0.7630
30503SOL    HW294915   3.251   7.299   5.988 -0.2328 -0.9834 -1.9744
30504SOL     OW94916   3.622   4.053   1.022 -0.1092  0.3894 -0.4672
30504SOL    HW194917   3.683   4.057   0.949  0.4632  1.4094  0.0486
30504SOL    HW294918   3.582   3.967   1.016 -0.1640  0.5217 -2.0483
30505SOL     OW94919   9.090   0.641   7.542 -0.5474  0.5439  0.3424
30505SOL    HW194920   9.066   0.565   7.595 -0.9436 -0.3974 -1.1729
30505SOL    HW294921   9.107   0.710   7.607 -2.4528 -0.1577  1.6285
30506SOL     OW94922   0.570   6.886   8.648 -0.2669 -0.0552 -0.0961
30506SOL    HW194923   0.590   6.873   8.555 -1.5967  1.6267 -0.6398
30506SOL    HW294924   0.523   6.806   8.673 -0.0167 -0.4632 -0.8992
30507SOL     OW94925   5.561   7.107   8.962 -0.3654  0.0447  0.2274
30507SOL    HW194926   5.474   7.122   8.925 -1.5613 -1.8461  2.1337
30507SOL    HW294927   5.604   7.049   8.900 -0.4916  0.8904 -0.6655
30508SOL     OW94928  10.492   8.010   8.888  0.3276 -0.4267  0.1476
30508SOL    HW194929  10.445   8.089   8.861  1.2516  0.0829  0.0338
30508SOL    HW294930  10.548   7.988   8.813  1.2019 -0.3181  0.7615
30509SOL     OW94931   0.349   8.798   6.750 -0.8166 -0.1103  0.1369
30509SOL    HW194932   0.351   8.884   6.792 -1.5480 -0.0565  0.0684
30509SOL    HW294933   0.258   8.787   6.723 -0.8903 -1.2605  0.8484
30510SOL     OW94934   1.970   9.269   1.956 -0.3223 -0.0485 -0.3202
30510SOL    HW194935   1.884   9.268   1.914 -0.8419 -0.5363  0.7201
30510SOL    HW294936   1.968   9.347   2.011  0.1900  0.3514 -0.8701
30511SOL     OW94937   4.956   1.863   2.696  0.0782 -0.3647  0.1296
30511SOL    HW194938   4.900   1.791   2.726 -1.2146  0.8137  0.5857
30511SOL    HW294939   5.043   1.823   2.687 -0.4426 -1.7891  1.1550
30512SOL     OW94940   9.752   1.864   8.559 -0.1022 -0.3455  0.2789
30512SOL    HW194941   9.806   1.889   8.484 -0.0733  0.4593  0.5617
30512SOL    HW294942   9.662   1.868   8.527 -0.0056 -1.8041 -0.2270
30513SOL     OW94943   1.730   7.314   8.305  0.1109 -0.1106 -0.1238
30513SOL    HW194944   1.730   7.391   8.248  1.2341  0.5541  0.7529
30513SOL    HW294945   1.747   7.349   8.392  1.0240 -1.3953  0.2182
30514SOL     OW94946   7.433   2.552   6.023  0.5907 -0.3565  0.3210
30514SOL    HW194947   7.445   2.611   5.948  1.6918 -0.7987  0.1339
30514SOL    HW294948   7.502   2.578   6.085 -0.4162  0.1144  1.2606
30515SOL     OW94949   5.354   8.188   7.836 -0.1388 -0.1111  0.2231
30515SOL    HW194950   5.318   8.108   7.799  0.0125 -0.2451  0.3648
30515SOL    HW294951   5.437   8.201   7.789 -0.1303 -0.0754  0.2483
30516SOL     OW94952   9.812   4.140   0.491  0.2449  0.2870  0.2314
30516SOL    HW194953   9.812   4.222   0.441 -2.4121 -0.3600 -0.9559
30516SOL    HW294954   9.893   4.096   0.465 -0.4654  0.5354 -2.6596
30517SOL     OW94955   0.761   1.489   4.623  0.2264 -0.3543  0.1425
30517SOL    HW194956   0.839   1.521   4.667  0.7306  0.4261 -1.2981
30517SOL    HW294957   0.690   1.544   4.657  0.3940 -0.6524  0.9855
30518SOL     OW94958   6.336   6.171   5.093 -0.1403 -0.0468  0.6241
30518SOL    HW194959   6.395   6.182   5.019  0.4912  1.1258  1.2843
30518SOL    HW294960   6.252   6.207   5.063  0.1023  0.3828  0.4618
30519SOL     OW94961   3.734   8.478   5.197 -0.1828 -0.0183 -0.1843
30519SOL    HW194962   3.761   8.531   5.272  2.0106  2.4886 -2.6206
30519SOL    HW294963   3.714   8.541   5.129 -0.0586 -2.2667 -2.3914
30520SOL     OW94964   6.953   9.976  10.950 -0.2796  0.2171 -0.0505
30520SOL    HW194965   6.861   9.975  10.976  0.0570 -4.2210  1.5364
30520SOL    HW294966   6.998   9.928  11.020  3.2788  2.3007 -0.7766
30521SOL     OW94967   7.701   7.688   7.821  0.1649  0.0107  0.4639
30521SOL    HW194968   7.696   7.666   7.728  0.0900 -0.4109  0.5699
30521SOL    HW294969   7.746   7.773   7.822  1.5563 -0.7051  0.1363
30522SOL     OW94970   2.710   2.418   9.154  0.2693 -0.0400  0.3867
30522SOL    HW194971   2.760   2.475   9.213  0.0354 -0.3058  0.8508
30522SOL    HW294972   2.776   2.360   9.115  0.4706  0.3633  0.1236
30523SOL     OW94973  10.942   7.171   5.163 -1.2951  0.5867  0.0243
30523SOL    HW194974  11.008   7.241   5.169 -0.3767 -0.0910 -1.7743
30523SOL    HW294975  10.864   7.209   5.203 -0.5250  2.2930 -0.0155
30524SOL     OW94976   6.766   2.449   0.257  0.1698  0.3670 -0.0536
30524SOL    HW194977   6.681   2.467   0.217  0.2596  1.1054  0.0735
30524SOL    HW294978   6.763   2.356   0.279 -1.3612  0.8035  1.7044
30525SOL     OW94979   3.443   3.785   1.705  0.3785  0.6102 -0.7027
30525SOL    HW194980   3.406   3.716   1.649 -1.1141 -0.9314  2.0864
30525SOL    HW294981   3.519   3.744   1.747  0.0648  0.9648  0.2235
30526SOL     OW94982   0.121   9.053   4.031 -0.4889 -0.2403 -0.6184
30526SOL    HW194983   0.160   9.108   3.963 -0.4635  1.1801  0.5068
30526SOL    HW294984   0.030   9.081   4.035 -0.6107 -0.6699 -0.4410
30527SOL     OW94985   6.482   3.594   4.744  0.0705  0.7118  0.2180
30527SOL    HW194986   6.560   3.555   4.784 -0.7845  0.4515  1.6402
30527SOL    HW294987   6.509   3.683   4.721  1.5385 -0.1633 -1.5686
30528SOL     OW94988   5.766  10.352   0.839  0.0354 -0.6218 -0.0725
30528SOL    HW194989   5.811  10.306   0.910  1.5945 -2.0748 -1.9407
30528SOL    HW294990   5.736  10.282   0.780 -2.9657  0.4514  0.1307
30529SOL     OW94991  10.538   6.744   5.687 -0.0743 -0.6004 -0.2065
30529SOL    HW194992  10.570   6.740   5.596 -2.1158 -0.9926 -0.9328
30529SOL    HW294993  10.490   6.662   5.699  2.0182 -1.5589  1.9819
30530SOL     OW94994  10.166   2.688   7.581 -0.1686 -0.1560 -0.0680
30530SOL    HW194995  10.256   2.718   7.586 -0.1057  0.0133 -1.7702
30530SOL    HW294996  10.113   2.765   7.605  0.0913  0.3131 -0.9804
30531SOL     OW94997   9.476   4.931   9.985 -0.1210 -0.2099 -0.7477
30531SOL    HW194998   9.434   4.966   9.906 -1.9308 -0.5418  0.0339
30531SOL    HW294999   9.468   4.836   9.976 -0.8812 -0.2327  0.1053
30532SOL     OW95000  10.863  10.369   1.948 -0.2309 -0.1450 -0.3287
30532SOL    HW195001  10.852  10.293   1.891  0.4192  0.2486 -0.9860
30532SOL    HW295002  10.778  10.413   1.947 -0.4141 -0.5102 -0.4626
30533SOL     OW95003   3.983  10.336   4.288  0.3698 -0.2462  0.7447
30533SOL    HW195004   4.011  10.342   4.379 -0.3818  0.2271  0.9546
30533SOL    HW295005   3.889  10.356   4.291  0.0731 -1.4737  0.0292
30534SOL     OW95006   7.219   4.036   0.815  0.2612  0.0227  0.1760
30534SOL    HW195007   7.149   3.988   0.770 -0.7002  1.7908 -0.2659
30534SOL    HW295008   7.208   4.014   0.907  0.5845 -1.5458 -0.1540
30535SOL     OW95009   3.009   8.346   6.925 -0.2706 -0.5624  0.4497
30535SOL    HW195010   3.003   8.338   7.020  1.5236 -1.1825  0.5274
30535SOL    HW295011   3.014   8.256   6.893 -1.0488 -0.3596 -0.2408
30536SOL     OW95012   1.843   6.741   6.135  0.6388  0.8314  0.3694
30536SOL    HW195013   1.802   6.803   6.195  1.5895  1.2567  0.5962
30536SOL    HW295014   1.852   6.789   6.052  0.0857  0.5224  0.1276
30537SOL     OW95015   7.875   2.582   3.590  0.1854  0.2043  0.2293
30537SOL    HW195016   7.780   2.595   3.588  0.2748  0.6478 -1.8588
30537SOL    HW295017   7.897   2.583   3.683 -1.4029  3.4931  0.6465
30538SOL     OW95018   9.493   0.155  10.777 -0.0792 -0.4266  0.8321
30538SOL    HW195019   9.571   0.143  10.723 -0.3199 -1.0355  0.6242
30538SOL    HW295020   9.425   0.101  10.735 -0.8521  0.7669  0.5181
30539SOL     OW95021   8.940   0.666   4.453 -0.2444 -0.3184  0.2388
30539SOL    HW195022   8.995   0.735   4.415 -0.2681  0.1664  1.0747
30539SOL    HW295023   8.994   0.628   4.522 -0.3705 -0.8953  0.0203
30540SOL     OW95024   8.622   5.914   2.709  0.1276  0.5837 -0.7102
30540SOL    HW195025   8.661   5.993   2.672 -1.2350  0.4551 -2.4805
30540SOL    HW295026   8.531   5.916   2.679  0.0520 -1.5869 -0.6867
30541SOL     OW95027  10.627   6.534   2.311  0.1267 -0.4479  0.2729
30541SOL    HW195028  10.607   6.498   2.397 -0.3827 -0.1208  0.2931
30541SOL    HW295029  10.720   6.517   2.298 -0.2868 -2.6106 -0.0981
30542SOL     OW95030   5.933   7.869   1.285  0.1722 -0.0847 -0.5805
30542SOL    HW195031   5.992   7.913   1.224  0.0225 -1.0996 -1.4761
30542SOL    HW295032   5.852   7.921   1.281  0.9686  1.3164  0.6622
30543SOL     OW95033   7.691   0.063   1.873  0.2662  0.1569  0.6552
30543SOL    HW195034   7.603   0.078   1.839  1.5415  1.6437 -2.1081
30543SOL    HW295035   7.737   0.018   1.803  1.8485 -0.2859  1.9389
30544SOL     OW95036   6.493   6.465   4.035 -0.0332 -0.1420 -0.2619
30544SOL    HW195037   6.401   6.486   4.020 -0.1065 -0.2980 -0.0417
30544SOL    HW295038   6.523   6.533   4.095 -0.5657 -1.2919  1.3448
30545SOL     OW95039   2.768   3.978   2.689 -1.1245 -0.2555  0.0704
30545SOL    HW195040   2.699   4.021   2.740 -0.1460  1.0320  0.3366
30545SOL    HW295041   2.722   3.937   2.616 -2.2467  0.0391  0.5979
30546SOL     OW95042   2.622   9.331   0.147 -0.5862 -0.0865  0.1908
30546SOL    HW195043   2.633   9.251   0.095 -0.5442 -0.1550  0.3065
30546SOL    HW295044   2.663   9.312   0.231 -1.2639 -0.2110  0.4911
30547SOL     OW95045  10.641   2.399   5.559 -0.2808 -0.7028 -0.0832
30547SOL    HW195046  10.674   2.458   5.626  2.3603 -0.9189 -1.1221
30547SOL    HW295047  10.552   2.379   5.586  0.2729  0.2685  2.6174
30548SOL     OW95048   7.277   7.374   8.208  0.5375 -0.2283  0.2623
30548SOL    HW195049   7.275   7.464   8.240  1.5801 -0.9531  2.4127
30548SOL    HW295050   7.186   7.345   8.209 -0.0216  1.3348 -2.0527
30549SOL     OW95051   3.025   5.984  10.459 -0.3847  0.6735  0.6153
30549SOL    HW195052   2.999   5.976  10.368 -1.3630 -2.1486  1.0878
30549SOL    HW295053   2.950   5.952  10.509  0.5877  1.0223  2.3671
30550SOL     OW95054   7.561   7.303   8.445 -0.2094 -0.3196  0.4930
30550SOL    HW195055   7.624   7.282   8.377  1.0337  1.9728  0.8853
30550SOL    HW295056   7.484   7.251   8.423  0.8241 -1.0471 -1.5676
30551SOL     OW95057   9.504   3.339   8.687  0.5756 -0.2591  0.6473
30551SOL    HW195058   9.483   3.430   8.667  1.8682 -0.5130 -2.0965
30551SOL    HW295059   9.582   3.320   8.634  0.5242 -2.8710  1.4241
30552SOL     OW95060   1.372   6.017   5.303 -0.0169  0.6511 -0.6324
30552SOL    HW195061   1.407   6.072   5.233  1.8350 -2.3476 -2.1576
30552SOL    HW295062   1.290   5.982   5.267 -0.7268  1.6701 -0.0196
30553SOL     OW95063   1.420   9.578   8.670  0.2407  0.2213  0.0791
30553SOL    HW195064   1.380   9.608   8.752  2.1281  1.1405  0.6912
30553SOL    HW295065   1.365   9.616   8.602  0.1550  1.6380  0.9041
30554SOL     OW95066   7.480   0.842  10.803 -0.2367  0.6877  0.4650
30554SOL    HW195067   7.445   0.771  10.856 -2.0892  0.8889 -0.4131
30554SOL    HW295068   7.497   0.913  10.864  3.2482 -1.0325  1.6051
30555SOL     OW95069   8.943  10.580   4.428  0.0674 -0.9621  0.4237
30555SOL    HW195070   8.909  10.662   4.464 -0.0468 -1.1559  0.7631
30555SOL    HW295071   8.973  10.532   4.505  1.9212 -0.4207  0.0538
30556SOL     OW95072   4.872   3.729   8.719  0.0834  0.6104 -0.0288
30556SOL    HW195073   4.951   3.706   8.671  0.1683  0.7457  0.0452
30556SOL    HW295074   4.858   3.655   8.778  1.2248  1.4217  1.2984
30557SOL     OW95075   6.052   2.593   2.587 -0.2479 -0.0234 -0.6018
30557SOL    HW195076   6.106   2.616   2.511  1.5822 -0.2088  0.6197
30557SOL    HW295077   5.967   2.633   2.569  0.2770  0.2359 -2.5813
30558SOL     OW95078   5.615   9.870   0.028  0.5346 -0.2793  0.3115
30558SOL    HW195079   5.530   9.829   0.039  0.7459 -0.8031  0.0274
30558SOL    HW295080   5.678   9.800   0.046  0.8997 -0.1652 -0.4862
30559SOL     OW95081   0.726   8.710   1.096  0.0565 -0.0955  0.7408
30559SOL    HW195082   0.672   8.707   1.017 -0.6995  1.9950  1.1326
30559SOL    HW295083   0.816   8.716   1.063 -0.2338  0.4962  0.0341
30560SOL     OW95084  10.534   1.774   1.886  0.8800  0.4393 -0.9117
30560SOL    HW195085  10.596   1.799   1.956  0.7308 -1.0124 -0.2545
30560SOL    HW295086  10.450   1.811   1.914  1.0373  0.7669 -0.8605
30561SOL     OW95087   1.809  10.573  10.111 -0.2801  0.2971 -0.2432
30561SOL    HW195088   1.723  10.554  10.075 -0.3347  0.1062 -0.0114
30561SOL    HW295089   1.859  10.492  10.100 -0.2509  0.2842 -0.0265
30562SOL     OW95090   1.009   2.215   1.281 -0.6098  0.0023  0.0986
30562SOL    HW195091   0.967   2.132   1.258 -0.9585  0.3146 -0.4071
30562SOL    HW295092   1.043   2.249   1.198 -0.1119  0.1713  0.3684
30563SOL     OW95093   6.397   4.439   8.337  0.1276 -0.0889  0.3736
30563SOL    HW195094   6.422   4.404   8.423 -2.0549 -1.1487  0.6280
30563SOL    HW295095   6.338   4.512   8.357 -0.5249 -0.4469 -0.2048
30564SOL     OW95096   9.221   1.479   4.629 -0.4243  0.0418 -0.2411
30564SOL    HW195097   9.129   1.463   4.650  0.6584 -3.3644  2.5630
30564SOL    HW295098   9.243   1.412   4.564  0.5100 -0.3961  0.5105
30565SOL     OW95099   7.143   2.187   6.997 -0.1926 -0.0688  0.2701
30565SOL    HW195100   7.100   2.272   7.004 -0.4278 -0.3497  2.5042
30565SOL    HW295101   7.071   2.124   6.987  0.0207  0.0521 -2.4022
30566SOL     OW95102   9.666   6.715  10.823  0.2738  0.4998 -0.3002
30566SOL    HW195103   9.646   6.639  10.877  0.5660  1.8070  1.7191
30566SOL    HW295104   9.729   6.683  10.758  0.3813 -0.9711  0.5122
30567SOL     OW95105   8.022   5.909   6.525  0.3718 -0.3492 -0.4355
30567SOL    HW195106   7.930   5.918   6.501  0.5298  0.2816 -0.8246
30567SOL    HW295107   8.070   5.929   6.445  0.8606  0.0416 -0.0532
30568SOL     OW95108   1.219   3.108   7.368 -0.3780 -0.3194  0.1257
30568SOL    HW195109   1.152   3.152   7.419  0.1516  0.2442  0.3323
30568SOL    HW295110   1.237   3.028   7.417 -1.1711 -0.6689 -0.1328
30569SOL     OW95111   7.595   5.508   0.022 -0.1262  0.3916 -0.4170
30569SOL    HW195112   7.620   5.575   0.085 -1.9727  1.3968 -0.7318
30569SOL    HW295113   7.567   5.434   0.075  1.3652  0.0583 -0.0717
30570SOL     OW95114   2.498   0.020   4.509  0.1497  0.3798 -0.3672
30570SOL    HW195115   2.517  -0.074   4.510 -0.2627  0.3050  0.3895
30570SOL    HW295116   2.410   0.027   4.546 -0.3696  0.9365 -1.6687
30571SOL     OW95117   1.057   7.659   0.587 -0.0424 -0.1306 -0.4026
30571SOL    HW195118   1.096   7.714   0.655  1.1094  1.4454 -2.3118
30571SOL    HW295119   1.126   7.597   0.564 -0.1400 -0.1125 -0.7437
30572SOL     OW95120   5.599   6.307   8.618 -0.6424 -0.0352  0.4165
30572SOL    HW195121   5.537   6.345   8.681 -0.5315  0.3143  0.3145
30572SOL    HW295122   5.684   6.318   8.659  0.0804  5.0131 -2.0596
30573SOL     OW95123  10.393   6.119   2.190  0.9989 -0.6260  0.6289
30573SOL    HW195124  10.395   6.048   2.125 -0.4477 -0.4417  0.3592
30573SOL    HW295125  10.450   6.186   2.154 -1.6938  0.5135 -1.7179
30574SOL     OW95126   5.837   1.084   6.179 -0.0934 -0.8158 -0.3976
30574SOL    HW195127   5.756   1.134   6.189  0.7873  0.3943  0.8762
30574SOL    HW295128   5.831   1.014   6.245 -0.0366 -0.6311 -0.1955
30575SOL     OW95129   3.595   6.084   8.596  0.2323  0.1994 -0.0468
30575SOL    HW195130   3.687   6.060   8.587  1.1011  2.5714  1.7451
30575SOL    HW295131   3.547   6.002   8.593  2.1894 -0.8733 -3.4427
30576SOL     OW95132   0.297   2.732   7.474  0.2111  0.5365 -0.2566
30576SOL    HW195133   0.297   2.687   7.390  0.4873  1.4131 -0.7244
30576SOL    HW295134   0.341   2.671   7.533 -1.7940 -0.9721 -0.2486
30577SOL     OW95135   0.782   0.485  10.525 -1.0560  0.3899 -0.1103
30577SOL    HW195136   0.738   0.416  10.575  1.9450 -1.1537  0.5004
30577SOL    HW295137   0.768   0.460  10.433  0.0099 -1.0970  0.1011
30578SOL     OW95138   4.673   4.953   3.317  0.1250 -0.0894 -0.1074
30578SOL    HW195139   4.767   4.964   3.304  0.5563 -2.1217  1.1386
30578SOL    HW295140   4.649   4.881   3.259 -0.3468 -0.6785  0.8150
30579SOL     OW95141   7.797   1.934   5.313  0.2584 -0.3552  0.2275
30579SOL    HW195142   7.766   1.906   5.227  2.0639  0.6876 -0.7875
30579SOL    HW295143   7.721   1.923   5.370 -1.1827 -0.4144 -1.6390
30580SOL     OW95144   9.578   3.413   4.767 -0.1885 -0.7415  0.3650
30580SOL    HW195145   9.538   3.328   4.747  0.1670 -0.5233 -1.3015
30580SOL    HW295146   9.504   3.471   4.785 -0.5392 -0.8867 -0.5737
30581SOL     OW95147   6.669  10.063   1.066 -0.2305  0.5109  0.3428
30581SOL    HW195148   6.660  10.156   1.047 -1.3625  0.1015 -1.2319
30581SOL    HW295149   6.673  10.021   0.980  1.7901 -0.7622  1.0161
30582SOL     OW95150   9.783   4.148   4.946 -0.0782 -0.1770 -0.3811
30582SOL    HW195151   9.727   4.218   4.978 -0.2222 -0.6300  0.3925
30582SOL    HW295152   9.725   4.090   4.897 -0.4285 -0.9757  0.9423
30583SOL     OW95153   8.685   2.399   7.617  0.0504 -0.2149  0.0539
30583SOL    HW195154   8.779   2.387   7.601  0.3649 -0.6559  2.0885
30583SOL    HW295155   8.673   2.494   7.618  0.3548 -0.1585 -0.7525
30584SOL     OW95156   8.949   8.365   6.191 -0.0817 -0.3533 -0.1780
30584SOL    HW195157   8.899   8.310   6.251 -0.1679 -0.0593  0.0202
30584SOL    HW295158   8.886   8.391   6.123 -0.6934  1.5843  1.0968
30585SOL     OW95159   8.773   9.206   6.572  0.3628 -0.1131  0.4204
30585SOL    HW195160   8.756   9.113   6.590 -1.7176  0.0499 -0.5240
30585SOL    HW295161   8.689   9.240   6.539  1.4058  1.8395 -0.3208
30586SOL     OW95162  10.760   8.396   8.325 -0.0625 -0.1240  0.0859
30586SOL    HW195163  10.799   8.454   8.260  1.3127 -1.7519 -0.5628
30586SOL    HW295164  10.679   8.365   8.284  1.0454 -1.5385 -1.1055
30587SOL     OW95165   7.934   3.308   1.151 -0.6409  0.4166  0.2989
30587SOL    HW195166   7.953   3.402   1.153 -1.1293  0.5005  1.1342
30587SOL    HW295167   7.986   3.275   1.078  1.7781  0.8729  1.7367
30588SOL     OW95168   4.229   6.118   5.912 -0.9064  0.0008 -0.8364
30588SOL    HW195169   4.235   6.083   5.823 -0.4302  1.2950 -1.3180
30588SOL    HW295170   4.319   6.141   5.935 -0.7110 -2.2301  0.7804
30589SOL     OW95171   4.736   9.363   6.021  0.7276 -0.0577 -0.2192
30589SOL    HW195172   4.651   9.324   6.038  0.6499 -0.3481 -1.2116
30589SOL    HW295173   4.796   9.316   6.079  0.2874 -0.1802  0.1402
30590SOL     OW95174   9.483   5.080   7.569 -0.1141  0.1818 -0.5931
30590SOL    HW195175   9.483   4.997   7.521 -0.4800  0.9316 -1.8885
30590SOL    HW295176   9.397   5.084   7.610 -0.0262 -0.1589 -0.3664
30591SOL     OW95177   4.027   3.494   5.472  0.1557 -0.0993 -0.5845
30591SOL    HW195178   4.105   3.489   5.416  2.0389  0.9070  1.8566
30591SOL    HW295179   3.987   3.578   5.451  2.0553  1.2681  0.9879
30592SOL     OW95180   9.714   8.453   2.661 -0.2582 -0.4023 -0.0720
30592SOL    HW195181   9.699   8.547   2.662 -0.8998 -0.5058  0.2023
30592SOL    HW295182   9.749   8.435   2.574 -0.1957  0.0750 -0.1453
30593SOL     OW95183   3.045   3.888   2.725 -0.1096  0.2020 -0.0608
30593SOL    HW195184   3.059   3.831   2.800 -1.4243  0.9623  0.7760
30593SOL    HW295185   2.953   3.915   2.732 -0.1831  0.4713 -1.8028
30594SOL     OW95186   8.822   5.892   3.446 -0.4032  0.0433  0.2461
30594SOL    HW195187   8.799   5.957   3.513 -0.7745 -0.3538  0.5009
30594SOL    HW295188   8.746   5.887   3.389  0.3124  1.1707 -0.8489
30595SOL     OW95189   3.399   2.103   3.006  0.0039  0.5930 -0.1909
30595SOL    HW195190   3.411   2.019   3.051  1.7127  1.3038  0.7033
30595SOL    HW295191   3.312   2.132   3.031 -0.3624 -0.6205 -0.0260
30596SOL     OW95192   8.805   3.734   8.152  0.0802  0.6163 -0.2927
30596SOL    HW195193   8.893   3.769   8.148  0.8623 -1.2735 -0.3535
30596SOL    HW295194   8.785   3.730   8.246  0.2992  0.5111 -0.2494
30597SOL     OW95195   1.981   0.670   8.628 -0.3337  0.2938 -0.3940
30597SOL    HW195196   1.943   0.750   8.589 -1.0941 -0.4816 -1.2987
30597SOL    HW295197   2.038   0.635   8.559 -2.1657 -1.4263 -1.0896
30598SOL     OW95198   2.347   1.949   0.451  0.0580 -0.2430  0.2018
30598SOL    HW195199   2.315   1.874   0.401  0.4162  0.2336 -0.7499
30598SOL    HW295200   2.379   1.911   0.532  3.2177 -1.5771 -1.5861
30599SOL     OW95201   2.232  10.082   0.930 -0.2792 -0.4557 -0.1152
30599SOL    HW195202   2.217  10.173   0.905  0.7417 -0.1166  0.4833
30599SOL    HW295203   2.181  10.070   1.010 -0.6042 -0.4849 -0.3247
30600SOL     OW95204   7.445   9.700   5.225  0.3570  0.5383  0.0622
30600SOL    HW195205   7.530   9.729   5.192  0.1039  0.2451 -0.8432
30600SOL    HW295206   7.382   9.762   5.188  0.1172  0.4550  0.3285
30601SOL     OW95207   5.660   2.364   5.674  0.2416  0.1409  0.0406
30601SOL    HW195208   5.670   2.397   5.764  2.4721  1.2122 -0.5804
30601SOL    HW295209   5.698   2.277   5.676  1.6123  0.7200 -0.1806
30602SOL     OW95210   1.838   5.068   0.270 -0.5718  0.0604  0.1755
30602SOL    HW195211   1.924   5.031   0.248 -1.2251 -1.3261 -0.0944
30602SOL    HW295212   1.839   5.076   0.365  0.7327  2.2636  0.0153
30603SOL     OW95213   3.346   0.395  10.879  0.4652 -0.2805 -0.1791
30603SOL    HW195214   3.374   0.355  10.962 -0.5115 -1.1143 -0.2322
30603SOL    HW295215   3.266   0.347  10.856  0.4454  0.2997 -1.3430
30604SOL     OW95216   6.214   2.478   0.610  0.2809 -0.6014  0.1262
30604SOL    HW195217   6.188   2.522   0.529 -0.1574  0.2231  0.7188
30604SOL    HW295218   6.295   2.522   0.636 -0.0149 -0.3296  0.5764
30605SOL     OW95219   9.566   6.744   8.628 -0.5681  0.4300  0.4335
30605SOL    HW195220   9.659   6.726   8.633 -0.8256 -0.4618  2.2717
30605SOL    HW295221   9.526   6.659   8.608 -0.9742  0.8956 -0.8549
30606SOL     OW95222   8.552   4.222   1.657 -0.0801 -0.0447  0.7331
30606SOL    HW195223   8.624   4.165   1.630 -0.4558  0.2372 -0.9145
30606SOL    HW295224   8.562   4.229   1.753 -0.4332 -3.3755  1.0713
30607SOL     OW95225   5.811   2.724   2.551  0.1010  0.6420  0.0060
30607SOL    HW195226   5.722   2.702   2.522 -0.1306  0.7692  0.6062
30607SOL    HW295227   5.798   2.782   2.626  0.7043  1.5632 -0.5954
30608SOL     OW95228   5.554  10.288   9.892  0.4669  0.1447  0.1324
30608SOL    HW195229   5.512  10.370   9.918  1.2132  0.2116  1.1605
30608SOL    HW295230   5.505  10.220   9.940  1.8249  0.2638  1.7022
30609SOL     OW95231   3.918   9.713   3.512  0.0806  0.3246 -0.3392
30609SOL    HW195232   3.874   9.760   3.583  1.2673  0.3037  0.4267
30609SOL    HW295233   3.983   9.658   3.556  0.2532 -0.3367 -1.3904
30610SOL     OW95234   2.043   5.136   3.585 -0.3819  0.1549 -0.0531
30610SOL    HW195235   1.985   5.208   3.608 -1.0631 -0.0199 -1.2119
30610SOL    HW295236   2.094   5.168   3.511 -1.4035 -0.9012 -1.2360
30611SOL     OW95237   8.275   4.206   2.063 -0.4302 -0.2085 -0.2058
30611SOL    HW195238   8.250   4.220   2.155 -0.1272  0.3211 -0.2014
30611SOL    HW295239   8.282   4.111   2.055 -0.3577 -0.2555  0.3524
30612SOL     OW95240   0.582  10.732   6.205 -0.2414  0.2274  0.0230
30612SOL    HW195241   0.597  10.641   6.180  2.8166  0.7138 -0.0613
30612SOL    HW295242   0.572  10.730   6.300  0.2642 -0.1607  0.0697
30613SOL     OW95243  10.302   2.177   2.670  0.5857 -0.7535  0.0415
30613SOL    HW195244  10.385   2.224   2.659  0.8913 -2.0018 -3.7142
30613SOL    HW295245  10.328   2.091   2.706  0.9201 -1.0586 -0.9109
30614SOL     OW95246   0.644   6.728  10.380 -0.3460 -0.1494  0.4430
30614SOL    HW195247   0.582   6.796  10.353  0.2379  1.2017  2.3965
30614SOL    HW295248   0.729   6.763  10.355 -0.2081 -1.3029 -0.7910
30615SOL     OW95249   8.701   5.348   1.436  0.2016 -0.4246 -0.9883
30615SOL    HW195250   8.615   5.308   1.448  0.5139 -0.8518 -0.1361
30615SOL    HW295251   8.696   5.389   1.350 -0.7044 -0.8280 -1.1380
30616SOL     OW95252   5.052   0.939   0.564 -0.5013  0.2861 -0.3209
30616SOL    HW195253   5.129   0.988   0.533 -1.0243  0.4415 -1.4038
30616SOL    HW295254   5.088   0.856   0.596  0.3679  1.2768  1.3177
30617SOL     OW95255   5.410  10.151   1.458 -0.3773  0.2639 -0.0468
30617SOL    HW195256   5.335  10.198   1.493 -0.2652 -0.0173  0.5750
30617SOL    HW295257   5.381  10.119   1.372 -0.2546  1.9696 -0.7382
30618SOL     OW95258   8.713   2.616   0.180 -0.4024 -0.5659  0.1359
30618SOL    HW195259   8.680   2.564   0.253  1.2621 -0.8495  0.7118
30618SOL    HW295260   8.784   2.668   0.217  1.6574 -1.9947 -1.5881
30619SOL     OW95261   9.006   4.902   2.139 -0.7093 -0.2813  0.4202
30619SOL    HW195262   9.009   4.859   2.054 -0.9967  1.6079 -0.5747
30619SOL    HW295263   8.919   4.880   2.174 -0.3836 -1.4935  0.4680
30620SOL     OW95264   4.418   1.832   9.350 -0.0848  0.2090  0.1317
30620SOL    HW195265   4.422   1.888   9.272  1.8905  0.6403  0.5180
30620SOL    HW295266   4.345   1.867   9.401 -2.4178 -1.0141 -2.1889
30621SOL     OW95267   5.542   0.383   2.778  0.0203  0.1326  0.7922
30621SOL    HW195268   5.491   0.321   2.830  0.7381 -0.2313  1.0519
30621SOL    HW295269   5.479   0.417   2.714 -0.4015 -0.7611  0.7290
30622SOL     OW95270   2.205   3.621   2.675  0.4449 -0.5175 -0.4495
30622SOL    HW195271   2.230   3.604   2.584 -1.3155 -0.2657 -1.0026
30622SOL    HW295272   2.208   3.535   2.717 -0.5113 -0.9301 -1.2073
30623SOL     OW95273   2.075   4.373   5.535  0.0745  0.5116  0.2132
30623SOL    HW195274   2.124   4.330   5.605  1.1880  0.6911 -0.4382
30623SOL    HW295275   2.080   4.466   5.556 -0.5818  0.4803  0.5169
30624SOL     OW95276   1.849   5.153   9.849  0.4351 -0.2718  0.1168
30624SOL    HW195277   1.794   5.219   9.891  2.0537  0.6313  0.8333
30624SOL    HW295278   1.791   5.077   9.839 -0.7543  0.4404  1.4323
30625SOL     OW95279   3.347   4.191   9.966  0.2749  0.3659 -0.3577
30625SOL    HW195280   3.271   4.176   9.909 -0.4171  0.5974  0.4959
30625SOL    HW295281   3.312   4.184  10.055  1.2445  0.5375  0.0404
30626SOL     OW95282   2.299   2.035   3.981  0.0722 -0.3478 -0.6335
30626SOL    HW195283   2.330   1.949   4.008 -1.5117 -0.8562 -0.3894
30626SOL    HW295284   2.210   2.041   4.018  0.6245  1.8838  0.4098
30627SOL     OW95285   6.522   8.708   6.116 -0.6295  0.2042  0.5662
30627SOL    HW195286   6.442   8.760   6.127 -1.1104 -0.2690 -0.5999
30627SOL    HW295287   6.520   8.681   6.024 -0.0414 -1.2962  0.9889
30628SOL     OW95288   5.472   9.075   8.167  0.0993 -0.2056 -0.2088
30628SOL    HW195289   5.433   9.000   8.213  2.0068 -1.7148 -0.9601
30628SOL    HW295290   5.559   9.084   8.205  0.9401 -0.1827 -2.0870
30629SOL     OW95291   9.609   2.780   7.690  0.4091 -0.0467  0.0209
30629SOL    HW195292   9.680   2.726   7.657  2.0157  1.6784  0.5100
30629SOL    HW295293   9.646   2.822   7.768 -1.2976  0.5337  0.5420
30630SOL     OW95294   8.666   3.391   0.656 -0.1624  0.9607  0.1108
30630SOL    HW195295   8.609   3.314   0.654  0.5255  0.4754 -1.2737
30630SOL    HW295296   8.605   3.465   0.647 -0.7720  0.5694  0.8959
30631SOL     OW95297   2.926   6.727   5.963  0.4182  0.0081 -0.3844
30631SOL    HW195298   2.907   6.711   6.055 -0.2109 -1.3491 -0.7482
30631SOL    HW295299   2.862   6.794   5.937  0.7444  0.5585  0.2150
30632SOL     OW95300   4.565   6.171   7.093  0.5714 -0.4286  0.0321
30632SOL    HW195301   4.594   6.162   7.002  1.8737 -0.5037  0.4487
30632SOL    HW295302   4.607   6.098   7.138  1.5480  0.7711  1.0911
30633SOL     OW95303   7.224   9.615  10.968  0.2103 -0.0317  0.3274
30633SOL    HW195304   7.169   9.668  11.026  1.2762  0.5300  0.8246
30633SOL    HW295305   7.302   9.595  11.020  0.9161 -0.0097 -0.7086
30634SOL     OW95306   5.096   7.180   7.454 -0.1815  0.0646 -0.2070
30634SOL    HW195307   5.141   7.235   7.389 -0.9462 -0.1016 -0.8909
30634SOL    HW295308   5.104   7.091   7.419  1.4875 -0.3343  1.1466
30635SOL     OW95309   0.235   9.146   8.992  0.1475 -0.1282 -0.4476
30635SOL    HW195310   0.209   9.230   8.956 -0.1906 -0.5566 -1.2153
30635SOL    HW295311   0.309   9.166   9.050 -0.4002  0.7853 -0.0609
30636SOL     OW95312   6.931   9.571   5.767 -0.1243  0.0301  0.7079
30636SOL    HW195313   6.967   9.636   5.706 -1.1593 -0.1733 -0.1549
30636SOL    HW295314   6.859   9.531   5.718 -0.2628 -0.9206  1.6787
30637SOL     OW95315   9.321   3.355  10.719  0.1821 -0.4005  0.3771
30637SOL    HW195316   9.254   3.287  10.728  0.1488 -0.1706  2.0410
30637SOL    HW295317   9.366   3.355  10.804  1.2927  0.4939 -0.2026
30638SOL     OW95318   0.215   4.346   7.411 -0.3978  0.2503 -0.3331
30638SOL    HW195319   0.205   4.438   7.387  0.4932  0.1418 -1.2133
30638SOL    HW295320   0.288   4.345   7.473 -0.6503  0.1910 -0.0428
30639SOL     OW95321   1.554   4.007   2.331 -0.2352 -0.2703  0.0863
30639SOL    HW195322   1.481   3.959   2.371  0.1397 -0.9410 -0.0250
30639SOL    HW295323   1.573   3.958   2.250 -1.6790  1.6598 -1.4794
30640SOL     OW95324   8.190   8.142   6.408  0.7661 -0.0500  0.1540
30640SOL    HW195325   8.211   8.054   6.439 -3.1093 -0.3310  2.2813
30640SOL    HW295326   8.119   8.129   6.345  1.4899  1.4183 -1.0025
30641SOL     OW95327   2.305   4.969   8.799 -0.1807  0.3196 -0.5729
30641SOL    HW195328   2.232   5.023   8.769 -2.1639 -2.6815 -1.4029
30641SOL    HW295329   2.265   4.901   8.852  2.0469 -1.3611 -0.9548
30642SOL     OW95330   5.192   8.523   1.133 -1.1540 -0.2646  0.0378
30642SOL    HW195331   5.241   8.546   1.054 -0.0551 -0.6743  0.5957
30642SOL    HW295332   5.159   8.607   1.165  0.7048  0.2627  0.6475
30643SOL     OW95333   4.299   9.889  10.820  0.4314 -0.1806 -0.5376
30643SOL    HW195334   4.383   9.848  10.804  0.7613  0.4702 -0.5004
30643SOL    HW295335   4.320   9.981  10.839 -0.3077  0.0876 -0.9578
30644SOL     OW95336   8.027   8.179   5.271 -0.6603  0.0124  0.2598
30644SOL    HW195337   8.096   8.245   5.267  1.9122 -2.6785 -2.9318
30644SOL    HW295338   8.068   8.103   5.314 -2.1331 -1.0540 -0.1628
30645SOL     OW95339   7.672  10.463   0.169  0.0541  0.4797  0.3722
30645SOL    HW195340   7.602  10.493   0.111  1.3511 -0.9736 -2.0519
30645SOL    HW295341   7.635  10.387   0.214 -0.0040 -0.2271 -0.8311
30646SOL     OW95342  10.366   5.981   1.949 -0.0643 -0.0116 -0.4433
30646SOL    HW195343  10.302   5.911   1.936 -0.8143  0.7510 -0.9096
30646SOL    HW295344  10.419   5.980   1.869  1.3669 -1.5218  0.5181
30647SOL     OW95345   7.722   9.752   2.247 -0.8937 -0.0145 -0.0098
30647SOL    HW195346   7.806   9.720   2.213  0.2850  3.1721 -0.1894
30647SOL    HW295347   7.662   9.678   2.234  1.3521 -1.6045 -1.8244
30648SOL     OW95348   4.560   7.021   8.662  0.4744 -0.3952  0.2094
30648SOL    HW195349   4.629   7.077   8.699  0.0787 -1.3461  2.4911
30648SOL    HW295350   4.606   6.941   8.638  0.5990 -0.0572 -0.6971
30649SOL     OW95351   0.748   8.183   7.724  0.3661 -0.2410 -0.1520
30649SOL    HW195352   0.786   8.116   7.780 -0.2039 -0.6449 -0.2513
30649SOL    HW295353   0.680   8.224   7.778  0.2489 -0.2021 -0.3294
30650SOL     OW95354   1.323  10.099   4.077 -0.5907  0.2651  0.8899
30650SOL    HW195355   1.373  10.143   4.145  1.1049  1.6429 -1.1664
30650SOL    HW295356   1.264  10.167   4.042 -1.3055 -0.3702  0.8311
30651SOL     OW95357   9.847   3.447   2.598  0.4243  0.1903 -0.2788
30651SOL    HW195358   9.769   3.458   2.543  0.4235 -0.3018 -0.3770
30651SOL    HW295359   9.896   3.377   2.556  0.0010 -0.7843  0.8304
30652SOL     OW95360   6.553   8.935   2.310  0.7347 -0.1947 -0.5538
30652SOL    HW195361   6.485   8.868   2.299  1.1909 -0.6186 -0.8089
30652SOL    HW295362   6.613   8.920   2.237  0.7916  0.5515 -0.6632
30653SOL     OW95363   5.091   7.551   3.807 -0.2453  0.4068  0.2813
30653SOL    HW195364   5.169   7.526   3.856 -0.9063  1.7291  2.1013
30653SOL    HW295365   5.070   7.639   3.840 -2.7844 -0.1422  0.2218
30654SOL     OW95366   9.141   1.202  10.485 -0.4159  0.0449 -0.2475
30654SOL    HW195367   9.105   1.157  10.561  0.9264  0.8122  0.8561
30654SOL    HW295368   9.149   1.293  10.513  0.4335  0.2632 -1.1823
30655SOL     OW95369   8.640   7.278   8.417  0.3928  0.1228  0.2683
30655SOL    HW195370   8.578   7.279   8.344  0.0274 -1.6819  0.5352
30655SOL    HW295371   8.689   7.359   8.407  1.7321 -1.0136 -3.2253
30656SOL     OW95372   6.561   3.345   0.323  0.2025  0.0964  0.4919
30656SOL    HW195373   6.599   3.352   0.411 -0.8266 -0.2958  0.9752
30656SOL    HW295374   6.539   3.436   0.300  1.2976  0.3131  0.2552
30657SOL     OW95375  10.152   8.935   9.163 -0.0939  0.5396  0.0385
30657SOL    HW195376  10.066   8.957   9.199 -0.2570 -1.7080  1.0547
30657SOL    HW295377  10.175   9.012   9.111 -2.7168  1.1838 -0.2736
30658SOL     OW95378   5.722   8.086   3.231 -0.6763 -0.3386  0.2371
30658SOL    HW195379   5.677   8.001   3.233 -0.5751 -0.3608  1.7959
30658SOL    HW295380   5.811   8.067   3.259 -0.3315  0.1105 -0.5206
30659SOL     OW95381   3.416   0.736   1.982 -0.0639 -0.3047 -0.1677
30659SOL    HW195382   3.359   0.662   1.957  0.7418 -0.4863 -1.4862
30659SOL    HW295383   3.503   0.709   1.955  0.0744  1.6057 -1.7014
30660SOL     OW95384   2.609   2.122   9.529 -0.5153 -0.1667  0.1789
30660SOL    HW195385   2.673   2.051   9.535 -1.0798 -0.6059  1.2436
30660SOL    HW295386   2.662   2.201   9.523  0.1187 -0.7136 -1.5446
30661SOL     OW95387   1.831   0.867   3.585 -0.1751 -0.4661 -0.5147
30661SOL    HW195388   1.893   0.825   3.645 -0.0229 -0.1310 -0.4394
30661SOL    HW295389   1.770   0.797   3.561 -0.7276 -0.4043  0.6789
30662SOL     OW95390   0.701   7.414  10.543  0.1942 -0.3592  0.1556
30662SOL    HW195391   0.748   7.339  10.508 -0.6591 -0.6021 -0.4972
30662SOL    HW295392   0.610   7.398  10.520  0.0899  1.2006 -0.5744
30663SOL     OW95393   3.517   4.079   6.928  0.1883  0.1129 -0.0208
30663SOL    HW195394   3.501   3.985   6.916 -0.1379  0.2928 -1.1181
30663SOL    HW295395   3.605   4.084   6.963  1.2546 -0.4976 -2.4846
30664SOL     OW95396   3.961   5.528  10.113 -0.7091  0.0725  0.0244
30664SOL    HW195397   4.047   5.517  10.073 -0.8622 -2.0904  0.2312
30664SOL    HW295398   3.917   5.594  10.059 -0.0037 -0.9985 -1.8809
30665SOL     OW95399   3.489   3.097  10.142  0.0688  0.4093 -0.3065
30665SOL    HW195400   3.459   3.109  10.232 -0.1913  0.9545 -0.4635
30665SOL    HW295401   3.430   3.032  10.105 -3.2942  4.0847 -1.7307
30666SOL     OW95402  10.241   5.130   6.979 -0.4222  0.1505 -0.7746
30666SOL    HW195403  10.226   5.183   7.057  1.2878  0.7686 -0.8422
30666SOL    HW295404  10.266   5.194   6.912 -0.6364 -0.5058 -1.4826
30667SOL     OW95405   0.260  10.504   8.155  0.7968 -0.1053 -0.3755
30667SOL    HW195406   0.171  10.479   8.180  0.3783  0.8200 -0.9087
30667SOL    HW295407   0.301  10.532   8.237  0.9033 -1.4145  0.0281
30668SOL     OW95408   2.396   1.957   3.331  0.6790 -0.1894  0.3621
30668SOL    HW195409   2.352   2.011   3.396 -3.0046 -1.1790 -1.1929
30668SOL    HW295410   2.413   2.017   3.258  2.1617  0.2394  1.0415
30669SOL     OW95411   4.079   1.579   5.712 -0.4746  0.3831 -0.2278
30669SOL    HW195412   4.040   1.660   5.746 -1.7014  0.3652 -1.5258
30669SOL    HW295413   4.017   1.549   5.646  0.0642 -1.5334  0.1114
30670SOL     OW95414   1.973   8.253   8.867 -0.1725  0.1037 -0.3775
30670SOL    HW195415   1.940   8.246   8.777 -0.7690 -1.1690 -0.0642
30670SOL    HW295416   2.032   8.329   8.865 -0.4646  0.3045 -1.7532
30671SOL     OW95417   4.784   2.521   5.772  0.0302 -0.4756  0.0212
30671SOL    HW195418   4.748   2.433   5.782 -1.7758  0.1934 -0.2780
30671SOL    HW295419   4.719   2.567   5.719  1.4653  0.7374 -0.7196
30672SOL     OW95420   7.400   3.672   8.441 -0.1336 -0.2952 -0.0844
30672SOL    HW195421   7.309   3.700   8.431 -0.2220 -0.8042 -0.7868
30672SOL    HW295422   7.443   3.744   8.487 -0.4904  0.7247 -1.3124
30673SOL     OW95423   7.709   3.618   2.801 -0.2011  0.1299  0.3888
30673SOL    HW195424   7.700   3.702   2.848 -0.0686 -0.3827  1.3422
30673SOL    HW295425   7.803   3.601   2.801 -0.0983  0.6205 -0.9631
30674SOL     OW95426   8.873   3.383   6.356  1.1202 -0.2870  0.1397
30674SOL    HW195427   8.839   3.355   6.272  1.4668 -0.6339  0.1156
30674SOL    HW295428   8.857   3.478   6.358  0.6777 -0.3598 -0.1097
30675SOL     OW95429   1.558   0.223   4.307  0.3286 -0.2818 -0.3627
30675SOL    HW195430   1.520   0.135   4.304 -0.4143  0.0263  0.1335
30675SOL    HW295431   1.484   0.282   4.298  0.7919  0.3096 -0.3344
30676SOL     OW95432  10.412   5.390   5.186  0.3325 -0.0179  0.5583
30676SOL    HW195433  10.436   5.478   5.214  0.0182  0.3695 -0.3541
30676SOL    HW295434  10.461   5.332   5.244 -0.1366  0.7524  1.7278
30677SOL     OW95435   7.280  10.465   4.964  0.4446 -0.7351  0.2275
30677SOL    HW195436   7.321  10.465   5.050  0.5610  2.0610  0.2064
30677SOL    HW295437   7.343  10.422   4.907  1.2316 -0.8121  1.1457
30678SOL     OW95438   3.388   1.436   1.571 -0.4545 -0.2696 -0.5113
30678SOL    HW195439   3.479   1.414   1.592 -0.6095 -0.8283 -0.4326
30678SOL    HW295440   3.355   1.478   1.651 -0.6873 -1.3336 -0.0400
30679SOL     OW95441   9.087   6.314   1.062 -0.0797 -0.3995 -0.3775
30679SOL    HW195442   9.042   6.341   1.142 -1.9799 -1.4982 -1.0482
30679SOL    HW295443   9.133   6.233   1.087 -1.0540 -1.0019 -0.5067
30680SOL     OW95444   7.581   7.627   5.424 -0.4803  0.3133  0.0367
30680SOL    HW195445   7.591   7.716   5.391  0.4319  0.5887  1.0138
30680SOL    HW295446   7.546   7.577   5.350 -1.6723  1.6269 -0.2983
30681SOL     OW95447   6.162   5.040   3.678  0.8322 -0.0504  0.1184
30681SOL    HW195448   6.108   4.973   3.636  0.3101  0.5601 -0.1692
30681SOL    HW295449   6.235   4.990   3.715 -0.2661 -0.9710  1.1027
30682SOL     OW95450   8.093   2.671   0.852 -0.1871 -0.5023  0.2422
30682SOL    HW195451   8.140   2.742   0.897  0.0495 -0.4974 -0.0130
30682SOL    HW295452   8.129   2.670   0.764 -0.6867 -0.4841  0.0354
30683SOL     OW95453   4.073   2.880   5.035  0.5132  0.4975 -0.1440
30683SOL    HW195454   4.054   2.953   4.977  0.9928  2.4591  2.0784
30683SOL    HW295455   4.022   2.807   5.001  0.1642  1.8207 -2.5112
30684SOL     OW95456   9.658   0.938   7.304  0.2830 -0.4076  0.5909
30684SOL    HW195457   9.696   1.026   7.299  0.8031 -0.7301 -1.4341
30684SOL    HW295458   9.722   0.882   7.261 -2.4917 -0.9430 -3.0779
30685SOL     OW95459   1.465  10.706   2.655 -0.1183 -0.4256 -0.2308
30685SOL    HW195460   1.431  10.758   2.582  0.5611 -1.8638 -1.5939
30685SOL    HW295461   1.392  10.649   2.679 -0.2926 -0.0578  0.1036
30686SOL     OW95462   4.868   1.790   2.111 -0.5873 -0.4683 -0.1095
30686SOL    HW195463   4.829   1.870   2.146  0.3565 -0.2341  0.4163
30686SOL    HW295464   4.931   1.820   2.046 -0.4944 -0.7998 -0.1722
30687SOL     OW95465   0.162   6.376   4.533  0.6128  0.5599 -0.3918
30687SOL    HW195466   0.249   6.383   4.495  0.7740  1.6547  0.1389
30687SOL    HW295467   0.155   6.285   4.563  0.8377 -0.0478 -2.1472
30688SOL     OW95468   0.189  10.358   2.613  0.4893 -0.0119  0.3023
30688SOL    HW195469   0.188  10.263   2.605  1.0909  0.0239 -0.3070
30688SOL    HW295470   0.127  10.378   2.683  0.2499 -0.8417  0.3263
30689SOL     OW95471   1.671   4.388   3.582  0.1637 -0.4225  0.1072
30689SOL    HW195472   1.687   4.465   3.637 -2.7515 -0.4184  1.0363
30689SOL    HW295473   1.749   4.381   3.528  0.6503  2.9869  0.2356
30690SOL     OW95474   3.878   2.045   3.310 -0.2275  0.6652 -0.3859
30690SOL    HW195475   3.923   2.127   3.287 -0.9622  1.4169  0.8246
30690SOL    HW295476   3.885   2.039   3.405 -0.3571 -0.5881 -0.4483
30691SOL     OW95477   7.809   0.504   8.551 -0.3928 -0.1932  0.9058
30691SOL    HW195478   7.738   0.534   8.608 -0.6831  0.1617  0.3590
30691SOL    HW295479   7.842   0.584   8.510 -2.2742 -0.7648 -1.8419
30692SOL     OW95480   5.358   1.438  10.109 -0.4224  0.1720  0.6904
30692SOL    HW195481   5.391   1.505  10.170  2.5877  0.3104 -1.0437
30692SOL    HW295482   5.297   1.486  10.053  0.4691  1.1261  0.5122
30693SOL     OW95483   4.537   0.344   8.664 -0.5159 -0.0589 -0.2206
30693SOL    HW195484   4.449   0.333   8.698  0.8012 -2.3716  2.6571
30693SOL    HW295485   4.550   0.439   8.658 -2.4091  0.3170  1.4016
30694SOL     OW95486   2.140   4.957   2.221 -0.0331  0.5289 -0.7815
30694SOL    HW195487   2.170   4.899   2.150 -1.6736 -1.0410 -0.2282
30694SOL    HW295488   2.066   5.005   2.183 -0.2684  0.4286 -0.4473
30695SOL     OW95489   6.707  10.789   4.998  0.1557  0.0101 -0.4871
30695SOL    HW195490   6.694  10.729   5.071  1.0824 -0.4129 -0.6676
30695SOL    HW295491   6.636  10.768   4.937 -1.5946  1.4630  0.9938
30696SOL     OW95492   9.826   7.006   7.311  0.5507  0.0563 -0.0689
30696SOL    HW195493   9.908   6.960   7.330  0.7777  0.0182 -1.0900
30696SOL    HW295494   9.821   7.007   7.215 -0.5999  0.1461 -0.0133
30697SOL     OW95495   0.311   2.255   7.638  0.7340 -0.0091 -0.0140
30697SOL    HW195496   0.353   2.243   7.723  0.3325  0.9446  0.3212
30697SOL    HW295497   0.221   2.277   7.658  0.4152 -0.6394 -0.7148
30698SOL     OW95498   3.330   3.267   3.637 -0.0126 -0.3841  0.4389
30698SOL    HW195499   3.395   3.276   3.707  0.0044  0.6275  0.2897
30698SOL    HW295500   3.365   3.317   3.564 -0.1188 -1.2882 -0.2458
30699SOL     OW95501   4.619   2.322   7.815 -0.7581  0.1253 -0.3568
30699SOL    HW195502   4.598   2.336   7.722 -0.6873  0.7789 -0.2722
30699SOL    HW295503   4.655   2.233   7.817  0.0412  0.4117 -1.0986
30700SOL     OW95504   9.189   9.048   5.298  0.2702  0.6476  0.3039
30700SOL    HW195505   9.172   9.051   5.204  0.8326 -0.1591  0.1706
30700SOL    HW295506   9.199   8.955   5.318  0.0118  0.8045  1.1917
30701SOL     OW95507   4.298   9.240   2.855 -0.4799 -0.8027 -0.1338
30701SOL    HW195508   4.373   9.296   2.872 -1.2793  0.5198 -0.9271
30701SOL    HW295509   4.292   9.235   2.760 -0.5535 -2.0558 -0.0773
30702SOL     OW95510  10.073   9.224   3.389 -0.3182 -0.0594  0.0513
30702SOL    HW195511  10.042   9.173   3.464 -0.7768 -1.9925 -1.4041
30702SOL    HW295512  10.110   9.159   3.329  0.6371  1.5145 -1.1262
30703SOL     OW95513   4.622  10.248   9.067  0.7823 -0.0771 -0.2236
30703SOL    HW195514   4.627  10.178   9.001  1.8349  1.1412 -1.4864
30703SOL    HW295515   4.557  10.217   9.130 -1.0283 -0.8303 -2.3789
30704SOL     OW95516   1.510   2.450  10.737  0.0140  0.2153  0.0820
30704SOL    HW195517   1.466   2.507  10.801 -0.2745 -1.0953  1.0805
30704SOL    HW295518   1.567   2.394  10.789  1.1974  0.3963 -1.0044
30705SOL     OW95519   8.929   9.089   8.526 -0.2638  0.3847 -0.5247
30705SOL    HW195520   9.003   9.150   8.526 -0.7917  1.0408 -1.4908
30705SOL    HW295521   8.915   9.069   8.434 -1.7832  0.8626 -0.4080
30706SOL     OW95522   3.977   3.915   0.965  0.6213 -0.6072 -0.1360
30706SOL    HW195523   3.887   3.892   0.942  0.1129  0.4149  0.7707
30706SOL    HW295524   4.010   3.838   1.012 -0.6991  0.0210  1.8935
30707SOL     OW95525   2.509   0.050   1.351  0.0741 -0.1886  0.3861
30707SOL    HW195526   2.470   0.124   1.303 -0.6190 -0.2494  0.8549
30707SOL    HW295527   2.603   0.059   1.336  0.0681  1.3479  1.2531
30708SOL     OW95528   7.660   0.452   6.199 -0.0661  0.2671  0.1946
30708SOL    HW195529   7.755   0.456   6.186  0.0191  1.5759  1.0860
30708SOL    HW295530   7.629   0.393   6.130  1.2560  0.7777 -0.8712
30709SOL     OW95531   2.356   2.772  10.450  0.4278 -0.1614 -0.4103
30709SOL    HW195532   2.276   2.824  10.443  1.5518  1.5218 -1.0082
30709SOL    HW295533   2.388   2.789  10.539 -0.2989 -1.4621  0.1017
30710SOL     OW95534   4.932   6.518   1.179 -0.2395  0.2419  0.7170
30710SOL    HW195535   4.886   6.480   1.105  0.1246 -1.0919  1.1696
30710SOL    HW295536   4.915   6.459   1.252  3.2517 -1.0254  0.5866
30711SOL     OW95537   1.434   7.280   6.820  0.0409  0.2996  0.2205
30711SOL    HW195538   1.464   7.369   6.803  0.5552  0.2151  0.6611
30711SOL    HW295539   1.344   7.290   6.849 -1.0259  0.4146 -2.9337
30712SOL     OW95540   0.943   3.915   4.302 -0.2118 -0.2743 -0.3265
30712SOL    HW195541   0.895   3.847   4.255 -0.7886 -0.6133  0.7456
30712SOL    HW295542   0.973   3.873   4.382  1.9268 -0.0745 -0.9829
30713SOL     OW95543   9.704   1.520   7.549  0.0694 -0.2560  0.0714
30713SOL    HW195544   9.798   1.502   7.551  0.2908  0.3391 -2.9060
30713SOL    HW295545   9.678   1.501   7.459 -2.8519 -1.2397  1.0664
30714SOL     OW95546   5.543   6.700   5.540  0.3872  0.3286  0.3146
30714SOL    HW195547   5.478   6.758   5.578 -1.7592 -3.0222  1.9808
30714SOL    HW295548   5.543   6.722   5.447 -1.0728  2.2837  0.7404
30715SOL     OW95549   9.071  10.679   6.689 -0.4767 -0.5245 -0.1515
30715SOL    HW195550   9.150  10.726   6.665 -1.0399  0.9085  0.6827
30715SOL    HW295551   9.100  10.613   6.752 -0.0904  0.7196  0.9924
30716SOL     OW95552   3.313   4.712   1.818 -0.9458  0.0945  0.1393
30716SOL    HW195553   3.367   4.633   1.820 -0.4431  0.4573  1.6763
30716SOL    HW295554   3.375   4.784   1.802 -1.2962  0.2736 -0.4521
30717SOL     OW95555   1.056   7.370  10.896 -0.5264 -0.2866  0.5336
30717SOL    HW195556   1.009   7.346  10.976 -0.0032 -1.1217  0.6011
30717SOL    HW295557   1.038   7.463  10.885 -1.5884 -0.4306  0.9590
30718SOL     OW95558   0.287   1.620  10.070 -0.0309  0.5197  0.4709
30718SOL    HW195559   0.254   1.532  10.091  2.1009 -0.1485  1.1299
30718SOL    HW295560   0.217   1.679  10.097 -1.1609 -0.9160  0.7728
30719SOL     OW95561  10.434   9.679   3.472 -0.1321 -0.3319  0.1447
30719SOL    HW195562  10.384   9.757   3.447 -1.6338 -1.8931 -1.9097
30719SOL    HW295563  10.513   9.713   3.512 -1.1065  2.2518 -0.0229
30720SOL     OW95564   7.514   7.806   3.956  0.0262 -0.0861 -0.4812
30720SOL    HW195565   7.602   7.774   3.978  0.5190  2.1523  0.9605
30720SOL    HW295566   7.465   7.727   3.932  1.5500 -1.7465  1.6449
30721SOL     OW95567   0.241   5.077   1.985 -0.1897 -0.1184  0.4687
30721SOL    HW195568   0.285   4.994   2.003  2.5423  1.0181 -0.6983
30721SOL    HW295569   0.253   5.128   2.066 -0.3779 -0.2325  0.5688
30722SOL     OW95570   6.421   7.919   3.156  0.7513 -0.3690  0.3150
30722SOL    HW195571   6.464   7.989   3.205  0.4868 -0.7728  1.1288
30722SOL    HW295572   6.381   7.964   3.081  1.8704  0.1236  0.0073
30723SOL     OW95573   6.382   2.087   9.949 -0.9116 -0.4788 -0.2651
30723SOL    HW195574   6.368   2.173   9.910 -1.2608 -0.6124 -0.4314
30723SOL    HW295575   6.439   2.104  10.024 -2.5302  0.1519  0.8311
30724SOL     OW95576  10.015   8.853   5.212 -0.2992 -0.4488 -0.2009
30724SOL    HW195577   9.920   8.866   5.206 -0.1647  0.1747 -1.0058
30724SOL    HW295578  10.052   8.931   5.172  0.5558 -1.0043 -0.4886
30725SOL     OW95579   1.505   6.687   6.036  0.2653 -0.3668  0.1525
30725SOL    HW195580   1.438   6.722   5.976 -0.6096 -1.8575  0.2334
30725SOL    HW295581   1.570   6.647   5.978 -0.4814 -1.6338  0.1720
30726SOL     OW95582   6.539   3.861  10.690 -0.7469  0.4359 -0.0064
30726SOL    HW195583   6.529   3.955  10.703 -0.0046  0.2539  2.1478
30726SOL    HW295584   6.483   3.821  10.758 -1.5938 -0.6901 -1.3343
30727SOL     OW95585   8.073   6.673  10.758  0.0217 -0.3328  1.1609
30727SOL    HW195586   8.147   6.633  10.712 -0.4131 -1.7618  1.6920
30727SOL    HW295587   7.996   6.630  10.722 -0.4441 -0.1300  1.9062
30728SOL     OW95588   7.822   4.985   1.930 -0.3385 -0.2458 -0.0159
30728SOL    HW195589   7.849   4.970   2.020  1.2060  0.6910 -0.3033
30728SOL    HW295590   7.828   4.899   1.888  2.3331 -0.0775 -0.0776
30729SOL     OW95591   1.322   0.654   9.113  0.3760  0.1338 -0.0795
30729SOL    HW195592   1.386   0.702   9.060  0.1714 -0.0541 -0.5022
30729SOL    HW295593   1.334   0.563   9.087  0.6104 -0.0153  0.5572
30730SOL     OW95594   9.584   0.890   8.403  0.0335  0.3880 -0.0472
30730SOL    HW195595   9.551   0.851   8.322  0.1376  0.6063 -0.1953
30730SOL    HW295596   9.674   0.916   8.383 -0.1474  1.0120 -0.0579
30731SOL     OW95597   8.004   8.052   2.985  0.0554  0.3085  0.0691
30731SOL    HW195598   8.004   8.147   2.976 -0.1010  0.2975 -0.0455
30731SOL    HW295599   8.073   8.021   2.927 -1.6564  0.1521 -1.9392
30732SOL     OW95600   9.586   6.866   5.874  0.1908  0.3852 -0.2376
30732SOL    HW195601   9.575   6.937   5.937 -0.9152  0.2810 -0.2992
30732SOL    HW295602   9.660   6.816   5.906 -2.3758 -1.6358  2.8632
30733SOL     OW95603   9.956   1.827   8.079  0.2901 -1.0483  0.2178
30733SOL    HW195604   9.861   1.822   8.079  0.2532 -0.3273  0.3128
30733SOL    HW295605   9.983   1.775   8.156  0.0568 -2.6218 -0.7351
30734SOL     OW95606   1.748   5.183   3.460  0.5104  0.4704 -0.1207
30734SOL    HW195607   1.800   5.103   3.462 -0.6354 -0.2720  1.0986
30734SOL    HW295608   1.658   5.153   3.445  0.0507  1.4993  0.4728
30735SOL     OW95609   4.921   7.443   9.450 -0.4311  0.6285  0.1510
30735SOL    HW195610   4.917   7.383   9.524 -0.7266 -0.8829 -1.0495
30735SOL    HW295611   5.012   7.471   9.446  0.0630 -0.9610 -0.1826
30736SOL     OW95612   8.399   2.594   2.243 -0.4752  0.1051  0.9402
30736SOL    HW195613   8.465   2.663   2.250  1.6421 -1.5812 -1.4076
30736SOL    HW295614   8.331   2.632   2.187  0.2008  0.6468  0.4707
30737SOL     OW95615   2.077  10.572   9.293  0.1999 -0.1371 -0.0426
30737SOL    HW195616   2.134  10.618   9.231 -1.2329  0.3802 -0.9961
30737SOL    HW295617   1.989  10.603   9.272 -0.4660 -1.1381  1.2295
30738SOL     OW95618   6.538   0.928   9.187 -0.1463  0.3745  0.3210
30738SOL    HW195619   6.515   1.003   9.243 -0.0080  1.6941 -1.3598
30738SOL    HW295620   6.487   0.855   9.223 -0.6231  1.3758  1.7156
30739SOL     OW95621   6.239   7.107   4.716  0.1007 -0.4329  1.0110
30739SOL    HW195622   6.166   7.060   4.756  0.0015 -0.8978  0.2983
30739SOL    HW295623   6.277   7.044   4.655 -1.6267  1.2374 -1.8717
30740SOL     OW95624   0.222   9.631   9.878 -0.5208  0.0518  0.4716
30740SOL    HW195625   0.170   9.631   9.959 -0.5568  0.1172  0.4482
30740SOL    HW295626   0.207   9.717   9.839 -0.7834 -0.1114  0.2147
30741SOL     OW95627   6.351   7.361   1.967  0.3324 -0.2812 -0.3400
30741SOL    HW195628   6.308   7.435   1.924 -0.3313 -0.4633 -0.0011
30741SOL    HW295629   6.374   7.393   2.054  1.1409 -0.0987 -0.6167
30742SOL     OW95630   2.843   4.170   8.868 -0.4469  0.1397  0.1343
30742SOL    HW195631   2.930   4.178   8.907 -0.5847 -0.5879  0.5878
30742SOL    HW295632   2.840   4.240   8.803  0.2543  0.5524  0.5368
30743SOL     OW95633   1.015  10.516   2.046  0.3274 -0.2098  0.0403
30743SOL    HW195634   1.067  10.436   2.047 -0.3256 -0.7255 -2.5366
30743SOL    HW295635   1.069  10.579   1.998 -0.8556 -0.3849 -1.5853
30744SOL     OW95636   7.646   5.894   3.948 -0.0018  0.3322 -0.0706
30744SOL    HW195637   7.656   5.840   3.870  1.7817  0.2646  0.1822
30744SOL    HW295638   7.646   5.832   4.021  3.4185  0.6633  0.3260
30745SOL     OW95639   0.708  10.050   1.611 -0.5048  0.2643  0.0662
30745SOL    HW195640   0.670   9.963   1.601 -0.5414  0.0733  1.8369
30745SOL    HW295641   0.672  10.083   1.693  1.8680  0.7330  0.9387
30746SOL     OW95642  10.661   1.160   4.799  0.0788  0.1803 -0.0858
30746SOL    HW195643  10.572   1.155   4.763 -0.1686  2.5305  0.0934
30746SOL    HW295644  10.649   1.202   4.884  1.3265  0.2918  0.0363
30747SOL     OW95645   6.847  10.089  10.654  0.6623  0.6117  0.7268
30747SOL    HW195646   6.762  10.116  10.690  0.7855  0.5670  1.0499
30747SOL    HW295647   6.878  10.021  10.713  0.7286  0.3288  0.3701
30748SOL     OW95648   5.118   1.341   0.573  0.2759 -0.0190  0.3065
30748SOL    HW195649   5.039   1.352   0.520  0.4934  0.9382  0.1790
30748SOL    HW295650   5.162   1.265   0.534 -0.3050 -0.2272  0.0426
30749SOL     OW95651   2.047  10.681   9.581 -0.1774 -0.4289 -0.3046
30749SOL    HW195652   2.003  10.642   9.657 -1.5564  2.0696  0.2232
30749SOL    HW295653   2.039  10.615   9.512 -4.5992 -0.2112 -0.1491
30750SOL     OW95654   6.041   8.737   8.173 -0.3624 -0.1795 -0.2616
30750SOL    HW195655   6.098   8.691   8.111  0.3657  1.9804 -1.2486
30750SOL    HW295656   5.969   8.770   8.119  0.3174  1.7890  0.0133
30751SOL     OW95657   0.001   8.965   9.016 -0.2313 -0.4546 -0.6957
30751SOL    HW195658   0.045   8.882   9.036 -0.6229 -0.7588 -1.0814
30751SOL    HW295659   0.072   9.028   9.004  0.0797 -0.8165 -0.7591
30752SOL     OW95660   5.110   8.013   5.051 -0.6433 -0.4449 -0.2138
30752SOL    HW195661   5.123   7.977   4.963 -2.1485 -0.1864 -0.5466
30752SOL    HW295662   5.059   8.093   5.036 -0.8156 -0.3498  0.8889
30753SOL     OW95663   9.283   7.021   5.221  0.4888 -0.1642  0.1075
30753SOL    HW195664   9.356   6.995   5.278 -0.0607  0.9977  1.3577
30753SOL    HW295665   9.217   6.954   5.234  1.0876 -0.8892 -0.5610
30754SOL     OW95666   8.134   3.191   3.192  0.2163  0.5267 -0.2747
30754SOL    HW195667   8.200   3.202   3.261  0.0265  1.9770 -0.2989
30754SOL    HW295668   8.052   3.179   3.240  0.4036 -0.6906 -0.2473
30755SOL     OW95669   2.233   8.703   1.924  0.6205  0.2809  0.3734
30755SOL    HW195670   2.143   8.719   1.896  0.7575  0.2604 -0.0800
30755SOL    HW295671   2.274   8.789   1.923  1.0801  0.0490 -1.0894
30756SOL     OW95672   3.020   6.690   1.388  0.3961  0.0812 -0.1394
30756SOL    HW195673   3.002   6.731   1.303 -2.2453 -2.0252 -0.6473
30756SOL    HW295674   2.986   6.601   1.380  1.9805 -0.8227  2.4632
30757SOL     OW95675   9.320   0.969   4.037  0.0797 -0.2408 -0.1858
30757SOL    HW195676   9.401   0.981   3.988 -0.8233  1.3060 -1.3500
30757SOL    HW295677   9.297   1.056   4.068 -1.0520 -0.6834  0.2756
30758SOL     OW95678   6.962   4.129   6.410  0.2223 -0.4250  0.5380
30758SOL    HW195679   6.891   4.140   6.346  1.0579 -0.7866 -0.4672
30758SOL    HW295680   6.931   4.176   6.487 -0.4607  0.7147 -0.4000
30759SOL     OW95681   5.053   4.611   5.041  0.0753  0.3845 -0.2052
30759SOL    HW195682   4.984   4.660   4.995 -2.4847 -1.9591  0.9790
30759SOL    HW295683   5.061   4.654   5.126 -0.7626 -0.0298  0.0882
30760SOL     OW95684   7.229  10.178   6.640 -0.2679 -0.5956 -0.7521
30760SOL    HW195685   7.153  10.184   6.698 -0.5332 -0.9621 -1.0581
30760SOL    HW295686   7.226  10.260   6.589  1.1999  0.7264  1.2392
30761SOL     OW95687   9.122   8.587  10.602 -0.3787 -0.5252  0.1537
30761SOL    HW195688   9.190   8.582  10.535  1.3138  0.2612  1.7741
30761SOL    HW295689   9.170   8.586  10.685 -2.3175  0.6753  1.3222
30762SOL     OW95690   1.922   6.052   8.505  0.3445 -0.1740 -0.3951
30762SOL    HW195691   1.861   6.082   8.573  0.2887 -1.6036  0.2105
30762SOL    HW295692   1.887   5.967   8.477  2.2701 -1.2515  0.3038
30763SOL     OW95693   0.542   3.604  10.576  0.0389 -0.5226  0.1908
30763SOL    HW195694   0.486   3.532  10.603  1.5547 -1.5950  0.5217
30763SOL    HW295695   0.488   3.655  10.515 -1.0290 -1.9630 -0.0967
30764SOL     OW95696   6.497   5.431   6.004 -0.2986 -0.2984 -0.1568
30764SOL    HW195697   6.538   5.354   6.043 -0.1001 -0.3073 -0.3842
30764SOL    HW295698   6.460   5.479   6.078 -0.9933 -0.9478 -0.0650
30765SOL     OW95699   7.564   8.385   3.256  0.7301 -0.1982  0.5201
30765SOL    HW195700   7.562   8.292   3.278 -0.1140 -0.2641  0.1643
30765SOL    HW295701   7.647   8.396   3.210 -0.0801 -1.1831 -1.2157
30766SOL     OW95702   0.365   4.655  10.259 -0.4897 -0.0534 -0.0489
30766SOL    HW195703   0.303   4.617  10.322  0.6821 -1.1044  0.4976
30766SOL    HW295704   0.408   4.725  10.307 -0.5698  0.0428 -0.1189
30767SOL     OW95705   2.151   5.146   5.281  0.1287  0.9918  0.0448
30767SOL    HW195706   2.119   5.124   5.368 -1.0344  0.8618 -0.3993
30767SOL    HW295707   2.131   5.069   5.228  0.5824  1.1758 -0.4006
30768SOL     OW95708   9.096  10.639   1.512 -0.0150 -0.5148  0.5520
30768SOL    HW195709   9.117  10.695   1.587  1.2797 -1.7683  1.1499
30768SOL    HW295710   9.018  10.679   1.473  1.8663  2.6897 -0.0534
30769SOL     OW95711   0.797   8.270   0.638 -0.3699  0.8201  0.1151
30769SOL    HW195712   0.830   8.192   0.593 -1.4013  0.2724  0.2756
30769SOL    HW295713   0.861   8.339   0.618  1.3681 -0.4231  1.1935
30770SOL     OW95714   0.348   9.889   6.464 -0.1491  0.0237  0.7430
30770SOL    HW195715   0.385   9.804   6.440 -0.8589  0.1980 -0.9828
30770SOL    HW295716   0.423   9.938   6.499  1.1586  0.1333 -2.0726
30771SOL     OW95717   9.879   1.572   9.986 -0.2547  0.5830  0.2552
30771SOL    HW195718   9.815   1.642   9.972 -1.1816 -0.4463 -0.6153
30771SOL    HW295719   9.834   1.509  10.042 -0.6209 -1.0005 -1.8069
30772SOL     OW95720   8.002   4.357   5.591 -0.5827  0.1982  0.0424
30772SOL    HW195721   7.948   4.418   5.641  0.1378  1.4699 -0.6968
30772SOL    HW295722   7.942   4.288   5.564 -1.7891  1.4091 -0.4615
30773SOL     OW95723   5.184  10.772   9.843  0.1920 -0.4771 -0.6422
30773SOL    HW195724   5.272  10.758   9.876  0.8921  0.1318 -2.1759
30773SOL    HW295725   5.129  10.780   9.921  1.4829 -0.9028  0.3132
30774SOL     OW95726   6.196   1.689   8.208 -0.2750  0.3200  0.2886
30774SOL    HW195727   6.124   1.627   8.192 -0.1843  0.4891 -0.8172
30774SOL    HW295728   6.255   1.643   8.267 -0.4043 -0.5049 -0.2207
30775SOL     OW95729   1.241   7.086  10.197 -0.3372 -0.1577  0.2306
30775SOL    HW195730   1.252   7.169  10.243  0.5423  0.4419 -1.0600
30775SOL    HW295731   1.289   7.096  10.115  2.4378 -3.0554  1.4102
30776SOL     OW95732   3.351   3.553   8.698 -0.1198 -0.2709 -0.4979
30776SOL    HW195733   3.295   3.630   8.684 -0.7856 -0.2572  2.0704
30776SOL    HW295734   3.437   3.580   8.665 -0.1948  1.8253  0.9296
30777SOL     OW95735  10.106   0.838   1.036  0.0148  0.2003 -0.2890
30777SOL    HW195736  10.102   0.829   1.131  0.1574  2.0071 -0.1063
30777SOL    HW295737  10.064   0.758   1.003 -0.1287 -0.3963  1.2727
30778SOL     OW95738   7.896   5.256  10.347  0.2834 -0.2960 -0.2960
30778SOL    HW195739   7.829   5.318  10.374 -0.9261 -1.5616 -0.3063
30778SOL    HW295740   7.974   5.309  10.329 -0.5573  1.1226  0.2575
30779SOL     OW95741   8.857   3.481   7.685 -0.3160  0.1227 -0.0617
30779SOL    HW195742   8.795   3.465   7.614 -0.6573  1.2666 -0.0311
30779SOL    HW295743   8.803   3.482   7.764 -0.1244  0.1657  0.0674
30780SOL     OW95744   4.080   9.776   5.728 -0.3595  0.2746  0.4230
30780SOL    HW195745   4.076   9.788   5.633 -0.0895  1.8703  0.5873
30780SOL    HW295746   4.082   9.865   5.762 -0.1123 -0.2966  1.9127
30781SOL     OW95747   2.489  10.306   4.940  0.0399 -0.2064 -0.4813
30781SOL    HW195748   2.551  10.365   4.983 -1.3436  1.9581 -1.3537
30781SOL    HW295749   2.421  10.364   4.907 -1.6324 -2.3877 -0.9365
30782SOL     OW95750   0.728   0.615   0.771  0.1435  0.4349 -0.5039
30782SOL    HW195751   0.693   0.562   0.700 -1.2518  1.3182 -0.5061
30782SOL    HW295752   0.762   0.552   0.834 -1.5846 -0.4632 -0.4501
30783SOL     OW95753   5.900   3.278   0.336  0.0857 -0.0940  0.6769
30783SOL    HW195754   5.829   3.220   0.309 -0.9373  0.8933  1.1644
30783SOL    HW295755   5.977   3.245   0.291 -0.7441 -1.0339 -0.0746
30784SOL     OW95756  10.733   6.548   0.960  0.5359 -0.0023  0.2488
30784SOL    HW195757  10.773   6.556   0.874 -1.1298 -2.7236 -0.8594
30784SOL    HW295758  10.787   6.483   1.006  1.4722  1.5019  1.3040
30785SOL     OW95759   1.279   3.904   3.700  0.1649  0.3590  0.1360
30785SOL    HW195760   1.237   3.980   3.660  2.5075  0.1390 -2.9222
30785SOL    HW295761   1.230   3.829   3.665  1.0628  0.2563 -0.9383
30786SOL     OW95762   3.451   4.518   3.365  0.4013 -0.0041 -0.4473
30786SOL    HW195763   3.432   4.597   3.415 -0.3810  0.7136 -1.8473
30786SOL    HW295764   3.518   4.545   3.301  1.4766 -0.9349  0.2626
30787SOL     OW95765   4.601   3.587   4.745  0.1202 -0.3960 -0.0461
30787SOL    HW195766   4.633   3.500   4.767 -0.7661 -0.5444  0.6881
30787SOL    HW295767   4.681   3.639   4.730  0.6681 -1.0744  0.4933
30788SOL     OW95768   3.931   4.686   5.750 -0.0661 -0.6728  0.4355
30788SOL    HW195769   3.993   4.676   5.823  1.3460 -0.9312 -0.7780
30788SOL    HW295770   3.846   4.690   5.792  0.7756 -0.2249  2.1569
30789SOL     OW95771   3.556   3.816   6.144 -0.0764 -0.3098 -0.2046
30789SOL    HW195772   3.548   3.911   6.154 -1.2549 -0.4470  0.2360
30789SOL    HW295773   3.637   3.804   6.094  0.9104  0.8380  1.0852
30790SOL     OW95774  10.018   7.415  10.561  0.0359 -0.2873  0.9511
30790SOL    HW195775  10.102   7.380  10.590  0.8957  0.5537 -0.4257
30790SOL    HW295776  10.011   7.389  10.469 -1.8506 -1.4980  1.4070
30791SOL     OW95777   7.053   5.135   7.774  0.2461  0.0736  0.2198
30791SOL    HW195778   7.055   5.224   7.807  1.5897  0.0745  0.1746
30791SOL    HW295779   6.981   5.134   7.711 -1.1240  0.5486  1.7554
30792SOL     OW95780   2.848   4.718   3.174  0.4541 -0.3031 -0.0644
30792SOL    HW195781   2.941   4.699   3.160 -0.1932 -2.0747 -2.4243
30792SOL    HW295782   2.825   4.774   3.100 -0.4101 -0.0750  0.3830
30793SOL     OW95783   1.334   7.122   0.190 -0.0357  0.1953 -0.1183
30793SOL    HW195784   1.405   7.079   0.142  0.2033  0.1589  0.2672
30793SOL    HW295785   1.366   7.212   0.203  1.3137 -0.6612  2.8283
30794SOL     OW95786   7.748   5.386   1.938 -0.1978  0.8013  0.1623
30794SOL    HW195787   7.758   5.470   1.892 -0.5315  0.9109  0.2870
30794SOL    HW295788   7.658   5.388   1.971 -0.0344  0.6224  0.6195
30795SOL     OW95789   1.043   7.138   5.210 -0.2536  0.6633 -0.1731
30795SOL    HW195790   1.103   7.166   5.141  0.5124  1.3215  0.7555
30795SOL    HW295791   0.964   7.192   5.196 -0.9308 -0.7340 -1.8512
30796SOL     OW95792  10.966   2.575   4.821  0.8430  0.3393  0.5388
30796SOL    HW195793  10.890   2.566   4.763 -1.4246 -0.8615  3.6250
30796SOL    HW295794  11.016   2.495   4.806 -1.3467 -1.4570  2.4384
30797SOL     OW95795   0.755   4.013   8.423  0.5039  0.2553 -1.0219
30797SOL    HW195796   0.846   4.036   8.439  0.1691  1.2650 -0.5166
30797SOL    HW295797   0.738   4.042   8.333  0.8823 -0.6166 -1.3829
30798SOL     OW95798   1.881  10.892   1.156  0.2401 -0.5836 -0.4544
30798SOL    HW195799   1.908  10.806   1.189 -0.8737 -1.1751 -1.0714
30798SOL    HW295800   1.786  10.885   1.144 -0.1282  1.2839  1.1170
30799SOL     OW95801   9.905   6.891   8.176 -0.5188 -0.3389  0.1658
30799SOL    HW195802   9.833   6.833   8.154 -1.4796 -0.5345  3.5446
30799SOL    HW295803   9.866   6.957   8.234  1.7939  0.1751  1.1971
30800SOL     OW95804   5.165   4.497  10.437  0.2302 -0.1739  0.4893
30800SOL    HW195805   5.167   4.575  10.492 -0.7742  0.0193  0.2743
30800SOL    HW295806   5.160   4.424  10.498  0.5964 -0.0389  0.6805
30801SOL     OW95807   4.138   7.853  10.461 -0.4576  0.1374 -0.1522
30801SOL    HW195808   4.084   7.784  10.500 -0.5636  0.3602  0.0970
30801SOL    HW295809   4.173   7.901  10.536  0.8202 -0.5533 -0.2853
30802SOL     OW95810   1.166   9.352   2.976 -0.1401 -0.0210 -0.7966
30802SOL    HW195811   1.151   9.257   2.976  1.7508 -0.3423 -1.1409
30802SOL    HW295812   1.214   9.368   2.894  0.0263  1.1549 -0.4724
30803SOL     OW95813   5.168   6.097   4.116 -0.2897  0.8498  0.7659
30803SOL    HW195814   5.213   6.018   4.086 -0.2630  0.7703  1.0109
30803SOL    HW295815   5.080   6.068   4.140  0.1200  0.6429  2.0836
30804SOL     OW95816   3.018   2.289  10.016 -0.6400  0.5123  0.5853
30804SOL    HW195817   3.105   2.257   9.992 -1.1592 -0.6094  0.1993
30804SOL    HW295818   3.035   2.365  10.071  0.5887 -0.2107  1.2084
30805SOL     OW95819  10.325   5.304   7.863  0.0397 -0.1296  0.0543
30805SOL    HW195820  10.306   5.396   7.879 -0.7677 -0.5522  1.5770
30805SOL    HW295821  10.270   5.256   7.925  1.2543 -1.6032  0.0333
30806SOL     OW95822   9.962   0.268   2.083 -0.5626  0.0139 -0.1887
30806SOL    HW195823   9.898   0.334   2.108  0.8743  1.6178 -0.6814
30806SOL    HW295824  10.041   0.291   2.132  0.5975 -0.0637 -1.9687
30807SOL     OW95825   6.142   4.693   0.051 -0.0692 -0.3620 -0.2396
30807SOL    HW195826   6.227   4.655   0.029  0.6437  0.4495  1.0189
30807SOL    HW295827   6.094   4.697  -0.032  2.2289  1.8896 -1.5263
30808SOL     OW95828   6.008   1.082   9.848 -0.1524  1.1068  1.2408
30808SOL    HW195829   6.003   1.166   9.802 -3.0188  0.0411 -0.5548
30808SOL    HW295830   5.927   1.077   9.898 -0.0631 -0.6154  1.2519
30809SOL     OW95831   4.911   2.137   8.208  0.0978 -0.4657  0.5360
30809SOL    HW195832   4.937   2.198   8.277 -0.9247  0.9449 -0.2973
30809SOL    HW295833   4.988   2.130   8.151  0.1039  0.3242  0.4425
30810SOL     OW95834   3.875   3.424   3.445 -0.2213  0.6017 -0.1443
30810SOL    HW195835   3.855   3.331   3.430  3.4703 -0.4876  1.0432
30810SOL    HW295836   3.832   3.445   3.528 -1.8584  0.2506 -0.8818
30811SOL     OW95837   7.911   6.386   8.070  0.1941  0.0849 -0.2596
30811SOL    HW195838   7.908   6.320   8.139 -0.1411  0.9198  0.5390
30811SOL    HW295839   7.835   6.368   8.016 -0.6888  0.6730  0.7689
30812SOL     OW95840  10.533   8.875   0.049  0.2347 -0.0972 -0.4377
30812SOL    HW195841  10.620   8.850   0.020  0.2467 -1.0876  0.4557
30812SOL    HW295842  10.474   8.834  -0.015  0.4008  0.3521 -0.8855
30813SOL     OW95843   2.660   3.885   4.626  0.7524  0.0994  0.5072
30813SOL    HW195844   2.581   3.852   4.670  0.8962  1.3994  1.7698
30813SOL    HW295845   2.729   3.876   4.693  1.6552 -0.8576 -0.5242
30814SOL     OW95846   1.486  10.409   7.220 -0.6231 -0.1140  0.4804
30814SOL    HW195847   1.539  10.330   7.226 -0.8274 -0.0826  3.1238
30814SOL    HW295848   1.402  10.379   7.185 -0.5763 -1.0028  1.1285
30815SOL     OW95849   3.087   7.496   5.376 -0.0348  0.2828  0.2660
30815SOL    HW195850   3.087   7.584   5.340  0.2816  0.3125  0.3339
30815SOL    HW295851   3.079   7.508   5.470 -2.1517  0.1606  0.1177
30816SOL     OW95852   5.742   0.204   1.951 -0.0166 -0.7451 -0.1933
30816SOL    HW195853   5.670   0.149   1.919 -1.2850  1.9576 -2.2164
30816SOL    HW295854   5.719   0.223   2.042 -1.0465 -1.2425 -0.3346
30817SOL     OW95855   7.254   8.194   0.493 -0.6728 -0.5591 -0.0304
30817SOL    HW195856   7.215   8.142   0.423  0.0597 -0.2104 -0.7050
30817SOL    HW295857   7.327   8.240   0.452 -1.6461  1.4631  0.4116
30818SOL     OW95858  10.157  10.486   3.441 -0.0160  0.3246  0.5356
30818SOL    HW195859  10.148  10.516   3.350  1.1280  0.6294  0.5144
30818SOL    HW295860  10.117  10.399   3.441 -1.7737  1.0896  0.1888
30819SOL     OW95861   9.491   8.118   6.748  0.2002 -0.2730 -0.6003
30819SOL    HW195862   9.431   8.048   6.721 -0.5566 -0.4523  1.4456
30819SOL    HW295863   9.434   8.186   6.784  1.1990 -0.4017  1.3004
30820SOL     OW95864  10.234   1.298   7.483  0.2572 -0.1527 -0.0674
30820SOL    HW195865  10.325   1.320   7.463  0.3316 -0.9417 -0.5865
30820SOL    HW295866  10.197   1.272   7.399 -0.2267 -0.6419  0.2997
30821SOL     OW95867   6.883   4.593   2.311 -0.4218 -0.3823 -0.2400
30821SOL    HW195868   6.898   4.634   2.226  0.1331 -1.4442 -0.6565
30821SOL    HW295869   6.846   4.507   2.291 -0.7573 -0.4470  0.6102
30822SOL     OW95870   8.798   9.330   4.626 -0.5888 -0.5166  0.6082
30822SOL    HW195871   8.875   9.292   4.582 -0.0054 -0.2124  1.3513
30822SOL    HW295872   8.832   9.408   4.670 -1.3512 -0.3235  0.8534
30823SOL     OW95873  10.507   5.470   6.429 -0.0009  0.5483 -0.4591
30823SOL    HW195874  10.435   5.420   6.391 -0.3566  0.5802  0.1701
30823SOL    HW295875  10.522   5.430   6.514 -1.6906  2.8176  0.9639
30824SOL     OW95876   9.853   0.800   7.199 -0.1082 -0.0185  0.2930
30824SOL    HW195877   9.940   0.786   7.163 -0.1810 -0.5647  0.3098
30824SOL    HW295878   9.795   0.803   7.122 -0.0045  0.9222  0.2494
30825SOL     OW95879   8.802  10.239   1.121  0.2537  0.6945 -0.6974
30825SOL    HW195880   8.737  10.183   1.163  1.7696  0.5279  1.5339
30825SOL    HW295881   8.768  10.253   1.032 -1.5134 -1.4913 -0.4215
30826SOL     OW95882   2.116   5.682   3.789  0.1994  0.0610 -0.8831
30826SOL    HW195883   2.045   5.635   3.834 -2.0549  2.5421 -1.6927
30826SOL    HW295884   2.077   5.709   3.705  1.5886  2.7721 -0.7155
30827SOL     OW95885   4.150   1.509   4.093  0.0333 -0.2689  0.0170
30827SOL    HW195886   4.147   1.532   4.000 -0.7636 -0.8406 -0.0993
30827SOL    HW295887   4.064   1.535   4.127  0.4286  0.2216  0.6628
30828SOL     OW95888   8.362   0.063   7.008 -0.5824 -0.1078 -0.6253
30828SOL    HW195889   8.379   0.155   7.031  0.5122 -0.3481 -0.4869
30828SOL    HW295890   8.363   0.063   6.912 -0.2477 -0.0397 -0.6225
30829SOL     OW95891   8.162   3.146   1.893  0.2162  0.6621 -0.3130
30829SOL    HW195892   8.080   3.100   1.916  1.3491 -1.4305 -0.2898
30829SOL    HW295893   8.188   3.190   1.973 -0.0572  0.0070  0.1467
30830SOL     OW95894   1.689   9.555  10.942 -0.0841  0.2616  0.4743
30830SOL    HW195895   1.597   9.531  10.930 -0.6563  2.3010  0.6428
30830SOL    HW295896   1.690   9.651  10.942  1.8357  0.2916  2.0721
30831SOL     OW95897   7.706   1.097   2.911 -0.1835 -0.5702 -0.5870
30831SOL    HW195898   7.670   1.182   2.886  1.6600  1.1414  2.2939
30831SOL    HW295899   7.671   1.081   2.999  3.2997 -0.4382  0.8959
30832SOL     OW95900   9.307   6.838   8.572 -0.2097  0.5111  0.4764
30832SOL    HW195901   9.395   6.814   8.601  0.0314 -0.7229 -1.1964
30832SOL    HW295902   9.249   6.804   8.640  0.5610  0.6931  1.2238
30833SOL     OW95903   4.823   0.882   6.489 -0.0083 -0.1756 -0.1517
30833SOL    HW195904   4.742   0.916   6.528  0.4982  0.4412  0.3578
30833SOL    HW295905   4.889   0.949   6.507  0.2709  0.0767 -1.9733
30834SOL     OW95906   1.876   3.790   5.164  0.1601  0.1011  0.1899
30834SOL    HW195907   1.885   3.860   5.229 -0.6751  3.1422 -2.8122
30834SOL    HW295908   1.966   3.761   5.146  0.6022  1.0865  0.7852
30835SOL     OW95909  10.131   6.311   5.918  0.3597  0.3582  0.2448
30835SOL    HW195910  10.085   6.229   5.900  0.9907 -0.1402  0.9037
30835SOL    HW295911  10.223   6.290   5.905  0.4494  1.2310 -0.5784
30836SOL     OW95912   6.503   9.520   3.205 -0.1115 -0.3203  0.2878
30836SOL    HW195913   6.423   9.547   3.161 -0.5779 -0.7819  0.8313
30836SOL    HW295914   6.473   9.490   3.292  0.4969 -1.5683  0.0852
30837SOL     OW95915   5.124   9.089   4.789 -0.5285  0.1384  0.1595
30837SOL    HW195916   5.184   9.021   4.757 -0.6027  0.0137  0.2812
30837SOL    HW295917   5.143   9.094   4.883 -0.5469  0.2621  0.1568
30838SOL     OW95918  10.402   0.312   3.871 -0.4383 -0.2811  0.3333
30838SOL    HW195919  10.325   0.280   3.823  0.4078 -2.3798  0.3433
30838SOL    HW295920  10.383   0.294   3.963  0.0174 -0.7096  0.3462
30839SOL     OW95921   8.846   6.059   0.999 -0.1220 -0.3105 -0.0631
30839SOL    HW195922   8.788   6.019   0.935 -0.1750 -0.6098  0.1696
30839SOL    HW295923   8.900   6.120   0.949 -0.0881 -0.6254 -0.4065
30840SOL     OW95924   6.101  10.825   3.899 -0.2522 -0.0405 -0.1578
30840SOL    HW195925   6.141  10.780   3.824  0.0491  0.0505 -0.0536
30840SOL    HW295926   6.010  10.838   3.873 -0.0883  0.2224 -0.6151
30841SOL     OW95927   9.755   3.921   3.823  0.4323  0.1345 -0.9029
30841SOL    HW195928   9.781   3.967   3.903 -0.9157 -1.5450  0.5405
30841SOL    HW295929   9.836   3.889   3.785  1.1081  1.2159 -0.3798
30842SOL     OW95930   7.250   1.439   4.892  0.1214 -0.8253  0.4948
30842SOL    HW195931   7.215   1.408   4.808  1.1364 -0.4647 -0.0784
30842SOL    HW295932   7.227   1.371   4.955  1.2427 -2.1425 -0.5000
30843SOL     OW95933  10.515   9.499   7.041 -0.5478 -0.1503 -0.4344
30843SOL    HW195934  10.481   9.460   6.961  0.5207 -0.9332 -0.5161
30843SOL    HW295935  10.497   9.434   7.109 -1.0000  0.2946 -0.1256
30844SOL     OW95936   5.803   1.511   7.289  0.1163 -0.1329 -0.4540
30844SOL    HW195937   5.876   1.520   7.350  1.4665  1.4633 -2.2146
30844SOL    HW295938   5.725   1.519   7.343  1.2648  1.2718  1.0503
30845SOL     OW95939   5.938   2.025   3.937  0.1280  0.8111  0.2810
30845SOL    HW195940   5.931   1.989   3.849  0.2781 -0.2874  0.7138
30845SOL    HW295941   5.854   2.003   3.978 -0.3485  2.2247  0.0817
30846SOL     OW95942  10.029   5.525   8.661  0.2461 -0.0904  0.4853
30846SOL    HW195943   9.980   5.461   8.714  0.5442 -0.3175  0.4902
30846SOL    HW295944   9.972   5.543   8.587 -0.1848  0.2388  0.8930
30847SOL     OW95945   4.920   5.376   3.367  0.0251  0.1243  0.0489
30847SOL    HW195946   4.831   5.348   3.385 -0.1954  0.5664 -0.3413
30847SOL    HW295947   4.932   5.361   3.273 -0.0413  1.1505 -0.1329
30848SOL     OW95948   1.600   2.622   9.533 -0.0124 -0.7123  0.3356
30848SOL    HW195949   1.693   2.627   9.556  0.0760 -1.6556  0.2048
30848SOL    HW295950   1.569   2.542   9.576 -0.5769 -0.8271 -0.2761
30849SOL     OW95951   8.571   5.816   3.846  0.3305 -0.3799 -0.1146
30849SOL    HW195952   8.559   5.809   3.752  1.9996 -1.0739 -0.2952
30849SOL    HW295953   8.571   5.910   3.864  1.7848 -0.1751 -1.0716
30850SOL     OW95954   1.366   1.321   3.974 -0.3323  0.4783 -0.6690
30850SOL    HW195955   1.441   1.327   4.033 -0.4311 -0.3908 -0.4378
30850SOL    HW295956   1.303   1.385   4.009 -0.1288  0.4348 -0.2119
30851SOL     OW95957   0.597   2.520  10.844  0.3798  0.3392 -0.1333
30851SOL    HW195958   0.541   2.530  10.920  0.9548 -1.3430  0.5264
30851SOL    HW295959   0.675   2.571  10.865 -0.0148  0.9722 -0.1787
30852SOL     OW95960   9.765   1.038   0.162  0.1919  0.4421  0.0704
30852SOL    HW195961   9.678   1.024   0.200 -1.2362 -2.6503 -3.9770
30852SOL    HW295962   9.823   0.982   0.212 -0.5526  0.8046  1.3527
30853SOL     OW95963   8.714   8.236   1.701  0.1009 -0.5567 -0.6655
30853SOL    HW195964   8.805   8.214   1.720  0.4024  0.9543 -0.3107
30853SOL    HW295965   8.709   8.331   1.710 -1.5267 -0.6220 -0.6181
30854SOL     OW95966   1.218   4.717   0.888  0.5882  0.4125 -0.3467
30854SOL    HW195967   1.156   4.785   0.861 -0.0028 -0.0755 -0.2395
30854SOL    HW295968   1.302   4.761   0.891  0.7203  0.4597 -3.1508
30855SOL     OW95969   3.000   8.672   6.334  0.0842 -0.3340 -0.1422
30855SOL    HW195970   3.090   8.667   6.365 -0.1289 -0.8023  0.4102
30855SOL    HW295971   2.948   8.630   6.403 -0.4913 -0.6322 -0.7477
30856SOL     OW95972   2.726   3.322   5.567 -0.4330 -0.2882 -0.0360
30856SOL    HW195973   2.817   3.351   5.574  0.2110 -2.0680 -0.6295
30856SOL    HW295974   2.733   3.228   5.551 -2.3813 -0.3376 -0.6380
30857SOL     OW95975   0.414  10.393  10.917  0.2326 -0.5597 -0.8716
30857SOL    HW195976   0.496  10.442  10.909 -1.2205  2.0264 -0.4907
30857SOL    HW295977   0.375  10.396  10.830 -1.0253  1.1662 -0.2910
30858SOL     OW95978   2.505   3.787   8.583 -0.0392 -0.5289 -0.5789
30858SOL    HW195979   2.414   3.767   8.604 -0.5888 -1.2882 -3.5260
30858SOL    HW295980   2.501   3.835   8.500  2.1995  0.0442 -0.3863
30859SOL     OW95981   4.289   7.319   6.004  0.0244 -0.6299  0.0342
30859SOL    HW195982   4.270   7.403   5.961 -0.6603 -1.5259 -1.4605
30859SOL    HW295983   4.330   7.266   5.935 -0.0718 -1.7211  0.8065
30860SOL     OW95984   5.188   1.244   4.414  0.2303 -0.6292 -0.0335
30860SOL    HW195985   5.171   1.324   4.464 -1.6937  0.2907 -2.0981
30860SOL    HW295986   5.278   1.254   4.383  0.3051  0.3118  0.4703
30861SOL     OW95987   0.702   9.271   1.685  0.2582 -0.3264 -0.1237
30861SOL    HW195988   0.619   9.316   1.669  0.2424  0.2010  1.3161
30861SOL    HW295989   0.734   9.310   1.767  1.3680 -1.3210 -0.0772
30862SOL     OW95990   4.674   6.352   6.698 -0.0179  0.1015  0.1739
30862SOL    HW195991   4.755   6.321   6.660 -0.0114  1.1341 -0.6949
30862SOL    HW295992   4.607   6.293   6.665 -0.2873  2.1330 -3.0694
30863SOL     OW95993   5.679   6.610  10.379  0.0283  0.0825 -0.3449
30863SOL    HW195994   5.714   6.694  10.410 -0.3974 -0.2021  0.9404
30863SOL    HW295995   5.629   6.576  10.453  2.3043 -2.5076  0.0954
30864SOL     OW95996   3.950   5.911   5.947  0.5647 -0.2765 -0.4782
30864SOL    HW195997   4.003   5.845   5.991  0.4359 -1.1333 -1.5714
30864SOL    HW295998   3.924   5.972   6.016  1.3249 -0.9456  0.4063
30865SOL     OW95999   2.220   2.055   1.092 -0.1918  0.0174  0.2312
30865SOL    HW196000   2.205   1.973   1.046 -2.4532  0.7113 -0.3262
30865SOL    HW296001   2.294   2.037   1.151  1.3658 -1.4768 -2.1296
30866SOL     OW96002   7.659   9.113  10.724  0.0305 -0.1259 -0.3624
30866SOL    HW196003   7.658   9.117  10.628 -0.1637  0.8914 -0.3285
30866SOL    HW296004   7.696   9.198  10.750  0.6848 -0.6637  0.4517
30867SOL     OW96005   1.599   4.591   6.887 -0.3868 -0.0875 -0.2592
30867SOL    HW196006   1.673   4.641   6.852 -1.2121  1.9020  0.7125
30867SOL    HW296007   1.575   4.639   6.967 -2.1478 -1.2261 -0.0938
30868SOL     OW96008   0.883   0.367   6.739 -0.6687  0.1279  0.0783
30868SOL    HW196009   0.891   0.288   6.687 -0.8032 -0.9308  1.6280
30868SOL    HW296010   0.895   0.439   6.677 -0.8478 -1.1008 -1.3843
30869SOL     OW96011  10.416   9.437   8.209 -0.4665 -0.2163 -0.2135
30869SOL    HW196012  10.486   9.414   8.269 -1.3627 -0.7750  0.6307
30869SOL    HW296013  10.342   9.383   8.236 -0.7543 -0.8054 -2.0964
30870SOL     OW96014   7.103   3.339   7.548  0.2324 -0.1936  0.1152
30870SOL    HW196015   7.182   3.392   7.552  0.5749 -0.7234  0.4733
30870SOL    HW296016   7.082   3.319   7.639 -0.3317 -0.0330  0.0231
30871SOL     OW96017   7.639   3.983   0.067  0.4647  0.0997 -0.2772
30871SOL    HW196018   7.655   3.903   0.117  0.0705 -0.1477 -0.5458
30871SOL    HW296019   7.555   3.969   0.025 -0.1196  1.0824  0.5156
30872SOL     OW96020   5.772   2.163   2.191  0.0796  0.0971 -0.4498
30872SOL    HW196021   5.772   2.248   2.147 -1.8852 -0.1761 -1.0431
30872SOL    HW296022   5.752   2.100   2.121 -0.4180 -0.6395  0.3415
30873SOL     OW96023   7.203   5.139   8.554 -0.1861 -0.1686 -0.7647
30873SOL    HW196024   7.230   5.047   8.547 -2.1460 -0.6731 -2.2231
30873SOL    HW296025   7.278   5.189   8.521  0.9490 -1.2198  0.1728
30874SOL     OW96026   3.985   7.441   6.493  0.0361  0.2307 -0.2800
30874SOL    HW196027   4.057   7.382   6.517 -1.6715 -1.4989  0.6735
30874SOL    HW296028   3.999   7.458   6.399  2.1288  0.5791  0.0617
30875SOL     OW96029   7.639   7.807   0.633  0.3170  0.1992  0.4143
30875SOL    HW196030   7.607   7.857   0.557  0.8110  0.8902  0.6490
30875SOL    HW296031   7.560   7.782   0.680 -0.0314 -0.9028 -0.7438
30876SOL     OW96032   0.411   6.004   2.107 -0.5537 -0.0341 -0.5792
30876SOL    HW196033   0.382   6.090   2.078 -0.2195  0.8636  1.6820
30876SOL    HW296034   0.466   6.021   2.183  0.3314 -2.1900 -0.6895
30877SOL     OW96035   1.873  10.714   2.485 -0.3667  0.2383 -0.2577
30877SOL    HW196036   1.905  10.731   2.397  0.0141 -1.0834 -0.3774
30877SOL    HW296037   1.925  10.771   2.541 -0.5217  0.9833 -0.8637
30878SOL     OW96038   9.659   9.474   8.682 -0.4760 -0.0686 -0.9356
30878SOL    HW196039   9.611   9.495   8.762  0.8189 -0.1934 -0.1050
30878SOL    HW296040   9.697   9.388   8.699  0.4456  0.2465 -1.3713
30879SOL     OW96041  10.119   4.700   8.426  0.1623 -0.1736 -0.1859
30879SOL    HW196042  10.136   4.778   8.374  1.9596  1.5406  2.8202
30879SOL    HW296043  10.030   4.713   8.460  0.3869  0.4794  0.1594
30880SOL     OW96044   4.170   1.705   5.040 -0.3055  0.3677 -0.0045
30880SOL    HW196045   4.219   1.719   5.121 -1.2939 -0.0531  0.6753
30880SOL    HW296046   4.146   1.612   5.043 -2.4223  0.9021  0.3935
30881SOL     OW96047   0.339   2.925   8.803  0.1569  0.6501 -0.0001
30881SOL    HW196048   0.266   2.910   8.863  1.0796 -0.9348  0.7815
30881SOL    HW296049   0.306   2.899   8.717  0.1185 -1.0797  0.5193
30882SOL     OW96050   1.953   8.608   4.555 -0.1881 -0.0925 -0.2317
30882SOL    HW196051   1.927   8.542   4.618 -1.8098  1.9065  1.2518
30882SOL    HW296052   1.871   8.648   4.525  0.7340  1.1019 -1.2576
30883SOL     OW96053  10.625  10.398   9.442 -0.2267  0.1759 -0.6070
30883SOL    HW196054  10.536  10.384   9.410 -0.5494 -2.5525  1.3495
30883SOL    HW296055  10.621  10.484   9.485 -1.5722  0.6468 -1.6201
30884SOL     OW96056   7.173   0.432   6.899  0.7879  0.2074  0.0135
30884SOL    HW196057   7.166   0.386   6.983 -0.0977  0.0015 -0.1681
30884SOL    HW296058   7.267   0.431   6.879  0.9502 -0.1443  0.7758
30885SOL     OW96059   5.006   8.344   2.268 -0.1771 -0.4004 -0.4352
30885SOL    HW196060   5.078   8.317   2.211 -1.4189 -2.2257 -1.2044
30885SOL    HW296061   5.004   8.278   2.337 -1.3094 -0.5644 -0.6102
30886SOL     OW96062   9.303   1.221   4.173 -0.1039 -0.4896  0.0271
30886SOL    HW196063   9.240   1.291   4.159 -0.9876 -1.2847 -0.0302
30886SOL    HW296064   9.343   1.241   4.258 -0.0521  0.2934 -0.1758
30887SOL     OW96065   6.705   2.928   5.373 -0.4748  0.0194 -0.3472
30887SOL    HW196066   6.792   2.896   5.348  0.3017  1.5510  0.3456
30887SOL    HW296067   6.699   3.014   5.332  0.5890  2.3411  4.1115
30888SOL     OW96068   5.935   1.279   5.380 -0.1142 -0.3146  0.5008
30888SOL    HW196069   6.005   1.279   5.445 -0.5987 -1.3235  1.0336
30888SOL    HW296070   5.968   1.224   5.309  1.1843  2.2755 -0.9854
30889SOL     OW96071   8.882   8.535   9.920  0.2446 -0.4784  0.1208
30889SOL    HW196072   8.849   8.625   9.916  2.7437  0.6218  2.3837
30889SOL    HW296073   8.819   8.484   9.868 -2.2472  2.2482  0.2915
30890SOL     OW96074   4.218   1.162   0.407 -0.4605  0.7096  0.4927
30890SOL    HW196075   4.211   1.081   0.458 -0.5451  0.7306  0.5145
30890SOL    HW296076   4.311   1.167   0.384 -0.5153  0.4423  0.2169
30891SOL     OW96077   8.669   2.248   0.303  0.1229  0.2343  0.0244
30891SOL    HW196078   8.650   2.154   0.300  2.6990 -0.4139  2.3304
30891SOL    HW296079   8.723   2.264   0.226  0.5477 -0.3780  0.1940
30892SOL     OW96080   8.586   4.359   5.569 -0.5422  0.0283 -0.1918
30892SOL    HW196081   8.607   4.360   5.662  2.9601 -0.0003 -0.9159
30892SOL    HW296082   8.606   4.269   5.541  0.1886  0.5315 -1.3251
30893SOL     OW96083   5.376   4.588  10.256 -0.0452  0.1661 -0.1850
30893SOL    HW196084   5.291   4.588  10.299 -0.4921  1.0679 -1.0429
30893SOL    HW296085   5.438   4.564  10.325 -0.8697  0.5668  0.7067
30894SOL     OW96086   5.149   7.138   9.656 -0.5660  0.1538 -0.7437
30894SOL    HW196087   5.111   7.063   9.611 -0.7476 -0.7705  0.8941
30894SOL    HW296088   5.243   7.134   9.636 -0.8655  0.7186 -2.3499
30895SOL     OW96089  10.620   5.492   1.341 -0.5285 -0.3913  1.0050
30895SOL    HW196090  10.541   5.532   1.306  0.4208  0.8279  0.2351
30895SOL    HW296091  10.640   5.543   1.420 -0.0688 -0.2019  0.7664
30896SOL     OW96092   1.287   1.837  10.274  0.6665 -0.3221  0.0744
30896SOL    HW196093   1.364   1.826  10.329  0.2309 -0.6708  0.6182
30896SOL    HW296094   1.215   1.801  10.326  0.3395 -1.1422 -0.9299
30897SOL     OW96095  10.078   7.136   5.870  0.3269 -0.1407  0.3246
30897SOL    HW196096  10.023   7.058   5.873 -3.4073  2.4112  0.9071
30897SOL    HW296097  10.088   7.156   5.777 -0.5522 -0.0467  0.2553
30898SOL     OW96098  10.514   6.686   1.637 -0.3839  0.1733  0.2157
30898SOL    HW196099  10.437   6.716   1.589 -0.1851 -0.9213 -0.7885
30898SOL    HW296100  10.542   6.607   1.591  1.5575  0.7638  0.3534
30899SOL     OW96101   9.084  10.332   2.961 -0.5900  0.1475  0.0234
30899SOL    HW196102   9.084  10.346   2.866  0.2002 -3.2029 -0.5427
30899SOL    HW296103   9.164  10.375   2.991 -0.7034  0.9977 -0.8801
30900SOL     OW96104   6.712   3.630   1.119 -0.1556  0.3914  0.5386
30900SOL    HW196105   6.699   3.718   1.155  1.7078  0.8844  0.0306
30900SOL    HW296106   6.806   3.614   1.128 -0.3600 -1.2458 -0.0964
30901SOL     OW96107   3.288   2.277  10.116 -0.3450  0.2732 -0.1649
30901SOL    HW196108   3.242   2.218  10.176 -1.1117  0.6012 -0.4316
30901SOL    HW296109   3.246   2.362  10.129 -0.6149  0.3186 -1.2675
30902SOL     OW96110   7.663   6.804   8.288 -0.3569  0.1571 -0.2174
30902SOL    HW196111   7.638   6.794   8.196 -0.5429 -0.6133 -0.0810
30902SOL    HW296112   7.596   6.863   8.324 -0.1224  0.6903 -0.6393
30903SOL     OW96113   2.468   0.181   9.640 -0.1672  0.3657  0.5260
30903SOL    HW196114   2.413   0.129   9.699 -0.3959 -0.5277 -0.4719
30903SOL    HW296115   2.497   0.120   9.574 -0.6386  1.5596 -0.8113
30904SOL     OW96116   5.721   2.930   7.006 -0.4251 -0.1560 -0.0091
30904SOL    HW196117   5.672   2.995   6.956 -0.0190  0.4996  0.4364
30904SOL    HW296118   5.811   2.962   7.006 -0.5033  0.1496  1.5804
30905SOL     OW96119   5.110   1.390   7.734  0.1336  0.0307  0.5036
30905SOL    HW196120   5.141   1.308   7.695  1.4020 -0.0911  1.6917
30905SOL    HW296121   5.147   1.389   7.822 -2.0727  0.6278  1.4672
30906SOL     OW96122  10.693   1.221   2.151  0.5421  0.0993 -0.9854
30906SOL    HW196123  10.635   1.176   2.089  1.1444  1.2752 -2.4571
30906SOL    HW296124  10.703   1.309   2.114 -0.4656  1.4181  1.7350
30907SOL     OW96125  10.374   9.458   1.650 -0.1070  0.0977  0.2008
30907SOL    HW196126  10.453   9.511   1.638 -0.2237  0.0026 -1.0057
30907SOL    HW296127  10.336   9.451   1.563 -0.3649 -1.5383  0.4307
30908SOL     OW96128   8.118   7.824   8.494 -0.2055 -0.0956  0.0589
30908SOL    HW196129   8.076   7.740   8.472 -0.6508 -0.1812  1.1617
30908SOL    HW296130   8.046   7.887   8.491  0.2633  0.3744 -1.4409
30909SOL     OW96131  10.071   3.573  10.903  0.5107  0.7875  0.6970
30909SOL    HW196132  10.123   3.654  10.902 -0.3337  1.3370  0.3721
30909SOL    HW296133  10.072   3.546  10.995 -0.3200  1.9122  1.0419
30910SOL     OW96134   2.400  10.282   3.933 -0.2974 -0.2526  0.1753
30910SOL    HW196135   2.322  10.325   3.899 -0.5711 -0.5391  0.4366
30910SOL    HW296136   2.369  10.234   4.010  0.4475  0.9918  1.2682
30911SOL     OW96137   7.754   6.578   8.683 -0.1118 -0.0959 -0.0797
30911SOL    HW196138   7.829   6.523   8.704 -0.2316 -0.4419 -0.5632
30911SOL    HW296139   7.754   6.584   8.588 -1.4205 -1.1445 -0.1745
30912SOL     OW96140   7.775   3.276   9.814  0.4685  0.2227  0.7020
30912SOL    HW196141   7.721   3.354   9.823  0.0166 -0.0893  0.7686
30912SOL    HW296142   7.857   3.306   9.775 -0.2694  0.5005 -0.6565
30913SOL     OW96143   1.584   9.304   6.840 -0.3831 -0.5643 -0.7285
30913SOL    HW196144   1.648   9.267   6.900  0.2439 -2.6106 -2.6214
30913SOL    HW296145   1.525   9.232   6.819 -1.2943  0.4322 -1.6795
30914SOL     OW96146   1.591   8.871   6.861  0.0573 -0.5365  0.3652
30914SOL    HW196147   1.529   8.945   6.866 -0.5428 -1.0179  0.0938
30914SOL    HW296148   1.538   8.794   6.881  0.6777 -0.9028  0.6056
30915SOL     OW96149   5.172   3.526   5.416 -0.1071 -0.5133 -0.5503
30915SOL    HW196150   5.184   3.431   5.422  2.2280 -0.2921 -1.4185
30915SOL    HW296151   5.169   3.555   5.507  0.1282 -1.2998 -0.2876
30916SOL     OW96152   6.350   9.894   6.858  0.3337 -0.4028  0.3137
30916SOL    HW196153   6.278   9.832   6.867  0.3310 -0.3499  0.6335
30916SOL    HW296154   6.429   9.841   6.869  0.3170 -0.2365  1.1917
30917SOL     OW96155   2.966   2.615   4.909 -0.0600  0.0440  0.0918
30917SOL    HW196156   3.045   2.666   4.894 -1.5761  1.9063 -1.8905
30917SOL    HW296157   2.942   2.582   4.822 -2.3432  0.8842  0.3603
30918SOL     OW96158   3.167   7.746   4.357  0.1281  0.3493  0.1750
30918SOL    HW196159   3.081   7.709   4.337 -0.0211  0.8427 -0.1019
30918SOL    HW296160   3.151   7.840   4.367  0.8508  0.6343 -1.1701
30919SOL     OW96161   6.588   5.195   0.946  0.1193 -0.3532 -0.0754
30919SOL    HW196162   6.682   5.181   0.933  0.1074 -1.9226  1.2579
30919SOL    HW296163   6.583   5.275   0.998  0.7889 -0.7049  0.5564
30920SOL     OW96164   1.042   6.531   5.339  0.2328  0.0421  0.1095
30920SOL    HW196165   1.092   6.450   5.336  1.5358  0.8646 -0.9292
30920SOL    HW296166   1.011   6.544   5.250 -3.3230 -1.3457  1.0862
30921SOL     OW96167   8.885  10.799   1.456  0.1753 -0.0944 -0.4058
30921SOL    HW196168   8.873  10.891   1.435 -1.1948  0.0299  0.8116
30921SOL    HW296169   8.825  10.753   1.396 -1.5411  0.0496  1.1734
30922SOL     OW96170   8.541   2.738   6.543 -0.4520 -0.5038 -0.2547
30922SOL    HW196171   8.562   2.656   6.498  0.1491 -0.8092  0.5738
30922SOL    HW296172   8.498   2.711   6.624  1.4960 -0.0854  0.9551
30923SOL     OW96173   1.953   0.933   8.117 -0.0316 -0.0723  0.3268
30923SOL    HW196174   1.955   1.025   8.142  0.0238 -0.5613  2.2266
30923SOL    HW296175   2.019   0.892   8.173  1.3172 -0.9590 -1.8438
30924SOL     OW96176   7.836   8.968   0.081  0.2300 -0.2172  0.5689
30924SOL    HW196177   7.900   8.957   0.151 -1.1744  0.2080  1.9374
30924SOL    HW296178   7.828   9.063   0.071  1.5658 -0.2648 -1.2602
30925SOL     OW96179   1.536   1.630   6.645  0.2868 -0.9170  0.1043
30925SOL    HW196180   1.516   1.560   6.582  0.5156 -0.3557 -0.6033
30925SOL    HW296181   1.463   1.629   6.706 -0.1955 -1.1304 -0.4685
30926SOL     OW96182   8.497   6.683   6.708 -0.1835 -0.4778 -0.7296
30926SOL    HW196183   8.516   6.742   6.635  0.8663  0.4378  0.2583
30926SOL    HW296184   8.563   6.705   6.775  1.5276 -4.0901 -1.0833
30927SOL     OW96185   5.701   5.277   6.904 -0.3818 -0.6270  0.3719
30927SOL    HW196186   5.792   5.272   6.876 -0.6504 -1.9574 -0.3087
30927SOL    HW296187   5.701   5.238   6.992 -0.1955 -0.0484  0.6309
30928SOL     OW96188   5.637   8.186   0.662 -0.2762 -0.6556  0.0007
30928SOL    HW196189   5.729   8.174   0.687  0.1217 -0.8293 -1.5317
30928SOL    HW296190   5.638   8.192   0.567 -1.7946 -0.0300  0.0099
30929SOL     OW96191   9.716   1.787   9.978  0.4084 -0.5413 -0.0352
30929SOL    HW196192   9.670   1.866  10.006  3.2699  1.2919 -0.3398
30929SOL    HW296193   9.707   1.786   9.883  1.3379  0.0661 -0.1375
30930SOL     OW96194   9.324  10.869   4.818  0.8237 -0.4758  0.5026
30930SOL    HW196195   9.370  10.939   4.771 -0.3576  0.4628  0.7190
30930SOL    HW296196   9.369  10.864   4.902  0.7760  0.1822  0.5733
30931SOL     OW96197   9.199   3.707   8.894  0.0708 -0.0788  0.3341
30931SOL    HW196198   9.163   3.671   8.975 -1.3926  0.1746 -0.1971
30931SOL    HW296199   9.269   3.766   8.924 -0.2193 -0.2588  1.3912
30932SOL     OW96200   8.196  10.576   3.767 -0.0113 -0.2053 -0.5487
30932SOL    HW196201   8.108  10.562   3.733 -0.6380  2.2928 -0.0557
30932SOL    HW296202   8.224  10.658   3.727  2.1690 -1.0411 -0.8180
30933SOL     OW96203   8.348   2.211   0.695 -0.2416 -0.3273 -0.4692
30933SOL    HW196204   8.324   2.292   0.651  0.3519 -0.8851 -1.8583
30933SOL    HW296205   8.339   2.143   0.628 -0.8225 -1.4341  0.6948
30934SOL     OW96206   3.424   8.184   1.520 -0.4189  0.3708  0.1898
30934SOL    HW196207   3.472   8.228   1.590 -2.3150 -0.1639  1.8900
30934SOL    HW296208   3.336   8.223   1.524 -0.9771 -0.7390 -0.9219
30935SOL     OW96209   4.718   1.109   5.747 -1.0790 -0.0645 -0.1178
30935SOL    HW196210   4.691   1.178   5.686  1.3903 -1.9412 -3.4455
30935SOL    HW296211   4.640   1.055   5.757 -1.4227  0.1004 -1.8380
30936SOL     OW96212   2.615   2.674   4.969  0.1112 -0.9564 -0.6577
30936SOL    HW196213   2.679   2.690   5.038 -0.1270  0.8489 -0.8350
30936SOL    HW296214   2.545   2.624   5.012 -0.6218  1.2059  0.7379
30937SOL     OW96215   7.196   1.857   9.348 -0.4004  0.3813 -0.6028
30937SOL    HW196216   7.224   1.796   9.280 -0.5391 -0.3236 -0.0202
30937SOL    HW296217   7.277   1.889   9.387 -0.2820  1.4622 -1.6793
30938SOL     OW96218   3.732   5.252   3.122 -0.3133 -0.0430  0.2828
30938SOL    HW196219   3.686   5.206   3.052  0.0623 -0.4718  0.3217
30938SOL    HW296220   3.674   5.326   3.144 -0.8289 -0.3954  0.1061
30939SOL     OW96221   6.484   2.615   5.035 -0.1979 -0.3016  0.7547
30939SOL    HW196222   6.449   2.529   5.013  1.0944 -0.7897  0.5878
30939SOL    HW296223   6.414   2.657   5.086 -1.4076 -0.8839 -0.3914
30940SOL     OW96224   0.773  10.544   0.160  0.4958  0.3547 -0.3293
30940SOL    HW196225   0.709  10.582   0.220  2.6079  1.1450  1.5305
30940SOL    HW296226   0.835  10.615   0.143  1.9405 -0.9001 -0.5095
30941SOL     OW96227   3.388   8.624   2.345  0.0359 -0.1179 -0.2775
30941SOL    HW196228   3.325   8.571   2.394 -0.2709  0.3701 -0.1436
30941SOL    HW296229   3.423   8.685   2.410  1.0746 -0.7601 -0.2112
30942SOL     OW96230  10.269   3.187  10.968 -0.0791  0.0022 -0.1286
30942SOL    HW196231  10.348   3.142  10.999  0.3027 -0.3429 -1.5838
30942SOL    HW296232  10.197   3.131  10.997  0.1639  0.4867  1.5006
30943SOL     OW96233   1.058   0.756   1.220  0.2677  0.2774 -0.4429
30943SOL    HW196234   1.137   0.734   1.270  0.6002  1.7737 -0.2954
30943SOL    HW296235   1.010   0.673   1.213  2.1172 -0.7629 -1.0135
30944SOL     OW96236   6.528   2.273  10.927 -0.3330  0.4171 -0.4775
30944SOL    HW196237   6.527   2.212  11.001  1.8479  0.3511 -0.4495
30944SOL    HW296238   6.486   2.225  10.856  0.2267 -0.6589 -0.1020
30945SOL     OW96239   0.745   4.746   6.344 -0.2203 -0.0692  0.0021
30945SOL    HW196240   0.704   4.685   6.282  0.3281 -1.2465  0.7719
30945SOL    HW296241   0.839   4.733   6.332 -0.0882  1.0801 -0.2514
30946SOL     OW96242   5.788   6.626   6.751 -0.3063 -0.4196 -0.2866
30946SOL    HW196243   5.824   6.569   6.818  1.3771  0.5148 -0.3806
30946SOL    HW296244   5.700   6.591   6.733  0.8429 -3.1828 -0.6155
30947SOL     OW96245   7.414   7.231   9.423 -0.2919  0.1984 -0.4589
30947SOL    HW196246   7.415   7.303   9.486  0.4554  0.9313 -1.2936
30947SOL    HW296247   7.321   7.212   9.409 -0.4711  0.3900  0.4567
30948SOL     OW96248   7.945   9.485   5.015  0.0982 -0.5927  0.7328
30948SOL    HW196249   7.892   9.533   5.078  1.2020 -0.7836  1.8386
30948SOL    HW296250   7.939   9.393   5.041 -0.7380 -0.8782 -0.4247
30949SOL     OW96251   2.916   5.409   5.852 -0.0299  0.7845  0.1867
30949SOL    HW196252   2.860   5.364   5.789 -1.0143  1.0584  0.8600
30949SOL    HW296253   2.996   5.357   5.854 -0.4454  0.1147 -0.4168
30950SOL     OW96254   4.507   5.691   2.468 -0.6788 -0.5982 -0.0474
30950SOL    HW196255   4.524   5.597   2.465 -2.9673 -1.0273 -0.8898
30950SOL    HW296256   4.499   5.717   2.377  1.5003  0.7565  0.1185
30951SOL     OW96257   2.376   3.416   6.496 -0.1862 -0.3649  0.2822
30951SOL    HW196258   2.400   3.508   6.489  0.4419 -0.6360 -1.4703
30951SOL    HW296259   2.459   3.369   6.490 -0.7398 -1.1434 -1.6071
30952SOL     OW96260   9.110   9.858   9.457 -0.0228  0.1854 -0.3591
30952SOL    HW196261   9.162   9.865   9.378  0.0647 -0.9917 -0.4127
30952SOL    HW296262   9.173   9.865   9.529  0.4096 -2.5675 -0.4282
30953SOL     OW96263   1.161   3.083   2.194 -0.1546  0.1823 -0.4970
30953SOL    HW196264   1.140   3.176   2.185  0.4555  0.3860  0.1708
30953SOL    HW296265   1.086   3.038   2.155 -0.3462  0.9562 -1.0282
30954SOL     OW96266   3.214   2.717   7.649  0.0296 -0.2894  0.3013
30954SOL    HW196267   3.148   2.780   7.619 -1.5891 -1.5706  1.0590
30954SOL    HW296268   3.173   2.631   7.636  0.6918 -1.0227  2.7459
30955SOL     OW96269   9.310   0.238   5.906 -0.5362  0.3579 -0.6267
30955SOL    HW196270   9.324   0.200   5.819  0.9143  0.8340 -0.6070
30955SOL    HW296271   9.363   0.185   5.964 -1.5126  0.0383 -0.0237
30956SOL     OW96272   8.480   8.092   4.980 -0.2499 -0.4717 -0.0711
30956SOL    HW196273   8.392   8.064   5.005 -0.1629 -2.0204 -1.4197
30956SOL    HW296274   8.472   8.186   4.967 -1.3882 -0.3789  1.1208
30957SOL     OW96275   7.603   1.284   5.699 -0.4918  0.1484  0.3949
30957SOL    HW196276   7.629   1.374   5.715 -0.2453 -0.1469  1.7171
30957SOL    HW296277   7.682   1.242   5.664 -0.6493  0.4713 -0.3638
30958SOL     OW96278   3.967   6.759   0.340  0.2022  0.2545 -0.4061
30958SOL    HW196279   3.878   6.754   0.373  0.0646 -0.5634 -0.8844
30958SOL    HW296280   3.965   6.826   0.273  0.0137  0.4411 -0.2134
30959SOL     OW96281   8.766   4.128   5.163  0.0896 -0.3645  0.2327
30959SOL    HW196282   8.777   4.203   5.105  0.0593  0.1753  0.9133
30959SOL    HW296283   8.824   4.060   5.126 -0.1775 -0.1430 -0.5990
30960SOL     OW96284   4.417   7.450   3.867  0.6972 -0.5137  0.2256
30960SOL    HW196285   4.447   7.373   3.819  0.5851  0.3545 -1.2650
30960SOL    HW296286   4.483   7.516   3.850  0.7495 -0.2397  1.4401
30961SOL     OW96287   7.007   0.606  10.076 -0.0397  0.4910 -0.4124
30961SOL    HW196288   6.924   0.651  10.057  0.7366  1.6921 -1.0405
30961SOL    HW296289   6.980   0.523  10.116 -1.4776  2.1005  2.1255
30962SOL     OW96290   4.063   0.801   0.840  0.4525  0.5220 -0.2346
30962SOL    HW196291   4.054   0.815   0.935  0.4494  2.1737 -0.4548
30962SOL    HW296292   4.153   0.827   0.821  0.3851  0.3945 -0.7238
30963SOL     OW96293  10.976   5.030   5.839 -0.2802 -0.2005  0.4541
30963SOL    HW196294  11.034   5.012   5.914  1.2879  0.7537 -0.4896
30963SOL    HW296295  10.972   5.125   5.834  2.7749 -0.1275 -2.9448
30964SOL     OW96296   4.861   5.880   0.816 -0.5315 -0.0386  0.2902
30964SOL    HW196297   4.878   5.900   0.724 -0.4717  3.0854  0.9165
30964SOL    HW296298   4.791   5.815   0.814 -1.6859  1.2188 -1.9244
30965SOL     OW96299   5.396   2.360   7.639 -0.0191 -0.0306  0.1786
30965SOL    HW196300   5.455   2.288   7.617 -2.1719 -1.9615  0.5382
30965SOL    HW296301   5.432   2.397   7.720 -0.3386 -2.4055  1.4430
30966SOL     OW96302   8.251   3.722   9.010 -0.3577  0.2342 -0.4024
30966SOL    HW196303   8.184   3.737   8.943  0.6885  1.7500 -1.1478
30966SOL    HW296304   8.209   3.746   9.092 -0.6743  1.4148 -0.8904
30967SOL     OW96305   9.996   1.066   7.066 -0.1940  0.0314 -0.1857
30967SOL    HW196306  10.010   0.972   7.056 -0.0054  0.1013 -0.5796
30967SOL    HW296307  10.031   1.087   7.152 -0.3095 -0.2736 -0.0643
30968SOL     OW96308   7.046   7.587   2.725  0.7523  0.6853  0.0217
30968SOL    HW196309   7.115   7.556   2.666 -1.1782 -0.5814 -1.6587
30968SOL    HW296310   6.980   7.517   2.722 -0.2331  1.4933  2.2201
30969SOL     OW96311   1.017   1.335   2.769 -0.1512  0.1325 -0.1663
30969SOL    HW196312   1.061   1.420   2.781  2.0429 -0.8179 -1.2383
30969SOL    HW296313   1.067   1.292   2.700 -1.0880 -2.1657  0.5624
30970SOL     OW96314   0.818   2.641   3.176  0.3761 -0.6181 -0.3918
30970SOL    HW196315   0.876   2.602   3.241 -1.4687 -1.7500  0.6365
30970SOL    HW296316   0.733   2.601   3.193 -0.5131  0.2946 -2.4618
30971SOL     OW96317   0.017   8.793   9.823  0.6668 -0.2078  0.6126
30971SOL    HW196318   0.031   8.869   9.766 -0.8343 -0.4306 -0.0879
30971SOL    HW296319   0.099   8.744   9.818  0.5734 -0.2210 -1.3821
30972SOL     OW96320   0.528   9.411   8.013 -0.7990  0.1038 -0.0920
30972SOL    HW196321   0.578   9.447   8.086 -0.6071 -2.5973  1.1884
30972SOL    HW296322   0.450   9.373   8.053 -0.6068 -1.5724 -1.2103
30973SOL     OW96323   7.286   9.963   3.679  0.6575  0.1998  0.0857
30973SOL    HW196324   7.288   9.883   3.626  0.3892 -0.8098  1.5645
30973SOL    HW296325   7.301  10.033   3.617  0.8037 -1.0010 -1.2616
30974SOL     OW96326   1.731   7.992   7.012 -0.4069 -0.8144  0.3083
30974SOL    HW196327   1.773   7.908   7.032  0.5842 -0.3702  0.1385
30974SOL    HW296328   1.666   8.004   7.081 -0.3204 -1.5619  0.5245
30975SOL     OW96329   5.290   6.339   4.805 -0.2101 -0.8905 -0.0918
30975SOL    HW196330   5.377   6.304   4.787  1.3804  2.8069 -0.1856
30975SOL    HW296331   5.274   6.401   4.734 -1.5406  0.7525  1.5895
30976SOL     OW96332   8.223   0.860   6.067 -0.1587  0.1826 -0.2328
30976SOL    HW196333   8.271   0.786   6.028 -1.3547 -0.8012  0.1455
30976SOL    HW296334   8.253   0.936   6.017  1.2287 -0.5166 -0.5066
30977SOL     OW96335   5.178   4.273   5.324 -0.5167  0.5850  0.0801
30977SOL    HW196336   5.123   4.227   5.260  0.6640  0.8651 -1.1688
30977SOL    HW296337   5.184   4.213   5.398 -0.3538 -0.5623 -0.8520
30978SOL     OW96338   3.371   1.733   6.413 -0.6002 -0.6528  0.7592
30978SOL    HW196339   3.337   1.817   6.444 -0.0415 -0.3881  0.6433
30978SOL    HW296340   3.457   1.752   6.378 -0.4199 -1.2983  0.8348
30979SOL     OW96341   2.825   3.471   7.057  0.2080  0.1352 -0.0146
30979SOL    HW196342   2.738   3.454   7.093  0.5544  1.4115  1.4924
30979SOL    HW296343   2.841   3.399   6.997 -1.1213 -1.1116  1.1029
30980SOL     OW96344  10.883   9.515   4.970  0.1226  0.6874 -0.3424
30980SOL    HW196345  10.850   9.604   4.954 -2.3207 -0.2234 -0.5172
30980SOL    HW296346  10.863   9.498   5.062 -0.7581 -0.2101 -0.6871
30981SOL     OW96347   6.604   1.453   0.713 -0.4064  0.2259  0.1127
30981SOL    HW196348   6.654   1.520   0.760 -0.4712  0.6701 -0.4451
30981SOL    HW296349   6.546   1.502   0.655 -1.4574 -0.2858  0.7060
30982SOL     OW96350   8.468   6.280   3.710  0.1009 -0.5926  0.0467
30982SOL    HW196351   8.381   6.294   3.671  0.0625  2.0360  0.9789
30982SOL    HW296352   8.516   6.360   3.690  1.0848 -0.4827  2.6798
30983SOL     OW96353   8.456   0.282   2.178 -0.0246 -0.8596 -0.3405
30983SOL    HW196354   8.425   0.196   2.148 -1.0426 -0.4485 -0.4812
30983SOL    HW296355   8.546   0.288   2.145  0.1464 -1.9879 -0.0878
30984SOL     OW96356  10.140   7.960   1.240  1.1199 -0.4289  0.1442
30984SOL    HW196357  10.048   7.947   1.217  0.7846 -0.1497  1.3064
30984SOL    HW296358  10.174   8.018   1.171  0.6460 -1.1909 -0.7443
30985SOL     OW96359   2.762   0.289   2.075 -0.0451 -0.7383 -0.0448
30985SOL    HW196360   2.820   0.306   2.150  0.6263  1.1768 -0.9599
30985SOL    HW296361   2.674   0.289   2.113  0.1968  1.3995  0.5894
30986SOL     OW96362   1.541   0.769   8.992 -0.0319 -0.3743 -0.2069
30986SOL    HW196363   1.501   0.770   8.905  0.3900  1.3980 -0.4131
30986SOL    HW296364   1.609   0.702   8.987 -0.2864 -0.5673 -1.1142
30987SOL     OW96365  10.391   2.506   2.854 -0.3155  0.0781  0.2812
30987SOL    HW196366  10.299   2.482   2.865  0.3895 -2.7650  0.4709
30987SOL    HW296367  10.405   2.507   2.760 -0.2063 -1.0359  0.2708
30988SOL     OW96368   8.825   7.577   0.433  0.1250 -0.2214  0.2404
30988SOL    HW196369   8.781   7.617   0.358 -0.0506  0.6099  0.7699
30988SOL    HW296370   8.917   7.599   0.422 -0.0142  0.6285  0.6968
30989SOL     OW96371  10.708   5.538   9.351  0.1653 -0.9523 -0.0949
30989SOL    HW196372  10.803   5.527   9.353  0.3521  0.3670 -0.9734
30989SOL    HW296373  10.689   5.567   9.262 -0.7696  1.1888  0.7757
30990SOL     OW96374   1.580  10.545   5.261 -0.0639  0.1392 -0.1455
30990SOL    HW196375   1.668  10.582   5.249 -0.3211  0.3510 -1.4475
30990SOL    HW296376   1.550  10.583   5.344  1.3865 -0.5901  0.7330
30991SOL     OW96377   5.795   4.370   2.493 -0.9504  0.3011 -0.4257
30991SOL    HW196378   5.805   4.301   2.427 -1.5822  0.5399 -0.7825
30991SOL    HW296379   5.767   4.325   2.572 -0.0700 -0.0029 -0.2756
30992SOL     OW96380   3.403   9.483   4.075  0.5468  0.6649  0.3259
30992SOL    HW196381   3.415   9.573   4.108  1.9259 -0.2637  2.4474
30992SOL    HW296382   3.313   9.481   4.044 -0.2080  2.1558  2.2911
30993SOL     OW96383   9.830   6.639   7.889  0.0655  0.3091 -0.1148
30993SOL    HW196384   9.803   6.664   7.801 -2.5221 -1.7668  0.0408
30993SOL    HW296385   9.779   6.695   7.947 -0.5600 -0.4815  0.1053
30994SOL     OW96386   8.113   6.531   6.607  0.5384  0.0271  0.3260
30994SOL    HW196387   8.094   6.469   6.536 -0.2407 -0.3781  0.8730
30994SOL    HW296388   8.029   6.573   6.624  0.9970  1.0223  0.1752
30995SOL     OW96389   1.877   6.388   7.566  0.0236 -0.1868 -0.0971
30995SOL    HW196390   1.955   6.428   7.527 -0.3464 -0.4239 -1.1201
30995SOL    HW296391   1.805   6.445   7.538 -0.5877 -1.8516 -2.0830
30996SOL     OW96392   8.425  10.425   5.830 -0.2420  0.4031 -0.2275
30996SOL    HW196393   8.493  10.489   5.852 -0.8057  1.0116 -0.2463
30996SOL    HW296394   8.431  10.415   5.735  1.1078 -0.9996 -0.0100
30997SOL     OW96395   7.130   0.981   3.929 -0.0759  0.0306 -0.8663
30997SOL    HW196396   7.199   1.035   3.889  0.0172 -0.2098 -1.0273
30997SOL    HW296397   7.058   0.983   3.866 -0.7280  1.3812 -0.1052
30998SOL     OW96398   5.307   0.611   2.168  0.2406 -0.0000 -0.2528
30998SOL    HW196399   5.367   0.546   2.205 -2.0535 -1.5796  0.8223
30998SOL    HW296400   5.300   0.587   2.076  0.2206 -0.6533 -0.0863
30999SOL     OW96401   6.814  10.145   6.656  0.1721 -0.5563 -0.2536
30999SOL    HW196402   6.766  10.224   6.681 -0.0389 -1.0295  0.8675
30999SOL    HW296403   6.902  10.159   6.691 -0.3615 -1.6075  1.6145
31000SOL     OW96404   1.755   1.572  10.883 -0.2445  0.0897  0.0817
31000SOL    HW196405   1.690   1.523  10.833  0.7402  1.2853 -2.4459
31000SOL    HW296406   1.833   1.516  10.882 -0.3859 -0.1178  0.7228
31001SOL     OW96407   2.700   6.216   3.856  0.5400 -0.2268  0.2490
31001SOL    HW196408   2.780   6.203   3.806  0.3264  0.0421 -0.1607
31001SOL    HW296409   2.729   6.220   3.947  0.6990 -3.0480  0.3800
31002SOL     OW96410   0.309  10.693   6.894  0.3738  0.0057  0.2984
31002SOL    HW196411   0.287  10.769   6.841 -0.7595 -1.2603 -1.1070
31002SOL    HW296412   0.305  10.724   6.984 -1.0097  1.3720 -0.2220
31003SOL     OW96413   2.612   5.003   7.711 -0.3075  0.2053 -0.1474
31003SOL    HW196414   2.672   4.965   7.775 -0.8858 -0.0619  0.2467
31003SOL    HW296415   2.531   4.954   7.722 -0.6706  0.7092 -0.5201
31004SOL     OW96416   7.737   4.119   3.420  0.2578  0.4005 -0.2501
31004SOL    HW196417   7.801   4.176   3.463  0.7864 -0.1465 -0.3109
31004SOL    HW296418   7.771   4.031   3.432 -1.1208 -0.0129  0.8249
31005SOL     OW96419   6.179   1.100   0.524  0.2358  0.3111  0.0532
31005SOL    HW196420   6.162   1.128   0.434 -0.0900  0.5628  0.1915
31005SOL    HW296421   6.274   1.097   0.531  0.2550 -0.5550 -0.5618
31006SOL     OW96422   7.409   5.726   5.726 -0.1613  0.1313  0.5256
31006SOL    HW196423   7.474   5.788   5.692 -1.2905  0.4831 -1.0220
31006SOL    HW296424   7.354   5.778   5.784 -0.7095  0.4331 -0.2640
31007SOL     OW96425   1.574   5.239   4.421 -0.0209 -0.1453 -0.5725
31007SOL    HW196426   1.635   5.257   4.493 -0.7527 -0.6968  0.2024
31007SOL    HW296427   1.629   5.202   4.352  0.6748  0.2752 -0.2448
31008SOL     OW96428   4.439   4.073  10.946  0.1753  0.3871 -0.3425
31008SOL    HW196429   4.418   4.088  11.038  1.9550  2.0322 -0.1718
31008SOL    HW296430   4.439   3.978  10.936  0.4255  0.1839  1.4697
31009SOL     OW96431   1.116   3.040   1.775  0.6742  0.3626 -0.1748
31009SOL    HW196432   1.125   2.946   1.760  0.4033  0.0242  1.6397
31009SOL    HW296433   1.091   3.076   1.690  1.0645 -1.1594 -0.9492
31010SOL     OW96434   0.759   0.367   0.309 -0.2245 -0.4076 -0.1255
31010SOL    HW196435   0.673   0.410   0.305  0.7552  1.6149 -0.1364
31010SOL    HW296436   0.816   0.422   0.255  1.1241 -1.6454  0.0027
31011SOL     OW96437   5.166   6.600   4.271  0.0072 -0.2073 -0.1938
31011SOL    HW196438   5.146   6.538   4.341  1.2118 -1.1302 -0.6532
31011SOL    HW296439   5.084   6.607   4.221 -0.8868  0.5471  1.3651
31012SOL     OW96440   5.885   1.468   9.070  0.1362  0.0512  0.0478
31012SOL    HW196441   5.843   1.473   9.156  1.2627 -2.0485  0.7535
31012SOL    HW296442   5.834   1.404   9.021  1.1376 -0.8450  0.1408
31013SOL     OW96443   7.692   9.920   0.405  0.1581  0.3774  0.2179
31013SOL    HW196444   7.708   9.921   0.500 -0.9261  1.5622  0.4012
31013SOL    HW296445   7.599   9.944   0.396 -0.2455 -1.5266 -1.0572
31014SOL     OW96446   1.434   5.502   9.927 -0.4469  0.6781  0.5477
31014SOL    HW196447   1.381   5.441   9.876 -1.5373  0.5145  1.8509
31014SOL    HW296448   1.423   5.587   9.883 -1.6834  0.6202  0.7426
31015SOL     OW96449  10.648   8.157   5.746  0.0541  0.3248 -0.1354
31015SOL    HW196450  10.693   8.129   5.826 -1.4186 -0.8714  0.2845
31015SOL    HW296451  10.698   8.116   5.675  1.2157  1.1911  0.1542
31016SOL     OW96452   0.869   6.926  10.527  0.2902 -0.7025 -0.5575
31016SOL    HW196453   0.843   6.844  10.568 -1.5239 -0.5539 -1.3446
31016SOL    HW296454   0.912   6.976  10.596  0.2847 -1.8034  0.2426
31017SOL     OW96455   2.093   7.205   3.270 -0.0437 -0.0923 -0.3263
31017SOL    HW196456   2.174   7.194   3.320  0.2098  0.5349 -0.5953
31017SOL    HW296457   2.024   7.209   3.336 -0.4420 -5.4760 -0.2374
31018SOL     OW96458   4.697   2.319   2.228  0.4475 -0.4199 -0.1552
31018SOL    HW196459   4.784   2.326   2.189  0.4113  2.4721  0.1834
31018SOL    HW296460   4.641   2.371   2.171 -0.4759  0.2010  1.2944
31019SOL     OW96461   5.606   3.224   9.006  0.0786  0.1221  0.1997
31019SOL    HW196462   5.599   3.222   9.101 -1.2323 -1.0300  0.0978
31019SOL    HW296463   5.689   3.181   8.986  2.1039  3.5201  0.9543
31020SOL     OW96464   6.829   6.132   9.591 -0.2359  0.3762  0.4379
31020SOL    HW196465   6.781   6.163   9.668  1.6492  1.1671  1.3183
31020SOL    HW296466   6.876   6.209   9.559  2.0153 -0.8001  0.7856
31021SOL     OW96467   3.176   4.363   6.980  0.7924 -0.1447 -0.1528
31021SOL    HW196468   3.252   4.398   7.026 -0.2841  1.1071  0.7201
31021SOL    HW296469   3.106   4.426   6.998 -0.1321 -0.6067 -1.9846
31022SOL     OW96470   1.289   8.122   6.377 -0.4006  0.1371 -0.4563
31022SOL    HW196471   1.214   8.151   6.429 -0.4975 -0.3934 -0.2928
31022SOL    HW296472   1.312   8.036   6.414 -0.0294  0.0718 -0.8343
31023SOL     OW96473  10.142   2.888   0.386 -0.5531  0.0673  0.1564
31023SOL    HW196474  10.085   2.844   0.322 -0.8323 -0.3559  0.6921
31023SOL    HW296475  10.147   2.978   0.355 -0.4697 -0.1968 -0.6146
31024SOL     OW96476   5.756   0.824   0.192  0.0818 -0.0445  0.1153
31024SOL    HW196477   5.723   0.740   0.161 -2.0080  0.4268  0.9617
31024SOL    HW296478   5.702   0.889   0.147  0.8461  0.7931  0.3992
31025SOL     OW96479   3.005   6.818   1.862  0.3963 -0.3194  0.2183
31025SOL    HW196480   2.952   6.806   1.783 -0.1927 -0.1042  0.5746
31025SOL    HW296481   2.944   6.803   1.934  0.5472  1.0188  0.6393
31026SOL     OW96482   3.300   2.484   9.154 -0.2975  0.3182  0.1310
31026SOL    HW196483   3.385   2.475   9.197  0.5913  2.4159 -1.0801
31026SOL    HW296484   3.284   2.399   9.112  0.4502 -0.5910  1.6497
31027SOL     OW96485   8.690  10.198   9.927  0.1404  0.2836 -0.0501
31027SOL    HW196486   8.701  10.114   9.973  0.5487 -0.2428 -1.0966
31027SOL    HW296487   8.610  10.235   9.966 -0.1140 -0.6422  0.3420
31028SOL     OW96488   4.258   0.389   0.727  0.7763  0.0652  0.3503
31028SOL    HW196489   4.351   0.371   0.737  0.9579  0.4735 -0.5937
31028SOL    HW296490   4.238   0.451   0.798  1.4617  0.8232 -0.1044
31029SOL     OW96491   8.923   8.448   2.617  0.3093 -0.3273  0.4207
31029SOL    HW196492   8.906   8.412   2.704 -0.4501  0.5353  0.6379
31029SOL    HW296493   8.865   8.524   2.610 -0.6629 -1.2025 -1.3847
31030SOL     OW96494   1.500   0.436   4.811  0.2833  0.2558  0.1321
31030SOL    HW196495   1.508   0.365   4.875 -0.2905  2.1883  2.4137
31030SOL    HW296496   1.522   0.395   4.727 -0.1934 -2.6511  1.3571
31031SOL     OW96497   0.976   5.072   2.297  0.6548 -0.1991 -0.2723
31031SOL    HW196498   0.933   5.147   2.338  0.7485 -0.3782  0.1516
31031SOL    HW296499   0.943   4.996   2.345 -1.2353 -0.6439 -2.1910
31032SOL     OW96500   6.475   0.569  10.785 -0.0372 -0.0721 -0.6863
31032SOL    HW196501   6.390   0.559  10.742 -0.6299 -0.3908  0.5499
31032SOL    HW296502   6.469   0.653  10.830 -0.9151 -1.5733  2.0987
31033SOL     OW96503   8.721  10.821   0.673 -0.1654 -0.5764  0.0915
31033SOL    HW196504   8.803  10.791   0.635  0.6204  0.6193  0.8219
31033SOL    HW296505   8.676  10.866   0.601  1.5528  2.1473  0.6494
31034SOL     OW96506   8.753   3.975   6.493  0.2517  0.2094 -0.3203
31034SOL    HW196507   8.737   3.922   6.415  0.0392  0.3057 -0.3429
31034SOL    HW296508   8.847   3.965   6.510  0.3844  0.5480 -0.8545
31035SOL     OW96509   5.171   0.003   9.688 -0.5490  0.3403 -0.1304
31035SOL    HW196510   5.175  -0.074   9.744 -0.2957  1.1623  1.0105
31035SOL    HW296511   5.115  -0.022   9.615 -0.9517 -0.7138  0.5383
31036SOL     OW96512   4.856   4.322   3.451  0.1287 -0.0791 -0.4356
31036SOL    HW196513   4.938   4.308   3.499  0.4212  1.7116 -0.4069
31036SOL    HW296514   4.832   4.234   3.421  3.4841 -0.3303 -2.7315
31037SOL     OW96515   7.635   9.021   8.870 -0.4559 -0.8917  0.2912
31037SOL    HW196516   7.676   9.083   8.809  1.1934  0.3293  2.5718
31037SOL    HW296517   7.616   8.944   8.816 -0.1769  0.6060 -2.0262
31038SOL     OW96518  10.546   5.411   3.389  0.2835 -0.0961 -0.4837
31038SOL    HW196519  10.595   5.331   3.411 -0.1864 -0.5926 -1.2461
31038SOL    HW296520  10.456   5.382   3.378 -0.3501  0.9413  1.6509
31039SOL     OW96521   0.946   5.490   0.758 -0.3665  0.7207 -0.4208
31039SOL    HW196522   0.941   5.397   0.779 -1.8850  0.6882 -0.9190
31039SOL    HW296523   0.988   5.492   0.671 -1.4575  0.4242 -0.9639
31040SOL     OW96524   0.874   5.668   2.162 -0.7426 -0.0537  0.2909
31040SOL    HW196525   0.839   5.655   2.074 -0.3398 -0.3364  0.1710
31040SOL    HW296526   0.801   5.648   2.220 -0.9593 -0.0311  0.0251
31041SOL     OW96527   4.788   0.911   1.823  0.1254  0.4791 -0.2036
31041SOL    HW196528   4.796   0.995   1.868  0.2982  0.2247  0.2374
31041SOL    HW296529   4.822   0.846   1.885 -0.9283 -0.0400 -0.1476
31042SOL     OW96530   2.395   7.468   2.751  0.0908  0.1765 -0.2677
31042SOL    HW196531   2.383   7.556   2.787  0.1925 -0.1703  0.6096
31042SOL    HW296532   2.382   7.409   2.825 -0.3601 -0.5720 -0.9300
31043SOL     OW96533   2.127   3.714   4.632  0.3151  0.0742 -0.0541
31043SOL    HW196534   2.194   3.654   4.597 -1.1984 -0.6404 -1.8296
31043SOL    HW296535   2.064   3.657   4.675  0.5816  0.7021  1.1703
31044SOL     OW96536   0.917  10.179   7.625 -0.3026  0.3776  0.2748
31044SOL    HW196537   0.999  10.192   7.673  0.4807 -1.1570 -0.5957
31044SOL    HW296538   0.914  10.084   7.610 -2.0301  0.4791 -0.0770
31045SOL     OW96539   1.103  10.324   9.201 -0.5791  0.7427  0.0933
31045SOL    HW196540   1.012  10.311   9.172  0.0259 -0.1430 -1.4662
31045SOL    HW296541   1.140  10.385   9.137  0.7210 -1.0705 -0.9096
31046SOL     OW96542   8.077   9.529   3.056 -0.0378  0.1500  0.0414
31046SOL    HW196543   8.063   9.623   3.050 -3.2202 -0.2963 -0.1737
31046SOL    HW296544   8.100   9.502   2.967  2.2695  0.8816  0.3792
31047SOL     OW96545  10.711   3.718   6.561  0.6928 -0.2620 -0.1867
31047SOL    HW196546  10.617   3.732   6.553  0.7035 -0.7045 -1.2046
31047SOL    HW296547  10.732   3.657   6.490  1.6530 -0.5842  0.3655
31048SOL     OW96548   1.390   6.171   6.247  0.3741  0.3983 -0.3042
31048SOL    HW196549   1.456   6.174   6.177  2.3077  0.8509  1.5043
31048SOL    HW296550   1.307   6.171   6.200  1.6263  0.1264 -2.6387
31049SOL     OW96551   7.766   1.298   1.822  0.6083 -0.5369  0.6783
31049SOL    HW196552   7.824   1.223   1.834  0.9243 -0.5805 -0.9301
31049SOL    HW296553   7.825   1.374   1.820  0.3771 -0.3350  1.3772
31050SOL     OW96554   5.369   4.351   1.443  0.8025  0.2438  0.6060
31050SOL    HW196555   5.280   4.358   1.408  1.1015 -2.0577 -0.7050
31050SOL    HW296556   5.425   4.389   1.375  1.0154 -0.4472  0.3901
31051SOL     OW96557   8.302  10.851  10.239  0.4671  0.5310 -0.2198
31051SOL    HW196558   8.264  10.846  10.152 -0.2128  0.9913  0.0535
31051SOL    HW296559   8.277  10.937  10.272  0.4817  0.2453  0.5433
31052SOL     OW96560   4.600   6.131   4.340  0.2963 -0.1295  0.3187
31052SOL    HW196561   4.665   6.192   4.374  1.2267 -1.2489  0.5735
31052SOL    HW296562   4.519   6.182   4.336  1.0395  1.0909  0.6002
31053SOL     OW96563   7.620   2.447  10.657  0.0856  0.1637 -0.0870
31053SOL    HW196564   7.579   2.364  10.681  1.2035 -0.3887 -0.0181
31053SOL    HW296565   7.701   2.420  10.611  1.1141  1.2108  1.0892
31054SOL     OW96566   9.515   2.230   1.856 -0.7294  0.5149 -0.0721
31054SOL    HW196567   9.504   2.315   1.899  1.4936 -0.5624  2.7790
31054SOL    HW296568   9.467   2.169   1.912  0.7499 -0.6380 -0.0408
31055SOL     OW96569   7.330   8.871   9.484  0.3662  0.9267 -0.2490
31055SOL    HW196570   7.270   8.848   9.555  0.8308  0.6331  0.0496
31055SOL    HW296571   7.276   8.919   9.422 -0.3739 -0.0859 -0.3932
31056SOL     OW96572   1.152   7.302   5.004  0.5351  0.3440 -0.0814
31056SOL    HW196573   1.060   7.292   4.978 -0.0187 -0.7510  2.1509
31056SOL    HW296574   1.167   7.396   5.006 -0.6502  0.5404 -0.1562
31057SOL     OW96575   0.913  10.221   1.261  0.0969  0.4132  0.0876
31057SOL    HW196576   0.834  10.167   1.262  0.1348  0.2915 -1.4621
31057SOL    HW296577   0.933  10.237   1.353 -0.9707 -0.6699  0.5186
31058SOL     OW96578   7.969   5.354   4.733 -0.5605  0.3796 -0.1323
31058SOL    HW196579   7.904   5.298   4.690  1.4550 -2.6860  0.6176
31058SOL    HW296580   7.988   5.423   4.670 -2.1804 -0.5098 -1.6361
31059SOL     OW96581   1.762   2.926   9.229 -0.2436  0.3398  0.1019
31059SOL    HW196582   1.746   2.871   9.152  1.9183  0.0718 -0.1852
31059SOL    HW296583   1.815   2.998   9.195  2.3918 -0.7937  1.6902
31060SOL     OW96584  10.875  10.901   7.789 -0.4574 -0.2709 -0.2462
31060SOL    HW196585  10.835  10.888   7.703 -1.1614 -0.6393  0.1263
31060SOL    HW296586  10.822  10.847   7.848 -1.2813  1.6416  0.7830
31061SOL     OW96587   6.331   0.624   5.954  0.1072 -0.2864  0.1070
31061SOL    HW196588   6.292   0.606   5.869 -0.8797  1.4548  0.1707
31061SOL    HW296589   6.317   0.718   5.968  2.4099 -0.0534  1.0948
31062SOL     OW96590   6.905   6.567   1.249 -0.0918  0.6437 -0.0236
31062SOL    HW196591   7.000   6.572   1.235 -0.1804  1.7078 -0.2460
31062SOL    HW296592   6.867   6.599   1.168 -0.6456  1.0933  0.4094
31063SOL     OW96593  10.376   5.585   2.372  1.0480 -0.0056  0.2508
31063SOL    HW196594  10.283   5.566   2.357  0.3505  2.3565  1.4107
31063SOL    HW296595  10.397   5.654   2.309  1.9374 -0.2996  0.2197
31064SOL     OW96596   2.230   9.731   3.285  0.2117 -0.0633 -0.4342
31064SOL    HW196597   2.313   9.747   3.329  0.6087  0.4401 -1.3642
31064SOL    HW296598   2.215   9.808   3.231 -0.2466 -0.6941 -1.2270
31065SOL     OW96599   7.668   5.688   5.097 -0.1094  0.1456  0.4390
31065SOL    HW196600   7.639   5.645   5.017  2.3242 -2.1756  0.7606
31065SOL    HW296601   7.760   5.665   5.105  0.3503  2.4650  2.5810
31066SOL     OW96602   4.357   8.123   5.940  0.1799  0.1364 -0.1456
31066SOL    HW196603   4.416   8.056   5.974 -1.2640 -0.1466  1.8882
31066SOL    HW296604   4.287   8.074   5.897  1.0946  0.4543 -2.0306
31067SOL     OW96605   3.406   8.047   3.785  0.4674 -0.6288 -0.1089
31067SOL    HW196606   3.466   7.979   3.754  1.4791  0.3810 -0.4151
31067SOL    HW296607   3.458   8.127   3.783 -0.1794 -0.1263  1.8958
31068SOL     OW96608   9.493   4.985   1.306  0.0320  0.2591 -0.8550
31068SOL    HW196609   9.569   4.929   1.323  0.1590  1.1941  1.7414
31068SOL    HW296610   9.524   5.074   1.324 -1.6257  0.6716  0.0379
31069SOL     OW96611   5.521   4.296   3.001  0.4081 -0.2037  0.2494
31069SOL    HW196612   5.566   4.225   3.046 -0.8666 -0.2873  1.4382
31069SOL    HW296613   5.542   4.375   3.051  0.2859 -0.0342  0.0405
31070SOL     OW96614   3.402   8.546   5.505  0.3501  0.1062  0.0642
31070SOL    HW196615   3.418   8.510   5.418  0.8210 -0.1564  0.2533
31070SOL    HW296616   3.372   8.635   5.489 -0.1600 -0.1472 -0.3851
31071SOL     OW96617   3.151   0.215   5.406 -0.5165 -0.4590  0.3027
31071SOL    HW196618   3.171   0.206   5.313 -0.4289 -2.1225  0.4805
31071SOL    HW296619   3.236   0.230   5.447 -0.4415 -0.6900  0.2322
31072SOL     OW96620   4.899   9.696   1.226 -0.2193  0.7084 -0.8551
31072SOL    HW196621   4.993   9.681   1.211 -0.0438  1.2290 -0.3085
31072SOL    HW296622   4.858   9.674   1.142  0.6085  2.3524 -1.7132
31073SOL     OW96623   3.942   4.882   8.004  0.3044 -0.1028  0.0847
31073SOL    HW196624   3.923   4.953   8.066  0.5381  0.3389 -0.3467
31073SOL    HW296625   3.965   4.807   8.059  0.6482  0.3296  0.5258
31074SOL     OW96626   1.215  10.192  10.935 -0.5176  0.1018 -0.5706
31074SOL    HW196627   1.218  10.098  10.919 -0.7383 -0.0578  0.3008
31074SOL    HW296628   1.173  10.200  11.021  1.0547  0.9093  0.1343
31075SOL     OW96629   5.335  10.453   2.201 -0.1079  0.5082 -0.3581
31075SOL    HW196630   5.300  10.375   2.158  1.2248 -0.5826  0.5146
31075SOL    HW296631   5.288  10.526   2.159 -2.5801 -0.8233 -0.0144
31076SOL     OW96632   0.270   6.760   7.083 -0.0958 -0.0434 -0.0753
31076SOL    HW196633   0.215   6.837   7.097  0.5805  0.4835 -0.2737
31076SOL    HW296634   0.360   6.793   7.092  0.1989 -0.8020 -0.1970
31077SOL     OW96635   3.915   7.079   5.597 -0.4957 -0.5085  0.6896
31077SOL    HW196636   3.849   7.037   5.652 -2.1514  0.2837 -0.6417
31077SOL    HW296637   3.897   7.046   5.509 -0.4795  1.3439 -0.0264
31078SOL     OW96638   5.351   6.406   9.773 -1.0006 -0.8544 -0.1084
31078SOL    HW196639   5.390   6.391   9.688 -1.6089 -0.2960 -0.4969
31078SOL    HW296640   5.414   6.461   9.820 -1.2709 -0.0292 -0.7003
31079SOL     OW96641   0.599   7.212   7.130 -0.2426 -0.4244  0.3589
31079SOL    HW196642   0.691   7.187   7.143  0.1396  0.6326 -0.2993
31079SOL    HW296643   0.589   7.217   7.035 -0.6196  0.8083  0.4623
31080SOL     OW96644   1.449   0.757   6.214  0.2232  0.2084  0.3191
31080SOL    HW196645   1.474   0.686   6.274 -0.7404  0.3037  0.8437
31080SOL    HW296646   1.354   0.762   6.221  0.0838  0.0753 -1.4059
31081SOL     OW96647   0.588   7.877   7.782 -0.0755  0.0757 -0.0561
31081SOL    HW196648   0.497   7.850   7.787 -0.0264 -0.4151 -1.5815
31081SOL    HW296649   0.631   7.809   7.730  0.6659  1.5279 -1.3830
31082SOL     OW96650   9.991   4.315   2.723  0.0556  0.1218  0.0208
31082SOL    HW196651  10.024   4.225   2.726  0.8856  0.4080 -0.6248
31082SOL    HW296652   9.902   4.308   2.758  0.8743 -0.6057  2.0749
31083SOL     OW96653   3.255   4.721   2.747 -0.3445  0.0647 -0.1287
31083SOL    HW196654   3.197   4.791   2.719 -0.6300  0.2885  0.9785
31083SOL    HW296655   3.253   4.725   2.843 -0.5530 -1.5972 -0.0501
31084SOL     OW96656   9.706   9.151   2.863 -0.2863 -0.2271 -0.5843
31084SOL    HW196657   9.759   9.169   2.786  0.3644 -0.3187 -0.1563
31084SOL    HW296658   9.617   9.139   2.829 -0.0101 -0.2040 -1.3080
31085SOL     OW96659   1.463   6.861   7.720 -0.1203  0.0857 -0.4480
31085SOL    HW196660   1.527   6.817   7.776 -1.6202 -1.2110  0.3071
31085SOL    HW296661   1.434   6.936   7.771  0.0407  0.0851 -0.3562
31086SOL     OW96662   1.534   3.886   4.726  0.6536 -0.2192 -0.3599
31086SOL    HW196663   1.572   3.973   4.735  0.0889  0.2753 -2.3671
31086SOL    HW296664   1.511   3.860   4.815  3.1169  0.6241  0.5716
31087SOL     OW96665   6.335   9.412   0.037  0.0499  0.2695 -1.0167
31087SOL    HW196666   6.248   9.447   0.055  0.0710  0.5478 -1.4582
31087SOL    HW296667   6.320   9.323   0.006  0.0965 -0.8451  1.9847
31088SOL     OW96668  10.967   5.174   9.480 -0.1078 -0.0777  0.0414
31088SOL    HW196669  11.059   5.172   9.506 -0.3774 -1.0165  0.9312
31088SOL    HW296670  10.963   5.246   9.416  1.5300 -1.0095 -1.1689
31089SOL     OW96671   2.303   5.915   2.781  0.1135  0.5292 -0.1706
31089SOL    HW196672   2.221   5.898   2.828 -0.2080  2.4076 -0.0195
31089SOL    HW296673   2.355   5.968   2.841  0.7602  0.7658 -0.9259
31090SOL     OW96674   3.961   2.638   7.889 -0.4066 -0.0534 -0.2845
31090SOL    HW196675   3.898   2.704   7.917 -1.4934 -0.9652 -0.5774
31090SOL    HW296676   4.044   2.666   7.930 -0.5781  2.1005 -1.3045
31091SOL     OW96677   8.004   6.634   2.250  0.1050  0.1475 -0.1634
31091SOL    HW196678   8.003   6.558   2.309  0.9292  0.5470  0.3623
31091SOL    HW296679   7.912   6.660   2.243 -0.3555 -1.6654 -1.3370
31092SOL     OW96680   7.124   5.010   6.522 -0.0670  0.0313  0.1017
31092SOL    HW196681   7.174   4.996   6.441  0.7738  1.0709  0.4391
31092SOL    HW296682   7.165   4.951   6.585  0.4093  0.4979  0.2353
31093SOL     OW96683   7.123   0.649   8.212 -0.3372  0.4650 -0.5390
31093SOL    HW196684   7.065   0.700   8.269  0.0587 -1.9508  2.0772
31093SOL    HW296685   7.077   0.567   8.197  2.0375 -1.2371  1.0432
31094SOL     OW96686   0.360   5.485   0.601  0.1212  0.2321  0.4347
31094SOL    HW196687   0.338   5.466   0.510 -0.4618  1.7461  0.2569
31094SOL    HW296688   0.436   5.543   0.597  1.0188 -0.8746  0.9585
31095SOL     OW96689   3.578   0.305   1.415  0.0903 -0.5822  0.2386
31095SOL    HW196690   3.646   0.241   1.438 -0.4988 -0.9192  1.0538
31095SOL    HW296691   3.614   0.389   1.444  0.5900 -0.6244 -0.2491
31096SOL     OW96692  10.163   3.415   6.926 -0.5111 -0.1010  0.1615
31096SOL    HW196693  10.110   3.403   6.847 -1.2398 -0.3456  0.6839
31096SOL    HW296694  10.250   3.385   6.901 -1.2134 -2.1105  0.0418
31097SOL     OW96695   4.400   8.279   3.298 -0.6080  0.2319 -0.0085
31097SOL    HW196696   4.444   8.343   3.353  0.0167 -1.3725  1.4001
31097SOL    HW296697   4.309   8.279   3.327 -0.0875 -1.2676  1.6804
31098SOL     OW96698  10.227   6.437   3.327  0.0609 -0.2613 -0.0383
31098SOL    HW196699  10.275   6.489   3.391  1.8759 -0.5279 -1.1208
31098SOL    HW296700  10.269   6.459   3.243 -0.4240 -1.9917 -0.7535
31099SOL     OW96701   4.427   2.199   7.215  0.0910 -0.1794 -0.1187
31099SOL    HW196702   4.469   2.178   7.132  0.0590  0.1281 -0.2141
31099SOL    HW296703   4.410   2.114   7.256  0.5802 -0.3109 -0.1933
31100SOL     OW96704   9.183  10.418   9.525 -0.3717 -0.1142  0.3051
31100SOL    HW196705   9.266  10.373   9.533 -0.0566  0.4949  0.5332
31100SOL    HW296706   9.201  10.492   9.466  0.0117  1.7432  2.6570
31101SOL     OW96707   1.890   0.368   6.158  0.0786  0.1249 -0.6698
31101SOL    HW196708   1.922   0.278   6.144 -1.8557 -0.7498  0.3207
31101SOL    HW296709   1.945   0.402   6.228  1.9718  0.3539 -2.2098
31102SOL     OW96710   4.966   3.148   7.843  0.1636 -0.7285 -0.0294
31102SOL    HW196711   4.887   3.159   7.894  1.5128  4.3528  1.2504
31102SOL    HW296712   4.936   3.149   7.752 -1.2685  1.7877  0.4198
31103SOL     OW96713  10.502   8.142   1.213 -0.2841 -0.1529  0.5802
31103SOL    HW196714  10.565   8.078   1.245  0.2456  0.9458  1.7720
31103SOL    HW296715  10.478   8.193   1.290 -0.8692  0.9505 -0.3104
31104SOL     OW96716   4.097   0.211   9.866 -0.3178 -0.4859 -0.3966
31104SOL    HW196717   4.178   0.162   9.846 -0.0902  0.7901 -2.8865
31104SOL    HW296718   4.076   0.187   9.956  2.3586 -1.5456  0.0110
31105SOL     OW96719   8.078   2.079   7.929  0.2414 -0.2969  0.3237
31105SOL    HW196720   8.129   2.069   8.009  0.2017  4.4640  1.1022
31105SOL    HW296721   8.090   2.171   7.905 -3.6170 -0.4273 -2.4850
31106SOL     OW96722  10.782   0.028   2.232  0.2558  0.4239 -0.3320
31106SOL    HW196723  10.714   0.063   2.173 -0.2051 -0.7293 -0.5019
31106SOL    HW296724  10.813  -0.051   2.187  0.4410 -0.0417  0.6177
31107SOL     OW96725   1.322   1.606  10.607 -0.3466 -0.1962 -0.4695
31107SOL    HW196726   1.395   1.668  10.614 -0.2677  0.0776 -2.9775
31107SOL    HW296727   1.247   1.653  10.643  0.4044  0.0848  0.7462
31108SOL     OW96728   2.812   7.411   9.971 -0.1134 -0.1134 -0.1165
31108SOL    HW196729   2.790   7.502   9.991 -0.8138 -0.3675  0.2967
31108SOL    HW296730   2.866   7.416   9.893 -0.1850  0.6588 -0.1208
31109SOL     OW96731   4.735   1.344   9.163  0.2790 -0.1179 -0.2314
31109SOL    HW196732   4.712   1.381   9.248 -0.5639 -0.2547 -0.4045
31109SOL    HW296733   4.733   1.249   9.177 -0.8533 -0.1593 -0.6685
31110SOL     OW96734   9.823   5.965   8.735  0.3166  0.2542 -0.1485
31110SOL    HW196735   9.863   5.885   8.769 -3.1425 -2.1644 -1.5008
31110SOL    HW296736   9.816   5.950   8.641  0.2646  2.4855 -0.5321
31111SOL     OW96737   6.898   0.098   2.854 -0.2068  0.2959 -0.3683
31111SOL    HW196738   6.804   0.086   2.865 -0.4495  2.5563  0.3168
31111SOL    HW296739   6.908   0.136   2.767 -0.0301  1.1801  0.0362
31112SOL     OW96740   9.380   2.330   8.703 -0.1040  0.3154  0.2076
31112SOL    HW196741   9.428   2.300   8.626 -0.0618  1.1823 -0.1143
31112SOL    HW296742   9.446   2.335   8.772  0.3566  1.7971 -0.3116
31113SOL     OW96743   5.216   3.234   4.553 -0.4510 -0.0314 -1.1223
31113SOL    HW196744   5.276   3.231   4.478  0.6318 -0.2199 -0.2705
31113SOL    HW296745   5.220   3.324   4.583 -0.5680 -0.0556 -1.0340
31114SOL     OW96746   9.879   5.021  10.484 -0.1882 -0.2254  0.3125
31114SOL    HW196747   9.962   5.005  10.439 -0.3982  1.5267 -0.7713
31114SOL    HW296748   9.830   5.078  10.424 -2.0193 -0.9221  1.1090
31115SOL     OW96749   5.103   1.847   4.341 -0.1974 -0.2522  0.8074
31115SOL    HW196750   5.052   1.838   4.261  0.5972 -0.2156  0.2942
31115SOL    HW296751   5.181   1.793   4.327 -0.1533 -0.4239  1.6428
31116SOL     OW96752   2.477   9.073   1.204  0.1489 -0.0930 -0.4266
31116SOL    HW196753   2.566   9.068   1.168 -0.3207 -0.3308 -1.5858
31116SOL    HW296754   2.436   8.991   1.178 -0.5723  0.2365 -0.3460
31117SOL     OW96755   3.649   7.586   6.822 -0.4811  0.1197 -0.1452
31117SOL    HW196756   3.664   7.605   6.914  2.1904 -1.4254 -0.1905
31117SOL    HW296757   3.564   7.543   6.819 -0.9525  0.9428  1.4947
31118SOL     OW96758   2.451   4.237   1.717  0.1730  0.2547 -0.2064
31118SOL    HW196759   2.383   4.174   1.740 -0.6790  0.2999 -2.5416
31118SOL    HW296760   2.415   4.322   1.744  0.1898  0.0666  0.4278
31119SOL     OW96761   5.497   5.022   2.857  0.0591 -0.2298 -0.1424
31119SOL    HW196762   5.494   4.963   2.933  0.9895 -0.9111 -0.6273
31119SOL    HW296763   5.556   5.092   2.884 -1.5956  0.8671  0.6958
31120SOL     OW96764  10.237  10.242   7.587  0.0010  0.1362  0.6148
31120SOL    HW196765  10.236  10.150   7.560  1.1429  0.3798 -0.2899
31120SOL    HW296766  10.326  10.257   7.620  0.3272  1.3326 -0.7427
31121SOL     OW96767  10.862   0.129   3.667  0.2169  0.5999  0.7033
31121SOL    HW196768  10.839   0.096   3.754  0.7894  0.6475  0.8760
31121SOL    HW296769  10.781   0.123   3.617 -0.1670  0.7455  1.2955
31122SOL     OW96770   8.729   9.504   9.065  0.6766 -0.4318  0.4433
31122SOL    HW196771   8.793   9.481   8.997 -1.7199 -1.5630 -1.5350
31122SOL    HW296772   8.701   9.419   9.101  1.6670  0.1445  2.6531
31123SOL     OW96773   6.500   8.919   5.183 -0.7995  0.0833 -0.8085
31123SOL    HW196774   6.512   9.010   5.154  2.4646 -0.5564 -1.6043
31123SOL    HW296775   6.551   8.912   5.263 -1.1819 -1.0189 -0.6532
31124SOL     OW96776   7.621   1.774   5.617  0.1107  0.5657  0.2505
31124SOL    HW196777   7.584   1.742   5.700 -0.7213  1.6380  0.3085
31124SOL    HW296778   7.634   1.867   5.632  0.8828  0.5756 -0.5010
31125SOL     OW96779   8.220  10.898   8.385 -0.7518 -0.2791  0.1853
31125SOL    HW196780   8.161  10.971   8.366  0.2474  0.5745  0.3514
31125SOL    HW296781   8.228  10.851   8.302 -1.1845 -0.0543  0.0149
31126SOL     OW96782   6.175   2.992   1.809 -0.3110 -0.4407  0.3543
31126SOL    HW196783   6.127   3.062   1.764  3.2472 -0.4286 -3.7902
31126SOL    HW296784   6.245   3.038   1.856 -0.4588 -0.9387  1.0678
31127SOL     OW96785   8.194   2.491   6.106  0.6121  0.0226 -0.3964
31127SOL    HW196786   8.247   2.485   6.026  2.2023 -0.9846  0.7044
31127SOL    HW296787   8.246   2.545   6.165  0.5709 -1.2038  0.7986
31128SOL     OW96788   2.455   7.809   1.633 -0.4922  0.2128  0.5874
31128SOL    HW196789   2.472   7.832   1.724 -1.7988  0.8673  0.6806
31128SOL    HW296790   2.523   7.746   1.611  1.5630  2.1979  1.1221
31129SOL     OW96791   7.253   7.331   3.770 -0.1048  0.5177  0.5086
31129SOL    HW196792   7.315   7.272   3.813 -1.1948 -0.2152  1.0970
31129SOL    HW296793   7.177   7.276   3.753 -0.0832  1.0692 -1.4386
31130SOL     OW96794   5.936   4.312  10.665  0.9772  0.5442  0.9964
31130SOL    HW196795   5.988   4.352  10.595  0.7752  0.2624  0.6819
31130SOL    HW296796   5.941   4.375  10.738  1.8341  0.4805  1.0032
31131SOL     OW96797   6.082   3.280   6.168 -0.3750 -0.4604  0.1348
31131SOL    HW196798   6.058   3.252   6.080  0.2351 -2.7780  0.6690
31131SOL    HW296799   6.009   3.333   6.198 -0.8992 -0.2570 -1.5101
31132SOL     OW96800   3.049   1.110   2.390 -0.0116  0.1613 -0.0836
31132SOL    HW196801   2.985   1.180   2.376 -0.2281 -0.2513 -1.2223
31132SOL    HW296802   3.130   1.156   2.412 -0.3041  0.7494 -0.2157
31133SOL     OW96803   9.988   0.513   4.876  0.6455  0.5039 -0.5045
31133SOL    HW196804  10.044   0.503   4.799  2.9363 -2.2087  1.3709
31133SOL    HW296805   9.977   0.424   4.909 -2.1815  1.3672  1.0367
31134SOL     OW96806   7.773   9.973   0.168  0.3370 -0.2679  0.2794
31134SOL    HW196807   7.751   9.940   0.255  0.0240  1.3674  0.8354
31134SOL    HW296808   7.860  10.010   0.178  1.2288 -2.0528 -0.6585
31135SOL     OW96809   3.175   3.794  10.254 -0.2046  0.4774  0.1942
31135SOL    HW196810   3.226   3.845  10.191  1.7607  1.3768  2.4118
31135SOL    HW296811   3.084   3.816  10.236  0.3326  0.9168 -2.1222
31136SOL     OW96812   8.977   0.158   8.357 -0.0763  0.2822  0.3436
31136SOL    HW196813   8.933   0.076   8.378  0.1478  0.1295  0.2216
31136SOL    HW296814   8.918   0.203   8.297  0.0945 -0.0835 -0.1006
31137SOL     OW96815   1.176   2.974   0.182 -0.5325  0.3936 -0.5202
31137SOL    HW196816   1.260   3.019   0.193  0.0175  0.1898 -3.6046
31137SOL    HW296817   1.200   2.881   0.180 -0.8336  0.3379 -1.4328
31138SOL     OW96818   6.345   2.449   1.735  0.2913 -0.2940 -0.1024
31138SOL    HW196819   6.350   2.420   1.644  0.9969 -0.4100 -0.0341
31138SOL    HW296820   6.303   2.377   1.781 -2.5060  0.8552 -0.7805
31139SOL     OW96821   3.285   0.627   3.083  0.8925 -0.2469  0.1770
31139SOL    HW196822   3.243   0.541   3.082 -0.3131  0.3340 -0.2502
31139SOL    HW296823   3.281   0.654   3.175  2.8891 -1.4017  0.6373
31140SOL     OW96824   5.287   5.448   3.746 -0.6520  0.4826  0.7320
31140SOL    HW196825   5.255   5.367   3.785  0.1147 -0.4700 -0.5927
31140SOL    HW296826   5.229   5.465   3.672  0.6910 -0.2221 -0.5128
31141SOL     OW96827   7.541   8.565   0.998  0.8439 -0.2932 -0.0810
31141SOL    HW196828   7.457   8.573   0.953  1.0364  0.8917 -0.2591
31141SOL    HW296829   7.525   8.599   1.085  0.5928 -2.1378  0.6107
31142SOL     OW96830   0.564   5.243   2.047  0.0977  0.1548 -0.0693
31142SOL    HW196831   0.533   5.330   2.022  2.9107  0.3845 -3.1746
31142SOL    HW296832   0.509   5.183   1.997 -1.8365  0.1006  2.0650
31143SOL     OW96833   5.812   8.586   6.983  0.1837  0.0126  0.5515
31143SOL    HW196834   5.744   8.558   7.044 -2.6917  2.1836 -1.5506
31143SOL    HW296835   5.779   8.561   6.896  1.7717  1.6786 -0.5828
31144SOL     OW96836   1.411   9.016   5.042  0.1839  0.4041  0.3604
31144SOL    HW196837   1.467   8.947   5.078 -0.0024  0.7185  1.2646
31144SOL    HW296838   1.472   9.086   5.017  0.3048  0.2140  0.1125
31145SOL     OW96839   3.402  10.348   7.031 -0.0441 -0.2211 -0.0179
31145SOL    HW196840   3.345  10.322   7.103 -0.5560 -2.7890 -1.2747
31145SOL    HW296841   3.481  10.382   7.073 -1.0426 -0.0653  1.7481
31146SOL     OW96842   6.201   6.001   4.779  0.0322  0.5601 -0.6245
31146SOL    HW196843   6.184   5.908   4.792  1.3278  0.3577 -0.2054
31146SOL    HW296844   6.152   6.044   4.849 -0.3861  0.1677 -0.6752
31147SOL     OW96845   7.751   1.174   5.188  0.1261  0.0505  0.6612
31147SOL    HW196846   7.796   1.120   5.123  1.0168  0.8825  0.5829
31147SOL    HW296847   7.685   1.221   5.138  0.2930  0.1084  0.4981
31148SOL     OW96848   9.607   9.526   9.764 -0.4678  0.3079 -0.2102
31148SOL    HW196849   9.661   9.448   9.765  0.1330  0.6829 -1.4130
31148SOL    HW296850   9.518   9.494   9.752 -0.0724 -0.1339 -2.0741
31149SOL     OW96851   9.311  10.840   5.613 -0.2255  0.1759  0.5046
31149SOL    HW196852   9.216  10.849   5.613 -0.4801 -2.2143  0.0271
31149SOL    HW296853   9.339  10.877   5.529 -0.7604  0.6742  0.5467
31150SOL     OW96854   2.453   7.009   4.429 -0.3277 -0.4348 -0.2598
31150SOL    HW196855   2.457   7.014   4.524 -1.5900 -1.9013 -0.1121
31150SOL    HW296856   2.507   6.934   4.406  1.5635  1.0886 -0.8621
31151SOL     OW96857   5.158   3.061   0.706  0.3546 -0.2024 -0.3714
31151SOL    HW196858   5.089   3.098   0.651  1.0142  0.0748 -1.0118
31151SOL    HW296859   5.183   2.981   0.662  2.3606  1.0806 -1.6333
31152SOL     OW96860   6.360   4.952   0.433  0.2823  0.2411  0.6802
31152SOL    HW196861   6.314   4.956   0.349 -0.6226  0.4888  1.1743
31152SOL    HW296862   6.452   4.956   0.411  0.0313  0.7505 -0.2820
31153SOL     OW96863  10.514   9.088   5.501 -0.1118 -0.2048 -0.2049
31153SOL    HW196864  10.424   9.104   5.529  0.3597  2.1762  0.0393
31153SOL    HW296865  10.505   9.052   5.412 -1.3177 -0.3670 -0.0214
31154SOL     OW96866   5.941   9.548   1.245  0.2050 -0.3235 -0.2374
31154SOL    HW196867   5.850   9.571   1.228 -0.0593  0.6815  2.3343
31154SOL    HW296868   5.991   9.626   1.219  0.1023 -0.0331  0.4121
31155SOL     OW96869   0.568   1.712   1.515  0.1766 -0.1591  0.4310
31155SOL    HW196870   0.531   1.667   1.438  0.4630 -1.4634  1.0380
31155SOL    HW296871   0.583   1.642   1.578 -0.7825  0.9925  1.9773
31156SOL     OW96872   8.108   3.122  10.787  0.1718  0.1446  0.7647
31156SOL    HW196873   8.083   3.033  10.811  0.3909  0.2755  1.4827
31156SOL    HW296874   8.036   3.176  10.818 -0.0401  0.2048  0.1766
31157SOL     OW96875   3.281   6.376   3.442  0.3761 -0.0073 -0.0092
31157SOL    HW196876   3.248   6.326   3.516 -0.8711  1.3712  0.4005
31157SOL    HW296877   3.339   6.442   3.480  1.0887 -0.3823 -0.4299
31158SOL     OW96878   1.541   1.053   7.204  0.0334  0.0342  0.3924
31158SOL    HW196879   1.597   1.001   7.146  2.9905  1.5835  1.7386
31158SOL    HW296880   1.482   0.990   7.244 -0.1479 -1.4568 -2.1629
31159SOL     OW96881   9.482   4.157  10.054 -0.2544 -0.0652 -0.4085
31159SOL    HW196882   9.440   4.087  10.005 -0.0438  0.4096 -1.2799
31159SOL    HW296883   9.574   4.132  10.057 -0.5873 -1.1024  1.4937
31160SOL     OW96884   8.751   1.261   0.149  0.3608  0.3296 -0.1415
31160SOL    HW196885   8.772   1.169   0.134 -1.3746 -0.0669 -0.1836
31160SOL    HW296886   8.798   1.308   0.080  1.9760 -0.4357  0.4161
31161SOL     OW96887   3.323   1.959   0.804 -0.2648  0.4123  0.2071
31161SOL    HW196888   3.390   2.027   0.791  0.9394 -0.3493  2.1951
31161SOL    HW296889   3.328   1.905   0.725  0.6186  1.0794 -0.2004
31162SOL     OW96890   7.222   8.432   4.941 -0.0437  0.0119 -0.2947
31162SOL    HW196891   7.291   8.491   4.972 -0.6419  0.2925  0.5343
31162SOL    HW296892   7.211   8.370   5.013 -0.4582 -0.2050 -0.5493
31163SOL     OW96893   5.577   0.713   6.699 -0.3429  0.2994 -0.4515
31163SOL    HW196894   5.524   0.679   6.627 -0.9169 -1.4845  0.7625
31163SOL    HW296895   5.537   0.675   6.777  1.1026  1.0951  0.6927
31164SOL     OW96896   6.457   2.152   8.476 -0.0200 -0.7371 -0.0213
31164SOL    HW196897   6.462   2.245   8.498 -1.6875 -0.0033 -2.5455
31164SOL    HW296898   6.491   2.107   8.554 -1.0106  1.8736  2.0029
31165SOL     OW96899   7.233   0.924   5.752  0.2141  0.0033 -0.4975
31165SOL    HW196900   7.295   0.852   5.747 -1.2060 -1.4022  1.4730
31165SOL    HW296901   7.264   0.979   5.823  0.7430  0.8134 -1.3485
31166SOL     OW96902   0.932   0.532   2.994  0.3837 -0.1940 -0.1046
31166SOL    HW196903   0.957   0.454   2.945  0.6877 -0.1237 -0.0612
31166SOL    HW296904   0.889   0.498   3.073 -0.0363 -0.3084 -0.3793
31167SOL     OW96905   1.817   8.710   5.606 -0.1804  0.0288  0.1849
31167SOL    HW196906   1.848   8.790   5.649  0.4319 -0.3715  0.4989
31167SOL    HW296907   1.787   8.654   5.677  0.6242 -0.5437  0.0816
31168SOL     OW96908   0.550   9.272   6.804  0.5127 -0.2515  0.5824
31168SOL    HW196909   0.565   9.343   6.868 -1.2036  1.3159 -0.6898
31168SOL    HW296910   0.635   9.259   6.763  1.0023  0.6345  1.2806
31169SOL     OW96911   8.925   1.109   2.765  0.0741 -0.1616  0.5048
31169SOL    HW196912   8.852   1.169   2.783  0.0488 -0.3480  1.0269
31169SOL    HW296913   8.894   1.024   2.795  0.0282 -0.4822 -0.4330
31170SOL     OW96914   0.869   5.258   2.015  0.4644 -0.6323 -0.3541
31170SOL    HW196915   0.774   5.248   2.019  0.4648 -1.4668 -2.2303
31170SOL    HW296916   0.894   5.280   2.105 -1.4016 -1.3045  0.3564
31171SOL     OW96917   2.233   9.357   2.228  0.2018 -0.5967 -0.0858
31171SOL    HW196918   2.166   9.289   2.225  0.2155 -0.6394  0.5589
31171SOL    HW296919   2.305   9.323   2.175  0.2648 -1.1375  0.3529
31172SOL     OW96920   3.768   0.847   6.047 -0.6029 -0.4701 -0.0348
31172SOL    HW196921   3.700   0.887   6.100  0.7486 -0.6277  1.8725
31172SOL    HW296922   3.802   0.919   5.993  0.1358  0.4106  1.5789
31173SOL     OW96923   9.855   8.359   5.627 -0.3526  0.3858  0.0254
31173SOL    HW196924   9.770   8.341   5.588 -0.3661  1.2003 -0.3338
31173SOL    HW296925   9.835   8.378   5.719 -0.4582 -0.3132  0.1463
31174SOL     OW96926   9.868   0.799   3.387  0.2225  0.6466  0.1035
31174SOL    HW196927   9.867   0.866   3.456  1.8635  0.1010  0.6724
31174SOL    HW296928   9.898   0.846   3.309 -0.2816  0.9482  0.0882
31175SOL     OW96929   2.127   8.824   6.496  0.2988 -0.1646  0.5680
31175SOL    HW196930   2.091   8.909   6.521 -0.7031 -0.2827 -0.4168
31175SOL    HW296931   2.155   8.785   6.579  0.6275  1.0550  1.0432
31176SOL     OW96932   2.549   0.244   1.685 -0.1523  0.6461  0.4266
31176SOL    HW196933   2.489   0.273   1.616 -1.0530  0.2807  1.0470
31176SOL    HW296934   2.502   0.261   1.767  1.4922  2.4268  1.0288
31177SOL     OW96935   1.238   0.258   1.392  0.1130 -0.2107  0.3635
31177SOL    HW196936   1.299   0.218   1.329 -0.9764 -0.8048 -0.3410
31177SOL    HW296937   1.240   0.199   1.467 -0.0432 -0.5566  0.0994
31178SOL     OW96938   5.785   6.233   9.345  0.1056 -0.3613 -0.3448
31178SOL    HW196939   5.793   6.137   9.350  1.3185 -0.2564 -0.0687
31178SOL    HW296940   5.820   6.264   9.428  1.8323  0.4259 -1.3401
31179SOL     OW96941   1.773   7.180   4.885  0.0565 -0.6422  0.3760
31179SOL    HW196942   1.719   7.183   4.806  0.2114  1.2631  0.3314
31179SOL    HW296943   1.847   7.125   4.861 -1.2025 -2.2445  0.0390
31180SOL     OW96944   8.719   0.784   6.644  0.0877  0.0033  0.0553
31180SOL    HW196945   8.774   0.761   6.569  0.5134  0.5865  0.1888
31180SOL    HW296946   8.724   0.879   6.649 -0.5124  0.0161  0.3922
31181SOL     OW96947   2.125   5.589  10.976  0.1059  0.0451 -0.2688
31181SOL    HW196948   2.077   5.670  10.963 -0.7490 -0.1711  1.4201
31181SOL    HW296949   2.058   5.523  10.992  0.8303 -0.8616 -0.8254
31182SOL     OW96950  10.394   4.929   7.882 -0.3905 -0.2947 -0.2567
31182SOL    HW196951  10.349   4.918   7.798 -0.1764  0.1923 -0.4299
31182SOL    HW296952  10.471   4.982   7.863 -0.5934  0.2239  0.3298
31183SOL     OW96953   0.057   1.721   6.305 -0.1537  0.1636 -0.2220
31183SOL    HW196954   0.138   1.692   6.262 -0.1776  0.9032 -0.7812
31183SOL    HW296955  -0.001   1.646   6.298  0.7696 -0.6796  0.9433
31184SOL     OW96956   3.544   1.554   3.281 -0.5073 -0.1021  0.4131
31184SOL    HW196957   3.480   1.595   3.222  1.7918 -0.6997 -2.6324
31184SOL    HW296958   3.590   1.628   3.320  0.4080  0.2959 -1.3781
31185SOL     OW96959   7.198   5.698   2.218  0.4376  0.0974 -0.6388
31185SOL    HW196960   7.123   5.653   2.178 -0.7781  2.3013 -0.8999
31185SOL    HW296961   7.265   5.699   2.150 -0.4485  0.9273 -1.5093
31186SOL     OW96962   3.385  10.203   5.453 -0.3792  0.5382  0.0733
31186SOL    HW196963   3.383  10.109   5.436 -2.4431  0.4248  0.8070
31186SOL    HW296964   3.339  10.213   5.537  1.0314  2.0644  0.6827
31187SOL     OW96965   6.718   0.248   1.466 -0.4483 -0.7345  0.1438
31187SOL    HW196966   6.721   0.270   1.559  0.1946  0.1063 -0.0724
31187SOL    HW296967   6.809   0.246   1.439 -0.6573 -0.4047 -0.5952
31188SOL     OW96968   7.460  10.040   6.669 -0.2038 -0.3565  0.1996
31188SOL    HW196969   7.389  10.099   6.646  0.6200  0.2292 -0.9008
31188SOL    HW296970   7.529  10.097   6.704  1.0496 -0.4886 -1.9561
31189SOL     OW96971   6.839   3.890  10.135  0.0342  0.4875  0.5285
31189SOL    HW196972   6.831   3.826  10.065  0.5973 -1.2773  2.0365
31189SOL    HW296973   6.788   3.965  10.104 -1.1355 -0.8978 -1.0247
31190SOL     OW96974  10.175   6.313  10.218  0.3748  0.1246  0.0596
31190SOL    HW196975  10.266   6.305  10.189  0.0861  1.2741 -1.2008
31190SOL    HW296976  10.125   6.322  10.137 -0.7047  0.9524  0.8058
31191SOL     OW96977   0.271   7.977   0.808 -0.5123 -0.3345 -0.4000
31191SOL    HW196978   0.319   7.902   0.846  1.9532  0.7368 -1.3105
31191SOL    HW296979   0.255   7.952   0.718 -1.5783 -0.6349 -0.1317
31192SOL     OW96980   7.443   9.835   2.201 -0.1883  0.0419 -0.0401
31192SOL    HW196981   7.483   9.748   2.201  1.1539  0.6534  0.0180
31192SOL    HW296982   7.464   9.871   2.288  0.6775  1.0739 -0.6700
31193SOL     OW96983   6.645   3.570   4.337 -0.7478 -0.1710  0.3666
31193SOL    HW196984   6.587   3.644   4.316 -1.3399  0.0027  2.5183
31193SOL    HW296985   6.629   3.553   4.429  0.2002 -2.3043  0.1520
31194SOL     OW96986   8.919   4.414   3.801  0.2765 -0.0961  0.2742
31194SOL    HW196987   8.934   4.506   3.777  0.8135 -0.4250 -0.6722
31194SOL    HW296988   8.846   4.417   3.863 -0.4362  0.8794 -0.6032
31195SOL     OW96989   3.846   7.652   0.371 -0.4547 -0.2986 -0.1818
31195SOL    HW196990   3.841   7.746   0.386 -0.5297  0.0057 -2.0354
31195SOL    HW296991   3.939   7.634   0.357 -0.5448 -0.3510 -0.7280
31196SOL     OW96992   0.732   7.295   1.062 -0.1994 -0.1080 -0.5658
31196SOL    HW196993   0.806   7.308   1.002 -0.0091 -0.3960 -0.3878
31196SOL    HW296994   0.656   7.288   1.004 -0.1528  0.6494 -0.7289
31197SOL     OW96995   6.325   3.080   3.004  0.5118  0.3899 -0.3367
31197SOL    HW196996   6.369   3.038   2.931 -1.7201 -0.2589 -1.3556
31197SOL    HW296997   6.249   3.124   2.965 -1.2294 -0.7316  1.6425
31198SOL     OW96998   3.126   2.634   1.673 -0.5621 -0.6627 -0.0748
31198SOL    HW196999   3.147   2.703   1.610  1.9695 -0.3849  1.0369
31198SOL    HW297000   3.177   2.559   1.644 -0.0111 -0.7758  1.1584
31199SOL     OW97001   8.017   0.925   4.668 -0.4294  0.7152 -0.3712
31199SOL    HW197002   7.964   0.993   4.710 -0.3001 -0.1177  1.1445
31199SOL    HW297003   8.031   0.958   4.579  1.2682  3.6354  0.8864
31200SOL     OW97004   8.550   8.934   3.899  0.0365  0.2225  0.2501
31200SOL    HW197005   8.585   9.006   3.952  0.0963  0.3614  0.0221
31200SOL    HW297006   8.562   8.856   3.954 -0.4658  0.4531  0.6862
31201SOL     OW97007   0.420   6.024   5.259 -0.1158  0.3569  0.2773
31201SOL    HW197008   0.326   6.010   5.259  0.0509 -0.8190  0.7572
31201SOL    HW297009   0.443   6.040   5.350  0.1989  0.2574  0.2187
31202SOL     OW97010   7.347   0.380   4.230  0.2720  0.3418  0.2641
31202SOL    HW197011   7.258   0.345   4.236 -0.0702  1.1505 -0.0325
31202SOL    HW297012   7.345   0.438   4.154  1.5347 -1.0105 -0.8304
31203SOL     OW97013   3.767   2.688   9.622  0.3085 -0.1050 -0.2804
31203SOL    HW197014   3.787   2.627   9.694 -1.9646  1.7529  2.0121
31203SOL    HW297015   3.734   2.632   9.552  0.2234 -1.7116  1.0075
31204SOL     OW97016   3.308   5.763   9.958  0.2606 -0.4261 -0.0438
31204SOL    HW197017   3.399   5.740   9.942  0.6139  0.7261  0.2898
31204SOL    HW297018   3.258   5.694   9.915  1.2763 -0.4700 -1.1828
31205SOL     OW97019   5.466   7.269   1.016  0.3805 -0.2811  0.5870
31205SOL    HW197020   5.388   7.323   1.031  0.1592  0.0157 -1.4203
31205SOL    HW297021   5.535   7.312   1.066 -0.7314 -0.5302  2.3594
31206SOL     OW97022  10.246   3.364   5.339 -0.2040 -0.2299 -0.2892
31206SOL    HW197023  10.154   3.380   5.360  0.2607  0.1088  1.6652
31206SOL    HW297024  10.260   3.271   5.357 -0.4142 -0.5153 -1.5993
31207SOL     OW97025   4.701   3.390   6.032  0.0051 -0.9554  0.4375
31207SOL    HW197026   4.663   3.339   6.104  2.4227  0.0816  2.5138
31207SOL    HW297027   4.632   3.453   6.009 -1.4631 -2.4566  0.6149
31208SOL     OW97028   1.497   6.351   6.720 -0.2793  0.8774 -0.2935
31208SOL    HW197029   1.480   6.289   6.649  0.2496 -1.7515  1.7922
31208SOL    HW297030   1.592   6.351   6.729 -0.4562 -0.7181  1.9922
31209SOL     OW97031   0.669   8.019   2.945 -0.3255 -0.2074  0.3498
31209SOL    HW197032   0.620   8.091   2.983 -1.3810 -0.9284  0.3546
31209SOL    HW297033   0.674   8.040   2.852 -2.1266 -0.9829  0.0641
31210SOL     OW97034   0.522   3.047   4.168  0.3151  0.7534  0.3430
31210SOL    HW197035   0.480   3.095   4.239  1.0161  1.0829  0.5436
31210SOL    HW297036   0.578   2.982   4.211  0.0215  0.3230  0.0822
31211SOL     OW97037   2.477   6.127   8.843 -0.4782 -0.1118  0.1873
31211SOL    HW197038   2.459   6.104   8.752  1.5556  0.1227 -0.3123
31211SOL    HW297039   2.490   6.222   8.842 -2.4084  0.1690  1.0828
31212SOL     OW97040   1.620   2.161   5.171 -0.6977  0.3433 -0.0969
31212SOL    HW197041   1.674   2.228   5.130 -1.3529  0.3348 -0.9929
31212SOL    HW297042   1.661   2.078   5.147 -0.9915  0.3456 -0.6249
31213SOL     OW97043   8.279   5.437   6.366 -0.0813  0.0115  0.2277
31213SOL    HW197044   8.340   5.379   6.412  0.6238 -0.6954 -1.5361
31213SOL    HW297045   8.198   5.387   6.358 -0.3625  0.3224  1.1257
31214SOL     OW97046   3.400   2.095  10.831 -0.3213 -0.2021  0.2364
31214SOL    HW197047   3.323   2.131  10.788 -1.1196 -1.4493  0.5899
31214SOL    HW297048   3.365   2.036  10.898  0.8955  1.1503  2.1320
31215SOL     OW97049   3.555   4.366   9.601 -0.5641 -0.3000 -0.0040
31215SOL    HW197050   3.564   4.297   9.667 -1.4134 -0.3496  0.0720
31215SOL    HW297051   3.460   4.375   9.589 -0.4341  0.2327 -0.6681
31216SOL     OW97052   4.641   0.611   8.644 -0.0491  0.3946 -0.2343
31216SOL    HW197053   4.624   0.639   8.554  0.3994  1.6061  0.0461
31216SOL    HW297054   4.728   0.646   8.663  0.4901 -1.1333  0.1705
31217SOL     OW97055   1.800   3.793  10.246 -0.0176  0.7825  0.6102
31217SOL    HW197056   1.881   3.801  10.297 -0.8852  0.4513  2.0841
31217SOL    HW297057   1.731   3.809  10.310 -1.1379  0.4081 -0.5018
31218SOL     OW97058  10.812   5.883   4.851  0.4459  0.3880 -0.3942
31218SOL    HW197059  10.727   5.919   4.876  0.3026 -0.5135  0.4549
31218SOL    HW297060  10.806   5.871   4.756 -0.2643  0.6161 -0.3798
31219SOL     OW97061   3.748   6.194   2.966  0.4929 -0.0719  0.0545
31219SOL    HW197062   3.678   6.258   2.982 -1.0599 -1.6748 -0.2276
31219SOL    HW297063   3.765   6.157   3.053  0.7585  0.0768  0.0651
31220SOL     OW97064   9.802   2.881   3.915  0.0800  0.2403 -0.5715
31220SOL    HW197065   9.776   2.971   3.938 -0.9755  0.4697 -2.5857
31220SOL    HW297066   9.724   2.829   3.932  0.2837 -0.0888 -0.6503
31221SOL     OW97067   6.074   2.010   8.386  0.5123 -0.2305  0.0479
31221SOL    HW197068   6.117   1.954   8.321  0.3369 -2.0914  1.4851
31221SOL    HW297069   5.981   2.000   8.370  0.3434 -3.0716  2.4307
31222SOL     OW97070   0.211   2.297   4.499 -0.3553 -0.0539 -0.1872
31222SOL    HW197071   0.126   2.301   4.544  0.1629 -0.2921  0.8286
31222SOL    HW297072   0.250   2.383   4.515 -0.2828 -0.0462 -0.4052
31223SOL     OW97073   6.100   5.327   8.562  0.4188  0.7488 -0.4493
31223SOL    HW197074   6.043   5.389   8.517 -0.1369 -0.4049 -1.3566
31223SOL    HW297075   6.040   5.269   8.609  0.9271  0.8196  0.2951
31224SOL     OW97076   4.501   2.572   0.573  0.1194  0.0204 -0.2714
31224SOL    HW197077   4.526   2.515   0.500 -0.9080 -2.0396  0.9169
31224SOL    HW297078   4.414   2.540   0.599  0.1534  1.2017  1.3575
31225SOL     OW97079   0.436   3.436   3.781  0.6368  0.2152  0.2117
31225SOL    HW197080   0.525   3.410   3.804  1.3642  2.1740 -0.2809
31225SOL    HW297081   0.400   3.471   3.863  0.0417 -1.2860  0.6011
31226SOL     OW97082   0.632  10.115   6.919  0.4574 -0.3031  0.4173
31226SOL    HW197083   0.616  10.202   6.882  1.7730  0.0285  0.5993
31226SOL    HW297084   0.663  10.063   6.845 -1.3432 -0.9269  0.0765
31227SOL     OW97085   2.897   0.331   1.659  0.2585  0.4197 -0.0130
31227SOL    HW197086   2.839   0.383   1.603 -2.5479 -1.5566  0.9110
31227SOL    HW297087   2.910   0.386   1.737 -2.1913  0.0564  0.6975
31228SOL     OW97088  10.087   7.337   2.331  0.1724  0.3312  0.5030
31228SOL    HW197089   9.999   7.369   2.312  0.7044  0.9433 -0.9516
31228SOL    HW297090  10.094   7.256   2.281  0.9636  1.0631 -0.5865
31229SOL     OW97091   1.145   6.260  10.040  0.0534 -0.3354 -0.1468
31229SOL    HW197092   1.238   6.269  10.061 -0.0087  0.1516 -0.0794
31229SOL    HW297093   1.142   6.190   9.974  0.4629 -0.3685 -0.1308
31230SOL     OW97094  10.898  10.370   8.999 -0.5057  0.0963  0.4930
31230SOL    HW197095  10.930  10.313   9.070 -1.8266 -2.2601 -0.7509
31230SOL    HW297096  10.960  10.356   8.927 -0.8482  0.2306  0.1745
31231SOL     OW97097   7.202   7.810   6.819 -0.2557 -0.0676  0.3102
31231SOL    HW197098   7.198   7.828   6.725 -0.2274 -0.0431  0.3140
31231SOL    HW297099   7.250   7.885   6.855  1.0050 -0.7880  0.1559
31232SOL     OW97100   2.251   8.820   0.052 -0.0180  0.1830 -0.6288
31232SOL    HW197101   2.314   8.779  -0.007  0.0185 -0.6717 -0.0049
31232SOL    HW297102   2.245   8.911   0.022  0.0702 -0.2206 -1.8781
31233SOL     OW97103   4.621   4.366   6.452  0.0332  0.3000  0.0669
31233SOL    HW197104   4.571   4.435   6.408  1.6411  1.6372  0.2937
31233SOL    HW297105   4.598   4.286   6.404 -0.0186  1.3721 -1.7492
31234SOL     OW97106   5.547  10.811   2.866 -0.3333  0.2469  0.2882
31234SOL    HW197107   5.500  10.738   2.825 -2.4630  1.0222  1.2877
31234SOL    HW297108   5.501  10.825   2.949  1.5891  1.1457  1.2292
31235SOL     OW97109   5.089   1.548   9.234 -0.4104 -0.3907 -1.2115
31235SOL    HW197110   5.155   1.479   9.220  0.5684  0.8118 -2.6195
31235SOL    HW297111   5.129   1.606   9.299 -1.2394 -1.1285 -0.0191
31236SOL     OW97112   4.131   6.271   2.025 -0.2053 -0.4805 -0.3898
31236SOL    HW197113   4.106   6.329   1.952  0.0014 -0.6628 -0.6077
31236SOL    HW297114   4.049   6.233   2.055 -0.7464  2.2581  1.7520
31237SOL     OW97115   5.771   7.708   3.956 -0.3012 -0.8863  0.1446
31237SOL    HW197116   5.794   7.671   4.042  1.7221 -1.1856 -0.5098
31237SOL    HW297117   5.744   7.632   3.905 -4.1415 -0.3916  1.2907
31238SOL     OW97118   1.278   5.503   9.156  0.2622 -0.7993  0.6115
31238SOL    HW197119   1.276   5.435   9.088  1.7905  1.7487 -2.0621
31238SOL    HW297120   1.362   5.492   9.199  0.1656 -1.0975  0.7274
31239SOL     OW97121  10.664   7.408   6.003 -0.4213 -0.4427  0.2859
31239SOL    HW197122  10.599   7.475   5.979  0.1285 -0.5063 -1.4215
31239SOL    HW297123  10.709   7.445   6.079 -1.4864  0.2368  0.5942
31240SOL     OW97124   5.130   1.674   1.557  0.4721 -0.4659  0.0568
31240SOL    HW197125   5.124   1.603   1.493 -1.8473 -0.6225  0.4313
31240SOL    HW297126   5.126   1.754   1.504  2.2421 -0.5791 -0.2886
31241SOL     OW97127   0.649   0.834   8.061 -0.6091 -0.5920  0.1695
31241SOL    HW197128   0.601   0.762   8.102 -2.9931 -0.0561 -1.5423
31241SOL    HW297129   0.630   0.824   7.967  0.0820  1.4946 -0.2168
31242SOL     OW97130   5.746   0.319   5.323  0.1846 -0.0817  0.1993
31242SOL    HW197131   5.701   0.396   5.288 -1.6017 -0.6717  1.1695
31242SOL    HW297132   5.713   0.245   5.272  1.8448 -0.2515 -0.6834
31243SOL     OW97133   2.101   7.240  10.745  0.1974  0.2125 -0.0266
31243SOL    HW197134   2.192   7.209  10.738 -0.4388 -1.3972 -1.6246
31243SOL    HW297135   2.065   7.227  10.658 -1.5145  1.0434  0.5449
31244SOL     OW97136   2.218   4.733   4.545  0.3192 -0.2558  0.3657
31244SOL    HW197137   2.133   4.731   4.589  0.1882 -0.2096  0.1168
31244SOL    HW297138   2.207   4.674   4.470  0.9686 -1.4103  1.1600
31245SOL     OW97139   4.794   7.381   8.357  0.1313  0.3597 -0.4859
31245SOL    HW197140   4.883   7.348   8.368  0.1217  0.2460 -0.7486
31245SOL    HW297141   4.758   7.329   8.285 -1.3242 -2.0824  1.8712
31246SOL     OW97142   1.509   9.141   3.932 -0.4344  0.4826 -0.1380
31246SOL    HW197143   1.423   9.114   3.900  0.1285  0.6886 -1.9232
31246SOL    HW297144   1.492   9.183   4.016 -2.0059 -0.0009 -0.2022
31247SOL     OW97145   3.359   6.969   3.189 -0.5800 -0.1852  0.1610
31247SOL    HW197146   3.446   6.956   3.150 -0.1010  2.9575  0.0555
31247SOL    HW297147   3.376   6.977   3.282 -0.5750  1.5361  0.0355
31248SOL     OW97148   3.971   4.419   5.365 -0.2188  0.8200  0.6202
31248SOL    HW197149   3.931   4.465   5.291  1.4993  2.1710  0.4860
31248SOL    HW297150   4.054   4.465   5.379  0.6991 -1.1146  1.6749
31249SOL     OW97151   1.014   9.654   4.609 -0.0105  0.1169 -0.3523
31249SOL    HW197152   1.100   9.614   4.619  0.0801 -0.0148 -1.5699
31249SOL    HW297153   1.033   9.747   4.592 -0.0791 -0.0066 -1.1352
31250SOL     OW97154   4.557  10.873   1.846  0.0550  0.0853  1.1027
31250SOL    HW197155   4.625  10.864   1.914 -1.1409 -0.3910  2.2561
31250SOL    HW297156   4.483  10.913   1.892 -1.6381 -2.5020  0.6919
31251SOL     OW97157   4.265   3.184   4.534 -0.4742 -0.3363  0.0211
31251SOL    HW197158   4.283   3.199   4.627 -1.1954 -1.3296  0.3269
31251SOL    HW297159   4.283   3.092   4.520  0.2675 -0.0448 -0.9873
31252SOL     OW97160  10.120   3.774  10.307 -0.0256  0.2773  0.7819
31252SOL    HW197161  10.048   3.712  10.296  0.3066  0.0958 -0.5130
31252SOL    HW297162  10.191   3.737  10.253  0.3236  1.5583  0.3455
31253SOL     OW97163   4.767   4.227   9.036  0.4836 -0.0426  0.8442
31253SOL    HW197164   4.827   4.154   9.047  0.0891 -0.8205 -1.7014
31253SOL    HW297165   4.716   4.205   8.958 -0.1427  2.6004  0.4345
31254SOL     OW97166   2.961   4.065   1.575  0.4214 -0.1976 -0.1794
31254SOL    HW197167   3.031   4.130   1.572  0.5520 -0.3517 -0.4320
31254SOL    HW297168   2.883   4.115   1.598  0.8276 -0.1985  1.2544
31255SOL     OW97169   5.991   7.631   8.888 -0.2854  0.0658 -0.1388
31255SOL    HW197170   6.048   7.664   8.819  1.6715 -0.4945  1.1635
31255SOL    HW297171   6.010   7.538   8.893  0.3746  0.2618  1.7961
31256SOL     OW97172   7.812   9.706   1.352  0.1341 -0.2177  0.3063
31256SOL    HW197173   7.890   9.656   1.327  1.0424  1.5993 -0.6280
31256SOL    HW297174   7.747   9.684   1.286  0.4505 -0.3607  0.0421
31257SOL     OW97175   5.090   5.242   5.607 -0.3551 -0.7174  0.1171
31257SOL    HW197176   5.117   5.328   5.574  1.8269 -1.6462 -0.6093
31257SOL    HW297177   5.028   5.261   5.677 -1.1518  1.4087 -1.1224
31258SOL     OW97178   2.841   5.070   4.993  0.3197  0.0081 -0.3135
31258SOL    HW197179   2.883   5.038   4.913  0.1147 -2.2326  0.4371
31258SOL    HW297180   2.909   5.120   5.038  1.4654 -1.5987 -0.2408
31259SOL     OW97181   0.298   5.200   9.141  0.0486  0.5097 -0.2867
31259SOL    HW197182   0.342   5.231   9.062  1.7278  0.0134  0.4309
31259SOL    HW297183   0.338   5.250   9.212  0.7888 -1.2701  0.5780
31260SOL     OW97184   6.178  10.527   2.127  0.1994  0.0932 -0.6728
31260SOL    HW197185   6.226  10.465   2.182  0.2779 -0.3549 -1.2398
31260SOL    HW297186   6.231  10.607   2.129  0.9705 -0.3954 -1.2881
31261SOL     OW97187   8.809   7.910   3.681  0.4914 -0.4111  0.3263
31261SOL    HW197188   8.772   7.828   3.649  0.5945  0.0512 -1.0382
31261SOL    HW297189   8.776   7.919   3.770  0.5782 -1.9830  0.5222
31262SOL     OW97190   8.323   2.021   6.155  0.1216  0.0636  0.0161
31262SOL    HW197191   8.264   1.947   6.158 -0.0939  0.1401 -1.8387
31262SOL    HW297192   8.373   2.009   6.075  0.9239  1.2909  0.3104
31263SOL     OW97193   6.488   2.787   8.263 -0.4115  0.2028  0.5672
31263SOL    HW197194   6.512   2.878   8.281 -2.9506  1.1402 -0.6124
31263SOL    HW297195   6.399   2.777   8.297 -0.8453 -1.3162 -0.9118
31264SOL     OW97196   3.106   2.046   1.131  0.4887 -0.3644 -0.5246
31264SOL    HW197197   3.147   2.132   1.139 -1.1922  0.4991 -0.9814
31264SOL    HW297198   3.064   2.048   1.045 -2.0779 -0.5267  0.6805
31265SOL     OW97199   6.859   0.971  10.870  0.0485 -0.0027  0.1823
31265SOL    HW197200   6.803   0.984  10.946 -1.9115  1.2755 -1.4090
31265SOL    HW297201   6.897   1.057  10.853  0.1170 -0.1710 -0.5506
31266SOL     OW97202   3.485   4.491   2.959 -0.3245 -0.6628  0.1889
31266SOL    HW197203   3.518   4.570   2.915  0.3113  0.5698  2.7910
31266SOL    HW297204   3.403   4.520   3.000 -2.0150 -2.3516 -1.8422
31267SOL     OW97205   6.326   3.008   6.506  0.5226  0.7557  0.2098
31267SOL    HW197206   6.393   3.050   6.452  1.8780 -1.8625 -0.1705
31267SOL    HW297207   6.345   3.038   6.595  0.9388  1.6046 -0.1557
31268SOL     OW97208   7.305   7.387   6.921 -0.0013  0.7241  0.0118
31268SOL    HW197209   7.254   7.338   6.986 -0.2744 -2.0345 -2.2005
31268SOL    HW297210   7.240   7.435   6.870 -0.0615  0.2165 -0.3861
31269SOL     OW97211   5.650   5.137   7.132  0.0810 -0.2774 -0.2638
31269SOL    HW197212   5.652   5.156   7.226  1.3666 -1.1736 -0.0953
31269SOL    HW297213   5.618   5.047   7.126 -0.1584 -0.1660 -0.6906
31270SOL     OW97214   0.981   1.561  10.268  0.3358  0.0422  0.2733
31270SOL    HW197215   0.937   1.487  10.309  0.1274 -0.4548 -0.8505
31270SOL    HW297216   0.911   1.624  10.252  0.4442  0.3080  0.8188
31271SOL     OW97217   3.811   3.108  10.754  0.0451  1.3067 -0.7389
31271SOL    HW197218   3.786   3.173  10.820  0.8636 -0.0671  0.9603
31271SOL    HW297219   3.896   3.138  10.723  1.0686  0.3239  1.0529
31272SOL     OW97220   0.408  10.195   3.401 -0.3012  0.6001  0.0201
31272SOL    HW197221   0.417  10.290   3.393 -0.3427  0.5249 -1.0287
31272SOL    HW297222   0.314  10.182   3.412 -0.4575  0.5995 -1.2233
31273SOL     OW97223   5.321   2.667   6.810  0.3154 -0.4162 -0.2598
31273SOL    HW197224   5.349   2.610   6.738 -2.2082 -1.0208 -0.8286
31273SOL    HW297225   5.360   2.752   6.790  0.9229 -0.9680 -1.5134
31274SOL     OW97226   9.277   7.702   8.418  0.5639 -0.0356 -0.5606
31274SOL    HW197227   9.286   7.771   8.484 -1.1432  1.6142 -2.0056
31274SOL    HW297228   9.344   7.721   8.353  1.8640 -1.3299  0.3630
31275SOL     OW97229   3.445   8.638   0.043  0.4136 -0.4830 -0.1884
31275SOL    HW197230   3.419   8.680   0.125 -0.5056  2.0681 -1.7343
31275SOL    HW297231   3.540   8.650   0.039  0.2454  0.8210 -0.2768
31276SOL     OW97232   8.769   6.567   0.750 -0.6828  0.4388  0.6007
31276SOL    HW197233   8.703   6.552   0.817  0.8762 -2.1603  1.6012
31276SOL    HW297234   8.850   6.584   0.798 -0.3085  2.3721 -0.6224
31277SOL     OW97235   3.757   9.903   1.289 -0.6728  0.3024 -0.2172
31277SOL    HW197236   3.695   9.954   1.236 -2.7418 -1.9335 -0.0486
31277SOL    HW297237   3.840   9.909   1.242 -1.7532  0.8930 -2.0957
31278SOL     OW97238   0.235  10.218   6.788  0.2836 -0.2074  0.0595
31278SOL    HW197239   0.236  10.125   6.769 -0.0247 -0.5851  1.7890
31278SOL    HW297240   0.174  10.227   6.861  0.3343  1.3403 -0.0659
31279SOL     OW97241   9.350   0.090   3.740  0.6306 -0.0291  0.2873
31279SOL    HW197242   9.269   0.093   3.791  1.4078 -1.1152  1.5933
31279SOL    HW297243   9.375   0.182   3.729  0.0066  0.2456  1.1317
31280SOL     OW97244   8.769   1.959   4.458  0.2171  0.0688 -0.5387
31280SOL    HW197245   8.725   1.902   4.396 -0.8559 -1.9092  1.9828
31280SOL    HW297246   8.754   1.919   4.544  1.0369  3.1209  1.1082
31281SOL     OW97247   7.144   7.158   7.816  0.1343 -0.4705 -0.3095
31281SOL    HW197248   7.230   7.138   7.852  0.4513  0.8217 -0.3195
31281SOL    HW297249   7.083   7.101   7.864  0.7949 -0.2480  0.8025
31282SOL     OW97250   0.480   7.589   2.127  1.0357 -0.1629 -0.3815
31282SOL    HW197251   0.563   7.635   2.143  0.0423  1.6357 -0.2737
31282SOL    HW297252   0.444   7.631   2.049  0.8098 -1.7896 -1.1658
31283SOL     OW97253   6.722  10.740   4.509  0.1038 -0.1702  0.0894
31283SOL    HW197254   6.763  10.809   4.457  0.0436 -0.4645 -0.3413
31283SOL    HW297255   6.772  10.740   4.591  1.1759 -0.7278 -0.5429
31284SOL     OW97256   4.973   1.347   2.087  0.7896  0.0530  0.3072
31284SOL    HW197257   4.911   1.396   2.140 -0.1623  0.5867 -1.2430
31284SOL    HW297258   5.021   1.413   2.037 -0.1239 -0.5119 -1.3886
31285SOL     OW97259   6.852   6.597   2.139 -0.0566  0.1161  0.0966
31285SOL    HW197260   6.943   6.612   2.112 -0.3167  0.5111 -0.5451
31285SOL    HW297261   6.801   6.659   2.089 -0.7268 -0.3353  0.2140
31286SOL     OW97262   6.810   3.191   7.616  0.6037  0.2189  0.4389
31286SOL    HW197263   6.784   3.185   7.524  2.3955  1.7104 -0.1966
31286SOL    HW297264   6.904   3.209   7.613  0.6658  0.3499  2.5594
31287SOL     OW97265   5.707  10.234   3.990  0.5771 -0.5970  0.3095
31287SOL    HW197266   5.650  10.269   4.058  0.1938 -3.5116  1.5873
31287SOL    HW297267   5.793  10.230   4.031  0.8526 -0.0911 -0.2133
31288SOL     OW97268  10.558   4.655   9.219 -0.0155 -0.3069 -0.7562
31288SOL    HW197269  10.623   4.711   9.176 -0.6342 -0.1446 -1.4819
31288SOL    HW297270  10.517   4.712   9.284  1.4393 -0.7566  0.6093
31289SOL     OW97271   6.729   3.415   3.166  0.6097 -0.3956  0.3476
31289SOL    HW197272   6.748   3.493   3.218 -1.8306  0.0526  0.6289
31289SOL    HW297273   6.764   3.436   3.079 -0.4921  1.2611  0.2711
31290SOL     OW97274   9.468   7.322   7.897  0.2778  0.1530 -0.0756
31290SOL    HW197275   9.420   7.317   7.814  0.3773  2.5407 -0.3296
31290SOL    HW297276   9.533   7.391   7.882  1.1489 -0.3037  1.5703
31291SOL     OW97277   8.857   1.543   6.952  0.3858 -0.4215  0.7196
31291SOL    HW197278   8.903   1.505   6.877  0.0925 -1.0138  0.8359
31291SOL    HW297279   8.764   1.535   6.930  0.3734  2.9735 -0.5899
31292SOL     OW97280   4.378   8.184   0.924  0.0346 -0.0293 -0.0456
31292SOL    HW197281   4.394   8.090   0.937 -1.2274 -0.2705 -0.1201
31292SOL    HW297282   4.379   8.196   0.829  1.0952  0.2067 -0.0094
31293SOL     OW97283   5.803   9.695   0.369  0.4177  0.2473 -0.1010
31293SOL    HW197284   5.847   9.776   0.397  0.0663  0.7078 -0.8803
31293SOL    HW297285   5.772   9.656   0.451  1.2787  0.4975  0.3537
31294SOL     OW97286   4.810   7.529   4.350  0.2976  0.1730 -0.2198
31294SOL    HW197287   4.782   7.596   4.413  0.0430  0.7836 -0.9776
31294SOL    HW297288   4.875   7.573   4.295  1.7624 -0.8437  0.6525
31295SOL     OW97289   3.107   8.269  10.803 -0.2649  0.2932 -0.5562
31295SOL    HW197290   3.130   8.301  10.716  0.0441 -0.4393 -0.7522
31295SOL    HW297291   3.167   8.314  10.862  0.8477 -0.6811 -0.9345
31296SOL     OW97292   3.812  10.370   3.708  0.0274 -0.6365 -0.3169
31296SOL    HW197293   3.731  10.382   3.659 -0.3263  2.9256  0.9790
31296SOL    HW297294   3.786  10.325   3.788 -0.3066 -1.3629 -0.8288
31297SOL     OW97295   8.140   8.377   3.254 -0.0956 -0.4817 -0.7335
31297SOL    HW197296   8.056   8.376   3.299 -0.0622  0.5182 -0.6509
31297SOL    HW297297   8.139   8.458   3.203  1.5350  0.4461  0.6541
31298SOL     OW97298   2.359   7.593   4.743 -0.3862 -0.7515  0.5526
31298SOL    HW197299   2.431   7.553   4.694 -0.0953 -1.5006  1.5804
31298SOL    HW297300   2.300   7.627   4.676  1.6131  1.1222 -0.3060
31299SOL     OW97301   5.066  10.461   1.508 -0.0166  0.1478  0.0805
31299SOL    HW197302   5.054  10.394   1.440  1.8632  0.5437 -0.6539
31299SOL    HW297303   5.019  10.538   1.474 -1.2058 -0.4151  0.4024
31300SOL     OW97304   5.080   7.790  10.312  0.0490 -0.2548  0.0900
31300SOL    HW197305   5.041   7.737  10.243 -2.2555 -0.3687  1.4342
31300SOL    HW297306   5.088   7.730  10.387 -0.7614  0.7673  1.0143
31301SOL     OW97307   3.784   2.126   5.823 -0.4656  0.1477  0.0287
31301SOL    HW197308   3.865   2.077   5.835 -1.2207 -1.3399 -0.7146
31301SOL    HW297309   3.721   2.060   5.794 -1.4075  1.6510 -1.4190
31302SOL     OW97310   1.145   3.912   7.952  0.4497 -0.2206  0.1947
31302SOL    HW197311   1.180   3.939   7.868 -1.0958  0.6746 -0.1715
31302SOL    HW297312   1.162   3.985   8.011  0.0411 -0.1577  0.2418
31303SOL     OW97313   5.546   1.243   4.654  0.2351 -0.4458 -0.1790
31303SOL    HW197314   5.565   1.330   4.621 -0.2275 -0.5498 -0.7284
31303SOL    HW297315   5.618   1.223   4.714  0.2655  0.3646  0.0547
31304SOL     OW97316   4.705   0.787   6.227 -0.4542  0.5726 -0.0247
31304SOL    HW197317   4.773   0.833   6.277  0.6443  2.6198 -3.2830
31304SOL    HW297318   4.722   0.694   6.244  0.3266  1.1530  2.7641
31305SOL     OW97319   0.840   3.527   9.571  0.5494 -0.2232  0.6870
31305SOL    HW197320   0.861   3.610   9.615  0.3612 -0.6416  1.5823
31305SOL    HW297321   0.853   3.461   9.639 -0.1641 -0.8427  0.2195
31306SOL     OW97322   3.223   4.478   7.312 -0.8777 -0.2033  0.2206
31306SOL    HW197323   3.261   4.565   7.308  1.5625 -1.2926 -1.3792
31306SOL    HW297324   3.285   4.426   7.363 -2.1978 -1.0633  0.9811
31307SOL     OW97325   6.911   0.225   6.173 -0.0770 -0.1115 -0.6315
31307SOL    HW197326   6.965   0.218   6.095 -0.4431 -0.2372 -0.8776
31307SOL    HW297327   6.939   0.153   6.229 -1.0707 -1.1535 -1.4380
31308SOL     OW97328   7.985   0.707   5.647  0.5836  0.0629  0.4194
31308SOL    HW197329   7.972   0.798   5.673 -1.3421  0.2050 -0.9077
31308SOL    HW297330   7.952   0.656   5.721  0.5977  0.4432  0.6874
31309SOL     OW97331   3.153   1.629   8.163  0.1545 -0.2648  0.0116
31309SOL    HW197332   3.156   1.588   8.250 -0.5296 -0.2868  0.0278
31309SOL    HW297333   3.063   1.658   8.154  0.9171  2.3923  0.5257
31310SOL     OW97334   6.228   7.006   5.082  0.4815  0.0881 -0.0384
31310SOL    HW197335   6.186   7.080   5.124  0.3154  0.1915 -0.3865
31310SOL    HW297336   6.311   7.041   5.048 -0.3385  0.5007 -1.6261
31311SOL     OW97337   6.927   2.597   2.356 -0.5592  0.3136  0.1167
31311SOL    HW197338   6.929   2.691   2.374  0.0649  0.1768  0.7575
31311SOL    HW297339   6.836   2.579   2.333 -0.9945  0.8122  1.4227
31312SOL     OW97340   5.673   7.262   8.527 -0.0661  0.3235 -0.3251
31312SOL    HW197341   5.749   7.274   8.470  1.9163 -0.6720  1.9948
31312SOL    HW297342   5.631   7.183   8.494 -0.0813  0.8399 -1.5895
31313SOL     OW97343   1.276   3.864   2.166 -0.4542 -0.3949 -0.3458
31313SOL    HW197344   1.216   3.793   2.189 -0.0218 -0.4200  0.7137
31313SOL    HW297345   1.324   3.882   2.246  0.3645  0.2086 -0.9662
31314SOL     OW97346   2.155   4.517   4.728 -0.2553 -0.0697  0.4277
31314SOL    HW197347   2.161   4.479   4.641 -2.0265 -1.2569  0.7933
31314SOL    HW297348   2.186   4.448   4.787 -0.1754  0.3001  0.8238
31315SOL     OW97349   1.432   2.609   9.330 -0.1174 -0.4306 -0.0014
31315SOL    HW197350   1.357   2.647   9.375 -0.5119  0.6170 -1.5204
31315SOL    HW297351   1.505   2.623   9.390 -0.2826  2.5799 -0.4148
31316SOL     OW97352   1.669   0.945   1.177 -0.6830 -0.7940  0.4408
31316SOL    HW197353   1.736   0.876   1.185  0.8342  0.7187  1.1595
31316SOL    HW297354   1.707   1.008   1.116 -1.4679  0.0768  0.8403
31317SOL     OW97355   2.887   0.071   3.045  0.3856 -0.0478 -0.0272
31317SOL    HW197356   2.867   0.103   2.957 -0.5518 -1.3914 -0.3248
31317SOL    HW297357   2.818   0.109   3.100 -0.0258 -0.5760 -0.1735
31318SOL     OW97358   0.168   7.356   5.681 -0.1752 -0.5967 -0.4346
31318SOL    HW197359   0.075   7.336   5.687 -0.4907  0.7719 -0.6623
31318SOL    HW297360   0.181   7.431   5.739  1.1600 -1.9652  1.0989
31319SOL     OW97361   7.676   0.330   2.816  0.6781 -0.0626 -0.2289
31319SOL    HW197362   7.663   0.358   2.907 -0.4999 -0.6634 -0.1990
31319SOL    HW297363   7.771   0.329   2.805  0.8077  2.7227  0.1321
31320SOL     OW97364   2.183   6.417   2.141  0.2836  0.4731 -0.1438
31320SOL    HW197365   2.237   6.451   2.212  0.5546  4.0500 -1.9626
31320SOL    HW297366   2.094   6.442   2.163  0.1812  0.2947 -0.3460
31321SOL     OW97367   4.528  10.945   3.182  0.0557  0.7213 -0.1455
31321SOL    HW197368   4.435  10.955   3.203  0.0792  1.2200 -0.2755
31321SOL    HW297369   4.573  10.976   3.261  0.1537  3.0595 -1.0769
31322SOL     OW97370   6.637   6.022   1.944 -0.0464  0.2922 -0.4859
31322SOL    HW197371   6.607   6.113   1.940  0.5016  0.5274  0.5447
31322SOL    HW297372   6.719   6.022   1.895  0.9139  0.7617  1.1029
31323SOL     OW97373   5.728   1.851   4.413 -0.2545 -0.0756 -0.3267
31323SOL    HW197374   5.677   1.864   4.493  0.0511 -1.6490  0.1498
31323SOL    HW297375   5.779   1.931   4.403 -2.7877  1.5406 -0.8219
31324SOL     OW97376   5.373   7.034   9.520 -0.0393  0.4114  0.6662
31324SOL    HW197377   5.336   6.948   9.498 -0.4316  0.8147 -0.3047
31324SOL    HW297378   5.467   7.022   9.514 -0.1077  0.2116 -0.1577
31325SOL     OW97379   3.978   3.104   5.911 -0.3654 -0.6067 -0.0050
31325SOL    HW197380   3.942   3.028   5.866 -1.1457 -0.0336 -0.3775
31325SOL    HW297381   3.901   3.151   5.943  0.1262 -0.1740  0.5401
31326SOL     OW97382   1.822   3.992   7.012 -0.2012  0.3302 -0.3209
31326SOL    HW197383   1.807   3.958   7.100  2.3041  0.4827  0.2017
31326SOL    HW297384   1.909   3.959   6.988  0.6983  3.2544 -1.2735
31327SOL     OW97385   3.281   8.694   9.470 -0.0362  0.3359  0.0513
31327SOL    HW197386   3.351   8.652   9.520 -2.5141 -2.7065  1.1952
31327SOL    HW297387   3.210   8.704   9.534 -1.5684  0.8792 -1.6973
31328SOL     OW97388   9.225   1.993   5.449 -0.0911  0.4578 -0.1706
31328SOL    HW197389   9.282   2.050   5.397 -2.1156  1.9167 -0.8743
31328SOL    HW297390   9.179   1.940   5.384 -0.6039  0.3404  0.2878
31329SOL     OW97391   8.981   0.396   9.782  0.4567  0.4603  0.1540
31329SOL    HW197392   9.056   0.396   9.722 -0.1748  0.8814 -0.6482
31329SOL    HW297393   8.987   0.312   9.828  0.7096 -0.0469 -0.7949
31330SOL     OW97394   2.768   0.547   1.511 -0.3071  0.3218 -0.3908
31330SOL    HW197395   2.846   0.578   1.465  0.0283 -2.4839 -1.7990
31330SOL    HW297396   2.699   0.547   1.445 -0.6226 -0.5995 -0.0654
31331SOL     OW97397   7.980   2.669   6.109  0.1514 -0.1383  0.6295
31331SOL    HW197398   8.032   2.589   6.100  0.7917  0.3792 -0.3824
31331SOL    HW297399   8.011   2.726   6.038  0.6024  1.5208  2.1302
31332SOL     OW97400   4.865   4.344   9.279 -0.1558  0.7611  0.5918
31332SOL    HW197401   4.814   4.326   9.200  0.7527  0.0796  0.1555
31332SOL    HW297402   4.925   4.270   9.286 -0.0543  0.9515  1.7818
31333SOL     OW97403   5.690   1.827   2.735 -0.1424 -0.0910 -0.2334
31333SOL    HW197404   5.596   1.826   2.715 -0.0972  1.6261 -0.5425
31333SOL    HW297405   5.731   1.865   2.657  0.7354 -0.0185  0.2543
31334SOL     OW97406   5.614   1.350   0.986 -0.4016  0.4293  0.9799
31334SOL    HW197407   5.592   1.409   1.057  0.6779 -0.2418  1.8951
31334SOL    HW297408   5.595   1.263   1.020  1.8270 -0.0280  1.1246
31335SOL     OW97409   6.760   6.066   3.272 -0.7767  0.1455 -0.6532
31335SOL    HW197410   6.761   6.048   3.366  2.0167 -1.3721 -0.9315
31335SOL    HW297411   6.745   5.981   3.231 -0.5858  0.5716 -1.6297
31336SOL     OW97412   9.668   2.746   0.565 -0.5492 -0.5026  0.0612
31336SOL    HW197413   9.704   2.816   0.510  0.9654  0.2664  1.9560
31336SOL    HW297414   9.665   2.670   0.507 -2.7723  1.2379 -2.1985
31337SOL     OW97415   7.139   8.874   7.237  0.0459 -0.1392 -0.7371
31337SOL    HW197416   7.175   8.875   7.148 -4.7753  0.4675 -2.8100
31337SOL    HW297417   7.129   8.781   7.258  0.9611 -0.2753 -0.8532
31338SOL     OW97418   2.464   1.562  10.952  0.2254 -0.2240  0.1186
31338SOL    HW197419   2.437   1.496  11.015  0.7138 -0.1217  0.4289
31338SOL    HW297420   2.551   1.590  10.980  0.8659 -0.8969 -1.1685
31339SOL     OW97421  10.961   8.793  10.693 -0.2429 -0.2372 -0.3180
31339SOL    HW197422  11.000   8.764  10.610 -0.1416 -0.7266 -0.1032
31339SOL    HW297423  11.014   8.867  10.720 -0.0037 -0.3516 -0.4740
31340SOL     OW97424   4.930  10.620   2.583  0.2474 -0.2697  0.1028
31340SOL    HW197425   4.878  10.562   2.528 -0.4267 -0.2614  0.7230
31340SOL    HW297426   4.865  10.671   2.632  0.8354 -0.6511  1.2887
31341SOL     OW97427  10.838   8.766   2.475  0.1286  0.8278  0.2114
31341SOL    HW197428  10.926   8.731   2.461 -0.6113 -0.7768 -0.5421
31341SOL    HW297429  10.835   8.844   2.420  0.3800 -0.2990 -1.4404
31342SOL     OW97430   3.664   0.172   5.851 -0.0098  0.3469  0.0802
31342SOL    HW197431   3.596   0.139   5.793  0.5055 -0.2571 -0.1820
31342SOL    HW297432   3.729   0.101   5.855 -0.4811 -0.0163  2.1186
31343SOL     OW97433   0.614   2.850   9.055  0.2178  0.2995 -0.3906
31343SOL    HW197434   0.705   2.879   9.064  0.4305 -0.4028 -0.2433
31343SOL    HW297435   0.563   2.930   9.063  0.8183  0.6894 -0.3845
31344SOL     OW97436   5.227   1.785   8.399  0.7081  0.1880  0.6009
31344SOL    HW197437   5.212   1.871   8.362 -0.1674  0.0561  0.6520
31344SOL    HW297438   5.177   1.725   8.343  2.3742 -0.4507 -0.2459
31345SOL     OW97439   7.219   4.146   6.231 -0.0045  0.0074 -0.2513
31345SOL    HW197440   7.150   4.202   6.266  0.0915 -0.7912  1.2537
31345SOL    HW297441   7.179   4.059   6.226 -0.1273  0.1581 -2.4789
31346SOL     OW97442   0.066   4.202   4.159  0.1604  0.1965 -0.1183
31346SOL    HW197443   0.058   4.297   4.163  0.4388  0.1976  0.4552
31346SOL    HW297444   0.036   4.179   4.071  0.8665  0.8852 -0.5440
31347SOL     OW97445   9.684  10.169   4.316  0.4672  0.4563  0.3757
31347SOL    HW197446   9.653  10.260   4.314  0.4785  0.4768  1.0740
31347SOL    HW297447   9.604  10.117   4.308  0.5596  0.5281 -1.1949
31348SOL     OW97448   6.632   0.124   7.922 -0.1858  0.4478  0.7499
31348SOL    HW197449   6.553   0.150   7.969  0.4671 -0.7925  2.6020
31348SOL    HW297450   6.701   0.180   7.958 -0.3162  1.9219 -1.2676
31349SOL     OW97451   1.228   3.262   6.890 -0.2359 -0.3809 -0.0431
31349SOL    HW197452   1.247   3.195   6.956  0.5969 -1.0932 -0.9814
31349SOL    HW297453   1.226   3.214   6.807  3.3394  1.1532 -1.1171
31350SOL     OW97454   6.145   9.100   0.134  0.3161 -0.3149  0.4084
31350SOL    HW197455   6.107   9.182   0.166 -1.0530 -0.7562 -0.0554
31350SOL    HW297456   6.200   9.126   0.060 -0.8740  0.0967 -0.3526
31351SOL     OW97457   9.996   8.800   0.644  0.5324 -0.1697  0.3048
31351SOL    HW197458   9.960   8.712   0.635  1.2587 -0.8269  3.4334
31351SOL    HW297459   9.924   8.852   0.680  0.7243  0.0429  0.3849
31352SOL     OW97460   8.781   1.781   1.182 -0.1712 -0.1299 -0.0234
31352SOL    HW197461   8.855   1.837   1.161 -0.0637 -0.6027 -0.9508
31352SOL    HW297462   8.819   1.694   1.195 -0.5756 -0.4204 -0.7208
31353SOL     OW97463   7.146   2.450   7.952  0.5258  0.0046  0.1528
31353SOL    HW197464   7.059   2.476   7.923  0.4194 -2.3628 -1.8065
31353SOL    HW297465   7.137   2.435   8.046 -1.0979  0.1241  0.0275
31354SOL     OW97466   6.447   2.707  10.533 -0.4524 -0.1499  0.0664
31354SOL    HW197467   6.491   2.634  10.576 -0.5349 -0.1543  0.1431
31354SOL    HW297468   6.454   2.779  10.596  0.0380  0.0431 -0.1999
31355SOL     OW97469   7.230   4.719   2.344 -0.0668 -0.0423 -1.1239
31355SOL    HW197470   7.282   4.680   2.415  1.1793  0.6434 -1.6483
31355SOL    HW297471   7.263   4.677   2.265 -1.2574 -0.5906 -1.3506
31356SOL     OW97472   3.014   3.560   8.522  0.3540  0.0034  0.2313
31356SOL    HW197473   3.077   3.491   8.540  0.2225  0.0041  0.6829
31356SOL    HW297474   2.943   3.516   8.475  0.6761 -0.0010 -0.2605
31357SOL     OW97475   6.574   2.098  10.168 -0.7182  0.4762 -0.8430
31357SOL    HW197476   6.657   2.060  10.140  0.8678  2.3821  1.0454
31357SOL    HW297477   6.537   2.034  10.228 -1.5059 -1.1637 -3.0052
31358SOL     OW97478  10.610  10.415   3.305 -0.0082  0.7290  0.1367
31358SOL    HW197479  10.563  10.485   3.260  0.5288 -0.6714 -2.7045
31358SOL    HW297480  10.545  10.345   3.314 -0.2178  1.1329  1.9189
31359SOL     OW97481   6.938   7.158   0.062  0.2005 -0.6544 -0.1266
31359SOL    HW197482   6.961   7.212  -0.013 -0.6429 -2.8095 -1.9893
31359SOL    HW297483   7.020   7.147   0.110  0.5664  1.4610 -0.2084
31360SOL     OW97484  10.367   4.845   6.149 -0.1235  0.2068  0.4827
31360SOL    HW197485  10.427   4.773   6.132 -0.6580 -0.2014  0.2957
31360SOL    HW297486  10.335   4.829   6.238 -0.3222  0.1536  0.4023
31361SOL     OW97487   8.983   6.642   9.877 -0.0293 -0.1463  0.1918
31361SOL    HW197488   8.958   6.716   9.822  0.6707  0.8325  1.1805
31361SOL    HW297489   8.900   6.606   9.908 -0.3424  0.7269  0.3748
31362SOL     OW97490   9.945   7.457   5.706  0.0708  0.2252  0.4421
31362SOL    HW197491   9.981   7.532   5.658  0.5980  0.5016  1.2661
31362SOL    HW297492   9.904   7.403   5.638  1.8328  0.0283 -0.4986
31363SOL     OW97493   1.612   3.198   5.386  0.0952 -0.1914  0.1975
31363SOL    HW197494   1.605   3.275   5.331  0.4025 -0.3865 -0.1151
31363SOL    HW297495   1.541   3.207   5.449  0.4956  0.6528  0.5451
31364SOL     OW97496   0.967   5.402   9.692 -0.0921 -0.0222 -0.4211
31364SOL    HW197497   1.058   5.432   9.695 -0.3711  0.8546 -0.4699
31364SOL    HW297498   0.926   5.458   9.625 -0.7354 -0.2193 -0.1978
31365SOL     OW97499   2.148   8.265   9.933 -0.3890  0.4711 -0.2164
31365SOL    HW197500   2.104   8.291  10.014  1.3025 -2.5960  1.7837
31365SOL    HW297501   2.226   8.321   9.929 -2.3347  3.1840 -1.7285
31366SOL     OW97502  10.919   3.221   1.891  0.1568 -0.2532 -1.0038
31366SOL    HW197503  11.005   3.262   1.903  0.2969 -0.3588 -1.6153
31366SOL    HW297504  10.938   3.128   1.886 -0.0244 -0.2968 -0.8578
31367SOL     OW97505  10.215   6.133  10.614  0.0773  0.2776  0.6274
31367SOL    HW197506  10.152   6.077  10.659  1.1531 -3.0473 -1.8081
31367SOL    HW297507  10.162   6.197  10.566 -1.2120  0.6412  2.5056
31368SOL     OW97508   0.201   9.414   8.894 -0.1875  0.2375 -0.2377
31368SOL    HW197509   0.288   9.436   8.861 -0.3702  2.6345  0.8276
31368SOL    HW297510   0.144   9.484   8.862 -1.2528  0.0370  1.1576
31369SOL     OW97511   3.528   4.483   6.508  0.2076 -0.1142 -0.5337
31369SOL    HW197512   3.566   4.563   6.471 -0.3062  0.9103  1.1306
31369SOL    HW297513   3.602   4.423   6.515  0.8701  0.6946 -0.4989
31370SOL     OW97514   7.547   3.885   5.927  0.1373  0.1765 -0.7763
31370SOL    HW197515   7.635   3.913   5.952 -0.0232  1.4239 -1.5760
31370SOL    HW297516   7.493   3.962   5.941 -1.3095 -1.3036  2.0992
31371SOL     OW97517   9.480   7.776   0.800 -0.0302  0.0746 -0.5547
31371SOL    HW197518   9.444   7.692   0.827  1.2308  0.2475  1.7116
31371SOL    HW297519   9.566   7.756   0.765  0.3631  0.4442  0.1969
31372SOL     OW97520  10.929   0.037  10.504 -0.1932  0.0272  0.0762
31372SOL    HW197521  10.946  -0.050  10.468 -0.0973 -0.0696  0.3612
31372SOL    HW297522  10.856   0.071  10.451  1.0001  0.5278 -1.2918
31373SOL     OW97523  10.095  10.233   2.644  0.3058  0.1316  0.2587
31373SOL    HW197524  10.046  10.263   2.568  0.6670 -1.2177 -0.5151
31373SOL    HW297525  10.031  10.230   2.715 -0.4810 -0.5969 -0.4841
31374SOL     OW97526   6.131   8.866   8.408 -0.0381 -0.3845 -0.0217
31374SOL    HW197527   6.117   8.812   8.330  0.9448  0.3705 -0.7343
31374SOL    HW297528   6.055   8.924   8.411  0.0343 -0.2614 -0.5493
31375SOL     OW97529   8.726   8.368   3.650 -0.2471  0.0990  0.7234
31375SOL    HW197530   8.787   8.322   3.707  0.3679  1.4208  1.1478
31375SOL    HW297531   8.668   8.300   3.617 -0.0654 -0.8069  2.2296
31376SOL     OW97532   2.751   9.435   1.261 -0.1057  0.5830 -0.2897
31376SOL    HW197533   2.743   9.511   1.319  0.8472 -0.7154  1.5735
31376SOL    HW297534   2.673   9.382   1.281 -0.8088  1.0759 -1.6431
31377SOL     OW97535   2.547   2.901   3.228 -0.3522  0.2094  0.7263
31377SOL    HW197536   2.454   2.924   3.233 -0.6077 -0.6325  0.0699
31377SOL    HW297537   2.549   2.807   3.244 -0.0320 -0.4520 -2.6744
31378SOL     OW97538   5.166   6.963   4.255  1.0642  0.0393 -1.1699
31378SOL    HW197539   5.182   6.918   4.338  2.0750  0.3062 -1.2153
31378SOL    HW297540   5.072   6.952   4.240  0.3365  2.3071  1.3636
31379SOL     OW97541   0.465   0.940   1.882  0.5319  0.0351  0.5737
31379SOL    HW197542   0.396   0.875   1.893  1.7385 -1.2062  1.1056
31379SOL    HW297543   0.460   0.967   1.791 -0.1792 -0.5957  0.4265
31380SOL     OW97544   8.789  10.023   5.007 -0.2031 -0.5832 -0.1602
31380SOL    HW197545   8.741  10.010   5.088  0.3964  0.2298  0.3359
31380SOL    HW297546   8.769  10.113   4.982  1.0679 -0.2330  0.0637
31381SOL     OW97547   1.768   0.681   6.320 -0.3685  0.3068 -0.3334
31381SOL    HW197548   1.752   0.632   6.240  1.3699 -0.1221 -0.4435
31381SOL    HW297549   1.709   0.643   6.385 -0.2824 -0.7566 -0.8790
31382SOL     OW97550   9.891   4.255   9.788 -0.3278 -0.4123 -0.7906
31382SOL    HW197551   9.927   4.171   9.816 -1.0921  0.3932  2.7965
31382SOL    HW297552   9.826   4.232   9.722  1.1439 -2.4273 -1.6054
31383SOL     OW97553   6.179   4.459   4.260  0.0438 -0.2379 -0.6045
31383SOL    HW197554   6.113   4.458   4.191  1.0486  1.6875 -1.6407
31383SOL    HW297555   6.177   4.370   4.297 -2.6338 -0.3870 -1.0431
31384SOL     OW97556   8.881   6.372   7.889 -0.0850  0.1517 -0.1245
31384SOL    HW197557   8.837   6.376   7.804 -0.1909  1.2045 -0.0347
31384SOL    HW297558   8.974   6.365   7.868  0.0988  2.6423 -0.3826
31385SOL     OW97559   9.668   1.165   4.272 -0.3214  0.1155  0.3550
31385SOL    HW197560   9.731   1.101   4.305 -1.6115 -1.0741  0.5949
31385SOL    HW297561   9.638   1.128   4.189 -1.4258  0.1511  0.7235
31386SOL     OW97562   6.601   2.458   7.348 -0.0729  0.0895  0.3532
31386SOL    HW197563   6.632   2.409   7.424  1.7620 -1.5416 -1.3848
31386SOL    HW297564   6.665   2.528   7.336 -0.7494  0.7753  0.7311
31387SOL     OW97565   1.213  10.765   1.826 -0.3433  0.2090 -0.1468
31387SOL    HW197566   1.182  10.677   1.801 -0.7331 -0.0516  1.2382
31387SOL    HW297567   1.245  10.803   1.744  0.5518 -1.5239 -0.6241
31388SOL     OW97568   5.647   0.624   3.133  0.1234  0.2668  0.4268
31388SOL    HW197569   5.691   0.595   3.053 -1.0362 -1.5359  0.4130
31388SOL    HW297570   5.585   0.691   3.103 -0.1452 -0.2355 -0.1557
31389SOL     OW97571   6.243   2.239   1.857  0.1067 -0.5527  0.3688
31389SOL    HW197572   6.295   2.188   1.920 -1.3183 -1.4050  0.8784
31389SOL    HW297573   6.170   2.181   1.834  0.7144 -0.3125 -2.2355
31390SOL     OW97574   5.704   6.365   6.468 -0.3574  0.2453 -0.2626
31390SOL    HW197575   5.762   6.298   6.503 -1.2223  0.7455  2.2695
31390SOL    HW297576   5.733   6.378   6.378  2.5501 -0.5193  0.5019
31391SOL     OW97577   7.698   4.597   2.752 -0.1737  0.1449  0.2196
31391SOL    HW197578   7.721   4.688   2.771 -0.5403  0.6465 -1.6736
31391SOL    HW297579   7.641   4.572   2.825 -1.7877  2.1164 -0.3183
31392SOL     OW97580   8.728   3.087   4.728 -0.6173 -0.3846  0.2276
31392SOL    HW197581   8.674   3.090   4.650 -0.2264  2.0694  0.0091
31392SOL    HW297582   8.671   3.120   4.798 -0.4998 -1.1587  0.6950
31393SOL     OW97583   8.512   2.252   8.625  0.4472 -0.7228  0.0214
31393SOL    HW197584   8.445   2.207   8.677 -1.2281  0.7596 -0.8410
31393SOL    HW297585   8.574   2.286   8.690  1.9034 -4.3905  0.6999
31394SOL     OW97586   1.599   6.142   5.711 -0.3216  0.0087 -0.2778
31394SOL    HW197587   1.609   6.218   5.768 -2.4281  0.4383 -0.4541
31394SOL    HW297588   1.688   6.124   5.679  0.5028  1.1541  1.3352
31395SOL     OW97589  10.601   8.200   4.695 -0.1201 -0.6074 -0.8159
31395SOL    HW197590  10.591   8.168   4.605 -0.2540 -0.7449 -0.7515
31395SOL    HW297591  10.538   8.149   4.746  1.0380 -1.6285 -0.3773
31396SOL     OW97592   4.707   6.399   7.159  0.7178  0.5537  0.0033
31396SOL    HW197593   4.727   6.409   7.066  0.3809  0.0984 -0.1216
31396SOL    HW297594   4.655   6.319   7.163  1.2976  0.2130  0.6708
31397SOL     OW97595   2.633   0.002   8.782 -0.4011 -0.2307 -0.3908
31397SOL    HW197596   2.708  -0.005   8.841  0.6991  0.5817 -1.6771
31397SOL    HW297597   2.625  -0.086   8.744 -0.9395 -0.6812  0.7365
31398SOL     OW97598   7.134   4.200   2.163  0.1307  0.4064  0.6565
31398SOL    HW197599   7.169   4.117   2.196  2.1081  0.8160 -0.3691
31398SOL    HW297600   7.204   4.236   2.109 -1.7610  1.3852 -1.2255
31399SOL     OW97601   1.813   8.189   1.675  0.1424 -0.1106 -0.3578
31399SOL    HW197602   1.718   8.182   1.684  0.0823  1.3212  0.3165
31399SOL    HW297603   1.846   8.181   1.764  0.4678  1.7796 -0.2837
31400SOL     OW97604   2.991   0.430   5.272  0.3422 -0.3457  0.3490
31400SOL    HW197605   2.959   0.488   5.341  1.1314  0.4373  0.0618
31400SOL    HW297606   3.036   0.360   5.319  0.3065 -0.1661  0.6514
31401SOL     OW97607   4.580   3.567   0.336 -0.0377 -0.2686 -0.2952
31401SOL    HW197608   4.512   3.501   0.350 -0.9811  0.4511 -1.4366
31401SOL    HW297609   4.532   3.645   0.309  1.1483  0.6132  0.1362
31402SOL     OW97610   1.479   6.866   6.249  0.2622  0.1160  0.4473
31402SOL    HW197611   1.458   6.790   6.195 -0.4323  0.4055  0.3065
31402SOL    HW297612   1.554   6.839   6.301  0.6589 -0.3129 -0.3509
31403SOL     OW97613   6.760   8.168   9.617  0.5129  0.0275 -0.0089
31403SOL    HW197614   6.709   8.245   9.643  0.5714  0.2499 -0.5489
31403SOL    HW297615   6.705   8.123   9.553  0.6775 -0.1299 -0.0419
31404SOL     OW97616   9.763   6.175  10.838  0.3978  0.0189  0.5829
31404SOL    HW197617   9.714   6.095  10.820  1.8218 -0.8844  0.6445
31404SOL    HW297618   9.774   6.175  10.933  1.3515 -0.2973  0.4788
31405SOL     OW97619   7.395   8.030  10.105  0.1513  0.6102  0.9531
31405SOL    HW197620   7.438   8.057  10.187  2.1874 -0.3356  0.2541
31405SOL    HW297621   7.464   8.039  10.039 -0.8256 -0.7162 -0.2655
31406SOL     OW97622   9.292   1.869   4.342 -0.3132 -0.1163  0.6258
31406SOL    HW197623   9.344   1.812   4.399  1.6846  1.4143  0.3642
31406SOL    HW297624   9.356   1.910   4.284 -2.0744  0.0305 -1.2765
31407SOL     OW97625   2.684   0.609   2.828 -0.5170 -0.2195  0.0744
31407SOL    HW197626   2.687   0.581   2.919 -1.0332  0.1024  0.1937
31407SOL    HW297627   2.674   0.705   2.832  2.2485  0.1166 -0.3317
31408SOL     OW97628   5.276   2.381   4.006  0.5388  0.3743  0.5572
31408SOL    HW197629   5.236   2.411   4.087  1.0492 -1.1297  1.3744
31408SOL    HW297630   5.348   2.324   4.033 -0.6967 -1.9710 -0.9424
31409SOL     OW97631   3.146   6.389   3.201 -0.0401 -0.1540 -0.0437
31409SOL    HW197632   3.188   6.388   3.287 -0.3504  0.4084  0.1156
31409SOL    HW297633   3.055   6.413   3.219 -0.4544 -1.4132 -0.3759
31410SOL     OW97634   2.110   3.966   9.741  0.4238  0.1228  0.0185
31410SOL    HW197635   2.149   3.897   9.687 -0.1100  0.2842 -0.5778
31410SOL    HW297636   2.021   3.936   9.758  0.7363 -0.1463  1.2133
31411SOL     OW97637   2.784   4.784   1.218  0.6372 -0.1003 -0.6550
31411SOL    HW197638   2.828   4.746   1.142  1.3091  0.4035 -0.5237
31411SOL    HW297639   2.766   4.875   1.192  1.3657  0.2342 -0.0119
31412SOL     OW97640   8.707   7.469   3.395  0.0246  0.0723 -0.5204
31412SOL    HW197641   8.694   7.460   3.301 -0.6400  3.0126 -0.7758
31412SOL    HW297642   8.619   7.473   3.431  0.2707 -2.0746  0.3659
31413SOL     OW97643  10.505   0.930   5.023 -0.0106 -0.6334 -0.1763
31413SOL    HW197644  10.448   0.883   5.084  1.9642 -0.8874  1.5062
31413SOL    HW297645  10.446   0.992   4.979 -1.9825 -2.3236 -0.0155
31414SOL     OW97646   5.107   1.873   5.402  0.6160 -0.6132 -0.2410
31414SOL    HW197647   5.058   1.939   5.452 -2.3956 -1.2333 -2.2333
31414SOL    HW297648   5.163   1.924   5.344  0.6636  0.1567  0.4742
31415SOL     OW97649   6.445   0.991   0.199  0.2622 -0.1344 -0.2795
31415SOL    HW197650   6.509   0.954   0.259  0.8883  0.9642 -0.2779
31415SOL    HW297651   6.361   0.984   0.246  0.8059  1.1219  0.9051
31416SOL     OW97652   9.947   1.748   0.596  0.0431  0.0278 -0.5911
31416SOL    HW197653   9.881   1.681   0.582 -0.0259  0.1509 -0.8515
31416SOL    HW297654   9.931   1.779   0.685 -0.3036  0.1216 -0.6885
31417SOL     OW97655   5.754   3.067   6.122 -0.5779 -0.1938  0.1615
31417SOL    HW197656   5.820   2.999   6.133  0.1619  0.5428  0.2994
31417SOL    HW297657   5.733   3.095   6.211  0.4666  1.0367  0.0415
31418SOL     OW97658   2.528   3.516   4.399  0.9766  0.0773 -0.2149
31418SOL    HW197659   2.614   3.541   4.364  1.0161 -0.5477 -0.5801
31418SOL    HW297660   2.528   3.420   4.393 -0.6712  0.1788 -2.4272
31419SOL     OW97661   0.988   4.781   2.844 -0.1892 -0.2439 -0.0056
31419SOL    HW197662   0.965   4.814   2.930  3.0735  0.9537  0.4954
31419SOL    HW297663   1.025   4.856   2.798 -2.0644 -0.8169 -2.5351
31420SOL     OW97664   0.044   1.521   9.139  0.1898  0.4353 -0.1238
31420SOL    HW197665   0.090   1.519   9.223 -1.2754  0.7485  0.6913
31420SOL    HW297666   0.050   1.612   9.110 -0.4153  0.6068  0.2727
31421SOL     OW97667   1.816  10.686   5.246  0.4300 -0.1979 -0.0947
31421SOL    HW197668   1.862  10.675   5.329 -0.7968  0.8652  0.7410
31421SOL    HW297669   1.881  10.723   5.187  0.2210  2.8724  1.5358
31422SOL     OW97670   5.176   9.071  10.836 -0.1321  0.2690 -0.4573
31422SOL    HW197671   5.237   9.078  10.763  0.1211 -2.0743 -0.4829
31422SOL    HW297672   5.118   8.999  10.813 -1.0938  0.5806  0.9086
31423SOL     OW97673   2.386   3.812   3.127  0.0211  0.0756  0.5849
31423SOL    HW197674   2.463   3.855   3.163  0.7563 -0.7527  0.0290
31423SOL    HW297675   2.409   3.795   3.035 -1.7797  2.0917 -0.2923
31424SOL     OW97676   7.134   1.354   6.524  0.1703 -0.3254 -0.0178
31424SOL    HW197677   7.192   1.284   6.552  3.2460  1.8584 -0.5858
31424SOL    HW297678   7.131   1.414   6.599  0.9004  0.9341 -0.9776
31425SOL     OW97679   3.148   9.579   0.175  0.2462  0.5022  0.3152
31425SOL    HW197680   3.227   9.631   0.165  0.1970  0.3944 -0.6782
31425SOL    HW297681   3.170   9.493   0.139 -0.4815  0.6326 -0.4537
31426SOL     OW97682   7.616   8.761   2.314 -0.0741 -0.1240 -0.3728
31426SOL    HW197683   7.630   8.670   2.336  0.7618  0.3380  1.0352
31426SOL    HW297684   7.526   8.779   2.341  0.8885  0.4014  2.6553
31427SOL     OW97685   4.201   8.628   4.441  0.3327 -0.2026 -0.1193
31427SOL    HW197686   4.213   8.591   4.354 -1.3497 -2.9791  0.7367
31427SOL    HW297687   4.289   8.652   4.470  0.8209  1.4827 -2.8314
31428SOL     OW97688  10.831   1.069   7.689  0.3987  0.4588  0.1645
31428SOL    HW197689  10.821   0.982   7.651 -0.3666  0.6521 -0.0836
31428SOL    HW297690  10.875   1.054   7.773  0.6830 -0.1186 -0.0864
31429SOL     OW97691   7.206   4.625   0.679 -0.4313 -0.1158 -0.5426
31429SOL    HW197692   7.301   4.616   0.678 -0.3530  0.5016  0.6029
31429SOL    HW297693   7.178   4.592   0.593  0.5000 -3.7701  0.4818
31430SOL     OW97694  10.963   5.984   7.785 -0.7896  0.0427  0.2388
31430SOL    HW197695  10.981   6.076   7.803  1.3449 -0.6463  1.7674
31430SOL    HW297696  11.049   5.943   7.778 -1.7042 -1.7186 -1.1849
31431SOL     OW97697   8.292   6.944   6.596  0.8919  0.6298 -0.0412
31431SOL    HW197698   8.302   7.035   6.621  1.0204  0.9212 -1.1263
31431SOL    HW297699   8.302   6.895   6.678  1.3939  1.5456  0.4503
31432SOL     OW97700   3.166   4.908   3.989 -0.5014 -0.7106 -0.7028
31432SOL    HW197701   3.130   4.982   4.038 -0.5201 -0.5141 -1.0071
31432SOL    HW297702   3.124   4.914   3.903  0.0333 -0.6490 -0.9650
31433SOL     OW97703   7.887   3.687  10.732 -0.0424 -0.1104 -0.0001
31433SOL    HW197704   7.805   3.718  10.770 -1.0327 -0.9112 -1.4332
31433SOL    HW297705   7.882   3.592  10.738  2.5147 -0.1080  3.4284
31434SOL     OW97706   4.615   1.620  10.588  0.6691  0.5016 -0.2299
31434SOL    HW197707   4.562   1.588  10.661  1.6184 -0.0692  0.2274
31434SOL    HW297708   4.597   1.714  10.585  2.6288  1.0212  2.4865
31435SOL     OW97709   6.254   8.524   0.774  0.0410  0.6689  0.2237
31435SOL    HW197710   6.193   8.572   0.718  0.7974  2.0237  0.5298
31435SOL    HW297711   6.211   8.524   0.860 -0.9027 -1.0026 -0.2289
31436SOL     OW97712   1.042   8.211   8.042 -0.2517  0.0379  0.2502
31436SOL    HW197713   0.951   8.181   8.037 -0.3675  0.3472  0.4913
31436SOL    HW297714   1.058   8.252   7.957 -0.5360  0.5347  0.4323
31437SOL     OW97715   0.612   1.121   3.366 -0.1036 -0.2466  0.5390
31437SOL    HW197716   0.525   1.148   3.337  0.8110  1.6640 -0.5097
31437SOL    HW297717   0.669   1.196   3.345  2.2950 -2.4895 -1.3299
31438SOL     OW97718   9.674   7.725   6.032  0.3200  0.5201  0.3523
31438SOL    HW197719   9.578   7.716   6.033  0.4595 -1.1346  1.5699
31438SOL    HW297720   9.696   7.737   5.940 -1.0947  1.4602  0.1070
31439SOL     OW97721   2.722   9.596   0.544  0.3447 -0.6651 -0.4858
31439SOL    HW197722   2.770   9.548   0.476 -2.1075 -2.1555 -1.2149
31439SOL    HW297723   2.662   9.532   0.581  0.1355  0.7097  1.6375
31440SOL     OW97724   7.528   7.841   5.285  0.2709  0.3448  0.0382
31440SOL    HW197725   7.455   7.866   5.343  0.0001 -1.9247  0.7435
31440SOL    HW297726   7.487   7.829   5.199 -0.1153 -0.3530  0.3073
31441SOL     OW97727  10.317   6.756  10.253  0.1996 -0.0979  0.2533
31441SOL    HW197728  10.241   6.698  10.244  1.9778 -2.5603  0.3358
31441SOL    HW297729  10.343   6.746  10.345  0.9513  0.3059  0.0858
31442SOL     OW97730   1.026   2.862   6.068 -0.4577  0.2783  0.1754
31442SOL    HW197731   0.979   2.857   6.151 -1.2631  1.7754 -0.1748
31442SOL    HW297732   1.021   2.774   6.032  0.5848 -0.5882  2.0657
31443SOL     OW97733   7.223   5.833   5.913  0.0088 -0.6138 -0.3704
31443SOL    HW197734   7.146   5.877   5.876 -1.5490 -1.9006  1.2481
31443SOL    HW297735   7.198   5.740   5.918  0.6082 -0.6808  2.6632
31444SOL     OW97736  10.748   4.464   7.613  0.6872 -0.0145  0.4275
31444SOL    HW197737  10.686   4.507   7.553 -0.8072 -2.0726  0.4411
31444SOL    HW297738  10.789   4.396   7.560  2.1572  0.6063  0.7354
31445SOL     OW97739   6.105  10.203   7.493 -0.2920 -0.6674  0.5837
31445SOL    HW197740   6.155  10.214   7.574 -1.0378  0.2842  0.9203
31445SOL    HW297741   6.135  10.274   7.436  0.2174 -1.3200  0.0083
31446SOL     OW97742   3.205   3.440   3.293 -0.5880 -0.1913 -0.0646
31446SOL    HW197743   3.255   3.459   3.372 -0.1911  0.2367 -0.4166
31446SOL    HW297744   3.157   3.521   3.274 -1.5686 -0.6556  0.3758
31447SOL     OW97745   0.654   2.468   7.075 -0.7734 -0.7567  0.2278
31447SOL    HW197746   0.727   2.408   7.061  0.2939  0.2937  1.1484
31447SOL    HW297747   0.578   2.423   7.038  0.7848 -0.7399 -3.1541
31448SOL     OW97748   3.860   6.926   6.478  0.6406 -0.2464  0.3819
31448SOL    HW197749   3.837   7.003   6.529  0.7963 -0.6055  1.0013
31448SOL    HW297750   3.926   6.881   6.531  0.1644 -1.0811  0.2744
31449SOL     OW97751   6.433  10.221   6.835 -0.0598  0.1491  0.6826
31449SOL    HW197752   6.434  10.136   6.879  0.3088 -0.1366  0.1246
31449SOL    HW297753   6.464  10.203   6.746  1.4485  1.0959  0.9914
31450SOL     OW97754   6.546   2.383  10.236  0.0133 -0.0510 -0.0633
31450SOL    HW197755   6.638   2.409  10.232  0.0048  0.1892  1.0828
31450SOL    HW297756   6.548   2.287  10.232  0.1018  0.0085 -3.3053
31451SOL     OW97757   2.863   3.758   5.122  0.2832  0.2539  0.5565
31451SOL    HW197758   2.924   3.820   5.161  0.3245 -1.3352  3.1414
31451SOL    HW297759   2.795   3.746   5.189 -1.3792 -0.1230 -1.1534
31452SOL     OW97760   3.197   0.572   0.685  0.6887 -0.2651  0.3797
31452SOL    HW197761   3.256   0.497   0.694  0.1941 -0.7346 -0.2521
31452SOL    HW297762   3.129   0.542   0.624 -1.2928 -0.4024  2.5709
31453SOL     OW97763   5.411   7.266   5.852 -0.0537  0.4335 -0.1063
31453SOL    HW197764   5.393   7.212   5.776  2.2697  3.4540 -2.9746
31453SOL    HW297765   5.497   7.236   5.882 -0.0373  0.6315  0.0443
31454SOL     OW97766   9.678   0.445   7.114 -0.0803 -0.3871 -0.6278
31454SOL    HW197767   9.753   0.386   7.122  0.3090  0.0095 -1.3167
31454SOL    HW297768   9.654   0.465   7.205 -1.8901 -3.6664 -0.2895
31455SOL     OW97769  10.159   4.997   7.392 -0.5285  0.1489  0.5388
31455SOL    HW197770  10.079   4.977   7.343 -0.3590 -2.6599  1.3026
31455SOL    HW297771  10.138   5.076   7.441 -1.5862  1.5139 -2.0227
31456SOL     OW97772   2.495   2.419   8.993 -0.6536  0.0265 -0.4063
31456SOL    HW197773   2.559   2.434   9.062 -2.5778  0.5206  1.3346
31456SOL    HW297774   2.533   2.349   8.940  1.8043  1.0626 -0.0867
31457SOL     OW97775   8.241   4.102   5.333 -0.2901  0.2646 -0.3418
31457SOL    HW197776   8.249   4.153   5.413 -0.5603  0.9086 -0.7211
31457SOL    HW297777   8.329   4.072   5.314 -0.3499 -0.5623  0.6327
31458SOL     OW97778  10.173   0.410   4.373  0.1231 -0.2948 -0.0463
31458SOL    HW197779  10.205   0.379   4.289  2.2438  1.1616  0.1777
31458SOL    HW297780  10.236   0.376   4.437 -0.5514 -0.0537  0.7552
31459SOL     OW97781   6.895   4.161   7.261 -0.1280 -0.0863  0.3454
31459SOL    HW197782   6.934   4.108   7.331  1.2763 -0.3473 -0.6084
31459SOL    HW297783   6.969   4.206   7.220 -0.9899  0.4831 -0.6321
31460SOL     OW97784  10.429   9.161   0.821  0.0027 -0.7184  0.4099
31460SOL    HW197785  10.339   9.170   0.790 -0.2026 -1.2995  0.8322
31460SOL    HW297786  10.457   9.250   0.842 -0.1160 -0.4051 -0.7085
31461SOL     OW97787   6.849   4.000   2.016  0.4093  0.3862  0.0038
31461SOL    HW197788   6.856   3.949   2.097  0.5946 -1.3609 -1.0985
31461SOL    HW297789   6.878   4.088   2.041  0.3598 -0.0947  1.8595
31462SOL     OW97790   7.439   1.075   6.280  0.1160 -0.0857  0.1211
31462SOL    HW197791   7.509   1.016   6.305  1.2446  1.5469  0.9043
31462SOL    HW297792   7.395   1.096   6.362 -1.2023 -0.9650 -0.3442
31463SOL     OW97793   0.218   4.735   9.077 -0.3360 -0.0941 -0.5601
31463SOL    HW197794   0.302   4.779   9.092  0.7733 -1.4604 -2.5186
31463SOL    HW297795   0.157   4.806   9.056 -0.1536  1.0924  2.5596
31464SOL     OW97796  10.454   2.612   3.936  0.3177  0.1577  0.0942
31464SOL    HW197797  10.519   2.681   3.948 -1.1334  1.3832  1.2321
31464SOL    HW297798  10.481   2.566   3.857  3.5058 -0.4488  1.4765
31465SOL     OW97799   3.960   9.034   5.048  0.8047 -0.4338  0.2425
31465SOL    HW197800   4.053   9.056   5.054  0.8516  0.3477 -2.6716
31465SOL    HW297801   3.958   8.958   4.990 -0.1934 -2.0829  2.3764
31466SOL     OW97802   3.906   9.615   1.337  0.1119  0.0895  0.1800
31466SOL    HW197803   3.901   9.629   1.242 -0.8312  0.0107  0.2147
31466SOL    HW297804   3.964   9.539   1.347  0.7946  0.5422 -0.2878
31467SOL     OW97805   5.410   5.623   2.665 -0.8926  0.2176  0.0979
31467SOL    HW197806   5.436   5.683   2.734 -0.5962  0.0158  0.1650
31467SOL    HW297807   5.466   5.547   2.677 -1.8071 -0.4061  0.5051
31468SOL     OW97808  10.398   2.313   0.302 -0.5772 -0.4737 -0.0048
31468SOL    HW197809  10.358   2.268   0.227 -1.7262 -0.1013  0.3782
31468SOL    HW297810  10.439   2.390   0.264 -0.0643 -0.9474 -0.4257
31469SOL     OW97811   3.145   6.891   6.583 -0.4320 -0.7922 -0.4825
31469SOL    HW197812   3.196   6.953   6.635 -0.8381 -0.5702 -0.3462
31469SOL    HW297813   3.065   6.939   6.560 -0.5591 -1.1219 -0.7327
31470SOL     OW97814   9.302   2.340   9.696 -0.0958 -0.2171 -0.4879
31470SOL    HW197815   9.212   2.343   9.729  0.5532 -0.6199  1.3532
31470SOL    HW297816   9.312   2.422   9.647 -1.4512 -0.1659 -0.6944
31471SOL     OW97817  10.331   1.593   4.568  0.1482  0.2596 -0.8188
31471SOL    HW197818  10.408   1.631   4.611  0.6588  0.3462 -1.7922
31471SOL    HW297819  10.362   1.509   4.533 -0.6596 -0.5153  0.2780
31472SOL     OW97820   9.588   4.757   7.403  0.3661  0.2168  0.2581
31472SOL    HW197821   9.524   4.711   7.350  0.9991 -2.1154  1.4816
31472SOL    HW297822   9.659   4.779   7.342 -0.6687  1.0604 -0.6652
31473SOL     OW97823   0.924   5.929   8.820  0.0475 -0.0745 -0.0067
31473SOL    HW197824   1.008   5.923   8.775  0.7567 -1.0016  1.4353
31473SOL    HW297825   0.917   6.021   8.844  0.1424  0.2236 -1.0556
31474SOL     OW97826   8.657   1.704  10.504  0.2860 -0.2241 -0.7803
31474SOL    HW197827   8.660   1.798  10.486 -0.0227 -0.2554 -1.0111
31474SOL    HW297828   8.740   1.670  10.470  1.5382  0.3468  1.5952
31475SOL     OW97829   7.389   5.187   0.870  0.1044  0.0367 -0.6070
31475SOL    HW197830   7.364   5.197   0.778  1.4892  2.5471 -0.7556
31475SOL    HW297831   7.347   5.261   0.914 -2.5477 -2.4330  1.2888
31476SOL     OW97832   4.238   4.773   1.984 -0.4902  0.4304  0.2022
31476SOL    HW197833   4.221   4.741   2.073 -2.0120 -0.1300 -0.2775
31476SOL    HW297834   4.264   4.864   1.996  0.9369 -0.1074  1.3521
31477SOL     OW97835   9.486   4.504   4.707  0.4985  0.1539  0.4330
31477SOL    HW197836   9.553   4.436   4.718 -0.6017 -1.0133 -0.0033
31477SOL    HW297837   9.413   4.475   4.761 -0.1677  0.7706 -0.1328
31478SOL     OW97838   6.759  10.805   1.828 -0.4568  0.4082  0.6166
31478SOL    HW197839   6.791  10.861   1.756  0.6094  1.8600  2.1874
31478SOL    HW297840   6.667  10.828   1.837 -0.7772 -0.2764 -0.7214
31479SOL     OW97841   7.862   6.568   9.100  0.0807 -0.6430 -0.1403
31479SOL    HW197842   7.885   6.548   9.009 -0.2978 -0.4882 -0.2693
31479SOL    HW297843   7.797   6.638   9.093  1.4698  0.7000  0.3191
31480SOL     OW97844   9.316   6.616   1.462  0.2934 -0.7149  0.2238
31480SOL    HW197845   9.238   6.640   1.412 -2.3117 -2.9139  3.0410
31480SOL    HW297846   9.307   6.664   1.544  1.4645 -1.7133  0.9492
31481SOL     OW97847   8.706  10.323   1.409 -0.3774 -0.3040  0.0952
31481SOL    HW197848   8.732  10.234   1.434  3.3887  0.4861 -0.7583
31481SOL    HW297849   8.640  10.309   1.340  0.3125 -2.4517 -0.1897
31482SOL     OW97850   0.862   0.580   6.568  0.1995  0.0011  0.1681
31482SOL    HW197851   0.787   0.621   6.610  0.0415  0.8976 -0.9652
31482SOL    HW297852   0.854   0.604   6.475  1.6971 -0.1681 -0.0211
31483SOL     OW97853   8.160   4.592   8.179 -0.0274 -0.0399 -0.3547
31483SOL    HW197854   8.168   4.666   8.119 -1.7140  1.1335  0.8158
31483SOL    HW297855   8.066   4.584   8.195 -0.0035 -3.2386 -1.4095
31484SOL     OW97856   0.159   8.175   2.293 -0.2322 -0.3495  0.4781
31484SOL    HW197857   0.084   8.115   2.292 -2.0503  1.8255  0.3988
31484SOL    HW297858   0.208   8.154   2.214 -0.7593 -1.8072  0.5213
31485SOL     OW97859   9.004   6.990   0.701 -0.0068  0.5498  0.2251
31485SOL    HW197860   8.947   7.057   0.739 -0.7438 -0.1166  0.2999
31485SOL    HW297861   9.006   6.920   0.766 -0.1508  0.0114 -0.3464
31486SOL     OW97862  10.495   5.763   6.437  0.1136  0.2009 -0.7470
31486SOL    HW197863  10.476   5.675   6.472  0.8779  0.4755  0.3988
31486SOL    HW297864  10.543   5.746   6.356  2.3820 -0.4742  0.6815
31487SOL     OW97865   2.733  10.333   2.164 -0.4605  0.0513 -0.0572
31487SOL    HW197866   2.696  10.413   2.128 -0.5953  0.0498  0.0728
31487SOL    HW297867   2.761  10.282   2.088 -0.5994  0.1148 -0.1508
31488SOL     OW97868   6.333  10.061   6.549  0.1403  0.4271  0.2478
31488SOL    HW197869   6.312   9.992   6.612 -1.8913  0.3792 -0.4386
31488SOL    HW297870   6.323  10.020   6.463  0.7758  1.0735 -0.1490
31489SOL     OW97871   7.178   9.072   8.706  0.3123  0.8235  0.1496
31489SOL    HW197872   7.207   9.042   8.792 -0.7479 -1.0117 -0.0956
31489SOL    HW297873   7.114   9.006   8.678  1.5618  0.7033 -2.5821
31490SOL     OW97874   0.492   6.594   3.861 -0.1067  0.1794  0.0098
31490SOL    HW197875   0.558   6.647   3.906  0.4534 -0.5200  0.0304
31490SOL    HW297876   0.526   6.505   3.866 -1.0202 -0.1777 -0.0535
31491SOL     OW97877   5.351   4.603   3.792  0.2567  0.2966 -0.3835
31491SOL    HW197878   5.301   4.575   3.869  2.1278 -0.1427  0.7062
31491SOL    HW297879   5.286   4.643   3.734 -1.7213 -2.2096  0.0134
31492SOL     OW97880   0.518   7.229   5.431  0.2585  0.3439  0.6362
31492SOL    HW197881   0.500   7.311   5.386 -1.5146 -0.6983 -0.6226
31492SOL    HW297882   0.514   7.163   5.361 -0.8133 -1.1029  2.0475
31493SOL     OW97883  10.702   0.126  10.381  0.0449 -0.8007  0.1624
31493SOL    HW197884  10.674   0.101  10.293  0.3684 -1.4818  0.2500
31493SOL    HW297885  10.628   0.173  10.418 -0.8536 -2.2772  0.2663
31494SOL     OW97886   8.679   3.561   0.179 -0.1283  0.0980  0.3986
31494SOL    HW197887   8.651   3.480   0.137 -0.2932 -0.4653  1.5610
31494SOL    HW297888   8.767   3.542   0.212 -0.6289  0.0032  1.6889
31495SOL     OW97889   7.926   0.712   7.023  0.3903  0.4171 -0.1212
31495SOL    HW197890   7.943   0.705   7.117 -0.0704 -2.8757 -0.2264
31495SOL    HW297891   7.856   0.778   7.016  1.4128  1.7525  1.6748
31496SOL     OW97892   5.509   6.690   7.987 -0.4578 -0.3202 -0.1569
31496SOL    HW197893   5.445   6.680   7.918  0.3122 -0.3721 -0.8670
31496SOL    HW297894   5.513   6.785   8.003 -0.4712 -0.2920 -0.3316
31497SOL     OW97895   4.293   5.972   7.823  0.0506 -0.0913  0.4885
31497SOL    HW197896   4.236   6.049   7.824 -0.0821 -0.1241 -1.4493
31497SOL    HW297897   4.343   5.981   7.741  0.0482 -2.0360  0.2583
31498SOL     OW97898   2.743  10.371   3.221 -0.1359  0.1782  0.5725
31498SOL    HW197899   2.733  10.353   3.128 -1.9451 -0.2553  0.8193
31498SOL    HW297900   2.685  10.446   3.237  0.0438  0.1518  1.3586
31499SOL     OW97901   0.419   1.067   2.617 -0.1838  0.1752 -0.2693
31499SOL    HW197902   0.449   1.074   2.707  1.2014 -0.3879 -0.6834
31499SOL    HW297903   0.483   1.011   2.574 -0.5616  0.8435 -1.7350
31500SOL     OW97904   3.446   5.039   9.582  0.8775  0.1846  0.3944
31500SOL    HW197905   3.501   4.965   9.555  0.8149  0.3049 -0.0639
31500SOL    HW297906   3.380   5.000   9.639 -1.4038 -0.7602 -2.7052
31501SOL     OW97907   6.253   9.828   0.867 -0.0158  0.1158  0.0964
31501SOL    HW197908   6.343   9.839   0.897  0.1620  1.6594 -0.9117
31501SOL    HW297909   6.239   9.734   0.863  0.8286 -0.1217  2.3714
31502SOL     OW97910   9.396   3.786   6.832 -0.5764 -0.2746 -0.3742
31502SOL    HW197911   9.332   3.808   6.900 -0.6293 -0.3556 -0.3974
31502SOL    HW297912   9.375   3.696   6.807 -0.3939 -0.3361 -0.3131
31503SOL     OW97913   8.281   9.657   0.150  0.6740 -0.0940 -0.3570
31503SOL    HW197914   8.334   9.589   0.109 -0.4004 -0.9175 -0.4252
31503SOL    HW297915   8.254   9.713   0.078 -1.2708 -1.5787 -0.8474
31504SOL     OW97916   3.568   3.437   6.309  0.0735  0.0837  0.1131
31504SOL    HW197917   3.544   3.369   6.372  1.2964 -1.5824 -1.1987
31504SOL    HW297918   3.502   3.430   6.240  0.0221  0.4444  0.1256
31505SOL     OW97919   4.964   3.066   9.045 -0.1437 -0.8390  0.3878
31505SOL    HW197920   5.057   3.070   9.021 -0.1162  1.0446  0.6798
31505SOL    HW297921   4.959   3.115   9.127 -1.6965  0.9386 -0.7154
31506SOL     OW97922  10.158   9.395  10.048 -0.2903  0.2281 -0.8831
31506SOL    HW197923  10.115   9.365   9.968  0.5086 -1.8902 -0.5467
31506SOL    HW297924  10.251   9.394  10.028 -0.0717 -0.5436  0.1524
31507SOL     OW97925   9.979   2.757   7.920 -0.1205 -0.0317 -0.2351
31507SOL    HW197926   9.971   2.744   8.014 -1.1687 -0.9013 -0.4420
31507SOL    HW297927   9.997   2.670   7.884  0.1038  0.2648 -0.8628
31508SOL     OW97928   3.372   8.104   8.917 -0.3145 -0.2217 -0.2888
31508SOL    HW197929   3.320   8.095   8.837 -0.9454 -0.1794  0.1138
31508SOL    HW297930   3.326   8.170   8.968 -0.1678 -0.5793  0.3097
31509SOL     OW97931   4.344   9.650   9.785  0.1541  0.2984 -0.5556
31509SOL    HW197932   4.302   9.569   9.754 -1.7899  0.4651  1.4808
31509SOL    HW297933   4.393   9.682   9.710  0.0975 -2.2106 -1.7324
31510SOL     OW97934   3.553   6.293   8.442  0.2763 -0.2717  0.2353
31510SOL    HW197935   3.571   6.257   8.355 -0.6093 -1.4661  0.5493
31510SOL    HW297936   3.557   6.218   8.501  0.8179  0.5227  1.2365
31511SOL     OW97937   8.902   8.644   6.506  0.4385  0.0931  0.4645
31511SOL    HW197938   8.937   8.598   6.431  0.4251 -1.6813  1.5258
31511SOL    HW297939   8.823   8.688   6.473  0.0589 -1.2163 -0.3802
31512SOL     OW97940   5.562   1.263   1.831  0.7479 -0.8945 -0.5535
31512SOL    HW197941   5.657   1.252   1.835  0.9551  0.7124 -0.5175
31512SOL    HW297942   5.537   1.292   1.919  0.1645 -1.7108 -0.4474
31513SOL     OW97943   0.086   8.855   5.948  0.0994 -0.2128  0.0389
31513SOL    HW197944   0.057   8.929   5.895  0.8201 -1.1711 -1.7359
31513SOL    HW297945   0.010   8.797   5.951 -0.5193  0.6669  1.5699
31514SOL     OW97946   7.588   8.153   0.289  0.0499  0.0206 -0.0828
31514SOL    HW197947   7.519   8.097   0.324  2.8578 -1.9221  2.5063
31514SOL    HW297948   7.621   8.107   0.212 -0.5721  0.2958 -0.5229
31515SOL     OW97949   5.814   6.354   0.090  0.2875 -0.3292  0.9919
31515SOL    HW197950   5.731   6.305   0.086  0.0437  0.0993  0.8136
31515SOL    HW297951   5.827   6.371   0.184 -1.2724  2.0536  0.8317
31516SOL     OW97952   0.034   8.097   3.694  0.1626 -0.1267  0.1266
31516SOL    HW197953   0.126   8.086   3.719  0.6209 -2.6120 -2.4160
31516SOL    HW297954  -0.011   8.023   3.735  0.1365 -1.5240 -2.2752
31517SOL     OW97955   4.360   8.239   8.735  0.2863  0.3024  0.2468
31517SOL    HW197956   4.286   8.244   8.795 -0.9528 -1.4247 -1.0586
31517SOL    HW297957   4.342   8.307   8.670 -1.1668 -1.3188 -1.1006
31518SOL     OW97958   4.159   5.241   0.342 -0.1720 -0.2050 -0.7024
31518SOL    HW197959   4.145   5.223   0.435 -0.3037  2.2188 -0.2229
31518SOL    HW297960   4.076   5.280   0.313  0.4615  0.6417 -1.4039
31519SOL     OW97961   8.446   7.421   4.521  0.1089 -0.2758 -0.8447
31519SOL    HW197962   8.537   7.396   4.501 -0.2705 -0.9960 -1.6755
31519SOL    HW297963   8.446   7.516   4.514  0.9539 -0.2232 -0.2142
31520SOL     OW97964   7.235   3.024   7.601  0.2453  0.1406  0.6327
31520SOL    HW197965   7.295   2.955   7.572  0.6624  0.3350  1.0276
31520SOL    HW297966   7.148   2.987   7.586  0.4648 -0.9776  2.0322
31521SOL     OW97967   3.676   7.623   7.818  0.1139 -0.5351  0.3728
31521SOL    HW197968   3.649   7.708   7.784  1.0658  0.0817  1.1379
31521SOL    HW297969   3.762   7.608   7.779  0.8859 -0.1642  1.8960
31522SOL     OW97970   0.980  10.297  10.421  0.1862  0.3193 -0.0439
31522SOL    HW197971   1.046  10.353  10.380 -0.2665 -1.0661 -2.7473
31522SOL    HW297972   0.898  10.322  10.378 -0.1911 -1.6569 -0.4999
31523SOL     OW97973   9.939   0.246   4.532 -0.0100  0.2270  0.0748
31523SOL    HW197974   9.878   0.215   4.599  1.7974 -0.7565  1.3273
31523SOL    HW297975   9.969   0.167   4.488  0.6855  0.6455 -0.2190
31524SOL     OW97976   7.920   1.109   3.158  0.3202  0.3122 -0.4084
31524SOL    HW197977   7.881   1.188   3.123 -0.2012 -0.5102 -1.6958
31524SOL    HW297978   7.985   1.083   3.093 -1.1462 -1.6155 -1.1378
31525SOL     OW97979   1.592   8.009   8.179 -1.0764 -0.5194  0.4638
31525SOL    HW197980   1.573   8.081   8.119 -0.6046 -0.2403  0.6520
31525SOL    HW297981   1.674   7.972   8.148 -2.7255 -2.8356 -1.4029
31526SOL     OW97982   3.853   3.118   0.477  0.0370  0.1641 -0.2365
31526SOL    HW197983   3.855   3.124   0.572 -0.9943  1.2448 -0.2736
31526SOL    HW297984   3.939   3.083   0.454  0.2001 -0.3489  1.1055
31527SOL     OW97985   6.637   9.151   5.263 -0.6073  0.0108 -0.3474
31527SOL    HW197986   6.641   9.237   5.222 -0.8102 -1.1467 -2.8521
31527SOL    HW297987   6.716   9.106   5.233 -1.3149 -1.2412 -0.3796
31528SOL     OW97988   1.170   4.247   6.140  0.2349 -0.7285 -0.4980
31528SOL    HW197989   1.265   4.231   6.139 -0.0586 -2.5309 -1.4092
31528SOL    HW297990   1.144   4.230   6.231  0.3379 -3.1117 -0.8939
31529SOL     OW97991   9.817   3.115   9.937  0.1758 -0.9928  0.8535
31529SOL    HW197992   9.736   3.103   9.987  0.5164 -1.6242  1.2657
31529SOL    HW297993   9.860   3.189   9.978 -1.8362  1.6457 -1.5629
31530SOL     OW97994   6.834   5.791   6.163 -0.3851  0.1127 -0.2709
31530SOL    HW197995   6.892   5.715   6.151 -0.4728 -0.3754  2.1698
31530SOL    HW297996   6.861   5.828   6.247  0.5430  3.6162 -2.0253
31531SOL     OW97997   4.011   1.311   0.432 -0.6898 -0.0478  0.9507
31531SOL    HW197998   4.092   1.265   0.406  0.8909  2.1687  1.8073
31531SOL    HW297999   4.000   1.289   0.524 -2.1171 -1.8293  0.3780
31532SOL     OW98000   6.187  10.301   5.035 -0.0452  0.1378  1.0426
31532SOL    HW198001   6.151  10.327   5.120 -0.5896 -0.1348  0.8986
31532SOL    HW298002   6.120  10.243   4.998  0.0673  0.4759  0.3059
31533SOL     OW98003   6.573   4.914   1.487  0.1100  0.3204 -0.1026
31533SOL    HW198004   6.539   4.830   1.518  1.1554  0.1874  0.6997
31533SOL    HW298005   6.538   4.978   1.548  0.5197  0.2950  0.1595
31534SOL     OW98006   0.453   1.128   7.356 -0.2198  0.5695  0.1460
31534SOL    HW198007   0.527   1.101   7.410  0.4321 -0.1096 -1.0661
31534SOL    HW298008   0.446   1.223   7.370 -1.0800  0.1690  2.6486
31535SOL     OW98009   1.745   8.536   9.098 -0.0341 -0.0288 -0.0084
31535SOL    HW198010   1.774   8.521   9.189 -0.1797 -1.7038 -0.2368
31535SOL    HW298011   1.688   8.463   9.078 -0.2893  0.5239 -1.3570
31536SOL     OW98012   1.776   1.990   2.649 -0.5669  0.0542  0.1377
31536SOL    HW198013   1.783   1.920   2.715 -0.6980 -0.6189 -0.5555
31536SOL    HW298014   1.844   2.053   2.673 -0.9357  0.0621  1.2122
31537SOL     OW98015   3.100   5.334  10.891 -0.3439  0.6037 -0.1788
31537SOL    HW198016   3.011   5.316  10.860 -0.8235  0.9129  1.0213
31537SOL    HW298017   3.153   5.336  10.811 -1.1449 -1.1533 -0.7715
31538SOL     OW98018   3.507  10.080   1.844  0.2341 -0.2331  0.2247
31538SOL    HW198019   3.593  10.122   1.851  0.9116 -1.4607 -0.5218
31538SOL    HW298020   3.499  10.057   1.752  0.0628 -2.1036  0.6933
31539SOL     OW98021   5.185   3.052   2.986 -0.0591 -0.1001 -0.0025
31539SOL    HW198022   5.252   3.049   3.054  2.9779 -1.2433 -2.9309
31539SOL    HW298023   5.112   3.001   3.022  0.9689  0.3307  2.8241
31540SOL     OW98024   4.888   2.700   5.336  0.1353  0.2800  0.2552
31540SOL    HW198025   4.914   2.769   5.275  1.0107  0.9638  1.3722
31540SOL    HW298026   4.798   2.723   5.361  0.6037  1.3287  1.0224
31541SOL     OW98027   1.313   4.334   8.548  0.5424 -0.0681 -0.5341
31541SOL    HW198028   1.309   4.399   8.618 -2.2022 -2.7804  1.9870
31541SOL    HW298029   1.406   4.330   8.525  1.1676  2.7144  1.1340
31542SOL     OW98030   7.511   8.317   1.602  0.2058 -0.6688  0.2069
31542SOL    HW198031   7.443   8.255   1.629  1.6261 -2.0595  0.6918
31542SOL    HW298032   7.580   8.261   1.565  1.5088  0.6264  0.6484
31543SOL     OW98033   2.680   0.737   4.442  0.6015 -0.8478 -0.0080
31543SOL    HW198034   2.636   0.784   4.513  0.0804 -1.4238  0.0520
31543SOL    HW298035   2.772   0.764   4.449  0.1389  0.9351 -0.6026
31544SOL     OW98036   9.587   4.314   8.838 -0.0345  0.1200 -0.0853
31544SOL    HW198037   9.515   4.336   8.778 -0.0434  0.7162  0.1337
31544SOL    HW298038   9.631   4.240   8.797 -1.4921 -1.0293  0.3658
31545SOL     OW98039   5.653   0.086   4.547 -0.1504  0.4508  0.8749
31545SOL    HW198040   5.625   0.125   4.629 -2.2532 -1.5170  1.1352
31545SOL    HW298041   5.698   0.005   4.572  0.8808  0.7783  0.1507
31546SOL     OW98042   7.185   7.637   8.109 -0.8571 -0.1569 -0.1284
31546SOL    HW198043   7.112   7.592   8.067 -0.8262  0.1041 -0.4648
31546SOL    HW298044   7.157   7.728   8.115 -1.6091 -0.5033  2.0690
31547SOL     OW98045   7.244   5.856   3.106 -0.3232  0.7572 -0.4740
31547SOL    HW198046   7.228   5.788   3.041  0.5165 -0.0425  0.1408
31547SOL    HW298047   7.163   5.860   3.157  0.2693 -1.0936  0.6612
31548SOL     OW98048   5.884   3.464   6.673  0.3540  0.3677  0.6035
31548SOL    HW198049   5.977   3.451   6.693  0.5334  3.0496  1.6595
31548SOL    HW298050   5.846   3.377   6.682  2.4643 -0.4827  1.7846
31549SOL     OW98051  10.567   3.348   6.571 -0.5840 -0.1320 -0.4243
31549SOL    HW198052  10.554   3.255   6.590 -0.8135 -0.1112 -0.4779
31549SOL    HW298053  10.479   3.385   6.569 -0.4784  0.1342 -0.1672
31550SOL     OW98054   5.765   2.261   2.702 -0.0863  0.6008  0.0415
31550SOL    HW198055   5.769   2.356   2.695 -0.3123  0.5226 -1.4596
31550SOL    HW298056   5.759   2.231   2.611  1.6833 -0.9372  0.4149
31551SOL     OW98057   0.206   5.828   4.488  0.4677  0.1732 -0.2418
31551SOL    HW198058   0.219   5.815   4.582 -1.0564 -0.6303 -0.1268
31551SOL    HW298059   0.125   5.781   4.469  1.8028 -1.3705 -2.3315
31552SOL     OW98060   2.422   2.400   2.597  0.5645  0.9469  0.1529
31552SOL    HW198061   2.461   2.349   2.668 -0.1372 -0.5464 -0.5191
31552SOL    HW298062   2.489   2.401   2.529  0.0987 -0.1782 -0.3336
31553SOL     OW98063   6.188   6.325   0.852  0.9922  0.1636 -0.4975
31553SOL    HW198064   6.178   6.419   0.841 -0.3923  0.0129 -0.6750
31553SOL    HW298065   6.164   6.309   0.944  2.1754  0.1021 -0.1925
31554SOL     OW98066   0.941   5.518   6.042 -0.5144  0.0388 -0.3752
31554SOL    HW198067   0.929   5.425   6.064  0.3090 -0.1086 -0.5542
31554SOL    HW298068   0.906   5.565   6.117 -0.0021 -0.4324  0.1590
31555SOL     OW98069   4.663   3.997   4.483 -0.1953  0.0375 -0.3493
31555SOL    HW198070   4.720   3.940   4.431  0.3124  0.6118 -0.4281
31555SOL    HW298071   4.682   3.974   4.574  0.9864  1.0004 -0.3370
31556SOL     OW98072   8.948   7.800   0.661 -0.0955 -0.1970 -0.0052
31556SOL    HW198073   8.956   7.844   0.576 -0.6579  1.7360  0.8968
31556SOL    HW298074   9.037   7.798   0.696  0.1737 -1.2064 -0.7191
31557SOL     OW98075   9.644   8.372   8.067 -0.1092 -0.0313 -0.6908
31557SOL    HW198076   9.731   8.360   8.105 -0.0348  1.1374 -0.4717
31557SOL    HW298077   9.597   8.426   8.131 -1.4753 -1.8606 -0.1129
31558SOL     OW98078   3.537   6.140   4.309  0.5309  0.3374  0.1773
31558SOL    HW198079   3.451   6.156   4.270  0.9827 -0.4464 -1.1799
31558SOL    HW298080   3.577   6.227   4.317 -0.5305  0.7395  1.1651
31559SOL     OW98081   3.174   2.299   5.607 -0.2551  0.0760 -0.2626
31559SOL    HW198082   3.193   2.315   5.515  0.4019 -0.5870 -0.2458
31559SOL    HW298083   3.183   2.384   5.649  0.3438  0.2080 -0.6606
31560SOL     OW98084   0.591   3.328   2.066  0.3506 -0.7021  0.0084
31560SOL    HW198085   0.547   3.259   2.018 -1.4585  1.2607 -1.2444
31560SOL    HW298086   0.654   3.365   2.003  0.8429 -0.7722  0.4552
31561SOL     OW98087   2.543  10.718   4.488 -0.0988 -0.4642 -0.8494
31561SOL    HW198088   2.572  10.733   4.398 -0.5304 -0.3723 -0.9713
31561SOL    HW298089   2.464  10.665   4.480  0.2333 -1.0189 -0.4950
31562SOL     OW98090   1.246   7.338   6.441  0.1628 -0.0851 -0.1941
31562SOL    HW198091   1.237   7.381   6.526  0.4111  3.0065 -1.6385
31562SOL    HW298092   1.174   7.276   6.437  0.1785 -0.3117  2.2652
31563SOL     OW98093   2.957   6.299   7.399  0.0470 -0.3756 -0.3751
31563SOL    HW198094   2.984   6.339   7.481 -2.6622  0.2231  0.2586
31563SOL    HW298095   2.893   6.360   7.362 -0.1583 -1.5422 -2.0103
31564SOL     OW98096   4.704   3.103   1.332  0.6383  0.3424  0.7911
31564SOL    HW198097   4.718   3.041   1.403  0.5400  0.1106  0.6063
31564SOL    HW298098   4.620   3.145   1.353 -0.4078 -1.1659 -0.2510
31565SOL     OW98099   0.678   4.017   0.905  0.1975 -0.4436  0.4190
31565SOL    HW198100   0.647   4.072   0.833  0.8648  0.8836  1.1414
31565SOL    HW298101   0.773   4.031   0.906 -0.1085  1.8293  3.4034
31566SOL     OW98102   9.237   4.193   2.629 -0.1073 -0.2072  0.5864
31566SOL    HW198103   9.318   4.142   2.634 -0.3392 -0.5657  0.7053
31566SOL    HW298104   9.244   4.240   2.546 -0.0009 -0.6195  0.3585
31567SOL     OW98105   2.768   6.587   1.444  0.1835 -0.3341  0.0190
31567SOL    HW198106   2.702   6.644   1.484 -0.5630 -3.0140  2.7905
31567SOL    HW298107   2.718   6.517   1.404  1.2712 -2.9258  2.9791
31568SOL     OW98108   4.603   9.404   0.312  0.5198  0.1660  0.1439
31568SOL    HW198109   4.531   9.405   0.375  0.1579  0.5208 -0.2740
31568SOL    HW298110   4.572   9.348   0.241  0.1134  1.4040 -0.6687
31569SOL     OW98111   2.520   7.775   5.108 -0.0112 -0.2381  0.3593
31569SOL    HW198112   2.497   7.786   5.015 -0.5456 -0.4321  0.4655
31569SOL    HW298113   2.521   7.680   5.121 -0.6403 -0.1977  0.7218
31570SOL     OW98114   2.681   5.270   2.058  0.7006 -0.2022 -0.0077
31570SOL    HW198115   2.692   5.197   1.997  2.6552  0.1274 -0.0933
31570SOL    HW298116   2.717   5.238   2.141  0.1033  0.1210  0.3832
31571SOL     OW98117   0.499   0.675  10.263  0.4221  0.4533 -0.1504
31571SOL    HW198118   0.468   0.718  10.183  1.0340 -0.1086 -0.7024
31571SOL    HW298119   0.480   0.737  10.333 -1.8131  0.1861 -0.4907
31572SOL     OW98120   2.648   8.043   6.958 -0.1007  0.9495  0.1740
31572SOL    HW198121   2.590   8.107   6.999  0.9451  1.5505  0.7694
31572SOL    HW298122   2.660   8.074   6.868 -0.8734  0.6966 -0.0161
31573SOL     OW98123   2.393  10.276  10.530 -0.1192  0.7100  0.0904
31573SOL    HW198124   2.394  10.184  10.554 -0.8573  0.6543 -0.0631
31573SOL    HW298125   2.411  10.277  10.436 -0.2206  0.7121  0.0715
31574SOL     OW98126   0.897   9.957   7.346 -0.2884  0.6176 -1.0128
31574SOL    HW198127   0.927   9.946   7.436 -0.6644 -1.2460 -1.0973
31574SOL    HW298128   0.807   9.989   7.353 -0.4700  0.0477 -0.7152
31575SOL     OW98129   9.016   1.420   2.970 -0.0226 -0.1024  0.3615
31575SOL    HW198130   8.932   1.383   2.945  0.2700  0.7034 -1.9326
31575SOL    HW298131   8.994   1.504   3.010 -0.3507 -0.2298  0.4462
31576SOL     OW98132   9.917   6.737   3.576 -0.2826  0.4145  0.0077
31576SOL    HW198133  10.012   6.737   3.563 -0.3337  0.5232 -0.3833
31576SOL    HW298134   9.905   6.753   3.669  0.0729  0.8943 -0.0268
31577SOL     OW98135   6.678   8.196  10.406 -0.2658  0.1234  0.6616
31577SOL    HW198136   6.589   8.222  10.382  0.2592  1.4492  0.0709
31577SOL    HW298137   6.713   8.272  10.452  0.1242 -0.8830  2.0429
31578SOL     OW98138   0.492   7.075   1.284 -0.3409 -0.4210  0.5147
31578SOL    HW198139   0.486   7.155   1.232 -0.7203 -0.0171  1.1670
31578SOL    HW298140   0.422   7.083   1.349  0.7882 -0.4232  1.7521
31579SOL     OW98141   4.059   2.319   6.132  0.3458  0.3753 -0.0269
31579SOL    HW198142   4.148   2.339   6.102  0.1269  0.5063 -0.5778
31579SOL    HW298143   4.025   2.403   6.162  1.2184 -0.0595  2.3174
31580SOL     OW98144   3.160   4.300   2.403 -0.0162  0.4166  0.1949
31580SOL    HW198145   3.237   4.345   2.439  1.8992 -1.5540 -1.2943
31580SOL    HW298146   3.144   4.228   2.464 -0.6931  0.8131  0.4926
31581SOL     OW98147   6.398   0.073   7.064  0.0713 -0.5363 -0.4746
31581SOL    HW198148   6.412   0.164   7.038 -0.3153 -0.4505 -0.3781
31581SOL    HW298149   6.330   0.041   7.005 -1.0900 -0.2251  0.6768
31582SOL     OW98150   0.155  10.521   2.208  0.1044 -0.2682 -0.9281
31582SOL    HW198151   0.162  10.561   2.294  3.8958 -1.5786 -0.5033
31582SOL    HW298152   0.173  10.592   2.147 -0.0525  0.1292 -0.5140
31583SOL     OW98153   4.911   2.650   9.198  0.0689 -0.1445  0.1588
31583SOL    HW198154   4.909   2.683   9.288 -2.6433  0.3074 -0.0314
31583SOL    HW298155   4.833   2.595   9.191 -0.5702  1.0158 -2.3474
31584SOL     OW98156   1.439   5.452   4.842 -0.7798 -0.5789  0.0414
31584SOL    HW198157   1.358   5.442   4.791 -0.7625  1.3550 -0.4179
31584SOL    HW298158   1.411   5.496   4.922 -0.3902 -1.2004  0.5206
31585SOL     OW98159   1.332   1.311   1.084  0.6674 -0.1172  0.4682
31585SOL    HW198160   1.336   1.394   1.132  1.6594  0.5590 -0.7363
31585SOL    HW298161   1.310   1.337   0.994  0.1904 -1.2338  0.2536
31586SOL     OW98162   4.263   4.988   0.940  0.0434  0.2630  0.1648
31586SOL    HW198163   4.182   5.022   0.901 -0.1471 -2.3471 -1.8011
31586SOL    HW298164   4.236   4.908   0.985  1.0248  1.0316  2.2065
31587SOL     OW98165   9.590   7.946   0.273  0.0953 -0.1117 -0.0497
31587SOL    HW198166   9.562   7.955   0.364  0.8283 -0.1525  0.1841
31587SOL    HW298167   9.576   7.853   0.253 -0.6261  0.0226 -0.1672
31588SOL     OW98168   8.225   1.644  10.656 -0.7017  0.3212  0.0010
31588SOL    HW198169   8.138   1.649  10.695 -1.4676  2.1309 -1.8614
31588SOL    HW298170   8.281   1.693  10.716 -1.6224  1.9836 -0.4654
31589SOL     OW98171   6.889   8.995  10.846  0.2840  0.0238 -0.0672
31589SOL    HW198172   6.952   8.964  10.912  1.0156 -0.6690 -1.0725
31589SOL    HW298173   6.872   8.918  10.792 -0.3531  0.5777 -0.6509
31590SOL     OW98174   3.258  10.376   2.833  0.1180 -0.3606  0.2029
31590SOL    HW198175   3.182  10.430   2.852 -0.2034 -0.4838 -0.7365
31590SOL    HW298176   3.238  10.291   2.873  0.2718 -0.0443  0.9661
31591SOL     OW98177   1.891   8.547   4.007 -0.2798  0.0992  0.3299
31591SOL    HW198178   1.895   8.456   4.038 -0.6606  0.3124  1.0224
31591SOL    HW298179   1.933   8.597   4.077 -0.1297  0.4641 -0.0219
31592SOL     OW98180   6.003   3.711   2.140 -0.7165  0.0657  0.4832
31592SOL    HW198181   5.929   3.723   2.200 -1.3254 -1.6292  0.1081
31592SOL    HW298182   6.016   3.797   2.101 -2.3594  0.4453  0.7296
31593SOL     OW98183   4.137   4.660  10.138  0.6290  0.2293 -0.7031
31593SOL    HW198184   4.119   4.600  10.066 -0.2452  1.5117 -1.5747
31593SOL    HW298185   4.052   4.674  10.180  1.0459 -0.1307  0.2930
31594SOL     OW98186   9.764   5.742  10.414  0.2147 -0.1145  0.4111
31594SOL    HW198187   9.755   5.755  10.320  0.8778 -1.8420  0.0816
31594SOL    HW298188   9.681   5.704  10.441  0.1975 -0.0665  0.4279
31595SOL     OW98189   8.688   9.428   5.998  0.9995 -0.2771 -0.3504
31595SOL    HW198190   8.714   9.514   6.030 -0.9888 -0.4931  1.9951
31595SOL    HW298191   8.758   9.370   6.028  1.0477  0.1257  0.3263
31596SOL     OW98192   4.487   8.105   5.596 -0.3399 -0.1654  0.3957
31596SOL    HW198193   4.494   8.012   5.616  0.7737 -0.1593  0.0688
31596SOL    HW298194   4.399   8.129   5.626 -1.2053 -1.6537 -0.8628
31597SOL     OW98195   1.848   8.154   5.610 -0.1644 -0.0825 -0.4264
31597SOL    HW198196   1.825   8.236   5.567  1.1344 -0.6090 -2.1673
31597SOL    HW298197   1.778   8.093   5.586  0.1818 -0.1743 -1.2183
31598SOL     OW98198   9.219   8.635   7.631  0.0080 -0.0490  0.6503
31598SOL    HW198199   9.171   8.581   7.568 -1.0901  1.6331 -0.0010
31598SOL    HW298200   9.266   8.573   7.686  0.5282 -1.5678 -1.4634
31599SOL     OW98201   9.622   7.095   8.673 -0.3608 -0.4486 -0.4270
31599SOL    HW198202   9.546   7.092   8.614 -1.1348 -0.1990  0.5433
31599SOL    HW298203   9.621   7.010   8.717  1.5361 -1.5310 -2.3742
31600SOL     OW98204   1.749   5.628   9.917  0.2269  0.2927 -0.3046
31600SOL    HW198205   1.820   5.565   9.935  0.7092  0.1452 -2.6493
31600SOL    HW298206   1.748   5.684   9.995  0.7354 -1.7196  1.1982
31601SOL     OW98207   6.832   6.923   6.655  0.3380  0.6258  0.1292
31601SOL    HW198208   6.756   6.866   6.658  0.4944  0.4659  0.9517
31601SOL    HW298209   6.796   7.012   6.659  0.0898  0.6017 -1.2582
31602SOL     OW98210   3.227   2.468   0.211  0.0781  0.1974  0.1183
31602SOL    HW198211   3.149   2.413   0.216  0.9505 -1.0131  0.6913
31602SOL    HW298212   3.252   2.466   0.119 -1.4019  1.8168 -0.3586
31603SOL     OW98213   4.022   6.836   9.942  0.8933  0.5198  0.3508
31603SOL    HW198214   4.056   6.795  10.022 -0.5837  0.3461  0.9097
31603SOL    HW298215   3.943   6.881   9.971  1.0296  1.4907 -0.7903
31604SOL     OW98216   6.621   1.800   6.179 -0.0226  0.2742  0.3239
31604SOL    HW198217   6.697   1.858   6.190 -0.2267  0.7072 -0.4954
31604SOL    HW298218   6.598   1.808   6.087 -1.4480  0.6182  0.6931
31605SOL     OW98219   8.848   6.071   1.267 -0.6537  0.0975 -0.7039
31605SOL    HW198220   8.846   6.061   1.172  0.0772  0.8057 -0.7984
31605SOL    HW298221   8.905   6.147   1.282  0.3185 -0.8246  0.3621
31606SOL     OW98222   7.364   4.333   5.009 -0.1465 -0.4294 -0.5396
31606SOL    HW198223   7.378   4.380   4.927  1.7508  0.7443  0.4117
31606SOL    HW298224   7.441   4.276   5.016 -0.7590 -1.2011 -0.0069
31607SOL     OW98225   1.810   4.102   8.887  0.1495  0.0447  0.0459
31607SOL    HW198226   1.794   4.040   8.817  1.2869 -0.2123  0.0088
31607SOL    HW298227   1.905   4.115   8.887  0.3867 -1.4201  2.7688
31608SOL     OW98228   0.275   1.656   6.151 -0.1616 -0.2670 -0.2466
31608SOL    HW198229   0.272   1.702   6.067 -1.8146 -0.8621 -0.5353
31608SOL    HW298230   0.324   1.575   6.131  0.7710  0.2878 -0.2616
31609SOL     OW98231   1.802   0.708   3.910 -0.0783  0.2397  0.9642
31609SOL    HW198232   1.843   0.737   3.991  0.3812  0.2753  0.7200
31609SOL    HW298233   1.875   0.687   3.852 -0.3975  1.0504  0.2554
31610SOL     OW98234   9.300   9.527   7.414 -0.8098  0.6172 -0.0701
31610SOL    HW198235   9.327   9.536   7.323 -0.4660  1.9270  0.1573
31610SOL    HW298236   9.367   9.472   7.454  0.1932  1.7869 -0.1113
31611SOL     OW98237   9.032   4.570   6.732  0.6028 -0.0234 -0.0791
31611SOL    HW198238   9.021   4.475   6.733 -0.8687  0.1474  0.1006
31611SOL    HW298239   9.127   4.582   6.733  0.8060 -1.4874 -0.0956
31612SOL     OW98240   8.324   9.383   6.789 -0.3749  0.6871 -0.2877
31612SOL    HW198241   8.308   9.385   6.884 -0.3591 -2.0109 -0.2120
31612SOL    HW298242   8.241   9.358   6.751  0.2114 -0.4514 -0.8254
31613SOL     OW98243   8.873   2.425   4.458 -0.0393 -0.2585 -0.0855
31613SOL    HW198244   8.944   2.390   4.512  0.7418 -1.1973 -1.6745
31613SOL    HW298245   8.793   2.393   4.500  0.5023 -0.0149  1.1537
31614SOL     OW98246   6.134   7.975   6.352  0.6854  0.3629  0.0327
31614SOL    HW198247   6.058   8.033   6.352  0.4364  0.0410 -0.3611
31614SOL    HW298248   6.166   7.977   6.262  1.8230  1.3602  0.4524
31615SOL     OW98249  10.626   6.478   7.624 -0.5694 -0.2885  0.6220
31615SOL    HW198250  10.668   6.398   7.656  0.1958 -0.6161 -1.1405
31615SOL    HW298251  10.675   6.549   7.665  0.0616 -0.7067  0.6097
31616SOL     OW98252   9.998   3.281   5.977  0.1295 -0.2415  0.3765
31616SOL    HW198253  10.089   3.304   5.999 -0.1101  0.9493  0.1429
31616SOL    HW298254   9.974   3.343   5.908 -1.1199 -0.0292  0.9935
31617SOL     OW98255  10.058   6.263   7.182 -0.2555  0.2216  0.3559
31617SOL    HW198256  10.144   6.298   7.203 -0.2479 -0.0396  0.7755
31617SOL    HW298257  10.023   6.233   7.266 -1.6635  2.2893  0.5346
31618SOL     OW98258   1.665   1.751   4.577 -0.0775  0.8044 -0.5080
31618SOL    HW198259   1.683   1.677   4.636 -0.2626  0.0554 -1.3853
31618SOL    HW298260   1.570   1.761   4.579  0.0704  2.1301  0.9348
31619SOL     OW98261   4.287   9.110   3.233  0.3248 -0.6638 -0.2473
31619SOL    HW198262   4.277   9.059   3.152  1.5020  0.8863 -1.3831
31619SOL    HW298263   4.207   9.163   3.237 -0.3482 -1.7051  0.3114
31620SOL     OW98264   0.196   1.958   6.183 -0.3799 -0.0206  0.1477
31620SOL    HW198265   0.214   1.864   6.185  2.2163  0.4463  1.0996
31620SOL    HW298266   0.102   1.965   6.194 -0.9049 -2.5968 -2.1524
31621SOL     OW98267   8.037   2.520  10.099 -0.0123 -0.0786  0.5438
31621SOL    HW198268   8.087   2.440  10.112  0.5874  0.1417 -0.4055
31621SOL    HW298269   8.021   2.553  10.187  0.2041 -0.9513  0.9140
31622SOL     OW98270   6.844   9.044   4.579  0.2082 -0.0860 -0.2818
31622SOL    HW198271   6.822   9.136   4.564  0.4588 -0.1229 -0.8688
31622SOL    HW298272   6.797   9.021   4.660 -1.9019 -0.1639 -1.4992
31623SOL     OW98273   5.422   5.735   7.670 -0.6220  0.1884  0.0939
31623SOL    HW198274   5.381   5.765   7.589  0.5359  0.9166 -0.2228
31623SOL    HW298275   5.352   5.688   7.716 -1.4380  0.2682 -1.0576
31624SOL     OW98276   7.722   6.428   7.825 -0.1274  0.0161  0.3955
31624SOL    HW198277   7.783   6.455   7.756  0.9389 -1.8905  0.5372
31624SOL    HW298278   7.697   6.509   7.869  1.1259  0.9863 -0.6515
31625SOL     OW98279   8.003   4.171   5.150 -0.2777 -0.8113 -0.3614
31625SOL    HW198280   8.063   4.107   5.189 -1.5525 -1.3709  0.6833
31625SOL    HW298281   8.014   4.250   5.203 -2.6740 -1.8472  1.7446
31626SOL     OW98282   6.443   2.834   5.347  0.0386  0.0772 -0.5234
31626SOL    HW198283   6.435   2.893   5.272 -1.4444 -1.3055 -1.4763
31626SOL    HW298284   6.534   2.843   5.375  0.1964  1.7745 -1.5016
31627SOL     OW98285   5.735   0.607   5.960 -0.0898 -0.4378 -0.2278
31627SOL    HW198286   5.668   0.660   6.004  0.2958 -0.8580  0.8814
31627SOL    HW298287   5.814   0.620   6.012  0.8370  0.4494 -1.8119
31628SOL     OW98288   4.271   0.120   0.601  0.0150 -0.0491  0.2817
31628SOL    HW198289   4.186   0.135   0.644 -0.4878 -1.1369 -0.3136
31628SOL    HW298290   4.304   0.208   0.584 -0.9956  0.3932  0.5248
31629SOL     OW98291   9.382   0.376   0.369  0.4792 -0.4089 -0.0085
31629SOL    HW198292   9.365   0.444   0.435  0.5934 -0.4016  0.0140
31629SOL    HW298293   9.463   0.334   0.399  0.6449 -0.2677 -0.2572
31630SOL     OW98294   8.887   4.495   5.583 -0.5714 -0.2528  0.3916
31630SOL    HW198295   8.873   4.405   5.554  2.4902 -0.4042 -0.7739
31630SOL    HW298296   8.826   4.547   5.531  0.3738 -1.2591 -1.7788
31631SOL     OW98297  10.737   4.490   2.246  0.1080 -0.0284 -0.3267
31631SOL    HW198298  10.779   4.570   2.218  0.2564 -0.3918 -1.1594
31631SOL    HW298299  10.795   4.453   2.312  0.5964 -0.0224 -0.7558
31632SOL     OW98300   7.642   2.100   1.871  0.2677  0.1132 -0.4002
31632SOL    HW198301   7.623   2.033   1.806 -0.5139 -0.5907  0.5396
31632SOL    HW298302   7.693   2.055   1.938  0.4599  0.6571 -0.1772
31633SOL     OW98303   9.132   6.484   8.698 -0.0928 -0.1791  0.3712
31633SOL    HW198304   9.173   6.410   8.741  1.5072  0.2864 -0.3187
31633SOL    HW298305   9.120   6.549   8.768 -1.2172 -0.9438  0.9097
31634SOL     OW98306   8.252   9.561   9.017 -0.4046  0.0226 -0.3459
31634SOL    HW198307   8.254   9.490   8.952  2.4371  0.0312 -0.3687
31634SOL    HW298308   8.318   9.536   9.082 -1.9370  0.9027  1.6042
31635SOL     OW98309   2.386   7.769   2.680 -0.4309 -0.2061  0.6002
31635SOL    HW198310   2.403   7.850   2.632  0.2355  0.1645  1.4505
31635SOL    HW298311   2.427   7.701   2.628 -0.1278  0.1323  0.3937
31636SOL     OW98312   4.644   5.686   2.827  0.1735  0.2125  0.2876
31636SOL    HW198313   4.623   5.778   2.845  0.8421  0.3803  0.2399
31636SOL    HW298314   4.609   5.670   2.739 -0.0654  0.3814  0.3521
31637SOL     OW98315   9.005   5.096   0.033  0.0996  0.1312 -0.2260
31637SOL    HW198316   9.045   5.177   0.066 -1.2418  0.9078 -0.4362
31637SOL    HW298317   8.975   5.051   0.112 -0.0696  0.3569 -0.1568
31638SOL     OW98318  10.155   9.452   2.797  0.8642 -0.4128  0.7514
31638SOL    HW198319  10.232   9.448   2.742  1.5796  0.7034  1.6288
31638SOL    HW298320  10.170   9.387   2.865 -0.6137 -2.7189 -1.0633
31639SOL     OW98321   4.689   8.864   6.973 -0.1765  0.0423 -0.1678
31639SOL    HW198322   4.737   8.794   7.018  0.4159  0.5124 -0.0561
31639SOL    HW298323   4.606   8.872   7.021 -0.5968 -1.1307 -0.6847
31640SOL     OW98324   2.669   9.145   1.006 -0.6361 -0.4496 -0.4331
31640SOL    HW198325   2.753   9.182   1.033 -0.7657 -1.6038  1.6362
31640SOL    HW298326   2.632   9.211   0.948  1.4194  0.3556 -0.8956
31641SOL     OW98327   1.595   6.566   0.907 -0.1082 -0.5631  0.1686
31641SOL    HW198328   1.644   6.635   0.951 -0.4618  0.1574 -0.5660
31641SOL    HW298329   1.638   6.485   0.935 -0.2161 -0.1125  1.7009
31642SOL     OW98330   5.786   9.480   3.024  0.6053 -0.3189 -0.0183
31642SOL    HW198331   5.728   9.413   3.060  0.3780  0.2083  0.6063
31642SOL    HW298332   5.874   9.453   3.050  0.5574 -0.6364 -0.1855
31643SOL     OW98333   8.540   5.828   5.005 -0.0308  0.4843 -0.2015
31643SOL    HW198334   8.503   5.890   4.942 -1.7347  1.8000  2.0218
31643SOL    HW298335   8.498   5.850   5.088  0.4046 -2.7387  0.9489
31644SOL     OW98336   7.568   5.507   5.839  0.1884  0.2978  0.0438
31644SOL    HW198337   7.518   5.581   5.806 -0.4717 -1.5797 -3.3523
31644SOL    HW298338   7.642   5.499   5.779  1.6660 -0.2291  1.8877
31645SOL     OW98339   2.895   7.448   2.192 -0.4199  0.7424 -0.1886
31645SOL    HW198340   2.962   7.459   2.260 -0.9168 -1.8033  0.7455
31645SOL    HW298341   2.923   7.371   2.143 -1.6241  0.8425 -1.0501
31646SOL     OW98342   2.960   0.775   9.751  0.5608 -0.3824 -1.0281
31646SOL    HW198343   3.008   0.741   9.826  1.6320  1.1901 -0.9747
31646SOL    HW298344   2.869   0.783   9.781  0.9758  0.1726  0.0748
31647SOL     OW98345   0.531   9.638   1.806  0.5950  0.4123 -0.0009
31647SOL    HW198346   0.466   9.692   1.851 -1.4107 -0.9217 -1.2584
31647SOL    HW298347   0.566   9.694   1.737 -1.5865  0.0768 -1.3986
31648SOL     OW98348   9.513  10.967   0.419 -0.4162 -0.3985 -0.2600
31648SOL    HW198349   9.469  11.014   0.489 -0.6129 -1.2564  0.1961
31648SOL    HW298350   9.550  10.889   0.461 -0.1523 -0.6876 -1.0190
31649SOL     OW98351  10.764   1.978   9.946  0.3008  0.9247  0.0996
31649SOL    HW198352  10.671   1.962   9.929  0.2857  0.8219  0.2785
31649SOL    HW298353  10.775   2.072   9.932 -0.0076  1.0834  0.9112
31650SOL     OW98354   7.955   3.209   6.356 -0.2692 -0.1145  0.8012
31650SOL    HW198355   7.860   3.202   6.345 -0.1814  0.5049 -0.5464
31650SOL    HW298356   7.991   3.135   6.307 -0.0589 -0.2279  1.1286
31651SOL     OW98357  10.251   4.157  10.860  0.1336 -0.7916 -0.8730
31651SOL    HW198358  10.200   4.080  10.834 -0.7696 -0.0360 -1.3290
31651SOL    HW298359  10.186   4.224  10.880  0.9304  0.0087 -0.9207
31652SOL     OW98360   9.268   9.120   4.861  0.0468 -0.4907 -0.0014
31652SOL    HW198361   9.297   9.170   4.937 -2.8465 -0.8225  1.4148
31652SOL    HW298362   9.207   9.178   4.816  0.3622 -0.9729 -1.0662
31653SOL     OW98363   5.709   8.729   7.508 -0.2689 -0.1433  0.1369
31653SOL    HW198364   5.632   8.675   7.493 -0.7358  0.7953 -0.9460
31653SOL    HW298365   5.777   8.668   7.535 -1.8935 -0.7543  2.9866
31654SOL     OW98366   5.572   1.840   3.661 -0.2228 -0.6998  0.3778
31654SOL    HW198367   5.641   1.905   3.643  0.3287 -1.4226 -0.1455
31654SOL    HW298368   5.502   1.862   3.600  0.5014 -1.3969 -0.7284
31655SOL     OW98369   1.552   7.618   7.723  0.1920 -0.2035  0.2169
31655SOL    HW198370   1.646   7.625   7.738  0.2929  0.1660 -0.5456
31655SOL    HW298371   1.540   7.530   7.689 -0.0122 -0.9734  2.2063
31656SOL     OW98372   6.732   0.692   5.724 -0.5055  0.1174 -0.3984
31656SOL    HW198373   6.675   0.769   5.733 -0.8510 -0.3946  2.1602
31656SOL    HW298374   6.820   0.728   5.720 -0.7478  0.7080 -0.5911
31657SOL     OW98375   9.606   3.728   1.013  0.2202 -0.0651 -0.5408
31657SOL    HW198376   9.676   3.689   1.066 -0.1510 -2.0923 -1.5193
31657SOL    HW298377   9.529   3.673   1.030 -0.1358 -0.2082 -2.4943
31658SOL     OW98378   2.757   4.063   7.878 -0.0347  0.0292  0.4325
31658SOL    HW198379   2.695   4.133   7.855 -1.2467 -0.6687  1.5080
31658SOL    HW298380   2.835   4.110   7.907 -0.7424  0.9501  0.9027
31659SOL     OW98381   6.042   8.249   9.857 -0.2919  0.0021 -0.2643
31659SOL    HW198382   5.972   8.249   9.791 -0.6406 -1.4242  0.0888
31659SOL    HW298383   5.997   8.234   9.940  0.4085 -0.6742 -0.0019
31660SOL     OW98384   3.830   1.719   9.630 -0.2715 -0.4962 -0.0142
31660SOL    HW198385   3.885   1.647   9.601  0.9889  0.0147  1.0406
31660SOL    HW298386   3.860   1.795   9.580  1.0998  0.1254  1.6867
31661SOL     OW98387   7.597   5.154   9.139 -0.4214  0.0576 -0.4643
31661SOL    HW198388   7.638   5.118   9.218  0.2424  1.6430 -0.0599
31661SOL    HW298389   7.594   5.248   9.155 -0.5415  0.3631 -2.2116
31662SOL     OW98390   9.557   8.394   6.093 -0.3510 -0.3815  0.3085
31662SOL    HW198391   9.492   8.353   6.035  0.3952 -0.3934 -0.5383
31662SOL    HW298392   9.542   8.355   6.178 -0.4778 -1.4943 -0.2197
31663SOL     OW98393   1.723   1.079   7.910  0.1853 -0.2717 -0.3283
31663SOL    HW198394   1.794   1.090   7.847 -2.1871 -1.1282 -3.2835
31663SOL    HW298395   1.729   0.987   7.936 -0.5832 -0.7217 -1.6318
31664SOL     OW98396   9.301   8.442   9.398 -0.2332  0.0551 -0.7144
31664SOL    HW198397   9.390   8.451   9.363 -0.2896  0.9668 -0.6454
31664SOL    HW298398   9.312   8.449   9.493 -0.3915  0.3326 -0.7140
31665SOL     OW98399   4.638   2.212   3.048 -0.5492 -0.2781  0.3903
31665SOL    HW198400   4.643   2.159   2.968  0.0990 -0.5528  0.6144
31665SOL    HW298401   4.589   2.290   3.021 -0.1925 -0.2916 -0.3218
31666SOL     OW98402   5.588   2.405   6.290  0.2153  0.0618 -0.0365
31666SOL    HW198403   5.500   2.438   6.308  0.1991  1.2402 -2.1570
31666SOL    HW298404   5.594   2.401   6.195  1.6930 -2.1598  0.0875
31667SOL     OW98405  10.864   5.386   6.056  0.2607  0.0809 -0.2392
31667SOL    HW198406  10.882   5.478   6.034 -1.4357  0.0294 -1.9882
31667SOL    HW298407  10.882   5.338   5.976  1.5193 -1.1948  0.7924
31668SOL     OW98408   6.905   7.063  10.228 -0.1357 -0.0549  0.2760
31668SOL    HW198409   6.841   7.041  10.295  0.8939 -1.2223  0.9054
31668SOL    HW298410   6.968   6.991  10.230 -0.1136 -0.1581 -2.0032
31669SOL     OW98411   8.035   4.501   3.582  0.3009 -0.2402 -0.2444
31669SOL    HW198412   8.040   4.559   3.506  0.6281 -0.7453 -0.6140
31669SOL    HW298413   8.067   4.555   3.655  1.4022 -0.2167 -0.7371
31670SOL     OW98414   9.842   1.981   3.740 -0.1138  0.0250  0.1157
31670SOL    HW198415   9.936   1.981   3.760 -0.3571  0.6311  1.3450
31670SOL    HW298416   9.836   2.019   3.653  0.9615 -2.1284 -0.9386
31671SOL     OW98417   0.315   2.931   2.877 -0.0654 -0.2611  0.6589
31671SOL    HW198418   0.332   2.842   2.909  2.1190 -0.1138 -0.0233
31671SOL    HW298419   0.268   2.919   2.794  1.9909 -0.8427 -0.4424
31672SOL     OW98420   6.161   3.985   5.524 -0.3804  0.0010 -0.1507
31672SOL    HW198421   6.155   4.025   5.610  0.0492 -1.7129  0.7022
31672SOL    HW298422   6.095   3.916   5.525 -0.7535  0.3234 -1.3958
31673SOL     OW98423   6.236   5.951   5.798 -0.2200  0.5708 -0.0268
31673SOL    HW198424   6.239   5.861   5.830  1.4651  0.3739 -0.6761
31673SOL    HW298425   6.310   5.994   5.841 -0.0445  1.2210 -0.9714
31674SOL     OW98426   7.506   6.069   2.004  0.5701 -0.2406 -0.2882
31674SOL    HW198427   7.448   6.033   2.072  0.5985  2.2553  1.1151
31674SOL    HW298428   7.448   6.124   1.950  1.5830  2.4095  1.2234
31675SOL     OW98429   8.392   8.301   3.449  0.1355 -0.0770 -0.4594
31675SOL    HW198430   8.312   8.248   3.456  0.0320 -0.3516 -3.2305
31675SOL    HW298431   8.449   8.267   3.518 -1.5007 -0.9918  0.4947
31676SOL     OW98432   9.278   2.398   1.629  0.4132 -0.3643  0.3919
31676SOL    HW198433   9.223   2.384   1.553 -0.7304  1.2892  0.9051
31676SOL    HW298434   9.356   2.441   1.595  1.5342 -2.8990 -0.3644
31677SOL     OW98435   7.519   9.538   2.229 -0.3319 -0.4265 -0.0007
31677SOL    HW198436   7.426   9.522   2.246 -0.3475 -0.8074 -0.4481
31677SOL    HW298437   7.543   9.472   2.165 -0.3325  1.1604 -1.6637
31678SOL     OW98438   4.184   1.548   7.281  0.2663 -0.0812  0.5788
31678SOL    HW198439   4.143   1.634   7.294  0.1133 -0.1785  0.7566
31678SOL    HW298440   4.113   1.493   7.248  0.9022  0.4273 -1.7063
31679SOL     OW98441   5.173   4.674   8.222 -0.1686 -0.1076  0.1765
31679SOL    HW198442   5.171   4.732   8.145 -1.9833 -1.3226 -0.7094
31679SOL    HW298443   5.108   4.710   8.282 -0.0017 -0.1828  0.4064
31680SOL     OW98444   1.483   1.607   9.591  0.2381 -0.9918  0.4652
31680SOL    HW198445   1.412   1.557   9.630  0.6082 -1.6787  0.2527
31680SOL    HW298446   1.562   1.557   9.611  0.6237 -0.4396  0.3497
31681SOL     OW98447   4.334   1.923   3.017  0.5685  0.0265 -0.0627
31681SOL    HW198448   4.393   1.928   3.092  2.5000  2.1891 -1.6781
31681SOL    HW298449   4.349   1.835   2.981  1.1766 -0.2360  0.8141
31682SOL     OW98450   4.941   4.373   6.158  0.5365 -0.0293  0.0778
31682SOL    HW198451   4.896   4.433   6.099 -1.2739  0.3777  1.8293
31682SOL    HW298452   4.898   4.288   6.145  3.0040 -1.0097 -2.2977
31683SOL     OW98453   0.575   7.460   3.642 -0.1418 -0.1039 -0.0762
31683SOL    HW198454   0.512   7.412   3.590  0.5177  0.4052 -1.3905
31683SOL    HW298455   0.648   7.400   3.653  0.1925  0.1702 -0.7274
31684SOL     OW98456   8.999   5.710   3.346 -0.5707  0.2131 -0.2701
31684SOL    HW198457   8.953   5.784   3.384 -1.6470 -0.3149 -0.5243
31684SOL    HW298458   8.939   5.636   3.356 -0.8996  0.0549 -2.9704
31685SOL     OW98459   2.998   6.141   8.191  0.0364  0.0703 -0.6679
31685SOL    HW198460   2.955   6.073   8.139  0.8052 -0.5754 -0.4740
31685SOL    HW298461   3.003   6.216   8.133  0.7147 -0.5848 -1.4719
31686SOL     OW98462   0.390   2.459   6.266 -0.0265 -0.2749  0.0382
31686SOL    HW198463   0.417   2.548   6.289 -0.5608 -0.2422  0.5419
31686SOL    HW298464   0.468   2.406   6.281  0.6837  0.3086 -1.5167
31687SOL     OW98465   9.088   6.286   3.417 -0.3330 -0.4313 -0.8072
31687SOL    HW198466   9.081   6.191   3.428  1.4497 -0.3450  1.3700
31687SOL    HW298467   9.151   6.297   3.345 -1.8875 -0.8838 -2.2697
31688SOL     OW98468   1.736   6.832  10.761  0.6773  0.3844  0.5430
31688SOL    HW198469   1.807   6.895  10.776 -0.1637  1.4851 -0.0721
31688SOL    HW298470   1.682   6.872  10.693  0.3590 -1.1892 -0.1582
31689SOL     OW98471   6.273   0.148   4.806  0.9999 -0.7108 -0.2962
31689SOL    HW198472   6.323   0.110   4.879  0.4319  1.0679  1.0449
31689SOL    HW298473   6.182   0.136   4.830  0.8099  0.2529 -0.5047
31690SOL     OW98474   9.698   2.361   7.033 -0.4640 -0.0198 -0.0610
31690SOL    HW198475   9.762   2.304   7.076 -1.6504 -1.5093 -0.2190
31690SOL    HW298476   9.635   2.384   7.102 -1.2937 -0.8394 -0.5252
31691SOL     OW98477   0.517   4.867   0.544 -0.2547  0.1639  0.1397
31691SOL    HW198478   0.514   4.824   0.629 -0.7627 -0.5414 -0.2295
31691SOL    HW298479   0.511   4.961   0.565  0.2182  0.0290  0.9054
31692SOL     OW98480   6.964   2.380   3.510 -0.4327 -0.4434  0.0536
31692SOL    HW198481   6.984   2.364   3.602  0.1763 -0.8491 -0.1449
31692SOL    HW298482   6.960   2.475   3.502  1.9476 -0.3227  0.0063
31693SOL     OW98483   6.457   0.600   6.399 -0.6060 -0.2939 -0.2607
31693SOL    HW198484   6.418   0.680   6.434 -0.6669 -0.6196  0.4316
31693SOL    HW298485   6.470   0.618   6.306  1.4294  1.3184  0.3173
31694SOL     OW98486   4.322   2.860   2.574 -0.2854  0.2500  0.2450
31694SOL    HW198487   4.295   2.936   2.626  0.5614  1.5976 -1.2348
31694SOL    HW298488   4.413   2.845   2.599  0.2020  1.0537 -0.9780
31695SOL     OW98489   5.352   3.279   9.843  0.4438  0.5441  0.0318
31695SOL    HW198490   5.409   3.306   9.914  2.6260  0.8385 -1.7835
31695SOL    HW298491   5.408   3.228   9.785 -1.5527 -0.6066 -0.9303
31696SOL     OW98492   4.626   8.169   4.675 -0.0499  0.0078 -0.1043
31696SOL    HW198493   4.614   8.241   4.737 -0.1984 -0.6425  0.6320
31696SOL    HW298494   4.543   8.165   4.627 -0.8509 -1.0341  1.3176
31697SOL     OW98495   9.623   7.084   7.974 -0.0821  0.3429 -0.4962
31697SOL    HW198496   9.595   7.176   7.968  1.8399  0.8145 -4.7161
31697SOL    HW298497   9.716   7.087   7.948 -0.0511 -2.7869 -0.8517
31698SOL     OW98498   2.751   3.207   3.331 -0.1090  0.1633 -0.1463
31698SOL    HW198499   2.767   3.113   3.332 -0.2678  0.1301  1.2887
31698SOL    HW298500   2.655   3.215   3.327 -0.0962  0.2657 -0.2495
31699SOL     OW98501  10.825   2.518   6.005 -0.2099  0.2696  0.3775
31699SOL    HW198502  10.860   2.430   6.015  0.8035  0.6271  0.0664
31699SOL    HW298503  10.830   2.556   6.092 -2.6382 -0.6742  0.9880
31700SOL     OW98504   4.787   2.138   5.157 -0.0554  0.3162  0.1512
31700SOL    HW198505   4.775   2.055   5.202  0.2225  0.0946 -0.1850
31700SOL    HW298506   4.735   2.201   5.208  0.8323  0.2183  1.1902
31701SOL     OW98507   8.261   3.271   5.969 -0.2088 -0.1527  0.1846
31701SOL    HW198508   8.258   3.252   6.062 -1.5231 -0.4487  0.0926
31701SOL    HW298509   8.170   3.263   5.939  0.3856 -1.4157 -1.3806
31702SOL     OW98510   2.604   3.277   6.497  0.4399 -0.2078  0.1130
31702SOL    HW198511   2.695   3.294   6.472  0.3003 -0.2820 -0.4595
31702SOL    HW298512   2.599   3.182   6.507  0.3113 -0.2525 -0.3353
31703SOL     OW98513   3.018   3.644  10.905 -0.7105  0.2430 -0.1123
31703SOL    HW198514   3.106   3.662  10.870  0.3867 -0.3310  2.2635
31703SOL    HW298515   3.005   3.710  10.972 -1.3386 -0.8132  0.8229
31704SOL     OW98516   3.078   5.967   0.793  0.0077  0.0013  0.0360
31704SOL    HW198517   3.052   5.999   0.879 -0.4222 -0.8146  0.2098
31704SOL    HW298518   2.996   5.959   0.744 -0.0712 -2.2577  0.4825
31705SOL     OW98519   5.479   5.633   3.161 -0.3031 -0.1310 -0.7075
31705SOL    HW198520   5.392   5.644   3.200 -0.2474 -2.2431  0.0443
31705SOL    HW298521   5.476   5.686   3.082 -1.2188  2.3305  0.8983
31706SOL     OW98522   4.763   0.386   4.744  0.3168 -0.2913  0.5433
31706SOL    HW198523   4.800   0.319   4.686  2.1605  0.1511  1.2006
31706SOL    HW298524   4.829   0.400   4.811 -0.5159  1.4240  1.0356
31707SOL     OW98525   7.205   8.289   3.060  0.0892 -0.2419 -0.0838
31707SOL    HW198526   7.121   8.316   3.024  1.2527  1.4888 -1.6189
31707SOL    HW298527   7.269   8.347   3.018  2.0340 -1.4229  1.1442
31708SOL     OW98528   8.870   6.841   6.592 -0.0349 -0.3970  0.2641
31708SOL    HW198529   8.928   6.916   6.610 -0.8771  0.5152 -0.8006
31708SOL    HW298530   8.907   6.800   6.514 -0.7935  0.1703 -0.4022
31709SOL     OW98531   8.226  10.722   4.700  0.5050 -0.1903 -0.4032
31709SOL    HW198532   8.250  10.654   4.763 -1.5833  0.2503  0.9518
31709SOL    HW298533   8.192  10.674   4.625  0.9328 -0.6920 -0.2789
31710SOL     OW98534   6.238   5.075   7.327  0.2175  0.8217  0.3238
31710SOL    HW198535   6.283   5.039   7.404 -0.6311 -1.4611 -0.2051
31710SOL    HW298536   6.145   5.072   7.350  0.1535  3.6487  0.6273
31711SOL     OW98537   2.763   7.570   0.229  0.5309  0.2430  0.3124
31711SOL    HW198538   2.725   7.564   0.142  2.3679 -1.3775 -0.4065
31711SOL    HW298539   2.699   7.526   0.286  0.3849 -0.6912 -0.5601
31712SOL     OW98540   5.790   7.247   4.192 -0.0211 -0.2462  0.0901
31712SOL    HW198541   5.787   7.238   4.097  2.2607 -1.8615  0.1362
31712SOL    HW298542   5.852   7.318   4.207  0.7751 -1.0040  0.4064
31713SOL     OW98543   0.725   5.997   8.406  0.7972 -0.5738 -0.4695
31713SOL    HW198544   0.760   6.084   8.423 -0.8309 -0.0184  0.1398
31713SOL    HW298545   0.750   5.945   8.482  0.7590 -0.3175 -0.2808
31714SOL     OW98546   7.675   3.127   8.136 -0.3482  0.3238  0.0664
31714SOL    HW198547   7.749   3.188   8.126 -1.0356  1.2251  0.3373
31714SOL    HW298548   7.709   3.056   8.190  0.0560  1.2043  0.9820
31715SOL     OW98549   3.404   7.240   7.050 -0.0845  0.3583  0.0246
31715SOL    HW198550   3.350   7.175   7.007 -0.9661  0.9125  0.2800
31715SOL    HW298551   3.389   7.227   7.144  0.4663  0.3114  0.1105
31716SOL     OW98552   6.131  10.863   5.469  0.7856  0.0665  0.2059
31716SOL    HW198553   6.132  10.774   5.434 -0.6087 -0.1917  0.7426
31716SOL    HW298554   6.199  10.863   5.536  1.9677 -0.0742 -0.9757
31717SOL     OW98555   9.337   9.319   9.490 -0.0365  0.0791  0.4460
31717SOL    HW198556   9.274   9.249   9.476 -0.6795  0.5044  1.1292
31717SOL    HW298557   9.377   9.299   9.575 -0.9872  1.0887  1.1548
31718SOL     OW98558   9.539   4.587   9.525 -0.5699  0.1758 -0.0837
31718SOL    HW198559   9.571   4.546   9.444 -0.1829 -0.4113  0.3586
31718SOL    HW298560   9.507   4.514   9.578  0.9455  0.3259  1.0917
31719SOL     OW98561   3.591   6.111   7.019 -0.2492  0.0798 -0.1824
31719SOL    HW198562   3.573   6.049   6.949 -1.4896  0.3511 -0.1064
31719SOL    HW298563   3.514   6.167   7.023  0.1562  0.5869  0.8520
31720SOL     OW98564   3.745   4.749   1.444  0.5324  0.6985 -0.1925
31720SOL    HW198565   3.740   4.785   1.355 -1.1231 -0.0067 -0.4092
31720SOL    HW298566   3.820   4.690   1.442 -1.0561 -1.3518 -1.9205
31721SOL     OW98567   3.434   6.307   7.323  0.2860 -0.0844  0.2773
31721SOL    HW198568   3.438   6.402   7.310 -0.0913 -0.2215 -0.9210
31721SOL    HW298569   3.444   6.295   7.417 -2.9816  1.3364  0.8808
31722SOL     OW98570  10.561   7.571   0.252  0.5750  0.6112  0.0163
31722SOL    HW198571  10.573   7.476   0.240  3.0227  0.1287  4.8023
31722SOL    HW298572  10.619   7.611   0.187  2.3429 -1.3229  0.3283
31723SOL     OW98573   0.324   0.005   2.153 -0.4706  0.5363 -0.0809
31723SOL    HW198574   0.273   0.083   2.133 -1.8353 -0.6530 -1.3650
31723SOL    HW298575   0.265  -0.068   2.133  0.7024 -0.8181  1.3079
31724SOL     OW98576   8.002   4.547   4.880  0.1198  0.6603 -0.6382
31724SOL    HW198577   8.008   4.458   4.913 -0.8890 -0.0871 -2.4003
31724SOL    HW298578   7.982   4.600   4.958  2.3253 -0.4012  0.6865
31725SOL     OW98579   5.770   9.164  10.137  0.4753  0.2709  0.4206
31725SOL    HW198580   5.725   9.091  10.179 -0.4880 -0.9596 -2.5766
31725SOL    HW298581   5.720   9.180  10.057  2.5626  2.0891 -0.5921
31726SOL     OW98582   0.651   9.109   2.019  0.1656  0.6875 -0.5077
31726SOL    HW198583   0.687   9.106   1.930  4.4487 -0.1489  1.1558
31726SOL    HW298584   0.683   9.192   2.055  1.7838 -0.7575  1.5128
31727SOL     OW98585   4.983   6.435  10.183  0.0550  1.0696 -0.0955
31727SOL    HW198586   5.073   6.420  10.212  0.3701  0.2787 -1.4507
31727SOL    HW298587   4.946   6.348  10.173 -0.6673  1.3784 -0.1516
31728SOL     OW98588   4.077  10.575   9.303  0.2418  0.5933 -0.3232
31728SOL    HW198589   4.053  10.586   9.211 -2.2183  1.8297  0.4187
31728SOL    HW298590   4.003  10.611   9.352  2.5761  2.2401  2.1611
31729SOL     OW98591   3.516   2.427   8.378  0.1775  0.0512  0.1974
31729SOL    HW198592   3.444   2.371   8.405  0.0148 -0.1538 -0.6666
31729SOL    HW298593   3.475   2.511   8.359  0.3125  0.2371  0.7190
31730SOL     OW98594   4.919   9.645  10.937 -0.1298  0.5136  0.3609
31730SOL    HW198595   4.841   9.633  10.991 -0.2790  0.8899  0.2310
31730SOL    HW298596   4.979   9.695  10.994  0.5945 -1.0540  0.9998
31731SOL     OW98597   8.558   2.567   3.500  0.1315 -0.3628 -0.0704
31731SOL    HW198598   8.630   2.606   3.550 -1.2136  0.8714  0.9408
31731SOL    HW298599   8.579   2.585   3.409  1.8012 -1.2203  0.1320
31732SOL     OW98600   4.041   3.647   0.363  0.1131 -0.2894  0.3772
31732SOL    HW198601   4.108   3.590   0.325  0.5722 -1.2618  2.5218
31732SOL    HW298602   4.064   3.735   0.335  1.3494 -0.8001 -0.2335
31733SOL     OW98603   9.417   8.645   0.285  0.0913  0.1290 -0.6546
31733SOL    HW198604   9.400   8.733   0.317  0.4875 -0.2492  0.6367
31733SOL    HW298605   9.399   8.649   0.191  0.9458  1.7912 -0.7548
31734SOL     OW98606   5.353   1.224   4.983  0.0828 -0.1459  0.1916
31734SOL    HW198607   5.274   1.183   5.019 -0.2656  2.1974  2.2116
31734SOL    HW298608   5.322   1.304   4.941  0.8825 -1.3747 -2.8873
31735SOL     OW98609  10.487   3.959   4.023 -0.2277 -0.7032 -0.4292
31735SOL    HW198610  10.474   3.876   4.069  0.8096 -0.0601  1.0684
31735SOL    HW298611  10.403   3.976   3.979 -0.6677 -2.1821 -0.1926
31736SOL     OW98612   2.092  10.141   9.867  0.7480 -0.2593 -0.0706
31736SOL    HW198613   2.127  10.230   9.857  3.6737 -1.0866  2.0051
31736SOL    HW298614   2.001  10.154   9.893  1.1188  2.1470  0.1989
31737SOL     OW98615   7.101   4.933   8.359  0.5940 -0.1497  0.1018
31737SOL    HW198616   7.130   4.980   8.281  1.3940 -0.7846  0.0202
31737SOL    HW298617   7.085   5.002   8.424  1.2730  0.2730 -0.1790
31738SOL     OW98618  10.452   0.683   1.044  0.6985  1.0702 -0.2466
31738SOL    HW198619  10.480   0.700   0.954  0.8793 -0.2967 -0.4686
31738SOL    HW298620  10.365   0.643   1.034  0.6424  1.0794  0.2022
31739SOL     OW98621   2.666   5.874   2.518 -0.3306  0.3226 -0.0352
31739SOL    HW198622   2.757   5.902   2.513 -0.1258 -0.6076 -1.8603
31739SOL    HW298623   2.641   5.857   2.427 -1.7709 -1.1907  0.6267
31740SOL     OW98624   6.747   7.021   1.189  0.6163 -0.1819  0.7099
31740SOL    HW198625   6.692   7.039   1.265  1.5163  0.7136  1.1434
31740SOL    HW298626   6.832   6.996   1.225  0.7041 -0.9145  0.0243
31741SOL     OW98627   4.052   5.175   7.732  0.0264  0.4563 -0.5197
31741SOL    HW198628   4.036   5.227   7.811  2.0117  0.0986  0.1371
31741SOL    HW298629   4.093   5.094   7.765 -1.2707 -0.7070 -1.7052
31742SOL     OW98630  10.736   2.455   2.429  0.0039  0.0159 -0.1113
31742SOL    HW198631  10.815   2.505   2.411  0.7039 -1.3178 -0.8713
31742SOL    HW298632  10.720   2.407   2.348 -1.0475 -0.4384  0.3611
31743SOL     OW98633   4.507   0.812   3.159 -0.1546 -0.7432  0.3653
31743SOL    HW198634   4.446   0.799   3.086 -1.1324  1.2594  0.8135
31743SOL    HW298635   4.594   0.804   3.119 -0.6766 -1.5828 -0.6427
31744SOL     OW98636  10.532   0.908   7.775 -0.0866 -0.0658 -0.1977
31744SOL    HW198637  10.469   0.954   7.719  1.0733  1.1097 -0.5470
31744SOL    HW298638  10.591   0.977   7.806 -1.0623 -0.5543  2.9872
31745SOL     OW98639   1.104   1.743   6.663  0.8039  0.1171 -0.1138
31745SOL    HW198640   1.032   1.802   6.685  1.2026  0.7974 -0.6263
31745SOL    HW298641   1.097   1.672   6.727 -0.7861 -0.2202 -0.6255
31746SOL     OW98642   2.828   3.445   9.596 -0.2597 -0.1411 -0.4476
31746SOL    HW198643   2.759   3.386   9.627  0.2651 -1.0500 -0.9881
31746SOL    HW298644   2.813   3.454   9.502  0.2548 -0.2090 -0.5402
31747SOL     OW98645   5.470   7.819   9.021  0.4328 -0.3934  0.5254
31747SOL    HW198646   5.545   7.762   9.003  0.6178 -0.3740  1.2205
31747SOL    HW298647   5.398   7.781   8.970  0.6765 -0.9625  0.6031
31748SOL     OW98648  10.619   3.243   9.775 -0.4029  0.2653 -0.0630
31748SOL    HW198649  10.632   3.174   9.709 -1.4625  0.3182 -0.3258
31748SOL    HW298650  10.687   3.307   9.755 -0.6174  0.2044 -1.0061
31749SOL     OW98651   1.964   7.855   8.378  0.5642  0.1539  0.7540
31749SOL    HW198652   2.018   7.791   8.333  1.1168  1.7592 -0.9566
31749SOL    HW298653   1.885   7.808   8.402  1.5434 -1.4977  0.7707
31750SOL     OW98654   1.216   1.903   5.405 -0.5117 -0.5010 -0.2123
31750SOL    HW198655   1.134   1.925   5.449  0.1108  0.0495  0.6727
31750SOL    HW298656   1.283   1.953   5.451  0.3076 -0.8222 -1.0349
31751SOL     OW98657   2.012   1.370   7.148  0.0112 -0.3907  0.3813
31751SOL    HW198658   2.014   1.347   7.055  0.7521  0.0697  0.2809
31751SOL    HW298659   2.000   1.465   7.149 -2.2658 -0.6329  0.7917
31752SOL     OW98660   6.130   0.955   3.461  0.1553  0.3158  0.1576
31752SOL    HW198661   6.210   0.991   3.500  0.3370  1.1557 -0.9910
31752SOL    HW298662   6.081   1.031   3.431 -1.1591 -0.1918  0.9848
31753SOL     OW98663   1.537   6.335  10.435 -0.1173 -0.1347 -1.0285
31753SOL    HW198664   1.631   6.324  10.418  0.1832 -1.0644  1.1230
31753SOL    HW298665   1.512   6.255  10.480 -0.9545  2.0031  2.4757
31754SOL     OW98666  10.327   9.529   0.155  0.1209 -0.3595 -0.3721
31754SOL    HW198667  10.391   9.479   0.205  0.1891 -0.3301 -0.4292
31754SOL    HW298668  10.249   9.531   0.211  0.2175 -0.2745 -0.2411
31755SOL     OW98669   3.159   8.732   1.154 -0.0094 -0.0307  0.4296
31755SOL    HW198670   3.222   8.668   1.120 -1.4302 -1.2686  0.0742
31755SOL    HW298671   3.126   8.693   1.234 -1.9955 -0.4693 -0.5720
31756SOL     OW98672   3.761   3.642   6.363  0.2696 -1.0059  0.0947
31756SOL    HW198673   3.739   3.674   6.276 -0.7321 -1.3416  0.2182
31756SOL    HW298674   3.709   3.563   6.374  0.3729 -0.9583  1.0065
31757SOL     OW98675   2.114   0.725   7.695  0.0085 -0.2884 -0.5013
31757SOL    HW198676   2.124   0.791   7.627 -0.4070 -0.8652 -1.1410
31757SOL    HW298677   2.093   0.645   7.646 -0.5254 -0.6532  0.3225
31758SOL     OW98678   3.154   5.636   1.443 -0.4790  0.3751  0.0992
31758SOL    HW198679   3.119   5.628   1.354  0.3357 -0.8002 -0.1243
31758SOL    HW298680   3.233   5.689   1.432 -1.2168  1.5715  0.3665
31759SOL     OW98681   2.095   1.496   7.648 -0.2472 -0.0186 -0.1518
31759SOL    HW198682   2.150   1.548   7.706  1.0083 -1.0032 -0.4211
31759SOL    HW298683   2.060   1.558   7.585 -0.6455  0.8622  0.9332
31760SOL     OW98684   0.687   1.951   0.784  0.7109  0.6399  0.1685
31760SOL    HW198685   0.613   1.928   0.728  1.1118  1.3844 -0.6806
31760SOL    HW298686   0.696   1.877   0.843 -1.3444  0.9748  0.9556
31761SOL     OW98687   1.967   3.040   9.511 -0.0308 -1.0495  0.1335
31761SOL    HW198688   2.003   3.128   9.503 -0.4336 -0.6904  2.0766
31761SOL    HW298689   2.028   2.985   9.462  0.7263  0.1719 -0.3271
31762SOL     OW98690   4.959   6.226   5.494  0.0967  0.0988  0.2516
31762SOL    HW198691   4.949   6.137   5.460 -1.1806  0.3735 -0.1436
31762SOL    HW298692   4.929   6.220   5.585  0.1560  0.0869  0.2703
31763SOL     OW98693   6.537   6.523   5.811  0.1047  0.2690 -0.5483
31763SOL    HW198694   6.537   6.554   5.902 -0.0597  1.2695 -0.8832
31763SOL    HW298695   6.629   6.510   5.790  0.1945  0.7964 -0.4911
31764SOL     OW98696   5.648   3.220   5.913 -0.2878  0.3507 -0.2199
31764SOL    HW198697   5.639   3.144   5.856  0.5909  0.0262  0.0705
31764SOL    HW298698   5.692   3.187   5.991 -1.0239  0.8994  0.4424
31765SOL     OW98699  10.355   5.765   3.772  0.0849  0.1298  0.0512
31765SOL    HW198700  10.413   5.778   3.848 -0.5628  0.9683  0.4114
31765SOL    HW298701  10.344   5.852   3.735 -2.1616  0.2440  0.8875
31766SOL     OW98702   6.231   2.396   4.511  0.4770  0.4161  0.1399
31766SOL    HW198703   6.221   2.481   4.469  0.4300  1.3573  2.0459
31766SOL    HW298704   6.323   2.373   4.498  0.3005  0.3597 -1.0945
31767SOL     OW98705   3.133   0.651   5.577 -0.2948  0.2589 -0.1219
31767SOL    HW198706   3.121   0.576   5.635  1.0415  0.6736  0.7213
31767SOL    HW298707   3.056   0.651   5.521 -0.9318 -0.9775  0.7369
31768SOL     OW98708   8.414   9.274   7.528  0.1773  0.1574  0.6166
31768SOL    HW198709   8.471   9.256   7.453 -0.4959 -1.6057  0.5077
31768SOL    HW298710   8.397   9.368   7.523 -0.1645 -0.0106 -1.6517
31769SOL     OW98711   5.818  10.299   8.825 -0.1313  0.4985  0.2393
31769SOL    HW198712   5.838  10.218   8.872 -0.0772  1.4139  1.8468
31769SOL    HW298713   5.898  10.318   8.776 -0.7027 -1.2411 -1.3890
31770SOL     OW98714   8.247   2.447   7.130  0.0591 -0.4059 -0.1439
31770SOL    HW198715   8.162   2.427   7.171  0.8799 -1.0444  1.2922
31770SOL    HW298716   8.226   2.459   7.037 -1.6829 -0.0297  0.2699
31771SOL     OW98717   2.962   5.547   8.224  1.1504  0.3911  0.0205
31771SOL    HW198718   3.034   5.610   8.220  1.5433  0.0556  1.4169
31771SOL    HW298719   2.949   5.532   8.318  1.5604 -2.1705 -0.3044
31772SOL     OW98720   0.673   5.515   9.096  0.0144 -0.2981 -0.6468
31772SOL    HW198721   0.635   5.548   9.015 -0.4690 -1.4941 -0.9165
31772SOL    HW298722   0.599   5.479   9.145  0.0619  1.7976  1.0207
31773SOL     OW98723   9.434  10.430   6.119 -0.2631  0.4445  0.7205
31773SOL    HW198724   9.357  10.483   6.139 -0.5750  0.6281 -0.8762
31773SOL    HW298725   9.411  10.384   6.038  2.3624  2.7662 -1.4679
31774SOL     OW98726   6.383   4.582  10.975 -0.1341 -0.3435  0.3748
31774SOL    HW198727   6.426   4.596  10.890 -0.4803 -0.3974  0.1911
31774SOL    HW298728   6.407   4.493  10.999 -1.0581 -0.7695 -0.2569
31775SOL     OW98729   7.224   9.480   6.333 -0.5090 -0.4402  0.1947
31775SOL    HW198730   7.268   9.445   6.410  0.6956 -0.0168 -0.2886
31775SOL    HW298731   7.283   9.460   6.260 -1.4280 -0.4555 -0.5595
31776SOL     OW98732   2.338   5.629   7.852  0.2725  0.0787 -0.3256
31776SOL    HW198733   2.317   5.642   7.760 -1.4598 -0.9308 -0.0941
31776SOL    HW298734   2.337   5.717   7.890 -1.1388  0.2874 -0.8369
31777SOL     OW98735   9.313   9.785   7.536  0.2985  0.3198  0.5091
31777SOL    HW198736   9.327   9.865   7.485  0.4640 -0.3692 -0.5218
31777SOL    HW298737   9.305   9.716   7.471  3.6787 -1.0725  1.4972
31778SOL     OW98738   3.669   7.492  10.190  0.1403 -0.7967 -0.2632
31778SOL    HW198739   3.636   7.412  10.232 -0.1732 -0.8124 -0.5392
31778SOL    HW298740   3.595   7.524  10.138  0.7603 -1.2081 -1.4245
31779SOL     OW98741   8.475   4.857   0.489 -0.4823  0.1814 -0.2461
31779SOL    HW198742   8.514   4.770   0.484 -2.3474 -0.5607 -2.4723
31779SOL    HW298743   8.393   4.844   0.537  0.0092  1.0128  0.8382
31780SOL     OW98744   2.835   2.875   1.796  0.2551  0.5303  0.8022
31780SOL    HW198745   2.764   2.930   1.762  1.1220  0.8790 -0.4800
31780SOL    HW298746   2.915   2.924   1.777  0.8251  0.2908  2.5488
31781SOL     OW98747   8.775   9.709   4.929  0.0002 -0.1222 -0.4434
31781SOL    HW198748   8.680   9.720   4.935 -0.3254 -2.1261 -1.3891
31781SOL    HW298749   8.811   9.796   4.950 -2.0200  0.6277  0.0334
31782SOL     OW98750   5.336   5.600   9.452  1.0944 -0.2651  0.5728
31782SOL    HW198751   5.393   5.562   9.519  0.3223 -0.5913  1.0471
31782SOL    HW298752   5.383   5.678   9.423  0.8906  0.5471  2.3327
31783SOL     OW98753   3.919   0.048  10.346 -0.2223  0.2886 -0.5015
31783SOL    HW198754   3.942  -0.043  10.364 -0.5205  0.3156  0.0133
31783SOL    HW298755   3.824   0.046  10.334 -0.2668  0.5907 -0.1743
31784SOL     OW98756   7.507   3.476   6.609 -0.4009 -0.1311 -0.3326
31784SOL    HW198757   7.497   3.559   6.655  0.0352  0.7805 -1.8389
31784SOL    HW298758   7.591   3.442   6.637 -1.1125 -0.6646  1.2063
31785SOL     OW98759   7.075   7.382   2.960 -0.4961  0.3949  0.0336
31785SOL    HW198760   7.017   7.376   2.884  1.5048 -1.5782 -1.3899
31785SOL    HW298761   7.032   7.330   3.027  0.0255 -1.7925 -1.2951
31786SOL     OW98762   8.160   9.088   5.758 -0.0295 -0.1429 -0.5712
31786SOL    HW198763   8.178   8.994   5.768 -2.2350 -0.7052 -1.5416
31786SOL    HW298764   8.163   9.103   5.663  1.2760  0.9940 -0.3672
31787SOL     OW98765   4.136   8.947   3.386 -0.9164  0.0614  0.0438
31787SOL    HW198766   4.144   8.975   3.477  1.2649  0.0174 -0.1256
31787SOL    HW298767   4.187   9.011   3.337 -0.9594 -0.7079 -1.0181
31788SOL     OW98768  10.291   3.192   5.700  0.0422 -0.5839  0.5601
31788SOL    HW198769  10.280   3.275   5.745 -0.6686  0.2739 -1.1740
31788SOL    HW298770  10.306   3.129   5.771  3.0575  1.3763  1.7799
31789SOL     OW98771   9.073  10.598   9.998  0.1556  0.3235  0.6909
31789SOL    HW198772   9.063  10.633   9.910  2.7667 -0.9349 -0.1816
31789SOL    HW298773   9.045  10.507   9.991 -1.0452  0.6159  1.5366
31790SOL     OW98774   6.496   8.996  10.347 -0.6120  0.2938  0.1872
31790SOL    HW198775   6.580   9.004  10.300 -0.7419 -0.1312 -0.1194
31790SOL    HW298776   6.496   9.070  10.407  0.2342 -0.0072  0.5767
31791SOL     OW98777   5.579   6.561  10.890  0.3651  0.1067 -0.2165
31791SOL    HW198778   5.596   6.467  10.887  0.7147  0.1920 -2.7143
31791SOL    HW298779   5.654   6.597  10.937  0.9910 -0.7358 -0.5482
31792SOL     OW98780   3.497   7.554   2.272 -0.3654 -0.2290  0.0010
31792SOL    HW198781   3.550   7.526   2.197  1.3376 -0.5223  1.2741
31792SOL    HW298782   3.503   7.649   2.271  1.2636 -0.2896  0.8361
31793SOL     OW98783   7.114   7.830   8.998  0.2780 -0.4704 -0.0906
31793SOL    HW198784   7.099   7.910   8.948  0.9582 -0.4750 -0.3013
31793SOL    HW298785   7.073   7.847   9.083 -0.2357 -0.1882 -0.3924
31794SOL     OW98786   7.512   5.500   6.406  0.3175 -0.4771  0.0601
31794SOL    HW198787   7.528   5.444   6.330  2.4576  0.3973 -0.1411
31794SOL    HW298788   7.431   5.464   6.444  0.5192 -2.4073 -1.2344
31795SOL     OW98789   9.618   4.395   6.063  0.1510 -0.0249 -0.3184
31795SOL    HW198790   9.529   4.426   6.049  0.7513  1.4430 -1.0334
31795SOL    HW298791   9.655   4.455   6.127 -0.8327 -3.4515  3.6445
31796SOL     OW98792   3.822   3.134   4.347 -0.1668 -0.2633 -0.1403
31796SOL    HW198793   3.848   3.049   4.310 -0.3142 -0.9607  1.3384
31796SOL    HW298794   3.727   3.126   4.359 -0.2176  0.2108 -0.2231
31797SOL     OW98795   6.790   1.927   8.795 -0.0573 -0.2465  0.2007
31797SOL    HW198796   6.816   2.000   8.852 -2.1787  0.3334  0.5075
31797SOL    HW298797   6.858   1.862   8.807  2.1557  1.8738 -0.4511
31798SOL     OW98798   9.196   2.346  10.951  0.4656  0.8657 -1.1400
31798SOL    HW198799   9.188   2.411  11.020  0.7988  0.5815 -0.8318
31798SOL    HW298800   9.112   2.350  10.904 -0.4507 -0.1710  0.3608
31799SOL     OW98801   9.415   6.903   3.213 -0.1400 -0.2010  0.0117
31799SOL    HW198802   9.364   6.830   3.178 -0.2746 -0.1442  0.0921
31799SOL    HW298803   9.426   6.883   3.306  2.4129 -1.6607 -0.5562
31800SOL     OW98804   0.532   1.884  10.859  0.4468 -0.2806 -0.0065
31800SOL    HW198805   0.613   1.895  10.810 -0.3848  0.7379 -1.1756
31800SOL    HW298806   0.463   1.912  10.799 -0.7127 -0.3780  1.2440
31801SOL     OW98807   6.461   0.127   1.143  0.6140  0.1447  0.1918
31801SOL    HW198808   6.406   0.118   1.221  0.5185 -0.3549  0.0670
31801SOL    HW298809   6.399   0.121   1.070  0.3128  3.2761  0.1083
31802SOL     OW98810   1.293   5.851   1.250 -0.0737 -0.3246 -0.0356
31802SOL    HW198811   1.233   5.851   1.324 -1.0134 -1.9797 -0.7667
31802SOL    HW298812   1.274   5.932   1.202 -1.0561 -0.3735  0.2730
31803SOL     OW98813   7.477   6.171   7.430 -0.3689  0.5013  0.6636
31803SOL    HW198814   7.569   6.191   7.451  0.7528 -2.7973 -0.6819
31803SOL    HW298815   7.448   6.117   7.504 -0.8600  0.5772  0.5226
31804SOL     OW98816  10.889  10.674   1.586  0.4246 -0.4825 -0.0670
31804SOL    HW198817  10.962  10.654   1.527 -1.4077  0.9723 -2.9362
31804SOL    HW298818  10.833  10.596   1.581  0.5061 -0.5556  0.1494
31805SOL     OW98819   9.593   0.341   5.242 -0.2720  0.1843  0.4393
31805SOL    HW198820   9.571   0.396   5.167 -1.3361  0.9959  1.3324
31805SOL    HW298821   9.665   0.286   5.211 -2.3225 -1.2515 -1.9964
31806SOL     OW98822   7.335  10.772   3.281  0.4683  0.2434 -0.0401
31806SOL    HW198823   7.354  10.862   3.307  0.8213 -0.2987  1.6501
31806SOL    HW298824   7.374  10.719   3.350  1.1583 -1.2541 -1.5397
31807SOL     OW98825  10.943   5.072   1.689 -0.2745  0.0166 -0.2015
31807SOL    HW198826  10.941   4.999   1.750  2.1915  0.3614  0.3444
31807SOL    HW298827  10.975   5.146   1.741 -1.9243  1.2949 -0.9549
31808SOL     OW98828   6.253   0.057   9.419 -0.4301  0.1894  0.3711
31808SOL    HW198829   6.245   0.149   9.396  1.1021  0.2836  0.1696
31808SOL    HW298830   6.341   0.033   9.391 -1.6090 -1.9380 -1.6899
31809SOL     OW98831   0.160   5.104   6.069 -0.4261  0.1603 -0.3011
31809SOL    HW198832   0.117   5.174   6.117  0.2092 -0.1152  0.6833
31809SOL    HW298833   0.206   5.149   5.997  1.7250  1.0219  1.5484
31810SOL     OW98834   8.846   3.123   6.991 -0.0310 -0.1779 -0.2551
31810SOL    HW198835   8.895   3.059   6.940  4.1533  1.0332  2.0302
31810SOL    HW298836   8.833   3.082   7.076  1.0751  1.2685  0.6305
31811SOL     OW98837   9.144   8.910   1.677  0.6134 -0.3184 -0.1257
31811SOL    HW198838   9.083   8.895   1.605  1.1093 -2.2530 -0.1911
31811SOL    HW298839   9.212   8.965   1.640  0.2677 -0.3425 -0.8145
31812SOL     OW98840   0.884   8.820   0.867 -0.4222  0.1901  1.0085
31812SOL    HW198841   0.915   8.730   0.879 -1.3855 -0.4256 -0.9309
31812SOL    HW298842   0.958   8.866   0.829  0.2706  0.3874  2.5514
31813SOL     OW98843   7.101   7.336   1.902  0.4848 -0.2277  0.0263
31813SOL    HW198844   7.028   7.334   1.963  1.2935  1.2436  1.0869
31813SOL    HW298845   7.061   7.321   1.816 -0.7550 -1.5919  0.8287
31814SOL     OW98846   1.973   1.461   0.777 -0.6139  0.8317 -0.1361
31814SOL    HW198847   1.955   1.472   0.871 -0.8310 -0.8234  0.0244
31814SOL    HW298848   2.068   1.450   0.772 -0.8838 -1.9358  0.2039
31815SOL     OW98849   0.058   7.512   6.546  0.1363 -0.0611  0.0239
31815SOL    HW198850  -0.005   7.568   6.591 -1.4396 -0.7925 -1.2451
31815SOL    HW298851   0.005   7.443   6.505  1.1648  1.9687 -5.1315
31816SOL     OW98852   5.760   6.338   3.442 -0.1031  0.8744 -0.0981
31816SOL    HW198853   5.742   6.387   3.523  0.3464  1.1201 -0.1471
31816SOL    HW298854   5.796   6.255   3.472  1.5423  1.5661 -0.0718
31817SOL     OW98855   0.103   3.331   0.890 -0.4965 -0.4342  0.5762
31817SOL    HW198856   0.086   3.280   0.969 -0.2718  0.0988  0.9675
31817SOL    HW298857   0.162   3.401   0.918 -1.1100  0.2734  0.1238
31818SOL     OW98858   7.530   3.668   2.587  0.7637  0.5120 -0.0829
31818SOL    HW198859   7.468   3.601   2.616  1.0337 -0.0950 -0.8912
31818SOL    HW298860   7.611   3.649   2.633  1.3489 -0.7736 -1.6175
31819SOL     OW98861   8.089   4.410   4.364  0.5131  0.3115  0.2130
31819SOL    HW198862   8.102   4.338   4.426  2.3843  0.4797  0.0484
31819SOL    HW298863   8.096   4.368   4.278 -0.5414  0.3388  0.1085
31820SOL     OW98864   1.609   3.891  10.412 -0.3954 -0.0047  0.3389
31820SOL    HW198865   1.517   3.897  10.384  0.2837  0.4151 -1.9225
31820SOL    HW298866   1.637   3.982  10.422 -0.5362 -0.1485  2.1571
31821SOL     OW98867   2.601   9.477   2.354 -0.0545 -0.6742 -0.2157
31821SOL    HW198868   2.627   9.540   2.422  0.0205 -0.4720 -0.4290
31821SOL    HW298869   2.598   9.530   2.274  2.9007 -1.5076 -0.9617
31822SOL     OW98870   5.882   6.639  10.643 -0.4560 -0.4131  0.0969
31822SOL    HW198871   5.844   6.616  10.728  0.4763  1.4651  1.0756
31822SOL    HW298872   5.975   6.620  10.652 -0.6335 -1.9400 -1.1596
31823SOL     OW98873   2.649   7.483   4.233 -0.3502 -0.1347 -0.4527
31823SOL    HW198874   2.586   7.539   4.188  0.4058  0.3584 -0.9163
31823SOL    HW298875   2.710   7.455   4.164  0.8466  0.6601  0.2601
31824SOL     OW98876   1.914   3.222   0.137 -0.0125 -0.2089 -0.0704
31824SOL    HW198877   1.883   3.139   0.100 -0.8890  1.7150 -3.8257
31824SOL    HW298878   1.836   3.264   0.172 -0.2107  0.7165 -1.6068
31825SOL     OW98879   4.517   1.049  10.344 -0.2832 -0.0641  0.0565
31825SOL    HW198880   4.589   1.011  10.295 -1.6773 -0.9031 -1.4051
31825SOL    HW298881   4.471   0.974  10.382 -0.1485  0.4820  1.3253
31826SOL     OW98882   1.323   1.495   6.407  0.3218 -0.1689 -0.5135
31826SOL    HW198883   1.298   1.416   6.455 -0.8408  0.6178  0.2163
31826SOL    HW298884   1.355   1.463   6.323 -0.7421 -1.3837 -0.4763
31827SOL     OW98885   6.085   4.044   0.698 -0.1730 -0.5451 -0.0611
31827SOL    HW198886   6.153   4.108   0.716 -0.9054 -0.1472  1.3529
31827SOL    HW298887   6.022   4.091   0.643  0.2357 -0.6526 -0.6350
31828SOL     OW98888   0.990   8.419   3.029 -1.0436  0.1211  0.3347
31828SOL    HW198889   0.966   8.340   3.078 -0.3937  0.5352  1.3522
31828SOL    HW298890   1.082   8.433   3.051 -0.4857 -0.1741 -1.7270
31829SOL     OW98891   2.318   5.500   8.777 -1.1439 -0.2731 -0.1361
31829SOL    HW198892   2.272   5.425   8.739 -2.5278  0.6006 -0.2093
31829SOL    HW298893   2.403   5.499   8.734 -1.2189 -1.6697 -0.3041
31830SOL     OW98894   6.521   1.822   4.265 -0.8337  0.2459 -0.2175
31830SOL    HW198895   6.541   1.734   4.295 -1.0578  0.5622  0.8694
31830SOL    HW298896   6.505   1.812   4.171  0.9958 -0.5562 -0.4567
31831SOL     OW98897   4.681   4.445   7.200  0.5844 -0.0898  0.1934
31831SOL    HW198898   4.649   4.377   7.141  0.4811  0.9555 -0.9795
31831SOL    HW298899   4.707   4.516   7.142  0.4399  0.9774  1.4251
31832SOL     OW98900  10.295   7.920   0.889 -0.1339 -0.0651  0.3735
31832SOL    HW198901  10.204   7.931   0.864  0.0408 -0.0502 -0.2625
31832SOL    HW298902  10.304   7.970   0.971  0.0209  2.4790 -1.1459
31833SOL     OW98903   8.173   0.574   3.831  0.2238 -0.0649  0.0450
31833SOL    HW198904   8.240   0.634   3.798  0.5992 -0.0623  0.8139
31833SOL    HW298905   8.124   0.549   3.753 -0.2835  1.6764 -0.2299
31834SOL     OW98906   2.545   8.050   8.214 -0.1875 -0.2337  0.5502
31834SOL    HW198907   2.572   8.132   8.173  1.1011  0.9347  3.5844
31834SOL    HW298908   2.627   8.004   8.231 -0.9084 -2.3709 -1.4011
31835SOL     OW98909   8.466   9.680  10.043  0.2514 -0.0595 -0.6146
31835SOL    HW198910   8.399   9.704  10.107  2.7524  0.1945  2.0458
31835SOL    HW298911   8.456   9.585  10.032  0.1801 -0.2042  0.6389
31836SOL     OW98912  10.826   6.520   4.673 -0.0030  0.2875 -0.3357
31836SOL    HW198913  10.731   6.511   4.660  0.0591 -1.6958  0.5096
31836SOL    HW298914  10.859   6.544   4.586 -1.1071 -0.4480 -0.9823
31837SOL     OW98915   9.723   1.054   3.050  0.4449  0.6797 -0.4386
31837SOL    HW198916   9.652   1.000   3.015 -0.0869  0.2071  1.3033
31837SOL    HW298917   9.771   1.084   2.973  1.0914 -2.7485 -1.4657
31838SOL     OW98918   4.108   0.744   9.934 -0.1789 -0.0151 -0.2633
31838SOL    HW198919   4.195   0.757   9.897 -0.2907  0.2127 -0.4445
31838SOL    HW298920   4.090   0.825   9.982 -0.9642  0.6184 -1.5808
31839SOL     OW98921   5.916   4.548   7.114  0.2831 -0.4830 -0.2824
31839SOL    HW198922   5.864   4.619   7.153  0.4653 -1.0662  1.0707
31839SOL    HW298923   5.872   4.468   7.142 -0.0177 -0.9167 -1.9367
31840SOL     OW98924   6.821   0.691   7.108  0.2539  0.3801  0.5040
31840SOL    HW198925   6.883   0.704   7.036  0.3165  3.2993  1.0621
31840SOL    HW298926   6.868   0.633   7.168 -0.6649 -4.0554 -2.7754
31841SOL     OW98927   5.125   8.065   5.930 -0.2740 -0.2204  0.4263
31841SOL    HW198928   5.136   8.077   5.836  0.4593 -0.9720  0.4054
31841SOL    HW298929   5.214   8.069   5.965 -0.7504  2.4657  1.4000
31842SOL     OW98930   5.896   2.292   4.693  0.4761 -0.1243 -0.5735
31842SOL    HW198931   5.862   2.217   4.741  1.2510  0.1340  0.4019
31842SOL    HW298932   5.938   2.346   4.760 -1.2758  1.8721 -1.0498
31843SOL     OW98933   0.696   9.970   7.864  0.3928 -0.2598  0.0956
31843SOL    HW198934   0.753   9.985   7.788  0.0221  1.5664  0.1425
31843SOL    HW298935   0.676  10.058   7.895 -2.1515 -0.8866  0.3226
31844SOL     OW98936   3.168   5.316   0.184  0.3747  0.5429  0.4644
31844SOL    HW198937   3.127   5.326   0.098  0.1832 -0.2195  0.4623
31844SOL    HW298938   3.253   5.276   0.165  0.5243  0.8049  0.5880
31845SOL     OW98939   4.204   5.889   3.891  0.2546 -0.2136 -0.3090
31845SOL    HW198940   4.170   5.976   3.911 -1.0228 -1.2054  2.0986
31845SOL    HW298941   4.171   5.869   3.803 -0.9619  0.9871 -0.1286
31846SOL     OW98942   4.806   5.724   5.923 -0.4755  0.1084  0.2808
31846SOL    HW198943   4.872   5.780   5.964  0.2730 -1.0590  0.6981
31846SOL    HW298944   4.857   5.660   5.873 -1.3514  0.6820 -1.3974
31847SOL     OW98945   3.140  10.905   1.234 -0.4197  0.0231  0.0007
31847SOL    HW198946   3.206  10.858   1.284 -0.0124 -0.0475 -0.6069
31847SOL    HW298947   3.141  10.994   1.271  0.4437  0.1896 -0.4198
31848SOL     OW98948   5.945   8.872   7.380  0.0296 -0.3936 -0.2205
31848SOL    HW198949   5.961   8.807   7.313 -0.2422 -1.6479  0.9084
31848SOL    HW298950   6.029   8.916   7.392  0.6425 -1.6472  0.1579
31849SOL     OW98951   1.770   0.655   9.448 -0.2026  0.6543  0.1313
31849SOL    HW198952   1.799   0.566   9.427 -0.8331 -0.3924  3.3765
31849SOL    HW298953   1.819   0.678   9.527 -2.3709  1.9358  1.1525
31850SOL     OW98954   6.824   7.829   9.182  0.0518 -0.3561 -0.1412
31850SOL    HW198955   6.740   7.794   9.153  0.2339 -1.4988  0.6976
31850SOL    HW298956   6.806   7.922   9.199 -1.3658 -0.8508  1.2511
31851SOL     OW98957   4.797   3.969   2.324 -0.7194  0.1325  0.2931
31851SOL    HW198958   4.771   3.881   2.297 -0.3937 -0.6133  2.3522
31851SOL    HW298959   4.718   4.022   2.310 -0.9281 -0.4910 -0.9211
31852SOL     OW98960   9.126   3.449   3.334 -0.2922 -0.3596  0.1194
31852SOL    HW198961   9.078   3.397   3.269 -0.4656 -0.0818  0.0253
31852SOL    HW298962   9.177   3.511   3.282 -0.9520  0.3135  0.2738
31853SOL     OW98963   2.797   5.004   0.709 -0.2453  0.1861  0.0264
31853SOL    HW198964   2.752   5.023   0.627 -0.8915 -1.4482 -0.0124
31853SOL    HW298965   2.862   4.937   0.687  0.4129  0.6076  0.6197
31854SOL     OW98966   1.282   4.994   9.386  0.3099 -0.4597  0.0484
31854SOL    HW198967   1.242   4.915   9.351 -3.2532  0.7707  1.0208
31854SOL    HW298968   1.291   4.977   9.480 -1.5893  0.6090  0.4751
31855SOL     OW98969   0.889  10.760   5.596 -0.3186  0.4549  0.5106
31855SOL    HW198970   0.802  10.755   5.557  0.6215 -0.8619 -1.5576
31855SOL    HW298971   0.906  10.671   5.628  0.8795  0.2884 -0.5525
31856SOL     OW98972   8.191   1.402   3.109 -0.1328 -0.0250 -0.0661
31856SOL    HW198973   8.151   1.335   3.054 -0.0443  1.2509 -1.7152
31856SOL    HW298974   8.203   1.477   3.051  2.5944  0.3799  0.9422
31857SOL     OW98975   0.747   2.725   3.691  0.9695  0.4291 -0.1224
31857SOL    HW198976   0.721   2.691   3.777  0.6305  0.5081 -0.1924
31857SOL    HW298977   0.822   2.782   3.709  1.3348 -0.1057  0.0334
31858SOL     OW98978   8.063   6.842   0.321  0.2984  0.2649  0.4304
31858SOL    HW198979   7.981   6.803   0.291  0.6364 -1.6514  1.8538
31858SOL    HW298980   8.037   6.918   0.373 -0.5144  0.2225  0.0867
31859SOL     OW98981   4.215   2.053   7.670 -0.1253 -0.3050  0.1494
31859SOL    HW198982   4.301   2.066   7.710  0.3635  0.3798 -1.1017
31859SOL    HW298983   4.159   2.023   7.742  0.9611  0.0133  1.1375
31860SOL     OW98984   4.736   7.176   3.823 -0.5305  0.0048  0.2950
31860SOL    HW198985   4.820   7.183   3.778 -0.7028 -0.5766 -0.1178
31860SOL    HW298986   4.671   7.169   3.753 -1.0348  1.4879  0.5844
31861SOL     OW98987  10.621   4.313   3.421  1.0598 -0.6019 -0.5484
31861SOL    HW198988  10.638   4.387   3.363  0.3976 -0.3194 -0.3919
31861SOL    HW298989  10.660   4.338   3.505  0.8273 -0.4268 -0.4929
31862SOL     OW98990  10.225   3.309   0.840 -0.4697  0.3422 -0.2790
31862SOL    HW198991  10.149   3.260   0.872 -0.5885  0.6179 -0.1449
31862SOL    HW298992  10.293   3.292   0.906 -0.3172 -0.1502 -0.5523
31863SOL     OW98993   4.749   8.761   1.650 -0.3669 -0.0726 -0.1919
31863SOL    HW198994   4.805   8.823   1.696 -0.6425 -0.8837  1.2682
31863SOL    HW298995   4.766   8.676   1.692 -0.3393 -0.9109 -1.8434
31864SOL     OW98996   3.132   4.109   2.599 -0.1009  0.1005 -0.1443
31864SOL    HW198997   3.145   4.170   2.671  1.2978  0.6948 -0.8853
31864SOL    HW298998   3.114   4.025   2.641 -0.9279  0.7856  0.8822
31865SOL     OW98999   4.862   4.969   9.709  0.3080 -0.3937 -0.8058
31865SOL    HW199000   4.922   5.023   9.657  0.9193 -0.9123 -0.6510
31865SOL    HW299001   4.807   4.925   9.645 -1.4525  1.8393 -0.8766
31866SOL     OW99002   2.236   1.846   9.415 -0.3586 -0.0502 -0.1828
31866SOL    HW199003   2.232   1.805   9.501  1.5200  0.3062  0.0947
31866SOL    HW299004   2.268   1.776   9.357  3.7301  1.1329  0.4511
31867SOL     OW99005   0.621   0.416   7.127 -1.1080 -0.1490  0.1844
31867SOL    HW199006   0.639   0.495   7.178 -0.6635  0.3673 -0.7603
31867SOL    HW299007   0.532   0.392   7.151 -0.8431 -0.0060  1.3305
31868SOL     OW99008   2.711   0.095   5.484  0.2337 -0.4304 -0.3427
31868SOL    HW199009   2.804   0.100   5.503  0.1398  1.2546 -0.2627
31868SOL    HW299010   2.707   0.065   5.393  0.8144 -1.8644  0.0956
31869SOL     OW99011   6.882   5.678   7.220 -0.2033 -0.1920  0.3137
31869SOL    HW199012   6.845   5.735   7.152  0.2754 -0.3975 -0.1187
31869SOL    HW299013   6.922   5.606   7.172  1.5437  0.4714  0.7138
31870SOL     OW99014   4.021   8.113   8.884  0.1189  0.3886 -0.0429
31870SOL    HW199015   3.966   8.117   8.806  0.9926 -0.3551 -0.7114
31870SOL    HW299016   4.000   8.193   8.932 -1.8249 -0.0900 -0.0768
31871SOL     OW99017   5.529   1.997   7.056  0.5262 -0.6886  0.4781
31871SOL    HW199018   5.496   2.083   7.031 -1.3637 -1.3268  0.7550
31871SOL    HW299019   5.578   1.968   6.979 -2.4056 -1.1843 -1.2677
31872SOL     OW99020   2.602   0.571   7.879 -0.0816  0.5835 -0.3093
31872SOL    HW199021   2.681   0.624   7.877  0.1223  0.3254  0.6786
31872SOL    HW299022   2.530   0.633   7.865  0.1595  1.1052  0.7590
31873SOL     OW99023   8.718   7.137   7.168 -0.8597 -0.5332  0.1415
31873SOL    HW199024   8.805   7.099   7.181 -0.6062  0.0064  0.0643
31873SOL    HW299025   8.716   7.212   7.228 -0.5523  0.5913 -1.2254
31874SOL     OW99026   3.442   6.739   2.938  0.3459  0.0610 -0.2002
31874SOL    HW199027   3.358   6.703   2.968 -0.8676  1.9439 -1.2248
31874SOL    HW299028   3.444   6.828   2.972  1.9390  0.0512 -0.2211
31875SOL     OW99029   8.324   6.573   5.625  0.1745 -0.1963  0.3514
31875SOL    HW199030   8.235   6.558   5.592  0.4409  0.5945 -0.7457
31875SOL    HW299031   8.376   6.503   5.585  0.2027 -0.1799  0.3592
31876SOL     OW99032   0.037   2.058   6.471  0.0785  0.2166  0.5807
31876SOL    HW199033   0.011   1.993   6.406  1.7447 -0.5864  0.6814
31876SOL    HW299034   0.125   2.084   6.445  0.5569  0.2807  2.1973
31877SOL     OW99035   6.386   1.694   1.911 -0.1348  0.1832  0.0218
31877SOL    HW199036   6.324   1.709   1.840  0.8002  0.9816 -0.6180
31877SOL    HW299037   6.393   1.598   1.916  0.1634  0.1364 -1.2607
31878SOL     OW99038   1.150   9.866   3.879 -0.1675 -1.0691  0.3994
31878SOL    HW199039   1.084   9.798   3.893 -2.3340  0.9121  0.1961
31878SOL    HW299040   1.112   9.945   3.919  0.9190  0.7115 -1.9401
31879SOL     OW99041   3.369   5.690   1.728 -0.3149 -0.5745 -0.1329
31879SOL    HW199042   3.363   5.675   1.822 -0.0480  2.7540  0.4920
31879SOL    HW299043   3.279   5.682   1.696 -0.7449  0.4747  0.7907
31880SOL     OW99044   2.219   7.636   6.888 -0.1335  0.1482 -0.5691
31880SOL    HW199045   2.314   7.638   6.902 -0.1842  2.7429 -0.4044
31880SOL    HW299046   2.207   7.571   6.819  1.6363 -1.0056  0.1446
31881SOL     OW99047   7.549   6.639   6.736 -0.7274  0.6994 -0.0678
31881SOL    HW199048   7.475   6.680   6.692 -1.0717 -0.3185 -0.4528
31881SOL    HW299049   7.524   6.637   6.829 -0.2524  2.3071  0.1131
31882SOL     OW99050   7.149   5.933   6.395 -0.8251 -0.0769 -0.5675
31882SOL    HW199051   7.136   5.840   6.417  0.4850 -0.5749 -1.7896
31882SOL    HW299052   7.061   5.970   6.394 -1.2885 -1.1194  0.7498
31883SOL     OW99053   2.410   7.986   0.904  0.5202  0.1146 -0.5512
31883SOL    HW199054   2.439   7.896   0.914 -0.4393 -0.0222  1.2253
31883SOL    HW299055   2.353   7.985   0.827  1.8091 -0.4436 -1.5176
31884SOL     OW99056   0.482   9.285   7.696 -0.2849  0.0962 -0.4434
31884SOL    HW199057   0.454   9.375   7.679 -0.5644  0.0042 -0.4780
31884SOL    HW299058   0.573   9.292   7.723 -0.2598  0.3755 -0.6032
31885SOL     OW99059   1.413   7.650   3.779 -0.2238 -0.1638  0.4669
31885SOL    HW199060   1.411   7.683   3.689  1.0251  2.7311  1.4345
31885SOL    HW299061   1.333   7.683   3.819 -0.4546 -0.8931  0.6152
31886SOL     OW99062   4.386   1.494   6.859  0.0028 -0.3330  0.0712
31886SOL    HW199063   4.327   1.524   6.790  2.5340  3.0276 -0.7673
31886SOL    HW299064   4.461   1.458   6.811  0.6571 -0.3342  1.0907
31887SOL     OW99065   0.009   0.981   9.644  0.2430 -0.3322 -0.7541
31887SOL    HW199066   0.096   0.954   9.613  0.4526 -0.2037 -0.2794
31887SOL    HW299067  -0.037   1.008   9.564  0.7543 -0.0839 -0.9698
31888SOL     OW99068   5.729   4.885   4.502  0.1371  0.2795  0.1048
31888SOL    HW199069   5.770   4.939   4.434  1.1376  0.2842  0.7159
31888SOL    HW299070   5.683   4.816   4.452  0.4483  0.5704 -0.5940
31889SOL     OW99071   8.621   7.889   7.509  0.0044  0.3712 -0.1147
31889SOL    HW199072   8.544   7.919   7.460 -0.4996 -1.6752 -0.6067
31889SOL    HW299073   8.586   7.832   7.577  0.8278  2.0698  1.8012
31890SOL     OW99074   6.486   4.314   3.599  0.2557 -0.1406  0.4077
31890SOL    HW199075   6.580   4.305   3.585 -0.0299 -2.0720 -0.4073
31890SOL    HW299076   6.459   4.230   3.637 -1.5598 -0.6062 -1.7833
31891SOL     OW99077   2.471   8.377   6.419  0.0505  0.0113  0.0365
31891SOL    HW199078   2.566   8.379   6.407  0.2565 -1.4680  1.1974
31891SOL    HW299079   2.435   8.390   6.331  1.3322 -0.7172 -0.6076
31892SOL     OW99080   8.869   8.355   3.207  0.1930 -0.0582 -0.6280
31892SOL    HW199081   8.936   8.416   3.177  0.3878  0.4240  0.7599
31892SOL    HW299082   8.793   8.410   3.227 -0.3667 -0.5164 -1.4722
31893SOL     OW99083   8.962   3.367   0.538  0.0737  0.1205  0.6348
31893SOL    HW199084   8.881   3.354   0.588  0.6577  0.1650  1.6108
31893SOL    HW299085   9.031   3.369   0.604  1.0065 -1.0408 -0.2655
31894SOL     OW99086   2.350   7.231   9.227 -0.2147 -0.1722  0.3247
31894SOL    HW199087   2.441   7.258   9.234 -1.0946  2.6590  1.4095
31894SOL    HW299088   2.354   7.138   9.203  2.9250  0.3142 -1.2350
31895SOL     OW99089   9.295   8.377   9.917 -0.2546 -0.1949 -0.1609
31895SOL    HW199090   9.326   8.427   9.992  2.0994 -0.7023 -0.7668
31895SOL    HW299091   9.350   8.298   9.916 -3.8292 -2.8480  0.7667
31896SOL     OW99092  10.243   7.080   6.440 -0.2026 -0.3585  0.0781
31896SOL    HW199093  10.182   7.007   6.442  0.2575 -0.8063 -1.5770
31896SOL    HW299094  10.288   7.072   6.356  2.2709 -0.1431  1.3285
31897SOL     OW99095   3.580   0.803   0.222 -0.2745 -0.4956 -0.2951
31897SOL    HW199096   3.586   0.775   0.313  0.1767 -0.2251 -0.2376
31897SOL    HW299097   3.663   0.847   0.205  0.1586 -1.6054 -1.1888
31898SOL     OW99098   1.364   2.045   9.209  0.6337 -0.2001  0.0487
31898SOL    HW199099   1.338   2.002   9.128  1.5750  0.0048 -0.3640
31898SOL    HW299100   1.282   2.069   9.251  0.1447 -0.4117 -0.7840
31899SOL     OW99101   5.034   1.154   1.322 -0.2019 -0.4829 -0.0861
31899SOL    HW199102   5.089   1.095   1.375  2.0332  1.4543 -0.1603
31899SOL    HW299103   5.077   1.155   1.236 -0.6598  0.6640 -0.3025
31900SOL     OW99104   4.354   4.074   0.221 -0.5515 -0.0882  0.0427
31900SOL    HW199105   4.274   4.063   0.273 -1.7179  2.1851 -1.2348
31900SOL    HW299106   4.415   4.119   0.280 -0.0392 -2.1694  1.1468
31901SOL     OW99107   1.616   6.727   4.746  0.3180 -0.5341  1.0007
31901SOL    HW199108   1.541   6.676   4.776 -1.5175  1.4189 -0.0959
31901SOL    HW299109   1.679   6.662   4.717 -1.9405 -2.2406 -0.2972
31902SOL     OW99110   0.533   3.831   1.345 -0.8006  0.1419 -0.2602
31902SOL    HW199111   0.578   3.780   1.278 -0.4141 -2.5079  1.9221
31902SOL    HW299112   0.604   3.867   1.399 -1.1394  0.8096 -0.2595
31903SOL     OW99113   3.301   6.013   9.028  0.1466  0.4376 -0.2470
31903SOL    HW199114   3.376   6.071   9.040 -1.2061  1.7953  2.1845
31903SOL    HW299115   3.226   6.063   9.060 -1.0678 -2.6372  2.0676
31904SOL     OW99116   5.011   3.407   6.461 -0.8572 -0.2607 -0.1714
31904SOL    HW199117   4.996   3.483   6.517  0.1966  0.3394 -0.6967
31904SOL    HW299118   4.967   3.429   6.379 -0.7093 -0.3035 -0.2617
31905SOL     OW99119   1.317   4.327   7.918  0.4667  0.0785  0.2213
31905SOL    HW199120   1.339   4.315   7.826 -0.5028  0.9725 -0.1359
31905SOL    HW299121   1.235   4.377   7.917 -1.3441 -2.6792  1.5131
31906SOL     OW99122   5.159   7.221   7.044  0.0337  0.0295  0.2765
31906SOL    HW199123   5.125   7.281   6.978  0.9320 -0.4948 -0.6743
31906SOL    HW299124   5.089   7.156   7.054 -0.3267  0.4052  0.2448
31907SOL     OW99125   2.606   1.705   9.647  0.5044 -0.1509 -0.8562
31907SOL    HW199126   2.658   1.776   9.611  1.6703 -0.8705 -0.6133
31907SOL    HW299127   2.580   1.736   9.734 -1.1724  1.0233 -1.7450
31908SOL     OW99128   4.272   0.407   9.583 -0.1424 -0.0719 -0.4626
31908SOL    HW199129   4.218   0.445   9.653  1.6460 -0.1650  0.9888
31908SOL    HW299130   4.245   0.315   9.578 -0.0241 -0.1504  0.3545
31909SOL     OW99131   9.878   6.901   2.517  0.3184 -0.2941 -0.0231
31909SOL    HW199132   9.881   6.844   2.593 -0.2131 -0.7264 -0.3270
31909SOL    HW299133   9.937   6.860   2.454  0.4212 -0.1711 -0.0084
31910SOL     OW99134   4.970   6.751   4.425  0.4670 -0.1822 -0.5499
31910SOL    HW199135   4.958   6.683   4.359 -0.9236  1.8536 -2.4766
31910SOL    HW299136   4.960   6.833   4.377 -1.9318  1.3834  2.4037
31911SOL     OW99137   7.939   7.084   9.242 -0.7117  0.3547  0.3439
31911SOL    HW199138   7.894   7.146   9.299 -0.2732 -0.4626  1.5973
31911SOL    HW299139   8.026   7.074   9.282  0.5681  1.7900 -1.9280
31912SOL     OW99140   2.427  10.697   9.210 -0.7347  0.0875 -0.1479
31912SOL    HW199141   2.468  10.717   9.126  0.6321  1.5241  0.8419
31912SOL    HW299142   2.341  10.740   9.205 -0.2744  0.9861 -0.4384
31913SOL     OW99143   0.078   2.822   6.924  0.0901 -0.4880 -0.2154
31913SOL    HW199144   0.163   2.840   6.964 -0.4368 -0.7906  1.0614
31913SOL    HW299145   0.015   2.831   6.995 -0.8271 -1.3895 -0.8897
31914SOL     OW99146   8.819  10.240   3.989 -0.6326  0.3904  0.0067
31914SOL    HW199147   8.875  10.285   4.052  0.1418  0.4389 -0.6960
31914SOL    HW299148   8.851  10.150   3.988 -2.1620 -0.1894  1.3889
31915SOL     OW99149   9.440   5.458   5.616 -0.0247  0.2634  0.0152
31915SOL    HW199150   9.428   5.553   5.611 -0.3171  0.2599  0.6833
31915SOL    HW299151   9.466   5.442   5.706 -0.5360 -0.3621  0.0512
31916SOL     OW99152   5.642  10.498   0.094  0.1028 -0.4677 -0.1463
31916SOL    HW199153   5.618  10.526   0.006  0.4302 -0.1814 -0.1459
31916SOL    HW299154   5.616  10.406   0.098 -2.7067  0.3005  0.4960
31917SOL     OW99155   3.632   2.856   3.510 -0.0297  0.2738  0.2328
31917SOL    HW199156   3.588   2.821   3.588  0.9011  1.7712  1.4652
31917SOL    HW299157   3.562   2.901   3.462 -0.0283  2.0714  1.8433
31918SOL     OW99158   0.316  10.501   9.036 -0.6933  0.0390  0.2051
31918SOL    HW199159   0.306  10.492   9.131  1.7211  0.9665  0.5982
31918SOL    HW299160   0.305  10.594   9.019  0.1470  0.0651 -0.2361
31919SOL     OW99161   4.657   8.176   8.501 -0.5606  0.3942  0.1722
31919SOL    HW199162   4.638   8.176   8.407 -0.2255  0.5059  0.1041
31919SOL    HW299163   4.579   8.214   8.541 -0.5672  0.6561 -0.0892
31920SOL     OW99164   1.359   4.831  10.439 -0.2313  0.2199 -0.1450
31920SOL    HW199165   1.454   4.828  10.440 -0.1689  1.9115  0.3067
31920SOL    HW299166   1.337   4.922  10.462 -1.9653 -0.4540  0.9816
31921SOL     OW99167   8.002   4.984   3.527  0.0984 -0.3629  0.4387
31921SOL    HW199168   7.994   4.941   3.442 -0.5995 -0.4258  0.5300
31921SOL    HW299169   7.913   5.015   3.546  0.3728  0.1596  0.8742
31922SOL     OW99170  10.337   1.784   5.279  0.1502 -0.1609 -0.4106
31922SOL    HW199171  10.370   1.718   5.340 -0.6352 -2.0253 -1.9488
31922SOL    HW299172  10.267   1.739   5.232 -0.3800  1.7877 -1.5067
31923SOL     OW99173   5.880   2.884   6.630 -0.0252  0.5307 -0.5321
31923SOL    HW199174   5.797   2.924   6.656  0.4078  1.2968 -0.3389
31923SOL    HW299175   5.856   2.827   6.556 -0.3208  2.7261 -2.1800
31924SOL     OW99176   5.171   0.964   0.199  0.5930 -0.0856  0.2819
31924SOL    HW199177   5.098   1.020   0.172  0.4672 -0.0199  0.7649
31924SOL    HW299178   5.196   0.918   0.119 -0.2120 -0.3766  0.1932
31925SOL     OW99179   3.981   2.697   0.594 -0.1597  0.3274  0.0072
31925SOL    HW199180   3.928   2.761   0.641 -0.5568  0.2304 -0.2990
31925SOL    HW299181   3.920   2.657   0.532 -0.2516 -1.2838  1.0884
31926SOL     OW99182   4.408   1.076   3.745 -0.9825  0.0677  0.0626
31926SOL    HW199183   4.480   1.018   3.770 -0.5801  0.0823 -1.0418
31926SOL    HW299184   4.330   1.022   3.752 -0.7278 -0.2958  0.0784
31927SOL     OW99185   8.192   3.832   7.982  0.0678  0.1514  0.3863
31927SOL    HW199186   8.138   3.855   7.907  1.2364  0.3659 -0.3971
31927SOL    HW299187   8.177   3.738   7.995 -0.5122  0.2214  0.1893
31928SOL     OW99188   0.296   3.340   2.374 -0.4234  0.0414  0.3682
31928SOL    HW199189   0.352   3.263   2.379 -1.6225 -0.9612 -1.2636
31928SOL    HW299190   0.213   3.313   2.414 -0.8184  0.5328 -0.1129
31929SOL     OW99191   1.191  10.470  10.349  0.1729 -0.5824  0.5357
31929SOL    HW199192   1.164  10.556  10.379  0.3370 -0.1409 -0.5668
31929SOL    HW299193   1.181  10.473  10.254 -1.2070 -2.2561  0.5879
31930SOL     OW99194  10.972   9.747   3.708 -0.0023 -0.4312 -0.5055
31930SOL    HW199195  10.940   9.746   3.617 -1.6838 -0.4581  0.0720
31930SOL    HW299196  10.925   9.820   3.748  1.7922  0.4799 -0.0098
31931SOL     OW99197   2.213   7.140   3.837  1.0096  0.4635  0.5580
31931SOL    HW199198   2.198   7.210   3.900  0.6176  0.3328  0.6104
31931SOL    HW299199   2.258   7.071   3.887 -0.0891 -0.0074  0.9207
31932SOL     OW99200   5.753   6.795   7.868 -1.1040 -0.0678 -0.6047
31932SOL    HW199201   5.725   6.834   7.785 -3.1566 -1.0456 -0.3868
31932SOL    HW299202   5.672   6.771   7.913 -0.0175  0.1779  1.5729
31933SOL     OW99203  10.789   4.302   5.323  0.4684  0.4570  0.1051
31933SOL    HW199204  10.769   4.227   5.266  1.0586  0.2103  0.2194
31933SOL    HW299205  10.708   4.353   5.324 -0.2719 -0.7161  0.8507
31934SOL     OW99206   6.501   8.362   4.559 -0.4316  0.0692  0.1538
31934SOL    HW199207   6.489   8.452   4.590 -1.9543 -0.4017  0.9963
31934SOL    HW299208   6.595   8.346   4.567  0.0924  2.1265 -1.5670
31935SOL     OW99209   1.694   2.750   6.012 -0.0385 -0.7833 -0.1244
31935SOL    HW199210   1.646   2.770   5.932 -1.2615 -2.0981  0.2606
31935SOL    HW299211   1.633   2.770   6.083  1.3664  1.2662  0.5337
31936SOL     OW99212   0.165   9.821   5.838 -0.8947 -0.0570  0.1623
31936SOL    HW199213   0.149   9.734   5.876 -1.5535  0.2615  0.6246
31936SOL    HW299214   0.234   9.806   5.773 -0.7275 -0.8551  0.5141
31937SOL     OW99215   8.940   8.781   1.422  0.1123  0.0402 -0.1342
31937SOL    HW199216   8.992   8.857   1.398  0.7834 -0.3067  0.2231
31937SOL    HW299217   8.983   8.707   1.380 -0.6448 -0.1191 -0.6364
31938SOL     OW99218   7.963   7.168   3.599 -0.5430 -0.2495 -0.0462
31938SOL    HW199219   7.962   7.087   3.650  0.1727 -0.9915 -1.2080
31938SOL    HW299220   7.875   7.204   3.608 -0.7218 -0.9085  0.8554
31939SOL     OW99221   4.423   1.579   7.381 -0.3496 -0.0684 -0.4285
31939SOL    HW199222   4.438   1.494   7.424 -2.0695 -1.7624 -2.9922
31939SOL    HW299223   4.331   1.576   7.355 -0.3910  2.5601 -0.6571
31940SOL     OW99224   0.761   2.256   7.476  0.0531  0.1910 -0.4056
31940SOL    HW199225   0.739   2.238   7.567 -0.1955  0.8774 -0.3238
31940SOL    HW299226   0.843   2.305   7.481  0.3724 -0.3336 -0.5818
31941SOL     OW99227   3.608   7.223   4.255 -0.3766  0.5435 -0.6137
31941SOL    HW199228   3.651   7.285   4.197 -0.3244  0.8869 -0.2097
31941SOL    HW299229   3.561   7.278   4.318  2.0788  0.2304  1.5695
31942SOL     OW99230   9.709   4.541  10.906 -0.1321 -0.2654  0.4258
31942SOL    HW199231   9.716   4.464  10.961  1.2925 -1.2040 -1.0054
31942SOL    HW299232   9.699   4.507  10.817 -2.3133  1.2034  0.0465
31943SOL     OW99233  10.909   8.870   4.784 -0.2681  0.0928  0.0747
31943SOL    HW199234  10.962   8.940   4.746 -1.1701  1.5093  1.3773
31943SOL    HW299235  10.894   8.897   4.874  0.0265 -2.1688  0.8514
31944SOL     OW99236   3.030   5.706   7.620 -0.3340 -0.5403  0.1368
31944SOL    HW199237   2.950   5.663   7.651 -0.8921  1.1573  1.0670
31944SOL    HW299238   3.094   5.690   7.690  0.4783 -2.7950 -1.0704
31945SOL     OW99239   0.293   4.549  10.518 -0.2499  0.1000 -0.3064
31945SOL    HW199240   0.284   4.459  10.549  0.8637  0.8109  2.1775
31945SOL    HW299241   0.387   4.566  10.519 -0.4072  1.0983 -1.3600
31946SOL     OW99242  10.771   9.676  10.606 -0.4167 -0.0615  0.3250
31946SOL    HW199243  10.753   9.684  10.512 -0.0361  1.3801  0.3634
31946SOL    HW299244  10.771   9.766  10.638  0.7566 -0.4476  1.4634
31947SOL     OW99245   0.491   5.460   4.326 -0.3395 -0.6559  0.1164
31947SOL    HW199246   0.448   5.457   4.241  1.1842 -2.7080 -0.6255
31947SOL    HW299247   0.477   5.373   4.364  2.5005 -1.1699  0.1235
31948SOL     OW99248   8.970   5.581   8.931  0.1028 -0.6004 -0.4954
31948SOL    HW199249   8.948   5.489   8.916  0.7791 -1.4238  3.1734
31948SOL    HW299250   9.035   5.580   9.001  0.4774  2.6722 -0.6814
31949SOL     OW99251   8.681   2.366   9.672  0.1014 -0.1512 -0.0453
31949SOL    HW199252   8.617   2.319   9.725  0.8111 -1.0556  0.0374
31949SOL    HW299253   8.660   2.343   9.581 -2.0185  2.5520 -0.2969
31950SOL     OW99254   6.444   8.813   3.984 -0.2411  0.3964 -0.2176
31950SOL    HW199255   6.465   8.883   3.922 -2.1597  1.2430  0.0524
31950SOL    HW299256   6.449   8.855   4.070  2.0967 -0.7011  0.2348
31951SOL     OW99257   5.316   2.142   9.192  0.1133  0.1248 -0.3905
31951SOL    HW199258   5.303   2.158   9.285 -1.1877 -0.2355 -0.4977
31951SOL    HW299259   5.359   2.056   9.188 -0.1063  0.0054 -0.1395
31952SOL     OW99260   2.548   7.906   8.515 -0.1655 -0.2967 -0.3779
31952SOL    HW199261   2.618   7.880   8.456 -1.1622 -0.0823 -1.7021
31952SOL    HW299262   2.468   7.882   8.468 -0.9914  0.4717  0.6190
31953SOL     OW99263  10.814   0.327   8.007 -0.4787 -0.4798  0.5069
31953SOL    HW199264  10.868   0.398   8.042 -0.1824 -0.4434 -0.0113
31953SOL    HW299265  10.725   0.359   8.014 -0.3583 -0.1253  0.4470
31954SOL     OW99266   8.704   5.126   2.884 -0.1335 -0.1847 -0.5309
31954SOL    HW199267   8.708   5.051   2.943  0.1733  0.3203  0.1009
31954SOL    HW299268   8.796   5.149   2.869 -0.2391  0.3672 -0.3321
31955SOL     OW99269   6.301   3.839   8.123 -0.0508  0.4738 -0.8868
31955SOL    HW199270   6.291   3.744   8.114  2.2237  0.2726 -1.7609
31955SOL    HW299271   6.260   3.875   8.045 -1.5830  0.2827 -0.1898
31956SOL     OW99272   8.517   3.882   1.612 -0.4180  0.1171 -0.2199
31956SOL    HW199273   8.542   3.837   1.693 -1.5576  0.9063  0.5858
31956SOL    HW299274   8.590   3.942   1.595 -0.6702  0.7299  0.8206
31957SOL     OW99275   2.718   5.550   1.961  0.2428 -0.8339 -0.4018
31957SOL    HW199276   2.711   5.458   1.988 -0.4078 -0.6592  0.0342
31957SOL    HW299277   2.628   5.583   1.964  0.1815 -0.7234 -2.5037
31958SOL     OW99278   3.081   7.012   2.709  0.3423  0.0225  0.4037
31958SOL    HW199279   3.120   7.052   2.787  0.3227  0.6112  0.1206
31958SOL    HW299280   3.018   6.949   2.743  0.2711  0.3379  0.8639
31959SOL     OW99281   9.340  10.594   4.895  0.0846 -0.0731  0.2383
31959SOL    HW199282   9.274  10.549   4.843 -1.3914 -0.1036  2.0759
31959SOL    HW299283   9.337  10.685   4.864  0.1644 -0.3840 -0.6646
31960SOL     OW99284   3.310   1.290   5.814  0.1287 -0.2910  0.6138
31960SOL    HW199285   3.354   1.355   5.869 -0.3727  0.3569  0.2670
31960SOL    HW299286   3.372   1.271   5.744  0.2683 -0.1645  0.7032
31961SOL     OW99287   1.659   2.920   6.679 -0.1256 -0.4185  0.2709
31961SOL    HW199288   1.575   2.961   6.700  0.1619  0.4199 -0.2093
31961SOL    HW299289   1.691   2.969   6.604  1.1365 -0.2784  0.9008
31962SOL     OW99290   8.485   2.572   5.447 -0.0063  0.0824  0.4349
31962SOL    HW199291   8.522   2.638   5.506 -1.8108  0.4006  1.2257
31962SOL    HW299292   8.409   2.615   5.407  0.0871 -0.7811 -0.7012
31963SOL     OW99293   7.100   1.837   8.470 -0.1803  0.4480  0.1811
31963SOL    HW199294   7.103   1.792   8.386  0.3999  0.3015  0.2822
31963SOL    HW299295   7.007   1.844   8.490 -0.2694 -1.0185  0.3400
31964SOL     OW99296  10.260   3.121   0.549 -0.4327 -0.2002  0.3649
31964SOL    HW199297  10.270   3.145   0.641 -0.3648 -1.5056  0.7114
31964SOL    HW299298  10.201   3.045   0.550  0.1661 -0.6959 -0.6037
31965SOL     OW99299   7.124   3.451   6.146 -0.4406 -0.1164 -0.9646
31965SOL    HW199300   7.181   3.374   6.143 -0.1507  0.1090 -1.3458
31965SOL    HW299301   7.035   3.415   6.147 -0.3157 -0.4515 -1.4454
31966SOL     OW99302   2.226   6.195   3.014  0.6543  0.2203 -0.0351
31966SOL    HW199303   2.206   6.275   2.965  0.8964 -0.1322 -0.7032
31966SOL    HW299304   2.141   6.165   3.047  0.3333 -0.2310 -1.2776
31967SOL     OW99305   7.573   7.989   4.463  0.1829 -0.3150  0.1077
31967SOL    HW199306   7.667   8.005   4.465 -0.1931  2.2767 -1.0360
31967SOL    HW299307   7.547   8.009   4.373 -1.4471 -1.0964  0.3834
31968SOL     OW99308   9.061   3.988   2.251  0.2363 -0.1012  0.0182
31968SOL    HW199309   9.147   3.960   2.283  0.1884 -0.2886 -0.0110
31968SOL    HW299310   9.014   4.015   2.329  0.4009  0.2151  0.0088
31969SOL     OW99311  10.482   1.336   4.539 -0.5078  0.5173 -0.2123
31969SOL    HW199312  10.561   1.350   4.590  0.5066 -0.3569 -1.5212
31969SOL    HW299313  10.448   1.252   4.569  0.5378 -0.3883 -1.5417
31970SOL     OW99314  10.177   8.825   3.119 -0.7169  0.3554  0.5414
31970SOL    HW199315  10.107   8.782   3.169 -0.3859 -0.9958 -0.1265
31970SOL    HW299316  10.204   8.899   3.174 -1.1593 -0.4131  1.8180
31971SOL     OW99317  10.306   5.529   8.767  0.2099 -0.0477 -0.1067
31971SOL    HW199318  10.352   5.448   8.790 -0.5004 -0.1860  0.8904
31971SOL    HW299319  10.242   5.503   8.701  2.0915  0.2962 -2.1034
31972SOL     OW99320   3.823   9.297   2.247 -0.0993 -0.1225  0.3028
31972SOL    HW199321   3.728   9.295   2.245 -0.1000 -1.2599  0.9842
31972SOL    HW299322   3.849   9.329   2.160 -1.0895 -0.0123  0.0485
31973SOL     OW99323   8.139   0.288   8.145  0.2350 -0.5000 -0.3025
31973SOL    HW199324   8.199   0.250   8.081  1.7442  0.9976  0.1847
31973SOL    HW299325   8.180   0.370   8.171 -2.0690  0.5974  0.0108
31974SOL     OW99326   8.627   1.246   0.464 -0.8864  0.0029  0.4275
31974SOL    HW199327   8.630   1.229   0.370  2.6087  1.6623  0.1511
31974SOL    HW299328   8.624   1.160   0.505  1.3737 -0.8537 -1.1673
31975SOL     OW99329   3.124   0.474   9.778  0.5277  0.2118 -0.3626
31975SOL    HW199330   3.107   0.522   9.859 -0.4228 -0.1558 -0.3343
31975SOL    HW299331   3.117   0.382   9.804 -0.8596  0.1005 -1.0711
31976SOL     OW99332   6.760   6.465   0.836 -0.3123  0.3460  0.4452
31976SOL    HW199333   6.752   6.478   0.742 -0.1811  0.7218  0.4836
31976SOL    HW299334   6.677   6.426   0.862  0.2457 -1.1857 -0.0600
31977SOL     OW99335   7.482   7.600   8.442  0.9895 -0.6785  0.3125
31977SOL    HW199336   7.449   7.614   8.531  0.1844 -0.7801  0.0386
31977SOL    HW299337   7.468   7.507   8.426  0.5753 -0.5430 -0.1331
31978SOL     OW99338   6.549   4.489   5.716 -0.2778  0.6891  0.0754
31978SOL    HW199339   6.519   4.579   5.701 -1.4803  0.3396  0.3269
31978SOL    HW299340   6.488   4.435   5.665  0.0840 -0.0270  0.3970
31979SOL     OW99341   1.995   1.892   8.008  0.1058  0.5287 -0.4899
31979SOL    HW199342   1.945   1.887   7.926 -1.3409 -0.6376  0.4429
31979SOL    HW299343   2.065   1.954   7.989 -1.4392  1.8785 -1.9795
31980SOL     OW99344   0.137   5.597   5.049  0.5186  0.3309  0.2066
31980SOL    HW199345   0.057   5.594   4.997  0.2923  1.0395  0.5096
31980SOL    HW299346   0.109   5.632   5.134  0.9279 -0.5656  0.7173
31981SOL     OW99347   6.961   5.539   4.492 -0.3081 -0.0312 -0.3854
31981SOL    HW199348   6.996   5.545   4.581 -1.1737 -0.7856  0.0172
31981SOL    HW299349   6.995   5.457   4.457 -1.0953 -0.4276 -0.2389
31982SOL     OW99350   9.040   1.034  10.679 -0.0025  0.1887  0.1232
31982SOL    HW199351   9.075   0.945  10.671 -2.9090 -0.8720 -1.7585
31982SOL    HW299352   9.033   1.048  10.774  2.5059 -0.7005  0.4849
31983SOL     OW99353   4.368   4.561   4.467  0.0630  0.0810 -0.4311
31983SOL    HW199354   4.428   4.563   4.392  1.9639  0.8882  1.0556
31983SOL    HW299355   4.375   4.649   4.504  1.3550 -1.1474  2.3537
31984SOL     OW99356   3.434   2.370   0.979  0.1816 -0.0492  0.0755
31984SOL    HW199357   3.493   2.427   1.029  0.6450 -0.0832 -0.4234
31984SOL    HW299358   3.429   2.290   1.030  1.7240 -0.5924 -0.5741
31985SOL     OW99359  10.688   7.103  10.579  0.5083  0.6011  0.2065
31985SOL    HW199360  10.684   7.160  10.655 -3.5360  1.3098 -0.4425
31985SOL    HW299361  10.716   7.161  10.508  1.1335  0.6750  0.5135
31986SOL     OW99362   4.629   2.988   5.174  0.7584  0.1658  0.3134
31986SOL    HW199363   4.598   3.005   5.264 -0.4084  1.4120 -0.2937
31986SOL    HW299364   4.574   3.045   5.120 -0.6272 -2.8154 -1.4987
31987SOL     OW99365   0.768   4.572   8.148  0.2679  0.0129  0.3785
31987SOL    HW199366   0.754   4.666   8.158 -2.7003 -0.4630  0.8459
31987SOL    HW299367   0.765   4.537   8.237  1.2881 -0.5698  0.1991
31988SOL     OW99368   4.553   2.499   3.947  0.0272  0.7334  0.6624
31988SOL    HW199369   4.489   2.430   3.934  0.5345  0.4499 -0.4178
31988SOL    HW299370   4.589   2.483   4.034  0.5195 -0.6865  0.2081
31989SOL     OW99371   6.428   4.072   5.058 -0.4791 -0.1957  0.0063
31989SOL    HW199372   6.472   4.095   5.140 -1.2184 -1.0198  0.6327
31989SOL    HW299373   6.354   4.017   5.085 -0.3374 -1.0151 -1.2673
31990SOL     OW99374   9.389   6.665  10.259  0.2764  0.1631  0.0372
31990SOL    HW199375   9.385   6.635  10.169 -0.4574  0.4121 -0.0181
31990SOL    HW299376   9.454   6.735  10.258 -0.7589  1.1423 -0.5933
31991SOL     OW99377   0.427   9.191   0.107  0.3603  0.2723 -0.5011
31991SOL    HW199378   0.338   9.203   0.076  0.4743 -0.2391 -1.0322
31991SOL    HW299379   0.426   9.106   0.152  0.6318  0.1598 -0.7043
31992SOL     OW99380   2.002   2.559   8.928 -0.4249 -0.2669 -0.7586
31992SOL    HW199381   2.093   2.536   8.914 -0.7267 -1.5319 -0.7076
31992SOL    HW299382   1.992   2.565   9.023 -0.3350  0.1647 -0.7730
31993SOL     OW99383   5.294   6.770   9.498 -0.9061  0.2120 -0.3397
31993SOL    HW199384   5.212   6.734   9.531  0.2520 -1.2574  1.0565
31993SOL    HW299385   5.362   6.722   9.546  0.7708  1.1753 -1.6867
31994SOL     OW99386   7.351   5.735   0.485 -0.6053  0.6486 -0.3964
31994SOL    HW199387   7.357   5.806   0.421  1.9992  0.3915 -0.4948
31994SOL    HW299388   7.405   5.764   0.558 -0.4381 -0.7530  0.0491
31995SOL     OW99389   1.584   6.553   5.659  0.4974  0.4765 -0.2002
31995SOL    HW199390   1.594   6.648   5.669  1.2002  0.4232 -0.3784
31995SOL    HW299391   1.489   6.540   5.654  0.4462  1.5238 -3.4070
31996SOL     OW99392   9.095   1.314  10.835 -0.1110 -0.3792  0.1917
31996SOL    HW199393   9.144   1.355  10.764 -1.1490  1.9162  0.7610
31996SOL    HW299394   9.160   1.263  10.883  1.1341  0.2727 -0.7678
31997SOL     OW99395   0.861   7.831   7.358  0.0876  0.2943 -0.1401
31997SOL    HW199396   0.940   7.884   7.353 -0.8546  1.7922  0.5038
31997SOL    HW299397   0.795   7.882   7.311 -1.0519  0.0836  1.1902
31998SOL     OW99398   9.235   9.387  10.334 -1.1270  0.3773  0.4482
31998SOL    HW199399   9.231   9.382  10.430  0.9365 -0.4058  0.5331
31998SOL    HW299400   9.314   9.437  10.316 -1.9555  1.2337 -0.8513
31999SOL     OW99401   2.294   9.685   7.360 -0.0420  0.5624 -0.2994
31999SOL    HW199402   2.314   9.729   7.278 -1.2640  0.4885 -0.6442
31999SOL    HW299403   2.220   9.733   7.396  1.1577  1.2563  1.2983
32000SOL     OW99404   1.795   3.984   6.085 -0.3611 -0.5684 -0.2045
32000SOL    HW199405   1.871   4.030   6.049 -1.1964  1.1901  0.2428
32000SOL    HW299406   1.720   4.023   6.040 -1.1594 -0.7962  0.9180
32001SOL     OW99407  10.238   9.168   8.439 -0.7077 -0.0406 -0.7171
32001SOL    HW199408  10.146   9.147   8.454 -1.9089  3.9809 -1.8332
32001SOL    HW299409  10.246   9.172   8.343  0.6702 -0.4225 -0.6241
32002SOL     OW99410   1.764   6.226   7.756 -0.1711  0.2184  0.0436
32002SOL    HW199411   1.800   6.293   7.697  0.9326 -1.9778 -1.8762
32002SOL    HW299412   1.835   6.206   7.816 -0.2937  0.3466  0.2303
32003SOL     OW99413   7.420   2.739   4.525  0.2731  0.1907 -0.8733
32003SOL    HW199414   7.435   2.693   4.608 -0.1394  0.6239 -0.5533
32003SOL    HW299415   7.399   2.670   4.462 -0.2213 -0.0733 -0.4219
32004SOL     OW99416   0.453   2.619   4.940 -0.6345  0.0996 -0.7879
32004SOL    HW199417   0.403   2.672   4.879 -1.3400  0.7349  0.3191
32004SOL    HW299418   0.387   2.578   4.996 -0.0726 -1.5912 -1.3276
32005SOL     OW99419   4.221   2.496  10.658  0.2868  0.1747  0.4059
32005SOL    HW199420   4.159   2.427  10.635  1.7098 -0.5185 -1.3515
32005SOL    HW299421   4.274   2.458  10.728  2.0777 -1.1000 -1.6051
32006SOL     OW99422   5.005   0.126   2.420 -0.0208  0.1461  0.4980
32006SOL    HW199423   5.077   0.173   2.378  0.2272 -0.1465  0.5927
32006SOL    HW299424   4.926   0.173   2.392  0.0887 -0.4378 -0.8281
32007SOL     OW99425   8.433   1.219   8.154  0.0945 -1.2123 -0.0026
32007SOL    HW199426   8.409   1.209   8.247  0.7841  0.6399  0.3934
32007SOL    HW299427   8.473   1.306   8.149 -0.8688 -0.8667 -2.2377
32008SOL     OW99428   7.066   8.925   2.684 -0.3676  0.1449  0.0259
32008SOL    HW199429   7.066   9.018   2.709  0.8125  0.1016  0.2321
32008SOL    HW299430   7.106   8.880   2.759 -1.8289 -0.6558  0.3393
32009SOL     OW99431   5.996   3.804  10.858  0.1395  0.6919  0.3968
32009SOL    HW199432   6.081   3.847  10.868  0.4110  0.3937 -0.5269
32009SOL    HW299433   5.985   3.753  10.938  0.7624  0.8459  0.5879
32010SOL     OW99434   6.858   6.387   0.581 -0.3273 -0.3072 -0.6096
32010SOL    HW199435   6.939   6.340   0.599  0.0424  0.0854 -1.2184
32010SOL    HW299436   6.801   6.322   0.541 -0.5753 -0.7659  0.4722
32011SOL     OW99437   5.050   9.415   6.322 -0.2321 -0.3083 -0.4925
32011SOL    HW199438   5.121   9.354   6.304  1.0284  0.7645  0.7911
32011SOL    HW299439   5.005   9.424   6.238  0.0413 -2.3795 -0.8838
32012SOL     OW99440   5.171   0.737   7.649 -0.5488 -0.0190 -0.0963
32012SOL    HW199441   5.199   0.826   7.629 -1.1464  0.6209  1.8054
32012SOL    HW299442   5.235   0.681   7.606  1.8691  1.3707  1.5942
32013SOL     OW99443   1.162  10.893   0.618 -0.0618 -0.4305  0.2320
32013SOL    HW199444   1.129  10.897   0.528  1.4936 -0.3399 -0.3396
32013SOL    HW299445   1.227  10.962   0.623 -0.9122  0.2811  1.7639
32014SOL     OW99446   9.506   4.023   3.776 -0.4194  0.0546 -0.1033
32014SOL    HW199447   9.593   3.984   3.770  1.4627  3.9756  0.1044
32014SOL    HW299448   9.505   4.065   3.862 -2.2367  0.7254 -0.4332
32015SOL     OW99449   1.539   7.385   7.599  0.7378 -0.2217  0.0244
32015SOL    HW199450   1.609   7.338   7.645  1.9624  2.7524  1.3579
32015SOL    HW299451   1.575   7.403   7.512  0.6710 -0.8409 -0.1318
32016SOL     OW99452   0.566   2.641   2.647  0.4450  0.8349  0.1974
32016SOL    HW199453   0.501   2.598   2.591  1.2479  0.7203 -0.6618
32016SOL    HW299454   0.536   2.623   2.736  1.0412 -1.9964 -0.1189
32017SOL     OW99455   4.604   1.615   6.684 -0.4248 -0.2719 -0.2551
32017SOL    HW199456   4.662   1.567   6.743  3.2236  2.1406 -1.6920
32017SOL    HW299457   4.590   1.556   6.610 -0.9203 -1.3650  0.6935
32018SOL     OW99458   2.732   1.768   6.338  0.5803 -0.5433  0.2488
32018SOL    HW199459   2.686   1.849   6.320 -0.9887 -1.0384  1.8349
32018SOL    HW299460   2.699   1.705   6.274 -0.9024 -0.8613  1.2976
32019SOL     OW99461   6.293   8.784  10.824 -0.2028  0.0155 -0.1319
32019SOL    HW199462   6.353   8.728  10.775  0.9660  1.2891 -0.2098
32019SOL    HW299463   6.260   8.729  10.895  0.4996 -0.9257 -0.5331
32020SOL     OW99464   9.087   3.865   4.013  0.2744 -0.1963 -0.1736
32020SOL    HW199465   9.145   3.941   4.002  1.0258 -0.7325  0.0932
32020SOL    HW299466   9.042   3.857   3.929  0.7947  0.0468 -0.4773
32021SOL     OW99467   6.699   0.454   6.418  0.7552 -0.3821 -0.7190
32021SOL    HW199468   6.617   0.503   6.413  0.5103 -0.5805  1.1637
32021SOL    HW299469   6.678   0.367   6.383  0.2398 -0.3555 -0.4710
32022SOL     OW99470   2.735   2.379   2.216 -0.5124  0.0674 -0.0051
32022SOL    HW199471   2.728   2.421   2.131 -1.2616 -0.9164 -0.4295
32022SOL    HW299472   2.700   2.291   2.203 -1.2071  0.1116  1.4583
32023SOL     OW99473   5.202   3.550  10.896  0.2254  0.2972 -0.0368
32023SOL    HW199474   5.293   3.563  10.871  0.2742 -0.2947 -0.1958
32023SOL    HW299475   5.206   3.510  10.983  0.1737 -1.1386 -0.6693
32024SOL     OW99476   2.551   1.597   2.868  0.4637  0.3555 -0.5282
32024SOL    HW199477   2.594   1.512   2.869  0.8114  0.5307 -0.4825
32024SOL    HW299478   2.555   1.625   2.776 -1.5535 -0.6337 -0.9436
32025SOL     OW99479   8.878   5.274   9.743  0.0735  0.1390  0.0199
32025SOL    HW199480   8.813   5.336   9.711  1.3302  2.3290  1.6496
32025SOL    HW299481   8.916   5.237   9.663 -1.3671  0.7270 -0.9578
32026SOL     OW99482  10.051   7.843   9.533 -0.1504 -0.3171 -0.4532
32026SOL    HW199483  10.040   7.930   9.572  0.9088 -0.5166  0.3188
32026SOL    HW299484  10.142   7.820   9.551 -0.5172 -1.7457 -0.3272
32027SOL     OW99485   6.722   0.361  10.392  0.4497 -0.6510  0.2023
32027SOL    HW199486   6.811   0.331  10.376  0.1023 -0.7580 -1.6290
32027SOL    HW299487   6.732   0.449  10.429  1.3343 -1.2347  1.3773
32028SOL     OW99488   2.846   3.108   9.710 -0.1828  0.0074  0.1586
32028SOL    HW199489   2.903   3.117   9.633 -0.0956  0.4890  0.2776
32028SOL    HW299490   2.767   3.157   9.686 -0.3993 -0.3490  0.1388
32029SOL     OW99491   9.858   6.069   4.257  0.0041 -0.3243  1.0077
32029SOL    HW199492   9.808   6.084   4.337 -1.5402 -0.2303  0.0491
32029SOL    HW299493   9.832   6.141   4.199  0.7883 -0.6313  0.2655
32030SOL     OW99494   8.241   3.598   6.245  0.2608 -0.7600  0.4431
32030SOL    HW199495   8.244   3.509   6.278 -2.3889 -0.4579  1.5753
32030SOL    HW299496   8.229   3.589   6.150 -1.7072 -1.5988  0.7647
32031SOL     OW99497   8.930   8.944   6.170  1.0137 -0.0684  0.2748
32031SOL    HW199498   8.898   8.984   6.089 -0.3303  1.3868  1.5087
32031SOL    HW299499   9.022   8.971   6.176  1.1141 -0.1497 -0.7175
32032SOL     OW99500   3.274   7.218  10.719 -0.2652 -0.3765 -0.3432
32032SOL    HW199501   3.314   7.231  10.633  1.0421  0.3160  0.3591
32032SOL    HW299502   3.294   7.127  10.742 -0.9212 -0.6730 -0.9063
32033SOL     OW99503   4.527   2.829   3.479 -0.6808 -0.9105 -0.1479
32033SOL    HW199504   4.451   2.788   3.522 -1.0592  1.5527  1.5951
32033SOL    HW299505   4.594   2.831   3.546 -0.8637  1.8367  0.0044
32034SOL     OW99506   7.418   3.873  10.294  0.0350 -0.4581  0.3182
32034SOL    HW199507   7.369   3.866  10.375 -0.3289 -1.5314  0.0081
32034SOL    HW299508   7.424   3.784  10.261 -0.7571  0.1011 -1.3884
32035SOL     OW99509   3.092   4.986   2.696  0.3828  0.2052 -0.5367
32035SOL    HW199510   3.001   4.962   2.715 -0.4544  1.3798 -2.8644
32035SOL    HW299511   3.109   5.062   2.751 -0.5899  0.9328 -1.2110
32036SOL     OW99512   7.636   4.489   8.966 -0.3131 -0.2615  0.4242
32036SOL    HW199513   7.548   4.454   8.980  0.7335 -1.9824  3.0342
32036SOL    HW299514   7.639   4.567   9.021  0.3972 -1.2725  1.8468
32037SOL     OW99515   4.387   5.564  10.780 -0.2800 -0.8186 -0.2302
32037SOL    HW199516   4.346   5.611  10.853 -0.5809 -0.5195 -0.5941
32037SOL    HW299517   4.412   5.480  10.818  0.4040 -0.3161  0.4689
32038SOL     OW99518   8.554   8.387   7.478 -0.2746 -0.0525 -0.3634
32038SOL    HW199519   8.517   8.318   7.422  0.4817  1.4688 -2.8232
32038SOL    HW299520   8.482   8.449   7.490 -0.2953 -0.1347 -0.0754
32039SOL     OW99521   7.891   0.425   3.101 -0.4213 -0.1816  0.4422
32039SOL    HW199522   7.913   0.371   3.177 -2.0336  0.4151  1.3282
32039SOL    HW299523   7.900   0.365   3.026  2.5240 -0.4128  0.9095
32040SOL     OW99524   2.600   9.715   5.837 -0.0833 -0.2492  0.2125
32040SOL    HW199525   2.661   9.776   5.879 -0.2142 -1.2514  1.8905
32040SOL    HW299526   2.527   9.771   5.809  0.1928  0.5081  0.9643
32041SOL     OW99527   6.074   3.345   1.002  0.2627  0.4699 -0.3628
32041SOL    HW199528   6.060   3.409   0.932 -0.4330  0.0868 -0.5772
32041SOL    HW299529   6.056   3.261   0.961  0.9723  0.1471 -0.0243
32042SOL     OW99530   9.168   9.782   3.983 -0.4956  0.0772 -0.3452
32042SOL    HW199531   9.173   9.692   3.950 -2.6014 -0.7396  1.3988
32042SOL    HW299532   9.158   9.771   4.078 -1.6853  2.1417 -0.2254
32043SOL     OW99533   2.731   1.667   1.132  0.3610 -0.7788 -0.0774
32043SOL    HW199534   2.669   1.632   1.068  0.9929 -0.9169 -0.6169
32043SOL    HW299535   2.803   1.604   1.133 -0.1496 -1.3757  1.6033
32044SOL     OW99536   7.495   3.535   5.280  0.0599  0.7464 -0.8367
32044SOL    HW199537   7.415   3.500   5.321  0.1872 -0.8592 -1.9026
32044SOL    HW299538   7.528   3.599   5.343 -0.9013 -0.1429  0.6029
32045SOL     OW99539   4.797   2.897   1.846 -0.0414  0.1860  0.0970
32045SOL    HW199540   4.788   2.839   1.771 -0.6715  0.4859 -0.0576
32045SOL    HW299541   4.760   2.847   1.919 -0.2190  0.2400  0.0426
32046SOL     OW99542   9.053   2.539   0.166  0.3889  0.0251 -0.0590
32046SOL    HW199543   9.068   2.585   0.249  0.9419 -0.8922  0.3501
32046SOL    HW299544   9.088   2.598   0.099  1.8461 -0.1590  0.5323
32047SOL     OW99545   3.260   1.866   7.916  0.3600  0.1290  0.0035
32047SOL    HW199546   3.296   1.905   7.836 -0.2418 -1.4323 -1.0685
32047SOL    HW299547   3.336   1.826   7.959  0.3462 -0.8881 -0.9046
32048SOL     OW99548   2.585   4.923   1.786  0.1057 -0.6997 -0.1641
32048SOL    HW199549   2.588   4.832   1.813 -0.4849 -0.9291 -0.8402
32048SOL    HW299550   2.591   4.920   1.690 -0.1029 -0.0448 -0.2045
32049SOL     OW99551   0.024   8.950   7.509  0.4862 -0.2472 -0.0018
32049SOL    HW199552  -0.053   8.954   7.453  2.3744  4.3459 -2.5304
32049SOL    HW299553   0.088   8.899   7.459  0.8446  0.4737 -0.2845
32050SOL     OW99554   8.245   8.381   2.629  0.1424 -0.0879 -0.8131
32050SOL    HW199555   8.204   8.431   2.700 -1.5219  0.0432 -1.8448
32050SOL    HW299556   8.335   8.365   2.660 -0.1329  1.1611  0.7114
32051SOL     OW99557   4.109   7.882   2.646  0.2280  0.0683 -0.3694
32051SOL    HW199558   4.136   7.958   2.695  0.1252  1.0691 -1.8309
32051SOL    HW299559   4.146   7.807   2.693  1.6501  1.1162  0.1802
32052SOL     OW99560   3.704   5.060   8.621  0.2796  0.3807  0.4395
32052SOL    HW199561   3.674   5.017   8.702  0.8119 -2.9531 -1.0470
32052SOL    HW299562   3.624   5.070   8.569  0.3633 -0.1924  0.1923
32053SOL     OW99563   8.932   2.564   8.710  0.2524  0.2159  0.2065
32053SOL    HW199564   8.981   2.485   8.736  0.0101  0.1944  0.5982
32053SOL    HW299565   8.878   2.535   8.637  0.2408  0.0424  0.2818
32054SOL     OW99566   7.887  10.797   0.720 -0.0814  0.1826 -0.2485
32054SOL    HW199567   7.832  10.864   0.760 -0.0992 -0.6090  1.0391
32054SOL    HW299568   7.973  10.809   0.761 -0.7389 -2.2906  1.9409
32055SOL     OW99569  10.777   3.140   6.232 -0.2951  0.0167 -0.0419
32055SOL    HW199570  10.846   3.148   6.297 -0.7394 -1.1412  0.5861
32055SOL    HW299571  10.791   3.214   6.172  0.9867  0.2445  0.5312
32056SOL     OW99572   0.272   6.382   1.071 -0.1982 -0.7926  0.4134
32056SOL    HW199573   0.245   6.345   1.155 -0.7926  0.5293  0.8240
32056SOL    HW299574   0.263   6.477   1.083  1.4555 -0.5014 -0.5553
32057SOL     OW99575   0.004   4.008  10.731  0.4592  0.2427  0.0281
32057SOL    HW199576  -0.022   3.931  10.679  0.9375  0.4925 -0.5818
32057SOL    HW299577  -0.062   4.012  10.801 -0.3440  0.0621 -0.7037
32058SOL     OW99578   4.259   8.720   3.265  0.0754  0.3873  0.1297
32058SOL    HW199579   4.204   8.651   3.228 -0.7938  0.6433  0.9298
32058SOL    HW299580   4.198   8.791   3.285  0.7582  0.8244  0.6731
32059SOL     OW99581   9.559   7.508   7.176 -0.1456 -0.2310 -0.0010
32059SOL    HW199582   9.464   7.492   7.168 -0.2179 -0.1240  0.6573
32059SOL    HW299583   9.595   7.424   7.205 -0.1691  0.0076  0.7271
32060SOL     OW99584   1.977   3.286   2.024  0.1476 -0.1026  0.5608
32060SOL    HW199585   1.957   3.283   2.118 -0.0433  0.8979  0.5550
32060SOL    HW299586   1.936   3.367   1.993 -0.5482 -0.8747 -0.5691
32061SOL     OW99587   0.596   8.442   0.775 -0.0895 -0.2249  0.0641
32061SOL    HW199588   0.676   8.391   0.765 -0.0123  0.0590 -0.7717
32061SOL    HW299589   0.535   8.381   0.817 -0.2141 -1.2487 -1.5295
32062SOL     OW99590   7.830   3.366   0.327 -0.1647  0.2519  0.2296
32062SOL    HW199591   7.889   3.351   0.253  0.1122  1.6392  0.1443
32062SOL    HW299592   7.803   3.279   0.355 -0.3149 -0.2829 -1.5418
32063SOL     OW99593   4.368   2.727   5.697 -0.0719  0.0128  0.2721
32063SOL    HW199594   4.342   2.814   5.664  1.2540  0.6214  0.8003
32063SOL    HW299595   4.298   2.669   5.667 -1.2643  1.3542  0.3913
32064SOL     OW99596   1.169   7.434   8.694  0.0799  0.6120  0.1751
32064SOL    HW199597   1.163   7.369   8.623  1.3676  0.3987  0.2493
32064SOL    HW299598   1.078   7.456   8.714 -0.2881  1.2739 -2.0987
32065SOL     OW99599  10.806   0.269   4.872 -0.0953  0.4744  0.3167
32065SOL    HW199600  10.768   0.299   4.954 -2.1477  2.5228 -1.3392
32065SOL    HW299601  10.772   0.329   4.806 -0.0196 -2.2853 -2.3393
32066SOL     OW99602   7.422   1.762   6.791 -0.0511 -0.4465  0.1788
32066SOL    HW199603   7.431   1.680   6.838 -0.8721  0.3251  1.7098
32066SOL    HW299604   7.352   1.808   6.836 -2.0761 -0.4041 -2.8236
32067SOL     OW99605  10.796   5.979   1.863 -0.7251  0.3651 -0.4053
32067SOL    HW199606  10.849   5.964   1.784  1.1766  1.3601  0.6246
32067SOL    HW299607  10.860   5.978   1.934 -2.4997 -1.1297  1.2074
32068SOL     OW99608   8.308  10.469   4.856 -0.0567  0.4934  0.4012
32068SOL    HW199609   8.385  10.415   4.874  0.5024  1.5268  1.1498
32068SOL    HW299610   8.259  10.469   4.939 -0.3177  0.7023  0.2485
32069SOL     OW99611   3.953   1.559   3.525 -0.0300  0.1827  0.1209
32069SOL    HW199612   3.890   1.587   3.591 -0.5199  0.0446 -0.2796
32069SOL    HW299613   3.971   1.467   3.547 -0.4202  0.0480 -0.1081
32070SOL     OW99614   8.437   5.410   9.972 -0.1893  0.4893  0.0525
32070SOL    HW199615   8.441   5.314   9.974  1.0325  0.5031 -1.0994
32070SOL    HW299616   8.456   5.436  10.062  2.2611 -0.2812 -0.2153
32071SOL     OW99617   3.376   6.511   8.696  0.4541  0.0195  0.0932
32071SOL    HW199618   3.418   6.434   8.734  0.0882 -0.1799  0.0929
32071SOL    HW299619   3.395   6.504   8.602 -1.0815 -1.0148 -0.1512
32072SOL     OW99620   0.324   2.709   6.547 -0.4361 -0.4750  0.5284
32072SOL    HW199621   0.378   2.755   6.481 -0.1207 -0.2290  0.9550
32072SOL    HW299622   0.277   2.780   6.591 -0.7416 -0.6528  0.4844
32073SOL     OW99623   9.588   0.698   9.416  0.1334  0.5195 -0.1529
32073SOL    HW199624   9.635   0.748   9.483 -0.5734  2.3297 -0.9624
32073SOL    HW299625   9.496   0.713   9.435 -0.0859 -0.4406 -0.4481
32074SOL     OW99626   3.937   7.022   4.707 -0.3952  0.0580  0.0669
32074SOL    HW199627   4.000   6.982   4.648 -1.9676 -0.9087 -0.9827
32074SOL    HW299628   3.897   6.948   4.754 -0.0877  0.7236  1.4134
32075SOL     OW99629   0.338   4.703   0.108 -0.2933 -0.2306  0.0151
32075SOL    HW199630   0.335   4.690   0.203  1.6304 -0.9633  0.0107
32075SOL    HW299631   0.413   4.760   0.094 -3.6963  4.2987 -0.6900
32076SOL     OW99632   0.824   7.329   2.063  0.4937  0.3978 -0.5557
32076SOL    HW199633   0.735   7.307   2.037  0.6691  0.2106 -1.0091
32076SOL    HW299634   0.817   7.356   2.155  0.0709 -0.2609 -0.3878
32077SOL     OW99635   9.726   9.499   1.784 -0.5312 -0.3101 -0.4936
32077SOL    HW199636   9.654   9.548   1.824 -0.8073 -0.5339 -0.7108
32077SOL    HW299637   9.728   9.528   1.693  0.6214  0.8029 -0.1305
32078SOL     OW99638  10.173   1.232   0.877  0.5990 -0.2049 -0.7550
32078SOL    HW199639  10.246   1.282   0.841  0.4202 -0.2586 -1.2003
32078SOL    HW299640  10.101   1.246   0.815  0.1844 -0.0238 -0.2366
32079SOL     OW99641   3.653   6.975   0.923 -0.3643  1.1127  0.0828
32079SOL    HW199642   3.709   6.973   1.001  0.2899 -0.9358 -0.4011
32079SOL    HW299643   3.592   6.902   0.935 -0.5829  1.0915 -1.0679
32080SOL     OW99644   9.854   7.852  10.356 -0.1766  0.0357 -0.1534
32080SOL    HW199645   9.830   7.792  10.427  0.8658  0.9908  1.0330
32080SOL    HW299646   9.911   7.801  10.300  0.2614 -0.2709  0.5575
32081SOL     OW99647   0.674   8.077   5.665  0.0179 -0.2228  0.2894
32081SOL    HW199648   0.669   7.994   5.712  0.0892  0.0559  0.8014
32081SOL    HW299649   0.584   8.095   5.638 -0.6464  1.2803  3.2796
32082SOL     OW99650   4.456   5.184   5.605 -0.0742  0.1290 -0.3048
32082SOL    HW199651   4.442   5.093   5.579  0.5267 -0.4585  1.3618
32082SOL    HW299652   4.505   5.222   5.532  0.5658 -1.1641 -0.5712
32083SOL     OW99653   8.318  10.580   7.941 -0.5629  0.4585  0.3173
32083SOL    HW199654   8.285  10.490   7.937  0.7074 -0.0269  0.3114
32083SOL    HW299655   8.410  10.573   7.913 -0.3486  1.7016  0.6704
32084SOL     OW99656   4.772   5.857   2.490  0.4754 -0.2152  0.2587
32084SOL    HW199657   4.714   5.840   2.415 -1.0583  0.6935  1.2241
32084SOL    HW299658   4.823   5.776   2.499  0.2360 -0.5752 -1.3718
32085SOL     OW99659   4.254   1.825   5.260 -0.0584 -0.2092  0.4858
32085SOL    HW199660   4.255   1.796   5.352  1.2712  0.8155  0.8058
32085SOL    HW299661   4.302   1.908   5.260  1.3290 -0.9735 -1.3907
32086SOL     OW99662   5.033   6.840   6.807  0.0574 -0.4076  0.4031
32086SOL    HW199663   4.959   6.809   6.860  0.3997 -0.8453  0.6381
32086SOL    HW299664   5.108   6.789   6.840  0.4264 -0.0947  0.0502
32087SOL     OW99665  10.130   6.387   4.885  0.0116  0.0517 -0.1758
32087SOL    HW199666  10.036   6.402   4.890 -0.0323 -0.8835  2.3860
32087SOL    HW299667  10.142   6.299   4.919  2.0272  0.9755  1.5810
32088SOL     OW99668   8.517   3.706   4.539 -0.3046  0.1318 -0.5009
32088SOL    HW199669   8.583   3.639   4.557 -2.4459 -2.0645 -0.5753
32088SOL    HW299670   8.490   3.737   4.626  0.8005  1.0652 -0.4714
32089SOL     OW99671   6.793   6.442   4.921  0.8632 -0.2797  0.3079
32089SOL    HW199672   6.843   6.426   4.840  0.9141  2.1393 -0.1565
32089SOL    HW299673   6.712   6.484   4.892  0.4386 -0.2986  1.4407
32090SOL     OW99674   9.235   7.197   2.097 -0.4010 -0.8257  0.3098
32090SOL    HW199675   9.173   7.130   2.066  1.3050 -1.5979 -1.5036
32090SOL    HW299676   9.260   7.167   2.185 -0.9051 -1.7066  0.1625
32091SOL     OW99677   5.226   4.827   8.003  0.1428  0.0488  0.6189
32091SOL    HW199678   5.200   4.799   7.915  0.8644  1.1909  0.0122
32091SOL    HW299679   5.321   4.842   7.996  0.2418 -0.0644  1.6483
32092SOL     OW99680   4.824   7.115   7.556 -1.1969 -0.1330 -0.4310
32092SOL    HW199681   4.907   7.137   7.513 -1.4617  0.9733 -0.3845
32092SOL    HW299682   4.760   7.112   7.484 -1.2968 -0.0660 -0.3445
32093SOL     OW99683   3.200   2.886  10.682  0.7311 -0.3194  0.0003
32093SOL    HW199684   3.284   2.861  10.645 -0.3988 -1.1291 -2.0821
32093SOL    HW299685   3.202   2.982  10.685  0.8090 -0.2333 -2.2958
32094SOL     OW99686   4.050  10.572   9.027  0.3317 -0.3795  0.1701
32094SOL    HW199687   4.141  10.565   8.998  0.4969 -0.0582  0.6060
32094SOL    HW299688   4.010  10.632   8.964  0.5210 -0.2023  0.2177
32095SOL     OW99689   7.292   0.740   4.324 -0.1057  0.8516  0.2160
32095SOL    HW199690   7.266   0.678   4.392 -0.3278 -1.6511 -2.0720
32095SOL    HW299691   7.224   0.732   4.257 -0.1013  3.5507 -0.1551
32096SOL     OW99692   9.601   0.172   2.492 -0.0307  0.6538  0.4437
32096SOL    HW199693   9.652   0.179   2.573  0.7187 -0.5060  0.0914
32096SOL    HW299694   9.563   0.259   2.480  0.6205  1.1024  1.5411
32097SOL     OW99695   6.138   2.775   2.780  0.0758 -0.2163  0.2092
32097SOL    HW199696   6.111   2.712   2.714 -1.1507  0.1287  0.3767
32097SOL    HW299697   6.058   2.820   2.805  0.3421 -1.0289  2.6545
32098SOL     OW99698   1.717   0.212   1.159  0.2008  0.2562  0.4823
32098SOL    HW199699   1.689   0.200   1.068 -1.1007 -1.0823  1.0466
32098SOL    HW299700   1.783   0.144   1.173  0.7545  0.7731  0.4012
32099SOL     OW99701   3.190   5.848   8.399  0.0378  0.0983  0.2006
32099SOL    HW199702   3.120   5.825   8.460 -1.8786  3.2273 -0.7006
32099SOL    HW299703   3.215   5.937   8.425  3.3678 -0.7628  0.1643
32100SOL     OW99704   9.266   9.180   3.258 -0.2123  0.1061 -0.3416
32100SOL    HW199705   9.206   9.194   3.332  1.2771 -0.3534  0.9829
32100SOL    HW299706   9.333   9.247   3.269 -0.0190  0.0792 -1.3353
32101SOL     OW99707   9.212  10.532   7.916 -0.3371 -0.1422 -0.2154
32101SOL    HW199708   9.216  10.464   7.849  0.1086 -1.0250  0.6895
32101SOL    HW299709   9.268  10.499   7.987 -1.0859  0.6144  0.7336
32102SOL     OW99710   7.208   8.324  10.711  0.7095 -0.4162 -0.0621
32102SOL    HW199711   7.165   8.277  10.639 -1.0557  0.8958  0.0736
32102SOL    HW299712   7.136   8.352  10.767  1.5785  2.8644 -0.4168
32103SOL     OW99713   4.992  10.085   3.749 -0.9672  0.2259  0.0549
32103SOL    HW199714   5.016  10.165   3.795  1.8635 -0.3566 -0.3196
32103SOL    HW299715   4.973  10.113   3.660  1.1433  0.3794 -0.3787
32104SOL     OW99716   8.012   3.067   7.260 -0.4335 -0.6192 -0.1003
32104SOL    HW199717   8.026   2.977   7.288 -1.9400 -1.1998 -1.1345
32104SOL    HW299718   8.100   3.099   7.236  0.0766 -1.8804  0.0692
32105SOL     OW99719   9.109   7.204   5.669  0.2941 -0.3932 -0.1607
32105SOL    HW199720   9.158   7.272   5.716  0.1429  0.6174 -1.4299
32105SOL    HW299721   9.133   7.216   5.577 -1.5605 -0.5165 -0.6877
32106SOL     OW99722   5.633   0.676   8.999  0.1769 -0.0312  0.0077
32106SOL    HW199723   5.552   0.654   9.046  0.3008  0.7119  0.5693
32106SOL    HW299724   5.607   0.679   8.907 -1.2668  3.7485  0.4414
32107SOL     OW99725   7.185   1.407   9.345 -0.1349 -0.4295  0.1322
32107SOL    HW199726   7.125   1.471   9.382 -0.0844  1.1100 -2.2915
32107SOL    HW299727   7.252   1.395   9.412 -1.2433  0.5128  1.4310
32108SOL     OW99728   1.933   3.183   5.905  0.4979  0.1529  0.1496
32108SOL    HW199729   2.028   3.186   5.900  0.5526 -0.4804  0.7741
32108SOL    HW299730   1.912   3.211   5.994  0.1582 -0.8283  0.3796
32109SOL     OW99731   0.315   2.141   5.821 -0.4078 -0.5466  0.3555
32109SOL    HW199732   0.265   2.214   5.784 -0.1109 -1.4902 -2.0428
32109SOL    HW299733   0.358   2.101   5.745  1.0380 -1.9926  1.8907
32110SOL     OW99734   6.637   7.735   6.961  0.4618  0.4571  0.3599
32110SOL    HW199735   6.579   7.790   7.013  0.3490  0.3602  0.3378
32110SOL    HW299736   6.656   7.660   7.017  0.7824  0.6193  0.4676
32111SOL     OW99737   9.148  10.502   0.634 -0.1098  0.4854 -0.0674
32111SOL    HW199738   9.139  10.597   0.626  0.5313  0.3568 -2.6667
32111SOL    HW299739   9.073  10.475   0.688 -1.0639  2.2855 -0.4633
32112SOL     OW99740   7.051   9.180   3.707  0.7923 -0.5443  0.6039
32112SOL    HW199741   7.099   9.110   3.662 -1.2436 -2.3686  1.1697
32112SOL    HW299742   6.967   9.184   3.661 -0.0740 -0.2333  2.1767
32113SOL     OW99743   2.609   4.782   5.019 -0.1142 -0.3860 -0.0969
32113SOL    HW199744   2.641   4.853   5.074  1.8418  1.1850 -3.0908
32113SOL    HW299745   2.537   4.821   4.969  0.5897 -0.6257 -1.3314
32114SOL     OW99746   3.924   3.356  10.342 -0.1478  0.0089 -0.3564
32114SOL    HW199747   3.898   3.438  10.300  0.1455  0.0628 -0.4282
32114SOL    HW299748   3.841   3.311  10.359 -0.2940  0.2065 -0.5467
32115SOL     OW99749   7.650  10.451   1.540 -0.2706 -0.1801  0.5681
32115SOL    HW199750   7.675  10.359   1.538  4.3170  0.9425  0.9658
32115SOL    HW299751   7.620  10.466   1.630 -0.5404 -1.1371  0.6413
32116SOL     OW99752   4.460   8.363   9.161 -0.5134  0.2244  0.1984
32116SOL    HW199753   4.373   8.330   9.182  0.3274 -0.9507  1.9915
32116SOL    HW299754   4.468   8.444   9.212 -0.3999  0.0953  0.3870
32117SOL     OW99755   7.595   4.894   8.587 -0.3023  0.6506  0.2676
32117SOL    HW199756   7.660   4.946   8.635 -1.6915  1.8274  0.8867
32117SOL    HW299757   7.583   4.940   8.504  0.6638 -0.3384 -0.4478
32118SOL     OW99758   9.565   2.364   6.003  0.4392 -0.0521  0.2143
32118SOL    HW199759   9.580   2.315   5.922  0.9001 -1.6430  1.2532
32118SOL    HW299760   9.620   2.442   5.995 -3.0860  2.3214 -3.1308
32119SOL     OW99761   8.060   6.228   1.691 -0.4549  0.0742  0.2110
32119SOL    HW199762   8.140   6.229   1.639 -0.4810  0.6971  0.1780
32119SOL    HW299763   8.031   6.136   1.689  1.8152 -0.7484  2.6356
32120SOL     OW99764   1.574   7.095   9.521  0.4639  0.1223 -0.0318
32120SOL    HW199765   1.616   7.045   9.591 -1.1546  0.2554  1.0669
32120SOL    HW299766   1.508   7.035   9.486  0.2573  0.5876 -0.4383
32121SOL     OW99767   7.301   8.613   1.802  0.5046  0.6691 -0.5419
32121SOL    HW199768   7.241   8.677   1.765  0.1181  0.8420  0.3856
32121SOL    HW299769   7.382   8.624   1.751  0.0475  1.0441 -1.1925
32122SOL     OW99770   1.259  10.783   3.101 -0.2814 -0.0009 -0.2732
32122SOL    HW199771   1.206  10.735   3.038 -0.0486 -0.0319 -0.4482
32122SOL    HW299772   1.320  10.834   3.047 -0.4234  0.3686 -0.0861
32123SOL     OW99773   0.467   8.189  10.544  0.0875 -0.0833 -0.2993
32123SOL    HW199774   0.541   8.249  10.546  0.1703 -0.1284 -1.5631
32123SOL    HW299775   0.467   8.154  10.455 -0.0825 -1.7914  0.3498
32124SOL     OW99776   1.434   4.505   6.248  0.5486 -0.9404  0.2691
32124SOL    HW199777   1.394   4.433   6.297 -3.1824  0.6812 -0.2293
32124SOL    HW299778   1.469   4.463   6.169 -0.6769 -2.3689  0.4553
32125SOL     OW99779   5.347   8.651   1.876  0.1206  0.2352  0.2042
32125SOL    HW199780   5.354   8.620   1.966 -1.3797  0.7562  0.5173
32125SOL    HW299781   5.436   8.679   1.852  0.3057  1.1223  1.8866
32126SOL     OW99782   2.042   7.625   0.306 -0.0806 -0.2351  0.0157
32126SOL    HW199783   1.992   7.548   0.332  0.1874  0.0090  1.2821
32126SOL    HW299784   2.099   7.643   0.381  0.0326  1.0466 -0.3679
32127SOL     OW99785   5.459   6.738   5.892 -0.0397 -0.2450  0.0447
32127SOL    HW199786   5.410   6.685   5.830  0.4147  2.4314 -2.7394
32127SOL    HW299787   5.549   6.736   5.860 -0.1206  2.6291 -0.4918
32128SOL     OW99788   3.027   4.296   3.318  0.6432 -0.0492  0.5123
32128SOL    HW199789   3.084   4.356   3.368 -0.8313  2.1003 -0.2973
32128SOL    HW299790   2.994   4.235   3.384  1.4874  0.5793  1.5464
32129SOL     OW99791   3.076   4.591   4.495 -0.1556 -0.4776 -0.0958
32129SOL    HW199792   3.023   4.529   4.545  0.1367 -1.3185 -0.8134
32129SOL    HW299793   3.130   4.536   4.438  0.9449  0.3921  0.0769
32130SOL     OW99794   5.340  10.819  10.133 -0.5253  0.0328 -0.3542
32130SOL    HW199795   5.359  10.901  10.086  0.9496 -0.3544 -0.4497
32130SOL    HW299796   5.390  10.752  10.085 -1.9015 -0.9681 -0.4097
32131SOL     OW99797  10.296   3.432   6.557 -0.4265 -0.4850  0.2300
32131SOL    HW199798  10.241   3.510   6.549 -0.0640 -0.1217  1.2762
32131SOL    HW299799  10.304   3.400   6.467  1.7961  2.3280 -0.6841
32132SOL     OW99800   5.299   3.187   8.839  0.0583  0.5354  0.5953
32132SOL    HW199801   5.219   3.239   8.844 -0.8095 -0.8176  1.2166
32132SOL    HW299802   5.289   3.121   8.907  1.3811 -0.1215  0.1853
32133SOL     OW99803   7.098   7.141   3.430 -0.2164 -0.1884  0.2609
32133SOL    HW199804   7.122   7.063   3.380 -1.0317 -0.6280  0.5504
32133SOL    HW299805   7.177   7.195   3.429  0.9493 -1.8395  1.6181
32134SOL     OW99806  10.745   8.416   4.739 -0.3573 -0.0276  0.0700
32134SOL    HW199807  10.777   8.440   4.652 -2.2183  1.8520 -0.1400
32134SOL    HW299808  10.714   8.326   4.729 -0.4378  0.1272 -1.1868
32135SOL     OW99809   0.848   2.498   6.399  0.5329 -0.1291 -0.2367
32135SOL    HW199810   0.781   2.537   6.343 -0.4514 -2.2946 -0.6088
32135SOL    HW299811   0.891   2.573   6.441 -0.4133  1.3935 -1.9305
32136SOL     OW99812   6.288  10.797   9.986  0.0088 -0.4306 -0.5680
32136SOL    HW199813   6.268  10.836  10.071  0.8213 -0.1761 -0.4865
32136SOL    HW299814   6.364  10.847   9.954  2.3621 -3.2113  0.4150
32137SOL     OW99815   6.456   6.505   0.084  0.3914  0.0716 -0.1881
32137SOL    HW199816   6.506   6.583   0.061 -2.8417  1.9829 -1.0524
32137SOL    HW299817   6.453   6.506   0.180 -0.1687  1.3764 -0.2100
32138SOL     OW99818   1.119   7.704   3.891 -0.6369  0.3373  0.2920
32138SOL    HW199819   1.145   7.753   3.969 -3.5031  2.3561  0.0645
32138SOL    HW299820   1.110   7.613   3.921  1.0597  0.5759  1.6030
32139SOL     OW99821   6.845   6.889   5.490  0.6907  0.2507 -0.2979
32139SOL    HW199822   6.805   6.812   5.532  0.9200  0.7810  0.9040
32139SOL    HW299823   6.938   6.881   5.510  0.6798  0.9760  0.0439
32140SOL     OW99824  10.724   3.147   1.361 -0.2267 -0.3232  0.5669
32140SOL    HW199825  10.671   3.212   1.406  1.2026  0.9461  0.4213
32140SOL    HW299826  10.753   3.087   1.430 -0.9154 -0.3998  0.8008
32141SOL     OW99827   5.685   2.898  10.659  0.0606  0.4711 -0.0428
32141SOL    HW199828   5.772   2.907  10.619  0.9535  0.8067  1.9167
32141SOL    HW299829   5.668   2.804  10.660  1.4711  0.2195  1.7583
32142SOL     OW99830  10.660   0.002   0.418 -0.0032 -0.1789 -0.1212
32142SOL    HW199831  10.570  -0.012   0.445  0.3961 -0.1987  1.2321
32142SOL    HW299832  10.709  -0.068   0.460  0.5425 -0.5965 -1.4383
32143SOL     OW99833   3.559   5.135   4.318 -0.1933 -0.3218  0.1595
32143SOL    HW199834   3.535   5.059   4.371 -1.3925 -0.1404 -0.1159
32143SOL    HW299835   3.495   5.136   4.246  0.0181  0.7478 -0.0279
32144SOL     OW99836   0.213   5.980  10.246 -0.1470  0.0010  0.1229
32144SOL    HW199837   0.238   6.052  10.188  1.1103 -0.2315  0.3689
32144SOL    HW299838   0.290   5.966  10.301 -1.4383  0.4036  2.0500
32145SOL     OW99839   9.586   4.684   6.911  0.2085  0.1460 -0.5950
32145SOL    HW199840   9.523   4.752   6.888  0.6393  0.4421 -0.9072
32145SOL    HW299841   9.596   4.633   6.830  1.5480  1.0445 -1.0170
32146SOL     OW99842   7.513   8.923   9.705 -0.0632 -0.3923 -0.3219
32146SOL    HW199843   7.451   8.871   9.755 -1.1222  1.7153  0.6162
32146SOL    HW299844   7.485   8.912   9.614 -0.0290 -1.7339 -0.1881
32147SOL     OW99845   6.450  10.221   2.070 -0.6074  0.2977 -0.1530
32147SOL    HW199846   6.399  10.153   2.026 -0.8852  0.9980 -0.9325
32147SOL    HW299847   6.519  10.244   2.007 -0.6425  0.8765  0.0150
32148SOL     OW99848   9.240   8.960   3.795 -0.0413  0.1141 -0.5581
32148SOL    HW199849   9.189   8.982   3.718 -0.0408 -1.0986 -0.9237
32148SOL    HW299850   9.323   9.007   3.784  0.2327 -0.6066 -1.6531
32149SOL     OW99851   4.040   7.108   4.994  0.1259 -0.2325 -0.1459
32149SOL    HW199852   4.050   7.197   4.962 -1.3502  0.1569  0.4368
32149SOL    HW299853   4.054   7.053   4.917  0.3647  0.5280 -0.6511
32150SOL     OW99854  10.961   3.776  10.579  0.0539  0.8664 -0.0497
32150SOL    HW199855  10.880   3.763  10.530 -0.9940 -0.4345  1.9696
32150SOL    HW299856  10.982   3.689  10.614  1.1308  1.6400  1.2520
32151SOL     OW99857   6.921  10.916   6.116 -0.3294 -0.1634 -0.4357
32151SOL    HW199858   6.953  10.827   6.135  0.7674  0.3563  0.1650
32151SOL    HW299859   6.826  10.909   6.128 -0.3504 -1.4660 -1.2214
32152SOL     OW99860   8.041   1.549   0.690 -0.1862 -0.0277  0.1427
32152SOL    HW199861   7.982   1.539   0.765  0.3400  0.6802  0.6604
32152SOL    HW299862   8.028   1.470   0.638 -1.4413  0.0204  0.3617
32153SOL     OW99863   2.113   0.042  10.050  0.2319  0.9429 -0.8724
32153SOL    HW199864   2.030   0.079  10.020 -0.6903 -0.1336  0.3130
32153SOL    HW299865   2.098  -0.052  10.050  1.4950  0.7385 -0.7228
32154SOL     OW99866   2.382   8.577   8.674 -0.0876  0.1285  0.6876
32154SOL    HW199867   2.399   8.639   8.745  1.1381  0.6974 -0.0969
32154SOL    HW299868   2.466   8.535   8.658 -0.5650 -0.6515  0.1689
32155SOL     OW99869   9.736   6.191   8.276 -0.0677 -0.1804 -0.0322
32155SOL    HW199870   9.759   6.205   8.184  1.6518  0.2059  0.4491
32155SOL    HW299871   9.708   6.100   8.280  0.7746 -0.4718 -0.7535
32156SOL     OW99872   9.262   6.503   4.741  0.2412  0.1778 -0.0958
32156SOL    HW199873   9.318   6.574   4.709 -0.0737  0.2223 -0.5438
32156SOL    HW299874   9.298   6.481   4.828 -0.1492  1.4083  0.3803
32157SOL     OW99875   4.626   2.344  10.689  0.0714 -0.4901  0.1553
32157SOL    HW199876   4.674   2.380  10.764 -1.0739 -0.8983  1.0971
32157SOL    HW299877   4.688   2.348  10.617  0.6385  1.5159  0.7167
32158SOL     OW99878   8.133   4.423   2.241 -0.6800 -0.0405  0.1621
32158SOL    HW199879   8.139   4.486   2.312  0.7528 -0.6297  0.5951
32158SOL    HW299880   8.078   4.465   2.175  0.3552  1.7054  0.3820
32159SOL     OW99881   7.741   4.632   1.524 -0.2259  0.1020  0.1132
32159SOL    HW199882   7.696   4.550   1.505 -2.8846  1.0853  1.8790
32159SOL    HW299883   7.760   4.669   1.438 -1.8926 -0.8646 -0.7094
32160SOL     OW99884   9.975   1.521   8.895  0.3028  0.2289 -0.8499
32160SOL    HW199885   9.906   1.538   8.831  1.3499  2.2859 -1.4506
32160SOL    HW299886   9.965   1.428   8.916 -2.1041  0.2910 -1.5492
32161SOL     OW99887   6.568   3.178   2.545  0.2897  0.0380  0.6642
32161SOL    HW199888   6.583   3.207   2.635 -0.5272 -0.8589  1.0945
32161SOL    HW299889   6.514   3.247   2.507 -0.9587 -0.5055  1.4389
32162SOL     OW99890   3.887   8.669   4.411  0.3520 -0.3357 -0.0146
32162SOL    HW199891   3.900   8.703   4.500  0.4355  0.7428 -0.4283
32162SOL    HW299892   3.834   8.736   4.367 -0.4029 -1.2513 -0.5331
32163SOL     OW99893   7.985   0.119   8.265  0.3721  0.2663 -0.5754
32163SOL    HW199894   8.033   0.187   8.217  1.2786 -0.4729 -0.7268
32163SOL    HW299895   7.943   0.067   8.197  0.8947 -0.2193 -0.5309
32164SOL     OW99896   3.758   1.355   2.229  0.4285 -0.0272 -0.0013
32164SOL    HW199897   3.793   1.398   2.307  1.8142 -0.7197 -0.2263
32164SOL    HW299898   3.822   1.288   2.208 -0.9025 -1.1239 -0.6152
32165SOL     OW99899   0.770   5.265  10.202  0.1705 -0.0844 -0.1493
32165SOL    HW199900   0.697   5.265  10.263  0.2936 -0.0089 -0.0012
32165SOL    HW299901   0.730   5.265  10.115 -0.0059 -0.6183 -0.0695
32166SOL     OW99902   0.847   5.696   0.492  0.4726 -0.0225  0.3231
32166SOL    HW199903   0.912   5.742   0.545 -1.5680  1.1977  1.7930
32166SOL    HW299904   0.788   5.655   0.556 -1.3947  0.5681 -0.9959
32167SOL     OW99905   1.057   1.713   3.114  0.1494 -0.2764  0.4377
32167SOL    HW199906   1.118   1.727   3.042  0.8058 -1.2790  0.7949
32167SOL    HW299907   0.993   1.650   3.079 -1.7181  2.0975 -0.5342
32168SOL     OW99908   3.360   3.104   7.851  0.0529  0.1813  0.2474
32168SOL    HW199909   3.321   3.078   7.934  0.5378  0.5789  0.6076
32168SOL    HW299910   3.287   3.135   7.798 -0.2234  0.1502  0.6108
32169SOL     OW99911   8.553   1.621   1.966  0.4713 -0.4129 -0.5841
32169SOL    HW199912   8.593   1.698   1.926 -1.6886  1.5112  0.8383
32169SOL    HW299913   8.610   1.601   2.041  0.9766 -0.1771 -0.8973
32170SOL     OW99914   0.046   4.529   2.342 -0.3879 -0.0978  0.0703
32170SOL    HW199915   0.141   4.539   2.341 -0.4569  0.6040  0.2679
32170SOL    HW299916   0.023   4.504   2.253  0.0111 -0.5212  0.0873
32171SOL     OW99917   1.274   8.861   4.594  0.1065 -0.1235  0.2558
32171SOL    HW199918   1.200   8.817   4.637  2.0069 -3.1507  0.6058
32171SOL    HW299919   1.251   8.861   4.501 -0.6621 -0.3526  0.4417
32172SOL     OW99920   9.263  10.963   1.556 -0.3632  0.6574 -0.0786
32172SOL    HW199921   9.323  11.038   1.564  1.0297 -0.2146 -2.0176
32172SOL    HW299922   9.235  10.964   1.464 -2.0441  0.0710  0.4100
32173SOL     OW99923   0.005   8.049   7.390 -0.0968  0.3313 -0.1084
32173SOL    HW199924   0.009   8.033   7.485  0.6394  2.2737  0.2261
32173SOL    HW299925   0.084   8.099   7.371  0.5493 -1.4056 -2.0661
32174SOL     OW99926   5.465   4.023   5.738  0.7962 -0.1828  0.1784
32174SOL    HW199927   5.427   3.983   5.816  0.3977 -0.0258  0.0699
32174SOL    HW299928   5.439   3.965   5.666  1.2950 -0.4115  0.1831
32175SOL     OW99929   8.462   9.994   6.982 -0.1008  0.1255  0.4107
32175SOL    HW199930   8.430  10.058   6.919  0.6827 -0.4397 -0.5679
32175SOL    HW299931   8.397   9.995   7.052 -1.0297  0.6763 -0.4502
32176SOL     OW99932   1.011   0.141   5.386 -0.6124  0.2581 -0.3691
32176SOL    HW199933   0.953   0.161   5.459 -0.3806 -0.0260 -0.1093
32176SOL    HW299934   0.980   0.197   5.315 -3.4544 -2.4505 -1.3284
32177SOL     OW99935   0.781  10.261   7.330  0.0009  0.3591 -0.1727
32177SOL    HW199936   0.835  10.233   7.256 -0.6485 -0.6230 -0.2798
32177SOL    HW299937   0.723  10.328   7.293 -2.0235 -1.8964 -1.1431
32178SOL     OW99938   9.470   8.116   2.443 -0.6040 -0.4314 -0.4912
32178SOL    HW199939   9.500   8.161   2.364 -0.1098 -0.2441 -0.1952
32178SOL    HW299940   9.546   8.113   2.500 -1.9032  2.8324  1.5592
32179SOL     OW99941   5.859   8.365   7.884 -0.0388 -0.3865  0.1109
32179SOL    HW199942   5.934   8.421   7.861 -1.1780  1.6924  1.3265
32179SOL    HW299943   5.856   8.368   7.980 -1.0180 -1.3700  0.1155
32180SOL     OW99944  10.532   4.243  10.397  0.0053 -0.1435  0.1611
32180SOL    HW199945  10.486   4.207  10.472 -1.7325  0.5059 -0.5630
32180SOL    HW299946  10.560   4.330  10.425  0.7553 -0.5128  0.5782
32181SOL     OW99947   8.363   0.015   1.610  0.0259 -0.2758  0.2471
32181SOL    HW199948   8.403  -0.031   1.684  0.0563  0.9715  1.0145
32181SOL    HW299949   8.360   0.107   1.637 -1.5858 -0.0649 -0.5730
32182SOL     OW99950   4.992   1.782   3.935 -0.3156 -0.1470  0.6140
32182SOL    HW199951   5.083   1.808   3.923 -0.5159 -0.6670 -2.3066
32182SOL    HW299952   4.991   1.689   3.915 -1.5490 -0.0716  0.2875
32183SOL     OW99953   0.551   6.621   7.707  0.1466 -0.6138 -0.2513
32183SOL    HW199954   0.608   6.697   7.696  1.6308 -1.7956 -0.9210
32183SOL    HW299955   0.462   6.657   7.709  0.9304  1.3098  1.2527
32184SOL     OW99956   0.969   0.745   5.879  0.2276 -0.0318 -0.0841
32184SOL    HW199957   0.889   0.700   5.906 -1.8843  1.2348 -3.8716
32184SOL    HW299958   0.958   0.834   5.912  0.2069  0.0647 -0.3520
32185SOL     OW99959   2.141   1.753   6.061 -0.1573  0.3851 -0.0612
32185SOL    HW199960   2.073   1.687   6.047  0.4901 -0.6019  1.3569
32185SOL    HW299961   2.209   1.730   5.998  0.2641 -0.5782  0.7447
32186SOL     OW99962   3.774   3.252   6.855  0.0443 -0.5612 -0.1558
32186SOL    HW199963   3.745   3.314   6.922 -0.3123 -0.5493 -0.3235
32186SOL    HW299964   3.868   3.267   6.848 -0.5670  2.3382 -2.6772
32187SOL     OW99965   4.750   8.690   6.293 -0.3071  1.1181 -0.1779
32187SOL    HW199966   4.745   8.786   6.299 -1.7973  1.1150 -0.9680
32187SOL    HW299967   4.661   8.663   6.271  0.3272 -0.3723 -1.0239
32188SOL     OW99968   5.334   7.436   1.558  0.3781 -0.2976  0.4648
32188SOL    HW199969   5.305   7.417   1.469 -0.3452 -2.4258  1.1062
32188SOL    HW299970   5.294   7.520   1.579  1.1593  0.5817 -1.4657
32189SOL     OW99971   2.528   9.677   1.294 -0.0244 -0.4000 -0.5860
32189SOL    HW199972   2.544   9.772   1.296 -0.3137 -0.3416 -0.9247
32189SOL    HW299973   2.536   9.650   1.385  0.3304 -0.0932 -0.5220
32190SOL     OW99974   9.650   0.498   1.666 -0.2299 -0.2301 -0.4143
32190SOL    HW199975   9.670   0.439   1.594  1.0296 -1.6388  1.0417
32190SOL    HW299976   9.726   0.557   1.671 -0.4396  0.0419 -0.4114
32191SOL     OW99977   3.119   3.650   3.954 -0.1205 -0.2352  0.2153
32191SOL    HW199978   3.134   3.572   3.900 -0.2412 -0.5121  0.5784
32191SOL    HW299979   3.175   3.637   4.030  1.1717  0.8571 -0.5202
32192SOL     OW99980   4.106   6.113   4.364 -0.0350  0.4184  0.5550
32192SOL    HW199981   4.032   6.059   4.390  0.9961 -1.3753 -0.1789
32192SOL    HW299982   4.163   6.115   4.440  0.1440  0.1157  0.4260
32193SOL     OW99983   2.589   9.318   5.304  0.0547 -0.1639  0.4837
32193SOL    HW199984   2.578   9.224   5.319 -1.0170 -1.0833 -5.0534
32193SOL    HW299985   2.683   9.332   5.300  0.1955 -1.2697 -0.0439
32194SOL     OW99986   6.938   7.027   1.843 -0.0276  0.1589  0.3497
32194SOL    HW199987   6.928   7.110   1.797 -0.1346 -0.1565 -0.1998
32194SOL    HW299988   6.849   6.999   1.864 -0.0759 -0.4917 -0.6814
32195SOL     OW99989   8.387   1.923   9.051 -0.3318  0.2948 -0.4555
32195SOL    HW199990   8.326   1.850   9.046 -1.2861  0.9832  1.0045
32195SOL    HW299991   8.467   1.885   9.087 -0.6716 -0.1326 -0.1511
32196SOL     OW99992   0.501   8.696   4.694  0.1968 -0.2707 -0.1968
32196SOL    HW199993   0.475   8.725   4.781  1.5359  2.5859 -0.6912
32196SOL    HW299994   0.419   8.666   4.653 -1.2324  2.5156  0.5021
32197SOL     OW99995   4.724   2.475   2.423 -0.1379  0.6054  0.4983
32197SOL    HW199996   4.725   2.559   2.376  0.7502  0.2452 -0.1440
32197SOL    HW299997   4.714   2.409   2.354 -1.8043  0.2194  1.0754
32198SOL     OW99998   9.336   4.163   0.148  0.2563  1.0505  0.1388
32198SOL    HW199999   9.411   4.110   0.119 -0.3204 -0.2037  0.8952
32198SOL    HW2    0   9.260   4.117   0.113 -0.2399  1.5009  0.6296
32199SOL     OW    1   7.905   1.443   5.799 -0.6217 -0.2448 -0.1738
32199SOL    HW1    2   7.877   1.387   5.727  0.8604  0.4673 -1.3132
32199SOL    HW2    3   7.930   1.382   5.868 -1.5757 -0.9324 -0.4218
32200SOL     OW    4   7.817   6.512   6.519  0.5654  0.1483 -0.2223
32200SOL    HW1    5   7.823   6.416   6.516  0.4399  0.1365 -0.1138
32200SOL    HW2    6   7.817   6.533   6.612  1.8777  0.3385 -0.2534
32201SOL     OW    7   5.568   3.858   7.126  0.1479  0.3789 -0.8305
32201SOL    HW1    8   5.530   3.940   7.094  1.1864  0.9784 -0.5564
32201SOL    HW2    9   5.596   3.811   7.047 -0.8809  0.0671 -1.0148
32202SOL     OW   10   9.851   2.191   6.710  0.0336 -0.3886  0.0746
32202SOL    HW1   11   9.801   2.149   6.640 -0.5733 -0.6664  0.6728
32202SOL    HW2   12   9.788   2.247   6.755  0.6209  0.4719 -0.1328
32203SOL     OW   13   2.109   6.494   4.185  0.0636  0.6444  0.5051
32203SOL    HW1   14   2.092   6.553   4.112  2.0983 -0.7629 -1.1747
32203SOL    HW2   15   2.201   6.510   4.207 -0.0480 -0.1879  1.6108
32204SOL     OW   16   6.241  10.640   1.135 -0.1057 -0.4144 -0.5315
32204SOL    HW1   17   6.276  10.681   1.215 -0.2984 -0.3058 -0.5036
32204SOL    HW2   18   6.148  10.628   1.153 -0.1954 -0.1754 -0.8302
32205SOL     OW   19   4.770   7.563  10.850  0.3248 -0.3063 -0.3515
32205SOL    HW1   20   4.715   7.509  10.793 -1.1630  0.8026  0.0241
32205SOL    HW2   21   4.758   7.526  10.937 -2.0464  1.6219  0.2045
32206SOL     OW   22   2.686   7.980   2.612  0.0431  0.4300  0.2240
32206SOL    HW1   23   2.777   8.002   2.596 -0.2664  3.4092  2.1214
32206SOL    HW2   24   2.637   8.028   2.544 -0.0108 -3.1609 -2.3711
32207SOL     OW   25   5.597   9.331   1.699 -0.0259 -0.8181  0.5223
32207SOL    HW1   26   5.612   9.425   1.705 -0.5721 -0.5814 -1.7005
32207SOL    HW2   27   5.671   9.293   1.748 -0.7083  0.7536  2.8946
32208SOL     OW   28   9.644   8.205   3.747  0.5716 -0.4055 -0.5564
32208SOL    HW1   29   9.713   8.168   3.801  0.3375 -0.5843 -0.3750
32208SOL    HW2   30   9.642   8.149   3.669  0.6054 -0.4232 -0.5446
32209SOL     OW   31   3.314   9.001   4.188 -0.6250  0.5929  0.9332
32209SOL    HW1   32   3.409   9.004   4.175 -1.0582 -0.2361 -3.2014
32209SOL    HW2   33   3.290   9.091   4.211  1.1436  0.8132  2.0004
32210SOL     OW   34   2.615   5.055   5.148  0.4865  0.2513  0.4056
32210SOL    HW1   35   2.660   5.049   5.232  1.2733 -0.0855 -0.0261
32210SOL    HW2   36   2.686   5.058   5.083 -0.1194 -0.4750 -0.3033
32211SOL     OW   37   1.899   2.524   4.886 -0.4716 -0.0225 -0.1080
32211SOL    HW1   38   1.839   2.467   4.933 -0.5563  1.0390  1.1138
32211SOL    HW2   39   1.977   2.471   4.870  0.3639  0.1938  3.0529
32212SOL     OW   40   4.790   3.529   0.104 -0.2135  0.2996  0.0283
32212SOL    HW1   41   4.798   3.579   0.185  0.4568  1.5059 -0.7737
32212SOL    HW2   42   4.837   3.580   0.038 -0.4219 -0.8504 -1.0529
32213SOL     OW   43   3.359   1.378   8.497  0.2273  0.0198  0.5383
32213SOL    HW1   44   3.328   1.426   8.574 -0.9691 -0.4564  0.3609
32213SOL    HW2   45   3.425   1.435   8.458 -1.0168  1.4404  0.4663
32214SOL     OW   46   6.108   9.116   3.970 -0.6102  0.3924 -0.0015
32214SOL    HW1   47   6.093   9.021   3.974 -2.1512  0.4866 -2.2747
32214SOL    HW2   48   6.131   9.141   4.059 -1.4249 -1.9335  0.8941
32215SOL     OW   49  10.749   5.469   2.329  0.4886 -0.1035  0.2044
32215SOL    HW1   50  10.842   5.488   2.334  0.7329 -0.6984 -1.6499
32215SOL    HW2   51  10.706   5.545   2.369  1.7167  0.7366 -0.0573
32216SOL     OW   52   1.068   2.263   5.300 -0.1741 -0.2842 -0.0829
32216SOL    HW1   53   1.157   2.297   5.315 -0.0415 -0.3445 -0.7443
32216SOL    HW2   54   1.082   2.176   5.263 -0.5104 -0.3184 -0.1219
32217SOL     OW   55   3.661   0.447   3.934  0.1559 -0.6262 -0.5281
32217SOL    HW1   56   3.733   0.508   3.952 -1.6457  0.6911  2.5306
32217SOL    HW2   57   3.678   0.416   3.845  3.2563  1.3611 -0.7109
32218SOL     OW   58   1.703   5.308   1.068 -0.5592 -0.1388 -0.1904
32218SOL    HW1   59   1.677   5.398   1.086 -0.4154 -0.0038 -0.6686
32218SOL    HW2   60   1.656   5.256   1.133 -0.9630  0.2418 -0.1794
32219SOL     OW   61   8.835   1.156   4.391  0.6465  0.2303 -0.5988
32219SOL    HW1   62   8.819   1.224   4.326 -0.3447  0.9633  0.3819
32219SOL    HW2   63   8.781   1.182   4.466  0.7846 -1.2721  0.0379
32220SOL     OW   64   4.183  10.690   2.947  0.0897  0.1555 -0.6703
32220SOL    HW1   65   4.236  10.615   2.920  1.0002  0.6966 -0.3734
32220SOL    HW2   66   4.166  10.674   3.040 -0.9606 -0.4280 -0.9469
32221SOL     OW   67   1.422  10.704   4.311  0.5580  0.3090  0.1489
32221SOL    HW1   68   1.431  10.710   4.216 -0.5838  1.3247  0.0835
32221SOL    HW2   69   1.406  10.612   4.328  0.0111  0.2290 -0.7333
32222SOL     OW   70   6.631   2.533   6.063 -0.3434  0.2799  0.2373
32222SOL    HW1   71   6.651   2.578   6.145  0.7464  1.2742 -0.5480
32222SOL    HW2   72   6.536   2.542   6.053 -0.1960  2.0963  0.3059
32223SOL     OW   73   5.734   7.907   7.312  0.2573 -0.4960 -0.0915
32223SOL    HW1   74   5.743   7.871   7.224  0.3541  1.4530 -0.8995
32223SOL    HW2   75   5.652   7.869   7.345  0.8465 -2.1831 -0.5444
32224SOL     OW   76   5.005   7.282   3.694 -0.0448 -0.4402  0.4122
32224SOL    HW1   77   5.057   7.224   3.749  0.2971  0.0174  0.5760
32224SOL    HW2   78   4.996   7.362   3.746  0.6672  0.1594 -0.3915
32225SOL     OW   79   6.073   4.449   8.314 -0.3286  0.4511 -0.0491
32225SOL    HW1   80   6.063   4.512   8.242  2.8286  1.0608 -0.0389
32225SOL    HW2   81   6.079   4.503   8.393 -0.0344  0.0112  0.2326
32226SOL     OW   82   5.967   4.500   3.054  0.1718 -0.3212 -0.1399
32226SOL    HW1   83   6.016   4.471   2.977 -0.1687 -0.2200 -0.3889
32226SOL    HW2   84   6.011   4.580   3.082 -0.1027 -0.0139 -0.5987
32227SOL     OW   85   7.072   5.663   5.311 -0.0041  0.3588 -0.0430
32227SOL    HW1   86   7.166   5.668   5.295  0.1635 -1.7424  0.0714
32227SOL    HW2   87   7.063   5.665   5.406  0.1141 -1.4360  0.0339
32228SOL     OW   88  10.031   9.642   6.082 -0.0776 -0.5725  0.1977
32228SOL    HW1   89   9.971   9.713   6.061  1.1689 -0.2080 -2.3263
32228SOL    HW2   90   9.982   9.586   6.142 -1.6639  1.5284  0.9233
32229SOL     OW   91   2.303   0.143   4.204  0.2931 -0.6057  0.4487
32229SOL    HW1   92   2.254   0.085   4.263 -0.3709  0.3272  0.8296
32229SOL    HW2   93   2.374   0.177   4.259 -0.8757  1.0025  1.0242
32230SOL     OW   94   3.138   2.510  10.165 -0.2333  0.2330 -0.6667
32230SOL    HW1   95   3.113   2.592  10.124 -2.4391 -0.3880 -0.6099
32230SOL    HW2   96   3.164   2.534  10.254 -1.0358  0.8411 -0.5993
32231SOL     OW   97   3.487   0.386   2.051 -0.2383 -0.2239 -0.1392
32231SOL    HW1   98   3.466   0.347   2.136  0.6950 -0.6863 -0.1189
32231SOL    HW2   99   3.550   0.455   2.071 -1.6054  1.0991 -0.2158
32232SOL     OW  100   6.859   6.677   0.952  0.1415  0.7195  0.2914
32232SOL    HW1  101   6.811   6.606   0.909 -1.4407  1.6239  0.4967
32232SOL    HW2  102   6.943   6.680   0.907 -0.6225  0.1886 -1.2300
32233SOL     OW  103   6.877   2.549   7.724 -0.2926 -0.2249  0.4419
32233SOL    HW1  104   6.871   2.571   7.817  2.6260  1.5100  0.3016
32233SOL    HW2  105   6.818   2.610   7.681 -0.4998  0.0017  1.0407
32234SOL     OW  106  10.106   0.050   1.256  0.1698 -0.0726 -0.2750
32234SOL    HW1  107  10.074   0.140   1.268 -0.1353 -0.2890  0.5318
32234SOL    HW2  108  10.189   0.048   1.304  0.7684  0.1147 -1.2841
32235SOL     OW  109   8.968   5.585   5.729  0.0282 -0.2663  0.1740
32235SOL    HW1  110   8.946   5.675   5.753 -2.7081 -0.8620  0.0694
32235SOL    HW2  111   8.901   5.531   5.770 -0.0295 -2.0121 -2.0729
32236SOL     OW  112   5.806   3.604   7.609 -0.4967  0.1733  0.5615
32236SOL    HW1  113   5.895   3.615   7.642 -0.4078 -0.2370  0.4658
32236SOL    HW2  114   5.753   3.660   7.665 -0.5029 -1.3768  2.1710
32237SOL     OW  115   7.993   4.103   3.836  0.2822 -0.3795  0.0805
32237SOL    HW1  116   7.989   4.037   3.905 -1.2082 -0.5944 -0.1817
32237SOL    HW2  117   7.952   4.180   3.875 -0.8352 -0.5954 -0.6463
32238SOL     OW  118   7.704   0.355   9.734 -0.0166  1.1009  0.4852
32238SOL    HW1  119   7.616   0.350   9.696 -0.1986 -1.3482  1.1368
32238SOL    HW2  120   7.741   0.268   9.721  1.5996  1.5313  1.9490
32239SOL     OW  121  10.232   2.160  10.052  0.2805 -0.0808  0.0698
32239SOL    HW1  122  10.190   2.246  10.052  0.6106  0.0882 -1.3832
32239SOL    HW2  123  10.241   2.138   9.959  0.0989 -1.7353  0.4341
32240SOL     OW  124   8.264   6.847   2.258 -0.4614  0.3339  0.2784
32240SOL    HW1  125   8.344   6.797   2.278 -0.0614  2.0549  3.3234
32240SOL    HW2  126   8.193   6.783   2.265  0.4424 -0.7851 -0.5040
32241SOL     OW  127   5.607   5.051  10.493 -0.1885 -0.0566 -0.3304
32241SOL    HW1  128   5.677   5.077  10.553  0.6991 -0.3737 -1.2106
32241SOL    HW2  129   5.647   4.982  10.440 -0.9895  0.1909 -1.2475
32242SOL     OW  130   3.722   3.488   5.136  0.0093 -0.4483  0.2061
32242SOL    HW1  131   3.663   3.511   5.207 -0.3811  0.9096 -0.5323
32242SOL    HW2  132   3.736   3.394   5.144 -1.1510 -0.5285  1.2173
32243SOL     OW  133   6.394  10.302   5.683 -0.5608 -0.2260  0.1489
32243SOL    HW1  134   6.401  10.206   5.683  1.0924 -0.1287  0.4609
32243SOL    HW2  135   6.456  10.330   5.616  0.8348  0.7066  1.7688
32244SOL     OW  136   7.360   1.183  10.695  0.0279 -0.1978 -0.1325
32244SOL    HW1  137   7.434   1.243  10.702 -1.4792  1.6217  0.7829
32244SOL    HW2  138   7.308   1.198  10.774 -1.6736 -0.9311 -1.0616
32245SOL     OW  139   8.559   4.894   3.733  0.0827 -0.0939  0.7472
32245SOL    HW1  140   8.628   4.959   3.719 -0.7344  0.2808 -1.8182
32245SOL    HW2  141   8.482   4.946   3.755  0.2101 -0.4164  1.9912
32246SOL     OW  142   0.280   9.116   7.115  0.0134  0.9701 -0.1980
32246SOL    HW1  143   0.188   9.089   7.119 -0.0970  1.4011  0.2092
32246SOL    HW2  144   0.286   9.190   7.176  0.4885  1.3604 -0.7155
32247SOL     OW  145   9.933   6.374   1.871 -0.8303 -0.6505  0.0487
32247SOL    HW1  146   9.981   6.448   1.833 -1.5550 -0.2881 -0.1758
32247SOL    HW2  147   9.993   6.337   1.935 -0.8497  0.7886  0.9154
32248SOL     OW  148  10.189   4.276   8.387 -0.1962 -0.0943 -0.2998
32248SOL    HW1  149  10.206   4.232   8.304 -2.0482  2.2545 -1.9879
32248SOL    HW2  150  10.203   4.208   8.453  1.4039 -1.9792 -2.4952
32249SOL     OW  151   5.085   2.217   4.182  0.2887 -0.1626 -0.2627
32249SOL    HW1  152   5.094   2.312   4.187 -4.3087  0.2901  1.2391
32249SOL    HW2  153   5.090   2.188   4.273 -3.5005 -0.7032 -0.1463
32250SOL     OW  154   2.103   6.258   0.323 -0.2234 -0.4908  0.1221
32250SOL    HW1  155   2.058   6.341   0.310  0.0976 -0.1319  1.2022
32250SOL    HW2  156   2.060   6.218   0.399 -1.3825 -2.0349 -1.3048
32251SOL     OW  157   8.257   5.341   9.124  0.6944  0.0678 -0.0910
32251SOL    HW1  158   8.219   5.266   9.170 -0.2034  0.5850  0.0172
32251SOL    HW2  159   8.277   5.404   9.193 -1.7812  1.3412 -0.4907
32252SOL     OW  160   9.063   9.902   4.525  0.0545  0.2099 -0.1544
32252SOL    HW1  161   9.132   9.837   4.513 -0.7820 -0.5167 -1.0667
32252SOL    HW2  162   9.108   9.986   4.515  0.7034 -0.2630 -1.2695
32253SOL     OW  163   8.290   7.606   6.883  0.5173 -0.1918 -0.2031
32253SOL    HW1  164   8.222   7.665   6.914 -1.0380 -1.7880 -0.4668
32253SOL    HW2  165   8.272   7.523   6.928  2.7701 -0.4343  0.3311
32254SOL     OW  166   8.644   4.635   3.918 -0.0578 -0.4860  0.4898
32254SOL    HW1  167   8.629   4.684   3.837  0.7501  0.5761  0.9591
32254SOL    HW2  168   8.647   4.703   3.986  0.8338 -1.2117  1.1880
32255SOL     OW  169   0.936  10.641   3.176 -0.5176 -0.4918  0.0957
32255SOL    HW1  170   0.969  10.723   3.212 -1.1529  0.0835 -0.6112
32255SOL    HW2  171   0.970  10.639   3.086 -2.1784 -0.0137 -0.5643
32256SOL     OW  172   5.557  10.505   0.886 -0.2601  0.0818 -0.2185
32256SOL    HW1  173   5.633  10.458   0.851  0.0322  0.8237 -0.6027
32256SOL    HW2  174   5.554  10.481   0.978 -0.6225 -1.3522 -0.6008
32257SOL     OW  175   3.194   4.302   0.202 -0.4823  0.1477 -0.2072
32257SOL    HW1  176   3.247   4.316   0.280  0.3209 -0.6067 -0.6200
32257SOL    HW2  177   3.133   4.232   0.227 -0.2945 -0.0227 -0.2296
32258SOL     OW  178   5.601   6.542   9.816  0.3550 -0.4046  0.0811
32258SOL    HW1  179   5.643   6.612   9.866 -0.7419 -0.0070  0.4750
32258SOL    HW2  180   5.596   6.577   9.726 -1.3010  0.5550  0.5210
32259SOL     OW  181   0.470  10.774   9.141 -0.6545  0.4880  0.2530
32259SOL    HW1  182   0.467  10.721   9.221  1.8967  0.2090  0.2211
32259SOL    HW2  183   0.438  10.860   9.168  0.3963  0.4580  1.6438
32260SOL     OW  184   5.562   3.142   6.930  0.1787 -0.0070  0.0178
32260SOL    HW1  185   5.477   3.101   6.915 -0.0007  0.6721 -0.8653
32260SOL    HW2  186   5.550   3.199   7.005 -0.9398  2.3212 -1.8637
32261SOL     OW  187  10.823   0.956   0.918 -0.1259 -0.2749 -0.2399
32261SOL    HW1  188  10.824   0.956   0.822  1.1295 -0.2606 -0.2353
32261SOL    HW2  189  10.914   0.969   0.942 -0.4007 -0.5815  0.9619
32262SOL     OW  190   7.046   1.716   0.698 -0.2260 -0.0548 -0.5040
32262SOL    HW1  191   7.062   1.668   0.779 -0.0586  2.1540  0.8065
32262SOL    HW2  192   7.101   1.672   0.633  0.6337 -1.0494  0.8745
32263SOL     OW  193   0.506   0.805   7.333  0.0686  0.0836  0.2354
32263SOL    HW1  194   0.522   0.850   7.415 -0.7189 -0.1399  0.5126
32263SOL    HW2  195   0.558   0.725   7.339  0.2739  0.2260  0.3702
32264SOL     OW  196   2.041   5.855   0.038  0.2987  0.0820 -0.3052
32264SOL    HW1  197   2.037   5.915  -0.037  1.0402 -1.1588 -1.3695
32264SOL    HW2  198   2.094   5.902   0.103  0.9227  0.5597 -1.1478
32265SOL     OW  199   6.138   0.603   9.237 -0.0377  0.1388  0.3495
32265SOL    HW1  200   6.074   0.636   9.300 -3.6840 -2.3326 -1.9007
32265SOL    HW2  201   6.088   0.590   9.157  3.8203  0.2003 -2.1719
32266SOL     OW  202   7.525   3.626   7.119  0.0209  0.1007 -0.4446
32266SOL    HW1  203   7.534   3.535   7.148 -1.4487 -0.6411 -2.2120
32266SOL    HW2  204   7.474   3.669   7.187 -0.6989 -0.8201 -0.4012
32267SOL     OW  205  10.599   9.232   7.406  0.4066  0.0056 -0.5405
32267SOL    HW1  206  10.571   9.143   7.428 -0.3519  0.7824  1.7901
32267SOL    HW2  207  10.673   9.220   7.347 -1.1248 -2.1389 -2.0999
32268SOL     OW  208   3.316   4.147   0.542 -0.2813 -0.3685 -1.2293
32268SOL    HW1  209   3.380   4.168   0.611 -0.1307  1.2694 -1.8422
32268SOL    HW2  210   3.289   4.232   0.508 -1.3830 -1.1217 -2.2696
32269SOL     OW  211   4.643   6.775   0.656 -0.6516  0.2402  0.0827
32269SOL    HW1  212   4.671   6.772   0.564  0.7170  2.1939  0.3835
32269SOL    HW2  213   4.691   6.704   0.698  0.6917  0.9154 -0.2510
32270SOL     OW  214   2.348   6.512   2.556  0.8898  0.2042 -0.3429
32270SOL    HW1  215   2.338   6.559   2.472  0.2368 -1.0119 -0.9567
32270SOL    HW2  216   2.263   6.524   2.599  1.3639  1.1777  0.3410
32271SOL     OW  217   9.101   1.048   7.989 -0.5064  0.3604 -0.2543
32271SOL    HW1  218   9.019   1.000   7.993  0.3885 -1.3035 -1.1797
32271SOL    HW2  219   9.077   1.134   7.955 -1.9164  0.0238 -0.1248
32272SOL     OW  220   4.155   8.283   3.394  0.4366 -0.1491 -0.1226
32272SOL    HW1  221   4.090   8.213   3.400 -0.7777  0.9099 -0.6568
32272SOL    HW2  222   4.136   8.340   3.469  1.6162 -0.5496  0.4891
32273SOL     OW  223   5.063   3.810   5.383 -0.6120  0.1605  0.2774
32273SOL    HW1  224   5.104   3.725   5.398  0.2282  0.2036 -1.7109
32273SOL    HW2  225   5.027   3.805   5.295 -0.7660  1.7926  0.2317
32274SOL     OW  226  10.562   3.975   2.921 -0.4384 -0.2640 -0.4890
32274SOL    HW1  227  10.652   3.987   2.949 -0.9522 -2.1386  2.1139
32274SOL    HW2  228  10.518   4.057   2.942 -0.3985 -1.0127  2.7015
32275SOL     OW  229   2.403  10.012  10.543 -0.5235 -0.4031 -0.1573
32275SOL    HW1  230   2.389   9.958  10.622  0.4607  0.6051  0.7152
32275SOL    HW2  231   2.494   9.997  10.520 -0.4246  0.3913 -0.2880
32276SOL     OW  232   7.363   3.040   6.939  0.7671  0.6181 -0.1699
32276SOL    HW1  233   7.453   3.056   6.968  0.7821  0.6635 -0.2408
32276SOL    HW2  234   7.372   2.997   6.854  0.7103  2.3047 -1.0482
32277SOL     OW  235   0.084   1.214   6.557  0.2796 -0.4037 -0.3374
32277SOL    HW1  236   0.147   1.286   6.551  0.7142 -0.8644 -1.4835
32277SOL    HW2  237   0.010   1.251   6.605 -0.3082  1.3950 -2.5375
32278SOL     OW  238   0.516   4.705   7.041 -0.0422 -0.3296 -0.1117
32278SOL    HW1  239   0.591   4.647   7.054 -0.9173 -0.9735  2.3432
32278SOL    HW2  240   0.525   4.772   7.109 -2.0105 -0.7933  0.6424
32279SOL     OW  241   3.587   5.550   9.173 -0.6435  0.4285  0.7001
32279SOL    HW1  242   3.543   5.633   9.158 -1.3601 -0.0707 -0.0286
32279SOL    HW2  243   3.595   5.510   9.086 -0.5996 -0.4070  1.0763
32280SOL     OW  244   3.396   0.842  10.780 -0.0373 -0.2447 -0.2407
32280SOL    HW1  245   3.440   0.758  10.792  0.4200  0.1481  0.8853
32280SOL    HW2  246   3.356   0.836  10.693 -1.7950 -2.4141  0.6757
32281SOL     OW  247   8.961   7.915   6.719  0.5397  0.2988 -0.4056
32281SOL    HW1  248   9.032   7.851   6.711  0.8135  0.6700 -0.9505
32281SOL    HW2  249   8.958   7.959   6.634  0.7128  1.3810  0.1416
32282SOL     OW  250   5.037   6.981   6.250 -0.0459 -0.2104  0.1135
32282SOL    HW1  251   5.018   6.951   6.339 -1.1292 -0.1417 -0.0853
32282SOL    HW2  252   5.089   6.911   6.211  2.0217  0.5679  1.3900
32283SOL     OW  253   8.767   3.846   4.060 -0.5641  0.3307  0.0859
32283SOL    HW1  254   8.758   3.876   3.969 -1.3881 -0.8821 -0.2369
32283SOL    HW2  255   8.678   3.832   4.090 -0.4063  2.2597  1.6397
32284SOL     OW  256  10.805   7.833   4.538 -0.1331 -0.3133  0.1269
32284SOL    HW1  257  10.895   7.820   4.570 -0.4339 -1.1878  0.6369
32284SOL    HW2  258  10.760   7.752   4.561 -0.0698 -1.4782 -3.5233
32285SOL     OW  259   0.827   3.192   2.757  0.3350 -0.3571 -0.3194
32285SOL    HW1  260   0.774   3.128   2.710 -0.4577  0.2156 -0.1972
32285SOL    HW2  261   0.767   3.264   2.778  1.4022  0.7959 -1.1544
32286SOL     OW  262   9.710   6.858   4.511 -0.1667  0.2285  0.0819
32286SOL    HW1  263   9.743   6.945   4.534 -0.0832  0.0798  0.5379
32286SOL    HW2  264   9.615   6.867   4.513 -0.1745 -0.0077  1.4011
32287SOL     OW  265   1.330   2.171   2.087  0.4054  0.0819  0.0701
32287SOL    HW1  266   1.311   2.126   2.169 -1.6493 -1.6151 -1.2849
32287SOL    HW2  267   1.272   2.129   2.023 -1.2537  4.3121 -1.3543
32288SOL     OW  268   7.529   6.884   3.758  1.1771 -0.4607  0.1214
32288SOL    HW1  269   7.448   6.835   3.772  1.2034 -0.8779 -1.1144
32288SOL    HW2  270   7.598   6.817   3.756  1.3659 -0.2553 -0.3540
32289SOL     OW  271  10.975   3.193   5.441 -0.5818 -0.4508  0.5366
32289SOL    HW1  272  10.906   3.236   5.493  1.2298  1.2327  1.6335
32289SOL    HW2  273  11.056   3.233   5.472  0.8496 -1.9463 -1.1842
32290SOL     OW  274   3.571   7.158   2.509  0.2776  0.0843 -0.4512
32290SOL    HW1  275   3.640   7.199   2.561 -0.4337  0.3108  0.3397
32290SOL    HW2  276   3.616   7.119   2.435  0.9188  2.8465 -1.5824
32291SOL     OW  277   0.407   9.271   4.421  0.3955 -0.6954  0.7844
32291SOL    HW1  278   0.331   9.218   4.402 -0.4367  0.5600  0.5465
32291SOL    HW2  279   0.449   9.228   4.496 -0.9854 -0.9568  1.4127
32292SOL     OW  280   3.910   1.570   4.184 -0.3888 -0.5084  0.3517
32292SOL    HW1  281   3.856   1.590   4.261 -0.8443  0.1369 -0.1362
32292SOL    HW2  282   3.855   1.594   4.109  0.0758 -1.0873 -0.1779
32293SOL     OW  283   7.002   4.812   2.159  0.9947  0.7966 -0.1638
32293SOL    HW1  284   6.958   4.890   2.191 -0.3033 -0.1643  0.4504
32293SOL    HW2  285   7.077   4.801   2.217 -0.9831 -0.5701  2.2245
32294SOL     OW  286   5.931   1.134   3.391 -0.2576  0.2594 -0.6792
32294SOL    HW1  287   5.891   1.210   3.433  1.8124  1.0100 -0.0222
32294SOL    HW2  288   5.894   1.059   3.437 -0.9945  0.9241 -0.1696
32295SOL     OW  289   3.121   3.006   9.289  0.4430  1.0254  0.8197
32295SOL    HW1  290   3.124   3.016   9.385 -0.9946 -0.6300  1.0656
32295SOL    HW2  291   3.029   3.018   9.267  0.6480  0.5884 -0.2776
32296SOL     OW  292   2.337   6.115  10.262  0.6117  0.0984  0.2400
32296SOL    HW1  293   2.297   6.100  10.348 -0.5494  0.2400 -0.2735
32296SOL    HW2  294   2.425   6.146  10.282  0.3950 -0.0101  1.3828
32297SOL     OW  295   0.186   8.419   3.614  0.2282 -0.1161 -0.2406
32297SOL    HW1  296   0.201   8.511   3.632 -0.4822 -0.0655  0.1077
32297SOL    HW2  297   0.179   8.378   3.700  1.2174 -0.6145 -0.3870
32298SOL     OW  298   9.326   5.863   5.843 -0.0628  0.2193 -0.1636
32298SOL    HW1  299   9.376   5.943   5.851  1.2177 -0.6819  1.0237
32298SOL    HW2  300   9.376   5.798   5.893 -1.9214 -0.9116  0.2826
32299SOL     OW  301  10.568   0.131   3.661 -0.5592 -0.2886  0.1702
32299SOL    HW1  302  10.535   0.046   3.690  1.0706 -1.2712 -0.7573
32299SOL    HW2  303  10.506   0.195   3.697 -1.2731 -1.7967  1.6728
32300SOL     OW  304   9.776   5.749   9.802  0.1041 -0.1212 -0.9230
32300SOL    HW1  305   9.860   5.734   9.759  0.6117 -0.6684  0.2161
32300SOL    HW2  306   9.744   5.661   9.824 -0.7206  0.0853 -1.2619
32301SOL     OW  307   0.843   0.415   3.223  0.0858  0.5657 -0.3499
32301SOL    HW1  308   0.750   0.394   3.212 -0.0129  0.9319 -0.2305
32301SOL    HW2  309   0.866   0.383   3.310  0.5475 -1.2064 -1.1054
32302SOL     OW  310   8.612   8.982   4.827  0.5997 -0.4361 -0.1232
32302SOL    HW1  311   8.676   8.990   4.756 -0.4540  0.9112 -0.9321
32302SOL    HW2  312   8.661   8.940   4.898  1.9682 -0.7882 -1.2487
32303SOL     OW  313   2.433   1.432   7.145 -0.1887 -0.1021 -0.0399
32303SOL    HW1  314   2.457   1.428   7.053  1.6931 -1.4366  0.4873
32303SOL    HW2  315   2.470   1.353   7.184 -1.0624  0.3738  1.8411
32304SOL     OW  316   4.173   3.219   6.455 -0.5633  0.1650  0.3456
32304SOL    HW1  317   4.190   3.312   6.470  0.3677  0.3593 -1.8567
32304SOL    HW2  318   4.130   3.215   6.370  1.2724 -1.5813 -0.5420
32305SOL     OW  319   7.097   3.893   4.212 -0.2564  0.1357  0.0938
32305SOL    HW1  320   7.097   3.902   4.117  1.8125  0.3168  0.0955
32305SOL    HW2  321   7.064   3.977   4.244  0.6802  0.7121 -0.4323
32306SOL     OW  322   0.236   7.219   8.527  0.6146  0.1124 -0.3601
32306SOL    HW1  323   0.142   7.209   8.542  0.6814  1.6642  1.2212
32306SOL    HW2  324   0.274   7.219   8.615  1.9007  1.3836 -0.8973
32307SOL     OW  325   1.112   8.899   8.012  0.0339 -0.3597 -0.3004
32307SOL    HW1  326   1.124   8.884   7.918 -0.3872  1.2439 -0.6314
32307SOL    HW2  327   1.056   8.977   8.016 -0.6756 -0.9431  1.2789
32308SOL     OW  328   8.177   4.334  10.055  0.3132  0.1775 -0.3581
32308SOL    HW1  329   8.149   4.254  10.010  0.3957  0.6755 -1.3160
32308SOL    HW2  330   8.112   4.347  10.124 -0.3238 -0.1098 -0.8963
32309SOL     OW  331   0.933   5.541   0.100  0.0915  0.4303 -0.1308
32309SOL    HW1  332   0.840   5.555   0.113 -0.2039  0.0167 -1.6298
32309SOL    HW2  333   0.975   5.623   0.127 -0.6269  0.3305  1.2997
32310SOL     OW  334   4.310   7.558   8.594  0.0801 -0.0452 -0.4127
32310SOL    HW1  335   4.329   7.544   8.687 -0.7034  0.5975 -0.1514
32310SOL    HW2  336   4.221   7.595   8.592 -1.0306 -2.6786 -1.5936
32311SOL     OW  337   3.177   5.712   5.217 -0.0007  0.2170 -0.1449
32311SOL    HW1  338   3.228   5.792   5.229  0.5643 -0.1657  0.0404
32311SOL    HW2  339   3.130   5.726   5.135  1.2306  0.1457 -0.8791
32312SOL     OW  340   0.841   1.941   2.630  0.2791 -0.2998 -0.2782
32312SOL    HW1  341   0.816   2.024   2.669 -0.3145  0.0514 -1.4105
32312SOL    HW2  342   0.904   1.904   2.692  2.0566  1.8760 -0.7206
32313SOL     OW  343   8.864   4.896   3.524 -0.9059 -0.3962 -0.2842
32313SOL    HW1  344   8.790   4.955   3.509 -0.6591 -0.5329 -2.1710
32313SOL    HW2  345   8.837   4.813   3.484 -1.3984 -1.7125  2.6617
32314SOL     OW  346  10.686  10.466   6.679  0.3100  0.5574  0.2440
32314SOL    HW1  347  10.730  10.469   6.764  1.9469 -0.8861 -0.5226
32314SOL    HW2  348  10.595  10.445   6.699  0.4740  1.2158  1.7042
32315SOL     OW  349   0.416   8.073   8.455 -0.5110 -0.7403  0.4618
32315SOL    HW1  350   0.510   8.063   8.468 -0.7654 -1.5932  1.7380
32315SOL    HW2  351   0.388   8.129   8.527 -1.6241 -3.8754  2.5619
32316SOL     OW  352   6.062   1.959  10.515  0.5400  0.0512  0.1170
32316SOL    HW1  353   6.078   1.894  10.446 -0.3082 -2.6746  2.3750
32316SOL    HW2  354   6.141   1.955  10.569 -0.4454 -0.7408  1.5115
32317SOL     OW  355   4.300   9.644   4.030 -0.0281  0.6325 -0.0089
32317SOL    HW1  356   4.226   9.610   3.979  0.0675  0.3404  0.0459
32317SOL    HW2  357   4.259   9.695   4.100 -0.1447  1.8066 -0.9149
32318SOL     OW  358   7.654   4.615   7.204  0.1603 -0.4293 -0.1894
32318SOL    HW1  359   7.631   4.707   7.194 -0.2543 -0.6022 -0.8635
32318SOL    HW2  360   7.624   4.592   7.292  2.7131  0.7856  1.0723
32319SOL     OW  361   5.904   4.780   7.409  0.2486  0.2659  0.0137
32319SOL    HW1  362   5.935   4.834   7.482  0.2458  1.0230 -0.5386
32319SOL    HW2  363   5.946   4.818   7.332 -0.4198  0.0094 -0.4844
32320SOL     OW  364   2.963   3.428   6.133  0.6238  0.0704  0.4408
32320SOL    HW1  365   2.943   3.491   6.203  0.5296 -0.5130  0.9392
32320SOL    HW2  366   3.033   3.373   6.169  2.0392  1.0747 -0.6952
32321SOL     OW  367   8.226   4.522   1.385  0.0178  0.2883  0.0249
32321SOL    HW1  368   8.273   4.477   1.456 -0.9301 -1.2504 -0.2921
32321SOL    HW2  369   8.294   4.545   1.322  0.5313 -0.8065  0.1535
32322SOL     OW  370   6.388   8.980   3.728  0.0428 -0.3465  0.4102
32322SOL    HW1  371   6.402   8.980   3.633 -0.7155 -0.2838  0.2981
32322SOL    HW2  372   6.467   9.021   3.763  0.4667 -0.6386 -0.1705
32323SOL     OW  373   7.108   7.636  10.885 -0.0421  0.3425  0.2940
32323SOL    HW1  374   7.037   7.693  10.853 -0.1623  0.8356  1.4295
32323SOL    HW2  375   7.155   7.611  10.806 -1.0064  0.6565 -0.3954
32324SOL     OW  376   6.581   0.809   4.565 -0.3666  0.2231  0.4897
32324SOL    HW1  377   6.500   0.844   4.602 -0.0934  1.1817  0.2169
32324SOL    HW2  378   6.636   0.887   4.551  0.5676 -0.4086  0.6027
32325SOL     OW  379   3.611   0.444   2.537  0.0586 -0.2126  0.1541
32325SOL    HW1  380   3.660   0.374   2.580  0.3372  0.0934  0.3371
32325SOL    HW2  381   3.519   0.419   2.548  0.1405 -0.3108  0.6296
32326SOL     OW  382   5.534   1.002   4.887 -0.3507  0.0172 -0.1243
32326SOL    HW1  383   5.494   1.089   4.892  1.4875  0.7453  3.3150
32326SOL    HW2  384   5.465   0.943   4.919 -1.3381  0.2628 -1.7423
32327SOL     OW  385   1.894   7.864   8.681  0.0783 -0.4772  0.6410
32327SOL    HW1  386   1.945   7.941   8.706 -0.4360 -0.2951  1.1368
32327SOL    HW2  387   1.957   7.806   8.638  0.2984  0.5952 -0.5245
32328SOL     OW  388   4.320   9.606   4.701 -0.0267  0.0443 -0.0018
32328SOL    HW1  389   4.405   9.646   4.683 -0.5223  0.6786 -0.9379
32328SOL    HW2  390   4.264   9.634   4.629 -1.0835 -0.2306  0.7040
32329SOL     OW  391   9.858   1.808  10.885  0.3847  0.2598 -0.4845
32329SOL    HW1  392   9.770   1.784  10.913  0.3060  0.7321 -0.3173
32329SOL    HW2  393   9.915   1.776  10.955  0.3103  0.2767 -0.4158
32330SOL     OW  394   0.059   4.228   0.471 -0.3656  0.1307  0.1672
32330SOL    HW1  395  -0.031   4.202   0.489 -0.7376 -1.1991 -3.1597
32330SOL    HW2  396   0.051   4.311   0.424  0.0217 -0.6474 -1.3142
32331SOL     OW  397   5.255   0.826   2.002  0.1885 -0.4162 -0.0815
32331SOL    HW1  398   5.206   0.768   2.060  2.0186 -1.7225  0.2019
32331SOL    HW2  399   5.230   0.798   1.914 -1.0445  0.2283  0.0499
32332SOL     OW  400   7.329   1.905   1.279  0.3522 -0.0239  0.4544
32332SOL    HW1  401   7.304   1.898   1.187  1.8595 -0.8348  0.0990
32332SOL    HW2  402   7.411   1.955   1.277  0.4840 -0.2117  1.3433
32333SOL     OW  403   1.577   3.471   7.183 -0.0944 -0.1273 -0.1178
32333SOL    HW1  404   1.553   3.380   7.196 -0.0935 -0.1300 -0.1348
32333SOL    HW2  405   1.658   3.469   7.133  0.6430 -0.1343  1.0620
32334SOL     OW  406   9.997   7.384   7.334 -1.3149  0.3463 -0.4751
32334SOL    HW1  407   9.925   7.365   7.394 -1.9480  1.1961 -0.9570
32334SOL    HW2  408  10.053   7.445   7.383 -0.2580 -1.2483  0.3624
32335SOL     OW  409   1.001   3.055   0.383 -0.1819  0.6542 -0.1429
32335SOL    HW1  410   1.004   3.150   0.398 -1.4928  0.8749 -1.1976
32335SOL    HW2  411   1.078   3.037   0.330  0.0279  1.1468 -0.0109
32336SOL     OW  412   2.472   3.229   4.106  0.1698  0.1128  0.3709
32336SOL    HW1  413   2.545   3.290   4.119  0.1690 -0.0031  0.9130
32336SOL    HW2  414   2.414   3.245   4.180  0.2783 -0.6971  0.6305
32337SOL     OW  415   8.684   3.601   2.645  0.1695  0.1639 -0.4305
32337SOL    HW1  416   8.682   3.696   2.631 -1.0726 -0.0992 -2.0894
32337SOL    HW2  417   8.623   3.586   2.717 -0.6173  0.4639 -1.0413
32338SOL     OW  418   0.784   9.011   9.344  0.4206 -0.0520  0.4245
32338SOL    HW1  419   0.877   8.997   9.324  0.0333 -2.0714 -0.1431
32338SOL    HW2  420   0.784   9.066   9.422  2.1150 -0.2815  0.6027
32339SOL     OW  421   2.344   4.673   7.137  0.0652 -0.4546 -0.5527
32339SOL    HW1  422   2.260   4.716   7.118 -0.4574 -0.8955  0.7347
32339SOL    HW2  423   2.376   4.645   7.051 -1.9142 -1.7909 -0.9020
32340SOL     OW  424   0.112  10.603   1.403 -0.2133 -0.3248 -0.4859
32340SOL    HW1  425   0.129  10.579   1.312  0.3774 -0.7453 -0.2671
32340SOL    HW2  426   0.198  10.629   1.437 -0.4932  0.1593 -0.1460
32341SOL     OW  427   9.017   9.088   1.852 -0.2388  0.2108 -0.3026
32341SOL    HW1  428   9.087   9.153   1.857 -1.4101  1.3370  2.5125
32341SOL    HW2  429   9.054   9.016   1.801  3.3207  0.3539  1.9318
32342SOL     OW  430   2.235   9.252  10.260 -0.1795 -0.1950 -0.8914
32342SOL    HW1  431   2.171   9.292  10.319  0.3280  0.4421 -0.7729
32342SOL    HW2  432   2.320   9.283  10.292  0.0727  0.4736 -2.1878
32343SOL     OW  433   1.759   1.749  10.266  0.3250  0.0542 -0.0510
32343SOL    HW1  434   1.746   1.767  10.359 -0.0690  1.1707 -0.3189
32343SOL    HW2  435   1.709   1.816  10.221  2.6667  1.1607 -1.0833
32344SOL     OW  436   2.998   0.545   9.554 -0.0988  0.1356 -0.3114
32344SOL    HW1  437   3.036   0.482   9.615 -1.5840 -0.8624 -0.4250
32344SOL    HW2  438   2.967   0.616   9.610  1.6623  0.8462 -0.1916
32345SOL     OW  439   6.056   0.481   2.530  0.2134 -0.3852 -0.4275
32345SOL    HW1  440   6.029   0.393   2.501  0.2586 -0.7951  0.7375
32345SOL    HW2  441   6.064   0.531   2.449 -2.4769 -0.6962 -0.9560
32346SOL     OW  442   6.088   5.429   6.234 -0.1956  0.3008 -0.1702
32346SOL    HW1  443   6.125   5.371   6.167 -0.1635 -0.0431  0.1464
32346SOL    HW2  444   6.154   5.498   6.244 -0.2921  0.4654 -0.6387
32347SOL     OW  445   4.870   6.669   2.077 -0.5071  0.2939  0.1002
32347SOL    HW1  446   4.933   6.624   2.134 -1.8175 -0.5971  0.8610
32347SOL    HW2  447   4.862   6.757   2.114 -1.4874 -0.3393  1.4058
32348SOL     OW  448   2.901  10.318   0.872 -0.4531  0.6376 -0.0635
32348SOL    HW1  449   2.950  10.237   0.885 -0.7341  0.2637 -1.2036
32348SOL    HW2  450   2.854  10.333   0.954 -0.5878 -0.4947  0.0679
32349SOL     OW  451   7.830   4.750   2.414 -0.2172  0.4323  0.0037
32349SOL    HW1  452   7.834   4.664   2.456  0.1286  1.8522  2.9790
32349SOL    HW2  453   7.741   4.755   2.379 -1.0924 -0.1613  2.0192
32350SOL     OW  454  10.012   0.206   6.095  0.4307 -0.1877  0.1349
32350SOL    HW1  455  10.035   0.181   6.005  0.0414  0.1243 -0.0525
32350SOL    HW2  456  10.084   0.263   6.123 -0.6357  1.7134 -0.8511
32351SOL     OW  457   9.465   7.742   3.484 -0.3012 -0.4871  0.6609
32351SOL    HW1  458   9.391   7.756   3.426 -0.5014 -0.8635  0.8233
32351SOL    HW2  459   9.455   7.651   3.514  0.6315 -0.7808  0.0959
32352SOL     OW  460   3.395   1.838   9.360  0.5097  0.4430  0.1087
32352SOL    HW1  461   3.472   1.893   9.346 -0.8335  1.9727 -1.4693
32352SOL    HW2  462   3.364   1.816   9.272 -1.9705  1.4654  0.6912
32353SOL     OW  463   7.464   3.904   8.560  0.3844 -0.0457 -0.4230
32353SOL    HW1  464   7.465   3.981   8.503 -0.0048  1.7151  1.8877
32353SOL    HW2  465   7.371   3.888   8.576  0.5389  0.4373  0.9779
32354SOL     OW  466   7.935   5.088   5.924  0.2836 -0.6268  0.1919
32354SOL    HW1  467   7.843   5.113   5.933  0.6854  0.5845  1.0500
32354SOL    HW2  468   7.972   5.156   5.869  0.7031 -1.0209 -0.0079
32355SOL     OW  469   0.047   1.811  10.844  0.2648 -0.2669  0.0673
32355SOL    HW1  470   0.055   1.723  10.807 -0.0117  0.4308 -1.7403
32355SOL    HW2  471   0.126   1.822  10.897  0.5449 -1.4264 -0.0971
32356SOL     OW  472   1.909   2.264   3.954  0.5079 -0.0283  0.2826
32356SOL    HW1  473   1.951   2.347   3.933  2.0238 -0.9178 -0.2295
32356SOL    HW2  474   1.862   2.241   3.874  2.0541 -0.8500 -0.3968
32357SOL     OW  475   4.187   0.668  10.696 -0.3434 -0.6310 -0.4612
32357SOL    HW1  476   4.113   0.687  10.638 -1.3362  1.4516  1.4298
32357SOL    HW2  477   4.166   0.582  10.733 -1.1325 -0.6680 -0.9722
32358SOL     OW  478   0.803  10.444   3.273  0.2461  0.1046  0.4622
32358SOL    HW1  479   0.860  10.513   3.238  0.7468 -0.2964  0.4793
32358SOL    HW2  480   0.760  10.485   3.349 -0.8441  0.9801 -0.5971
32359SOL     OW  481   2.468   7.182   2.637  0.2778 -0.0975  0.2454
32359SOL    HW1  482   2.405   7.126   2.683  0.4570  0.1171  0.7623
32359SOL    HW2  483   2.461   7.266   2.682 -1.6360  0.9860 -1.9529
32360SOL     OW  484   3.581   4.846   8.026 -0.3973 -0.3202  0.5552
32360SOL    HW1  485   3.651   4.910   8.011  0.3062 -1.0252  0.7889
32360SOL    HW2  486   3.535   4.841   7.942 -1.0529  1.1965  0.8148
32361SOL     OW  487   0.399   5.952   4.374  0.1488 -0.1346  0.0702
32361SOL    HW1  488   0.368   6.041   4.359  0.3139 -0.6022 -3.4551
32361SOL    HW2  489   0.324   5.907   4.413 -0.7649  0.9390 -0.4055
32362SOL     OW  490   9.622   7.964   8.469 -0.2609 -0.0887 -0.4940
32362SOL    HW1  491   9.620   7.971   8.373 -2.1128  0.6569 -0.4333
32362SOL    HW2  492   9.684   8.031   8.497  0.8325 -0.7962 -1.2082
32363SOL     OW  493   7.031   9.899   9.410 -0.2229 -0.0360 -0.4208
32363SOL    HW1  494   7.108   9.845   9.395  0.3453  0.8503 -0.7774
32363SOL    HW2  495   7.015   9.892   9.504 -0.3171 -1.0277 -0.5075
32364SOL     OW  496   9.398   6.891   7.406  0.4788 -0.1067 -1.0020
32364SOL    HW1  497   9.465   6.959   7.417  0.2568 -0.2127  1.0527
32364SOL    HW2  498   9.335   6.907   7.476  0.0246 -1.9669 -0.9568
32365SOL     OW  499   4.903   1.269   0.375 -0.5902 -0.0544 -0.3355
32365SOL    HW1  500   4.846   1.332   0.331 -1.6466 -0.0822  0.9911
32365SOL    HW2  501   4.853   1.188   0.376 -0.5425 -0.0720  0.8553
32366SOL     OW  502  10.186   0.810   8.560 -0.6650 -0.4143 -0.4638
32366SOL    HW1  503  10.194   0.871   8.487 -2.0789  0.3304  0.0057
32366SOL    HW2  504  10.219   0.858   8.635 -0.4220 -0.7415 -0.3571
32367SOL     OW  505   0.738   6.791   2.692  0.0156  0.0083  0.2474
32367SOL    HW1  506   0.721   6.878   2.658  0.0399 -0.2963 -0.5535
32367SOL    HW2  507   0.805   6.804   2.760  2.0675  0.2700 -1.7796
32368SOL     OW  508   2.212   3.271   8.283  0.6680 -0.5372  0.1696
32368SOL    HW1  509   2.129   3.258   8.238  0.9779  0.1114 -0.6167
32368SOL    HW2  510   2.277   3.232   8.224  0.9730 -0.5467  0.5128
32369SOL     OW  511   9.392   7.332   9.349  0.4658  0.2702 -0.0445
32369SOL    HW1  512   9.299   7.320   9.370  0.2100  0.3535 -1.1103
32369SOL    HW2  513   9.399   7.308   9.257  1.8729 -1.5545  0.5112
32370SOL     OW  514   8.593   9.758   6.944  0.4614 -0.3535 -0.6157
32370SOL    HW1  515   8.568   9.850   6.955  0.3244 -0.3017 -1.3495
32370SOL    HW2  516   8.581   9.719   7.031 -1.1405 -0.0729 -0.7056
32371SOL     OW  517   1.345   7.371  10.165  0.2725 -0.0117  0.4889
32371SOL    HW1  518   1.367   7.325  10.084 -0.0165  0.5406  0.0956
32371SOL    HW2  519   1.249   7.375  10.165  0.2594 -0.2600  0.9998
32372SOL     OW  520   7.841   2.330   6.639  0.0351 -0.7372  0.4010
32372SOL    HW1  521   7.852   2.351   6.732 -0.3662  0.2001  0.2420
32372SOL    HW2  522   7.774   2.391   6.609  0.1949 -1.0156 -0.5174
32373SOL     OW  523   9.085   9.207   6.518  0.1493  0.9080 -0.1032
32373SOL    HW1  524   9.064   9.244   6.604  2.1961 -1.6235  1.5681
32373SOL    HW2  525   9.022   9.136   6.506  0.5464  0.5717 -0.2092
32374SOL     OW  526   2.518   5.032   9.007  0.1433 -0.2951 -0.6108
32374SOL    HW1  527   2.579   4.959   8.990 -1.7549 -1.9335 -0.5137
32374SOL    HW2  528   2.441   5.012   8.954 -1.9317 -0.3416  2.3108
32375SOL     OW  529   9.774   9.804   0.512 -0.5958  0.4556  0.3865
32375SOL    HW1  530   9.738   9.741   0.449 -0.9097  0.9360  0.0774
32375SOL    HW2  531   9.861   9.825   0.478  0.4006 -1.4498  1.6603
32376SOL     OW  532   3.085  10.950   3.188 -0.4411  0.0969 -0.8058
32376SOL    HW1  533   3.121  11.009   3.254  1.0114  0.5127 -1.9435
32376SOL    HW2  534   3.013  10.999   3.149 -2.3218 -0.7299  1.4670
32377SOL     OW  535   5.733  10.066   0.422  0.0766  0.6844 -0.1741
32377SOL    HW1  536   5.647  10.027   0.410  0.6015 -0.7628  0.6068
32377SOL    HW2  537   5.751  10.057   0.516  1.1488  0.7882 -0.3595
32378SOL     OW  538   4.007   2.151   4.625  0.0062  0.1135 -0.2619
32378SOL    HW1  539   4.065   2.129   4.698 -0.7503 -0.9799  0.0219
32378SOL    HW2  540   3.919   2.132   4.658 -0.4757  1.2106 -0.8894
32379SOL     OW  541   9.039   3.147   7.761  0.2064  0.7609  0.3473
32379SOL    HW1  542   9.026   3.221   7.820  0.1850  0.2204  1.0201
32379SOL    HW2  543   9.133   3.150   7.739 -0.0407  1.7477 -0.6520
32380SOL     OW  544   9.986  10.082   1.458  0.4757 -0.1268 -0.0522
32380SOL    HW1  545  10.020  10.163   1.421 -0.6188  0.9062  1.1510
32380SOL    HW2  546   9.903  10.107   1.500  1.2191 -1.3907  2.2849
32381SOL     OW  547   6.348   2.729   1.965 -0.1389  0.3282 -0.3868
32381SOL    HW1  548   6.297   2.809   1.976  0.6211  0.6412  1.0409
32381SOL    HW2  549   6.438   2.758   1.959  0.2114 -0.4557  0.8480
32382SOL     OW  550   3.404   9.094   3.356 -0.6672 -0.1206 -0.0760
32382SOL    HW1  551   3.357   9.015   3.331  0.3520  0.2241 -3.3040
32382SOL    HW2  552   3.343   9.166   3.337 -0.6721  0.0298  0.4948
32383SOL     OW  553   5.834   1.174   1.859 -0.0071  0.4722  0.5151
32383SOL    HW1  554   5.837   1.123   1.940  0.5248  0.4930  0.5082
32383SOL    HW2  555   5.808   1.112   1.792 -2.5223  0.8836  1.0459
32384SOL     OW  556   4.381   1.345   8.704 -0.4570  0.0066  0.3274
32384SOL    HW1  557   4.453   1.329   8.643 -0.5233  2.7798 -0.5457
32384SOL    HW2  558   4.315   1.389   8.651 -1.5746  0.1342  1.8142
32385SOL     OW  559   6.562   6.643   1.189 -0.2049 -0.0416  0.2178
32385SOL    HW1  560   6.473   6.640   1.224 -0.5291 -0.5979 -0.6566
32385SOL    HW2  561   6.598   6.724   1.224 -0.8439 -0.1169  1.0832
32386SOL     OW  562   3.921   8.224   2.306  0.3019 -0.0527 -0.2767
32386SOL    HW1  563   3.980   8.174   2.250  1.0264 -0.1762  0.5683
32386SOL    HW2  564   3.914   8.310   2.265 -3.2013 -1.6472 -3.2953
32387SOL     OW  565   6.396   3.597   1.796  0.3368  0.0056  0.5618
32387SOL    HW1  566   6.399   3.542   1.717 -1.2263  0.0923  0.4281
32387SOL    HW2  567   6.373   3.684   1.763 -3.7014 -0.6668  1.4290
32388SOL     OW  568   6.198   5.856  10.830 -0.1399 -0.1799  0.2164
32388SOL    HW1  569   6.240   5.773  10.854 -0.0208 -0.0989  0.2863
32388SOL    HW2  570   6.121   5.830  10.780  1.4648 -0.2744 -2.2924
32389SOL     OW  571   4.986   1.983   7.021 -0.3162  0.6683  0.4561
32389SOL    HW1  572   5.080   2.000   7.017 -0.4444  1.2442 -0.1298
32389SOL    HW2  573   4.975   1.900   6.974 -0.0900  0.5651  0.5882
32390SOL     OW  574   3.494   4.489   8.826 -0.1880  0.4783  0.4090
32390SOL    HW1  575   3.458   4.573   8.856 -1.7062  0.2251 -0.6519
32390SOL    HW2  576   3.588   4.497   8.842 -0.5852  1.5038  2.4285
32391SOL     OW  577  10.416   2.931   9.612  0.3359  0.5088  0.6478
32391SOL    HW1  578  10.441   3.019   9.585 -0.5443  0.3893 -0.5748
32391SOL    HW2  579  10.465   2.873   9.553 -1.9909  0.2562 -1.1150
32392SOL     OW  580  10.466   1.519   1.488 -0.5541  0.5539  0.1015
32392SOL    HW1  581  10.375   1.537   1.464 -0.6686  0.0854  0.1739
32392SOL    HW2  582  10.463   1.435   1.534  0.1663 -0.5118 -1.7273
32393SOL     OW  583   0.770   9.928   6.721 -0.4339  0.2362 -0.3947
32393SOL    HW1  584   0.846   9.901   6.671 -0.7027 -1.0054 -0.1364
32393SOL    HW2  585   0.753   9.856   6.781 -2.4980  0.0035 -1.2174
32394SOL     OW  586   4.364   4.721   7.659 -0.1448  0.3679 -0.2807
32394SOL    HW1  587   4.291   4.691   7.712 -1.1861  2.2169 -0.6574
32394SOL    HW2  588   4.426   4.759   7.721 -0.9710  1.7378 -0.2778
32395SOL     OW  589   8.774   1.982   2.113 -0.7936  0.1427 -0.0755
32395SOL    HW1  590   8.788   1.892   2.082  1.4730  0.8606 -1.1988
32395SOL    HW2  591   8.711   2.019   2.051 -0.4177 -0.1271 -0.6205
32396SOL     OW  592   9.557  10.770   2.410  0.0990  0.2802  0.2313
32396SOL    HW1  593   9.629  10.810   2.458  1.1502  0.1521 -1.2250
32396SOL    HW2  594   9.597  10.733   2.332 -1.8562  2.4186 -1.8861
32397SOL     OW  595   5.361   1.730   4.297  0.1070 -0.2631 -0.2551
32397SOL    HW1  596   5.380   1.667   4.228  0.3915  0.1987 -0.6003
32397SOL    HW2  597   5.425   1.710   4.366 -0.0046 -0.5495 -0.2320
32398SOL     OW  598   1.150   6.143   6.030  0.2534  0.1598  0.3366
32398SOL    HW1  599   1.216   6.140   5.960 -0.4885 -1.0072 -0.3195
32398SOL    HW2  600   1.072   6.179   5.988 -0.3112 -0.8961  0.4587
32399SOL     OW  601   0.829   4.281   1.355 -0.0283 -0.3934 -0.7902
32399SOL    HW1  602   0.857   4.354   1.410 -2.6726  1.9847 -2.4444
32399SOL    HW2  603   0.757   4.241   1.404 -1.2826  0.6916 -1.7161
32400SOL     OW  604   1.263   1.211   8.762 -0.3561  0.0240  0.6905
32400SOL    HW1  605   1.233   1.301   8.770 -1.8324 -0.4367  0.4822
32400SOL    HW2  606   1.306   1.191   8.845 -0.8885  0.6011  1.1010
32401SOL     OW  607   2.416   2.826   2.727 -0.0479 -1.0372  0.1888
32401SOL    HW1  608   2.364   2.750   2.700  1.7087 -1.4281 -2.2717
32401SOL    HW2  609   2.482   2.835   2.658  1.0527  1.4759  1.5245
32402SOL     OW  610   9.201   9.631   5.956 -0.5702 -0.2365 -0.0724
32402SOL    HW1  611   9.270   9.637   5.889 -0.1550 -0.3412  0.3384
32402SOL    HW2  612   9.120   9.648   5.909 -0.6114 -3.3774 -1.2586
32403SOL     OW  613  10.578   7.654   8.729 -0.1668 -0.3133  0.2836
32403SOL    HW1  614  10.487   7.646   8.700 -0.5044 -2.6446  1.8510
32403SOL    HW2  615  10.629   7.640   8.649 -1.1588  0.4704 -0.5088
32404SOL     OW  616   9.844  10.349   3.492 -0.2248 -0.6004 -0.0635
32404SOL    HW1  617   9.837  10.444   3.497  0.9097 -0.5071 -0.2800
32404SOL    HW2  618   9.924  10.328   3.540  0.3370 -1.3102 -1.2791
32405SOL     OW  619  10.514   1.381   1.824 -0.2916 -0.0931 -0.5649
32405SOL    HW1  620  10.566   1.420   1.894 -2.6886 -1.9070  2.3937
32405SOL    HW2  621  10.440   1.441   1.813 -1.0927 -0.9231  0.1212
32406SOL     OW  622   0.690   6.876   7.844  0.6296 -0.5508  0.3581
32406SOL    HW1  623   0.712   6.839   7.929 -0.1238  0.4321  0.9913
32406SOL    HW2  624   0.597   6.859   7.833  0.8798 -1.3234 -0.6034
32407SOL     OW  625   7.557   6.702  10.625  0.1235 -0.4406  0.2657
32407SOL    HW1  626   7.549   6.797  10.621  1.7830 -0.2884  0.4739
32407SOL    HW2  627   7.585   6.683  10.714 -1.1742 -1.2133  0.5234
32408SOL     OW  628   9.195   5.704   2.196  0.3181  0.1492  0.0289
32408SOL    HW1  629   9.112   5.672   2.162 -0.1390  2.3906 -1.0405
32408SOL    HW2  630   9.242   5.737   2.119  1.5230  0.3682  0.8346
32409SOL     OW  631   1.774   7.831   8.939  0.5035 -0.5720  0.1956
32409SOL    HW1  632   1.827   7.870   9.008 -1.2958  1.0306  0.7128
32409SOL    HW2  633   1.820   7.850   8.858  0.0443  2.0393  0.5046
32410SOL     OW  634   5.004   6.902   6.534  0.2072  0.1823  0.3648
32410SOL    HW1  635   5.003   6.873   6.625  1.3820  0.1107  0.3633
32410SOL    HW2  636   4.974   6.993   6.537 -1.4465 -0.3517  0.6075
32411SOL     OW  637   3.608   2.124   9.027 -0.1884  0.1082 -0.0942
32411SOL    HW1  638   3.576   2.054   8.970 -1.9998  0.3876  0.5507
32411SOL    HW2  639   3.642   2.079   9.104 -0.0164 -0.1378 -0.3144
32412SOL     OW  640   9.078   3.379   7.923  0.3103  0.4051 -0.0902
32412SOL    HW1  641   9.148   3.440   7.946  0.3536 -0.2771  1.7147
32412SOL    HW2  642   9.005   3.405   7.978 -0.3094  0.0517 -0.7410
32413SOL     OW  643   3.223   3.361   8.574 -0.3373  0.0841 -0.1208
32413SOL    HW1  644   3.169   3.341   8.651 -0.5324  1.6009  0.1509
32413SOL    HW2  645   3.301   3.402   8.610  0.4387 -0.9251 -0.6125
32414SOL     OW  646   1.287   8.225   4.414  0.4593  0.0462  0.2399
32414SOL    HW1  647   1.239   8.244   4.333  0.2955 -0.6592  0.1669
32414SOL    HW2  648   1.302   8.311   4.454  1.4069  0.5011 -1.0297
32415SOL     OW  649   8.689   1.104   8.901  0.0143 -0.8578 -0.4835
32415SOL    HW1  650   8.723   1.019   8.875  0.5782  0.0581 -2.9000
32415SOL    HW2  651   8.661   1.093   8.992  0.3624 -3.5118 -0.6822
32416SOL     OW  652   0.881   8.180   3.163  0.0353 -0.1092  0.0589
32416SOL    HW1  653   0.846   8.160   3.250  1.0863 -0.8839  0.3230
32416SOL    HW2  654   0.805   8.177   3.105 -0.7343  0.8010  1.0104
32417SOL     OW  655   1.376   7.310   3.086 -0.2135 -0.6505  0.4595
32417SOL    HW1  656   1.293   7.295   3.040  0.6259 -1.4796 -0.8277
32417SOL    HW2  657   1.426   7.367   3.027  0.3300 -0.5757  0.9893
32418SOL     OW  658   5.555   1.851   7.297 -0.3469  0.1050 -0.2208
32418SOL    HW1  659   5.466   1.846   7.333  0.0621  1.8992  1.0769
32418SOL    HW2  660   5.551   1.920   7.231 -0.6154 -1.8546 -2.3147
32419SOL     OW  661   9.883   0.869   5.431 -0.4051  0.0277 -0.2975
32419SOL    HW1  662   9.888   0.849   5.338 -0.8500 -1.1234 -0.0798
32419SOL    HW2  663   9.790   0.890   5.446 -0.4900 -0.5647  0.0345
32420SOL     OW  664   7.372   4.040   3.228 -0.1635 -0.3626 -0.3917
32420SOL    HW1  665   7.315   3.987   3.284  0.1368 -0.1784  0.0922
32420SOL    HW2  666   7.339   4.026   3.139 -1.4026  0.3016 -0.0442
32421SOL     OW  667   9.049   2.211   4.573 -0.3513  0.3809  0.1863
32421SOL    HW1  668   9.142   2.201   4.554  0.0678  1.1886  1.8102
32421SOL    HW2  669   9.012   2.124   4.555  0.9518 -0.3321  0.8959
32422SOL     OW  670   7.922   2.943  10.644  0.2039 -0.1163  0.3396
32422SOL    HW1  671   7.941   2.897  10.725 -1.0860 -0.5064  0.4303
32422SOL    HW2  672   7.896   2.873  10.583  0.1519  0.2853 -0.0985
32423SOL     OW  673  10.431   9.473   6.299 -0.0948  0.2741 -0.5956
32423SOL    HW1  674  10.506   9.440   6.251 -0.0128 -1.0761  0.4413
32423SOL    HW2  675  10.357   9.461   6.239 -0.1339 -2.1668 -0.1089
32424SOL     OW  676   0.273   6.430  10.735 -0.3198  0.0170 -0.2228
32424SOL    HW1  677   0.216   6.507  10.733  0.3717  0.5096 -1.4073
32424SOL    HW2  678   0.304   6.421  10.645  1.4351 -0.2806  0.4056
32425SOL     OW  679   1.242   9.176   8.463 -0.1227  0.3043 -0.0216
32425SOL    HW1  680   1.148   9.163   8.476 -0.7033  2.1639 -2.1612
32425SOL    HW2  681   1.249   9.236   8.389  2.8165 -2.0140 -1.7504
32426SOL     OW  682   1.857   8.320   9.539 -0.2105 -0.6277 -0.1082
32426SOL    HW1  683   1.944   8.345   9.571  1.2958 -3.6803 -1.6399
32426SOL    HW2  684   1.807   8.303   9.619  0.7562  0.5323  0.7767
32427SOL     OW  685   8.667   0.037  10.742 -0.1371  0.3824  0.1195
32427SOL    HW1  686   8.712   0.111  10.783 -0.6720  1.1553 -0.6585
32427SOL    HW2  687   8.734  -0.030  10.733  0.1666  0.4867  1.5458
32428SOL     OW  688   2.420   0.752   1.270 -0.1707 -0.1225 -0.0949
32428SOL    HW1  689   2.355   0.750   1.199  0.5347 -0.5988 -0.7476
32428SOL    HW2  690   2.438   0.845   1.284  1.1384 -0.0747 -1.9180
32429SOL     OW  691   9.332   9.018   1.488  0.0666 -0.3049  0.1392
32429SOL    HW1  692   9.384   8.943   1.459 -1.5570 -1.2205 -0.4771
32429SOL    HW2  693   9.395   9.088   1.501  1.5519 -1.6433  0.2415
32430SOL     OW  694   1.515   8.421   2.749 -0.1189 -0.0932 -0.3006
32430SOL    HW1  695   1.567   8.343   2.769  1.1099  0.4666 -1.1967
32430SOL    HW2  696   1.503   8.464   2.834 -0.3579 -0.9768  0.1198
32431SOL     OW  697   7.272   9.675   5.909  0.0664 -0.4427  0.2757
32431SOL    HW1  698   7.240   9.765   5.912 -0.0421 -0.4163 -1.3067
32431SOL    HW2  699   7.360   9.679   5.945  0.0676  0.2979  0.1943
32432SOL     OW  700   3.760   2.241   4.416  0.3191  0.3736 -0.0638
32432SOL    HW1  701   3.675   2.210   4.447  1.0299  0.5854  2.2130
32432SOL    HW2  702   3.791   2.172   4.357 -0.6743 -0.5017  0.4181
32433SOL     OW  703   8.481   7.356   6.160 -0.1733 -0.2348  0.3445
32433SOL    HW1  704   8.504   7.300   6.086 -1.1431  0.5876 -0.5995
32433SOL    HW2  705   8.395   7.324   6.188  0.0855 -0.3884  0.9777
32434SOL     OW  706   1.494   6.149   5.084  0.5285 -0.2590  0.2196
32434SOL    HW1  707   1.435   6.096   5.031 -0.0846  1.1527 -0.5468
32434SOL    HW2  708   1.582   6.117   5.062  0.2783  0.2442 -1.6059
32435SOL     OW  709   7.103   5.860   2.009 -0.2855  0.2231  0.1465
32435SOL    HW1  710   7.079   5.783   1.958 -2.6912 -1.2135  3.2496
32435SOL    HW2  711   7.194   5.846   2.033 -0.8601 -2.0075  1.1508
32436SOL     OW  712   9.084   5.087  10.756  0.0542  0.0155 -0.0903
32436SOL    HW1  713   9.127   5.171  10.770  0.1009  0.2087 -1.4170
32436SOL    HW2  714   9.028   5.076  10.833  1.3580  0.4369  0.9520
32437SOL     OW  715   2.929   4.596   6.174 -0.2842  0.6447  0.1445
32437SOL    HW1  716   2.932   4.688   6.150  0.5199  0.5151 -0.2598
32437SOL    HW2  717   2.981   4.552   6.107  1.3567  0.1831  1.6857
32438SOL     OW  718   2.052   0.520   7.494 -0.5081  0.2738  0.5713
32438SOL    HW1  719   2.098   0.443   7.462  0.3163  0.9544  0.0870
32438SOL    HW2  720   1.999   0.549   7.419 -0.1391  0.6864  0.4668
32439SOL     OW  721   8.690   9.147   5.132  0.4710  0.1192 -0.6917
32439SOL    HW1  722   8.778   9.181   5.122  0.9553 -1.3429 -1.6237
32439SOL    HW2  723   8.697   9.055   5.108 -1.7869  0.5485 -3.3867
32440SOL     OW  724   4.356   3.290   3.048  0.0616 -0.3040 -0.6628
32440SOL    HW1  725   4.385   3.203   3.077 -0.4010 -0.3820 -0.4412
32440SOL    HW2  726   4.411   3.309   2.971  0.5308 -0.5611 -0.3911
32441SOL     OW  727   8.608   3.480   7.210  0.4003 -0.1006 -0.5818
32441SOL    HW1  728   8.682   3.432   7.246 -0.9452 -2.3002 -0.6656
32441SOL    HW2  729   8.588   3.547   7.275  1.1213 -0.8587  0.4208
32442SOL     OW  730   9.434   5.114   8.385 -0.1132  0.0460 -0.2560
32442SOL    HW1  731   9.520   5.098   8.347 -1.4005  0.2396 -3.4451
32442SOL    HW2  732   9.448   5.114   8.479  3.0191 -1.8331 -0.6769
32443SOL     OW  733   5.198   6.228  10.582  0.2695  0.4040  0.4585
32443SOL    HW1  734   5.277   6.173  10.581 -0.1159 -0.2461  2.5786
32443SOL    HW2  735   5.211   6.287  10.657 -1.0561  0.5523  0.5773
32444SOL     OW  736   0.619   2.443   2.200  0.0290 -0.1289  0.4517
32444SOL    HW1  737   0.609   2.407   2.112 -0.2296 -0.0845  0.4638
32444SOL    HW2  738   0.625   2.538   2.187  0.4826 -0.1567  0.4392
32445SOL     OW  739   5.330   2.971   7.925 -0.9053  0.6658 -0.1946
32445SOL    HW1  740   5.385   2.899   7.957 -2.0550  0.1787  0.7353
32445SOL    HW2  741   5.392   3.037   7.894  0.1649 -0.6086 -0.8071
32446SOL     OW  742   3.975   3.451   3.207  0.0643  0.1617 -0.0969
32446SOL    HW1  743   3.937   3.462   3.294 -0.3628  0.0978 -0.2714
32446SOL    HW2  744   3.900   3.457   3.148  0.4443  0.9127 -0.5105
32447SOL     OW  745   1.239   8.059   1.276 -0.1958 -0.5658 -0.1370
32447SOL    HW1  746   1.280   7.983   1.235  2.7321  0.8712 -0.0090
32447SOL    HW2  747   1.251   8.130   1.213  0.6585  0.6955  1.4137
32448SOL     OW  748   6.140   4.083   2.328  0.0738 -0.0483  0.3321
32448SOL    HW1  749   6.153   4.018   2.258  0.4391 -0.8264  1.1169
32448SOL    HW2  750   6.045   4.096   2.331  0.1726  1.1574 -1.3593
32449SOL     OW  751  10.585   9.237   1.529  0.1235  0.2538  0.3443
32449SOL    HW1  752  10.649   9.260   1.461 -0.4453 -3.5327 -1.6373
32449SOL    HW2  753  10.512   9.297   1.515  0.8472  0.8247 -1.1426
32450SOL     OW  754  10.551   3.454   5.768 -0.1847 -0.2879 -0.6505
32450SOL    HW1  755  10.480   3.436   5.829  0.8350 -2.3729  0.0020
32450SOL    HW2  756  10.616   3.502   5.820  0.9477 -2.5851  0.1568
32451SOL     OW  757   2.601   3.392   0.620  0.3769  0.0517  0.2473
32451SOL    HW1  758   2.599   3.483   0.591  0.4589  0.2711  0.9148
32451SOL    HW2  759   2.517   3.356   0.593  0.4420  0.2582 -0.2314
32452SOL     OW  760   2.390   3.230   5.993  0.0410 -0.2305 -0.3520
32452SOL    HW1  761   2.456   3.161   6.003 -0.3216 -0.6181 -0.6280
32452SOL    HW2  762   2.393   3.278   6.076 -0.1776 -1.0011  0.1083
32453SOL     OW  763   7.677   2.695   9.320 -0.5293  0.8033  0.5707
32453SOL    HW1  764   7.637   2.694   9.407  0.8071 -0.7042  1.2019
32453SOL    HW2  765   7.621   2.639   9.267 -0.9407  1.1411  0.6452
32454SOL     OW  766   4.505   7.064   2.879 -0.0123  0.3585  0.4119
32454SOL    HW1  767   4.442   7.068   2.950  0.7986  0.5776  1.1236
32454SOL    HW2  768   4.529   6.971   2.874 -1.4164  0.0270 -0.7855
32455SOL     OW  769   0.476   2.175  10.771 -0.6578 -0.3440  0.1871
32455SOL    HW1  770   0.466   2.214  10.684 -1.6968 -0.9515  0.0256
32455SOL    HW2  771   0.569   2.188  10.793 -0.7778  1.4214 -0.2372
32456SOL     OW  772   8.226   9.105   4.865 -0.3724  0.0411 -0.1564
32456SOL    HW1  773   8.300   9.165   4.854  0.1816 -1.0299 -2.3915
32456SOL    HW2  774   8.220   9.092   4.960  1.1016  1.6095  0.1771
32457SOL     OW  775   9.515   6.911   4.077 -0.2475 -0.2632 -0.0569
32457SOL    HW1  776   9.457   6.936   4.148  0.8657  3.8807 -0.4728
32457SOL    HW2  777   9.595   6.880   4.121 -0.5789 -0.3671  0.4722
32458SOL     OW  778  10.581   2.443   5.286 -0.9137 -0.5388  0.9840
32458SOL    HW1  779  10.625   2.366   5.321 -0.2323  0.6876  2.9775
32458SOL    HW2  780  10.513   2.463   5.351  0.4999  1.9046  1.8141
32459SOL     OW  781   4.139   5.372   7.045 -0.3489 -0.4195 -0.3991
32459SOL    HW1  782   4.066   5.334   7.094  0.0523 -1.1138 -0.3318
32459SOL    HW2  783   4.217   5.351   7.097 -0.1242  0.5515 -0.3298
32460SOL     OW  784   6.977   4.594   5.070 -0.4924 -0.3409  0.0387
32460SOL    HW1  785   6.935   4.621   4.988  1.1021  0.2184 -0.6205
32460SOL    HW2  786   6.983   4.675   5.121 -0.8164 -0.5474  0.4032
32461SOL     OW  787   6.734   6.191   5.794  0.3770  0.1762  0.2714
32461SOL    HW1  788   6.776   6.111   5.826 -0.2473 -0.6692 -0.9839
32461SOL    HW2  789   6.647   6.190   5.835  0.1527 -0.0921 -0.2128
32462SOL     OW  790   8.497   2.236   6.020  0.3024  0.0894  0.2649
32462SOL    HW1  791   8.450   2.241   6.103 -0.4479 -0.7259 -0.1105
32462SOL    HW2  792   8.506   2.143   6.002  0.5872  0.2600 -0.5102
32463SOL     OW  793   1.956   0.587   1.729 -0.4205 -0.0748  0.5365
32463SOL    HW1  794   1.941   0.542   1.646 -0.8270  0.6575  0.2155
32463SOL    HW2  795   1.879   0.642   1.741 -0.3599 -0.1669  1.3961
32464SOL     OW  796   2.223   9.284   5.271 -0.5463 -0.1048 -0.3719
32464SOL    HW1  797   2.232   9.377   5.291 -2.5166  0.1640 -0.6494
32464SOL    HW2  798   2.167   9.281   5.193 -2.3529 -1.5762  0.9230
32465SOL     OW  799   7.153   9.999   0.919  0.4310  0.1996 -0.6803
32465SOL    HW1  800   7.145   9.998   1.014  1.3931 -0.2988 -0.5986
32465SOL    HW2  801   7.119  10.084   0.892  0.1847  0.3509  0.1136
32466SOL     OW  802  10.668   0.576   6.187  0.1360  0.5978 -0.5672
32466SOL    HW1  803  10.595   0.516   6.168  0.0105  0.6998 -0.4135
32466SOL    HW2  804  10.744   0.536   6.146  0.1509  0.0760 -0.0360
32467SOL     OW  805   8.488   9.639   5.575  0.2901  0.4139 -0.3264
32467SOL    HW1  806   8.401   9.660   5.608 -0.0242 -0.2498 -0.7277
32467SOL    HW2  807   8.526   9.580   5.641 -0.0956 -0.4037 -0.8292
32468SOL     OW  808   0.004   8.724   6.331 -0.1647  0.6546 -0.3215
32468SOL    HW1  809   0.087   8.677   6.339 -0.5498  0.2385  1.4296
32468SOL    HW2  810   0.017   8.785   6.258  0.9988 -0.8011 -1.3405
32469SOL     OW  811   4.065   7.369   4.894  0.2188 -0.6650  0.2118
32469SOL    HW1  812   3.976   7.386   4.863  0.2094 -0.8345  0.1430
32469SOL    HW2  813   4.090   7.448   4.942 -1.1818 -1.8435  3.0369
32470SOL     OW  814   1.150   3.535   5.166  0.3093 -0.0171  0.1808
32470SOL    HW1  815   1.119   3.532   5.076 -0.8372  0.2100  0.5611
32470SOL    HW2  816   1.194   3.620   5.173  0.4434 -0.0558 -0.1711
32471SOL     OW  817   3.241   6.973   4.480 -0.0958  0.1079 -0.0600
32471SOL    HW1  818   3.277   6.946   4.564 -1.1978  1.2935  0.8109
32471SOL    HW2  819   3.157   7.014   4.502 -0.8632 -0.4666 -1.8209
32472SOL     OW  820  10.827   2.826   5.655 -0.4569  0.7340 -0.3217
32472SOL    HW1  821  10.923   2.832   5.654 -0.4237  0.2322 -0.0627
32472SOL    HW2  822  10.804   2.808   5.564 -0.2838  0.5504 -0.3315
32473SOL     OW  823   3.099   7.466   2.360 -0.3101  0.2634 -0.2756
32473SOL    HW1  824   3.063   7.426   2.440  1.3314  2.0607  1.4148
32473SOL    HW2  825   3.177   7.414   2.341 -0.4034  0.1722 -0.4105
32474SOL     OW  826   9.164   6.927   7.605  0.4340  0.0359  0.3347
32474SOL    HW1  827   9.167   6.986   7.680  1.2661  0.9128 -0.3638
32474SOL    HW2  828   9.072   6.923   7.581  0.5337  2.2501 -0.5150
32475SOL     OW  829   2.844   6.554   0.337  0.3183  0.0382  0.0814
32475SOL    HW1  830   2.906   6.571   0.408  0.8380  0.1497 -0.3935
32475SOL    HW2  831   2.861   6.463   0.311 -1.2610 -0.6850  1.4486
32476SOL     OW  832   8.651   1.520   5.450 -0.1912  0.0082 -0.1682
32476SOL    HW1  833   8.661   1.518   5.545  0.0050 -1.9491 -0.2130
32476SOL    HW2  834   8.701   1.444   5.419 -0.1450  0.7011 -1.8474
32477SOL     OW  835   3.996   7.576   1.771  0.9663 -0.6396  0.1667
32477SOL    HW1  836   4.046   7.538   1.699  1.3579 -0.2206  0.2150
32477SOL    HW2  837   3.931   7.509   1.794 -0.2526 -0.1161 -1.6841
32478SOL     OW  838   4.215   3.496   6.435  0.2038  0.7887 -0.3049
32478SOL    HW1  839   4.276   3.542   6.493 -1.5579 -0.9143  3.0282
32478SOL    HW2  840   4.130   3.536   6.453 -0.3058  0.5791 -2.1503
32479SOL     OW  841   5.429   9.780   1.980 -0.0303 -0.0465  0.0275
32479SOL    HW1  842   5.395   9.836   1.910  0.6940  3.3934  2.2902
32479SOL    HW2  843   5.507   9.739   1.942 -0.6884  0.3269 -1.7752
32480SOL     OW  844  10.171   6.233   2.983 -0.5730 -0.3191 -0.0404
32480SOL    HW1  845  10.128   6.241   2.898 -3.0776  0.2745  1.2239
32480SOL    HW2  846  10.208   6.320   3.000  2.0307 -1.0901 -1.5575
32481SOL     OW  847   8.509   7.217   2.742  0.5533 -0.2086 -0.0368
32481SOL    HW1  848   8.529   7.307   2.718  0.2997  0.2600  1.4698
32481SOL    HW2  849   8.457   7.183   2.669  1.8516  0.4037 -1.2735
32482SOL     OW  850   7.899  10.225   9.840  0.1075  0.4369 -0.9077
32482SOL    HW1  851   7.967  10.157   9.841 -1.0418 -0.7399 -1.1341
32482SOL    HW2  852   7.877  10.235   9.747  0.9813  1.8695 -0.9792
32483SOL     OW  853   4.069   7.366  10.827  0.3962 -0.1537 -0.0923
32483SOL    HW1  854   3.983   7.405  10.810  0.4085 -0.1689 -0.1816
32483SOL    HW2  855   4.100   7.411  10.906  0.3775 -0.0335 -0.1529
32484SOL     OW  856   0.150   3.346   9.173  0.5727  0.1610  0.4483
32484SOL    HW1  857   0.070   3.389   9.144 -0.3274 -1.1425  0.9461
32484SOL    HW2  858   0.182   3.400   9.245 -0.7159 -0.1519  1.2734
32485SOL     OW  859  10.356  10.431   9.791  0.0361 -0.0007 -0.4397
32485SOL    HW1  860  10.337  10.338   9.804 -2.2246  0.2918 -1.3159
32485SOL    HW2  861  10.343  10.470   9.878 -0.1117 -0.3417 -0.3078
32486SOL     OW  862   1.667   0.310   9.154 -0.7136 -0.3393 -0.1300
32486SOL    HW1  863   1.660   0.293   9.060 -0.8965 -0.8593 -0.0234
32486SOL    HW2  864   1.660   0.406   9.162 -1.4001 -0.3502 -0.5774
32487SOL     OW  865   4.595   1.930   4.749 -0.1311 -0.5346 -0.1179
32487SOL    HW1  866   4.582   2.004   4.691 -0.0479 -0.5906 -0.2072
32487SOL    HW2  867   4.607   1.855   4.691  1.2276 -0.3798 -0.0517
32488SOL     OW  868   9.643   1.983   8.161  0.4305 -0.5450  0.4896
32488SOL    HW1  869   9.609   1.893   8.170 -0.3108 -0.1344  1.8411
32488SOL    HW2  870   9.722   1.984   8.214  1.6909 -1.0150 -1.3144
32489SOL     OW  871   8.069   3.565   2.784 -0.4152 -0.0256  0.1251
32489SOL    HW1  872   8.050   3.600   2.697 -0.2082  0.1230  0.1382
32489SOL    HW2  873   8.088   3.643   2.837  1.0753 -0.2331 -0.1013
32490SOL     OW  874   9.088   3.303   1.734  0.4481 -0.3006  0.4708
32490SOL    HW1  875   8.995   3.327   1.727  0.6558  0.3301 -0.1466
32490SOL    HW2  876   9.087   3.214   1.770 -0.3707  0.0342  1.3015
32491SOL     OW  877   4.522   2.002   1.775 -0.2481 -0.6687  0.1605
32491SOL    HW1  878   4.489   1.913   1.792 -1.2674 -0.4535 -0.6672
32491SOL    HW2  879   4.618   1.992   1.779 -0.3467 -1.8116  0.0530
32492SOL     OW  880   9.829   3.163   9.096  0.0398 -0.2239  0.6250
32492SOL    HW1  881   9.769   3.105   9.048 -0.4674  0.7226  0.0896
32492SOL    HW2  882   9.773   3.209   9.159  0.5506 -0.7881  1.4943
32493SOL     OW  883   0.481   2.100   3.222 -0.4919 -0.0664  0.5097
32493SOL    HW1  884   0.563   2.068   3.183 -0.7605 -1.4045  0.9983
32493SOL    HW2  885   0.507   2.129   3.310 -0.3733  0.3782  0.3267
32494SOL     OW  886   8.545   7.094   1.201 -0.3398  0.4880  0.2251
32494SOL    HW1  887   8.467   7.059   1.244 -1.2299  0.7250 -1.1502
32494SOL    HW2  888   8.520   7.183   1.176  0.1453  0.3527 -0.7713
32495SOL     OW  889   5.656   5.852   7.241 -0.4767 -0.4662  0.1638
32495SOL    HW1  890   5.742   5.856   7.283  0.3782 -0.1253 -1.5912
32495SOL    HW2  891   5.651   5.932   7.188 -1.5224 -0.9137 -0.4268
32496SOL     OW  892   3.855   5.553   3.098 -0.3710 -0.0400  0.5530
32496SOL    HW1  893   3.854   5.648   3.095 -1.0434 -0.0075  1.4623
32496SOL    HW2  894   3.875   5.533   3.190  2.6884 -0.7723 -0.2148
32497SOL     OW  895   8.887   3.773   0.857 -0.0400 -0.2320  0.3004
32497SOL    HW1  896   8.961   3.817   0.899  0.6026 -0.9169 -0.0987
32497SOL    HW2  897   8.922   3.740   0.774 -1.0197  0.1782 -0.2855
32498SOL     OW  898   4.296  10.655   5.982 -0.6030 -0.1397  0.1479
32498SOL    HW1  899   4.364  10.597   6.017 -1.5881 -2.0948 -1.0662
32498SOL    HW2  900   4.225  10.651   6.047  0.0266  1.0978  0.9182
32499SOL     OW  901   2.193   0.949   0.439  0.1591  0.3370  0.2138
32499SOL    HW1  902   2.210   0.943   0.533 -1.6654  0.6677  0.5933
32499SOL    HW2  903   2.101   0.923   0.430 -0.3436  2.4918 -1.1980
32500SOL     OW  904   9.621   9.691   3.442 -0.3024 -0.0007  0.4475
32500SOL    HW1  905   9.616   9.596   3.448  0.2153 -0.0181  0.5899
32500SOL    HW2  906   9.548   9.715   3.385 -0.4808 -0.4772  0.4772
32501SOL     OW  907   7.887   7.443   0.630 -0.4052  0.3827  0.6748
32501SOL    HW1  908   7.870   7.521   0.579 -0.6828 -0.2203 -0.1683
32501SOL    HW2  909   7.982   7.437   0.636 -0.3658  0.1923 -0.1737
32502SOL     OW  910   9.312   1.119   5.369  0.4233 -0.2369 -0.1356
32502SOL    HW1  911   9.286   1.209   5.386  0.4250  0.1246 -1.9525
32502SOL    HW2  912   9.394   1.108   5.417  1.4342  1.3256 -1.4806
32503SOL     OW  913   7.460   3.155   5.594 -0.2756 -0.6283  0.0124
32503SOL    HW1  914   7.379   3.130   5.640 -1.1347  0.0539 -1.0965
32503SOL    HW2  915   7.508   3.208   5.658 -0.8085 -0.8476  0.6019
32504SOL     OW  916  10.950   4.722   9.625 -0.1612  0.4427  0.2104
32504SOL    HW1  917  10.895   4.644   9.626 -0.7078  0.8287  0.3929
32504SOL    HW2  918  10.948   4.753   9.535 -1.9510  1.6476  0.6283
32505SOL     OW  919   9.174  10.483   0.327  0.2566 -0.4903 -0.1687
32505SOL    HW1  920   9.111  10.450   0.391  0.9932 -1.4658  0.0643
32505SOL    HW2  921   9.219  10.405   0.295  0.5998  0.0949 -1.1305
32506SOL     OW  922   3.678  10.540   9.591 -0.1080  0.2164 -0.1948
32506SOL    HW1  923   3.697  10.557   9.683  0.3333  0.3333 -0.3077
32506SOL    HW2  924   3.596  10.586   9.575  0.2547  0.9071 -0.0822
32507SOL     OW  925   2.339   7.844   6.496  0.6570 -0.3059  0.1325
32507SOL    HW1  926   2.427   7.817   6.520  0.6354 -0.5923 -0.1198
32507SOL    HW2  927   2.324   7.807   6.409  0.1039 -0.6774  0.3776
32508SOL     OW  928   8.073   0.590   6.309  0.2530  0.4158 -0.1621
32508SOL    HW1  929   8.005   0.544   6.359  0.1135  0.3194 -0.4403
32508SOL    HW2  930   8.044   0.681   6.310  0.0584  0.3570 -0.3796
32509SOL     OW  931   5.991   9.289   7.227  0.7558 -0.1293  0.7075
32509SOL    HW1  932   5.903   9.276   7.261  0.4836 -0.1746 -0.0174
32509SOL    HW2  933   6.024   9.365   7.274  0.4657 -0.3355  1.2452
32510SOL     OW  934   1.965   6.767   2.133 -0.9029 -0.4176 -0.6794
32510SOL    HW1  935   2.057   6.748   2.113 -0.8034  0.7122 -1.3848
32510SOL    HW2  936   1.916   6.727   2.061 -0.7542  1.2136 -1.7183
32511SOL     OW  937   4.418   4.473   0.977  0.4367 -0.1471 -0.0013
32511SOL    HW1  938   4.436   4.540   0.911  0.4027  1.8886  1.9960
32511SOL    HW2  939   4.499   4.468   1.028  0.5906 -1.9601 -0.4163
32512SOL     OW  940   5.337   0.537   0.093  0.1056  0.2555 -0.0105
32512SOL    HW1  941   5.318   0.549  -0.000 -0.7798  0.0140  0.1363
32512SOL    HW2  942   5.255   0.557   0.137 -0.3070 -2.3448  0.5241
32513SOL     OW  943   0.844   7.335   5.501 -0.0378 -0.3813 -0.0105
32513SOL    HW1  944   0.921   7.392   5.504  0.7945 -1.4261 -1.0370
32513SOL    HW2  945   0.835   7.313   5.408 -2.2670  0.6469 -0.0631
32514SOL     OW  946   3.958   9.039   1.552  0.8365 -0.3289 -0.0418
32514SOL    HW1  947   3.887   8.975   1.537  1.3072 -1.1550  1.1652
32514SOL    HW2  948   3.930   9.087   1.630  1.7137 -0.8486  0.6111
32515SOL     OW  949   2.325   6.142   5.816  0.2840 -0.2879  0.1049
32515SOL    HW1  950   2.278   6.226   5.808  1.3901  0.3270 -0.0135
32515SOL    HW2  951   2.316   6.119   5.908  1.3622  0.7871  0.4913
32516SOL     OW  952   7.569   3.026   2.660 -0.4585  0.0254 -0.3056
32516SOL    HW1  953   7.529   3.108   2.688  0.7063  0.5144 -0.0571
32516SOL    HW2  954   7.658   3.029   2.695 -0.2855 -1.1789 -0.6089
32517SOL     OW  955   0.487   3.726   8.505  0.5811 -0.0087 -0.2675
32517SOL    HW1  956   0.477   3.676   8.586  0.3281 -0.1498 -0.3823
32517SOL    HW2  957   0.574   3.704   8.473  0.4598 -0.4012 -0.3315
32518SOL     OW  958   7.314   1.464  10.866 -0.1092  0.2344 -0.3210
32518SOL    HW1  959   7.408   1.480  10.860  0.1960 -1.0310  0.8370
32518SOL    HW2  960   7.284   1.522  10.936 -0.3004  1.0618 -1.0810
32519SOL     OW  961   2.959   5.584   3.054  0.3222 -0.1062 -0.1787
32519SOL    HW1  962   2.936   5.508   3.106  0.4561 -1.1280 -1.5783
32519SOL    HW2  963   2.885   5.596   2.994  0.5696  0.4972 -0.3727
32520SOL     OW  964   2.600   5.126   5.574  0.1834 -0.0741  0.6031
32520SOL    HW1  965   2.668   5.131   5.507 -2.5082 -0.3015 -2.2624
32520SOL    HW2  966   2.537   5.063   5.539 -1.4455  0.0359  3.2372
32521SOL     OW  967   9.945   3.849  10.848  0.8279  0.2192 -0.5617
32521SOL    HW1  968   9.864   3.860  10.799  1.3597  0.5335 -1.3756
32521SOL    HW2  969   9.999   3.792  10.793  2.1339  2.0357 -1.1897
32522SOL     OW  970   1.683   7.206   2.156  0.1518  0.1856 -0.0685
32522SOL    HW1  971   1.634   7.271   2.106  1.4507  1.7343  0.6001
32522SOL    HW2  972   1.618   7.141   2.182 -1.2111  1.2965 -0.6429
32523SOL     OW  973   0.632   7.803   3.104 -0.5880  0.7390 -0.1503
32523SOL    HW1  974   0.666   7.877   3.055  0.1494  0.2361 -0.4026
32523SOL    HW2  975   0.573   7.759   3.043  0.2543  0.1692 -0.5583
32524SOL     OW  976  10.588   4.946   2.065  0.1597 -0.3135 -0.0252
32524SOL    HW1  977  10.541   4.863   2.075  1.3766 -0.9380  0.7083
32524SOL    HW2  978  10.625   4.963   2.151 -1.0854  1.6391  0.1526
32525SOL     OW  979   5.697   6.617   2.161 -0.2998  0.2983  0.1651
32525SOL    HW1  980   5.748   6.618   2.242 -0.7539 -1.7738  0.5111
32525SOL    HW2  981   5.673   6.708   2.146  1.7859  1.0326  1.0820
32526SOL     OW  982   9.076   6.675  10.305 -0.1168 -0.1626  0.1460
32526SOL    HW1  983   9.089   6.713  10.392 -0.0688  2.9941 -1.1693
32526SOL    HW2  984   9.165   6.665  10.270 -0.1710 -0.8704  0.1950
32527SOL     OW  985   3.614   1.285   5.948  0.3161 -0.3855  0.0668
32527SOL    HW1  986   3.569   1.207   5.916  2.1208 -1.7832  0.8377
32527SOL    HW2  987   3.549   1.331   6.000 -0.5542 -1.7781  0.2210
32528SOL     OW  988   3.014   0.625   4.178 -0.3878 -0.0691 -0.1171
32528SOL    HW1  989   2.966   0.551   4.140 -1.6518 -0.5128  2.2736
32528SOL    HW2  990   3.003   0.696   4.114  1.1711 -2.0084 -2.6232
32529SOL     OW  991   1.196   6.652   8.358  0.0974  0.2696 -0.0516
32529SOL    HW1  992   1.232   6.578   8.309 -1.7367  0.1609 -1.2629
32529SOL    HW2  993   1.247   6.728   8.329 -0.4794  0.0828 -1.5478
32530SOL     OW  994   2.132   7.015  10.179 -0.0567  0.0678 -0.1687
32530SOL    HW1  995   2.204   7.012  10.116 -0.7348  1.7986 -1.0808
32530SOL    HW2  996   2.127   7.107  10.205 -0.0992 -0.5442  2.0791
32531SOL     OW  997   0.856   0.447   0.922 -0.8425  0.0531 -0.4046
32531SOL    HW1  998   0.796   0.430   0.994  0.3386 -0.4426  0.4928
32531SOL    HW2  999   0.896   0.531   0.943 -0.1690 -0.2993 -0.2296
32532SOL     OW 1000   3.107   5.451   0.405 -0.1554  0.3432 -0.4715
32532SOL    HW1 1001   3.168   5.523   0.419 -1.9920  1.5953  1.4080
32532SOL    HW2 1002   3.139   5.407   0.326  1.0353  3.1904 -1.6366
32533SOL     OW 1003   0.998   8.799   2.572 -0.1096  0.1700 -0.3453
32533SOL    HW1 1004   1.047   8.813   2.491  0.4582  3.1184  0.4459
32533SOL    HW2 1005   0.909   8.829   2.552  0.0452  0.9540  0.0952
32534SOL     OW 1006   0.440   7.466   1.320 -0.1427 -0.0471  0.3857
32534SOL    HW1 1007   0.467   7.558   1.331 -0.5699 -0.0206  1.1835
32534SOL    HW2 1008   0.371   7.470   1.254 -0.7247  0.2997  1.0150
32535SOL     OW 1009   5.613   5.404   9.223  0.3330  0.3130 -0.1497
32535SOL    HW1 1010   5.579   5.330   9.273 -1.5130  1.4276  0.2704
32535SOL    HW2 1011   5.657   5.459   9.288  0.4615  0.3093 -0.2336
32536SOL     OW 1012   7.148  10.733   1.928  0.2097  0.3252  0.1627
32536SOL    HW1 1013   7.237  10.738   1.894 -0.6335 -0.6005 -2.2566
32536SOL    HW2 1014   7.096  10.695   1.857 -1.9455 -0.0748  1.8661
32537SOL     OW 1015  10.760   3.061   7.977 -0.4117 -0.9327  0.0898
32537SOL    HW1 1016  10.678   3.031   7.939 -1.1518 -0.7269  1.4925
32537SOL    HW2 1017  10.783   3.139   7.927 -0.6774 -1.4282 -0.8004
32538SOL     OW 1018   5.599   2.034  10.588 -0.0830 -0.2123 -0.0508
32538SOL    HW1 1019   5.666   1.983  10.633 -0.3668 -1.2943 -0.8453
32538SOL    HW2 1020   5.541   2.064  10.658  0.2356 -0.7604  0.4550
32539SOL     OW 1021   4.129   9.576  10.167 -0.1353  0.1721  0.4016
32539SOL    HW1 1022   4.086   9.540  10.244  0.1973  1.6543  1.2904
32539SOL    HW2 1023   4.220   9.550  10.176 -0.2080 -0.1569  0.2000
32540SOL     OW 1024   5.937   4.278   4.101 -0.4521  0.2113 -0.1144
32540SOL    HW1 1025   5.886   4.198   4.116  0.2334 -0.4604 -1.3221
32540SOL    HW2 1026   5.889   4.323   4.032 -0.1445  0.2317 -0.3139
32541SOL     OW 1027   0.352   1.892   8.630  0.2330 -0.3123 -0.5080
32541SOL    HW1 1028   0.394   1.840   8.698  0.4653 -0.2363 -0.5956
32541SOL    HW2 1029   0.389   1.858   8.548 -0.1123 -0.4671 -0.6023
32542SOL     OW 1030   5.249   0.019   8.953 -0.1489  0.0808 -0.0309
32542SOL    HW1 1031   5.338  -0.015   8.959  0.2315  1.1484  0.6274
32542SOL    HW2 1032   5.194  -0.058   8.937  0.6752 -0.8346  1.4165
32543SOL     OW 1033   5.850   4.725   7.806  0.6825  0.4082 -0.2010
32543SOL    HW1 1034   5.926   4.774   7.776  0.7798  0.7585  0.6120
32543SOL    HW2 1035   5.804   4.785   7.865  0.0390  0.0280 -0.3084
32544SOL     OW 1036   6.909   1.330   3.177  0.5590  0.1636 -0.4717
32544SOL    HW1 1037   6.977   1.315   3.243  0.6613 -0.6361 -0.7560
32544SOL    HW2 1038   6.957   1.352   3.097  0.4501  0.5919 -0.4215
32545SOL     OW 1039   6.865   8.067   7.988  0.6583 -0.1181  0.0020
32545SOL    HW1 1040   6.883   8.148   8.035 -1.3636  0.3697 -0.0484
32545SOL    HW2 1041   6.900   8.082   7.900  1.4373  0.2165  0.3691
32546SOL     OW 1042   4.020   1.328  10.222  0.0970  0.1924  0.0682
32546SOL    HW1 1043   4.103   1.373  10.206 -0.6165  1.7380  0.6179
32546SOL    HW2 1044   4.028   1.293  10.311 -0.9169  2.8205  1.2342
32547SOL     OW 1045   7.030   8.591   4.162 -0.2489  0.0838  0.3814
32547SOL    HW1 1046   7.090   8.637   4.103 -0.0525  0.0984  0.5893
32547SOL    HW2 1047   7.087   8.555   4.230 -0.3661 -0.6963  0.0795
32548SOL     OW 1048   1.577   0.262   8.002  0.2364 -0.5077  0.0730
32548SOL    HW1 1049   1.488   0.297   8.006  0.2039 -0.5985  0.1632
32548SOL    HW2 1050   1.566   0.174   7.967  0.5495  0.3584 -2.2473
32549SOL     OW 1051   0.413   4.989   3.438  0.4665  0.3304 -0.2196
32549SOL    HW1 1052   0.327   5.032   3.440 -0.3667 -1.2876 -1.0297
32549SOL    HW2 1053   0.451   5.009   3.524 -1.4248 -0.3860  0.8046
32550SOL     OW 1054   5.581   1.126   5.721  0.2413  0.1316 -0.1170
32550SOL    HW1 1055   5.643   1.183   5.676 -0.2004  0.2764 -0.5470
32550SOL    HW2 1056   5.612   1.037   5.701 -0.0039  0.1926 -0.7948
32551SOL     OW 1057   6.704   2.406   8.142  0.1917 -1.0567 -0.3614
32551SOL    HW1 1058   6.782   2.446   8.104  1.8158 -3.8741 -0.1334
32551SOL    HW2 1059   6.689   2.456   8.223  0.1411  1.2241 -1.7324
32552SOL     OW 1060   3.971   0.253   2.051  0.2093 -0.4971 -0.5080
32552SOL    HW1 1061   3.980   0.292   2.138 -1.7575 -0.5384 -0.2735
32552SOL    HW2 1062   3.880   0.226   2.046 -0.2855  1.5277 -3.4230
32553SOL     OW 1063   4.512   8.293   1.506 -0.1065 -0.3645  0.1871
32553SOL    HW1 1064   4.458   8.263   1.579 -0.4169 -0.2846 -0.0106
32553SOL    HW2 1065   4.449   8.319   1.439  0.1739  0.2074  0.1503
32554SOL     OW 1066   7.424   2.047   8.025 -0.2607 -0.6607  0.4779
32554SOL    HW1 1067   7.444   1.961   7.988  0.2173 -0.0890 -0.6089
32554SOL    HW2 1068   7.344   2.075   7.980  0.1251 -0.1160  0.1276
32555SOL     OW 1069   3.182   9.295   0.125 -0.4742 -0.1865  0.2162
32555SOL    HW1 1070   3.210   9.228   0.062  2.0693  0.5163  0.5792
32555SOL    HW2 1071   3.175   9.248   0.208 -3.5333 -1.0472 -0.4648
32556SOL     OW 1072   4.649   0.897   1.579  0.3486 -0.4215 -0.2129
32556SOL    HW1 1073   4.688   0.892   1.667  0.1024  0.3999 -0.0546
32556SOL    HW2 1074   4.614   0.809   1.564 -0.8566 -0.1853  1.0932
32557SOL     OW 1075   6.030   8.461   8.960 -0.4450  0.1385  0.4800
32557SOL    HW1 1076   6.052   8.369   8.975  0.1072  0.1278 -0.3663
32557SOL    HW2 1077   5.943   8.458   8.921  0.7499 -0.2302 -2.3084
32558SOL     OW 1078  10.376   2.513   0.806 -0.4591  0.2741  0.4354
32558SOL    HW1 1079  10.428   2.439   0.774 -1.0200 -0.2668  0.7553
32558SOL    HW2 1080  10.294   2.508   0.756 -0.0918  1.2992 -0.2832
32559SOL     OW 1081   3.761   7.470   0.006  0.3973  0.1942 -0.1120
32559SOL    HW1 1082   3.848   7.458   0.045 -0.0978 -0.0963  0.9357
32559SOL    HW2 1083   3.704   7.488   0.081 -0.1444  2.1079 -0.9636
32560SOL     OW 1084   7.787   3.983   6.023 -0.1164  1.0055 -0.3666
32560SOL    HW1 1085   7.810   4.001   6.114 -1.8401  0.2489  0.2432
32560SOL    HW2 1086   7.824   4.056   5.974  2.7799  0.3098  0.6302
32561SOL     OW 1087   4.057   5.883  10.871  0.2394 -0.1050  0.1288
32561SOL    HW1 1088   3.989   5.948  10.893 -0.8535 -0.8407 -1.0251
32561SOL    HW2 1089   4.026   5.802  10.911  0.8493 -0.2637  0.2807
32562SOL     OW 1090   6.004   4.881   3.524  0.5208  0.2091  0.0114
32562SOL    HW1 1091   5.913   4.891   3.551  1.2784  3.3857  1.7257
32562SOL    HW2 1092   6.023   4.788   3.535 -2.5891 -0.5716 -0.7693
32563SOL     OW 1093   6.301   1.139   3.200  0.3486 -0.2658  0.3593
32563SOL    HW1 1094   6.379   1.156   3.148  0.4295  0.9652  0.8526
32563SOL    HW2 1095   6.334   1.120   3.288  0.2737 -3.4937 -0.2617
32564SOL     OW 1096   3.638   5.394   6.037 -0.0597 -0.0650  0.1413
32564SOL    HW1 1097   3.630   5.407   5.943 -1.4432  1.7280  0.4959
32564SOL    HW2 1098   3.582   5.461   6.076 -0.3948 -1.5168  2.2204
32565SOL     OW 1099   7.388   5.927   9.392 -0.7520 -0.6167  0.0837
32565SOL    HW1 1100   7.325   5.878   9.339  0.4583  0.5469 -2.5175
32565SOL    HW2 1101   7.467   5.873   9.388  0.1798  0.8326 -1.6750
32566SOL     OW 1102  10.639   0.909   2.055  0.0817  0.7861  0.3994
32566SOL    HW1 1103  10.710   0.846   2.055  0.2003  0.8996 -0.6169
32566SOL    HW2 1104  10.659   0.967   1.981 -0.8819  1.0203  0.3153
32567SOL     OW 1105   8.885  10.298   0.394  0.2279  0.2259  0.1029
32567SOL    HW1 1106   8.921  10.232   0.453  0.2981  0.8240  0.7250
32567SOL    HW2 1107   8.822  10.250   0.341 -0.8443 -0.0291  1.5928
32568SOL     OW 1108  10.664   9.071   6.502  0.0989  0.5261 -0.1108
32568SOL    HW1 1109  10.579   9.114   6.505  0.3278  1.0016 -0.2670
32568SOL    HW2 1110  10.668   9.033   6.414  0.4100  1.2746 -0.4329
32569SOL     OW 1111   2.538   6.877   6.423 -0.1996  0.3351  0.4252
32569SOL    HW1 1112   2.561   6.826   6.345 -0.0909  1.2714 -0.1656
32569SOL    HW2 1113   2.458   6.836   6.455 -0.6682  0.4067 -0.6244
32570SOL     OW 1114   7.289   0.161   4.031  0.5479  0.5648  0.0343
32570SOL    HW1 1115   7.325   0.232   3.977  1.9080  1.0028  1.4635
32570SOL    HW2 1116   7.338   0.167   4.113 -0.9193 -0.6018  1.0166
32571SOL     OW 1117   2.797   3.726   4.814 -0.0093  0.0896  0.3066
32571SOL    HW1 1118   2.787   3.669   4.737  0.9513  1.0955 -0.5932
32571SOL    HW2 1119   2.783   3.668   4.889 -0.9117 -0.9286 -0.6277
32572SOL     OW 1120   9.678   3.995   4.461  0.2153 -0.2278  0.3660
32572SOL    HW1 1121   9.741   4.014   4.392  2.2706 -2.1290  1.6663
32572SOL    HW2 1122   9.599   4.041   4.434  1.3957  0.2057 -2.5341
32573SOL     OW 1123   2.654   4.543   3.282 -0.3753  0.2183  0.7371
32573SOL    HW1 1124   2.701   4.625   3.264 -0.2759  0.4111  1.7818
32573SOL    HW2 1125   2.715   4.474   3.257 -0.9271  0.4562 -1.3068
32574SOL     OW 1126   5.502   5.386   2.483 -0.5982 -0.5912  0.3223
32574SOL    HW1 1127   5.444   5.462   2.475 -0.0112 -0.0288  1.4286
32574SOL    HW2 1128   5.442   5.312   2.493 -1.1266  0.0229  1.7965
32575SOL     OW 1129   7.210   9.400   0.639 -0.0627  0.0835 -0.1415
32575SOL    HW1 1130   7.158   9.352   0.702  0.6282 -2.8737 -1.7396
32575SOL    HW2 1131   7.147   9.454   0.592 -0.9465  0.2670  1.2454
32576SOL     OW 1132  10.018   7.795   5.434  0.6077 -0.4265 -0.0550
32576SOL    HW1 1133   9.929   7.776   5.405  0.4317  0.1091  0.1194
32576SOL    HW2 1134  10.026   7.890   5.426  1.5699 -0.5959 -1.2143
32577SOL     OW 1135   5.136   1.494   4.526 -0.0238 -0.4141 -0.6699
32577SOL    HW1 1136   5.115   1.524   4.438 -0.5913  0.8364 -0.1082
32577SOL    HW2 1137   5.066   1.528   4.581  1.4683  0.6252  0.6168
32578SOL     OW 1138   1.233   6.016   8.019 -0.0396 -0.0115  0.0874
32578SOL    HW1 1139   1.166   6.028   7.952 -0.5382  0.1824  0.6177
32578SOL    HW2 1140   1.185   6.017   8.102  0.4984 -0.8195  0.4233
32579SOL     OW 1141   2.458   0.432   0.635  0.1308  0.1074  0.0675
32579SOL    HW1 1142   2.454   0.498   0.566 -0.1090 -0.0127 -0.0337
32579SOL    HW2 1143   2.513   0.471   0.703  1.9386 -0.4893 -0.9861
32580SOL     OW 1144  10.430   5.585   0.162  0.0462  0.6127 -0.3683
32580SOL    HW1 1145  10.430   5.594   0.257 -0.8597  1.2466 -0.4272
32580SOL    HW2 1146  10.523   5.576   0.139  0.3725  1.7082  0.4653
32581SOL     OW 1147   2.994   9.641   1.009  0.4533 -0.4710 -0.1524
32581SOL    HW1 1148   2.941   9.625   0.931 -1.2591 -1.6617  1.1936
32581SOL    HW2 1149   3.066   9.578   1.003  0.8064  0.0209 -1.1708
32582SOL     OW 1150   6.993   1.327   9.017 -0.2144 -0.5063 -0.1078
32582SOL    HW1 1151   6.967   1.418   9.022  1.5856  0.0758 -0.7739
32582SOL    HW2 1152   6.978   1.302   8.926  1.3277 -0.2113 -0.4578
32583SOL     OW 1153   9.904   9.245   5.392 -0.1361 -1.0537  0.0775
32583SOL    HW1 1154   9.973   9.249   5.458 -0.4527 -1.0724  0.4150
32583SOL    HW2 1155   9.879   9.153   5.389 -0.6676 -0.9251  0.5040
32584SOL     OW 1156   8.598   6.484   8.993  0.1871 -0.3578  0.3567
32584SOL    HW1 1157   8.607   6.504   8.900 -1.3117  0.8860  0.4659
32584SOL    HW2 1158   8.504   6.473   9.006  0.3980 -0.6223  1.7046
32585SOL     OW 1159   3.083   8.899   2.123  0.8202  0.0412 -0.2973
32585SOL    HW1 1160   3.028   8.954   2.068  0.0761 -0.1537  0.2258
32585SOL    HW2 1161   3.172   8.928   2.106  0.3113  3.0591  1.7590
32586SOL     OW 1162   9.796  10.733   1.771 -0.0896  0.6767 -0.1785
32586SOL    HW1 1163   9.712  10.689   1.783 -0.5776  1.9885  1.3230
32586SOL    HW2 1164   9.801  10.750   1.677 -0.9892 -0.4282 -0.4307
32587SOL     OW 1165  10.717   2.177   5.347 -0.2546  0.3857  0.0184
32587SOL    HW1 1166  10.701   2.197   5.439 -1.3623  0.4882 -0.1879
32587SOL    HW2 1167  10.757   2.090   5.348 -1.3548 -0.1205  0.5285
32588SOL     OW 1168   5.910  10.713   6.241 -0.2138  0.7066 -0.4836
32588SOL    HW1 1169   5.986  10.665   6.210 -0.4233 -1.1002  1.6354
32588SOL    HW2 1170   5.851  10.717   6.166 -0.0944 -2.2332 -0.7783
32589SOL     OW 1171  10.512   0.268   2.340 -0.3546  0.4572 -0.0308
32589SOL    HW1 1172  10.443   0.334   2.339 -0.0119  0.8451  0.8855
32589SOL    HW2 1173  10.581   0.305   2.284 -1.4402 -0.5724 -2.1160
32590SOL     OW 1174   9.143   2.356   6.158  0.3376  0.1770 -0.0749
32590SOL    HW1 1175   9.216   2.303   6.129  2.1370  1.5664  1.7604
32590SOL    HW2 1176   9.162   2.375   6.250 -2.2420  0.7027  0.4011
32591SOL     OW 1177   5.602  10.974   1.819  0.2994 -0.1194  0.8994
32591SOL    HW1 1178   5.513  10.937   1.819  0.5529 -0.7651 -0.4580
32591SOL    HW2 1179   5.658  10.901   1.792  1.1632  0.4908  1.0361
32592SOL     OW 1180   0.746   4.433   6.148  0.0114  0.6505  0.1197
32592SOL    HW1 1181   0.790   4.400   6.226  1.2169  0.7811 -0.4881
32592SOL    HW2 1182   0.807   4.497   6.112 -0.6236  0.7369 -0.8230
32593SOL     OW 1183  10.555   3.554   5.493  0.3039 -0.5357 -0.1417
32593SOL    HW1 1184  10.574   3.637   5.536  1.6289 -1.0220  0.2265
32593SOL    HW2 1185  10.559   3.489   5.563  0.2285 -1.0395 -0.5981
32594SOL     OW 1186   7.903   3.765   9.136 -0.0976  0.3427 -0.0654
32594SOL    HW1 1187   7.854   3.825   9.192 -1.5884 -2.3132  1.5687
32594SOL    HW2 1188   7.858   3.766   9.052 -0.5927  0.8928  0.2122
32595SOL     OW 1189   3.306   7.530   4.295 -0.7906  0.3492 -0.6757
32595SOL    HW1 1190   3.301   7.488   4.381 -0.7231 -1.3224 -1.4920
32595SOL    HW2 1191   3.269   7.617   4.310  2.0517  1.2381  1.7565
32596SOL     OW 1192   4.261   5.730   8.432 -0.5564  0.2402  0.1040
32596SOL    HW1 1193   4.337   5.735   8.373 -0.1298 -0.3154  0.6005
32596SOL    HW2 1194   4.207   5.805   8.407  0.2106  0.7129 -0.1834
32597SOL     OW 1195   0.444   5.294   2.732 -0.4898  0.0441  0.3597
32597SOL    HW1 1196   0.492   5.376   2.740 -1.3128  0.3538  2.4212
32597SOL    HW2 1197   0.512   5.226   2.736 -0.0419  0.5443  1.4159
32598SOL     OW 1198   2.751   2.054  10.577  0.2681  0.0504 -0.3554
32598SOL    HW1 1199   2.675   2.077  10.632  1.2036 -0.8038  1.3295
32598SOL    HW2 1200   2.818   2.027  10.639  1.5703 -0.3567 -1.9105
32599SOL     OW 1201  10.672   6.957   4.228 -0.0758  0.1089  0.0565
32599SOL    HW1 1202  10.749   6.975   4.174  0.0783 -1.4337 -0.2792
32599SOL    HW2 1203  10.627   6.886   4.183 -1.5147  0.7550  0.4445
32600SOL     OW 1204   1.057   3.181   1.535 -0.2637 -0.3767 -0.1460
32600SOL    HW1 1205   0.965   3.206   1.542 -0.2928 -0.2984 -0.8127
32600SOL    HW2 1206   1.103   3.264   1.521 -0.3777 -0.6946 -2.5443
32601SOL     OW 1207   9.181   8.169   1.212 -0.4508  0.1233  0.4242
32601SOL    HW1 1208   9.134   8.251   1.229 -0.0941  0.3329  0.4059
32601SOL    HW2 1209   9.272   8.196   1.198 -0.0727 -0.4032  1.7756
32602SOL     OW 1210   4.834   4.323   0.831  0.3700 -0.0950  0.2493
32602SOL    HW1 1211   4.764   4.330   0.896  0.3595  0.1190  0.2154
32602SOL    HW2 1212   4.834   4.408   0.787 -2.0214 -1.3984 -2.4545
32603SOL     OW 1213   0.974  10.070   3.946 -0.9092 -0.5942 -0.3042
32603SOL    HW1 1214   0.965  10.133   4.017  1.0712 -1.9727  1.2409
32603SOL    HW2 1215   0.972  10.123   3.866  1.6898  1.5423  0.9862
32604SOL     OW 1216  10.143   9.420   9.210  0.2710 -0.3810 -0.1988
32604SOL    HW1 1217  10.068   9.361   9.208 -1.0428  1.2387  0.4093
32604SOL    HW2 1218  10.127   9.483   9.139  0.2328  0.9430  0.9540
32605SOL     OW 1219   9.729   3.725   4.242  0.4792 -0.2410  0.2211
32605SOL    HW1 1220   9.773   3.666   4.303 -1.5401  0.3051  2.3082
32605SOL    HW2 1221   9.762   3.812   4.265  1.6902 -0.2773 -1.2774
32606SOL     OW 1222   0.063   7.060   5.996  0.1235  0.2792 -0.2161
32606SOL    HW1 1223  -0.019   7.082   6.040  0.9032  0.0198  1.4267
32606SOL    HW2 1224   0.116   7.140   6.002 -0.0266  0.4626 -1.3089
32607SOL     OW 1225   2.506   5.316   4.547  0.1566 -0.6505  0.0152
32607SOL    HW1 1226   2.443   5.245   4.535 -0.1504 -0.4299  0.2928
32607SOL    HW2 1227   2.463   5.376   4.608  0.0115  0.2412 -0.9464
32608SOL     OW 1228   0.188   3.620  10.862 -0.0934 -0.1764 -0.5118
32608SOL    HW1 1229   0.248   3.589  10.930 -0.1950  1.6811  0.4623
32608SOL    HW2 1230   0.242   3.678  10.808 -0.7711  0.8030 -0.1507
32609SOL     OW 1231   1.851   3.168   9.146 -0.3258  0.4120 -1.3819
32609SOL    HW1 1232   1.819   3.253   9.113  0.6272  1.5339  0.5066
32609SOL    HW2 1233   1.928   3.190   9.197 -0.3239 -1.5790 -0.4937
32610SOL     OW 1234   7.853   1.901   1.947  0.2431  0.1585 -0.8939
32610SOL    HW1 1235   7.874   1.814   1.982  0.6704  0.3760 -0.6142
32610SOL    HW2 1236   7.846   1.888   1.853 -1.2710 -0.5088 -0.7034
32611SOL     OW 1237   9.965   6.242   2.737  0.1011 -0.2986  0.1839
32611SOL    HW1 1238   9.962   6.301   2.661 -0.6974  2.1316  2.0241
32611SOL    HW2 1239   9.897   6.177   2.720  0.5570 -0.3430 -1.5912
32612SOL     OW 1240   8.485   5.248   0.210 -0.0048 -0.2145 -0.3534
32612SOL    HW1 1241   8.494   5.314   0.279 -0.9765 -0.5302  0.0832
32612SOL    HW2 1242   8.535   5.173   0.241  0.3573 -0.0123 -0.4416
32613SOL     OW 1243   6.694  10.162   2.824 -0.0003  0.3833  0.4994
32613SOL    HW1 1244   6.765  10.123   2.875  1.6736  0.1341 -1.9449
32613SOL    HW2 1245   6.726  10.249   2.799 -1.8803  1.5788  2.0693
32614SOL     OW 1246   3.086   9.870   0.888 -0.2028 -0.3500  0.0289
32614SOL    HW1 1247   3.169   9.888   0.843 -0.0035  0.3725  0.6721
32614SOL    HW2 1248   3.107   9.802   0.952  0.0001  0.1721  0.5169
32615SOL     OW 1249   9.291   5.886   9.073  0.0772  0.1330 -0.2009
32615SOL    HW1 1250   9.359   5.824   9.045  1.8332  2.3655 -1.0756
32615SOL    HW2 1251   9.293   5.954   9.007 -3.4087  0.0352 -0.4843
32616SOL     OW 1252   6.712   9.913   2.605 -0.2345  0.2332 -0.2118
32616SOL    HW1 1253   6.777   9.844   2.587 -0.8714 -0.0329 -1.5475
32616SOL    HW2 1254   6.727   9.978   2.536 -0.2831  0.9715  0.4694
32617SOL     OW 1255   3.525   1.766   4.251  0.2334 -0.0163  0.3231
32617SOL    HW1 1256   3.469   1.693   4.223  1.4999 -0.3838 -1.3775
32617SOL    HW2 1257   3.584   1.727   4.315 -0.1912 -0.0887  0.6716
32618SOL     OW 1258   2.544   4.479   6.614 -0.4095 -0.1182 -0.3315
32618SOL    HW1 1259   2.590   4.547   6.565 -3.8227  1.5801 -1.3132
32618SOL    HW2 1260   2.505   4.423   6.547 -1.5916 -0.2657  0.4645
32619SOL     OW 1261   0.070   6.431   7.386  0.0441  0.0834  0.0588
32619SOL    HW1 1262   0.008   6.393   7.325 -0.9291  0.7919  0.5860
32619SOL    HW2 1263   0.110   6.504   7.338  0.9492 -0.7696 -0.4996
32620SOL     OW 1264   9.812  10.199   3.097  0.5744 -0.3410 -0.2417
32620SOL    HW1 1265   9.848  10.110   3.100  0.9655 -0.2152 -1.0570
32620SOL    HW2 1266   9.773  10.212   3.183  0.0349 -1.5022 -0.2997
32621SOL     OW 1267   7.947   2.826  10.078  0.2920 -0.0581 -0.5912
32621SOL    HW1 1268   7.873   2.809  10.020  1.4956  0.7260 -2.4455
32621SOL    HW2 1269   8.024   2.799  10.027  1.3051 -0.5983  1.1738
32622SOL     OW 1270   3.610   3.210   9.811  0.6512  0.1907  0.6147
32622SOL    HW1 1271   3.663   3.257   9.875 -0.0157  0.0049  1.3146
32622SOL    HW2 1272   3.529   3.262   9.805  0.6002  0.0576  0.1281
32623SOL     OW 1273  10.742   5.757  10.249 -0.3146  0.3319 -0.5679
32623SOL    HW1 1274  10.690   5.796  10.319 -0.2756 -1.5737  0.5577
32623SOL    HW2 1275  10.824   5.730  10.291  0.7718  1.4651 -1.8981
32624SOL     OW 1276   6.434   3.827  10.160 -0.3835  0.0158  0.2677
32624SOL    HW1 1277   6.426   3.923  10.158 -0.9096 -0.0359 -0.0912
32624SOL    HW2 1278   6.436   3.805  10.253 -1.0149  0.3089  0.3508
32625SOL     OW 1279   1.411   3.413   9.396 -0.5561  0.1066 -0.5470
32625SOL    HW1 1280   1.489   3.367   9.427 -0.3917  0.3363 -0.6231
32625SOL    HW2 1281   1.342   3.346   9.398 -0.6969  0.2846  0.9163
32626SOL     OW 1282   8.761   5.299   3.960  0.6506  0.1290 -0.5325
32626SOL    HW1 1283   8.718   5.384   3.963 -0.6038 -0.4866 -0.4906
32626SOL    HW2 1284   8.851   5.315   3.989  0.1353  1.2599  0.4366
32627SOL     OW 1285   9.997   8.932   6.900 -0.3192 -0.4668  0.5098
32627SOL    HW1 1286   9.907   8.965   6.893  0.5340  1.9644  0.4732
32627SOL    HW2 1287  10.038   8.958   6.817  1.5278  2.0963  2.1681
32628SOL     OW 1288   2.664   4.853   6.142  0.2008 -0.4584  0.0578
32628SOL    HW1 1289   2.625   4.923   6.195 -0.9395 -1.9820  1.2762
32628SOL    HW2 1290   2.589   4.807   6.104  0.9804  0.0226 -2.1715
32629SOL     OW 1291   6.081   2.333   9.378 -0.1422 -0.4042 -0.1477
32629SOL    HW1 1292   6.133   2.397   9.428 -1.0040 -0.2999  0.6219
32629SOL    HW2 1293   6.138   2.309   9.304  0.2009  1.2322 -0.4335
32630SOL     OW 1294  10.689   8.490   5.064  0.1146 -0.2380 -0.2552
32630SOL    HW1 1295  10.782   8.477   5.045  0.4942  0.2113  1.1825
32630SOL    HW2 1296  10.656   8.403   5.086  0.0981 -0.4612 -1.1461
32631SOL     OW 1297   0.430   9.953   0.692 -0.2470 -0.0551  0.6596
32631SOL    HW1 1298   0.480  10.021   0.736  1.7997 -0.2240 -1.2832
32631SOL    HW2 1299   0.418   9.985   0.603 -0.9373 -1.3882  0.2489
32632SOL     OW 1300   4.547   3.428   3.555  0.5287  0.2750 -0.2655
32632SOL    HW1 1301   4.555   3.414   3.461  2.2413  0.7424 -0.1958
32632SOL    HW2 1302   4.618   3.377   3.593  2.7933  3.7569  0.4300
32633SOL     OW 1303   9.117   9.316   1.517 -0.0626  0.3979 -0.2916
32633SOL    HW1 1304   9.210   9.320   1.495 -0.1578  0.6135 -0.6665
32633SOL    HW2 1305   9.101   9.397   1.566 -0.1870  0.6574 -0.7586
32634SOL     OW 1306   4.462   4.099   7.507 -0.7941 -0.0157 -0.4910
32634SOL    HW1 1307   4.535   4.038   7.499  0.6119  1.6312 -0.5423
32634SOL    HW2 1308   4.495   4.181   7.470 -1.6936  1.5521  2.0487
32635SOL     OW 1309   6.031   4.258  10.128 -1.0131  0.5080 -0.3031
32635SOL    HW1 1310   6.073   4.271  10.043  0.0597 -1.1819 -0.0565
32635SOL    HW2 1311   6.038   4.164  10.144 -0.4051  0.9236  2.0505
32636SOL     OW 1312   1.781   8.701   3.597 -0.2092  0.1280 -0.0253
32636SOL    HW1 1313   1.833   8.621   3.605  0.4972  0.5601 -0.2438
32636SOL    HW2 1314   1.776   8.735   3.687 -1.5475 -0.7970  0.2694
32637SOL     OW 1315   4.525   4.170   4.293  0.2401  0.7427  0.0327
32637SOL    HW1 1316   4.468   4.102   4.257  0.4423 -1.4630  3.6170
32637SOL    HW2 1317   4.581   4.124   4.356  3.6317  3.4656 -0.8482
32638SOL     OW 1318   9.460   7.128   6.802  0.3090  0.3732 -0.1658
32638SOL    HW1 1319   9.412   7.201   6.840  1.7862  1.3634 -0.1597
32638SOL    HW2 1320   9.462   7.148   6.708 -0.8067 -0.5728 -0.4019
32639SOL     OW 1321   3.749   2.674   9.202 -0.2453  0.1287  0.3685
32639SOL    HW1 1322   3.772   2.726   9.125  0.6377 -0.3679  0.2848
32639SOL    HW2 1323   3.700   2.734   9.258  1.5412  1.3253  0.6875
32640SOL     OW 1324   7.187   5.336   2.493 -0.0663 -0.7498 -0.3978
32640SOL    HW1 1325   7.248   5.278   2.538  0.7177 -0.3202 -0.9072
32640SOL    HW2 1326   7.223   5.346   2.405  0.4954  1.4874  0.0394
32641SOL     OW 1327   0.570   1.539   4.299  0.5464 -0.5006 -0.0159
32641SOL    HW1 1328   0.579   1.446   4.279 -0.1582 -0.1694 -1.9706
32641SOL    HW2 1329   0.620   1.584   4.231  0.0545  0.5859  0.3199
32642SOL     OW 1330  10.678   7.476   3.562  0.3698 -0.3231 -0.7015
32642SOL    HW1 1331  10.607   7.530   3.597 -0.4912 -1.3263 -0.8827
32642SOL    HW2 1332  10.728   7.449   3.639 -0.7065 -1.3756 -0.3523
32643SOL     OW 1333   3.222   4.105  10.227  0.3427 -0.0968  0.4735
32643SOL    HW1 1334   3.145   4.088  10.281 -0.2367 -0.0463 -0.3309
32643SOL    HW2 1335   3.268   4.176  10.271 -0.4251  0.3222  0.5891
32644SOL     OW 1336   1.163   5.888   6.096 -0.5021  0.2327 -0.2230
32644SOL    HW1 1337   1.145   5.981   6.077 -0.2434  0.2509 -0.3822
32644SOL    HW2 1338   1.131   5.842   6.019  0.7345  0.3241 -0.8052
32645SOL     OW 1339   1.562   2.615   3.341  0.0423 -0.6221 -0.1132
32645SOL    HW1 1340   1.559   2.534   3.290  1.6531 -0.0029 -1.2109
32645SOL    HW2 1341   1.654   2.641   3.340 -0.2327  0.5093  1.3860
32646SOL     OW 1342   2.296   9.006   3.061  0.1646  0.0928  0.3177
32646SOL    HW1 1343   2.238   8.960   3.122 -0.3478  0.4830  0.1332
32646SOL    HW2 1344   2.268   9.098   3.066 -0.9676 -0.0990 -1.6651
32647SOL     OW 1345   7.186   8.974   3.576 -0.5228 -0.1204  0.2734
32647SOL    HW1 1346   7.229   8.914   3.638  0.6837  0.1934 -0.2456
32647SOL    HW2 1347   7.181   8.924   3.495 -1.0385 -0.1059  0.2932
32648SOL     OW 1348   1.998   9.238   2.353  0.2748 -0.9478 -0.2436
32648SOL    HW1 1349   1.969   9.159   2.400  0.6499 -1.6841 -1.2343
32648SOL    HW2 1350   1.989   9.308   2.417 -3.4609 -1.1640 -0.3959
32649SOL     OW 1351   8.645   8.514   0.600 -0.3471 -0.3823 -0.1737
32649SOL    HW1 1352   8.623   8.449   0.533  0.6695 -1.7888  0.8483
32649SOL    HW2 1353   8.593   8.489   0.676  0.3175 -0.2010  0.3370
32650SOL     OW 1354   1.142   8.680   0.172 -0.1971 -0.0423 -0.1156
32650SOL    HW1 1355   1.049   8.676   0.192  0.1164  1.3674  1.7883
32650SOL    HW2 1356   1.163   8.773   0.174  1.3102 -0.3614 -0.1702
32651SOL     OW 1357   3.072   2.606   5.658  0.4387  0.3011  0.1967
32651SOL    HW1 1358   3.113   2.688   5.628  2.7703 -0.7731  0.3901
32651SOL    HW2 1359   3.024   2.631   5.737  1.2293  1.4442  0.3260
32652SOL     OW 1360   3.075   5.608   3.645 -0.1101 -0.9451  0.1620
32652SOL    HW1 1361   3.156   5.570   3.679  0.4445  0.8445  0.9630
32652SOL    HW2 1362   3.031   5.643   3.722 -1.5227 -1.6401 -0.3079
32653SOL     OW 1363   1.260   4.523   7.333 -0.7559 -0.2478 -0.5152
32653SOL    HW1 1364   1.263   4.435   7.372  1.4161 -0.1563 -0.3831
32653SOL    HW2 1365   1.341   4.529   7.283 -1.1446  1.5004 -0.9475
32654SOL     OW 1366   7.222   3.471   8.632 -0.3075 -0.2505 -0.4092
32654SOL    HW1 1367   7.251   3.542   8.689  1.2883  0.1285 -1.6377
32654SOL    HW2 1368   7.223   3.393   8.687  1.9593 -0.0265 -0.1025
32655SOL     OW 1369   8.620   8.419   8.935  0.1381 -0.3185 -0.2762
32655SOL    HW1 1370   8.694   8.404   8.994 -0.0828  0.1453  0.1208
32655SOL    HW2 1371   8.604   8.514   8.940  0.6819 -0.1251 -1.7451
32656SOL     OW 1372   3.288   0.847   5.942 -0.0102 -0.4388  0.0049
32656SOL    HW1 1373   3.325   0.903   6.011  0.0301 -2.6092  1.7942
32656SOL    HW2 1374   3.364   0.813   5.895  0.0387 -0.6356  0.2291
32657SOL     OW 1375   8.566   0.350  10.662  0.1209 -0.0055  0.1950
32657SOL    HW1 1376   8.543   0.335  10.754 -0.7315  0.1580  0.0178
32657SOL    HW2 1377   8.656   0.320  10.654 -0.0682 -0.7840  0.9037
32658SOL     OW 1378   0.179   8.328   7.913 -0.5514  0.1581  0.3700
32658SOL    HW1 1379   0.228   8.390   7.967  0.0241 -1.6243  1.9584
32658SOL    HW2 1380   0.093   8.323   7.955 -0.4855 -0.3566  0.4420
32659SOL     OW 1381   9.658   1.488   5.220 -0.4762  0.6146  0.0639
32659SOL    HW1 1382   9.625   1.398   5.215 -0.9293  0.8428 -1.3780
32659SOL    HW2 1383   9.592   1.534   5.272 -0.4308  0.1989  0.4991
32660SOL     OW 1384   9.673  10.269   3.322  0.2148  0.2789 -0.2783
32660SOL    HW1 1385   9.594  10.274   3.376 -0.3661 -0.3396 -1.0684
32660SOL    HW2 1386   9.743  10.297   3.381 -0.4498 -0.0835  0.7091
32661SOL     OW 1387   9.761   9.217  10.922  0.2270 -0.2823 -0.4035
32661SOL    HW1 1388   9.857   9.221  10.925  0.2440 -0.8309 -0.0507
32661SOL    HW2 1389   9.739   9.140  10.976 -0.3131 -1.1579 -1.8358
32662SOL     OW 1390   3.647  10.452   0.631  0.5716  0.3375  0.2546
32662SOL    HW1 1391   3.565  10.486   0.595 -0.1925 -0.5513  1.1291
32662SOL    HW2 1392   3.688  10.527   0.673  0.4622  0.9037 -0.6345
32663SOL     OW 1393   2.299   8.384   5.578 -0.1454  0.1558  0.0753
32663SOL    HW1 1394   2.355   8.439   5.523  2.3257 -0.2579  2.0650
32663SOL    HW2 1395   2.217   8.432   5.585  0.7195  1.8680 -1.1469
32664SOL     OW 1396   7.160   7.512   9.324  0.0834  0.5746 -0.1052
32664SOL    HW1 1397   7.104   7.449   9.368  1.4143 -0.5521 -0.0016
32664SOL    HW2 1398   7.116   7.596   9.336 -1.1462 -0.1717  0.6837
32665SOL     OW 1399   5.443   2.589   3.470 -0.2634  0.0949  0.1457
32665SOL    HW1 1400   5.465   2.681   3.453  0.4453 -0.4356 -1.9625
32665SOL    HW2 1401   5.432   2.550   3.383 -0.8500 -1.7479  1.0163
32666SOL     OW 1402   9.901   0.042   7.010 -0.3080 -0.5143 -0.2636
32666SOL    HW1 1403   9.893  -0.049   6.981  1.6183 -0.4065 -1.2054
32666SOL    HW2 1404   9.913   0.092   6.929 -2.7643  0.7749  0.1300
32667SOL     OW 1405   8.285   9.932   3.130 -0.1890  0.2721 -0.7714
32667SOL    HW1 1406   8.292   9.856   3.188 -0.8487 -0.9517 -2.2653
32667SOL    HW2 1407   8.345   9.912   3.058 -1.1162  0.7049 -1.6691
32668SOL     OW 1408   4.321   3.418   8.224 -0.0185  0.3079 -0.4342
32668SOL    HW1 1409   4.302   3.338   8.175 -1.4247 -0.4687  1.3369
32668SOL    HW2 1410   4.327   3.390   8.315  1.5958  1.8898 -0.0225
32669SOL     OW 1411   7.147   3.926   2.228  0.1652 -0.2316  0.2597
32669SOL    HW1 1412   7.176   3.875   2.304  0.0574 -1.4175 -0.4753
32669SOL    HW2 1413   7.052   3.931   2.237  0.3999  2.4871  1.9425
32670SOL     OW 1414   5.824   9.161   7.433  0.0357 -0.3339 -0.3006
32670SOL    HW1 1415   5.769   9.233   7.403 -1.4914 -1.2663  0.1714
32670SOL    HW2 1416   5.894   9.203   7.482 -2.3954  0.7460  2.4569
32671SOL     OW 1417   7.228   2.526   1.457 -0.1248 -0.1176  0.3439
32671SOL    HW1 1418   7.275   2.537   1.374  1.0505  0.1186  1.0421
32671SOL    HW2 1419   7.293   2.543   1.524 -1.0114 -0.5875  1.3317
32672SOL     OW 1420   1.708   1.264   9.146 -0.7355  0.7364  0.3334
32672SOL    HW1 1421   1.722   1.249   9.240 -0.7167 -1.0586  0.0568
32672SOL    HW2 1422   1.641   1.332   9.143  0.8420  2.4265  1.6403
32673SOL     OW 1423   7.150   0.938  10.962 -0.2886  0.1136  0.1696
32673SOL    HW1 1424   7.058   0.965  10.964 -0.1750  0.4412  0.8487
32673SOL    HW2 1425   7.159   0.875  11.033 -0.0352 -0.0766 -0.0282
32674SOL     OW 1426   1.845   5.444   3.442  0.0770 -0.1074 -0.6422
32674SOL    HW1 1427   1.800   5.360   3.429 -0.2213  0.1680 -1.3934
32674SOL    HW2 1428   1.915   5.424   3.504 -1.7168 -0.3139  1.3797
32675SOL     OW 1429   6.935   2.286   6.268 -1.3400 -0.3151  0.4631
32675SOL    HW1 1430   6.938   2.381   6.282  0.9452  0.1090 -2.4676
32675SOL    HW2 1431   6.863   2.273   6.206 -1.5276 -0.4709  0.7141
32676SOL     OW 1432   5.230  10.243  10.749 -0.1101 -0.1841 -0.0282
32676SOL    HW1 1433   5.205  10.169  10.693 -2.2443  1.2912 -1.1122
32676SOL    HW2 1434   5.273  10.304  10.690  0.3634  0.0638  0.5713
32677SOL     OW 1435   7.774   8.690   9.219 -0.1950  0.6327  0.5745
32677SOL    HW1 1436   7.769   8.765   9.160 -1.3810 -0.0528 -0.2292
32677SOL    HW2 1437   7.859   8.650   9.200  0.1139  1.3322  0.4701
32678SOL     OW 1438   7.864   6.615  10.520 -0.4569 -0.1509 -0.2030
32678SOL    HW1 1439   7.786   6.574  10.559 -0.1632 -0.7606 -0.2536
32678SOL    HW2 1440   7.829   6.680  10.458 -0.9241  0.0895  0.3099
32679SOL     OW 1441   6.129   9.042   5.354 -0.6087  0.1001 -0.4228
32679SOL    HW1 1442   6.047   8.996   5.373 -0.6057 -1.1529 -3.1150
32679SOL    HW2 1443   6.132   9.046   5.258  2.7741 -0.4668 -0.3956
32680SOL     OW 1444   2.080   2.894   4.513  0.1273 -0.0480  0.1886
32680SOL    HW1 1445   1.996   2.880   4.558 -0.2703 -0.8779 -0.7974
32680SOL    HW2 1446   2.129   2.814   4.528  0.2414 -0.0762 -0.3279
32681SOL     OW 1447   2.616   8.833   8.728 -0.1714 -0.4522 -0.3326
32681SOL    HW1 1448   2.534   8.873   8.758 -0.4267 -1.7608  0.7905
32681SOL    HW2 1449   2.648   8.784   8.804  1.6874  0.0837 -0.7469
32682SOL     OW 1450   7.751   6.221   1.705 -0.0279  0.0478  0.2616
32682SOL    HW1 1451   7.792   6.294   1.659  0.2547 -1.1849 -1.4947
32682SOL    HW2 1452   7.659   6.246   1.711 -0.4401 -0.5772 -2.6984
32683SOL     OW 1453   8.260   1.823   5.456 -0.4714  0.2784  0.2895
32683SOL    HW1 1454   8.181   1.792   5.410 -0.5222  0.3055  0.3582
32683SOL    HW2 1455   8.322   1.750   5.449  0.8244  1.5859 -2.9162
32684SOL     OW 1456   7.849   9.244   1.976 -0.0233 -0.1071 -0.6146
32684SOL    HW1 1457   7.828   9.298   2.052 -0.6145 -0.7417 -0.3252
32684SOL    HW2 1458   7.906   9.300   1.923 -1.2147  1.0922 -0.6870
32685SOL     OW 1459   4.881   8.006   5.391 -0.3071  0.2250 -0.5116
32685SOL    HW1 1460   4.909   8.056   5.468 -0.9638  1.8566 -1.3364
32685SOL    HW2 1461   4.948   7.938   5.382  0.2459  0.5525  0.9844
32686SOL     OW 1462   0.958   7.108   7.867  0.5850 -0.0285 -0.5834
32686SOL    HW1 1463   1.024   7.156   7.917 -1.4200  0.1200  2.0310
32686SOL    HW2 1464   0.885   7.170   7.858  0.2656 -0.6177 -2.3321
32687SOL     OW 1465   7.500   8.470  10.141  0.1393  0.2254 -0.0368
32687SOL    HW1 1466   7.548   8.388  10.154 -1.4346 -0.4422  1.8261
32687SOL    HW2 1467   7.494   8.509  10.228 -2.4618  0.4137 -0.2492
32688SOL     OW 1468  10.562   7.295   6.588 -0.0896  0.0117  0.4838
32688SOL    HW1 1469  10.573   7.280   6.494  0.5560  1.3422  0.3428
32688SOL    HW2 1470  10.568   7.390   6.599 -0.0293 -0.1378  1.8859
32689SOL     OW 1471   0.076   5.290   6.540 -0.2517  0.0706  0.4623
32689SOL    HW1 1472   0.158   5.339   6.536  0.0739 -0.3681  1.7013
32689SOL    HW2 1473   0.037   5.314   6.624 -1.5929  0.5787 -0.2941
32690SOL     OW 1474   8.050   4.701   0.856 -0.5000  0.4402  0.2832
32690SOL    HW1 1475   8.107   4.631   0.822 -0.3276 -0.5429  2.5366
32690SOL    HW2 1476   8.103   4.780   0.851  0.3395 -0.1088  0.4764
32691SOL     OW 1477   3.998   7.517   0.655  0.2694  0.8625 -0.3256
32691SOL    HW1 1478   4.041   7.432   0.664  0.1193  0.7909 -0.2900
32691SOL    HW2 1479   3.913   7.497   0.618  0.5805  1.0859 -1.1733
32692SOL     OW 1480   9.820  10.046   7.463 -0.2624  0.0324 -0.1055
32692SOL    HW1 1481   9.747  10.008   7.414  0.8679 -1.3161 -0.7742
32692SOL    HW2 1482   9.848   9.976   7.522  0.8584  0.3440 -0.2580
32693SOL     OW 1483   1.805   5.260   9.034  0.0863  0.2888 -0.1552
32693SOL    HW1 1484   1.820   5.353   9.019 -0.8453  0.5264  0.3260
32693SOL    HW2 1485   1.710   5.252   9.044  0.0292 -0.8774 -1.3246
32694SOL     OW 1486   7.370   1.839  10.554  0.4048  0.1583 -0.2660
32694SOL    HW1 1487   7.332   1.861  10.469 -0.6976 -0.3804  0.0789
32694SOL    HW2 1488   7.415   1.918  10.582  2.6270 -0.3009 -2.3318
32695SOL     OW 1489   3.208   6.434   2.002  0.2262  0.1168  0.1009
32695SOL    HW1 1490   3.196   6.511   2.058  1.6270 -0.4762  1.2384
32695SOL    HW2 1491   3.142   6.445   1.933 -0.0141  2.0162  0.5844
32696SOL     OW 1492   1.798   5.544   3.787 -0.2173 -0.2243 -0.4183
32696SOL    HW1 1493   1.773   5.585   3.870  1.4063 -2.0420  1.0218
32696SOL    HW2 1494   1.726   5.483   3.768 -0.6946  0.3493 -0.4777
32697SOL     OW 1495  10.655   2.957   3.614 -0.1914 -0.0487 -0.1925
32697SOL    HW1 1496  10.665   2.960   3.709 -3.7254 -1.7465  0.3057
32697SOL    HW2 1497  10.628   3.046   3.590  1.0273  0.4741  0.3215
32698SOL     OW 1498   3.263   3.266   4.676  0.3167 -0.2272 -0.0801
32698SOL    HW1 1499   3.336   3.307   4.722 -0.0246 -0.3603  0.5890
32698SOL    HW2 1500   3.217   3.339   4.634  0.9723 -0.1681 -0.7184
32699SOL     OW 1501   8.762   9.960  10.389  0.2953  0.2474  0.4159
32699SOL    HW1 1502   8.744   9.960  10.295  1.4995  0.8643  0.1746
32699SOL    HW2 1503   8.857   9.964  10.396  0.1734  2.2129  1.6440
32700SOL     OW 1504   5.072   1.604   5.372  0.0093  0.3191  0.3122
32700SOL    HW1 1505   5.080   1.696   5.398 -0.0444  0.6189 -0.6975
32700SOL    HW2 1506   5.054   1.557   5.454  0.6339  1.1263  0.9251
32701SOL     OW 1507   2.601   9.767   0.835 -0.2726 -0.2643  0.4282
32701SOL    HW1 1508   2.591   9.819   0.755 -2.1972 -0.0282  0.7835
32701SOL    HW2 1509   2.558   9.820   0.903 -1.5537 -1.9236  0.9540
32702SOL     OW 1510   3.215   0.339   4.966 -0.0016  0.2044  0.2432
32702SOL    HW1 1511   3.182   0.292   4.889  2.3694 -2.7551  0.9671
32702SOL    HW2 1512   3.298   0.378   4.937 -0.5097  1.5253  0.5062
32703SOL     OW 1513   5.388   8.272   8.739 -0.6343  0.3754  0.0900
32703SOL    HW1 1514   5.344   8.187   8.742  2.2114 -1.1815 -0.9016
32703SOL    HW2 1515   5.388   8.295   8.646  0.3897  0.4854  0.1147
32704SOL     OW 1516   9.508   6.552   1.109 -0.0372  0.4513 -0.5857
32704SOL    HW1 1517   9.423   6.587   1.083 -1.1498 -0.5092  1.6571
32704SOL    HW2 1518   9.511   6.562   1.204  1.5196 -1.3309 -0.4094
32705SOL     OW 1519   3.717   8.664   5.983 -0.3695 -0.0115  0.4723
32705SOL    HW1 1520   3.802   8.666   6.026 -0.2120 -1.1415  0.2431
32705SOL    HW2 1521   3.728   8.601   5.912 -1.0407  0.7719 -0.3357
32706SOL     OW 1522  10.601  10.653   2.546 -0.6062 -0.2149 -0.0737
32706SOL    HW1 1523  10.638  10.591   2.483 -0.6639 -0.0244 -0.2930
32706SOL    HW2 1524  10.667  10.722   2.553 -1.2281  0.4707 -0.9792
32707SOL     OW 1525   9.616   8.719   2.668 -0.2342 -0.1064  0.0036
32707SOL    HW1 1526   9.695   8.755   2.709 -0.6014 -0.3755  0.9466
32707SOL    HW2 1527   9.577   8.794   2.622 -1.0580  0.7494  2.0504
32708SOL     OW 1528   5.673   1.190   4.263  0.5512  0.1064 -0.5555
32708SOL    HW1 1529   5.639   1.125   4.325  0.0334  0.1138 -0.8250
32708SOL    HW2 1530   5.749   1.148   4.224  0.6438 -0.0585 -0.2054
32709SOL     OW 1531   9.774   5.600   5.317  0.9492 -0.0289 -0.1132
32709SOL    HW1 1532   9.838   5.539   5.352  1.6851 -0.9461 -2.9394
32709SOL    HW2 1533   9.822   5.682   5.305  1.1738 -0.2335 -0.6411
32710SOL     OW 1534   5.632   8.977  10.576 -0.0331 -0.0798 -0.4409
32710SOL    HW1 1535   5.689   9.017  10.642 -1.2821  1.4872 -0.2724
32710SOL    HW2 1536   5.685   8.975  10.497  1.2517 -1.3629  0.4346
32711SOL     OW 1537  10.802   8.273   0.068  0.0507  0.1978 -0.3196
32711SOL    HW1 1538  10.830   8.287   0.158  0.4232  2.3966 -0.7342
32711SOL    HW2 1539  10.712   8.242   0.074  0.4339 -0.6894  0.8364
32712SOL     OW 1540   7.115   3.605   8.352 -0.2981 -0.3714  0.1317
32712SOL    HW1 1541   7.163   3.556   8.419  0.8078 -1.1470 -1.2011
32712SOL    HW2 1542   7.033   3.558   8.341  0.4156 -1.4692 -0.5579
32713SOL     OW 1543   9.817   0.635   3.805  0.0770  0.1481 -0.1290
32713SOL    HW1 1544   9.909   0.651   3.782  0.9821 -1.0622  2.4031
32713SOL    HW2 1545   9.808   0.674   3.892 -1.2703 -1.4850  0.4780
32714SOL     OW 1546   6.688   7.559   7.174 -0.5987  0.0048  0.1544
32714SOL    HW1 1547   6.683   7.590   7.264 -1.9661 -0.6618  0.3102
32714SOL    HW2 1548   6.694   7.464   7.181  0.9273  0.0476 -0.4108
32715SOL     OW 1549   4.610   8.830  10.799 -0.2201 -0.3274 -0.2054
32715SOL    HW1 1550   4.678   8.869  10.854  0.0730 -1.0156 -0.0841
32715SOL    HW2 1551   4.597   8.742  10.834 -0.7762 -0.4004 -0.5822
32716SOL     OW 1552  10.288   2.128   6.664  0.3016 -0.1131  0.5587
32716SOL    HW1 1553  10.301   2.167   6.751 -1.5833 -0.4582  1.0360
32716SOL    HW2 1554  10.221   2.184   6.623  1.8450  0.6031 -1.0496
32717SOL     OW 1555   5.972   8.433   4.490 -0.1529 -0.6332  0.4682
32717SOL    HW1 1556   6.030   8.475   4.427 -0.3487 -0.1132  0.6356
32717SOL    HW2 1557   6.012   8.450   4.575 -0.7334  0.0367  0.6159
32718SOL     OW 1558  10.696   0.687   1.166  0.1637 -0.0384 -0.2617
32718SOL    HW1 1559  10.609   0.704   1.131 -0.8697  0.4258  2.4334
32718SOL    HW2 1560  10.724   0.770   1.202  1.1896 -0.5069  0.0396
32719SOL     OW 1561   7.602   8.547   1.708 -0.6257  0.3028 -0.1265
32719SOL    HW1 1562   7.548   8.476   1.673  0.0364 -0.9782  1.3915
32719SOL    HW2 1563   7.692   8.520   1.690 -0.3446  0.4039  1.1003
32720SOL     OW 1564   7.834   4.691   8.520  0.5408  0.4685 -1.1930
32720SOL    HW1 1565   7.825   4.747   8.598 -1.7289  0.1111 -1.1605
32720SOL    HW2 1566   7.821   4.602   8.553 -0.0252  0.2811 -1.8976
32721SOL     OW 1567   5.973   3.200   1.715  0.2388 -0.1744 -0.6403
32721SOL    HW1 1568   5.995   3.218   1.623 -0.5670 -1.0956 -1.0238
32721SOL    HW2 1569   5.886   3.238   1.726 -0.2943 -1.3617 -0.6808
32722SOL     OW 1570   9.426   8.211  10.745  0.2493 -0.3396 -0.1180
32722SOL    HW1 1571   9.431   8.302  10.775  2.1742 -0.2108 -0.7530
32722SOL    HW2 1572   9.452   8.159  10.821  1.4218 -0.2154 -0.4209
32723SOL     OW 1573   5.047   7.035   8.651  0.2763 -0.0948  0.4275
32723SOL    HW1 1574   5.095   7.115   8.630 -0.1330 -0.2714 -1.2046
32723SOL    HW2 1575   5.033   7.040   8.746  4.4099 -0.5206  1.1528
32724SOL     OW 1576   3.371   3.900   5.558 -0.0859 -0.3587  0.4676
32724SOL    HW1 1577   3.380   3.981   5.609 -0.6259 -1.3881  2.2221
32724SOL    HW2 1578   3.353   3.930   5.469 -1.7904  1.4641  1.3813
32725SOL     OW 1579  10.390   2.171   5.362 -0.0890 -0.5347  0.2855
32725SOL    HW1 1580  10.422   2.134   5.280  0.3459  1.7078 -0.5811
32725SOL    HW2 1581  10.468   2.210   5.403 -1.1378  2.4541 -0.4792
32726SOL     OW 1582   8.516   7.650   7.116  0.1864 -0.1381 -0.8892
32726SOL    HW1 1583   8.593   7.658   7.172 -1.5463  0.3246  1.5053
32726SOL    HW2 1584   8.480   7.738   7.112 -1.7031 -0.8106  0.2677
32727SOL     OW 1585   6.307   0.485  10.543 -1.0970 -0.1324  0.0123
32727SOL    HW1 1586   6.364   0.411  10.524 -0.2447  0.3263  0.7123
32727SOL    HW2 1587   6.267   0.507  10.459  0.0458 -0.2380 -0.5707
32728SOL     OW 1588   8.747   1.159   5.077  0.0911 -0.0157  0.0329
32728SOL    HW1 1589   8.818   1.101   5.049 -0.6803 -1.1667  0.4212
32728SOL    HW2 1590   8.705   1.185   4.995  1.9491  2.0184 -0.3374
32729SOL     OW 1591   7.306   7.179   8.442  0.0232 -0.1129 -0.0390
32729SOL    HW1 1592   7.236   7.191   8.379  0.3701 -0.6888 -0.5373
32729SOL    HW2 1593   7.310   7.262   8.490 -2.3743 -0.8112  1.4193
32730SOL     OW 1594   6.994   4.162   8.423 -0.0655  0.0449  0.5929
32730SOL    HW1 1595   6.910   4.189   8.460 -0.3642 -1.5939  1.1207
32730SOL    HW2 1596   7.059   4.202   8.482 -0.5153 -0.6628  1.5875
32731SOL     OW 1597   7.640   8.206   2.941  0.1306 -0.2713  0.1419
32731SOL    HW1 1598   7.651   8.144   3.013 -0.5413  2.1956  2.4666
32731SOL    HW2 1599   7.697   8.279   2.964 -0.7118  0.9005 -1.4250
32732SOL     OW 1600   5.548   7.769  10.034  0.0243  0.8694 -0.2542
32732SOL    HW1 1601   5.547   7.807  10.122 -0.7692 -0.9768  0.5590
32732SOL    HW2 1602   5.457   7.774  10.005 -0.1681 -0.7949  0.0407
32733SOL     OW 1603   5.348   0.261   1.748  0.2019  0.3210  0.3733
32733SOL    HW1 1604   5.419   0.235   1.689 -0.2530 -0.8604  0.3173
32733SOL    HW2 1605   5.303   0.179   1.768 -0.8893  0.9985  0.7430
32734SOL     OW 1606   8.687   3.321   8.994  0.4941 -0.1859 -0.1973
32734SOL    HW1 1607   8.715   3.232   9.011  0.1550 -0.0441  1.2258
32734SOL    HW2 1608   8.609   3.333   9.049  0.5589  0.9900 -0.3298
32735SOL     OW 1609   8.571   2.264  10.375  0.1018 -0.0320  0.2502
32735SOL    HW1 1610   8.665   2.279  10.373  0.1992 -0.6426 -0.0595
32735SOL    HW2 1611   8.538   2.301  10.293  0.2636 -0.9906 -0.2584
32736SOL     OW 1612   4.877   1.485   6.406  0.3245 -0.1322 -0.0657
32736SOL    HW1 1613   4.791   1.443   6.404  0.2899 -0.0236 -2.0249
32736SOL    HW2 1614   4.859   1.578   6.414  0.3735 -0.3294  3.0068
32737SOL     OW 1615   6.074   1.521  10.459 -0.0272  0.0076 -0.2487
32737SOL    HW1 1616   6.150   1.578  10.449 -0.1096  0.4413  1.4316
32737SOL    HW2 1617   6.068   1.474  10.375  1.3592  0.8405 -0.8369
32738SOL     OW 1618   8.406   7.797   1.305 -0.1594  0.5467  0.1855
32738SOL    HW1 1619   8.351   7.863   1.264 -1.9839 -0.5155  0.8788
32738SOL    HW2 1620   8.494   7.814   1.271 -0.5928  3.3196  0.3532
32739SOL     OW 1621  10.633   4.755   9.874 -0.1553 -0.3546 -0.5421
32739SOL    HW1 1622  10.671   4.787   9.793  1.1669 -1.7041 -0.4913
32739SOL    HW2 1623  10.562   4.696   9.846  1.1446 -1.8450 -0.7759
32740SOL     OW 1624   4.344   0.480   3.985 -0.1425 -0.0012  0.1059
32740SOL    HW1 1625   4.408   0.467   4.055  1.2848 -1.3901 -1.4145
32740SOL    HW2 1626   4.388   0.536   3.922 -1.0946  0.4940 -0.1310
32741SOL     OW 1627  10.497   5.965   4.644 -0.7995 -0.1865 -0.0209
32741SOL    HW1 1628  10.454   6.003   4.567  1.6775 -0.1823 -1.4586
32741SOL    HW2 1629  10.513   5.874   4.621  2.5204  0.4961 -0.7336
32742SOL     OW 1630  10.899   1.212   2.761  0.1007 -0.1679 -0.0984
32742SOL    HW1 1631  10.846   1.195   2.683  0.3508  1.3203 -0.6065
32742SOL    HW2 1632  10.935   1.126   2.785 -1.2368 -0.9089 -0.6911
32743SOL     OW 1633  10.883   3.361   8.797 -0.0339  0.0166  0.0117
32743SOL    HW1 1634  10.909   3.344   8.707 -0.0154 -0.2945  0.0757
32743SOL    HW2 1635  10.815   3.296   8.816  1.4044 -1.2806  0.8885
32744SOL     OW 1636   4.937   2.334   5.431 -0.3441  0.1851 -0.0754
32744SOL    HW1 1637   4.927   2.409   5.490  0.8128  1.0276 -0.9383
32744SOL    HW2 1638   4.861   2.338   5.373  0.1559  1.1950 -0.6723
32745SOL     OW 1639   5.150   2.723   2.206 -0.0694  0.0970 -1.0074
32745SOL    HW1 1640   5.126   2.776   2.130 -1.8182 -0.2950 -0.7525
32745SOL    HW2 1641   5.149   2.633   2.174 -0.7574 -0.0659 -0.5360
32746SOL     OW 1642   1.737   4.442   2.417 -0.2786  0.1225 -0.1104
32746SOL    HW1 1643   1.732   4.353   2.451 -0.0204 -0.2228 -0.9648
32746SOL    HW2 1644   1.791   4.489   2.481  0.1620 -0.5006 -0.0161
32747SOL     OW 1645   2.327   2.565   7.471 -0.5671 -0.5225  0.4592
32747SOL    HW1 1646   2.346   2.648   7.516  0.6526 -0.2862 -0.4516
32747SOL    HW2 1647   2.293   2.592   7.385  0.6557 -0.9541 -0.1706
32748SOL     OW 1648   0.789  10.136   6.195 -0.0681  0.2471 -0.7128
32748SOL    HW1 1649   0.739  10.177   6.125  0.3301  1.0967 -0.5052
32748SOL    HW2 1650   0.880  10.135   6.163 -0.1332 -0.8226 -0.8776
32749SOL     OW 1651   4.692   0.159   6.420 -0.4188 -0.1273  0.3082
32749SOL    HW1 1652   4.718   0.068   6.405 -1.3384 -0.1712 -1.2137
32749SOL    HW2 1653   4.602   0.153   6.452 -0.5447  0.2514  0.0260
32750SOL     OW 1654   6.836   2.039   3.053  0.1869 -0.2201  0.5445
32750SOL    HW1 1655   6.855   2.133   3.049  2.5251 -0.6105  1.8277
32750SOL    HW2 1656   6.846   2.016   3.145 -0.4395 -1.7365  0.2583
32751SOL     OW 1657   3.885  10.094   3.152  0.0414  0.1606 -0.3902
32751SOL    HW1 1658   3.966  10.136   3.124 -0.8661  1.5852 -0.8993
32751SOL    HW2 1659   3.910  10.045   3.230  1.3432  0.7850 -0.3960
32752SOL     OW 1660  10.847  10.973   6.048 -0.1644  0.6202  0.1457
32752SOL    HW1 1661  10.831  10.912   6.120 -1.0355  1.8323  1.0177
32752SOL    HW2 1662  10.760  11.002   6.021  0.1749  0.4428 -1.1745
32753SOL     OW 1663   4.638   4.932   3.609  0.1943  0.0732 -0.0160
32753SOL    HW1 1664   4.722   4.912   3.649  0.2650 -0.0000 -0.1990
32753SOL    HW2 1665   4.660   4.952   3.518 -0.2291 -1.9849 -0.5810
32754SOL     OW 1666   3.415   0.301   0.182  0.2216 -0.3873 -0.8333
32754SOL    HW1 1667   3.424   0.218   0.136 -0.9780 -0.6989 -0.5318
32754SOL    HW2 1668   3.409   0.277   0.275  1.9717  0.1885 -0.5633
32755SOL     OW 1669  10.866  10.574   1.030 -0.6323 -0.2304  0.2042
32755SOL    HW1 1670  10.805  10.644   1.054 -0.8776 -0.4624  0.2452
32755SOL    HW2 1671  10.828  10.534   0.952 -3.1995 -3.6905  3.0663
32756SOL     OW 1672   7.648   4.905   3.361 -0.1811 -0.4558 -0.1700
32756SOL    HW1 1673   7.626   4.998   3.371  1.1064 -0.1826  0.2232
32756SOL    HW2 1674   7.730   4.905   3.312  0.3002 -1.3490  0.6256
32757SOL     OW 1675   5.760   1.421   5.889  0.0514 -0.5053  0.5721
32757SOL    HW1 1676   5.777   1.502   5.841 -0.1518  0.9676  2.8915
32757SOL    HW2 1677   5.673   1.394   5.861  0.0256  0.2191 -0.0553
32758SOL     OW 1678   1.764   6.026   9.477 -0.0182 -0.6157 -0.3461
32758SOL    HW1 1679   1.765   6.105   9.422 -1.6786 -0.6702 -0.4725
32758SOL    HW2 1680   1.701   5.968   9.434  0.0682 -1.4025  0.5912
32759SOL     OW 1681   5.746   5.335   7.523 -0.3088 -0.2535 -0.1232
32759SOL    HW1 1682   5.766   5.372   7.438 -1.9536 -1.1258 -0.9134
32759SOL    HW2 1683   5.713   5.408   7.575 -1.0824 -0.0928 -0.8433
32760SOL     OW 1684   5.410  10.763   3.659  0.6313  0.1115  0.4535
32760SOL    HW1 1685   5.501  10.794   3.656  0.5136  0.3719 -0.9089
32760SOL    HW2 1686   5.418  10.668   3.651  0.7132  0.2651 -1.4586
32761SOL     OW 1687   3.367   9.418   1.550 -0.3558  0.2356  0.1110
32761SOL    HW1 1688   3.386   9.480   1.620 -1.2800  0.6591 -0.0081
32761SOL    HW2 1689   3.449   9.412   1.500  0.2074  0.1661  1.0380
32762SOL     OW 1690   3.122   6.162   4.422 -0.1122  0.3401 -0.3202
32762SOL    HW1 1691   3.069   6.202   4.492  1.0285  1.9067 -0.3219
32762SOL    HW2 1692   3.207   6.145   4.464  0.1818  0.1631 -0.9886
32763SOL     OW 1693  10.453   8.731   3.444  0.1099 -0.2810 -0.3808
32763SOL    HW1 1694  10.539   8.711   3.407  1.2519  1.1875  1.3970
32763SOL    HW2 1695  10.449   8.826   3.446 -0.8652 -0.3334  1.0889
32764SOL     OW 1696   0.973   7.430   3.507  0.4032 -0.0441 -0.1748
32764SOL    HW1 1697   1.040   7.376   3.466 -0.3715 -1.5795  0.4877
32764SOL    HW2 1698   0.898   7.424   3.448  0.4930  0.7640 -0.3715
32765SOL     OW 1699   7.195   2.281   7.726 -0.3968 -0.0695 -0.0747
32765SOL    HW1 1700   7.178   2.350   7.790  0.2118 -0.2098  0.2408
32765SOL    HW2 1701   7.153   2.311   7.646 -0.4142  0.5149  0.1539
32766SOL     OW 1702   2.197   2.732   6.328 -0.5435 -0.1388 -0.0530
32766SOL    HW1 1703   2.267   2.709   6.389 -0.2248  0.0860 -0.3308
32766SOL    HW2 1704   2.120   2.746   6.383 -0.4858 -0.8573  0.2094
32767SOL     OW 1705   0.486   4.997   6.940  0.0635  0.3396 -0.1388
32767SOL    HW1 1706   0.524   4.909   6.937 -0.8883 -0.0488 -1.2091
32767SOL    HW2 1707   0.418   4.991   7.007  0.5077  0.4710  0.3259
32768SOL     OW 1708  10.960   8.956   7.952  0.2142 -0.5798  0.2123
32768SOL    HW1 1709  11.016   8.924   8.023  1.4542 -1.1628 -1.0082
32768SOL    HW2 1710  10.998   8.918   7.873 -0.1546  1.4049 -0.9520
32769SOL     OW 1711  10.960   8.599   2.926 -0.2022  0.1474 -0.0163
32769SOL    HW1 1712  10.938   8.665   2.860  0.3668  0.3184 -0.0334
32769SOL    HW2 1713  10.970   8.648   3.007  1.3757  0.2540 -0.2543
32770SOL     OW 1714   7.393   1.981   4.517 -0.4513  0.5477 -0.3368
32770SOL    HW1 1715   7.478   2.023   4.504  0.0409 -0.7008 -1.2648
32770SOL    HW2 1716   7.412   1.887   4.515 -1.4638  0.2558  2.1334
32771SOL     OW 1717   9.745   1.063   7.560  0.5480  0.1634 -0.4444
32771SOL    HW1 1718   9.817   1.000   7.559  1.8004  1.5723  0.0860
32771SOL    HW2 1719   9.751   1.107   7.475 -1.1264 -1.2886 -1.3531
32772SOL     OW 1720   5.256   7.559   8.526  0.3936  0.0607  0.0438
32772SOL    HW1 1721   5.180   7.586   8.475  1.3418 -1.8526 -2.4906
32772SOL    HW2 1722   5.331   7.585   8.474  1.5214  1.2464  2.1707
32773SOL     OW 1723   2.953   3.466   2.787 -0.4566 -0.9982  0.4068
32773SOL    HW1 1724   3.044   3.489   2.803 -0.9017  1.5772 -0.4949
32773SOL    HW2 1725   2.944   3.377   2.820  2.0470 -0.7968  1.7169
32774SOL     OW 1726   4.015  10.108   1.199 -0.5257 -0.1477  0.0722
32774SOL    HW1 1727   4.029  10.187   1.252  0.2231 -0.3151  0.1216
32774SOL    HW2 1728   3.954  10.137   1.130  1.3710  1.0369 -1.1578
32775SOL     OW 1729   2.937   3.831   0.413 -0.0684  0.0823  0.2129
32775SOL    HW1 1730   3.003   3.821   0.345 -0.2259 -2.2283  0.3660
32775SOL    HW2 1731   2.855   3.806   0.370 -0.4843  0.6107  0.6931
32776SOL     OW 1732   9.942   2.748   5.349 -0.2569 -0.1231 -0.4131
32776SOL    HW1 1733   9.854   2.785   5.352 -0.3561 -0.3943  0.0558
32776SOL    HW2 1734   9.969   2.759   5.258 -0.8772 -0.2662 -0.6180
32777SOL     OW 1735   0.253   9.307   8.081  0.6967  0.5180  0.0342
32777SOL    HW1 1736   0.221   9.346   8.000  0.6018  1.5347  0.5527
32777SOL    HW2 1737   0.196   9.343   8.149  1.2235  0.2229  0.6325
32778SOL     OW 1738   4.849   0.259   6.189  0.6126 -0.0237  0.1824
32778SOL    HW1 1739   4.781   0.232   6.250  0.6975  1.6942  1.0597
32778SOL    HW2 1740   4.914   0.189   6.194 -0.3870 -0.9410  0.4480
32779SOL     OW 1741   6.759   2.598   5.423 -0.2583 -0.5220  0.1481
32779SOL    HW1 1742   6.725   2.525   5.371 -0.0695  0.4345 -1.3492
32779SOL    HW2 1743   6.697   2.606   5.496 -2.6711  0.4836 -1.9388
32780SOL     OW 1744   4.859   5.769   4.198  0.4239  0.7485  0.6256
32780SOL    HW1 1745   4.790   5.721   4.153 -0.6102  0.8461  2.0860
32780SOL    HW2 1746   4.934   5.710   4.196 -0.2656 -0.1416  0.7041
32781SOL     OW 1747   7.466   6.274   5.842 -0.4094  0.0175 -0.1808
32781SOL    HW1 1748   7.496   6.198   5.892  1.5457 -0.4224 -1.9862
32781SOL    HW2 1749   7.422   6.237   5.765 -1.9508  0.7158  0.3233
32782SOL     OW 1750   1.281   4.932   9.652  0.2927  0.4032  0.2327
32782SOL    HW1 1751   1.349   4.994   9.682  3.0510 -0.5950 -3.6191
32782SOL    HW2 1752   1.325   4.848   9.650 -1.5426 -0.5526 -0.8786
32783SOL     OW 1753   8.443   1.853   8.012  0.2337  0.2296 -0.7991
32783SOL    HW1 1754   8.369   1.852   7.951  0.1409  1.6961 -0.7307
32783SOL    HW2 1755   8.469   1.945   8.016  1.4368 -0.1393 -0.0629
32784SOL     OW 1756   3.195   3.002   1.131  0.4538  0.0526 -0.3869
32784SOL    HW1 1757   3.236   2.916   1.139 -2.0417 -1.1062  0.7380
32784SOL    HW2 1758   3.154   3.001   1.045  0.6592  0.2095 -0.4853
32785SOL     OW 1759   4.705   7.219   7.125 -0.1154  0.4525 -0.2984
32785SOL    HW1 1760   4.630   7.199   7.069  0.8982  2.9664 -2.6730
32785SOL    HW2 1761   4.686   7.173   7.207 -3.5075 -0.1872 -1.3414
32786SOL     OW 1762   8.320   1.055   4.568  0.0905 -0.4061 -0.1618
32786SOL    HW1 1763   8.294   0.968   4.538 -1.1477  0.7341 -2.5498
32786SOL    HW2 1764   8.377   1.088   4.499  0.6117  0.6744  0.7657
32787SOL     OW 1765   6.532   5.278   8.657 -0.3595 -0.3634 -0.4870
32787SOL    HW1 1766   6.477   5.356   8.660  1.3835  0.7950  3.7415
32787SOL    HW2 1767   6.477   5.209   8.695  0.0443  0.1336  1.0347
32788SOL     OW 1768   0.128   2.593   5.927  0.1607  0.3408 -0.2765
32788SOL    HW1 1769   0.042   2.577   5.967  0.7611 -0.6965  0.6003
32788SOL    HW2 1770   0.124   2.685   5.899  0.0005  1.3292  2.8163
32789SOL     OW 1771   1.136   9.455   1.875 -0.0367  0.3461  0.5135
32789SOL    HW1 1772   1.101   9.457   1.964 -1.1247  1.2766  0.0856
32789SOL    HW2 1773   1.207   9.520   1.876 -0.7483  1.1370  0.4352
32790SOL     OW 1774  10.044   2.793   5.093  0.4688  0.0223 -0.5501
32790SOL    HW1 1775  10.084   2.879   5.108 -0.1817  0.3008 -0.3863
32790SOL    HW2 1776  10.103   2.749   5.032  0.5524  0.7674 -1.0026
32791SOL     OW 1777   8.237   9.010  10.199  0.0462 -0.2410 -0.0490
32791SOL    HW1 1778   8.232   8.995  10.104 -0.6910  1.2430 -0.2589
32791SOL    HW2 1779   8.147   8.998  10.229  0.2068 -0.2874  0.4083
32792SOL     OW 1780   6.068   5.348   1.670 -0.2450 -0.4649  0.1191
32792SOL    HW1 1781   6.143   5.359   1.612  1.0663  0.1713  1.9172
32792SOL    HW2 1782   6.060   5.254   1.681  0.0689 -0.5487 -0.3557
32793SOL     OW 1783   5.223   8.049   3.676  0.4002 -0.6412 -0.2088
32793SOL    HW1 1784   5.221   8.047   3.581  0.8460  1.8116 -0.3074
32793SOL    HW2 1785   5.313   8.073   3.697  0.1424 -0.5618  0.8296
32794SOL     OW 1786   5.287   7.713   7.883  0.1831  0.3644  0.1437
32794SOL    HW1 1787   5.229   7.641   7.907  0.4859  0.7252  2.0989
32794SOL    HW2 1788   5.364   7.670   7.845  0.0914 -0.3250  0.7142
32795SOL     OW 1789  10.220   5.607   5.420 -0.6141  0.7021 -0.1235
32795SOL    HW1 1790  10.311   5.606   5.390 -0.6273 -0.3900 -0.1425
32795SOL    HW2 1791  10.221   5.662   5.498  0.7951 -2.4531  2.1420
32796SOL     OW 1792   6.785   5.148   6.687 -0.3973 -0.4172 -0.2695
32796SOL    HW1 1793   6.727   5.224   6.682 -2.5415 -1.9989  0.1633
32796SOL    HW2 1794   6.795   5.120   6.597  0.2469  0.2381 -0.4115
32797SOL     OW 1795   4.921   5.413   7.137  0.4805 -0.0435  0.2399
32797SOL    HW1 1796   4.889   5.442   7.051 -0.1715  0.6562  0.7172
32797SOL    HW2 1797   4.851   5.357   7.171 -0.3774  1.7255  1.4116
32798SOL     OW 1798   5.678   4.724   6.511  0.1796  0.6916  0.2327
32798SOL    HW1 1799   5.598   4.679   6.539  0.8215 -0.2686  0.5583
32798SOL    HW2 1800   5.749   4.670   6.547  1.0175  0.0109 -2.3613
32799SOL     OW 1801  10.655   8.128   6.914 -0.0865  0.5418  0.2101
32799SOL    HW1 1802  10.565   8.101   6.898  0.3457  0.4877 -2.3569
32799SOL    HW2 1803  10.671   8.199   6.852  2.6869 -1.7562 -1.8593
32800SOL     OW 1804   2.553   1.663  10.656  0.4242 -0.3430  0.0344
32800SOL    HW1 1805   2.590   1.580  10.624  0.8135  0.2140 -0.9830
32800SOL    HW2 1806   2.591   1.730  10.600  0.4996  0.5922  1.1634
32801SOL     OW 1807   9.154   8.628   3.941  0.2423 -0.3636 -0.3979
32801SOL    HW1 1808   9.092   8.605   3.872  1.3643 -5.6461  0.1405
32801SOL    HW2 1809   9.240   8.623   3.900  0.6921  0.7667  0.3659
32802SOL     OW 1810   8.991   2.682   6.745 -0.0451  0.4384 -0.0253
32802SOL    HW1 1811   9.067   2.626   6.734 -0.5792 -0.4569  0.8244
32802SOL    HW2 1812   8.928   2.650   6.681 -1.3643 -1.6985  2.2818
32803SOL     OW 1813   2.073   4.958   5.100  0.3113 -0.2257  0.2643
32803SOL    HW1 1814   1.980   4.950   5.081  0.7072  0.5570 -2.1465
32803SOL    HW2 1815   2.115   4.966   5.014  2.3321  2.0468  1.3974
32804SOL     OW 1816   8.346   7.681   7.949 -0.8639 -0.3908 -0.3265
32804SOL    HW1 1817   8.267   7.702   7.998  0.0819 -0.1771  1.1396
32804SOL    HW2 1818   8.351   7.586   7.951 -0.8364 -0.3841 -0.0129
32805SOL     OW 1819   4.549   6.791   2.628  0.1683  0.1624  0.5977
32805SOL    HW1 1820   4.513   6.712   2.589 -2.0805  0.5587  1.7789
32805SOL    HW2 1821   4.634   6.803   2.585 -0.2264 -1.9114 -0.8209
32806SOL     OW 1822   8.950   4.997   0.839  0.1719  0.1360 -0.0556
32806SOL    HW1 1823   8.879   4.933   0.841  0.1925  0.0285 -1.8126
32806SOL    HW2 1824   9.029   4.945   0.854 -0.1390  0.3089  2.2704
32807SOL     OW 1825   5.191   6.895   8.099  0.0833  0.7357 -0.5296
32807SOL    HW1 1826   5.226   6.983   8.113 -0.2333  0.4566  2.4801
32807SOL    HW2 1827   5.250   6.838   8.148 -1.9603 -0.2306  0.9302
32808SOL     OW 1828  10.340   0.670  10.002 -0.2864  0.2365  0.6980
32808SOL    HW1 1829  10.248   0.651   9.987 -0.0714  0.0680 -0.4789
32808SOL    HW2 1830  10.358   0.748   9.950  0.1041  0.6018  1.3680
32809SOL     OW 1831   6.995   4.506   9.597  0.2211  0.0788  0.2449
32809SOL    HW1 1832   7.036   4.533   9.515 -2.6725  0.1159 -1.2534
32809SOL    HW2 1833   6.987   4.411   9.590 -0.7834  0.1627  0.0736
32810SOL     OW 1834   7.458   8.720   7.096 -0.1921 -0.3889 -0.0875
32810SOL    HW1 1835   7.411   8.787   7.046  0.5023  0.3384  0.2161
32810SOL    HW2 1836   7.525   8.688   7.036  1.4996  1.4230  0.7834
32811SOL     OW 1837   5.647   4.286   9.175  0.6731  0.2265 -0.3116
32811SOL    HW1 1838   5.619   4.355   9.115 -0.2883 -0.1166 -0.2656
32811SOL    HW2 1839   5.731   4.256   9.140  0.1186  0.0240 -1.4931
32812SOL     OW 1840   4.148   0.109   1.768 -0.2732  0.0872 -0.4440
32812SOL    HW1 1841   4.187   0.096   1.681 -0.4544 -0.2180 -0.4815
32812SOL    HW2 1842   4.094   0.032   1.781 -0.1183  0.0551  0.0127
32813SOL     OW 1843   4.490   6.893   2.225 -0.6542 -0.0916 -0.2145
32813SOL    HW1 1844   4.398   6.876   2.202 -0.9527 -0.3589  1.1540
32813SOL    HW2 1845   4.498   6.988   2.220 -1.9188  0.2172  2.9685
32814SOL     OW 1846   8.670   0.317   3.575 -0.3787  0.0022 -0.1768
32814SOL    HW1 1847   8.628   0.322   3.660  1.1920  2.1832  0.5015
32814SOL    HW2 1848   8.762   0.299   3.594 -0.1620 -0.3362 -1.4460
32815SOL     OW 1849   8.264  10.650   1.534  0.2666  0.0273 -0.0649
32815SOL    HW1 1850   8.185  10.686   1.493 -1.1648 -1.1377  1.6303
32815SOL    HW2 1851   8.332  10.714   1.514 -0.7259  0.2712 -2.9177
32816SOL     OW 1852   2.151  10.346   4.128  0.4263 -0.1199  0.1669
32816SOL    HW1 1853   2.178  10.256   4.110  2.8522  0.7187 -0.6498
32816SOL    HW2 1854   2.074  10.359   4.073  0.5388 -1.4623 -0.3359
32817SOL     OW 1855   9.777   8.117   4.711 -0.3712  0.7067 -0.1290
32817SOL    HW1 1856   9.812   8.063   4.782  1.9707  1.5841 -0.5820
32817SOL    HW2 1857   9.723   8.056   4.660  1.3740 -0.9671 -0.0420
32818SOL     OW 1858   2.435   9.807   3.494  0.1550  0.2294  0.6153
32818SOL    HW1 1859   2.515   9.809   3.441  0.3865 -0.0701  0.9569
32818SOL    HW2 1860   2.433   9.720   3.533 -1.3264 -0.4400 -0.8903
32819SOL     OW 1861   0.960   2.105   3.503  0.1791 -0.1837  0.4581
32819SOL    HW1 1862   0.887   2.044   3.500 -0.1665  0.2878 -1.1739
32819SOL    HW2 1863   1.029   2.058   3.549 -1.1286 -0.6346  2.0007
32820SOL     OW 1864   1.046   0.499   8.797 -0.4024  0.5557  0.9321
32820SOL    HW1 1865   1.107   0.464   8.732 -1.8629  0.2413 -0.3152
32820SOL    HW2 1866   1.052   0.594   8.786 -0.1647  0.5233  0.7774
32821SOL     OW 1867   5.224   1.969   4.694  0.0661  0.2517 -0.2486
32821SOL    HW1 1868   5.295   1.918   4.654 -0.4723 -1.9169  1.4389
32821SOL    HW2 1869   5.156   1.904   4.714 -1.0710  1.7903  1.0183
32822SOL     OW 1870   9.417  10.560   0.838 -0.3035  1.0387 -0.9447
32822SOL    HW1 1871   9.336  10.587   0.796 -1.1593  1.5370  0.9715
32822SOL    HW2 1872   9.397  10.477   0.880 -0.0243  1.4706  0.0726
32823SOL     OW 1873   8.688   4.346   1.237 -0.6386 -0.3752  0.6288
32823SOL    HW1 1874   8.593   4.337   1.239 -0.6942  0.0049 -0.1253
32823SOL    HW2 1875   8.703   4.440   1.244 -0.2874 -0.5010  1.6262
32824SOL     OW 1876   3.626   4.328   3.502  0.2380  0.2977  0.3890
32824SOL    HW1 1877   3.557   4.342   3.437 -0.2498 -1.0229  0.5964
32824SOL    HW2 1878   3.583   4.346   3.586  0.3172  0.0912  0.4751
32825SOL     OW 1879   7.729   9.990   6.804  0.0369 -0.1843 -0.1662
32825SOL    HW1 1880   7.820   9.969   6.826  0.6315  0.5585 -1.8935
32825SOL    HW2 1881   7.701   9.919   6.746 -0.2877 -0.0860 -0.1320
32826SOL     OW 1882  10.274   9.910   7.919  0.3262 -0.4761 -0.0680
32826SOL    HW1 1883  10.321   9.883   7.839 -0.9338 -0.6478 -0.7558
32826SOL    HW2 1884  10.339   9.902   7.988  0.9668 -1.9063 -0.8162
32827SOL     OW 1885   6.357  10.780   7.465  0.0314 -0.3798  0.3470
32827SOL    HW1 1886   6.393  10.779   7.554  0.1071 -0.9834  0.3081
32827SOL    HW2 1887   6.415  10.723   7.415  1.7070  2.2149 -0.7780
32828SOL     OW 1888   6.557   6.681   4.202 -0.4065  0.2118  0.3277
32828SOL    HW1 1889   6.546   6.776   4.209 -1.7294  0.0853  0.0538
32828SOL    HW2 1890   6.652   6.669   4.200 -0.2221  1.6020 -0.6440
32829SOL     OW 1891   5.033   0.721   2.944 -0.1246 -0.0252  0.3536
32829SOL    HW1 1892   5.055   0.740   2.852  0.0501 -0.3954  0.3187
32829SOL    HW2 1893   5.013   0.628   2.945  0.0540 -0.0584  0.7318
32830SOL     OW 1894   3.541   2.233   5.576 -0.2895 -0.2070  0.7983
32830SOL    HW1 1895   3.513   2.249   5.666  0.0019 -1.2460  1.0717
32830SOL    HW2 1896   3.502   2.150   5.552 -0.2380 -0.0117  0.0125
32831SOL     OW 1897   8.469   7.670   4.090 -0.7131 -0.3755  0.3667
32831SOL    HW1 1898   8.546   7.626   4.053  0.7133  0.6004  2.1112
32831SOL    HW2 1899   8.417   7.598   4.127 -0.1216 -0.9394  0.1286
32832SOL     OW 1900   4.053   6.297   4.665  0.0235 -0.0518 -1.1299
32832SOL    HW1 1901   4.140   6.283   4.703 -0.7069 -0.9658  0.2525
32832SOL    HW2 1902   4.069   6.356   4.590  1.6181  1.0107  0.0016
32833SOL     OW 1903   4.382   6.930   5.745  0.4858 -0.0282  0.4938
32833SOL    HW1 1904   4.316   6.882   5.695 -1.3969  1.8525  1.1216
32833SOL    HW2 1905   4.454   6.867   5.755 -0.2699 -1.4025 -2.0733
32834SOL     OW 1906   9.307   9.126  10.265  0.2690 -0.4202 -0.1733
32834SOL    HW1 1907   9.292   9.201  10.322 -0.2151  0.9649 -2.1003
32834SOL    HW2 1908   9.251   9.057  10.301 -0.6658  0.6962  0.5258
32835SOL     OW 1909   8.598   9.949   5.190 -0.0872  0.2884  0.6189
32835SOL    HW1 1910   8.572   9.861   5.163 -1.5926  0.6904  0.7226
32835SOL    HW2 1911   8.550   9.965   5.271  1.1028  0.7507  1.2471
32836SOL     OW 1912   4.532   6.125   0.979 -0.1404  0.1801 -0.1285
32836SOL    HW1 1913   4.566   6.089   1.061  1.1839  0.7805 -0.3873
32836SOL    HW2 1914   4.439   6.139   0.995 -0.0235 -0.3350  1.0488
32837SOL     OW 1915   6.094   8.765   4.959  0.2279  0.2923  0.0297
32837SOL    HW1 1916   6.036   8.744   5.032 -0.5486  1.2633 -0.2984
32837SOL    HW2 1917   6.164   8.816   4.998  1.2750 -1.4806  0.5520
32838SOL     OW 1918   1.751   2.650   1.969 -0.5170  0.5077  0.0829
32838SOL    HW1 1919   1.706   2.622   1.889 -0.2295 -0.2594  0.1797
32838SOL    HW2 1920   1.703   2.728   1.998 -3.3515 -1.6575  1.5157
32839SOL     OW 1921   5.124   8.270   9.886 -0.5656 -0.0537  0.1596
32839SOL    HW1 1922   5.031   8.272   9.865 -0.0554  0.4956 -2.1833
32839SOL    HW2 1923   5.155   8.357   9.862  0.6754 -0.4299  0.3807
32840SOL     OW 1924   1.583   2.208   9.091 -0.1423  0.6620  0.4406
32840SOL    HW1 1925   1.612   2.287   9.135 -0.2466  0.8972  0.0930
32840SOL    HW2 1926   1.505   2.180   9.139  0.3560  0.3214  1.0533
32841SOL     OW 1927   2.638   9.177   9.450 -0.0494  0.3850 -0.0065
32841SOL    HW1 1928   2.611   9.267   9.468  0.8203  0.4713  0.9029
32841SOL    HW2 1929   2.688   9.151   9.527  1.6759 -0.0958 -1.2577
32842SOL     OW 1930   6.014   6.830   6.513 -0.1926 -0.0510 -0.0413
32842SOL    HW1 1931   6.029   6.870   6.599  0.1664 -0.6865  0.2011
32842SOL    HW2 1932   5.921   6.809   6.513  0.2331 -2.0671  1.0931
32843SOL     OW 1933   2.516   2.548   6.989 -0.2207 -0.3672 -0.2388
32843SOL    HW1 1934   2.517   2.453   7.002 -2.0808 -0.4607 -0.6770
32843SOL    HW2 1935   2.436   2.577   7.033 -0.5494  0.7864 -1.5914
32844SOL     OW 1936   7.234   1.929   5.846 -0.2580  0.4574 -0.3890
32844SOL    HW1 1937   7.276   1.848   5.873 -2.0878 -0.0927  0.9035
32844SOL    HW2 1938   7.186   1.959   5.924 -0.5434  2.1624 -1.1817
32845SOL     OW 1939   6.158   9.722   1.890 -0.1452 -0.0596 -0.2890
32845SOL    HW1 1940   6.109   9.716   1.808 -1.5033  1.5618  0.3793
32845SOL    HW2 1941   6.102   9.772   1.948  1.5981  0.3958  1.0529
32846SOL     OW 1942   8.076   2.728   3.948 -0.1566 -0.7373 -1.0882
32846SOL    HW1 1943   8.102   2.792   3.882 -0.6257  0.0252 -0.5422
32846SOL    HW2 1944   8.050   2.651   3.898  0.5597 -0.5583 -1.7422
32847SOL     OW 1945   1.061   2.266   4.541  0.2220 -0.7126 -0.0936
32847SOL    HW1 1946   1.073   2.227   4.628  2.6852 -1.1440 -0.5856
32847SOL    HW2 1947   1.124   2.221   4.485  0.5764  1.4419 -1.5102
32848SOL     OW 1948   0.754   7.646   8.186 -0.1659 -0.2990  0.1034
32848SOL    HW1 1949   0.675   7.697   8.166 -1.2430 -0.8598  2.8243
32848SOL    HW2 1950   0.809   7.705   8.236  1.4351  0.2612 -2.2180
32849SOL     OW 1951   6.998   8.909   9.892 -0.2939  0.4244  0.6320
32849SOL    HW1 1952   7.059   8.836   9.905 -0.7400 -0.0107  0.3159
32849SOL    HW2 1953   7.015   8.967   9.966  0.6160  0.3903  0.4569
32850SOL     OW 1954   9.151  10.098  10.937  0.1078  0.5319  0.4991
32850SOL    HW1 1955   9.073  10.151  10.953 -0.7745 -0.2938 -1.0091
32850SOL    HW2 1956   9.199  10.146  10.870  0.3791  0.5154  0.6826
32851SOL     OW 1957   7.971   6.246   0.549  0.3339 -0.1575  0.0710
32851SOL    HW1 1958   8.067   6.244   0.549  0.3360 -0.5881  1.3876
32851SOL    HW2 1959   7.948   6.310   0.617 -0.3082 -2.1386  1.7802
32852SOL     OW 1960   6.807   5.084   6.960  0.0988 -0.2244  0.3419
32852SOL    HW1 1961   6.801   5.091   6.865 -0.3850 -1.8038  0.2365
32852SOL    HW2 1962   6.727   5.125   6.992  0.9538  1.6135  0.1417
32853SOL     OW 1963   6.222   1.090   9.549 -0.5806 -0.2232 -0.1639
32853SOL    HW1 1964   6.210   1.001   9.516 -0.1147 -0.3398 -0.0197
32853SOL    HW2 1965   6.162   1.143   9.496  0.6797 -0.2977 -1.6838
32854SOL     OW 1966   5.797   3.070   9.615  0.3774 -0.3917  0.1467
32854SOL    HW1 1967   5.892   3.056   9.607  0.6372  1.6342 -0.5756
32854SOL    HW2 1968   5.765   3.068   9.525  0.1898  1.8525  0.1411
32855SOL     OW 1969   6.674   0.466   3.005 -0.2035  0.3127 -0.0994
32855SOL    HW1 1970   6.624   0.526   3.061  0.2832  1.2508 -0.6685
32855SOL    HW2 1971   6.713   0.403   3.066 -2.7501 -0.9666  0.2974
32856SOL     OW 1972   5.381   3.334  10.505  0.0285  0.1088  0.5809
32856SOL    HW1 1973   5.310   3.340  10.442  0.8860 -0.2820 -0.4338
32856SOL    HW2 1974   5.345   3.285  10.578 -0.8173  0.1350  0.1776
32857SOL     OW 1975   7.607   2.633   1.460 -0.3013 -0.6205  0.1439
32857SOL    HW1 1976   7.629   2.720   1.427  0.8657 -0.6613  0.8040
32857SOL    HW2 1977   7.687   2.582   1.448 -0.9130 -1.5417 -0.0264
32858SOL     OW 1978   7.059   8.241   3.279  0.4333  0.0257  0.3801
32858SOL    HW1 1979   7.117   8.261   3.205  0.6944 -1.8192  0.0796
32858SOL    HW2 1980   6.971   8.244   3.241  0.6824 -3.1051 -0.5497
32859SOL     OW 1981   4.188   2.965  10.899 -0.4335 -0.1908 -0.3181
32859SOL    HW1 1982   4.255   2.900  10.921  0.5844  0.9562  0.0452
32859SOL    HW2 1983   4.238   3.046  10.884 -1.3840 -0.1860 -3.7697
32860SOL     OW 1984   5.202   1.416   4.857 -0.0545 -0.4370 -0.0275
32860SOL    HW1 1985   5.135   1.392   4.793  0.0562  0.3708 -0.4464
32860SOL    HW2 1986   5.153   1.447   4.933 -0.1493  1.1470 -0.7202
32861SOL     OW 1987   3.542   5.756   0.838  0.1507  0.2034 -0.1800
32861SOL    HW1 1988   3.557   5.723   0.750 -0.9016 -1.3975  0.2209
32861SOL    HW2 1989   3.586   5.692   0.895 -2.1749 -0.7144  0.6283
32862SOL     OW 1990   7.133   9.320   8.288 -0.1525  0.0294 -0.1632
32862SOL    HW1 1991   7.131   9.229   8.257  1.2893 -0.0765 -0.0129
32862SOL    HW2 1992   7.084   9.318   8.370 -0.0725 -0.6390 -0.1237
32863SOL     OW 1993   0.596   5.834   9.109 -0.4071 -0.3053  0.2071
32863SOL    HW1 1994   0.606   5.836   9.204 -1.4789  3.3589  0.3157
32863SOL    HW2 1995   0.664   5.774   9.079  1.2536  0.0286  3.1271
32864SOL     OW 1996   5.117   7.418   9.735 -0.2351  0.3897  0.1388
32864SOL    HW1 1997   5.104   7.345   9.674  2.7650  0.4792 -0.6881
32864SOL    HW2 1998   5.209   7.410   9.762 -0.0116  3.5228  0.4888
32865SOL     OW 1999   4.945   6.696   8.849  0.0155 -0.0272  0.4931
32865SOL    HW1 2000   5.030   6.708   8.892  0.0655  0.2109  0.3271
32865SOL    HW2 2001   4.958   6.729   8.760 -0.1260 -0.4053  0.3339
32866SOL     OW 2002   4.888   9.024   4.960  0.0675 -0.3013 -0.0458
32866SOL    HW1 2003   4.901   8.938   4.922  2.4907 -0.2312  0.5386
32866SOL    HW2 2004   4.965   9.038   5.016 -0.4591  2.0678  0.1606
32867SOL     OW 2005   4.118   5.942   7.453  0.0626  0.3021  0.8418
32867SOL    HW1 2006   4.096   5.878   7.520  0.7497  0.3357  1.1037
32867SOL    HW2 2007   4.212   5.931   7.439  0.1306  1.0486  0.6774
32868SOL     OW 2008  10.491   3.397   8.136  0.4585 -0.2643 -0.0223
32868SOL    HW1 2009  10.568   3.403   8.079 -0.0005  3.6802 -0.3960
32868SOL    HW2 2010  10.476   3.487   8.164 -2.8644 -1.2709  1.6546
32869SOL     OW 2011   3.410  10.039   0.483  0.0173 -0.0352 -0.3012
32869SOL    HW1 2012   3.503  10.044   0.460  0.0413  2.0191  0.1489
32869SOL    HW2 2013   3.408  10.008   0.573  0.3712  1.5034  0.2598
32870SOL     OW 2014   5.531   8.595   3.154 -1.0177  0.5214  0.2905
32870SOL    HW1 2015   5.479   8.636   3.223  0.4916  1.2110  1.0410
32870SOL    HW2 2016   5.608   8.650   3.146 -0.6724 -0.1492 -1.2335
32871SOL     OW 2017   5.437  10.612   4.558  0.1277  0.3378  0.2811
32871SOL    HW1 2018   5.478  10.595   4.643 -1.4077  2.8090  1.5761
32871SOL    HW2 2019   5.366  10.549   4.553  1.3950 -1.1013 -0.0653
32872SOL     OW 2020  10.555   8.737   2.387  0.1461  0.1983 -0.2838
32872SOL    HW1 2021  10.500   8.673   2.433  1.9434  0.8131  2.8613
32872SOL    HW2 2022  10.645   8.705   2.401  1.0379  3.0636  0.8642
32873SOL     OW 2023   9.311  10.122   6.911  0.2537 -0.6807 -0.6371
32873SOL    HW1 2024   9.341  10.038   6.878  2.4585  0.2871 -1.2230
32873SOL    HW2 2025   9.314  10.112   7.007 -1.1067 -1.7871 -0.6977
32874SOL     OW 2026   6.570   8.803   9.205 -0.1377  0.4884  0.3689
32874SOL    HW1 2027   6.627   8.880   9.201  0.0673  0.3158 -0.0774
32874SOL    HW2 2028   6.482   8.839   9.195 -0.1209  0.7783  1.2598
32875SOL     OW 2029   6.471   1.175   1.701 -0.3887 -0.1133 -0.0528
32875SOL    HW1 2030   6.495   1.247   1.642  1.6331 -0.9133 -0.2455
32875SOL    HW2 2031   6.381   1.194   1.726  0.4196  3.0407  0.7057
32876SOL     OW 2032   1.827   5.066   1.330  0.7882  0.3202  0.1422
32876SOL    HW1 2033   1.809   5.066   1.424  0.6011 -0.1084  0.1066
32876SOL    HW2 2034   1.741   5.056   1.289  0.5626  2.9843 -0.1468
32877SOL     OW 2035   1.480   0.530   9.529  0.1355  0.0473 -0.5423
32877SOL    HW1 2036   1.473   0.598   9.597  1.2254 -0.6488  0.2707
32877SOL    HW2 2037   1.437   0.454   9.568  1.8230 -0.7196 -0.1459
32878SOL     OW 2038   6.284   9.273   1.891  0.5379  0.1515 -0.6588
32878SOL    HW1 2039   6.189   9.268   1.895  0.5632  0.5773  0.9720
32878SOL    HW2 2040   6.303   9.365   1.872  0.6395  0.3070  0.1799
32879SOL     OW 2041  10.839  10.192   9.291  0.0832 -0.1255  0.1838
32879SOL    HW1 2042  10.815  10.100   9.285  4.2704 -1.2921 -0.1519
32879SOL    HW2 2043  10.818  10.217   9.382 -0.1436 -1.7005  0.5696
32880SOL     OW 2044   0.586   7.604   0.117  0.3396  0.0284  0.5819
32880SOL    HW1 2045   0.673   7.605   0.078 -1.0492  3.5469 -2.8795
32880SOL    HW2 2046   0.570   7.695   0.141 -3.0207 -0.1828 -0.5725
32881SOL     OW 2047   2.753   1.970   5.799  0.2443 -0.5797  0.9232
32881SOL    HW1 2048   2.681   1.939   5.744  0.9779  0.4193 -0.6521
32881SOL    HW2 2049   2.827   1.913   5.776  0.9034  0.6644 -0.1063
32882SOL     OW 2050   7.594  10.190   1.259  0.2301  0.1632  0.0670
32882SOL    HW1 2051   7.683  10.217   1.281  1.1105 -1.3425 -1.5127
32882SOL    HW2 2052   7.595  10.095   1.268 -1.5862  0.2250  1.2390
32883SOL     OW 2053   2.301   0.357   4.704  0.4851 -0.1889  0.2484
32883SOL    HW1 2054   2.313   0.324   4.615 -2.1948 -3.4492  0.9703
32883SOL    HW2 2055   2.379   0.329   4.752 -0.2829 -2.8397  0.0493
32884SOL     OW 2056   5.410   1.436   7.767 -0.3726 -0.0507 -0.0837
32884SOL    HW1 2057   5.357   1.386   7.828 -1.1840 -0.0093 -0.7540
32884SOL    HW2 2058   5.347   1.484   7.712  0.3318 -0.2030 -1.0481
32885SOL     OW 2059  10.375   4.405   8.823  0.0988 -0.3961  0.5525
32885SOL    HW1 2060  10.325   4.421   8.904 -0.3036  0.7869  0.0743
32885SOL    HW2 2061  10.424   4.325   8.842  1.1149  0.6372  2.5065
32886SOL     OW 2062   1.225   2.273   3.782 -0.5498 -0.0881 -0.0327
32886SOL    HW1 2063   1.314   2.296   3.809 -1.5201  1.1797  2.2101
32886SOL    HW2 2064   1.198   2.346   3.726 -0.0057 -0.7652 -1.2187
32887SOL     OW 2065   8.941   5.935  10.733 -0.0894 -0.6592 -0.3683
32887SOL    HW1 2066   8.933   5.854  10.682 -1.1489 -0.6615 -0.2165
32887SOL    HW2 2067   8.853   5.973  10.731 -0.0744 -0.5056  1.1771
32888SOL     OW 2068   6.277  10.241   9.653  0.1234 -0.1365  0.5858
32888SOL    HW1 2069   6.338  10.312   9.632  0.3093  0.0163  1.6553
32888SOL    HW2 2070   6.191  10.276   9.631  0.2706  0.2085  0.5540
32889SOL     OW 2071   5.976   6.496   2.135 -0.3808  0.3051  0.7421
32889SOL    HW1 2072   6.060   6.526   2.101 -0.6180 -0.8433 -0.9086
32889SOL    HW2 2073   5.999   6.446   2.213  0.5097 -0.2522  0.1405
32890SOL     OW 2074   9.680   3.876   7.494  0.3905 -0.0580  0.5942
32890SOL    HW1 2075   9.709   3.806   7.552  0.3647 -0.0039  0.6733
32890SOL    HW2 2076   9.585   3.866   7.490  0.4320 -0.3214  0.2254
32891SOL     OW 2077   7.427   7.532   7.417 -0.2127 -0.2665 -0.3587
32891SOL    HW1 2078   7.361   7.477   7.373  1.9083 -2.6707 -0.7098
32891SOL    HW2 2079   7.435   7.609   7.361 -2.1903 -0.2674 -0.6842
32892SOL     OW 2080   2.018   7.200   7.391 -0.3655 -0.0679 -0.1936
32892SOL    HW1 2081   2.077   7.148   7.337 -1.0728 -2.7933  1.5600
32892SOL    HW2 2082   1.934   7.154   7.386 -1.3722  1.6687  0.3286
32893SOL     OW 2083   4.446  10.129  10.839 -0.3230  0.2519 -0.2448
32893SOL    HW1 2084   4.484  10.196  10.897  1.2671 -1.2874  0.5228
32893SOL    HW2 2085   4.521  10.089  10.795 -1.2660 -0.9635 -0.7843
32894SOL     OW 2086   8.427   5.251   8.433  0.2522 -0.2895  0.6921
32894SOL    HW1 2087   8.334   5.235   8.446 -0.4851  1.5801 -1.8428
32894SOL    HW2 2088   8.457   5.291   8.515 -1.4444  0.1268  1.1179
32895SOL     OW 2089   5.428   6.237   0.591 -0.3302 -0.3772  0.3330
32895SOL    HW1 2090   5.349   6.189   0.615 -0.4315 -0.0021  0.7578
32895SOL    HW2 2091   5.405   6.284   0.511 -0.4840 -0.4072  0.3600
32896SOL     OW 2092   7.516   0.335   2.092  0.2179 -0.0597 -0.1445
32896SOL    HW1 2093   7.590   0.294   2.049  0.5939  0.0822  0.3673
32896SOL    HW2 2094   7.452   0.349   2.022  0.4704 -0.6422 -0.4885
32897SOL     OW 2095   8.416   0.010   2.131 -0.0745 -0.1697 -0.0617
32897SOL    HW1 2096   8.333  -0.026   2.164 -1.1540  1.8797 -0.4918
32897SOL    HW2 2097   8.481  -0.019   2.194 -1.0395 -2.1760  0.0555
32898SOL     OW 2098  10.346   7.777   7.770 -0.1175  0.3802 -0.3488
32898SOL    HW1 2099  10.331   7.682   7.766  0.0475  0.3564 -0.4112
32898SOL    HW2 2100  10.414   7.793   7.705  1.2119  0.2622  0.9701
32899SOL     OW 2101   5.367   3.363   2.606  0.0715  0.0023 -0.1935
32899SOL    HW1 2102   5.386   3.320   2.523  0.2863  0.7520 -0.5325
32899SOL    HW2 2103   5.444   3.417   2.623 -0.3929  0.5997  0.0136
32900SOL     OW 2104   8.042   0.351   3.655  0.2873 -0.0712  0.4973
32900SOL    HW1 2105   8.053   0.276   3.714  0.8812  1.7189  2.7229
32900SOL    HW2 2106   7.950   0.376   3.664  0.1521 -0.3567 -0.0550
32901SOL     OW 2107   1.624   7.409   8.902 -0.1809  1.3050  0.4274
32901SOL    HW1 2108   1.567   7.358   8.845  1.5755  1.3574 -1.4481
32901SOL    HW2 2109   1.638   7.353   8.978  0.3172 -0.3103 -0.8206
32902SOL     OW 2110  10.937   0.163   1.656 -0.4614 -0.0610 -0.0471
32902SOL    HW1 2111  10.992   0.098   1.612 -0.2950 -1.0213  1.5549
32902SOL    HW2 2112  10.938   0.238   1.597  1.2719 -0.6431 -0.8005
32903SOL     OW 2113  10.299  10.179   3.626  0.6428  0.0307  1.0414
32903SOL    HW1 2114  10.279  10.116   3.695 -1.6871 -0.2991  0.1181
32903SOL    HW2 2115  10.214  10.217   3.603  1.0169 -1.5210 -3.2612
32904SOL     OW 2116   7.691   4.704   4.853  0.2893 -0.3200 -0.0766
32904SOL    HW1 2117   7.752   4.717   4.926 -0.5524  2.0442  0.2517
32904SOL    HW2 2118   7.604   4.720   4.891 -0.1077  1.7231 -1.7196
32905SOL     OW 2119   7.296   5.445   8.038 -0.0214  0.2430  0.5186
32905SOL    HW1 2120   7.209   5.419   8.069 -0.2924 -0.2084 -0.5820
32905SOL    HW2 2121   7.288   5.442   7.943  1.2008  0.2228  0.4181
32906SOL     OW 2122   2.101   3.358   7.938 -0.1184  0.1163 -0.1926
32906SOL    HW1 2123   2.193   3.334   7.948 -0.2484 -0.7556 -1.0430
32906SOL    HW2 2124   2.103   3.441   7.891  0.1968 -1.0732 -2.3811
32907SOL     OW 2125   0.974   3.795   6.361  0.4674 -0.2799 -0.3252
32907SOL    HW1 2126   0.885   3.782   6.394  0.5176  0.3541  0.0559
32907SOL    HW2 2127   0.966   3.779   6.267 -0.2553  0.7451 -0.4515
32908SOL     OW 2128   0.690   5.766   9.929 -0.8126  0.9209  0.2757
32908SOL    HW1 2129   0.755   5.833   9.949 -0.6204  1.2917 -1.4969
32908SOL    HW2 2130   0.628   5.769  10.002 -0.1281  2.1818  0.8047
32909SOL     OW 2131   8.536   5.632   8.047 -0.0813  0.2022  0.1161
32909SOL    HW1 2132   8.547   5.663   8.137  0.1618  0.2760  0.0615
32909SOL    HW2 2133   8.556   5.709   7.993 -0.8679  0.3421  0.0115
32910SOL     OW 2134  10.116   2.809   9.068  0.0282 -0.4087  0.8311
32910SOL    HW1 2135  10.204   2.837   9.043  0.7539 -1.3583  2.2301
32910SOL    HW2 2136  10.065   2.814   8.988  1.6192 -0.8613 -0.2184
32911SOL     OW 2137   9.264  10.607   2.897  0.1503 -0.1144 -0.4413
32911SOL    HW1 2138   9.199  10.663   2.855  2.0750  1.8668 -0.8643
32911SOL    HW2 2139   9.292  10.656   2.974 -0.0675 -1.7217  0.6998
32912SOL     OW 2140  10.374   6.750   1.207  0.2406  0.0311  0.3934
32912SOL    HW1 2141  10.413   6.722   1.124  1.7053  0.1931  1.0072
32912SOL    HW2 2142  10.341   6.669   1.247 -0.2457 -0.0808 -0.2363
32913SOL     OW 2143   4.627   7.730   2.489 -0.4750 -0.4747  1.2324
32913SOL    HW1 2144   4.682   7.659   2.454 -0.7307  0.5511 -1.3438
32913SOL    HW2 2145   4.649   7.806   2.436 -3.5500  0.2414  0.9221
32914SOL     OW 2146   1.266   6.728   9.667 -0.1733 -0.0351 -0.4646
32914SOL    HW1 2147   1.346   6.707   9.619 -0.0318  0.3522 -0.3972
32914SOL    HW2 2148   1.212   6.777   9.604 -0.7562 -1.1182 -0.8158
32915SOL     OW 2149   4.357   2.901  10.375  0.0152  0.3748  0.3918
32915SOL    HW1 2150   4.318   2.814  10.390 -0.5354  0.8668  1.8114
32915SOL    HW2 2151   4.436   2.883  10.323 -0.4086 -0.9176  0.1766
32916SOL     OW 2152   8.763   1.319   6.603  0.1440  0.3805  0.4221
32916SOL    HW1 2153   8.676   1.348   6.577  0.4764  0.8740 -0.1696
32916SOL    HW2 2154   8.809   1.400   6.626  0.4287  0.1172  0.7948
32917SOL     OW 2155   9.230   6.247   7.047  0.1301  0.1496 -0.2017
32917SOL    HW1 2156   9.215   6.327   7.098  0.4745 -0.4004  0.7806
32917SOL    HW2 2157   9.155   6.242   6.988  1.2839  2.4842 -2.0012
32918SOL     OW 2158   4.765   2.838   3.656  0.3552 -0.4940  0.2495
32918SOL    HW1 2159   4.826   2.912   3.660 -0.5776  0.3385 -0.6620
32918SOL    HW2 2160   4.758   2.808   3.747  1.2154  0.1464  0.5358
32919SOL     OW 2161   4.420   6.337   3.401  0.2286  0.3461  0.0933
32919SOL    HW1 2162   4.353   6.336   3.332  0.7462 -0.4716 -0.4007
32919SOL    HW2 2163   4.375   6.376   3.476 -0.3518  1.2201 -0.6912
32920SOL     OW 2164   2.808   4.077   3.133  0.0818 -0.0904  0.2780
32920SOL    HW1 2165   2.861   4.011   3.177 -0.4753 -1.4979 -1.1263
32920SOL    HW2 2166   2.853   4.095   3.051 -0.8669 -0.2859 -0.3017
32921SOL     OW 2167   2.027  10.539   8.533 -0.2241 -0.1919 -0.0529
32921SOL    HW1 2168   1.937  10.562   8.558 -0.0143  1.0659 -0.4489
32921SOL    HW2 2169   2.057  10.483   8.605 -1.0014  0.1405  0.5459
32922SOL     OW 2170   1.327   0.801   7.264  0.3323 -0.1223  0.5145
32922SOL    HW1 2171   1.253   0.829   7.317  0.4754 -0.9557  1.1647
32922SOL    HW2 2172   1.287   0.757   7.189  0.1529  0.1439  0.4531
32923SOL     OW 2173   8.996   1.328   7.103 -0.1578 -0.1988 -0.0131
32923SOL    HW1 2174   8.931   1.317   7.033  0.7836 -1.3093 -0.7282
32923SOL    HW2 2175   8.945   1.325   7.183 -0.8891 -2.1364 -0.5216
32924SOL     OW 2176   7.420   3.466  10.453  0.0758 -0.0900  0.1188
32924SOL    HW1 2177   7.474   3.426  10.385 -0.9209 -1.5476  0.1553
32924SOL    HW2 2178   7.350   3.403  10.468 -1.7038  1.7828 -0.0012
32925SOL     OW 2179   9.012   8.359   9.485 -0.7819  0.2422 -0.1262
32925SOL    HW1 2180   8.996   8.436   9.539  2.2682  1.0901 -0.3656
32925SOL    HW2 2181   9.107   8.358   9.470 -1.2646 -1.1106 -3.7180
32926SOL     OW 2182   4.472   3.822   1.319  0.7550  0.4824  0.1955
32926SOL    HW1 2183   4.432   3.741   1.289 -0.4450  0.7046  1.1600
32926SOL    HW2 2184   4.418   3.891   1.282  0.6487  0.7962  0.9212
32927SOL     OW 2185   6.062   1.152   7.382 -0.6583  0.0633 -0.6715
32927SOL    HW1 2186   6.152   1.132   7.357 -0.2166  0.4984  0.5338
32927SOL    HW2 2187   6.011   1.134   7.304  0.4114 -0.6932 -1.2095
32928SOL     OW 2188   2.077   7.521  10.964 -0.2764 -0.2351 -0.0798
32928SOL    HW1 2189   2.013   7.496  10.897 -1.7070  1.2079  0.7244
32928SOL    HW2 2190   2.025   7.537  11.043  1.3282 -1.2655  1.2233
32929SOL     OW 2191   4.890   6.370   9.027  0.6090 -0.5528 -0.1433
32929SOL    HW1 2192   4.796   6.373   9.009  0.4549 -0.6365  0.6163
32929SOL    HW2 2193   4.898   6.307   9.099  1.2584 -0.6188 -0.2761
32930SOL     OW 2194   0.454   6.333  10.904 -0.3562  0.1218 -0.3411
32930SOL    HW1 2195   0.387   6.357  10.839 -1.7726 -0.2375  0.9472
32930SOL    HW2 2196   0.454   6.406  10.965  2.2720  1.3064 -1.7116
32931SOL     OW 2197   2.659   6.110  10.583 -0.4322  0.2661 -0.1549
32931SOL    HW1 2198   2.619   6.155  10.509  0.7796 -0.4335 -1.2610
32931SOL    HW2 2199   2.691   6.027  10.545 -1.3788 -0.8926  1.5217
32932SOL     OW 2200   4.614  10.765  10.462 -0.1422 -0.0202  0.0661
32932SOL    HW1 2201   4.613  10.710  10.540  0.7461  0.4477  0.4154
32932SOL    HW2 2202   4.633  10.705  10.390 -1.6711 -0.5673  0.1159
32933SOL     OW 2203   0.778   1.465   0.810 -0.6222  0.1573  0.2694
32933SOL    HW1 2204   0.863   1.432   0.781  0.2234  3.7686 -1.7062
32933SOL    HW2 2205   0.723   1.463   0.732 -1.0242  1.8410  0.4833
32934SOL     OW 2206   9.844   8.885   2.320 -0.0755 -0.5792 -0.3130
32934SOL    HW1 2207   9.904   8.849   2.385 -0.6816 -1.1521 -0.0665
32934SOL    HW2 2208   9.798   8.809   2.284 -2.0547  0.0063  0.8970
32935SOL     OW 2209   5.690   2.508   0.991 -0.8268 -0.2107 -0.3481
32935SOL    HW1 2210   5.678   2.527   0.898  1.1546 -0.8711 -0.7647
32935SOL    HW2 2211   5.744   2.429   0.993 -2.4382 -1.3277  1.3686
32936SOL     OW 2212  10.229   6.199   2.416  0.0666  0.8048 -0.6609
32936SOL    HW1 2213  10.135   6.187   2.406 -0.3402 -0.4874  3.6166
32936SOL    HW2 2214  10.268   6.151   2.344 -2.4978 -0.7467 -1.0631
32937SOL     OW 2215   1.825   2.239   3.239  0.3760 -0.1627  0.0414
32937SOL    HW1 2216   1.764   2.303   3.201 -1.3313 -1.3387  0.7170
32937SOL    HW2 2217   1.842   2.177   3.169 -0.0045 -0.3836  0.1412
32938SOL     OW 2218   4.213   2.041   3.967  0.4459 -0.0440  0.5026
32938SOL    HW1 2219   4.127   2.070   3.997 -0.0342 -0.7449 -0.1986
32938SOL    HW2 2220   4.253   2.003   4.045 -0.2575 -0.5874  0.6061
32939SOL     OW 2221   2.845   1.831   9.320 -0.0267 -0.1983 -0.3287
32939SOL    HW1 2222   2.791   1.888   9.265  1.4542 -0.5931 -2.2452
32939SOL    HW2 2223   2.846   1.747   9.274  0.8481 -0.6712  0.5407
32940SOL     OW 2224   9.605   4.989   9.337  0.5233 -0.2066 -0.0302
32940SOL    HW1 2225   9.601   5.065   9.395  1.8759 -1.0267  1.1504
32940SOL    HW2 2226   9.533   4.933   9.367  0.8021 -0.3209  0.4307
32941SOL     OW 2227   1.528   5.486  10.698 -0.7889  0.3115  0.1485
32941SOL    HW1 2228   1.540   5.575  10.664  0.8917 -0.7692 -2.2543
32941SOL    HW2 2229   1.603   5.473  10.757 -0.8583  0.3758  0.2519
32942SOL     OW 2230   7.174   4.080   9.236 -0.3502  0.2595  0.1018
32942SOL    HW1 2231   7.239   4.062   9.304  1.9908 -1.7738 -2.5739
32942SOL    HW2 2232   7.172   4.001   9.183 -2.8234  1.4536 -1.6775
32943SOL     OW 2233   0.981  10.799   4.054  0.3260  0.0065  0.6321
32943SOL    HW1 2234   0.965  10.873   3.995 -0.5497 -0.5388  0.1777
32943SOL    HW2 2235   1.019  10.838   4.132 -0.3883  0.9711  0.5051
32944SOL     OW 2236   9.759   5.864   0.591  0.2865 -0.1418 -0.0577
32944SOL    HW1 2237   9.759   5.825   0.679  1.5451  0.1450  0.0797
32944SOL    HW2 2238   9.778   5.791   0.533  0.4184 -0.1615  0.0071
32945SOL     OW 2239   6.410   5.273   1.214  0.1389  0.1805  0.3810
32945SOL    HW1 2240   6.490   5.220   1.219  0.0319 -0.0238 -0.0672
32945SOL    HW2 2241   6.429   5.337   1.145  0.6964  1.4440  1.7049
32946SOL     OW 2242   1.653   1.764   1.006  0.7219 -0.1160 -0.6717
32946SOL    HW1 2243   1.727   1.818   0.979  1.7087 -0.7805  0.6672
32946SOL    HW2 2244   1.673   1.740   1.096 -0.0110 -2.2114 -1.0552
32947SOL     OW 2245   1.525   5.863   3.341 -0.0783 -0.2720 -0.0831
32947SOL    HW1 2246   1.471   5.940   3.327 -1.3841 -1.4668 -1.8727
32947SOL    HW2 2247   1.487   5.821   3.418  0.0961  0.4189  0.3798
32948SOL     OW 2248   3.567   1.442   9.901  0.4264 -0.1032 -0.0323
32948SOL    HW1 2249   3.658   1.418   9.921  0.7280  0.6506 -0.4690
32948SOL    HW2 2250   3.572   1.533   9.872 -0.7518  0.6918  2.0975
32949SOL     OW 2251   1.179   8.737   1.204 -0.1181  0.0631 -0.5823
32949SOL    HW1 2252   1.086   8.724   1.220  0.1174 -0.6474  0.2355
32949SOL    HW2 2253   1.217   8.649   1.207  0.4554  0.2571 -1.7415
32950SOL     OW 2254  10.775   6.740   6.551  0.1377 -0.1374 -0.1682
32950SOL    HW1 2255  10.856   6.721   6.598 -0.6420  0.6903  1.5689
32950SOL    HW2 2256  10.712   6.760   6.620 -0.7706  2.1970 -1.6206
32951SOL     OW 2257   4.791   3.530   9.667 -0.4036 -0.1155  0.0803
32951SOL    HW1 2258   4.886   3.545   9.671  0.2092 -2.7789 -2.7472
32951SOL    HW2 2259   4.778   3.445   9.708 -1.4320 -0.1978 -0.3991
32952SOL     OW 2260   9.077   0.700   9.402 -0.2198 -0.4934  0.0744
32952SOL    HW1 2261   9.038   0.730   9.484  2.0235  0.4382  0.8417
32952SOL    HW2 2262   9.005   0.704   9.338 -1.4556  0.7996  1.5083
32953SOL     OW 2263   2.122   5.903   4.102 -0.0390  0.1016 -0.0064
32953SOL    HW1 2264   2.186   5.940   4.041  0.5500 -0.2666  0.3804
32953SOL    HW2 2265   2.039   5.905   4.054  0.5992 -1.1013 -1.2161
32954SOL     OW 2266   5.111   5.637   4.211  0.0359  0.1110 -0.0215
32954SOL    HW1 2267   5.114   5.556   4.159 -0.4105  0.0505  0.0439
32954SOL    HW2 2268   5.164   5.618   4.288 -1.5750 -0.7633  0.8967
32955SOL     OW 2269   7.843   7.729   8.733  0.4399  0.2395  0.1873
32955SOL    HW1 2270   7.937   7.711   8.730  0.0275 -1.9983 -0.1934
32955SOL    HW2 2271   7.804   7.644   8.754 -1.7356  0.4116 -2.9238
32956SOL     OW 2272   1.048   1.093   9.475 -0.2387  0.5408  0.7360
32956SOL    HW1 2273   0.990   1.122   9.546 -0.2036  0.2865  0.8684
32956SOL    HW2 2274   1.006   1.015   9.439  0.3747 -0.0462  1.2847
32957SOL     OW 2275   5.388   7.115   1.606  0.3534 -0.0600  0.3558
32957SOL    HW1 2276   5.462   7.115   1.667 -0.5435  2.0084  1.4691
32957SOL    HW2 2277   5.428   7.127   1.520  1.5091 -1.6163  0.6405
32958SOL     OW 2278   2.116   0.116   9.518  1.1133 -0.4183  0.1540
32958SOL    HW1 2279   2.132   0.130   9.611 -0.3928  0.9703  0.2249
32958SOL    HW2 2280   2.038   0.061   9.515 -0.2003  1.3962 -0.2735
32959SOL     OW 2281   4.474   5.154   3.282 -0.2380 -0.3643 -0.5669
32959SOL    HW1 2282   4.543   5.088   3.294  0.4081  0.2728 -0.7708
32959SOL    HW2 2283   4.409   5.132   3.348 -0.1391 -1.3592 -0.7917
32960SOL     OW 2284   2.496   7.742   5.440 -0.2324  0.6662  0.6248
32960SOL    HW1 2285   2.523   7.732   5.349 -0.3974  3.2968  0.2543
32960SOL    HW2 2286   2.560   7.690   5.490 -0.1499 -0.8006 -0.9630
32961SOL     OW 2287  10.296   5.316   0.493  0.6005 -0.0009 -0.2061
32961SOL    HW1 2288  10.269   5.405   0.519  1.1031  0.5441 -1.4996
32961SOL    HW2 2289  10.307   5.270   0.576 -1.5845  0.5587  0.4550
32962SOL     OW 2290   6.926   1.150  10.199 -0.1914  0.5899 -0.5329
32962SOL    HW1 2291   6.990   1.098  10.247 -1.1724  0.0364  0.1940
32962SOL    HW2 2292   6.853   1.089  10.182 -0.1303  0.9433 -2.1761
32963SOL     OW 2293   8.067  10.249  10.501  0.1709 -0.5986  0.0505
32963SOL    HW1 2294   7.983  10.295  10.511  1.2856  1.7937 -1.0163
32963SOL    HW2 2295   8.119  10.279  10.576  0.4607 -1.1968  0.0885
32964SOL     OW 2296   7.917   9.354   3.466  0.0377  0.0566  0.0163
32964SOL    HW1 2297   8.003   9.317   3.447 -0.3199 -0.2753 -0.9958
32964SOL    HW2 2298   7.934   9.422   3.532  0.8386 -1.1371  1.0648
32965SOL     OW 2299   9.552   7.066   7.075  0.1278 -0.6099 -0.4704
32965SOL    HW1 2300   9.641   7.033   7.086  0.6286  0.8532  0.0313
32965SOL    HW2 2301   9.546   7.089   6.982  1.2776  2.0448  0.0790
32966SOL     OW 2302   0.411   8.512   9.577  0.1534 -0.4656  0.0454
32966SOL    HW1 2303   0.326   8.547   9.550 -0.2190 -0.4070  1.2344
32966SOL    HW2 2304   0.389   8.443   9.640  1.0106  0.3225  1.2275
32967SOL     OW 2305   7.696   3.790   6.914 -0.3965  0.1368 -0.5105
32967SOL    HW1 2306   7.643   3.735   6.972  2.3827 -0.4540  1.5631
32967SOL    HW2 2307   7.680   3.879   6.944 -0.7463  0.0176 -0.3379
32968SOL     OW 2308   7.620  10.711   5.182 -0.1940  0.3840 -0.0244
32968SOL    HW1 2309   7.558  10.784   5.178 -0.8438 -0.1543  0.3093
32968SOL    HW2 2310   7.566  10.632   5.175  0.5200 -0.0698 -0.5155
32969SOL     OW 2311  10.187   7.101   3.680 -0.2225  0.0860 -0.3851
32969SOL    HW1 2312  10.216   7.192   3.688  1.9201 -0.5140 -0.9820
32969SOL    HW2 2313  10.249   7.052   3.734 -1.9318 -0.9196  0.6920
32970SOL     OW 2314   5.184   1.412   6.949  0.1215 -0.0140  0.2496
32970SOL    HW1 2315   5.133   1.485   6.914  1.0658  0.5313 -0.0226
32970SOL    HW2 2316   5.251   1.453   7.003  2.1901 -0.4841 -1.8491
32971SOL     OW 2317   4.673   2.038   7.043  0.5761 -0.1744  0.2910
32971SOL    HW1 2318   4.755   2.046   7.092 -0.2819  1.6949  1.4733
32971SOL    HW2 2319   4.667   1.945   7.022  2.6090 -0.4651  0.8594
32972SOL     OW 2320   2.616  10.184   1.202 -0.0706  0.1537 -0.9336
32972SOL    HW1 2321   2.555  10.248   1.236  1.7521  1.5332 -0.1931
32972SOL    HW2 2322   2.606  10.108   1.259 -0.8997  0.4654 -0.6634
32973SOL     OW 2323   8.312   0.276   8.955  0.4829  0.0199  0.0631
32973SOL    HW1 2324   8.347   0.193   8.988  0.3698 -0.0373  0.0421
32973SOL    HW2 2325   8.246   0.301   9.019  1.6939  0.9470  0.9442
32974SOL     OW 2326   8.376   8.144   9.156 -0.1080  0.0109  0.7514
32974SOL    HW1 2327   8.294   8.132   9.108  0.3339  0.6107 -0.1603
32974SOL    HW2 2328   8.373   8.235   9.186  1.1581  0.6787 -1.0760
32975SOL     OW 2329   9.191   6.691   5.574  0.3238  0.1006  0.1744
32975SOL    HW1 2330   9.165   6.604   5.544  0.2515 -0.1542  0.9588
32975SOL    HW2 2331   9.113   6.727   5.616  0.7735 -0.0370  1.1394
32976SOL     OW 2332   3.569   0.713   3.081  0.1437  0.1875  0.0576
32976SOL    HW1 2333   3.481   0.694   3.048  0.3560 -0.7691  0.0134
32976SOL    HW2 2334   3.557   0.788   3.140 -0.7147  0.0264  0.1017
32977SOL     OW 2335   1.636   8.535   7.907  0.2201  0.1696 -0.5287
32977SOL    HW1 2336   1.546   8.521   7.876  0.1458 -3.3416  0.9800
32977SOL    HW2 2337   1.628   8.533   8.003  1.8366  0.4276 -0.3784
32978SOL     OW 2338  10.664   4.365   4.237  0.0701 -0.4574 -0.4631
32978SOL    HW1 2339  10.653   4.272   4.220  1.7332 -0.3489 -2.3506
32978SOL    HW2 2340  10.734   4.370   4.303 -0.0449 -0.5440 -0.3352
32979SOL     OW 2341   1.404   9.455   2.009 -0.1204  0.0896 -0.3633
32979SOL    HW1 2342   1.477   9.419   2.060 -0.1608  0.1750 -0.2454
32979SOL    HW2 2343   1.328   9.448   2.066 -0.3386 -0.6185 -0.7403
32980SOL     OW 2344   6.704   0.915   6.194  0.3797  0.0370 -0.2324
32980SOL    HW1 2345   6.658   0.833   6.176 -0.6900  0.7856 -1.0012
32980SOL    HW2 2346   6.761   0.928   6.117 -2.0997  1.7963 -1.8777
32981SOL     OW 2347   9.201   6.672   3.689 -0.1871 -0.2151  0.4957
32981SOL    HW1 2348   9.219   6.667   3.783  0.7795  0.8965  0.3818
32981SOL    HW2 2349   9.207   6.582   3.659  0.1306 -0.5026  1.3972
32982SOL     OW 2350   9.691   6.745   8.124  0.3432 -0.5690 -0.0839
32982SOL    HW1 2351   9.610   6.795   8.109  0.3722  0.1377  1.9579
32982SOL    HW2 2352   9.682   6.711   8.213  2.1398 -0.7980  0.0225
32983SOL     OW 2353   1.162   3.416   1.446  0.7139 -0.0078  0.6578
32983SOL    HW1 2354   1.173   3.471   1.524  0.7442  1.1395 -0.1431
32983SOL    HW2 2355   1.148   3.478   1.375 -4.4510 -1.1595  0.4934
32984SOL     OW 2356   2.437   6.485   0.650 -0.0941  0.4016 -0.4469
32984SOL    HW1 2357   2.413   6.429   0.576 -0.2930  1.1898 -0.9898
32984SOL    HW2 2358   2.486   6.428   0.708 -0.3626 -0.3590 -0.9530
32985SOL     OW 2359   6.916   1.041   2.614 -0.3556 -1.3728  0.2375
32985SOL    HW1 2360   6.943   0.993   2.692  1.2591 -0.5612  0.2054
32985SOL    HW2 2361   6.968   1.004   2.543  0.3344 -0.1639  0.0800
32986SOL     OW 2362   0.842   7.229   7.434  0.3337 -0.0798  0.1285
32986SOL    HW1 2363   0.870   7.209   7.345 -1.3654 -2.3797  0.0617
32986SOL    HW2 2364   0.869   7.153   7.485 -1.4846 -0.2179  0.9445
32987SOL     OW 2365  10.565   6.218   0.558  0.0596  0.1093 -0.2630
32987SOL    HW1 2366  10.617   6.160   0.613  1.8481  0.2841 -1.7165
32987SOL    HW2 2367  10.594   6.306   0.581  0.4374  0.2092 -1.1126
32988SOL     OW 2368   1.362   7.005   0.673  0.2013 -0.0168 -0.1432
32988SOL    HW1 2369   1.370   6.927   0.727 -0.8696 -0.3133 -0.4084
32988SOL    HW2 2370   1.322   6.974   0.592  0.3260  0.7044 -0.4854
32989SOL     OW 2371   6.693   2.052   1.804 -0.4837 -0.1464 -0.2507
32989SOL    HW1 2372   6.637   2.069   1.728 -1.3043  1.7739  0.7628
32989SOL    HW2 2373   6.744   2.132   1.815 -1.2583  0.0833  1.9583
32990SOL     OW 2374   1.725   5.455  10.887 -0.3366  0.1254 -0.0604
32990SOL    HW1 2375   1.783   5.391  10.927 -0.8834 -0.7849 -0.7199
32990SOL    HW2 2376   1.703   5.515  10.959  1.8552  0.8364  0.0631
32991SOL     OW 2377   3.229   2.697   2.277  0.2495  0.3538  0.6385
32991SOL    HW1 2378   3.258   2.752   2.349  0.2127 -0.6575  1.4349
32991SOL    HW2 2379   3.195   2.758   2.212  2.7908  1.4749  0.3099
32992SOL     OW 2380   6.251   2.831   9.087  0.1771  0.5711 -0.1951
32992SOL    HW1 2381   6.229   2.866   9.001 -0.5457  2.1784  0.6061
32992SOL    HW2 2382   6.271   2.908   9.140  1.0404 -0.4206  0.9614
32993SOL     OW 2383   7.249   4.851   9.724  0.0213  0.5526 -0.2853
32993SOL    HW1 2384   7.341   4.872   9.714 -0.1851  1.1335 -1.0286
32993SOL    HW2 2385   7.247   4.759   9.748  0.7282  0.1304 -1.7855
32994SOL     OW 2386   9.098   5.112   1.834  0.3679 -0.3671  0.4872
32994SOL    HW1 2387   9.031   5.074   1.777  2.1326 -0.8564 -1.3442
32994SOL    HW2 2388   9.161   5.041   1.847  0.8281  0.2553  1.6859
32995SOL     OW 2389   9.955   7.966   9.967  0.1097 -0.7455  0.4675
32995SOL    HW1 2390  10.009   7.896   9.931  0.8155 -1.3129  2.5506
32995SOL    HW2 2391  10.017   8.025  10.009 -0.3613  1.7407 -2.1259
32996SOL     OW 2392   6.490   5.076   1.681 -0.4635  0.2611 -0.1909
32996SOL    HW1 2393   6.571   5.099   1.727 -0.3135 -1.1955  0.2792
32996SOL    HW2 2394   6.424   5.136   1.716  0.2563  0.9849 -0.0678
32997SOL     OW 2395   7.551   5.042   1.971  1.0010 -0.2911 -0.3792
32997SOL    HW1 2396   7.642   5.016   1.960  1.0852  0.5044 -1.6830
32997SOL    HW2 2397   7.502   4.960   1.976  1.7073 -0.7097 -0.3811
32998SOL     OW 2398   6.735   6.036   4.519 -0.6400  0.4046 -0.2356
32998SOL    HW1 2399   6.820   6.010   4.553 -0.6253  0.4033 -0.2753
32998SOL    HW2 2400   6.747   6.041   4.424 -0.5491  0.9008 -0.1990
32999SOL     OW 2401   9.600   7.636   4.958  0.0562 -0.5329  0.2973
32999SOL    HW1 2402   9.525   7.690   4.981  0.0023 -0.3814 -0.2311
32999SOL    HW2 2403   9.572   7.547   4.979  0.8476 -0.2100  3.0481
33000SOL     OW 2404   4.917   4.646   0.426  0.2155  0.2766 -0.1501
33000SOL    HW1 2405   4.858   4.662   0.352 -0.8912 -1.3750  0.3558
33000SOL    HW2 2406   4.883   4.567   0.467  0.6858  1.2843  2.2604
33001SOL     OW 2407   9.061   9.289   8.958  0.4004  1.0307 -0.2375
33001SOL    HW1 2408   9.072   9.275   9.052 -0.7195  0.7478 -0.1437
33001SOL    HW2 2409   9.060   9.201   8.920 -0.0203  1.1094 -0.4105
33002SOL     OW 2410   5.281   8.123  10.776  0.0342 -0.0163  0.1602
33002SOL    HW1 2411   5.236   8.084  10.701 -0.5600 -0.5876  0.8102
33002SOL    HW2 2412   5.225   8.195  10.804  0.0931 -0.0064  0.2570
33003SOL     OW 2413   8.476   1.263   8.814 -0.3468  1.1330  0.2947
33003SOL    HW1 2414   8.437   1.206   8.881 -1.5605  1.9776  0.3237
33003SOL    HW2 2415   8.570   1.254   8.827 -0.5030 -1.0902  0.1090
33004SOL     OW 2416   4.303  10.083   2.299  0.0835 -0.2209 -0.1883
33004SOL    HW1 2417   4.243  10.131   2.242  0.6913  2.0266  0.9790
33004SOL    HW2 2418   4.376  10.058   2.241  0.0187  0.7630 -0.7095
33005SOL     OW 2419   4.462   5.944   2.558  0.1099 -0.2858  0.3934
33005SOL    HW1 2420   4.486   5.852   2.546  0.8923  0.1412 -1.4343
33005SOL    HW2 2421   4.518   5.992   2.496 -1.5586  1.2498  0.0423
33006SOL     OW 2422  10.255   7.886   4.224 -0.4700  0.0649 -0.0680
33006SOL    HW1 2423  10.177   7.866   4.173 -1.5598  1.0345  1.1735
33006SOL    HW2 2424  10.233   7.967   4.271  0.4892 -0.7608  1.8738
33007SOL     OW 2425  10.540   7.271   9.309  0.0520  0.4406 -0.6415
33007SOL    HW1 2426  10.492   7.318   9.377  2.8998  3.1882 -0.4181
33007SOL    HW2 2427  10.473   7.246   9.246 -1.9644  2.3570  0.6454
33008SOL     OW 2428   4.745   4.334   2.700 -1.1258 -0.3433  0.4999
33008SOL    HW1 2429   4.807   4.304   2.634 -2.1340 -0.4299 -0.4361
33008SOL    HW2 2430   4.795   4.394   2.755 -1.0285  2.2456 -2.2597
33009SOL     OW 2431   8.655   1.904   8.253 -0.0987 -0.8152  0.4686
33009SOL    HW1 2432   8.605   1.825   8.236 -1.1398  0.1593 -1.1522
33009SOL    HW2 2433   8.606   1.974   8.209  1.5805  0.4894  0.6011
33010SOL     OW 2434   6.115   9.537   7.336 -0.6355  0.4788  0.3703
33010SOL    HW1 2435   6.178   9.601   7.301 -2.4256  1.4233 -1.2720
33010SOL    HW2 2436   6.055   9.590   7.389 -0.2194 -0.3662  1.6893
33011SOL     OW 2437   5.782   6.339   9.650  0.4218 -0.3961 -0.1991
33011SOL    HW1 2438   5.768   6.423   9.694 -0.0656 -0.9701  0.7635
33011SOL    HW2 2439   5.695   6.299   9.649  0.3229 -0.1807 -2.1433
33012SOL     OW 2440   8.295   4.334   1.657 -0.0947  0.1318 -0.1393
33012SOL    HW1 2441   8.334   4.380   1.732 -1.9564  1.2054  0.2243
33012SOL    HW2 2442   8.353   4.260   1.641 -0.0756 -0.5635  2.8689
33013SOL     OW 2443   2.904   0.061  10.931 -0.3349 -0.0051 -0.3479
33013SOL    HW1 2444   2.911   0.044  10.837  0.9370 -2.1329  0.0858
33013SOL    HW2 2445   2.845  -0.008  10.963  1.1576 -0.8015  0.7620
33014SOL     OW 2446   6.350   4.844   1.646 -0.1412  0.0157 -0.6808
33014SOL    HW1 2447   6.345   4.826   1.740  1.6947  1.2590 -0.3040
33014SOL    HW2 2448   6.353   4.940   1.640 -1.1622 -0.0188 -2.0713
33015SOL     OW 2449   0.718   7.729   2.171  0.4713 -0.8571 -0.1798
33015SOL    HW1 2450   0.798   7.676   2.164  1.7288  1.1151 -1.4358
33015SOL    HW2 2451   0.705   7.764   2.083  0.5469  2.0765  0.9362
33016SOL     OW 2452   6.759   1.241   3.948 -0.2742  0.0360 -0.4404
33016SOL    HW1 2453   6.739   1.273   3.860 -1.2392 -2.0091 -0.9780
33016SOL    HW2 2454   6.853   1.258   3.958 -0.5380  2.0378 -1.1071
33017SOL     OW 2455   5.956   5.976   5.453 -0.2262 -0.8266  0.1560
33017SOL    HW1 2456   5.861   5.979   5.463 -0.3331 -0.2435 -0.9565
33017SOL    HW2 2457   5.975   6.042   5.386  0.9988 -0.6796  0.6303
33018SOL     OW 2458   9.830   6.035   3.553 -0.7546 -0.0746  0.3055
33018SOL    HW1 2459   9.808   6.116   3.509  1.2094 -0.6760 -1.8926
33018SOL    HW2 2460   9.763   5.972   3.525 -1.6975  0.5097  1.2231
33019SOL     OW 2461   1.760   8.749   6.680 -0.0876 -0.0282 -0.1130
33019SOL    HW1 2462   1.736   8.656   6.686  0.4061 -0.0171  2.6342
33019SOL    HW2 2463   1.686   8.795   6.721  0.6524  0.6273  0.5007
33020SOL     OW 2464   7.880   6.964   1.385  0.2287 -0.1838  0.2521
33020SOL    HW1 2465   7.900   6.994   1.296  2.2936 -0.9834  0.3959
33020SOL    HW2 2466   7.790   6.991   1.400  0.9966  3.2317 -0.7213
33021SOL     OW 2467   5.725   5.219   3.789 -0.5793  0.0661  0.1727
33021SOL    HW1 2468   5.658   5.210   3.856 -0.5220 -0.8691  0.0988
33021SOL    HW2 2469   5.727   5.135   3.744  0.8756 -0.0236  0.3907
33022SOL     OW 2470   8.698   0.600   7.633 -0.5825 -0.2191  0.3368
33022SOL    HW1 2471   8.771   0.600   7.571  0.6148  1.9831  1.6969
33022SOL    HW2 2472   8.696   0.511   7.668  1.5693 -0.2619  0.4050
33023SOL     OW 2473   7.745   6.652   4.828  0.6486  0.1333  0.5041
33023SOL    HW1 2474   7.759   6.561   4.854  0.4858  0.2592  1.0359
33023SOL    HW2 2475   7.667   6.650   4.773  0.1027  0.0820  1.2713
33024SOL     OW 2476   8.447   4.504   2.643  0.8850 -0.1474 -0.0725
33024SOL    HW1 2477   8.514   4.534   2.705  0.8444 -0.4984  0.1434
33024SOL    HW2 2478   8.365   4.539   2.677  1.0545  0.9288 -0.7612
33025SOL     OW 2479   8.213   6.325   3.927 -0.2568  0.2572 -0.4398
33025SOL    HW1 2480   8.148   6.394   3.939 -0.3663  0.1707 -0.5248
33025SOL    HW2 2481   8.297   6.371   3.926 -0.1684  0.1801  1.5233
33026SOL     OW 2482   9.614   5.481  10.143  0.0771  0.6176 -0.1096
33026SOL    HW1 2483   9.675   5.463  10.214 -0.3650  0.2568  0.1824
33026SOL    HW2 2484   9.563   5.401  10.134 -1.6249  1.5397  0.9360
33027SOL     OW 2485   4.953   6.321   3.398  0.0992  0.1299  0.5164
33027SOL    HW1 2486   4.858   6.314   3.406  0.1109 -0.6055  0.0027
33027SOL    HW2 2487   4.976   6.396   3.454 -1.0025  1.5119 -0.8362
33028SOL     OW 2488   6.767   2.321   4.513 -0.1871 -0.2167  0.0392
33028SOL    HW1 2489   6.805   2.285   4.593  0.3025 -0.9467 -0.5158
33028SOL    HW2 2490   6.674   2.296   4.517 -0.7350  2.0458  1.6612
33029SOL     OW 2491   1.673   9.272   5.696 -0.2248  0.1978  0.6612
33029SOL    HW1 2492   1.674   9.205   5.763  0.1937  0.8740  1.3377
33029SOL    HW2 2493   1.717   9.347   5.736  0.2039  0.5444 -0.4243
33030SOL     OW 2494   0.236   4.523   5.058  0.6352  0.8444  0.2604
33030SOL    HW1 2495   0.164   4.470   5.093 -0.1235  2.1909  0.7652
33030SOL    HW2 2496   0.289   4.546   5.135  0.6399  1.3031  0.1233
33031SOL     OW 2497   9.326   1.360   6.263 -0.4424 -0.4425  0.1499
33031SOL    HW1 2498   9.230   1.363   6.255 -0.3537  4.1452 -0.8265
33031SOL    HW2 2499   9.345   1.413   6.340  1.3366 -1.0227  0.1252
33032SOL     OW 2500  10.800   1.330   7.633 -0.2248  0.4363  0.0474
33032SOL    HW1 2501  10.880   1.370   7.668  0.6397 -0.6321 -0.6564
33032SOL    HW2 2502  10.810   1.237   7.653 -1.7612  0.4330  0.8204
33033SOL     OW 2503   7.703   8.511   5.913  0.3316  0.4678 -0.3688
33033SOL    HW1 2504   7.711   8.516   6.008 -2.0257 -0.5857 -0.0704
33033SOL    HW2 2505   7.777   8.457   5.886 -0.9042 -2.1597  1.2770
33034SOL     OW 2506   0.700   3.736   2.748 -0.4725  0.3840  0.0747
33034SOL    HW1 2507   0.697   3.696   2.835 -1.3987  0.8979  0.2887
33034SOL    HW2 2508   0.658   3.821   2.759  0.4087  0.9191 -0.6362
33035SOL     OW 2509   7.709   0.103   7.536 -0.5573 -0.2847  0.5031
33035SOL    HW1 2510   7.798   0.089   7.502 -1.5525 -1.3580 -1.7584
33035SOL    HW2 2511   7.692   0.195   7.519  0.0951 -0.0911  0.8665
33036SOL     OW 2512   5.866   3.556   6.362 -0.2474 -0.3848  0.0127
33036SOL    HW1 2513   5.845   3.516   6.447  1.7522 -0.8445  0.3193
33036SOL    HW2 2514   5.837   3.647   6.370 -0.8571 -0.6534  0.8850
33037SOL     OW 2515   8.389   8.989   9.070  0.0719  0.2213 -0.4636
33037SOL    HW1 2516   8.423   8.977   8.981  1.4342  0.3640  0.0146
33037SOL    HW2 2517   8.319   8.924   9.078  1.1814 -1.0978 -1.0248
33038SOL     OW 2518   1.049   8.660   4.687 -0.4702  0.4678 -0.1706
33038SOL    HW1 2519   1.110   8.586   4.690  1.4339  2.0457  1.0009
33038SOL    HW2 2520   1.001   8.654   4.770 -1.0373 -0.0439 -0.5332
33039SOL     OW 2521   9.333   8.749   9.457 -0.2347 -0.1105 -0.0310
33039SOL    HW1 2522   9.246   8.735   9.420 -0.8351 -0.6398  1.5344
33039SOL    HW2 2523   9.317   8.773   9.549  1.1985  1.4704 -0.1518
33040SOL     OW 2524   8.552   7.609   6.752  0.3812 -0.1887  0.6034
33040SOL    HW1 2525   8.480   7.629   6.813 -0.1644 -0.8800  0.1964
33040SOL    HW2 2526   8.607   7.687   6.754 -1.0035  0.8432  0.0426
33041SOL     OW 2527   2.553   9.634  10.355 -0.5112  0.8787  0.5735
33041SOL    HW1 2528   2.484   9.643  10.421 -0.3795  2.2253  0.5396
33041SOL    HW2 2529   2.564   9.723  10.320  1.1569  0.6591  0.4982
33042SOL     OW 2530   6.573   3.624   0.144  0.2558 -0.4597  0.0675
33042SOL    HW1 2531   6.665   3.647   0.152  0.0502  0.3774  0.1368
33042SOL    HW2 2532   6.538   3.634   0.233  0.1496 -0.9870  0.0835
33043SOL     OW 2533   2.310   4.126   7.914 -0.2731 -0.0416 -0.2001
33043SOL    HW1 2534   2.333   4.120   8.007  1.1600  1.8513 -0.4075
33043SOL    HW2 2535   2.286   4.036   7.890 -1.9900 -0.2903  2.3044
33044SOL     OW 2536   5.046   4.461   0.971 -0.0296 -1.0865  0.0525
33044SOL    HW1 2537   5.040   4.549   0.935  2.0432 -0.9479  0.0104
33044SOL    HW2 2538   4.983   4.410   0.920  0.0148 -0.0145 -1.0957
33045SOL     OW 2539   5.213   7.175   9.337  0.3260 -0.1360  0.4089
33045SOL    HW1 2540   5.149   7.105   9.327  0.8063 -0.4543 -0.4407
33045SOL    HW2 2541   5.283   7.136   9.391 -0.1856  0.2172  1.3504
33046SOL     OW 2542   5.941   6.849   8.057  0.4080 -0.3132 -0.1781
33046SOL    HW1 2543   5.885   6.847   7.980 -0.5489 -1.0668  0.5259
33046SOL    HW2 2544   5.919   6.770   8.106 -0.8705  1.3745  2.1389
33047SOL     OW 2545   2.800   6.628   6.592 -0.2530 -0.1920  0.0017
33047SOL    HW1 2546   2.799   6.611   6.498 -1.1462 -0.8551  0.1220
33047SOL    HW2 2547   2.733   6.695   6.604  0.9926  1.0771 -0.0428
33048SOL     OW 2548   1.504   9.411   3.495  0.0390  0.0464  0.1524
33048SOL    HW1 2549   1.438   9.438   3.558 -0.3403 -1.2520  0.3391
33048SOL    HW2 2550   1.457   9.408   3.411  0.1735  0.3644  0.0680
33049SOL     OW 2551   0.220   5.691   0.776  0.0437  0.1351 -0.6166
33049SOL    HW1 2552   0.284   5.639   0.727  0.1359 -0.5609  0.2373
33049SOL    HW2 2553   0.165   5.626   0.820 -1.2386  0.7206 -1.3165
33050SOL     OW 2554   8.418   9.817   1.834 -0.2526  0.3086  0.1897
33050SOL    HW1 2555   8.442   9.730   1.868  1.1570  0.7917  0.4736
33050SOL    HW2 2556   8.368   9.799   1.755  1.2650 -0.7649 -0.5543
33051SOL     OW 2557   4.169   2.356   4.208 -0.3196  0.0359 -0.5698
33051SOL    HW1 2558   4.248   2.386   4.254 -1.4161 -1.2947  2.2611
33051SOL    HW2 2559   4.126   2.437   4.180  0.8689  0.8368 -0.1224
33052SOL     OW 2560  10.050   3.572   9.351 -0.0262  0.0566 -0.6717
33052SOL    HW1 2561  10.028   3.495   9.403  0.7049  1.2795  1.5232
33052SOL    HW2 2562   9.991   3.640   9.383 -0.6382  0.4525 -2.5620
33053SOL     OW 2563   1.672   1.416   5.546 -0.0538 -0.4246  0.0403
33053SOL    HW1 2564   1.695   1.376   5.630  1.1593 -3.2190 -1.5403
33053SOL    HW2 2565   1.581   1.392   5.532 -0.2079 -0.0988  0.4500
33054SOL     OW 2566   9.910   1.302   8.734 -0.1772 -0.7918  0.4489
33054SOL    HW1 2567   9.854   1.327   8.660  0.0949 -2.2434 -0.2691
33054SOL    HW2 2568   9.994   1.279   8.694  0.5792  0.2228  1.4066
33055SOL     OW 2569   8.114   8.339   4.757  0.0108  0.0657  0.1915
33055SOL    HW1 2570   8.195   8.382   4.730  0.6696 -0.3022  1.5211
33055SOL    HW2 2571   8.144   8.257   4.798 -1.1124 -0.7297 -0.5422
33056SOL     OW 2572   7.712   3.037   2.332  0.2569 -0.1819 -0.4974
33056SOL    HW1 2573   7.792   3.028   2.383 -0.3805  0.3531  0.6418
33056SOL    HW2 2574   7.644   3.051   2.398 -0.9049 -1.5050 -1.4017
33057SOL     OW 2575   0.029   3.689   2.123  0.3353 -0.9227  0.3341
33057SOL    HW1 2576   0.011   3.633   2.048 -3.6902  0.7036 -0.0146
33057SOL    HW2 2577   0.071   3.766   2.085 -0.5680 -0.6390 -0.0910
33058SOL     OW 2578   8.678   6.921   1.027  0.1971  0.3549 -0.0394
33058SOL    HW1 2579   8.682   6.983   1.100 -0.1643  1.1494 -0.6902
33058SOL    HW2 2580   8.764   6.927   0.986 -0.3590  1.6168 -1.0635
33059SOL     OW 2581   0.308   5.304   5.938  0.1594 -0.8080 -0.3603
33059SOL    HW1 2582   0.240   5.360   5.977 -0.5876 -1.3513 -0.8754
33059SOL    HW2 2583   0.379   5.305   6.002  0.5820  1.5722 -0.8087
33060SOL     OW 2584   5.636   4.481   0.482 -0.1871 -0.1517 -0.0995
33060SOL    HW1 2585   5.543   4.479   0.460 -0.5450 -0.6607  1.3954
33060SOL    HW2 2586   5.648   4.561   0.532  0.0948 -0.2911  0.0608
33061SOL     OW 2587   2.963   0.826   4.015 -0.3503 -0.3194  0.6288
33061SOL    HW1 2588   2.909   0.811   3.937  0.6847 -0.2832 -0.1122
33061SOL    HW2 2589   3.006   0.910   3.999 -1.5889  0.6138  2.1056
33062SOL     OW 2590   9.875   7.045  10.320  0.0831 -0.0956  0.1739
33062SOL    HW1 2591   9.834   7.013  10.240 -0.1513  3.5450 -1.2612
33062SOL    HW2 2592   9.815   7.019  10.390 -0.5407 -1.8549 -0.9774
33063SOL     OW 2593   7.063   7.199   8.311 -0.1381  0.6014 -0.2431
33063SOL    HW1 2594   7.053   7.137   8.384 -1.0365  0.5050 -0.4421
33063SOL    HW2 2595   6.982   7.249   8.312 -0.1837  0.5440 -1.2383
33064SOL     OW 2596   6.714   1.387   6.116  0.0807  0.0118  0.0069
33064SOL    HW1 2597   6.758   1.420   6.037 -0.3706 -1.3646 -0.8310
33064SOL    HW2 2598   6.773   1.320   6.149 -0.3976 -0.3925  0.0444
33065SOL     OW 2599   1.334   4.846   4.201 -0.1464  0.0643  0.6664
33065SOL    HW1 2600   1.362   4.930   4.165  1.4046  0.0946  1.8901
33065SOL    HW2 2601   1.264   4.868   4.262 -0.8339  0.2981 -0.2010
33066SOL     OW 2602   9.701  10.305   5.595 -0.2290 -0.8042  0.7245
33066SOL    HW1 2603   9.675  10.333   5.508  0.5505 -0.7330  0.5053
33066SOL    HW2 2604   9.671  10.374   5.653 -1.3419 -1.1756  0.5903
33067SOL     OW 2605   0.706   7.023   6.333 -0.6140  0.3570 -0.0206
33067SOL    HW1 2606   0.773   6.970   6.376  0.8551  0.5414 -2.0040
33067SOL    HW2 2607   0.643   6.959   6.299 -0.9314  0.1327  0.9566
33068SOL     OW 2608   1.730   8.238   0.060 -0.7075 -0.5932  0.3145
33068SOL    HW1 2609   1.744   8.235   0.154 -0.6134 -0.0436  0.3213
33068SOL    HW2 2610   1.637   8.255   0.049 -1.2244 -3.2585  0.2780
33069SOL     OW 2611  10.000   5.511   9.478 -0.2404  0.4718 -0.1541
33069SOL    HW1 2612  10.063   5.492   9.409  0.4641  2.1324  0.0044
33069SOL    HW2 2613  10.046   5.490   9.559 -0.0255  1.3291 -0.0545
33070SOL     OW 2614   9.742   6.245   3.358  0.3482 -0.2477  0.0219
33070SOL    HW1 2615   9.806   6.308   3.327 -0.5429  1.4059  1.4444
33070SOL    HW2 2616   9.691   6.222   3.280  1.3585 -0.0325 -0.7098
33071SOL     OW 2617   7.018   6.895   6.430 -0.7374 -0.4359  0.1632
33071SOL    HW1 2618   6.977   6.901   6.516  0.0762 -0.5813  0.5658
33071SOL    HW2 2619   7.044   6.803   6.422  0.9855 -0.0043  0.6056
33072SOL     OW 2620   4.648   5.848   8.493  0.2086 -0.8764 -0.6909
33072SOL    HW1 2621   4.619   5.852   8.584 -0.3906 -1.0600 -0.8696
33072SOL    HW2 2622   4.739   5.819   8.497  1.3368  2.4865  0.0493
33073SOL     OW 2623   9.129   1.907   6.145 -0.1429 -0.6857  0.1269
33073SOL    HW1 2624   9.158   1.931   6.056 -0.0129  0.0899  0.3702
33073SOL    HW2 2625   9.034   1.902   6.138 -0.2017  0.2348  0.1333
33074SOL     OW 2626   1.999   6.182   7.975  0.5492  0.3846 -0.1184
33074SOL    HW1 2627   2.078   6.131   7.988  0.2776  0.7433  3.4508
33074SOL    HW2 2628   1.939   6.153   8.045 -0.9559  2.9274 -0.2691
33075SOL     OW 2629   8.120   5.996   7.435  0.3779  0.6316 -0.1295
33075SOL    HW1 2630   8.205   5.977   7.476  0.6938  0.0463 -1.0403
33075SOL    HW2 2631   8.078   5.910   7.427 -0.2604  0.9098  0.2253
33076SOL     OW 2632  10.837   3.924   5.683 -0.6402  0.0852 -0.1564
33076SOL    HW1 2633  10.882   3.872   5.617  0.2591 -0.3681  0.8046
33076SOL    HW2 2634  10.896   3.925   5.758 -2.5894 -1.2648  1.4515
33077SOL     OW 2635   0.410  10.976   8.521  0.3487  1.2981 -0.1287
33077SOL    HW1 2636   0.387  11.037   8.451 -1.0092  0.3742 -0.4982
33077SOL    HW2 2637   0.326  10.941   8.551  1.2444 -2.5534 -1.8577
33078SOL     OW 2638   9.103   9.701   2.992  0.0646  0.6486  0.0021
33078SOL    HW1 2639   9.080   9.793   2.978  0.1330  0.5071 -1.0782
33078SOL    HW2 2640   9.140   9.673   2.909 -1.5602 -0.8553 -0.2351
33079SOL     OW 2641   6.884  10.579  10.052  0.0071  0.0129  0.0871
33079SOL    HW1 2642   6.820  10.649  10.051 -0.0183 -0.0239 -1.3537
33079SOL    HW2 2643   6.880  10.544  10.141 -2.3316 -0.3304 -0.1356
33080SOL     OW 2644   7.904  10.557   4.899  0.2308  0.3423 -0.2440
33080SOL    HW1 2645   7.925  10.464   4.898 -1.2408 -0.0819  2.1730
33080SOL    HW2 2646   7.865  10.574   4.814  0.3956 -1.2882 -0.6710
33081SOL     OW 2647   4.216   6.037   2.643 -0.5720  0.3093  0.4574
33081SOL    HW1 2648   4.294   5.982   2.649 -1.1375 -0.6401 -0.7771
33081SOL    HW2 2649   4.247   6.125   2.666  0.5054 -0.3641  1.6290
33082SOL     OW 2650   5.257   2.527   8.807 -0.6946  0.1306 -0.9082
33082SOL    HW1 2651   5.284   2.611   8.845 -1.5917  0.8816 -1.8803
33082SOL    HW2 2652   5.231   2.474   8.881  1.9524 -0.0662 -0.0767
33083SOL     OW 2653   1.897   5.005   7.345  0.4230 -0.0756  0.4031
33083SOL    HW1 2654   1.876   5.066   7.274 -2.4539 -1.5997 -0.0981
33083SOL    HW2 2655   1.853   5.041   7.422  0.4929 -0.3803  0.5860
33084SOL     OW 2656   3.853   5.871   5.098 -0.2051  0.4740 -0.2289
33084SOL    HW1 2657   3.783   5.926   5.134 -1.9803 -1.5979 -0.4178
33084SOL    HW2 2658   3.911   5.854   5.172  0.2668  2.4207 -0.1290
33085SOL     OW 2659   0.799   5.621   5.810 -0.5789  0.0259  0.1182
33085SOL    HW1 2660   0.846   5.577   5.880 -1.1270  0.1476  0.5591
33085SOL    HW2 2661   0.708   5.623   5.839 -0.9281 -0.5389 -0.9015
33086SOL     OW 2662   3.024   8.064   2.206 -0.1904 -0.2886 -0.0826
33086SOL    HW1 2663   2.977   7.986   2.234  0.4000 -0.4044  0.5878
33086SOL    HW2 2664   3.107   8.031   2.172 -0.9043 -0.1647 -2.0493
33087SOL     OW 2665   9.194   6.191   9.141  0.2148 -0.1420  0.5390
33087SOL    HW1 2666   9.143   6.267   9.114 -0.7878  0.0159  2.7353
33087SOL    HW2 2667   9.285   6.213   9.119  0.1036  2.2279  2.1917
33088SOL     OW 2668   4.923   2.084  10.730  0.0327  0.0423  0.5354
33088SOL    HW1 2669   4.845   2.056  10.778 -0.9241 -0.9028 -1.5093
33088SOL    HW2 2670   4.905   2.176  10.707 -0.1872  0.0203  0.6186
33089SOL     OW 2671   2.471   7.703   4.157 -0.3351  0.2613  0.1713
33089SOL    HW1 2672   2.538   7.722   4.091 -0.4764  2.6574  0.6702
33089SOL    HW2 2673   2.433   7.789   4.177 -0.7359 -0.5283  2.9013
33090SOL     OW 2674   0.433   4.887   9.109 -0.3933  0.0413 -0.1112
33090SOL    HW1 2675   0.486   4.877   9.188 -0.1702 -2.5137 -0.5376
33090SOL    HW2 2676   0.497   4.889   9.038 -0.7327 -0.3809 -0.4307
33091SOL     OW 2677   7.337   1.834   7.141 -0.1913 -0.6923 -0.4876
33091SOL    HW1 2678   7.295   1.812   7.058 -1.0777  1.5435 -0.6572
33091SOL    HW2 2679   7.269   1.877   7.192  0.9813 -0.0157  0.5458
33092SOL     OW 2680   6.312   7.118   7.680 -0.0333 -0.5822  0.1866
33092SOL    HW1 2681   6.376   7.185   7.705  0.8335 -2.0402  1.9380
33092SOL    HW2 2682   6.230   7.166   7.668  0.8544  0.9626  0.2050
33093SOL     OW 2683   9.813   2.800   8.612  0.3901  0.0712 -0.1310
33093SOL    HW1 2684   9.765   2.717   8.609 -2.7605  1.7820  0.5970
33093SOL    HW2 2685   9.835   2.811   8.705 -0.4637  0.7392 -0.0085
33094SOL     OW 2686   9.270   3.615   3.168 -0.0568 -0.5835 -0.1412
33094SOL    HW1 2687   9.327   3.672   3.221  0.2528 -0.1862 -0.8955
33094SOL    HW2 2688   9.304   3.624   3.079 -2.1417  0.7320 -0.8271
33095SOL     OW 2689   7.235   9.600   1.009 -0.1915 -0.1432 -0.2397
33095SOL    HW1 2690   7.267   9.550   1.084 -1.7542  0.9289  1.1836
33095SOL    HW2 2691   7.253   9.691   1.033  0.0168  0.1572 -1.5367
33096SOL     OW 2692   6.868   3.829   7.294 -0.1181  0.1786 -0.2825
33096SOL    HW1 2693   6.795   3.873   7.249 -0.0601  0.6419  0.0621
33096SOL    HW2 2694   6.912   3.900   7.341 -0.4469 -0.3599  0.8517
33097SOL     OW 2695   6.027   5.409   2.416 -0.0855 -0.0008  0.1614
33097SOL    HW1 2696   5.983   5.332   2.454  0.9514  0.1561  1.7187
33097SOL    HW2 2697   6.094   5.371   2.359  0.5906 -0.2797  1.1185
33098SOL     OW 2698   5.177   8.017   5.339 -0.0334  0.5228  0.0419
33098SOL    HW1 2699   5.263   8.050   5.363  0.5793 -1.3972  0.5703
33098SOL    HW2 2700   5.142   8.082   5.278  2.1402  0.8888 -0.8482
33099SOL     OW 2701   1.241   6.592   2.455 -0.1391 -0.0861 -0.0547
33099SOL    HW1 2702   1.213   6.617   2.367 -1.7133  0.2815  0.5385
33099SOL    HW2 2703   1.273   6.502   2.444  2.2063  0.8657 -1.4908
33100SOL     OW 2704   4.627   8.552   5.733  0.4363  0.1602  0.0043
33100SOL    HW1 2705   4.665   8.612   5.668  0.5366 -1.3282 -1.3477
33100SOL    HW2 2706   4.597   8.477   5.681 -2.6628  0.4477  1.2812
33101SOL     OW 2707   4.812  10.733   9.278  0.6290  0.3721 -0.4356
33101SOL    HW1 2708   4.805  10.813   9.226  2.7613  0.3593 -0.7670
33101SOL    HW2 2709   4.804  10.662   9.215  0.7334  0.3376 -0.4107
33102SOL     OW 2710   3.864   6.749   3.283  0.1997  0.7607 -0.2469
33102SOL    HW1 2711   3.840   6.688   3.352  0.3465  0.8987 -0.0724
33102SOL    HW2 2712   3.825   6.713   3.204 -0.3175  0.8190 -0.0199
33103SOL     OW 2713   4.316   4.314   6.664  0.1758 -0.1083 -0.3111
33103SOL    HW1 2714   4.363   4.262   6.600  1.1933  0.1258  0.2411
33103SOL    HW2 2715   4.335   4.405   6.640  1.8038 -0.0202  1.2063
33104SOL     OW 2716   8.319   4.612   6.868  0.4607 -0.1117  0.2625
33104SOL    HW1 2717   8.245   4.550   6.866 -1.3965  2.0906 -0.6679
33104SOL    HW2 2718   8.361   4.594   6.952 -2.8046  0.4379  2.1312
33105SOL     OW 2719   5.896   5.784   7.030 -0.6558 -0.2797  0.7272
33105SOL    HW1 2720   5.952   5.721   6.985  0.1658 -0.0147  1.3617
33105SOL    HW2 2721   5.809   5.744   7.029 -0.6898 -0.1856 -1.2584
33106SOL     OW 2722   3.324   1.841   1.559 -0.0451 -0.4576  0.0852
33106SOL    HW1 2723   3.370   1.863   1.478 -0.4006  2.1483  0.5343
33106SOL    HW2 2724   3.242   1.801   1.531 -0.2525  0.6204 -0.8684
33107SOL     OW 2725   7.233  10.079   8.448 -0.2004  0.0968 -0.3462
33107SOL    HW1 2726   7.229  10.060   8.355 -2.1099  0.6088 -0.3983
33107SOL    HW2 2727   7.143  10.069   8.479  0.2463  0.7608  1.2671
33108SOL     OW 2728  10.281   7.761   3.208  0.3910  0.1391  1.0944
33108SOL    HW1 2729  10.199   7.805   3.232  0.0256 -0.3434  0.7314
33108SOL    HW2 2730  10.286   7.768   3.113  1.2578  1.0139  1.1986
33109SOL     OW 2731   2.760   8.900   4.684  0.5757  0.4405 -0.0970
33109SOL    HW1 2732   2.752   8.857   4.599  2.4856 -2.9177  1.2782
33109SOL    HW2 2733   2.795   8.987   4.664  0.8447 -0.2285 -2.7656
33110SOL     OW 2734   1.122   1.500   6.768 -0.1145 -0.2607  0.1667
33110SOL    HW1 2735   1.033   1.490   6.733  0.1818 -0.1458 -0.6396
33110SOL    HW2 2736   1.168   1.422   6.736  0.4208  0.3331 -0.5206
33111SOL     OW 2737   5.063   0.078   8.277  0.3023  0.2324 -0.0402
33111SOL    HW1 2738   5.004   0.115   8.343  2.2576 -0.3935  2.1250
33111SOL    HW2 2739   5.096  -0.002   8.316  3.0493  0.8651 -0.9199
33112SOL     OW 2740   3.669   3.923  10.334 -0.4992 -1.0006  0.6370
33112SOL    HW1 2741   3.640   3.832  10.338  1.1882 -1.4792  2.3281
33112SOL    HW2 2742   3.759   3.918  10.303 -0.4271  0.1120  0.6445
33113SOL     OW 2743   5.080   9.835   5.601  0.4082 -0.3181 -0.5127
33113SOL    HW1 2744   4.986   9.852   5.594  0.6168  1.3233  0.5072
33113SOL    HW2 2745   5.109   9.886   5.676  2.0716 -1.0698 -0.6099
33114SOL     OW 2746   0.113   3.980  10.390 -0.1471 -0.3046 -0.2944
33114SOL    HW1 2747   0.077   4.019  10.311 -1.2486  1.6955  1.1488
33114SOL    HW2 2748   0.052   3.910  10.413 -0.3773 -0.2104 -0.6135
33115SOL     OW 2749   0.885   5.390   9.281  0.1596  0.1597 -0.1446
33115SOL    HW1 2750   0.970   5.356   9.309  0.4061  1.1644  0.3744
33115SOL    HW2 2751   0.824   5.316   9.292  0.8327 -0.3515  0.1643
33116SOL     OW 2752   3.559   5.962   4.047 -0.1761  0.6426  0.2591
33116SOL    HW1 2753   3.476   6.007   4.029 -1.1062 -1.2141 -0.1938
33116SOL    HW2 2754   3.534   5.887   4.102  1.1422 -0.2071 -0.2725
33117SOL     OW 2755   5.939  10.189   2.230 -0.3759  0.2447  0.5309
33117SOL    HW1 2756   5.929  10.226   2.317  2.1637  1.3302  0.3740
33117SOL    HW2 2757   5.934  10.094   2.243  2.5322  0.2842  2.2289
33118SOL     OW 2758  10.764   1.672   7.016 -0.5280  0.7174  0.2523
33118SOL    HW1 2759  10.839   1.619   7.041 -1.4195 -0.9100 -0.4853
33118SOL    HW2 2760  10.792   1.762   7.034  1.2646  0.0729  0.8160
33119SOL     OW 2761   6.023   7.724  10.519  0.6185 -0.2020 -0.2494
33119SOL    HW1 2762   6.087   7.688  10.580  0.4612  0.8053  0.5139
33119SOL    HW2 2763   5.945   7.739  10.572  1.4431  3.5636  0.0172
33120SOL     OW 2764   7.596   7.750   9.891  0.0295  0.3687  0.3468
33120SOL    HW1 2765   7.669   7.725   9.834 -0.8994 -0.2462 -0.5956
33120SOL    HW2 2766   7.619   7.837   9.923  0.1508  1.1161 -1.6913
33121SOL     OW 2767   6.025   2.326   0.272 -0.2917 -0.0211  0.3392
33121SOL    HW1 2768   6.108   2.282   0.256  0.4360  1.4239 -0.0229
33121SOL    HW2 2769   5.992   2.348   0.185 -1.2186 -0.8788  0.4669
33122SOL     OW 2770   3.389   3.748   8.272 -0.2084 -0.0180 -0.0889
33122SOL    HW1 2771   3.373   3.677   8.209  0.4814 -0.9118  0.7384
33122SOL    HW2 2772   3.324   3.815   8.249 -1.7270 -1.4378 -0.0631
33123SOL     OW 2773   0.485   9.898   1.412  0.0015 -0.1109  0.2670
33123SOL    HW1 2774   0.420   9.946   1.463 -1.4365 -0.5904 -1.0470
33123SOL    HW2 2775   0.506   9.956   1.339 -0.4037 -0.7399 -0.3586
33124SOL     OW 2776  10.380   5.204   1.763  0.6573  0.4088 -0.7786
33124SOL    HW1 2777  10.314   5.168   1.822  0.5998  3.2222  1.0217
33124SOL    HW2 2778  10.463   5.191   1.809  0.6710  2.1103 -0.2572
33125SOL     OW 2779   9.055   1.047   7.144  0.3094 -0.4437  0.0889
33125SOL    HW1 2780   9.028   1.126   7.098 -0.8712 -0.4993  0.6863
33125SOL    HW2 2781   9.025   1.059   7.234  2.0585 -0.6076  0.7249
33126SOL     OW 2782   9.917   6.184   5.276  0.3715  0.6399  0.0267
33126SOL    HW1 2783   9.822   6.194   5.266  0.4680 -0.0078 -1.7915
33126SOL    HW2 2784   9.937   6.226   5.359 -1.4461  1.2215  0.1961
33127SOL     OW 2785   5.329   9.184   7.512  0.5040  0.1311 -0.0944
33127SOL    HW1 2786   5.408   9.130   7.512  0.3149 -0.1525 -1.4202
33127SOL    HW2 2787   5.283   9.157   7.591  0.4606 -1.5864 -0.6774
33128SOL     OW 2788   0.374   3.789   1.074 -0.2721  0.6880  0.0449
33128SOL    HW1 2789   0.417   3.723   1.128  1.7471  1.8359 -0.0996
33128SOL    HW2 2790   0.386   3.757   0.984  0.1952  0.9365  0.0145
33129SOL     OW 2791  10.528   3.258   3.750  0.1042 -0.5230 -0.2262
33129SOL    HW1 2792  10.476   3.197   3.803  0.5407  0.0412  0.8586
33129SOL    HW2 2793  10.508   3.233   3.660 -2.0178 -0.3603  0.1746
33130SOL     OW 2794   1.222   6.813   6.535 -0.1785  0.0690 -0.5280
33130SOL    HW1 2795   1.222   6.875   6.463 -0.0925  0.3472 -0.2901
33130SOL    HW2 2796   1.198   6.730   6.495 -1.7018  0.5331 -0.6246
33131SOL     OW 2797   6.036   3.061   6.436  0.3521 -0.2210 -0.2727
33131SOL    HW1 2798   6.127   3.036   6.454 -0.1978 -3.1187 -1.2578
33131SOL    HW2 2799   5.985   3.014   6.503 -0.2941  3.3535  1.8709
33132SOL     OW 2800   6.779  10.684   1.252  0.4148  0.0081  0.2951
33132SOL    HW1 2801   6.784  10.624   1.326 -1.4263 -0.4069  0.0970
33132SOL    HW2 2802   6.861  10.733   1.255  0.0249  0.5382  3.0884
33133SOL     OW 2803   5.035   4.240   9.735 -0.2139 -0.6866  0.4628
33133SOL    HW1 2804   4.970   4.311   9.733  0.9055  0.3388 -0.5622
33133SOL    HW2 2805   5.083   4.250   9.653 -0.7678 -3.3617 -0.2119
33134SOL     OW 2806   3.578   3.429   9.493  0.2150  0.1623  0.0002
33134SOL    HW1 2807   3.525   3.451   9.416  1.2225 -0.3118 -0.8311
33134SOL    HW2 2808   3.513   3.406   9.560 -0.6017 -3.5427 -1.9483
33135SOL     OW 2809  10.509   7.794   7.993 -0.2233  0.4267 -0.1379
33135SOL    HW1 2810  10.444   7.765   7.929  0.2695  0.3177 -0.5892
33135SOL    HW2 2811  10.591   7.800   7.943  0.2038  0.1330  0.5204
33136SOL     OW 2812   3.808   3.438   2.573 -0.2136  0.0422  0.6322
33136SOL    HW1 2813   3.885   3.456   2.519 -1.1801 -0.6497 -1.0134
33136SOL    HW2 2814   3.736   3.428   2.510 -1.6285  0.5575  2.1320
33137SOL     OW 2815   1.961   9.814   6.298  0.5355  0.0249  0.5963
33137SOL    HW1 2816   1.920   9.791   6.381  1.4786 -0.6708  0.8853
33137SOL    HW2 2817   1.934   9.745   6.238  0.3438  0.1924  0.4914
33138SOL     OW 2818   2.866   7.831  10.884  0.1151 -0.4393 -0.3246
33138SOL    HW1 2819   2.857   7.923  10.907 -0.3958 -0.2838 -1.1394
33138SOL    HW2 2820   2.855   7.828  10.789  0.1247 -1.3409 -0.3078
33139SOL     OW 2821   9.622   1.707  10.968 -0.0389 -0.2737  0.2759
33139SOL    HW1 2822   9.538   1.724  10.926 -0.7062 -1.6269  1.0527
33139SOL    HW2 2823   9.608   1.730  11.060  0.6440  0.1152  0.2913
33140SOL     OW 2824   4.294   8.658   5.693 -0.4556  0.1854  0.4733
33140SOL    HW1 2825   4.343   8.729   5.651 -0.5200 -0.1740 -0.1990
33140SOL    HW2 2826   4.332   8.653   5.781 -0.1418  0.7520  0.3761
33141SOL     OW 2827  10.174   5.488   0.784 -0.4240  0.0366 -0.5818
33141SOL    HW1 2828  10.217   5.403   0.778  0.3436  0.2411  1.5334
33141SOL    HW2 2829  10.091   5.469   0.829 -1.7770 -0.0768 -3.0376
33142SOL     OW 2830   9.546   1.708   8.233 -0.4063 -0.3105  0.1920
33142SOL    HW1 2831   9.605   1.665   8.170 -1.2910  0.4969 -1.2078
33142SOL    HW2 2832   9.473   1.646   8.243 -0.4433 -0.2736  0.1529
33143SOL     OW 2833   3.750   9.588   5.225 -0.7811 -1.1039 -0.0606
33143SOL    HW1 2834   3.687   9.535   5.177 -0.7447 -1.4625  0.2863
33143SOL    HW2 2835   3.711   9.676   5.227 -0.0412 -0.6974 -2.1335
33144SOL     OW 2836   5.915   8.703   0.993  0.0870 -0.4670 -0.0460
33144SOL    HW1 2837   5.821   8.707   0.978  0.2025  0.2692 -0.6143
33144SOL    HW2 2838   5.929   8.758   1.071  0.1312 -0.0292 -0.3644
33145SOL     OW 2839   2.614   2.450   6.539  0.1203  0.2692  0.4871
33145SOL    HW1 2840   2.705   2.477   6.551 -0.6245  2.2791  1.8288
33145SOL    HW2 2841   2.585   2.423   6.626 -0.3551 -1.1199 -0.0811
33146SOL     OW 2842   5.573   4.317   5.039 -0.0105  0.2320 -0.1722
33146SOL    HW1 2843   5.562   4.385   4.972  4.5017  1.0689 -0.2333
33146SOL    HW2 2844   5.500   4.330   5.099 -1.3848  2.6778 -2.2601
33147SOL     OW 2845   6.035   0.216   9.202  0.4462 -0.1343 -0.1573
33147SOL    HW1 2846   6.017   0.241   9.293 -0.0822  1.2419 -0.6257
33147SOL    HW2 2847   6.094   0.141   9.209  1.0250  0.4453  1.3182
33148SOL     OW 2848   5.322   4.095   0.288  0.3433  0.7479  0.3229
33148SOL    HW1 2849   5.293   4.178   0.324 -1.7236  0.7207 -1.1931
33148SOL    HW2 2850   5.332   4.112   0.194 -2.5610 -1.3261 -0.4363
33149SOL     OW 2851   2.793  10.340   2.930  0.4445 -0.2280 -0.1776
33149SOL    HW1 2852   2.713  10.391   2.940  0.7485 -0.3464  3.4527
33149SOL    HW2 2853   2.763  10.256   2.893 -0.8566  0.3417 -0.4477
33150SOL     OW 2854   9.634   0.207   0.343 -0.1303  0.1742 -1.0617
33150SOL    HW1 2855   9.605   0.117   0.336  0.2904  0.0666 -1.4860
33150SOL    HW2 2856   9.725   0.201   0.370 -0.6560  0.5216  0.8288
33151SOL     OW 2857   1.184  10.137   2.620  0.1083  0.1810 -0.3271
33151SOL    HW1 2858   1.183  10.112   2.712 -1.2580 -1.8489 -0.8756
33151SOL    HW2 2859   1.276  10.155   2.601  0.6833 -1.3652  0.9145
33152SOL     OW 2860   0.904   8.213  10.224 -0.9652  0.0557 -0.2132
33152SOL    HW1 2861   0.856   8.295  10.209 -0.2090  0.3096 -1.2740
33152SOL    HW2 2862   0.993   8.231  10.193 -0.4458 -0.7490  0.7756
33153SOL     OW 2863   1.184   1.215   2.602 -0.3714  0.0678 -0.5224
33153SOL    HW1 2864   1.176   1.138   2.545  0.1232 -1.0571  0.8975
33153SOL    HW2 2865   1.272   1.207   2.640 -1.1622  0.1287  1.3497
33154SOL     OW 2866   5.786   7.865   2.069  0.2470  0.4406 -0.0628
33154SOL    HW1 2867   5.877   7.836   2.065  1.1457  3.1046 -0.2576
33154SOL    HW2 2868   5.738   7.790   2.103  2.5774 -0.8781  0.4141
33155SOL     OW 2869   0.408   7.892   1.157  0.0653 -0.2608 -0.0337
33155SOL    HW1 2870   0.315   7.914   1.164  0.5970  1.7580  0.7867
33155SOL    HW2 2871   0.416   7.848   1.071 -1.1213  2.2001 -1.4404
33156SOL     OW 2872   2.432   5.667   5.837 -0.4486 -0.2602  0.1914
33156SOL    HW1 2873   2.511   5.625   5.872  0.4682 -1.7265 -3.4821
33156SOL    HW2 2874   2.450   5.760   5.844  0.9924 -0.5644  0.7509
33157SOL     OW 2875   6.993  10.614   2.638  0.4448 -0.1771 -0.7088
33157SOL    HW1 2876   6.956  10.632   2.725  0.7970  0.5288 -0.7085
33157SOL    HW2 2877   6.917  10.608   2.580  0.1473 -1.4392 -0.2167
33158SOL     OW 2878   9.484   6.708   3.436 -0.5161 -0.3043  0.6243
33158SOL    HW1 2879   9.477   6.622   3.394 -1.1601  0.1932 -0.3126
33158SOL    HW2 2880   9.578   6.723   3.444 -0.3542  0.1205 -1.7772
33159SOL     OW 2881   1.431   5.729   7.112  0.0966 -0.3701 -0.1908
33159SOL    HW1 2882   1.504   5.753   7.055 -1.1481  1.2164 -1.1475
33159SOL    HW2 2883   1.356   5.776   7.076 -1.0816 -0.7552  1.7086
33160SOL     OW 2884   5.626   4.007   9.452 -0.8587  0.5461  0.1628
33160SOL    HW1 2885   5.604   3.960   9.533  0.8238  3.3477  2.3411
33160SOL    HW2 2886   5.559   4.075   9.444  1.0000  2.5685  1.2320
33161SOL     OW 2887   4.730  10.479   3.672 -0.0512 -0.0413  0.4271
33161SOL    HW1 2888   4.709  10.520   3.757  1.1373 -0.1289  0.7626
33161SOL    HW2 2889   4.804  10.529   3.638 -0.5730  0.0417 -0.6049
33162SOL     OW 2890   1.378  10.557   3.524 -0.6424  0.6599 -0.2313
33162SOL    HW1 2891   1.331  10.577   3.442 -2.0644 -1.0918  0.1148
33162SOL    HW2 2892   1.382  10.461   3.526 -1.3525  0.6429  2.1364
33163SOL     OW 2893   9.665   7.184   5.307 -0.0462  0.4746  0.2063
33163SOL    HW1 2894   9.720   7.256   5.275  0.6761 -0.2427 -0.1563
33163SOL    HW2 2895   9.662   7.122   5.235 -0.3548 -0.0547  0.6703
33164SOL     OW 2896  10.304   4.259   1.584 -0.4226  0.6712 -0.2128
33164SOL    HW1 2897  10.226   4.212   1.553 -0.2155 -0.1422  0.4979
33164SOL    HW2 2898  10.309   4.335   1.526 -0.6944 -0.2337 -1.4629
33165SOL     OW 2899   9.302   4.932   6.274  0.5124 -0.8617 -0.1166
33165SOL    HW1 2900   9.278   4.854   6.223 -0.1670 -0.3982 -0.5120
33165SOL    HW2 2901   9.299   4.902   6.365 -0.9641 -1.0027 -0.1867
33166SOL     OW 2902   2.328   0.877   8.574 -0.0844  0.5576 -0.3811
33166SOL    HW1 2903   2.301   0.963   8.606 -3.1521 -0.6698  0.4841
33166SOL    HW2 2904   2.341   0.825   8.654  1.5529  0.1107 -0.9004
33167SOL     OW 2905   8.900   0.735   7.070 -0.4274 -0.7579 -0.0022
33167SOL    HW1 2906   8.971   0.716   7.132 -0.9312 -2.2955  0.1283
33167SOL    HW2 2907   8.945   0.748   6.986  0.2574  1.3902  0.6727
33168SOL     OW 2908   3.868   1.473   9.476 -0.1341 -0.4793  0.8273
33168SOL    HW1 2909   3.776   1.462   9.500  0.1540 -1.7169  1.4291
33168SOL    HW2 2910   3.901   1.384   9.467  1.1326 -0.0470  1.0889
33169SOL     OW 2911   1.859   4.163   5.705 -0.1920 -0.6667  0.6164
33169SOL    HW1 2912   1.923   4.201   5.644  0.4815  1.8909  2.7985
33169SOL    HW2 2913   1.782   4.145   5.651  0.6872  0.6991 -1.1590
33170SOL     OW 2914  10.902   2.640   6.236  0.2556 -0.5649 -0.4895
33170SOL    HW1 2915  10.988   2.604   6.258  0.2149 -1.4455 -1.7324
33170SOL    HW2 2916  10.919   2.733   6.219  0.7746 -0.5002  0.3313
33171SOL     OW 2917   7.246   4.371   1.009  0.0440 -0.3967  0.3099
33171SOL    HW1 2918   7.246   4.338   0.919  0.3491  0.1927  0.0915
33171SOL    HW2 2919   7.197   4.453   1.004 -0.3287 -0.5853  0.7702
33172SOL     OW 2920   5.694   0.673   9.377  0.5600  0.1491 -0.1555
33172SOL    HW1 2921   5.618   0.665   9.434  0.7558  1.9049  0.3621
33172SOL    HW2 2922   5.688   0.597   9.319 -0.6777 -0.6146  0.9488
33173SOL     OW 2923  10.745   5.084   5.448 -0.0571  0.0262  0.0948
33173SOL    HW1 2924  10.653   5.078   5.474 -0.7909  1.9755 -1.9099
33173SOL    HW2 2925  10.788   5.016   5.499 -2.4022 -0.1490  1.9682
33174SOL     OW 2926   2.145   8.749   6.771 -0.6120  0.2085  0.0239
33174SOL    HW1 2927   2.121   8.771   6.862 -0.3006  2.0091 -0.3094
33174SOL    HW2 2928   2.179   8.660   6.776 -0.9227  0.1665  1.6294
33175SOL     OW 2929   6.508   1.141   4.097  0.1254  0.0662 -0.4221
33175SOL    HW1 2930   6.550   1.076   4.041  0.1478  0.6568 -1.1065
33175SOL    HW2 2931   6.421   1.153   4.059 -0.2791 -0.3702  0.3539
33176SOL     OW 2932   0.931   6.498   8.982  0.0801 -0.5620  0.3517
33176SOL    HW1 2933   0.857   6.460   9.030 -0.6567  0.9938  0.4832
33176SOL    HW2 2934   0.893   6.572   8.935  1.5703  0.2643  0.4223
33177SOL     OW 2935   5.103   5.426   4.626  0.0417 -0.0110  0.6064
33177SOL    HW1 2936   5.150   5.359   4.675  0.9512 -0.5476 -0.9539
33177SOL    HW2 2937   5.079   5.492   4.692 -0.4006 -1.5921  2.0663
33178SOL     OW 2938   7.685   1.433   6.038 -0.5570 -0.0768 -0.1378
33178SOL    HW1 2939   7.738   1.408   6.114  1.5126 -1.7234 -2.0473
33178SOL    HW2 2940   7.641   1.353   6.011 -0.2555  0.1806 -1.4449
33179SOL     OW 2941   7.874   5.092   2.953  0.5808 -0.2106  0.7713
33179SOL    HW1 2942   7.944   5.156   2.970  0.2363  0.9253 -1.9206
33179SOL    HW2 2943   7.794   5.145   2.948 -0.2220 -1.2843  1.9623
33180SOL     OW 2944   6.020   6.669   3.691  0.2650 -0.7248 -0.4208
33180SOL    HW1 2945   6.001   6.695   3.601 -1.6248 -0.9313 -0.1129
33180SOL    HW2 2946   6.101   6.715   3.713  2.2094 -2.7708 -3.1013
33181SOL     OW 2947   6.592   0.287   4.441 -0.4585 -0.0327 -0.3368
33181SOL    HW1 2948   6.669   0.300   4.496  0.0485  1.0405 -1.2541
33181SOL    HW2 2949   6.521   0.265   4.502  0.3772 -0.1456  0.6020
33182SOL     OW 2950   7.106   6.648   2.075 -0.3948 -0.2090 -0.3318
33182SOL    HW1 2951   7.105   6.740   2.047 -0.5488 -0.7048 -1.9660
33182SOL    HW2 2952   7.162   6.604   2.011  1.8395 -0.7964  1.9525
33183SOL     OW 2953  10.954   1.739   1.927 -0.3586  0.1676 -0.2313
33183SOL    HW1 2954  11.035   1.690   1.928  0.2330  1.0053 -2.9872
33183SOL    HW2 2955  10.929   1.746   2.019  1.1347 -2.5862  0.4401
33184SOL     OW 2956   4.775   4.543   7.652 -0.1876 -0.1136  0.2556
33184SOL    HW1 2957   4.781   4.448   7.638 -1.5243 -0.5968  2.6447
33184SOL    HW2 2958   4.704   4.553   7.716  1.7215  2.2727  2.0783
33185SOL     OW 2959   7.672   9.427   1.444  0.2042  0.1085 -0.5058
33185SOL    HW1 2960   7.696   9.366   1.374  0.6436  0.1754 -0.4156
33185SOL    HW2 2961   7.750   9.431   1.500  0.3801  1.1774 -0.8143
33186SOL     OW 2962   6.402   4.615   0.754  0.1352 -0.4497  0.4645
33186SOL    HW1 2963   6.320   4.665   0.757  0.9193  1.0142 -1.4803
33186SOL    HW2 2964   6.443   4.633   0.839 -0.1046  1.3826  0.2197
33187SOL     OW 2965   4.583   1.839   4.188  1.0769 -0.3470 -0.0165
33187SOL    HW1 2966   4.613   1.919   4.231  0.1086  0.8570 -1.5188
33187SOL    HW2 2967   4.606   1.852   4.095  1.1427 -1.9271 -0.2266
33188SOL     OW 2968   5.059   4.041   8.436 -0.3312  0.3272  0.3767
33188SOL    HW1 2969   5.073   4.038   8.531 -1.4454 -2.7782  0.4977
33188SOL    HW2 2970   5.141   4.011   8.398 -0.0262  1.1715  0.3552
33189SOL     OW 2971  10.424   9.396   9.921 -0.0835  0.1925  0.1441
33189SOL    HW1 2972  10.491   9.388   9.853 -0.2646 -2.8039  0.2641
33189SOL    HW2 2973  10.443   9.325   9.982 -2.4309  0.2332  0.9910
33190SOL     OW 2974   1.613   9.695   2.523 -0.3681  0.0198  0.3295
33190SOL    HW1 2975   1.626   9.787   2.548  0.9534 -0.4231  1.3844
33190SOL    HW2 2976   1.673   9.646   2.581  0.1808 -1.3566 -1.3543
33191SOL     OW 2977   6.331   2.443   5.280  0.1148 -0.1359  0.4014
33191SOL    HW1 2978   6.390   2.465   5.353  0.7335  0.3639 -0.2414
33191SOL    HW2 2979   6.338   2.347   5.272  1.2052 -0.0418  0.0432
33192SOL     OW 2980   3.076   6.980   0.504  0.1258 -0.1547  0.0023
33192SOL    HW1 2981   3.052   6.925   0.429  1.5919  1.4806 -1.6992
33192SOL    HW2 2982   2.992   7.013   0.537 -0.3997  1.0041 -2.4059
33193SOL     OW 2983   0.934   2.237   0.556 -0.0789  0.7489 -0.1602
33193SOL    HW1 2984   0.872   2.179   0.511  2.9964 -2.2727 -0.7541
33193SOL    HW2 2985   0.949   2.194   0.641  1.2197  1.3966 -0.0537
33194SOL     OW 2986   1.351   2.026   9.788 -0.0972 -0.5342 -0.6025
33194SOL    HW1 2987   1.416   1.957   9.794  1.0846  0.4442 -1.8956
33194SOL    HW2 2988   1.287   1.994   9.725 -0.6654 -1.3203  0.3600
33195SOL     OW 2989   2.813   3.480   8.875  0.1492  0.2452  0.4592
33195SOL    HW1 2990   2.821   3.554   8.814 -1.8339 -0.6947 -0.9938
33195SOL    HW2 2991   2.722   3.483   8.905  0.5626 -0.5101  1.8363
33196SOL     OW 2992   1.284   6.389   1.516 -0.5784 -0.0117 -0.3982
33196SOL    HW1 2993   1.359   6.329   1.515 -1.3720 -1.0468  0.3976
33196SOL    HW2 2994   1.311   6.461   1.572 -0.4491 -0.7525  0.5062
33197SOL     OW 2995   5.096   9.121   3.968  0.8300 -0.1291 -0.6103
33197SOL    HW1 2996   5.067   9.047   4.021 -2.1049  0.6913 -0.9771
33197SOL    HW2 2997   5.095   9.088   3.878 -0.5156  0.3442 -0.7776
33198SOL     OW 2998   7.424   6.129   5.620 -0.2744  0.2432  0.0832
33198SOL    HW1 2999   7.469   6.160   5.542 -3.7701 -0.9545 -2.5297
33198SOL    HW2 3000   7.466   6.045   5.641  0.4347  0.3976 -0.7072
33199SOL     OW 3001   0.130   2.559   3.285  0.3872 -0.0373 -0.2932
33199SOL    HW1 3002   0.069   2.504   3.335  0.0074 -1.5212 -2.3413
33199SOL    HW2 3003   0.081   2.586   3.208  2.1529 -0.9177 -1.7788
33200SOL     OW 3004   5.825   4.180   5.058 -0.0303  0.3807 -0.3307
33200SOL    HW1 3005   5.793   4.119   5.125  0.7575  0.9900  0.6142
33200SOL    HW2 3006   5.751   4.240   5.044 -0.3806 -0.0576 -0.3980
33201SOL     OW 3007   0.465   2.501   3.614 -0.4204 -0.0572 -0.1539
33201SOL    HW1 3008   0.416   2.431   3.571 -0.0470 -0.4557  0.0707
33201SOL    HW2 3009   0.434   2.581   3.571  2.0528 -0.6517 -3.1907
33202SOL     OW 3010   1.401  10.272   3.182  0.2942 -0.1436 -0.3131
33202SOL    HW1 3011   1.467  10.227   3.234  0.7782  0.0289 -0.7768
33202SOL    HW2 3012   1.400  10.226   3.098 -1.4278 -1.2565  0.3052
33203SOL     OW 3013   7.688   8.720   2.783  0.9557  0.1549 -0.3566
33203SOL    HW1 3014   7.643   8.798   2.815 -0.1581 -1.1660  1.3692
33203SOL    HW2 3015   7.662   8.713   2.691 -1.1637  0.2662  0.2062
33204SOL     OW 3016   4.949   1.548   5.890  0.2836  0.0706 -0.1586
33204SOL    HW1 3017   5.027   1.548   5.946  0.2796  1.6997 -0.1192
33204SOL    HW2 3018   4.946   1.637   5.854 -0.8522 -0.3615 -1.1596
33205SOL     OW 3019  10.551   0.722   1.550 -0.5333 -0.3708 -0.2023
33205SOL    HW1 3020  10.541   0.635   1.590 -1.7821 -0.0549  0.1711
33205SOL    HW2 3021  10.516   0.711   1.461 -0.1264 -0.4048 -0.3595
33206SOL     OW 3022   7.576   9.351   5.516  0.7239  0.0441  0.1862
33206SOL    HW1 3023   7.612   9.272   5.477  0.6283 -0.1568  0.5031
33206SOL    HW2 3024   7.615   9.356   5.603 -1.1817 -1.0389  1.1533
33207SOL     OW 3025   6.367   0.605   3.405 -0.3017 -0.4915 -0.1134
33207SOL    HW1 3026   6.307   0.636   3.337  0.0074 -1.0522 -0.6447
33207SOL    HW2 3027   6.321   0.620   3.487  0.1463  2.0985 -0.3004
33208SOL     OW 3028   8.051   4.994  10.446  0.3232 -0.2764  0.3945
33208SOL    HW1 3029   7.975   4.953  10.487 -1.3635  2.2877 -0.0625
33208SOL    HW2 3030   8.055   5.081  10.486  4.2804 -1.0518  1.9228
33209SOL     OW 3031   5.565   1.388   9.032 -0.8809  0.2258  0.0803
33209SOL    HW1 3032   5.566   1.482   9.013  0.5092 -0.0485 -1.2906
33209SOL    HW2 3033   5.645   1.355   8.991 -1.6571 -1.6568  0.0636
33210SOL     OW 3034   1.066   6.692   5.849 -0.0170 -0.3142 -0.8213
33210SOL    HW1 3035   1.059   6.652   5.762 -1.4317 -3.0026  0.4543
33210SOL    HW2 3036   0.987   6.662   5.895  0.3282  1.7055  1.1399
33211SOL     OW 3037   0.820   1.431   8.988 -0.2367 -0.7747  0.4119
33211SOL    HW1 3038   0.795   1.367   8.921 -0.9391 -1.2746  1.1381
33211SOL    HW2 3039   0.788   1.394   9.070 -1.1308  0.7590  0.7874
33212SOL     OW 3040   3.331   1.296   5.475  0.1571 -0.2190 -0.1821
33212SOL    HW1 3041   3.300   1.207   5.493 -0.3887 -0.4412 -2.0349
33212SOL    HW2 3042   3.345   1.297   5.380 -0.2656  1.8058 -0.2506
33213SOL     OW 3043   0.270   1.898   3.295 -0.2759  0.5293  0.2069
33213SOL    HW1 3044   0.347   1.847   3.321 -1.0892 -0.6250  0.3971
33213SOL    HW2 3045   0.297   1.946   3.216  0.3257 -0.6396 -0.2986
33214SOL     OW 3046   9.632   3.560   5.639  0.0766 -0.2394 -0.0651
33214SOL    HW1 3047   9.660   3.477   5.677  0.9251 -1.3670 -3.0426
33214SOL    HW2 3048   9.588   3.536   5.558 -0.9417  2.1505 -0.2621
33215SOL     OW 3049   2.367   6.556   8.793 -0.4139  0.1009  0.4774
33215SOL    HW1 3050   2.405   6.529   8.710  0.1220  1.3052  0.3164
33215SOL    HW2 3051   2.300   6.620   8.769  0.7126  1.5306  1.0323
33216SOL     OW 3052   6.786   6.113  10.156  0.4425  0.1820  0.3481
33216SOL    HW1 3053   6.776   6.189  10.098 -1.7088 -0.6731 -0.4423
33216SOL    HW2 3054   6.865   6.069  10.125  0.9399  1.3294 -0.0513
33217SOL     OW 3055   4.179   5.678   5.043 -0.0929 -0.1969 -0.4657
33217SOL    HW1 3056   4.125   5.729   5.103 -1.0907 -0.7356 -0.9046
33217SOL    HW2 3057   4.168   5.720   4.958  2.8437  1.7618  0.0332
33218SOL     OW 3058   9.165   5.909  10.048  0.6194 -0.0585  0.3978
33218SOL    HW1 3059   9.111   5.858  10.108 -0.7027  0.2404 -0.5326
33218SOL    HW2 3060   9.143   6.001  10.068  1.0068  0.0757  0.2151
33219SOL     OW 3061   6.487   7.842   1.775 -0.2843 -0.2604  0.5295
33219SOL    HW1 3062   6.493   7.915   1.714  1.7772 -0.6073  0.2735
33219SOL    HW2 3063   6.430   7.779   1.732 -1.8346  1.0391  0.6179
33220SOL     OW 3064   7.114   7.871   5.157 -0.5372 -0.0558 -0.4650
33220SOL    HW1 3065   7.198   7.917   5.147 -0.9090  0.4775 -1.1778
33220SOL    HW2 3066   7.061   7.929   5.212  0.7114 -1.9414  2.8422
33221SOL     OW 3067   6.535   6.484  10.217 -0.5581  0.0008  0.6163
33221SOL    HW1 3068   6.610   6.451  10.168 -0.9162  1.5591 -1.0477
33221SOL    HW2 3069   6.485   6.406  10.239  0.5136 -0.8759 -0.0174
33222SOL     OW 3070  10.458   6.225   2.978 -0.3411 -0.2464  0.3381
33222SOL    HW1 3071  10.384   6.167   2.960 -1.3555  0.6601  1.4830
33222SOL    HW2 3072  10.427   6.312   2.954  0.0368  0.2703  1.6686
33223SOL     OW 3073  10.473   1.829   7.341 -0.4197  0.3244  0.4471
33223SOL    HW1 3074  10.543   1.851   7.403  0.8415 -0.4806 -0.6692
33223SOL    HW2 3075  10.399   1.882   7.369  0.6247  1.1674  1.6713
33224SOL     OW 3076   0.926   5.921   7.912 -0.3322  0.0456 -0.5319
33224SOL    HW1 3077   0.928   5.864   7.989 -0.4724  1.1731  0.3363
33224SOL    HW2 3078   0.978   5.876   7.846  1.1965 -0.1705  0.7922
33225SOL     OW 3079   8.432   6.050   0.260  0.9568 -0.0425 -0.0315
33225SOL    HW1 3080   8.368   5.987   0.292  1.6558  0.2217  1.9301
33225SOL    HW2 3081   8.517   6.009   0.275  1.3502  0.6354 -0.3495
33226SOL     OW 3082   1.428   1.470   8.934 -0.0175 -0.0969 -0.0016
33226SOL    HW1 3083   1.449   1.563   8.925  0.6159 -0.1064  1.2883
33226SOL    HW2 3084   1.447   1.450   9.026  0.4123 -1.6410 -0.4193
33227SOL     OW 3085  10.704   7.994  10.316  0.0187  0.0773 -1.1368
33227SOL    HW1 3086  10.660   8.047  10.383  0.5287 -0.7853 -0.1096
33227SOL    HW2 3087  10.761   7.934  10.365 -2.4053 -3.1782 -2.1387
33228SOL     OW 3088   6.106  10.537  10.717 -0.9493  0.3885  0.1130
33228SOL    HW1 3089   6.119  10.621  10.760  0.2461  1.2346 -1.8278
33228SOL    HW2 3090   6.192  10.495  10.720 -1.2669 -0.2701  0.0732
33229SOL     OW 3091   2.212   5.457   7.405 -0.0842 -0.6047 -0.2651
33229SOL    HW1 3092   2.225   5.428   7.315  0.9279  1.1868 -0.7190
33229SOL    HW2 3093   2.298   5.490   7.432 -0.9333  0.9535  0.5789
33230SOL     OW 3094  10.102   3.972   3.302  0.2473 -0.0686  0.1338
33230SOL    HW1 3095  10.065   4.024   3.232 -2.0052 -2.4795 -0.5297
33230SOL    HW2 3096  10.099   3.882   3.270  2.7667 -0.8051  1.7894
33231SOL     OW 3097   2.902   0.935   5.675 -0.0437 -0.3566 -0.8761
33231SOL    HW1 3098   2.870   0.974   5.594 -0.8970  1.2143  0.1847
33231SOL    HW2 3099   2.994   0.961   5.680  0.1279 -0.8251 -1.5433
33232SOL     OW 3100   7.616  10.952   2.364  0.1149  0.5435 -0.1434
33232SOL    HW1 3101   7.641  11.039   2.335  0.8259  0.7154  0.9421
33232SOL    HW2 3102   7.693  10.920   2.411 -0.5359 -0.2364  0.4034
33233SOL     OW 3103  10.221   0.283   6.563 -0.3240 -0.2493  0.0617
33233SOL    HW1 3104  10.231   0.274   6.658  0.4591 -0.6871 -0.0570
33233SOL    HW2 3105  10.219   0.194   6.529 -1.2568 -0.1093 -0.2806
33234SOL     OW 3106   7.910  10.142   7.035 -0.0192 -0.0169  0.2727
33234SOL    HW1 3107   7.922  10.214   7.097 -2.0266  2.1274 -1.7221
33234SOL    HW2 3108   7.981  10.152   6.972 -0.7212  0.6681 -0.4134
33235SOL     OW 3109   0.179   5.127   3.349 -0.0331  0.0051  0.0134
33235SOL    HW1 3110   0.084   5.129   3.339 -0.0312 -0.4544 -0.1412
33235SOL    HW2 3111   0.207   5.218   3.342 -0.2987 -0.0133 -1.5989
33236SOL     OW 3112   6.118   5.086   5.695  0.6382 -0.6082  0.0973
33236SOL    HW1 3113   6.213   5.085   5.707  0.7206  0.5565 -0.3533
33236SOL    HW2 3114   6.106   5.119   5.606 -0.2142  0.5868  0.6362
33237SOL     OW 3115   2.423   8.231   3.337  0.3239 -1.0375 -0.6944
33237SOL    HW1 3116   2.391   8.194   3.255 -0.1594 -0.2957 -0.8482
33237SOL    HW2 3117   2.495   8.173   3.363  0.0506 -1.6566 -1.2962
33238SOL     OW 3118   2.334   6.414   9.622  0.0027 -0.0073  0.3157
33238SOL    HW1 3119   2.245   6.446   9.639 -0.6446 -1.3864 -0.4275
33238SOL    HW2 3120   2.383   6.436   9.701 -0.4451  2.6851 -0.0967
33239SOL     OW 3121   8.561   2.729   4.655 -0.7500  0.0451 -0.5429
33239SOL    HW1 3122   8.656   2.728   4.645 -0.5180  2.2524  0.9642
33239SOL    HW2 3123   8.529   2.665   4.592  1.6306  0.4763 -2.2624
33240SOL     OW 3124   3.786  10.559   2.874 -0.2164  0.1956 -0.0277
33240SOL    HW1 3125   3.789  10.609   2.955 -1.9879  0.6675 -0.2366
33240SOL    HW2 3126   3.787  10.626   2.805 -0.7202 -0.1323 -0.3528
33241SOL     OW 3127  10.463   9.501   5.088  0.0841 -0.0839 -0.0072
33241SOL    HW1 3128  10.420   9.563   5.031  0.7265  0.4550  0.0866
33241SOL    HW2 3129  10.510   9.555   5.152  2.9489 -0.5646 -1.5947
33242SOL     OW 3130   4.196   2.084   5.824  0.9526 -0.6768  0.0249
33242SOL    HW1 3131   4.277   2.035   5.810  2.2839  0.3145  3.6688
33242SOL    HW2 3132   4.136   2.021   5.863  1.5873 -0.2331  1.7383
33243SOL     OW 3133   7.110   5.210   3.288 -0.1484 -0.5074  0.3760
33243SOL    HW1 3134   7.107   5.223   3.193  0.6508 -1.9018  0.1575
33243SOL    HW2 3135   7.032   5.256   3.321  0.5208  1.5188 -0.7523
33244SOL     OW 3136   7.216   7.352   1.140 -0.1465 -0.5074  0.1504
33244SOL    HW1 3137   7.288   7.413   1.119 -0.7534  0.0639 -0.3065
33244SOL    HW2 3138   7.144   7.409   1.167 -0.2824 -1.1035  1.0568
33245SOL     OW 3139   6.862   5.057   9.933  0.1396 -0.0205  0.0034
33245SOL    HW1 3140   6.957   5.067   9.930  0.1944 -0.5106 -0.0003
33245SOL    HW2 3141   6.829   5.120   9.870  0.5398 -0.7710 -0.9618
33246SOL     OW 3142   9.330   7.721   4.792  0.2779 -0.4599  0.0680
33246SOL    HW1 3143   9.295   7.772   4.719  0.7628 -0.0294  0.1357
33246SOL    HW2 3144   9.269   7.738   4.864 -0.3523 -1.0993 -0.3102
33247SOL     OW 3145   8.153   8.276   6.805 -0.3139 -0.2832  0.2509
33247SOL    HW1 3146   8.177   8.183   6.795 -0.0099 -0.5425  2.9989
33247SOL    HW2 3147   8.058   8.277   6.796 -0.1448 -0.5032 -2.0236
33248SOL     OW 3148   4.664   5.794   9.401  0.0138  0.9735  0.5950
33248SOL    HW1 3149   4.712   5.732   9.346 -1.7621 -0.9338  1.1141
33248SOL    HW2 3150   4.682   5.765   9.491 -1.4226  0.7150  0.8139
33249SOL     OW 3151   7.188   0.064   5.297 -0.1822 -0.1093 -0.0634
33249SOL    HW1 3152   7.268   0.100   5.335  0.7059 -1.6568 -0.4282
33249SOL    HW2 3153   7.132   0.140   5.283  1.2526  1.0039  0.1400
33250SOL     OW 3154   5.862   5.449   8.443 -0.0152  0.2476 -0.1307
33250SOL    HW1 3155   5.830   5.493   8.522 -0.1177  0.7087 -0.4209
33250SOL    HW2 3156   5.806   5.484   8.373  0.8850  0.7893 -0.5897
33251SOL     OW 3157   6.309   3.889   1.391 -0.0521  0.2577  0.3435
33251SOL    HW1 3158   6.254   3.866   1.467 -3.9342  1.1455 -2.0485
33251SOL    HW2 3159   6.311   3.809   1.339 -1.2433  0.9569 -0.8062
33252SOL     OW 3160   8.750   1.311   5.329  0.1118  0.6264 -0.0619
33252SOL    HW1 3161   8.693   1.276   5.260  1.7806 -0.7200 -0.7745
33252SOL    HW2 3162   8.839   1.288   5.301  0.9028  1.2848  1.8523
33253SOL     OW 3163   9.850  10.359   5.142 -0.0405  0.4877 -0.1424
33253SOL    HW1 3164   9.783  10.427   5.138  0.6810  1.3320  1.6071
33253SOL    HW2 3165   9.807  10.280   5.108 -2.1496  0.8503  1.5783
33254SOL     OW 3166   7.016  10.300   6.778 -0.9924  0.3679  0.3669
33254SOL    HW1 3167   7.020  10.390   6.747 -4.2543 -0.0526 -1.4961
33254SOL    HW2 3168   6.955  10.302   6.852 -1.4222 -0.3459  0.0466
33255SOL     OW 3169   5.994   8.594   2.805  0.3343  0.3502  0.2965
33255SOL    HW1 3170   5.989   8.680   2.764 -0.5604 -0.3094 -0.9930
33255SOL    HW2 3171   6.071   8.600   2.862  1.4521  1.3709 -1.2560
33256SOL     OW 3172   7.621   0.105   9.056  0.0659 -0.3110  0.1116
33256SOL    HW1 3173   7.584   0.040   8.996 -2.2405  0.2957  0.8306
33256SOL    HW2 3174   7.637   0.056   9.137  2.8506 -1.0480 -0.8333
33257SOL     OW 3175   5.863   9.364   2.323 -0.5202  0.5218 -0.2714
33257SOL    HW1 3176   5.939   9.387   2.270  0.5986 -0.1842  1.0184
33257SOL    HW2 3177   5.829   9.448   2.353 -0.0873  0.8223 -0.6128
33258SOL     OW 3178   3.098   9.575   3.212  0.1788  0.1898  0.7289
33258SOL    HW1 3179   3.073   9.659   3.173 -3.3208 -1.5100 -0.8528
33258SOL    HW2 3180   3.154   9.534   3.147  0.3090  0.4552  0.6716
33259SOL     OW 3181  10.293   7.735   3.828  0.1509 -0.4961 -0.0753
33259SOL    HW1 3182  10.231   7.672   3.865  0.7227 -0.7519  0.4425
33259SOL    HW2 3183  10.252   7.762   3.745  0.6702 -2.7618 -1.1139
33260SOL     OW 3184   6.022  10.677   2.519 -0.0012  0.0331  0.7408
33260SOL    HW1 3185   6.033  10.630   2.601  1.7052  2.2657  1.8473
33260SOL    HW2 3186   6.112  10.690   2.487 -0.5717  0.5551 -0.7079
33261SOL     OW 3187   1.478   1.399   9.193 -0.4078 -0.0827 -0.8275
33261SOL    HW1 3188   1.454   1.344   9.267  1.8435  0.9630  0.7384
33261SOL    HW2 3189   1.475   1.488   9.227  0.4886  0.4208 -2.0277
33262SOL     OW 3190   7.642   6.009   3.055 -0.3680 -0.3059 -0.1916
33262SOL    HW1 3191   7.621   6.095   3.019 -0.4244 -0.4775 -0.5768
33262SOL    HW2 3192   7.626   5.948   2.982 -1.4917 -0.7767  0.4443
33263SOL     OW 3193   6.045   0.053   9.929 -0.1313  0.0847  0.4382
33263SOL    HW1 3194   6.052  -0.036   9.961 -0.8429 -0.5539 -1.1304
33263SOL    HW2 3195   5.999   0.101   9.998  0.0401 -0.8125  1.1702
33264SOL     OW 3196   2.814   4.346   8.390 -0.2227 -0.1962  0.4206
33264SOL    HW1 3197   2.889   4.371   8.336  0.5090 -1.8769  0.6415
33264SOL    HW2 3198   2.740   4.392   8.351  0.7409  0.6237 -0.4571
33265SOL     OW 3199   2.154   7.244   6.989  0.1409 -0.3579  0.2201
33265SOL    HW1 3200   2.114   7.166   7.029  1.3022 -1.0277  0.0792
33265SOL    HW2 3201   2.080   7.288   6.946 -0.4931 -1.4978  0.1029
33266SOL     OW 3202   0.810   9.284   6.788  0.0400  0.1500  0.0372
33266SOL    HW1 3203   0.824   9.340   6.864 -0.0327 -1.8937  1.5946
33266SOL    HW2 3204   0.897   9.251   6.765 -0.0160  0.3177 -0.4320
33267SOL     OW 3205   5.293   6.803   3.311  0.0752 -0.1096 -0.1025
33267SOL    HW1 3206   5.302   6.822   3.404 -0.0355 -2.0477  0.3113
33267SOL    HW2 3207   5.360   6.858   3.269 -0.2073  1.1387  1.0515
33268SOL     OW 3208   2.082   5.604   5.401 -0.1921 -0.0092  0.2814
33268SOL    HW1 3209   2.035   5.643   5.475 -2.1697 -1.3492 -0.2209
33268SOL    HW2 3210   2.125   5.527   5.437  0.6586  0.5740  0.5040
33269SOL     OW 3211   6.572   6.832   2.926  0.1685 -0.3718 -0.5696
33269SOL    HW1 3212   6.549   6.844   3.018  1.5341  1.3313 -0.4266
33269SOL    HW2 3213   6.548   6.914   2.883  1.8607 -0.1890 -1.2239
33270SOL     OW 3214  10.499   9.275   4.848 -0.1565 -0.3881  0.1531
33270SOL    HW1 3215  10.547   9.218   4.787  2.7140  0.9678  1.0182
33270SOL    HW2 3216  10.565   9.302   4.912 -2.2515  1.1509  1.7446
33271SOL     OW 3217   0.536  10.184  10.459 -0.6456  0.3584  0.0189
33271SOL    HW1 3218   0.559  10.110  10.403  0.4972  0.5865  0.1809
33271SOL    HW2 3219   0.440  10.186  10.457 -0.7634 -2.0544  1.2343
33272SOL     OW 3220   7.440   6.791   9.257  0.3298  0.3530 -0.1955
33272SOL    HW1 3221   7.440   6.695   9.259 -2.2044  0.3385  0.1670
33272SOL    HW2 3222   7.462   6.812   9.166  1.4250 -0.5354 -0.1585
33273SOL     OW 3223   0.950   8.709   2.838  0.4376 -0.0976  0.1531
33273SOL    HW1 3224   0.928   8.789   2.886 -3.0322 -0.6796 -0.3298
33273SOL    HW2 3225   0.968   8.739   2.749  1.8751  0.4285  0.6121
33274SOL     OW 3226   6.875   3.501   8.947  0.3056 -0.2001 -0.0506
33274SOL    HW1 3227   6.852   3.423   8.998  2.0820 -0.3436  0.5952
33274SOL    HW2 3228   6.836   3.574   8.996 -2.4149 -0.7498 -1.3227
33275SOL     OW 3229   8.215   1.702   4.290  0.0928  0.2108  0.1697
33275SOL    HW1 3230   8.189   1.793   4.273  0.3561  0.5453  1.5405
33275SOL    HW2 3231   8.289   1.687   4.231  0.2302  0.9751  0.1462
33276SOL     OW 3232   9.585   0.722   1.075  0.2647  0.1663  0.5829
33276SOL    HW1 3233   9.573   0.628   1.089  2.2447 -0.2922 -0.5828
33276SOL    HW2 3234   9.498   0.754   1.051 -0.1862 -1.5996 -0.1818
33277SOL     OW 3235  10.976   3.508   5.726 -0.3455 -0.1985 -0.4724
33277SOL    HW1 3236  11.045   3.546   5.781 -0.9273 -0.0410  0.1645
33277SOL    HW2 3237  11.019   3.435   5.682 -0.7447 -2.7022  3.0189
33278SOL     OW 3238   1.233   8.349   0.713  0.1756 -0.0526  0.1855
33278SOL    HW1 3239   1.234   8.253   0.712 -0.0200 -0.0527  0.0570
33278SOL    HW2 3240   1.189   8.371   0.795 -2.1292 -0.0812 -1.0085
33279SOL     OW 3241   1.235   4.616   8.122  0.1228 -0.4257  0.1068
33279SOL    HW1 3242   1.151   4.613   8.078 -0.2100 -2.6327  0.8219
33279SOL    HW2 3243   1.300   4.604   8.053 -0.1470  1.2787 -0.4435
33280SOL     OW 3244   6.727   5.924   5.073  0.2167  0.0214 -0.3722
33280SOL    HW1 3245   6.720   5.961   5.161  0.1876 -0.5440 -0.1353
33280SOL    HW2 3246   6.822   5.914   5.059  0.1480 -2.1776  0.5649
33281SOL     OW 3247   3.354   2.334   0.418  0.6755 -0.1065  0.0663
33281SOL    HW1 3248   3.316   2.265   0.364  0.3434  0.6922 -0.7395
33281SOL    HW2 3249   3.324   2.415   0.377  0.9567  0.5122  1.0797
33282SOL     OW 3250   2.722   8.170   6.719  0.1152 -0.0168  0.4845
33282SOL    HW1 3251   2.797   8.154   6.662 -0.5870 -0.7734 -0.2327
33282SOL    HW2 3252   2.646   8.170   6.660 -0.4540  0.7164  1.2037
33283SOL     OW 3253   0.636   9.219   0.472 -0.7566  0.0813  0.5646
33283SOL    HW1 3254   0.557   9.189   0.517 -0.9499 -4.1826 -2.2706
33283SOL    HW2 3255   0.707   9.168   0.510 -0.4205 -0.9692 -1.3681
33284SOL     OW 3256   5.606   8.669   4.418 -0.0808  0.2669 -0.3878
33284SOL    HW1 3257   5.511   8.682   4.412 -0.2703 -1.2691 -0.8625
33284SOL    HW2 3258   5.618   8.610   4.492  0.4486 -0.1476 -0.8004
33285SOL     OW 3259   3.757   8.881   4.327  0.3609  0.2037 -0.4813
33285SOL    HW1 3260   3.705   8.866   4.248  0.0143  0.1708 -0.2519
33285SOL    HW2 3261   3.835   8.928   4.297  1.8014 -2.6306 -1.3155
33286SOL     OW 3262  10.856   9.645   0.093  0.3597  0.3201 -0.0369
33286SOL    HW1 3263  10.848   9.740   0.104 -3.1250  0.0123  0.7400
33286SOL    HW2 3264  10.861   9.611   0.182  0.9062 -0.2694 -0.2951
33287SOL     OW 3265   0.351   2.859   6.960 -0.0669  0.8259  0.3021
33287SOL    HW1 3266   0.409   2.881   6.888 -0.3941  1.6601  0.2897
33287SOL    HW2 3267   0.402   2.799   7.014  1.2919  2.5279  0.9648
33288SOL     OW 3268   4.626   4.040   1.692 -0.1448  0.0497 -0.8650
33288SOL    HW1 3269   4.703   3.997   1.653 -0.0178 -0.9914  0.5050
33288SOL    HW2 3270   4.659   4.125   1.722  0.3550 -0.1695 -0.7743
33289SOL     OW 3271  10.949   5.313   5.801  0.4478 -0.3766 -0.3385
33289SOL    HW1 3272  10.872   5.324   5.745  0.5380  0.9754 -0.2120
33289SOL    HW2 3273  11.018   5.362   5.756  0.6010  0.4681  0.7968
33290SOL     OW 3274   1.569   9.757   9.485  0.3509 -0.0849  0.1507
33290SOL    HW1 3275   1.650   9.727   9.445  0.4476 -0.3412  0.5366
33290SOL    HW2 3276   1.582   9.851   9.499  0.4617 -0.0686 -0.0654
33291SOL     OW 3277   5.122   4.999  10.599  0.1285  0.5275  0.3519
33291SOL    HW1 3278   5.065   5.024  10.527  2.0397  0.8161 -1.1028
33291SOL    HW2 3279   5.085   5.042  10.676 -1.4973  0.8174 -0.5798
33292SOL     OW 3280   6.235   1.476   3.908  0.3618  0.8334 -0.7920
33292SOL    HW1 3281   6.329   1.489   3.917  0.3263  1.0001 -0.6448
33292SOL    HW2 3282   6.213   1.516   3.824  0.4309  0.7533 -0.8473
33293SOL     OW 3283   7.896   8.640   8.425  0.0027 -0.0958  0.1303
33293SOL    HW1 3284   7.898   8.546   8.410  1.7140 -0.0948  0.2893
33293SOL    HW2 3285   7.814   8.669   8.385  0.0208 -1.4832 -0.9279
33294SOL     OW 3286   4.650   9.203   4.364  0.1920  0.7574 -0.1227
33294SOL    HW1 3287   4.605   9.164   4.289 -0.9882 -0.3380  1.1248
33294SOL    HW2 3288   4.597   9.280   4.386 -0.5341  0.0179  0.7420
33295SOL     OW 3289   5.092   0.970   6.549  0.5063 -0.1274  0.0493
33295SOL    HW1 3290   5.078   0.878   6.569  1.9192 -0.4233 -0.2102
33295SOL    HW2 3291   5.152   1.001   6.617 -1.0831  0.9890  0.9794
33296SOL     OW 3292   4.580   1.727   0.316 -0.4121 -0.3648  0.7535
33296SOL    HW1 3293   4.669   1.713   0.283 -0.1538 -0.0030  1.3027
33296SOL    HW2 3294   4.591   1.782   0.393 -1.1721  0.2720  0.4183
33297SOL     OW 3295   2.559   4.357   4.077  0.0245 -0.2004  0.5626
33297SOL    HW1 3296   2.559   4.270   4.115  1.4522 -0.3802  0.2041
33297SOL    HW2 3297   2.512   4.412   4.140  0.1718 -0.9870  1.3605
33298SOL     OW 3298   2.921  10.944   5.809  0.2909  0.4444 -0.1480
33298SOL    HW1 3299   2.833  10.909   5.795  1.3828 -1.8660 -1.4602
33298SOL    HW2 3300   2.930  11.012   5.741  0.5770 -1.3410 -1.9315
33299SOL     OW 3301   4.975   2.390  10.763  0.1315  0.4135  0.2628
33299SOL    HW1 3302   5.062   2.396  10.803  0.6839  1.3930 -1.0484
33299SOL    HW2 3303   4.956   2.479  10.734 -0.1010 -0.3408 -1.9663
33300SOL     OW 3304   4.904   4.569   4.461  0.5998 -0.9692 -0.2125
33300SOL    HW1 3305   4.987   4.531   4.490  0.7434  0.0013  0.6607
33300SOL    HW2 3306   4.890   4.532   4.373  1.9037 -1.2006 -0.3294
33301SOL     OW 3307   6.201   0.021   1.335  0.1041  0.3960 -0.5591
33301SOL    HW1 3308   6.128   0.075   1.308  1.1646  1.3044 -1.6641
33301SOL    HW2 3309   6.220   0.048   1.425  0.0836  1.2403 -0.8134
33302SOL     OW 3310   8.081  10.881   8.939 -0.1898 -0.2284 -0.4506
33302SOL    HW1 3311   8.087  10.945   9.009 -2.0279 -2.7600  2.1677
33302SOL    HW2 3312   8.046  10.930   8.864 -2.0727  1.7086  1.6250
33303SOL     OW 3313   4.798   9.845   0.337  0.2258  0.1851  0.7641
33303SOL    HW1 3314   4.768   9.932   0.313 -0.8422 -1.0018 -2.5002
33303SOL    HW2 3315   4.719   9.799   0.365 -0.1770 -1.1867 -2.3414
33304SOL     OW 3316   4.839   2.599   7.424 -0.3011 -0.1010  0.1886
33304SOL    HW1 3317   4.865   2.589   7.333 -0.5063 -0.8474  0.2093
33304SOL    HW2 3318   4.921   2.600   7.473 -0.2673 -1.5655  0.1705
33305SOL     OW 3319   6.266   5.874   1.046 -0.4876  0.1572 -0.1443
33305SOL    HW1 3320   6.195   5.937   1.061  0.0949  0.1493  2.9236
33305SOL    HW2 3321   6.334   5.924   1.003 -1.5078  0.6908 -1.1622
33306SOL     OW 3322   4.002   1.666   0.128 -0.2393 -0.2057  0.7955
33306SOL    HW1 3323   3.972   1.576   0.122  2.0600 -1.1364  2.4149
33306SOL    HW2 3324   3.984   1.691   0.219 -0.8617  0.9915  0.3645
33307SOL     OW 3325   3.616   1.007   5.111 -0.2261 -0.3471  0.1287
33307SOL    HW1 3326   3.585   0.941   5.049  2.5164 -1.6925  0.1376
33307SOL    HW2 3327   3.662   0.958   5.178  2.1726  1.5634 -0.0556
33308SOL     OW 3328   7.714   6.926   7.043  0.4714 -0.2437  0.7043
33308SOL    HW1 3329   7.779   6.878   6.992  0.4688  0.2013  0.2874
33308SOL    HW2 3330   7.642   6.864   7.056 -1.2217  0.7968 -3.0489
33309SOL     OW 3331   8.383   1.288   2.597 -0.0032  0.3418 -0.3314
33309SOL    HW1 3332   8.382   1.380   2.571 -0.1885  0.0338 -1.4281
33309SOL    HW2 3333   8.291   1.263   2.602  0.0598  0.0780 -0.5039
33310SOL     OW 3334   1.499   9.962   6.275  0.3659  0.5508 -0.6539
33310SOL    HW1 3335   1.547   9.892   6.318 -0.4615 -0.5564 -1.5023
33310SOL    HW2 3336   1.554   9.988   6.201  0.1657  0.0279 -0.9898
33311SOL     OW 3337   2.711   1.835   2.683  0.2355  0.0389  0.0327
33311SOL    HW1 3338   2.740   1.744   2.681 -0.9109 -0.3893  1.6951
33311SOL    HW2 3339   2.751   1.871   2.762  0.0643  0.7592 -0.2063
33312SOL     OW 3340   6.502   4.430  10.114  0.2067 -0.1836  0.2827
33312SOL    HW1 3341   6.584   4.470  10.143  0.0254 -1.2221  2.2906
33312SOL    HW2 3342   6.445   4.433  10.190 -0.6570 -2.0248 -0.2476
33313SOL     OW 3343   7.092   7.077   3.680  0.0180  0.3973  0.0040
33313SOL    HW1 3344   7.126   6.988   3.692  1.5120  1.0801  0.8907
33313SOL    HW2 3345   7.097   7.092   3.586  4.7817  1.4648  0.2970
33314SOL     OW 3346   5.090   1.453   6.233  0.5408 -0.3573 -0.1547
33314SOL    HW1 3347   5.075   1.517   6.164 -0.4170  1.3591  1.6096
33314SOL    HW2 3348   5.008   1.452   6.283  1.1464 -1.7246  0.8370
33315SOL     OW 3349   8.220   3.505   2.415 -0.3324 -0.2363 -0.3263
33315SOL    HW1 3350   8.268   3.582   2.443  1.5148 -1.5403  0.1862
33315SOL    HW2 3351   8.255   3.434   2.469  0.3724 -2.0328 -3.0560
33316SOL     OW 3352   9.911   1.427   8.213 -0.0484 -0.5521  0.1442
33316SOL    HW1 3353   9.953   1.450   8.296 -0.4139 -0.3810  0.2870
33316SOL    HW2 3354   9.974   1.371   8.168  0.5855  0.2003  0.0841
33317SOL     OW 3355   5.547   3.062   5.046 -0.0775 -0.1737  0.0995
33317SOL    HW1 3356   5.606   3.119   4.997 -0.5577 -0.3169 -0.6515
33317SOL    HW2 3357   5.479   3.038   4.983 -0.3369 -0.8951  0.6489
33318SOL     OW 3358  10.938   9.027  10.943  0.0176 -0.2049 -0.1554
33318SOL    HW1 3359  10.957   8.954  11.002  2.0280  0.3671 -0.0542
33318SOL    HW2 3360  11.019   9.040  10.895 -0.5906  1.4297 -0.7575
33319SOL     OW 3361   4.906   2.448   0.773 -0.3161 -0.1876  0.0525
33319SOL    HW1 3362   4.844   2.381   0.805 -1.8627  1.5638  0.8060
33319SOL    HW2 3363   4.960   2.467   0.849  1.7358 -2.2854 -0.8164
33320SOL     OW 3364   3.989   1.306   6.330 -0.5629 -0.0452 -0.8798
33320SOL    HW1 3365   3.922   1.307   6.261 -0.3598  1.2913 -1.0823
33320SOL    HW2 3366   4.071   1.327   6.284 -0.3506  0.4106 -0.3045
33321SOL     OW 3367   4.146  10.807  10.076 -0.0293 -0.0588 -0.6488
33321SOL    HW1 3368   4.213  10.796  10.143 -0.6778 -1.9287 -0.2784
33321SOL    HW2 3369   4.188  10.777   9.995  0.0723  0.2001 -0.6912
33322SOL     OW 3370   9.979   6.839   5.363 -0.6844 -0.0325 -0.2464
33322SOL    HW1 3371   9.977   6.745   5.385 -1.8520  0.2073  0.7414
33322SOL    HW2 3372  10.071   6.864   5.376 -0.1792 -1.2276 -1.3809
33323SOL     OW 3373   8.548  10.966   4.080 -0.0781 -0.3989 -0.3335
33323SOL    HW1 3374   8.475  10.958   4.019 -0.5391 -1.1890  0.3161
33323SOL    HW2 3375   8.587  10.879   4.082 -0.3806 -0.5102  0.8851
33324SOL     OW 3376   6.010  10.798   0.264  0.8085  0.5048 -0.2955
33324SOL    HW1 3377   6.005  10.707   0.235  0.6998 -0.0015  1.2707
33324SOL    HW2 3378   5.954  10.845   0.203 -1.6681 -0.9825  0.7461
33325SOL     OW 3379   6.171  10.763   9.079  0.1024  0.0358  0.2060
33325SOL    HW1 3380   6.157  10.771   9.174  0.2253  0.6914  0.1712
33325SOL    HW2 3381   6.266  10.760   9.070  0.0753 -0.7198  0.1550
33326SOL     OW 3382   3.739   8.849   1.515 -0.2129  0.2658 -0.5946
33326SOL    HW1 3383   3.763   8.758   1.498  0.1194  0.1958  0.2365
33326SOL    HW2 3384   3.702   8.879   1.432  0.1463 -0.4694 -1.0338
33327SOL     OW 3385   0.370   5.527   7.472 -0.5987 -0.4535  0.0755
33327SOL    HW1 3386   0.369   5.623   7.480  0.5866 -0.2237 -2.0965
33327SOL    HW2 3387   0.463   5.504   7.478 -0.7421 -1.3135 -0.8716
33328SOL     OW 3388   7.092   5.570   2.621  0.0285 -0.7123 -0.0073
33328SOL    HW1 3389   7.144   5.624   2.562 -1.4096 -1.2303 -1.7899
33328SOL    HW2 3390   7.104   5.481   2.589 -0.7014 -1.0130  0.5511
33329SOL     OW 3391   2.921   8.293   0.545 -0.3780  0.1909  0.0912
33329SOL    HW1 3392   3.005   8.281   0.588 -0.7198 -0.9858  0.4615
33329SOL    HW2 3393   2.940   8.349   0.469  0.3885  1.4840  1.2270
33330SOL     OW 3394   8.439   1.145   7.030  0.4109 -0.1845  0.2183
33330SOL    HW1 3395   8.479   1.120   6.947 -0.1680  3.7628 -1.3983
33330SOL    HW2 3396   8.399   1.065   7.063 -0.1015 -1.7038 -3.7639
33331SOL     OW 3397   8.049  10.046   0.114  0.1989  0.5131 -0.0188
33331SOL    HW1 3398   8.132  10.073   0.154  0.2593  0.5446 -0.1625
33331SOL    HW2 3399   8.072  10.030   0.022  0.6337 -2.1006  0.5098
33332SOL     OW 3400   8.899   3.402   5.143 -0.3855 -0.6684  0.8935
33332SOL    HW1 3401   8.989   3.398   5.113 -1.2052  0.5579 -1.8796
33332SOL    HW2 3402   8.871   3.492   5.123 -2.2123 -1.0162  1.7533
33333SOL     OW 3403   4.752  10.415   3.354  0.3756 -0.1187 -0.1524
33333SOL    HW1 3404   4.657  10.422   3.362  0.6093  1.5319  1.5959
33333SOL    HW2 3405   4.769  10.417   3.259 -1.4263 -2.2862 -0.5459
33334SOL     OW 3406   6.612   2.124   5.889 -0.1789 -0.0411 -0.2671
33334SOL    HW1 3407   6.585   2.060   5.824  0.1115  0.4574 -0.8867
33334SOL    HW2 3408   6.707   2.124   5.885 -0.1906  1.0850 -0.9385
33335SOL     OW 3409   9.013  10.272   7.622 -0.5366  0.3009  0.0478
33335SOL    HW1 3410   8.999  10.238   7.533 -3.1542 -1.7252  1.1673
33335SOL    HW2 3411   8.966  10.356   7.623  0.2192  0.7423 -0.7095
33336SOL     OW 3412   1.005   5.051   8.563  0.3673  0.0347  0.4811
33336SOL    HW1 3413   1.011   5.051   8.658 -1.2581 -0.1363  0.6011
33336SOL    HW2 3414   0.939   5.117   8.542 -0.0829 -0.6830 -0.4471
33337SOL     OW 3415   5.175   6.192   2.297 -0.1333  0.0528  0.2549
33337SOL    HW1 3416   5.114   6.140   2.348  0.3016 -1.0284 -0.3172
33337SOL    HW2 3417   5.171   6.155   2.208  0.0696  1.0812 -0.1958
33338SOL     OW 3418   9.108  10.857   2.430 -0.0305 -0.1556 -0.2447
33338SOL    HW1 3419   9.054  10.785   2.397 -2.4710  1.5344  0.0281
33338SOL    HW2 3420   9.065  10.886   2.510  0.7566  1.8213 -0.5127
33339SOL     OW 3421   6.572   8.082  10.731  0.1014 -0.2212 -0.1135
33339SOL    HW1 3422   6.547   8.048  10.817 -0.8219  0.0745 -0.2533
33339SOL    HW2 3423   6.562   8.007  10.672  0.4150 -0.3395 -0.0147
33340SOL     OW 3424  10.292  10.503  10.056 -0.6350 -0.7236 -0.5576
33340SOL    HW1 3425  10.321  10.549  10.135 -0.0224 -0.5802 -0.8596
33340SOL    HW2 3426  10.215  10.453  10.084 -0.6147 -0.4238  0.0500
33341SOL     OW 3427   5.791   9.562   3.332  0.2423  0.4392 -0.5824
33341SOL    HW1 3428   5.697   9.548   3.326 -0.0577  1.8809  0.5414
33341SOL    HW2 3429   5.815   9.528   3.418  1.3163 -2.8536 -2.1226
33342SOL     OW 3430   7.201   5.744   0.135 -0.3175  0.1195 -1.2293
33342SOL    HW1 3431   7.284   5.786   0.116  0.6479 -1.2347 -0.0832
33342SOL    HW2 3432   7.170   5.786   0.215 -0.3468  0.0756 -1.2173
33343SOL     OW 3433   8.705  10.221   0.866 -0.1930 -0.0922 -0.3557
33343SOL    HW1 3434   8.618  10.201   0.833 -0.3555  0.7066 -0.4345
33343SOL    HW2 3435   8.763  10.208   0.790 -0.5619  1.6918 -0.9664
33344SOL     OW 3436   7.043   5.142   5.365 -0.0279 -0.3294  0.0763
33344SOL    HW1 3437   7.049   5.163   5.459 -0.6055 -2.0938  0.5278
33344SOL    HW2 3438   7.111   5.077   5.351 -0.9936 -1.2489 -0.3866
33345SOL     OW 3439   2.941   5.023   9.228 -0.1041 -0.2158 -0.2570
33345SOL    HW1 3440   2.851   5.021   9.260 -0.1780  2.9819 -0.0791
33345SOL    HW2 3441   2.994   5.034   9.307  0.4996 -2.2200 -0.3461
33346SOL     OW 3442   3.823   4.133   3.684  0.0756 -0.0886 -0.1631
33346SOL    HW1 3443   3.737   4.138   3.725  0.4392 -0.3983  0.6447
33346SOL    HW2 3444   3.804   4.112   3.592 -0.6956 -0.5407  0.0897
33347SOL     OW 3445  10.499   7.611   3.949  0.0163  0.0432  0.3595
33347SOL    HW1 3446  10.476   7.581   4.037  0.0510 -1.2041 -0.0429
33347SOL    HW2 3447  10.418   7.649   3.915 -0.0532  0.3389  0.8472
33348SOL     OW 3448   5.789   0.430   3.347  0.5022 -0.5049  0.3557
33348SOL    HW1 3449   5.728   0.420   3.420  0.8699  1.7949  1.0186
33348SOL    HW2 3450   5.735   0.463   3.275  0.6933  0.1709  0.5186
33349SOL     OW 3451   1.852   8.430   3.146 -0.0025  0.0884  0.1624
33349SOL    HW1 3452   1.939   8.423   3.107 -0.2426 -0.8390 -0.2356
33349SOL    HW2 3453   1.845   8.521   3.173 -0.0088  0.9176 -2.4494
33350SOL     OW 3454   2.995   0.195   8.662 -0.1739  0.4220 -0.7843
33350SOL    HW1 3455   3.052   0.177   8.588  0.5048  1.0797 -0.4248
33350SOL    HW2 3456   3.000   0.117   8.717 -0.0751  0.2491 -1.0452
33351SOL     OW 3457   4.834  10.385   6.304  0.2109  0.3052 -0.2642
33351SOL    HW1 3458   4.853  10.297   6.336 -1.6893 -0.5543 -1.4471
33351SOL    HW2 3459   4.741  10.398   6.325  0.0739  1.4002 -1.5202
33352SOL     OW 3460   8.640   3.954   2.300 -0.2507  0.2676 -0.1008
33352SOL    HW1 3461   8.688   4.013   2.358 -0.5345  1.6519 -1.2298
33352SOL    HW2 3462   8.576   3.910   2.356  0.4326  0.5263  0.8815
33353SOL     OW 3463   8.302  10.044   0.210  0.0523 -0.0613 -0.4790
33353SOL    HW1 3464   8.388  10.035   0.168  0.3800  0.1033  0.1576
33353SOL    HW2 3465   8.288   9.959   0.253 -0.0958 -0.0809 -0.5673
33354SOL     OW 3466   0.498   3.157   4.725  0.0174 -0.1851 -0.0331
33354SOL    HW1 3467   0.591   3.169   4.745 -0.2503  1.3544  0.3098
33354SOL    HW2 3468   0.467   3.244   4.701 -1.3126 -0.7190 -0.2890
33355SOL     OW 3469   1.487   6.673   8.613  0.2869 -0.9395 -0.5724
33355SOL    HW1 3470   1.476   6.744   8.550 -0.7238 -1.2945 -0.8089
33355SOL    HW2 3471   1.409   6.678   8.669  0.5961 -1.3585 -0.1030
33356SOL     OW 3472   8.845  10.909   0.269  0.8554 -0.1855  0.5970
33356SOL    HW1 3473   8.828  10.997   0.235  0.2000 -0.8378 -0.7934
33356SOL    HW2 3474   8.765  10.885   0.315  0.5797 -0.5313 -0.0610
33357SOL     OW 3475   6.658   9.340   3.780 -0.3704 -0.3678  0.3528
33357SOL    HW1 3476   6.640   9.361   3.688  0.2963  1.5916  0.6473
33357SOL    HW2 3477   6.574   9.353   3.824 -0.1714  0.8289  0.3827
33358SOL     OW 3478   6.105   0.039   8.923 -0.1359  0.5029  0.1417
33358SOL    HW1 3479   6.120  -0.047   8.964  0.2969  1.0389  1.1203
33358SOL    HW2 3480   6.189   0.083   8.928 -0.5726  1.3121  0.4069
33359SOL     OW 3481   6.295   9.188  10.653  0.2001 -0.0017  0.5542
33359SOL    HW1 3482   6.272   9.125  10.584  1.6729 -2.2471  2.0372
33359SOL    HW2 3483   6.371   9.235  10.618 -0.8302  0.9183 -0.5073
33360SOL     OW 3484   8.127   0.068   4.736 -0.3877  0.0969 -0.3457
33360SOL    HW1 3485   8.205   0.071   4.792 -0.4874  2.7444 -0.2819
33360SOL    HW2 3486   8.053   0.076   4.797 -0.5386  1.8142 -0.7386
33361SOL     OW 3487   9.668   2.001   4.428 -0.4469 -0.0553  0.2112
33361SOL    HW1 3488   9.637   1.983   4.517  0.1882 -0.0530  0.4345
33361SOL    HW2 3489   9.754   1.959   4.424 -0.8369 -0.7917 -0.6800
33362SOL     OW 3490   2.135  10.123   4.422  0.0699  0.1958  0.2155
33362SOL    HW1 3491   2.186  10.178   4.363 -1.8761  0.8808 -0.8789
33362SOL    HW2 3492   2.163  10.149   4.510  1.0507  1.0681 -0.3482
33363SOL     OW 3493   8.465   3.144   1.662  0.1944 -0.6342  0.4461
33363SOL    HW1 3494   8.433   3.231   1.686 -1.1372 -0.7262 -0.8710
33363SOL    HW2 3495   8.524   3.119   1.733 -1.7548  0.0647  2.3657
33364SOL     OW 3496   2.849   8.067   0.231 -0.2465  0.1337  0.1061
33364SOL    HW1 3497   2.935   8.109   0.237 -0.4722  0.5873  0.1571
33364SOL    HW2 3498   2.863   7.979   0.266  0.3883 -0.0734 -0.6425
33365SOL     OW 3499   4.705   1.935   5.339  0.4231 -0.0382  0.0642
33365SOL    HW1 3500   4.632   1.973   5.388  0.2212  0.5964 -0.7099
33365SOL    HW2 3501   4.773   1.920   5.404 -0.1220  0.0811  0.6617
33366SOL     OW 3502   3.928   8.916   0.327  0.0353  0.1348  0.5133
33366SOL    HW1 3503   3.876   8.994   0.308 -0.8100 -0.8343 -1.3537
33366SOL    HW2 3504   3.991   8.910   0.256  0.6389 -0.4310  1.0825
33367SOL     OW 3505   0.045   0.569   9.492  0.1285  0.1170 -0.6393
33367SOL    HW1 3506   0.088   0.517   9.560  0.3641 -0.2557 -1.0667
33367SOL    HW2 3507  -0.045   0.578   9.521 -0.0068 -0.8704 -0.7553
33368SOL     OW 3508  10.784   7.117   5.773  0.3790 -0.8703  0.1482
33368SOL    HW1 3509  10.772   7.177   5.847 -0.6675  0.4892 -1.0882
33368SOL    HW2 3510  10.696   7.102   5.740  0.8058 -1.7899 -0.5940
33369SOL     OW 3511   0.915   0.719   8.234 -0.8606  0.3589  0.5001
33369SOL    HW1 3512   0.880   0.806   8.255 -0.0691  0.8036  0.0133
33369SOL    HW2 3513   0.906   0.713   8.139 -2.3559 -0.7356  0.6860
33370SOL     OW 3514   2.937   8.499  10.780  0.6092  0.5687  0.1511
33370SOL    HW1 3515   2.917   8.469  10.691  0.4202  2.2043 -0.3821
33370SOL    HW2 3516   3.022   8.459  10.800  0.4445 -0.1667 -0.5937
33371SOL     OW 3517   0.699  10.300  10.298  0.1738 -0.0122 -0.2024
33371SOL    HW1 3518   0.682  10.382  10.250 -0.9752 -0.1278  0.0115
33371SOL    HW2 3519   0.622  10.288  10.353 -0.3368 -2.0443 -1.3465
33372SOL     OW 3520   3.198   3.011   2.117 -0.2267 -0.0767 -0.2363
33372SOL    HW1 3521   3.247   2.940   2.075 -0.9025  0.4050 -1.8938
33372SOL    HW2 3522   3.255   3.041   2.187  1.2747 -0.4116 -1.2855
33373SOL     OW 3523   6.710   3.698   5.126  0.0733 -0.5641  0.5278
33373SOL    HW1 3524   6.711   3.658   5.213 -1.7118 -1.1820  0.2869
33373SOL    HW2 3525   6.758   3.780   5.136 -0.2290 -0.5793  2.1261
33374SOL     OW 3526   8.326   5.983   3.153 -0.6220 -0.1181  0.1616
33374SOL    HW1 3527   8.256   6.016   3.210 -0.4021 -0.0412  0.3884
33374SOL    HW2 3528   8.283   5.919   3.097 -0.5582 -1.2108  1.3480
33375SOL     OW 3529   0.206   9.126   8.452  0.0163  0.5213 -0.0235
33375SOL    HW1 3530   0.179   9.057   8.512 -1.1184 -2.3428 -3.6622
33375SOL    HW2 3531   0.128   9.181   8.441 -0.7381 -0.8021 -1.3258
33376SOL     OW 3532   0.425   6.913   8.008  0.3689 -0.0222  0.5852
33376SOL    HW1 3533   0.456   6.893   8.096 -0.3741 -0.0140  0.8550
33376SOL    HW2 3534   0.390   7.002   8.015  0.6071  0.1047  0.1973
33377SOL     OW 3535   5.794   9.734  10.682  0.4112  0.0395 -0.4369
33377SOL    HW1 3536   5.704   9.715  10.653 -0.4565  0.6068  1.7745
33377SOL    HW2 3537   5.794   9.828  10.699  1.6869  0.1912 -1.2379
33378SOL     OW 3538   1.325   7.284   8.849 -0.3588 -0.4091  0.2145
33378SOL    HW1 3539   1.262   7.211   8.854 -0.1671 -0.5702  0.2899
33378SOL    HW2 3540   1.273   7.358   8.819 -0.4897 -0.6569 -0.1815
33379SOL     OW 3541   5.664   7.308   7.385  0.1239 -0.2269 -0.0493
33379SOL    HW1 3542   5.581   7.343   7.353 -0.0249 -0.0841  0.4941
33379SOL    HW2 3543   5.641   7.260   7.464  0.6353  0.2507  0.3911
33380SOL     OW 3544   1.686   8.349   4.642 -0.4195  0.8487 -0.2574
33380SOL    HW1 3545   1.778   8.328   4.626 -0.3633 -0.6062  1.8346
33380SOL    HW2 3546   1.668   8.424   4.584  1.9804  0.9648 -0.8932
33381SOL     OW 3547   9.073   8.333   8.631 -0.4062 -0.1831 -0.2698
33381SOL    HW1 3548   9.045   8.404   8.688 -3.0064 -0.1690 -1.5090
33381SOL    HW2 3549   9.026   8.256   8.664  1.5062 -1.1481  0.3449
33382SOL     OW 3550   0.252   5.071   3.676  0.2125 -0.0708  0.4610
33382SOL    HW1 3551   0.159   5.073   3.702 -0.3282 -1.6218 -1.2557
33382SOL    HW2 3552   0.276   5.163   3.667 -0.0491  0.5121  4.6239
33383SOL     OW 3553   2.410   9.235   0.397  0.3095 -0.1107  0.1246
33383SOL    HW1 3554   2.503   9.234   0.374  0.2497 -2.1152 -0.1696
33383SOL    HW2 3555   2.373   9.159   0.351 -1.3203  0.1966  0.8705
33384SOL     OW 3556   6.767   7.736   0.180 -0.0077  0.3771  0.1693
33384SOL    HW1 3557   6.758   7.775   0.266  0.4584  0.0515  0.3698
33384SOL    HW2 3558   6.721   7.652   0.185 -2.8272  1.7877 -0.8842
33385SOL     OW 3559   1.827  10.083   2.111 -0.0880  0.2989  0.0207
33385SOL    HW1 3560   1.765  10.026   2.157 -0.7647  1.0070  0.0020
33385SOL    HW2 3561   1.846  10.153   2.174  0.8993 -0.0571  0.1223
33386SOL     OW 3562  10.071   8.590   5.117 -0.2090 -0.4909 -0.1107
33386SOL    HW1 3563  10.052   8.607   5.025 -1.3750 -0.1717  0.1778
33386SOL    HW2 3564  10.060   8.675   5.160 -1.8860 -1.0831  0.6704
33387SOL     OW 3565   4.860   0.783  10.884  0.2706  0.2383 -0.7141
33387SOL    HW1 3566   4.845   0.804  10.976  0.3341  1.1848 -0.9099
33387SOL    HW2 3567   4.786   0.822  10.837 -1.6510 -3.2970 -0.7324
33388SOL     OW 3568   9.804   7.028   6.967 -0.3756  0.1219 -0.0074
33388SOL    HW1 3569   9.845   7.100   7.014 -0.5660 -0.0120  0.3659
33388SOL    HW2 3570   9.875   6.989   6.917  0.0586 -0.4046  0.9992
33389SOL     OW 3571   8.283   0.550   4.662  0.0221 -0.1844  0.3778
33389SOL    HW1 3572   8.371   0.562   4.626 -0.0233  1.3853  0.7469
33389SOL    HW2 3573   8.246   0.478   4.611  0.8700  0.3196 -0.9969
33390SOL     OW 3574   6.362   0.099   6.441  0.5707 -0.0483  0.7567
33390SOL    HW1 3575   6.343   0.011   6.410  0.8970 -0.0279  0.4929
33390SOL    HW2 3576   6.315   0.106   6.524 -1.3773  0.3547 -0.3554
33391SOL     OW 3577   1.829   5.692   7.798 -0.4057 -0.6391  0.2437
33391SOL    HW1 3578   1.903   5.689   7.737 -0.3537 -2.0378  0.3508
33391SOL    HW2 3579   1.849   5.765   7.857  0.8195 -0.9070  0.1756
33392SOL     OW 3580   2.050   7.946   0.342 -0.4919 -0.0013 -0.5793
33392SOL    HW1 3581   2.077   7.858   0.317  1.1340  0.6329 -1.1253
33392SOL    HW2 3582   2.052   7.946   0.438  2.3698  0.2800 -0.6015
33393SOL     OW 3583   9.870   8.994   6.456  0.2291  0.3870 -0.1932
33393SOL    HW1 3584   9.855   9.000   6.361  0.1834 -0.5524 -0.2523
33393SOL    HW2 3585   9.812   9.059   6.494 -1.2763 -0.6584 -0.6720
33394SOL     OW 3586   7.486   9.020   2.168  0.7294 -0.0854 -0.2906
33394SOL    HW1 3587   7.512   8.958   2.236  1.0686 -0.7970 -1.0617
33394SOL    HW2 3588   7.411   8.980   2.126  1.4652 -0.3881 -1.3458
33395SOL     OW 3589   6.817   1.664   9.275  0.4312  0.1579  0.4497
33395SOL    HW1 3590   6.850   1.721   9.345  1.2875  0.2400 -0.0104
33395SOL    HW2 3591   6.854   1.702   9.194 -0.1404 -0.2266  0.0024
33396SOL     OW 3592   9.198   5.695   3.607  0.0330 -0.3817  0.5584
33396SOL    HW1 3593   9.140   5.709   3.533 -1.3809 -0.4882  1.6192
33396SOL    HW2 3594   9.149   5.637   3.666  0.9117  0.1155  1.8132
33397SOL     OW 3595   5.348   0.658   3.848 -0.1831  0.3225  0.2378
33397SOL    HW1 3596   5.390   0.595   3.789 -1.1282 -0.6794  0.6260
33397SOL    HW2 3597   5.256   0.657   3.823 -0.7715 -0.7785  2.2883
33398SOL     OW 3598   5.898   1.166   8.727  0.0457  0.3325  0.6418
33398SOL    HW1 3599   5.986   1.152   8.691  1.2720  0.8914  3.3006
33398SOL    HW2 3600   5.860   1.234   8.672  1.0624 -0.2921 -0.8709
33399SOL     OW 3601   6.085  10.136   3.306 -0.2564 -0.4738 -0.0455
33399SOL    HW1 3602   6.026  10.093   3.368  0.2573 -1.8504 -0.4904
33399SOL    HW2 3603   6.027  10.190   3.251 -0.8031  0.1191  1.1013
33400SOL     OW 3604   9.351   4.350   7.362  0.6831 -0.4002 -0.0605
33400SOL    HW1 3605   9.364   4.430   7.412  0.9964 -1.1099  1.0033
33400SOL    HW2 3606   9.260   4.325   7.378  0.7256 -0.5187  0.0002
33401SOL     OW 3607   0.115   7.710   1.469 -0.0235  0.0598  0.2836
33401SOL    HW1 3608   0.053   7.692   1.398 -0.1350 -0.6411  0.5551
33401SOL    HW2 3609   0.160   7.627   1.483 -1.0936 -0.2347  2.0859
33402SOL     OW 3610   8.327   8.265   5.402 -0.5864  0.1038 -0.0097
33402SOL    HW1 3611   8.392   8.226   5.343 -1.8223  0.0243 -1.3524
33402SOL    HW2 3612   8.307   8.195   5.465 -1.2018 -0.7416 -1.1082
33403SOL     OW 3613   0.482   9.616   3.846 -0.6229 -0.3592 -0.6001
33403SOL    HW1 3614   0.438   9.533   3.833  0.7895 -1.3721  0.8249
33403SOL    HW2 3615   0.560   9.611   3.791 -0.1285 -0.3237  0.0855
33404SOL     OW 3616   4.836   6.717   6.928 -0.7492  0.0493  0.0213
33404SOL    HW1 3617   4.756   6.743   6.883 -1.4736 -1.7725  0.2119
33404SOL    HW2 3618   4.829   6.622   6.938  0.9869 -0.0214  0.9099
33405SOL     OW 3619  10.911   3.414   8.431 -0.0707  0.1098  0.6665
33405SOL    HW1 3620  10.834   3.400   8.486 -0.5742 -1.2667 -0.3491
33405SOL    HW2 3621  10.894   3.362   8.353  0.5076  2.2131 -0.9238
33406SOL     OW 3622  10.668   4.221   1.914  0.1395 -0.0870  0.0467
33406SOL    HW1 3623  10.624   4.275   1.980  1.4833  0.2663  0.6618
33406SOL    HW2 3624  10.610   4.225   1.838  0.6754  3.0495 -0.2615
33407SOL     OW 3625   0.835   7.993   6.425 -0.7272 -0.1056 -0.0806
33407SOL    HW1 3626   0.747   7.993   6.463 -0.4550  0.3278  0.5527
33407SOL    HW2 3627   0.886   8.051   6.482  0.4303 -1.7742  0.6512
33408SOL     OW 3628   0.481   2.711   4.197 -0.2325 -0.4935  0.0764
33408SOL    HW1 3629   0.481   2.710   4.101  1.4016 -0.4565  0.0652
33408SOL    HW2 3630   0.566   2.749   4.221 -0.7981 -0.1149  1.5365
33409SOL     OW 3631   8.653   4.923  10.118  1.3069  0.1030 -0.0693
33409SOL    HW1 3632   8.715   4.857  10.086  1.7403  0.3692  0.2248
33409SOL    HW2 3633   8.605   4.879  10.188 -0.5951 -0.9479 -1.9491
33410SOL     OW 3634  10.653   9.984   7.727  0.2249  0.3707  0.0620
33410SOL    HW1 3635  10.711  10.021   7.793 -1.3942 -0.3431  1.9659
33410SOL    HW2 3636  10.670   9.890   7.729  0.8625  0.4481 -1.2586
33411SOL     OW 3637   1.054   7.518   2.627 -0.4606  0.1821  0.2104
33411SOL    HW1 3638   1.072   7.529   2.720  1.4006  3.0338 -0.3968
33411SOL    HW2 3639   1.141   7.515   2.586 -1.2576 -0.6896 -1.4687
33412SOL     OW 3640   0.646   4.709   2.539 -0.0216  0.1912 -0.2646
33412SOL    HW1 3641   0.626   4.687   2.630  0.0588 -0.1738 -0.3324
33412SOL    HW2 3642   0.673   4.626   2.500 -0.0368  0.3502 -0.6170
33413SOL     OW 3643   0.142   8.059   8.149 -0.1039  0.4184 -0.4855
33413SOL    HW1 3644   0.236   8.064   8.129 -0.3704  0.2630 -1.8272
33413SOL    HW2 3645   0.137   8.079   8.242  1.3196 -0.0791 -0.2711
33414SOL     OW 3646   9.995   4.291  10.340  0.0445  0.0379 -0.4183
33414SOL    HW1 3647  10.034   4.321  10.422  2.3529 -1.4008 -0.9342
33414SOL    HW2 3648  10.002   4.366  10.281  1.0972  0.1255 -0.1882
33415SOL     OW 3649   7.982   5.537   4.529 -0.1161 -0.5527  0.7309
33415SOL    HW1 3650   8.076   5.521   4.523 -0.0785 -0.6870  1.5887
33415SOL    HW2 3651   7.968   5.618   4.479  0.4845 -0.4182  0.7726
33416SOL     OW 3652   9.695   2.813   6.901  0.0214 -0.3216 -0.0474
33416SOL    HW1 3653   9.599   2.802   6.902  0.1249 -1.3232  0.8344
33416SOL    HW2 3654   9.728   2.724   6.915  1.1141 -0.2284 -2.0348
33417SOL     OW 3655   9.265   5.030   7.055  0.2519 -0.4785  0.5737
33417SOL    HW1 3656   9.183   4.981   7.047  0.0121  0.0960 -0.5753
33417SOL    HW2 3657   9.247   5.095   7.123  0.3218 -1.4729  1.5560
33418SOL     OW 3658   0.632   6.585   8.455 -0.3498  0.0905  0.1458
33418SOL    HW1 3659   0.588   6.634   8.386  0.2977  0.3928 -0.0635
33418SOL    HW2 3660   0.722   6.576   8.423  0.2556  1.2508  1.4813
33419SOL     OW 3661   5.132   3.511   1.095  0.3689  0.3137  0.1715
33419SOL    HW1 3662   5.051   3.526   1.144 -0.9413  2.9524 -2.6330
33419SOL    HW2 3663   5.107   3.453   1.023  1.1147  0.6078 -0.3369
33420SOL     OW 3664   2.184   6.099   5.071  0.6550 -0.2683 -0.4872
33420SOL    HW1 3665   2.245   6.029   5.093  0.0835 -1.0020 -1.2080
33420SOL    HW2 3666   2.132   6.112   5.150  2.3537  1.0116  0.4443
33421SOL     OW 3667   4.415  10.841   1.125 -1.0484  0.1454  0.3914
33421SOL    HW1 3668   4.343  10.779   1.133  0.2406 -1.4376  0.0160
33421SOL    HW2 3669   4.474  10.818   1.196 -0.0147  0.1922 -0.4385
33422SOL     OW 3670  10.030   3.982   0.391  0.2746  0.1741  0.0774
33422SOL    HW1 3671  10.062   3.899   0.427 -0.6969  0.2907  1.2504
33422SOL    HW2 3672   9.990   3.958   0.307 -1.1059 -0.7489  0.9843
33423SOL     OW 3673   3.416   2.953   8.478  0.0378 -0.5226 -0.0394
33423SOL    HW1 3674   3.337   2.900   8.483 -1.8248  2.2159  0.4571
33423SOL    HW2 3675   3.443   2.966   8.569 -0.0393  0.1452 -0.1105
33424SOL     OW 3676   6.340   2.759   6.464  0.4924 -0.6452  0.3175
33424SOL    HW1 3677   6.300   2.845   6.471 -0.2400 -0.5468 -3.6932
33424SOL    HW2 3678   6.291   2.705   6.526 -1.4557  1.0148  0.2947
33425SOL     OW 3679   0.800   9.888  10.636  0.0125  0.2903 -0.2193
33425SOL    HW1 3680   0.838   9.805  10.607  1.0666  0.3076  1.0511
33425SOL    HW2 3681   0.726   9.862  10.691  0.4566  0.1824  0.3315
33426SOL     OW 3682   5.040   3.933   8.123  0.6751  0.2788 -0.1820
33426SOL    HW1 3683   5.102   3.936   8.196  0.8026  1.8732 -0.3286
33426SOL    HW2 3684   4.994   4.017   8.128 -1.0237 -0.6297 -0.4661
33427SOL     OW 3685   1.044   7.223   1.380  0.2937  0.6675 -0.4186
33427SOL    HW1 3686   0.956   7.214   1.418  0.5767  0.3038  0.1553
33427SOL    HW2 3687   1.101   7.238   1.455  0.9400 -0.6694 -0.6213
33428SOL     OW 3688   0.197   3.451   4.909 -0.0962 -0.1207 -0.1878
33428SOL    HW1 3689   0.227   3.481   4.995 -0.8694 -0.8110  0.3344
33428SOL    HW2 3690   0.193   3.356   4.917 -1.1761 -0.1201 -0.6500
33429SOL     OW 3691   2.964   1.961  10.732  0.1958 -0.0559 -0.0186
33429SOL    HW1 3692   2.988   1.981  10.823  0.0394  0.9190 -0.1850
33429SOL    HW2 3693   2.982   1.868  10.722  2.8409  0.3937  0.2028
33430SOL     OW 3694   1.164   1.366   9.072 -0.2502 -0.0077 -0.3538
33430SOL    HW1 3695   1.079   1.357   9.030  0.3294  0.5573 -1.6434
33430SOL    HW2 3696   1.208   1.436   9.025  0.2998  0.8467  1.3692
33431SOL     OW 3697   1.418   8.138   5.218  0.1911  0.0109  0.6690
33431SOL    HW1 3698   1.489   8.167   5.275  1.3180 -0.8216 -0.2626
33431SOL    HW2 3699   1.365   8.080   5.272  0.7936 -0.1445  1.0958
33432SOL     OW 3700   1.607   3.923   6.601 -0.0143  0.2444 -0.0973
33432SOL    HW1 3701   1.515   3.922   6.629 -0.3457 -0.5623 -1.1885
33432SOL    HW2 3702   1.626   3.832   6.581  0.4745  0.6946 -1.6817
33433SOL     OW 3703   4.178   4.695   2.291  0.4899 -0.1336 -0.3060
33433SOL    HW1 3704   4.252   4.636   2.289  0.5290 -0.0652 -0.8291
33433SOL    HW2 3705   4.217   4.782   2.300  0.5726  0.1067 -2.8096
33434SOL     OW 3706   0.799   1.035  10.432  0.2767  0.3165  0.1316
33434SOL    HW1 3707   0.705   1.018  10.436  0.2316  0.6886  0.6984
33434SOL    HW2 3708   0.808   1.129  10.450  0.5705  0.8220 -2.4675
33435SOL     OW 3709   3.765   2.162   0.979 -0.3120 -0.0004  0.5485
33435SOL    HW1 3710   3.675   2.170   1.013  0.2439 -0.8155  2.2721
33435SOL    HW2 3711   3.820   2.171   1.056  1.0357 -0.9430 -0.2887
33436SOL     OW 3712   1.471  10.508   5.526 -0.2479 -0.7108 -0.2605
33436SOL    HW1 3713   1.513  10.499   5.611 -1.5638 -1.3233  0.3216
33436SOL    HW2 3714   1.409  10.580   5.536  2.1889  1.7201 -1.7569
33437SOL     OW 3715   9.081   5.130   5.432  0.4092 -0.1133  0.2584
33437SOL    HW1 3716   9.150   5.153   5.494  0.4556  0.3306  0.0429
33437SOL    HW2 3717   9.128   5.103   5.353  0.3421  0.1142  0.1385
33438SOL     OW 3718   9.650   5.725  10.723  0.0601  0.0003  0.5046
33438SOL    HW1 3719   9.649   5.701  10.815  0.4339 -0.3428  0.4197
33438SOL    HW2 3720   9.726   5.679  10.687 -0.1808  0.0022 -0.0066
33439SOL     OW 3721   6.170   3.841   3.168 -0.2428 -0.2125  0.2742
33439SOL    HW1 3722   6.227   3.825   3.243  1.5096  0.1160 -0.9690
33439SOL    HW2 3723   6.087   3.868   3.207  0.6689  0.0502  2.0993
33440SOL     OW 3724   2.919   8.907  10.295 -0.7734 -0.6791 -0.5161
33440SOL    HW1 3725   2.921   8.869  10.383 -1.1762 -0.1079 -0.2532
33440SOL    HW2 3726   2.990   8.862  10.248  0.5052  0.1364  0.5741
33441SOL     OW 3727   7.696   2.250   5.485 -0.1872 -0.4179 -0.3185
33441SOL    HW1 3728   7.636   2.274   5.415 -0.7757 -0.8747  0.0281
33441SOL    HW2 3729   7.678   2.314   5.554  1.2100  0.7677 -1.0192
33442SOL     OW 3730   8.742  10.529   2.443  0.1913  0.4886 -0.5063
33442SOL    HW1 3731   8.655  10.547   2.409 -0.1741 -0.2034  0.0483
33442SOL    HW2 3732   8.735  10.443   2.484  0.8229  0.9500  0.6015
33443SOL     OW 3733   5.948   4.525  10.056  0.4480 -0.1440  0.3522
33443SOL    HW1 3734   5.857   4.505  10.034  0.5084  1.2114 -1.2376
33443SOL    HW2 3735   5.988   4.440  10.074 -0.7498 -0.8921 -0.4727
33444SOL     OW 3736   2.321  10.199   1.910 -0.0347  0.3656 -0.1375
33444SOL    HW1 3737   2.323  10.193   1.814  2.5302 -3.5364  0.0596
33444SOL    HW2 3738   2.382  10.270   1.930 -0.2194  0.8834 -1.3251
33445SOL     OW 3739   3.319   7.051   2.340 -0.6310 -0.1931  0.1482
33445SOL    HW1 3740   3.358   7.022   2.422 -0.3978  0.1299  0.1501
33445SOL    HW2 3741   3.293   7.141   2.355  1.4418  0.5961 -0.8266
33446SOL     OW 3742   9.525   9.527   8.900  0.1709 -0.4014 -0.0381
33446SOL    HW1 3743   9.432   9.518   8.923  0.3632 -2.9195 -0.0599
33446SOL    HW2 3744   9.546   9.618   8.918 -2.3338  0.2165 -0.0840
33447SOL     OW 3745   1.139   8.568   4.216 -0.3683 -0.2290  0.3918
33447SOL    HW1 3746   1.104   8.620   4.144  1.3657  0.8553  0.3053
33447SOL    HW2 3747   1.118   8.619   4.295 -2.2893 -1.4256  0.6764
33448SOL     OW 3748  10.847   0.165   0.205  0.5319  0.0865 -0.5081
33448SOL    HW1 3749  10.936   0.132   0.199  0.1767 -0.6374 -2.1034
33448SOL    HW2 3750  10.797   0.091   0.240  0.4070  0.1954 -0.4568
33449SOL     OW 3751   1.225   9.562   8.446 -1.1704 -0.0672  0.5519
33449SOL    HW1 3752   1.249   9.643   8.401  2.0480  0.0979  2.4412
33449SOL    HW2 3753   1.143   9.584   8.491 -0.2292  2.2628  1.2363
33450SOL     OW 3754   3.422   6.851   0.034 -0.1965  0.0653  0.3228
33450SOL    HW1 3755   3.476   6.929   0.022 -2.2333  1.3555 -0.7267
33450SOL    HW2 3756   3.415   6.813  -0.053  0.5707 -1.1752  0.7852
33451SOL     OW 3757   4.011   0.076   1.349 -0.0493 -0.4784  0.1740
33451SOL    HW1 3758   3.942   0.012   1.365  1.2530 -1.8109  0.5019
33451SOL    HW2 3759   3.967   0.146   1.301 -2.0463 -0.4402  1.9846
33452SOL     OW 3760   7.931   5.210   2.122 -0.9861  0.3737  0.0935
33452SOL    HW1 3761   7.903   5.237   2.034 -1.5334  2.9431  1.0164
33452SOL    HW2 3762   7.883   5.129   2.139  0.4746 -1.1382 -2.6603
33453SOL     OW 3763   8.032   0.828   3.610  0.1113 -0.3074  0.7141
33453SOL    HW1 3764   8.050   0.746   3.565  0.8213  0.4198 -0.3481
33453SOL    HW2 3765   8.118   0.864   3.629 -0.1975  1.1950 -0.6806
33454SOL     OW 3766   2.230   0.662   2.001  0.0290  0.2901 -0.2011
33454SOL    HW1 3767   2.278   0.736   1.963  1.2723 -0.5414 -0.2878
33454SOL    HW2 3768   2.283   0.636   2.077 -0.5309 -0.3593 -0.0302
33455SOL     OW 3769   1.997   4.712   4.885  0.5225  0.5389  0.3625
33455SOL    HW1 3770   2.029   4.645   4.825 -3.2219 -0.3683 -0.7167
33455SOL    HW2 3771   2.047   4.791   4.861  0.2420 -0.2029 -2.8747
33456SOL     OW 3772   9.050   5.601   0.991 -0.9985 -0.2812 -0.4074
33456SOL    HW1 3773   9.009   5.544   0.925 -2.0522  0.5556 -0.4959
33456SOL    HW2 3774   9.135   5.561   1.008 -1.9146 -2.1470 -0.1182
33457SOL     OW 3775   8.092   6.574   8.089 -0.4849  0.2438 -0.1140
33457SOL    HW1 3776   8.025   6.507   8.078 -0.1172  0.1208 -1.7226
33457SOL    HW2 3777   8.070   6.617   8.172 -2.2253 -0.1530 -0.3540
33458SOL     OW 3778   8.925   5.629   2.096  0.3608 -0.8790 -0.2959
33458SOL    HW1 3779   8.908   5.604   2.005 -1.2242  0.3551 -0.3566
33458SOL    HW2 3780   8.852   5.592   2.145  1.2689 -1.6315  0.5130
33459SOL     OW 3781   8.564   4.856   9.444 -0.6199  0.8400  0.0338
33459SOL    HW1 3782   8.561   4.911   9.366 -0.2801 -1.1729 -1.4186
33459SOL    HW2 3783   8.492   4.888   9.498 -2.3739  0.7237 -2.1599
33460SOL     OW 3784   6.941   3.244   8.561  0.0990 -0.4005 -0.0802
33460SOL    HW1 3785   6.967   3.167   8.510 -0.0781 -0.0107 -0.7742
33460SOL    HW2 3786   7.006   3.310   8.540  0.9509 -0.7282  1.4644
33461SOL     OW 3787   4.076   5.583   8.720 -0.0801  0.1233  0.1157
33461SOL    HW1 3788   4.080   5.495   8.682 -0.0268  0.9813 -1.9031
33461SOL    HW2 3789   4.162   5.621   8.703 -0.8636  1.3929 -1.0505
33462SOL     OW 3790  10.468   3.308   8.875  0.2510  0.0199 -0.1478
33462SOL    HW1 3791  10.475   3.403   8.869 -0.1922  0.1536  1.1692
33462SOL    HW2 3792  10.558   3.278   8.885  0.4111  0.2812 -0.8170
33463SOL     OW 3793   4.053   3.723   7.376 -0.3706 -0.1808  0.1594
33463SOL    HW1 3794   4.131   3.672   7.394  1.4369  2.4376  0.0622
33463SOL    HW2 3795   4.028   3.759   7.461 -1.3135 -0.7933  0.1452
33464SOL     OW 3796   4.464   7.290   9.268  0.1075  0.0738 -0.1985
33464SOL    HW1 3797   4.458   7.234   9.190 -0.8412 -1.4380  0.9319
33464SOL    HW2 3798   4.443   7.231   9.341  2.1659  1.1776  1.3345
33465SOL     OW 3799   0.222  10.789   3.552  0.1742 -0.3189 -0.3415
33465SOL    HW1 3800   0.162  10.852   3.513  0.7536  0.3967 -0.1058
33465SOL    HW2 3801   0.170  10.710   3.565 -0.5528  0.1015 -0.6789
33466SOL     OW 3802   2.089   8.160   8.553  0.3689 -0.6768 -0.6583
33466SOL    HW1 3803   2.148   8.235   8.548  0.3360 -0.7148 -1.8838
33466SOL    HW2 3804   2.141   8.091   8.592 -0.0678  0.4198  1.9333
33467SOL     OW 3805   8.427  10.638   8.402  0.4390 -0.4467 -0.3059
33467SOL    HW1 3806   8.379  10.709   8.445  1.6283  0.6545 -0.7515
33467SOL    HW2 3807   8.366  10.603   8.338 -0.9597 -1.3624  1.4580
33468SOL     OW 3808   2.286  10.955   3.313 -0.3930  0.5788 -0.5029
33468SOL    HW1 3809   2.287  10.886   3.379  1.5742  0.9702 -0.0933
33468SOL    HW2 3810   2.282  11.036   3.364  1.3406  0.8857 -0.8423
33469SOL     OW 3811  10.494   0.067   4.909  0.1411 -0.2313  0.2943
33469SOL    HW1 3812  10.435   0.006   4.865  1.0844 -0.2351 -1.0117
33469SOL    HW2 3813  10.469   0.153   4.877  1.5297 -0.3275 -1.1446
33470SOL     OW 3814   1.672   1.669   1.305  0.3814  0.1221 -0.1340
33470SOL    HW1 3815   1.593   1.644   1.352  1.1491 -0.0989  1.0505
33470SOL    HW2 3816   1.737   1.686   1.373  2.0395 -1.9903 -1.1200
33471SOL     OW 3817   6.747   8.363   6.189 -0.6905 -0.1032  0.7932
33471SOL    HW1 3818   6.706   8.423   6.251  0.8142  1.5985  0.1724
33471SOL    HW2 3819   6.768   8.286   6.241 -1.2391  0.5189  1.9614
33472SOL     OW 3820   0.988   1.675   0.466  0.5429 -0.3917  0.0545
33472SOL    HW1 3821   1.045   1.609   0.425 -0.5788 -0.5963 -1.1776
33472SOL    HW2 3822   0.899   1.645   0.447  0.0106  0.1244  1.6668
33473SOL     OW 3823  10.602   5.655   2.517 -0.2378  0.1363  0.0483
33473SOL    HW1 3824  10.614   5.740   2.475  0.7930 -0.4319 -0.8322
33473SOL    HW2 3825  10.512   5.631   2.496 -0.6489  1.1609  0.5940
33474SOL     OW 3826   5.983   0.416   8.147  0.3005 -0.0772 -0.3371
33474SOL    HW1 3827   5.896   0.429   8.109  0.0136 -0.5650  0.1511
33474SOL    HW2 3828   5.967   0.400   8.240  0.8207 -1.2598 -0.4378
33475SOL     OW 3829   2.967   3.000   9.953  0.4125  0.0237  0.1014
33475SOL    HW1 3830   3.027   3.072   9.973 -0.7598  0.3206  2.6905
33475SOL    HW2 3831   2.923   3.027   9.873  0.5588  1.8326  0.6246
33476SOL     OW 3832   7.732   7.888   4.160 -0.0384  0.2380 -0.2918
33476SOL    HW1 3833   7.753   7.961   4.103  0.8800  0.2882  0.1155
33476SOL    HW2 3834   7.638   7.873   4.146  0.1440  0.3825 -1.6470
33477SOL     OW 3835   9.061   4.767   1.570 -0.2719  0.4426 -0.1660
33477SOL    HW1 3836   9.057   4.703   1.500  3.1972 -0.3702  0.2881
33477SOL    HW2 3837   9.146   4.809   1.560 -0.7301  2.0355  2.0946
33478SOL     OW 3838   6.689   1.625   1.394 -0.2113  0.2877 -0.8918
33478SOL    HW1 3839   6.725   1.680   1.325 -1.3169  0.2805 -1.4890
33478SOL    HW2 3840   6.765   1.591   1.441  0.5605 -0.0560 -2.3884
33479SOL     OW 3841   3.852   7.099   7.260 -0.0512  0.3532 -0.3205
33479SOL    HW1 3842   3.924   7.155   7.286  1.1366 -1.0132 -0.5779
33479SOL    HW2 3843   3.860   7.092   7.165  0.0225 -0.4932 -0.2629
33480SOL     OW 3844   9.186   4.972   7.751  0.5648  0.3587 -0.0566
33480SOL    HW1 3845   9.125   4.927   7.693  1.4218 -0.9287  0.0195
33480SOL    HW2 3846   9.259   4.910   7.762  2.3620  2.2286 -0.9437
33481SOL     OW 3847   2.598  10.736   4.229  0.2576  0.0321 -0.8444
33481SOL    HW1 3848   2.683  10.695   4.213  1.1472  0.8919  1.4857
33481SOL    HW2 3849   2.534  10.669   4.203  1.6490 -1.4200 -0.6279
33482SOL     OW 3850   9.356   2.105   6.963 -0.0834  0.4768  0.2115
33482SOL    HW1 3851   9.445   2.074   6.944 -0.5327 -0.6969 -0.0641
33482SOL    HW2 3852   9.312   2.102   6.878 -0.5545  0.4621  0.4545
33483SOL     OW 3853   7.340   6.516   5.763 -0.4101  0.5839 -0.1041
33483SOL    HW1 3854   7.409   6.569   5.722  0.4196 -0.7123 -0.4082
33483SOL    HW2 3855   7.380   6.430   5.775 -1.3551  0.3474  1.4853
33484SOL     OW 3856   4.943   4.777   6.344  0.2143  0.0305 -0.3488
33484SOL    HW1 3857   5.031   4.750   6.370  0.6478 -0.6552 -2.3929
33484SOL    HW2 3858   4.904   4.698   6.306 -1.0044  0.5293 -0.1631
33485SOL     OW 3859   6.730   5.140   6.420  0.2537  0.3284 -0.7558
33485SOL    HW1 3860   6.677   5.203   6.371  0.6854  0.0539 -1.6049
33485SOL    HW2 3861   6.710   5.056   6.378  0.4061  0.0444 -0.2554
33486SOL     OW 3862   2.954   6.479   3.523  0.7195 -0.1126 -0.4177
33486SOL    HW1 3863   3.006   6.507   3.598  0.5042  0.4022 -0.4592
33486SOL    HW2 3864   2.912   6.398   3.553 -1.1556  1.2651  0.8371
33487SOL     OW 3865   7.432   0.380   1.833  0.1192 -0.4426 -0.2898
33487SOL    HW1 3866   7.477   0.360   1.751  2.1598  2.5720  0.0260
33487SOL    HW2 3867   7.387   0.462   1.816 -0.6095 -0.5223  1.1932
33488SOL     OW 3868   4.072   6.135   9.641 -0.4595  0.0742  0.4699
33488SOL    HW1 3869   4.015   6.087   9.701  1.0906 -1.3629  0.8189
33488SOL    HW2 3870   4.158   6.134   9.684  0.6219 -0.7787 -1.6451
33489SOL     OW 3871   2.193   8.625   2.758 -0.0905  0.1684 -0.1853
33489SOL    HW1 3872   2.253   8.654   2.828 -0.2840 -1.0156  0.4976
33489SOL    HW2 3873   2.111   8.607   2.804 -0.7750  1.1449 -1.0200
33490SOL     OW 3874   2.247   6.237   3.528  0.4164 -0.3513 -0.5358
33490SOL    HW1 3875   2.317   6.265   3.587 -1.1821  0.6382  0.9422
33490SOL    HW2 3876   2.281   6.256   3.440  1.7504  0.7059  0.1864
33491SOL     OW 3877   6.047   6.919   4.329 -0.3012  0.1177  0.8898
33491SOL    HW1 3878   5.956   6.931   4.304 -0.5714  0.3886  1.9629
33491SOL    HW2 3879   6.042   6.885   4.419  0.6260 -0.7768  0.6103
33492SOL     OW 3880   9.300   7.169  10.796 -0.1221  0.4206 -0.6622
33492SOL    HW1 3881   9.360   7.096  10.784 -0.7160  0.0303 -1.2938
33492SOL    HW2 3882   9.357   7.246  10.799  0.5385 -0.1103  0.4866
33493SOL     OW 3883   7.458   3.023   4.167  0.0855  0.8073 -0.2547
33493SOL    HW1 3884   7.382   2.986   4.123  0.2577  0.1173  0.0188
33493SOL    HW2 3885   7.438   3.015   4.260  0.9826 -0.4231 -0.1670
33494SOL     OW 3886   0.713   8.794   4.977 -0.4628  0.4094  0.5360
33494SOL    HW1 3887   0.708   8.764   5.067 -0.6467  0.1576  0.4422
33494SOL    HW2 3888   0.735   8.887   4.984 -0.7736  0.4618  0.8459
33495SOL     OW 3889  10.663   0.237   2.716  0.2653  0.2335  0.2883
33495SOL    HW1 3890  10.580   0.203   2.749  0.4896 -0.3295  0.2828
33495SOL    HW2 3891  10.644   0.264   2.626  0.4472 -1.3217 -0.2385
33496SOL     OW 3892   2.399   7.376   0.234  0.1217 -0.0190 -0.5015
33496SOL    HW1 3893   2.430   7.461   0.203  1.2594 -0.7057 -1.2811
33496SOL    HW2 3894   2.387   7.324   0.155 -2.0940 -0.1042 -0.1424
33497SOL     OW 3895   4.358   4.264   4.010  0.3461  0.1651  0.3051
33497SOL    HW1 3896   4.303   4.211   3.952  0.4385 -0.3099  0.6495
33497SOL    HW2 3897   4.301   4.283   4.085 -0.3396  2.1719 -0.6559
33498SOL     OW 3898   3.663   3.318   1.738 -0.1225  0.4249  0.2660
33498SOL    HW1 3899   3.578   3.274   1.740 -0.2749  0.7224  0.3210
33498SOL    HW2 3900   3.674   3.346   1.647 -0.5901  1.3793  0.5055
33499SOL     OW 3901  10.329   8.999   3.465  0.6149 -0.0741 -0.0534
33499SOL    HW1 3902  10.360   9.072   3.518  1.1656  0.3051 -0.9003
33499SOL    HW2 3903  10.299   8.934   3.530  2.0803  0.0240  0.7450
33500SOL     OW 3904   3.022   1.404   1.765  0.4132  0.3256 -0.0691
33500SOL    HW1 3905   2.927   1.402   1.782 -0.0671  2.7751 -2.1421
33500SOL    HW2 3906   3.041   1.318   1.726 -1.1585  0.1799 -0.5784
33501SOL     OW 3907   6.099   0.435   1.076 -0.6806  0.1125  0.3985
33501SOL    HW1 3908   6.074   0.506   1.136 -1.5573  0.2815 -0.1763
33501SOL    HW2 3909   6.191   0.453   1.056 -0.4734  0.2513  1.4197
33502SOL     OW 3910   3.342   6.185   7.113 -0.7204 -0.5447  0.5296
33502SOL    HW1 3911   3.259   6.149   7.145 -0.6145 -0.2729  1.1135
33502SOL    HW2 3912   3.373   6.241   7.184 -0.3167 -0.1988  0.0838
33503SOL     OW 3913  10.737   9.303   0.373  1.0582 -0.2261  0.1878
33503SOL    HW1 3914  10.798   9.342   0.310 -1.4367  1.5079 -1.2303
33503SOL    HW2 3915  10.777   9.320   0.458  2.0478  1.8575 -0.6546
33504SOL     OW 3916   8.821  10.777  10.287  0.0643  0.4700 -0.6116
33504SOL    HW1 3917   8.796  10.843  10.352 -2.4304 -0.8150 -0.2047
33504SOL    HW2 3918   8.738  10.748  10.249  1.2939 -0.7922 -2.4133
33505SOL     OW 3919   6.564   5.446   1.016  0.0569  0.1174  1.0413
33505SOL    HW1 3920   6.555   5.498   0.936  0.3714 -0.5725  0.5498
33505SOL    HW2 3921   6.511   5.493   1.081  0.9150  1.4384  0.8093
33506SOL     OW 3922   8.895   0.559   1.670 -0.4849 -0.1064 -0.1023
33506SOL    HW1 3923   8.890   0.561   1.766 -1.7294  2.1660 -0.1811
33506SOL    HW2 3924   8.980   0.599   1.650 -1.1833  1.5099  0.0301
33507SOL     OW 3925   9.510  10.369   9.267 -0.2952 -0.1806 -0.1504
33507SOL    HW1 3926   9.548  10.405   9.347 -2.0010  1.6509 -0.1426
33507SOL    HW2 3927   9.576  10.385   9.200  0.1644  0.3931  0.4314
33508SOL     OW 3928   4.261   2.637   8.803  0.8019 -0.3883  0.3925
33508SOL    HW1 3929   4.193   2.701   8.782 -0.3709 -2.1322 -1.3320
33508SOL    HW2 3930   4.309   2.626   8.722  1.3995 -1.2000  0.8496
33509SOL     OW 3931  10.681   8.337   2.650 -0.4825 -0.2819 -0.0374
33509SOL    HW1 3932  10.752   8.307   2.592 -0.5092 -0.3228 -0.0493
33509SOL    HW2 3933  10.727   8.381   2.722 -0.5063  0.9151 -0.7498
33510SOL     OW 3934   8.125   3.436   0.248 -0.4902 -0.7395  0.1996
33510SOL    HW1 3935   8.178   3.408   0.322  0.1879 -0.7219 -0.2774
33510SOL    HW2 3936   8.186   3.439   0.174 -0.9052  0.4066 -0.1072
33511SOL     OW 3937   5.267   0.195   3.107 -0.0189 -0.1514  0.1308
33511SOL    HW1 3938   5.336   0.200   3.173  0.2745  0.2513 -0.1985
33511SOL    HW2 3939   5.186   0.202   3.156  0.1631 -0.9714  0.5599
33512SOL     OW 3940   4.821   5.481   5.272  0.2418  0.0136 -0.1358
33512SOL    HW1 3941   4.737   5.473   5.227  0.1588 -3.2077  0.5018
33512SOL    HW2 3942   4.829   5.575   5.291 -2.9380  0.4513 -0.6628
33513SOL     OW 3943   6.615   2.805   6.554  0.1276 -0.3128 -0.0880
33513SOL    HW1 3944   6.521   2.813   6.535  0.4628  0.1789 -1.6519
33513SOL    HW2 3945   6.652   2.890   6.530  0.6952  0.1752  2.3968
33514SOL     OW 3946   8.320   1.960   5.700 -0.1338 -0.4233  0.1109
33514SOL    HW1 3947   8.242   1.948   5.753  0.0027 -2.8774 -0.1760
33514SOL    HW2 3948   8.312   1.894   5.631  2.0487 -0.5445 -0.0625
33515SOL     OW 3949   7.523   6.307   2.879 -0.4667  0.4203 -0.1450
33515SOL    HW1 3950   7.521   6.375   2.946 -0.4405  0.6630 -0.3909
33515SOL    HW2 3951   7.616   6.283   2.872 -0.3599  1.0085 -0.7166
33516SOL     OW 3952   5.589   0.976  10.943 -0.3978  0.4343 -0.3467
33516SOL    HW1 3953   5.539   0.994  11.023 -0.7293  0.0319 -0.4549
33516SOL    HW2 3954   5.634   1.057  10.923 -0.7002  0.6842 -0.0176
33517SOL     OW 3955   9.195   6.369   8.234  0.2480  0.0576  0.2794
33517SOL    HW1 3956   9.130   6.318   8.185 -2.5541  2.1353  1.6708
33517SOL    HW2 3957   9.261   6.392   8.168 -1.8257  0.2012 -1.8436
33518SOL     OW 3958   4.927   9.355   3.510  0.3784 -0.0647  0.8228
33518SOL    HW1 3959   4.994   9.421   3.496  1.0778 -0.9417 -0.0139
33518SOL    HW2 3960   4.964   9.275   3.474 -0.6454 -0.8133  1.4134
33519SOL     OW 3961   9.196  10.496   6.929 -0.5395  0.0631 -0.0932
33519SOL    HW1 3962   9.224  10.439   7.001 -1.2518 -0.8904 -0.5454
33519SOL    HW2 3963   9.186  10.582   6.968 -2.4037 -0.7644  1.3167
33520SOL     OW 3964   5.151   2.825   3.536  0.3522  0.2586 -0.1152
33520SOL    HW1 3965   5.183   2.798   3.450  0.3556 -1.1481  0.3179
33520SOL    HW2 3966   5.203   2.775   3.598 -0.5462  0.2833  0.6694
33521SOL     OW 3967   9.294   9.349   6.392 -0.0995  0.9782  0.7945
33521SOL    HW1 3968   9.261   9.291   6.323 -0.4183  1.5865  0.4327
33521SOL    HW2 3969   9.243   9.327   6.470  1.5083 -0.9956  1.3305
33522SOL     OW 3970   8.182   8.036   7.571  0.1024  0.0968 -0.2780
33522SOL    HW1 3971   8.124   7.985   7.515 -0.1417 -0.5866  0.5837
33522SOL    HW2 3972   8.164   8.004   7.659  3.3862 -1.6803 -0.1794
33523SOL     OW 3973   9.259   7.616   0.644 -0.1572  0.5250 -0.1363
33523SOL    HW1 3974   9.274   7.564   0.723 -1.6469 -0.1781 -0.2918
33523SOL    HW2 3975   9.244   7.705   0.675 -1.5940  0.0895  0.4457
33524SOL     OW 3976   8.194   5.698   3.178  0.4434  0.7019  0.2797
33524SOL    HW1 3977   8.250   5.623   3.155  1.9912  1.7697  0.4398
33524SOL    HW2 3978   8.111   5.659   3.204  1.1491 -0.9474  0.1351
33525SOL     OW 3979   8.791  10.913   9.857  0.0678  0.0290 -0.1629
33525SOL    HW1 3980   8.880  10.904   9.891 -0.6715  1.1758  2.2085
33525SOL    HW2 3981   8.761  10.823   9.846  1.4458 -0.3708 -0.8300
33526SOL     OW 3982   8.465   1.733   7.390  0.5177 -0.0190  0.0496
33526SOL    HW1 3983   8.383   1.716   7.437  1.0869  2.1745  1.9183
33526SOL    HW2 3984   8.439   1.741   7.298 -0.7075 -3.7206 -0.0114
33527SOL     OW 3985   4.762   4.149   7.872 -0.2806 -0.3320 -0.2918
33527SOL    HW1 3986   4.709   4.199   7.811 -2.2381  0.6424  2.0952
33527SOL    HW2 3987   4.787   4.070   7.824  1.2340  1.9841 -3.4877
33528SOL     OW 3988  10.576   6.187   5.633  0.3044  0.6609  0.3736
33528SOL    HW1 3989  10.622   6.107   5.661  1.2844  0.7639 -0.9094
33528SOL    HW2 3990  10.547   6.168   5.544 -0.2736  1.3998  0.4008
33529SOL     OW 3991   5.710   5.819  10.964 -1.1133 -0.2141  0.1500
33529SOL    HW1 3992   5.722   5.771  11.046  0.3823 -1.0547 -0.5451
33529SOL    HW2 3993   5.624   5.860  10.973 -0.1670  1.3335  2.9509
33530SOL     OW 3994   7.107   2.828   1.457 -0.3775  0.1545  0.1907
33530SOL    HW1 3995   7.165   2.765   1.413  0.4293  0.8385  0.2553
33530SOL    HW2 3996   7.159   2.860   1.531 -1.4817 -0.4965  1.2653
33531SOL     OW 3997   9.029  10.890   4.200  0.1127  0.3328  0.2834
33531SOL    HW1 3998   9.005  10.974   4.240 -1.2898  0.4333 -0.7732
33531SOL    HW2 3999   9.124  10.885   4.213  0.2650  2.2353  0.0775
33532SOL     OW 4000   8.821   1.259   8.132 -0.6319 -0.5961 -1.0192
33532SOL    HW1 4001   8.785   1.174   8.159 -3.0306  0.9687  0.9774
33532SOL    HW2 4002   8.898   1.271   8.187 -1.9550 -0.1965  0.7650
33533SOL     OW 4003   8.782   2.422   9.923 -0.7282 -0.1237 -0.0420
33533SOL    HW1 4004   8.715   2.416   9.855 -1.8011  1.9570  0.7872
33533SOL    HW2 4005   8.827   2.505   9.905  0.5342 -0.6975  0.3998
33534SOL     OW 4006   5.107   2.168   6.058 -0.2666 -0.5274  0.3467
33534SOL    HW1 4007   5.092   2.159   5.964 -1.2078 -0.0676  0.4419
33534SOL    HW2 4008   5.194   2.206   6.065  1.0957 -3.3817 -0.2399
33535SOL     OW 4009   1.988   9.296   5.867 -0.1692  0.3039  0.2023
33535SOL    HW1 4010   2.030   9.231   5.924  0.2283  0.8715  0.5652
33535SOL    HW2 4011   1.965   9.368   5.926  2.4771  1.9954 -0.6943
33536SOL     OW 4012   7.140   4.290   7.840  0.3252  0.2210 -0.5889
33536SOL    HW1 4013   7.045   4.284   7.831  0.1539  1.2588  0.3791
33536SOL    HW2 4014   7.170   4.326   7.757  0.0116 -1.2974 -1.3760
33537SOL     OW 4015   4.171   7.005   5.970  0.0744 -0.3577  0.4859
33537SOL    HW1 4016   4.214   7.011   5.885 -1.2031  2.1248 -0.0464
33537SOL    HW2 4017   4.234   7.043   6.031  0.5374 -1.1070  0.4800
33538SOL     OW 4018   6.791   3.122   3.612  0.0140  0.2149 -0.0204
33538SOL    HW1 4019   6.753   3.117   3.524  0.3208 -2.4074 -0.0319
33538SOL    HW2 4020   6.719   3.155   3.666 -1.7047 -2.6900 -0.4258
33539SOL     OW 4021  10.551   7.357   8.748  0.4641  0.2775  0.0439
33539SOL    HW1 4022  10.583   7.446   8.766 -1.0567  1.5770 -3.2347
33539SOL    HW2 4023  10.607   7.300   8.801  0.7427  3.2417  3.1056
33540SOL     OW 4024   5.027   2.212   6.828 -0.1006  0.1620  0.5100
33540SOL    HW1 4025   5.059   2.126   6.854 -0.5374  0.1584  1.0396
33540SOL    HW2 4026   5.018   2.207   6.733 -0.0824 -0.3560  0.5387
33541SOL     OW 4027   1.451   9.938   9.233  0.0998  0.3351  0.5557
33541SOL    HW1 4028   1.459   9.913   9.141  1.1075 -0.8187  0.9465
33541SOL    HW2 4029   1.491   9.866   9.282  0.5724  1.4390  1.8451
33542SOL     OW 4030   7.791  10.559   0.881 -0.0871 -0.1990 -0.3756
33542SOL    HW1 4031   7.837  10.635   0.847  0.8313 -0.0528  1.1494
33542SOL    HW2 4032   7.699  10.575   0.861  0.0316  1.6014  0.4743
33543SOL     OW 4033   2.803   2.066   2.872  0.0263  0.4939 -0.3535
33543SOL    HW1 4034   2.771   2.061   2.962 -1.1301  0.0593 -0.7810
33543SOL    HW2 4035   2.895   2.040   2.877 -0.2407 -0.2838  0.5902
33544SOL     OW 4036   1.769   5.562   5.634  0.1847  0.2297 -0.4752
33544SOL    HW1 4037   1.730   5.639   5.676  0.6058 -0.2699  0.8260
33544SOL    HW2 4038   1.737   5.566   5.543 -3.0788 -0.2986  0.5996
33545SOL     OW 4039   7.987   3.208   0.096  0.0299  0.3595 -0.0128
33545SOL    HW1 4040   7.967   3.261   0.019  0.0854 -1.3472 -1.2404
33545SOL    HW2 4041   8.058   3.256   0.140  0.6077  0.9199 -1.5053
33546SOL     OW 4042   7.141   0.015   6.637  0.0807  0.4175 -0.0509
33546SOL    HW1 4043   7.167  -0.056   6.696  1.6309 -0.2855 -1.5180
33546SOL    HW2 4044   7.192   0.090   6.667  0.0891  0.3405  0.1357
33547SOL     OW 4045  10.521  10.475   5.217  0.1963  0.1759 -0.0187
33547SOL    HW1 4046  10.514  10.566   5.247 -0.1701  0.2037 -0.1924
33547SOL    HW2 4047  10.439  10.434   5.244  0.5019 -0.1921  0.3663
33548SOL     OW 4048   6.796   9.209   1.579 -0.5413 -0.6210  0.1997
33548SOL    HW1 4049   6.789   9.298   1.545  0.3240 -0.5173  0.2759
33548SOL    HW2 4050   6.706   9.177   1.582 -0.6750 -0.5632 -2.0263
33549SOL     OW 4051   6.496   7.422   4.387  0.1775 -0.0350  0.3919
33549SOL    HW1 4052   6.486   7.416   4.482 -1.6424 -1.7245  0.1072
33549SOL    HW2 4053   6.582   7.384   4.370 -0.0089 -0.8430  1.2432
33550SOL     OW 4054   8.914   4.989   0.271 -0.2612  0.1172 -0.0362
33550SOL    HW1 4055   8.914   5.007   0.365 -2.1269  0.5109 -0.0852
33550SOL    HW2 4056   8.852   4.917   0.260 -0.7615  0.6858 -1.0578
33551SOL     OW 4057   0.877   8.311   3.841 -0.1428 -0.1303 -0.5399
33551SOL    HW1 4058   0.852   8.403   3.850 -0.1602 -0.1953  0.0992
33551SOL    HW2 4059   0.809   8.273   3.786 -0.6094  0.0404 -0.0819
33552SOL     OW 4060   2.057   9.356   5.039 -0.5330 -0.0170 -0.3333
33552SOL    HW1 4061   2.043   9.436   4.988  1.5318  1.2420  1.0155
33552SOL    HW2 4062   1.991   9.359   5.107 -2.4063 -1.0138 -2.0392
33553SOL     OW 4063   4.181   0.281   4.104 -0.3941 -0.0883  0.7160
33553SOL    HW1 4064   4.200   0.348   4.038 -0.9635 -1.5352 -0.9358
33553SOL    HW2 4065   4.262   0.276   4.156 -0.3850  1.9372  0.9421
33554SOL     OW 4066   5.720   3.457   2.328  0.3245  0.2339 -1.3244
33554SOL    HW1 4067   5.629   3.434   2.350  0.6696 -0.0960 -0.2305
33554SOL    HW2 4068   5.773   3.402   2.386  1.1939  2.0753 -0.3452
33555SOL     OW 4069   4.239   7.214   0.437 -0.3132 -0.3341  0.4046
33555SOL    HW1 4070   4.292   7.207   0.358 -0.5041  1.0862  0.1421
33555SOL    HW2 4071   4.272   7.145   0.494 -0.8967 -2.0840 -1.3338
33556SOL     OW 4072   3.039   1.043  10.523 -0.2417 -0.2406 -0.2833
33556SOL    HW1 4073   2.960   1.017  10.475 -1.9607  0.4331  2.0724
33556SOL    HW2 4074   3.018   1.130  10.557  0.9449 -0.6562  1.5670
33557SOL     OW 4075   7.213   6.443   0.498 -0.3558 -0.0998  0.0866
33557SOL    HW1 4076   7.162   6.443   0.579  0.7568  0.9489  0.7942
33557SOL    HW2 4077   7.175   6.513   0.445 -2.2517 -1.9218 -1.0904
33558SOL     OW 4078   1.356  10.233   6.162  0.1341  0.2053  0.0811
33558SOL    HW1 4079   1.440  10.240   6.209 -0.3585 -0.7915  1.1503
33558SOL    HW2 4080   1.359  10.146   6.123 -0.4497  0.1228  0.2251
33559SOL     OW 4081  10.702   1.605   5.924  0.3682 -0.3050 -0.4997
33559SOL    HW1 4082  10.751   1.553   5.988 -0.0838 -0.0005  0.0871
33559SOL    HW2 4083  10.613   1.570   5.927  0.4531 -0.5965 -1.2906
33560SOL     OW 4084   9.763   2.428   3.220 -0.4292  0.2296  0.4888
33560SOL    HW1 4085   9.820   2.469   3.155  0.8758  1.0978  2.1267
33560SOL    HW2 4086   9.701   2.377   3.169  1.8724 -0.8206 -1.3550
33561SOL     OW 4087   4.755   6.785  10.841  0.6769  0.8725 -0.3367
33561SOL    HW1 4088   4.676   6.757  10.887  1.1665  0.0736  0.0223
33561SOL    HW2 4089   4.723   6.844  10.773 -0.3542 -0.5206 -1.0855
33562SOL     OW 4090   3.800   4.664  10.742  0.3451  0.1094  0.3091
33562SOL    HW1 4091   3.714   4.632  10.715  1.2205 -0.4737 -1.9396
33562SOL    HW2 4092   3.789   4.759  10.748 -0.8420 -0.0902  1.6059
33563SOL     OW 4093   9.506   7.457   4.427  0.4810  0.1981 -0.1986
33563SOL    HW1 4094   9.494   7.455   4.522 -0.2431  0.5037 -0.2843
33563SOL    HW2 4095   9.441   7.519   4.396 -0.9753 -1.7597 -1.1666
33564SOL     OW 4096   7.480   3.866   1.141  0.0028  0.1182 -0.6462
33564SOL    HW1 4097   7.483   3.955   1.105  1.0081  0.5414  0.4292
33564SOL    HW2 4098   7.410   3.869   1.206  1.2812  0.6780  0.7429
33565SOL     OW 4099   1.354   1.757   3.154  0.7004  0.2394  0.4805
33565SOL    HW1 4100   1.424   1.707   3.196  0.0175  2.0811  4.0265
33565SOL    HW2 4101   1.274   1.730   3.201 -0.1145  2.3066  0.3329
33566SOL     OW 4102   3.608   6.858   6.341 -0.8986 -0.5721  0.3180
33566SOL    HW1 4103   3.528   6.903   6.316 -0.5205 -0.2726 -0.3560
33566SOL    HW2 4104   3.656   6.922   6.393 -0.0646  0.0452 -1.1844
33567SOL     OW 4105   4.445   1.454   2.778  0.5448  0.3463 -0.6028
33567SOL    HW1 4106   4.472   1.384   2.838  0.8903 -0.4629 -1.6726
33567SOL    HW2 4107   4.498   1.529   2.803  1.7184 -0.4001 -0.8144
33568SOL     OW 4108  10.674   0.474   6.824 -0.7752 -1.0575  0.0073
33568SOL    HW1 4109  10.701   0.404   6.766 -2.1620 -0.7136 -1.0896
33568SOL    HW2 4110  10.749   0.533   6.828 -0.4684 -1.3774 -0.9986
33569SOL     OW 4111  10.036   0.984   2.437  0.4158  0.3965  0.0588
33569SOL    HW1 4112   9.999   0.896   2.427 -1.1368  0.9094  0.9430
33569SOL    HW2 4113  10.109   0.973   2.498  0.3501 -0.3061  0.0111
33570SOL     OW 4114   0.215   1.096   4.905 -0.0651 -0.1483 -0.5307
33570SOL    HW1 4115   0.129   1.065   4.932 -0.2400  0.2981 -0.5810
33570SOL    HW2 4116   0.199   1.142   4.822  0.0121  1.1710  0.1866
33571SOL     OW 4117   6.800   3.779   0.103  0.3466  0.5237 -0.3632
33571SOL    HW1 4118   6.857   3.773   0.179  0.9762  0.9693 -0.8011
33571SOL    HW2 4119   6.858   3.771   0.027 -0.4594 -1.5555 -0.8014
33572SOL     OW 4120   0.152   5.840   3.786  0.2132 -0.1003 -0.4016
33572SOL    HW1 4121   0.109   5.872   3.707 -0.4632  0.1395  0.0636
33572SOL    HW2 4122   0.091   5.861   3.857  1.4349  0.9713  0.3574
33573SOL     OW 4123   2.144   0.648   2.916 -0.3144 -0.1164  0.1122
33573SOL    HW1 4124   2.203   0.684   2.982 -0.5829 -0.4351  0.5321
33573SOL    HW2 4125   2.069   0.708   2.917  0.2000  0.5448 -0.7444
33574SOL     OW 4126   3.632   3.839   0.144  0.4002  0.0140 -0.7581
33574SOL    HW1 4127   3.677   3.921   0.123  0.6246  0.3451  0.9773
33574SOL    HW2 4128   3.558   3.837   0.082  0.4521  1.4722 -0.8981
33575SOL     OW 4129   5.103  10.967   3.435  0.7581  0.1721 -0.2820
33575SOL    HW1 4130   5.141  10.906   3.372 -0.1806  0.3692 -1.0511
33575SOL    HW2 4131   5.151  10.950   3.516  1.1157 -0.9702 -0.7164
33576SOL     OW 4132   6.932   2.675   6.467  0.0910  0.4328  0.1358
33576SOL    HW1 4133   6.996   2.635   6.408  0.2897 -2.0970  1.9635
33576SOL    HW2 4134   6.857   2.614   6.465 -0.6134  1.2545  1.1134
33577SOL     OW 4135   8.957   8.698   9.036  0.3651  0.2003  0.1783
33577SOL    HW1 4136   8.958   8.789   9.067  1.9611  1.3784 -3.0551
33577SOL    HW2 4137   9.027   8.656   9.086 -0.1906  0.8037  1.4953
33578SOL     OW 4138   2.051  10.198   6.209 -0.4077 -0.1543  0.6273
33578SOL    HW1 4139   2.070  10.111   6.174  0.5028  0.8597 -1.5404
33578SOL    HW2 4140   1.998  10.240   6.141  2.2149  2.2277 -0.0524
33579SOL     OW 4141   4.338   2.944   4.406 -0.0763 -0.1743  0.2819
33579SOL    HW1 4142   4.398   2.920   4.477  1.1030  1.5176 -0.1225
33579SOL    HW2 4143   4.394   2.983   4.339 -1.5770  0.9891 -0.3073
33580SOL     OW 4144   2.069  10.474   5.654  0.0778 -0.2181 -0.0475
33580SOL    HW1 4145   2.019  10.409   5.606  0.6256 -0.9327  0.3445
33580SOL    HW2 4146   2.148  10.487   5.600  0.0554 -0.0184 -0.0316
33581SOL     OW 4147   1.740   1.592   4.345  0.0631  0.3010 -0.0994
33581SOL    HW1 4148   1.752   1.518   4.405 -1.4404  0.6287  0.6345
33581SOL    HW2 4149   1.708   1.663   4.401  2.0864  1.7346 -0.6801
33582SOL     OW 4150   7.868   5.531  10.908 -0.0100 -0.4392 -0.2552
33582SOL    HW1 4151   7.863   5.624  10.890 -1.8270 -0.1823  1.4197
33582SOL    HW2 4152   7.779   5.506  10.934  0.3525 -2.7142 -1.0236
33583SOL     OW 4153   8.537   0.200   3.213  0.1668 -0.2033 -0.2278
33583SOL    HW1 4154   8.571   0.290   3.215  2.5183 -1.0691  1.6607
33583SOL    HW2 4155   8.484   0.192   3.292 -1.7928  0.1052 -1.4609
33584SOL     OW 4156   1.671   8.411   5.176  0.4174  0.3643  0.2161
33584SOL    HW1 4157   1.688   8.358   5.099  2.4263  0.5022  0.5469
33584SOL    HW2 4158   1.596   8.465   5.152 -0.5956 -1.4194 -0.7052
33585SOL     OW 4159  10.384  10.558   1.236  0.2112 -0.6850  0.0175
33585SOL    HW1 4160  10.310  10.616   1.253 -0.4995 -2.0189  1.5978
33585SOL    HW2 4161  10.352  10.496   1.171 -0.2847 -1.6633  1.1839
33586SOL     OW 4162   4.517   6.335  10.858  0.2782 -0.3787 -0.2505
33586SOL    HW1 4163   4.492   6.293  10.775 -0.2331  1.4320 -1.0372
33586SOL    HW2 4164   4.594   6.387  10.835  0.0313  0.2649  0.3858
33587SOL     OW 4165  10.417   7.021   0.373 -0.0264  0.2373  0.0301
33587SOL    HW1 4166  10.327   6.988   0.371  0.1742 -0.2956 -0.6443
33587SOL    HW2 4167  10.464   6.960   0.430 -0.1077  0.5674  0.4549
33588SOL     OW 4168   6.986   2.478   1.736  0.5635  0.1948 -0.9041
33588SOL    HW1 4169   6.949   2.524   1.661  2.0648  0.4255 -1.5137
33588SOL    HW2 4170   7.060   2.429   1.700  0.7439 -0.4136  0.2695
33589SOL     OW 4171   9.232   0.066   4.423  0.3672  0.0829  0.4453
33589SOL    HW1 4172   9.147   0.049   4.463  0.0304  0.5288 -0.0574
33589SOL    HW2 4173   9.282   0.110   4.491 -0.8629  2.5936 -0.2065
33590SOL     OW 4174   6.413   2.713   0.376  0.1208 -0.3251  0.0208
33590SOL    HW1 4175   6.439   2.760   0.296  1.2831 -1.2746 -0.1675
33590SOL    HW2 4176   6.336   2.662   0.349  0.7854 -1.0040 -0.6327
33591SOL     OW 4177   4.946   1.357   8.009  0.3876 -0.7285  0.2331
33591SOL    HW1 4178   4.861   1.320   7.985 -0.3053  1.1396 -0.2827
33591SOL    HW2 4179   4.954   1.341   8.103 -1.8092  1.4798  0.8491
33592SOL     OW 4180   7.751   9.522   6.861 -0.0165 -0.2650 -0.0391
33592SOL    HW1 4181   7.723   9.595   6.806 -1.4738 -0.2828  0.6573
33592SOL    HW2 4182   7.709   9.445   6.823  0.4397 -0.5467  0.0235
33593SOL     OW 4183  10.037   4.009  10.409  0.6445  0.6014 -0.1416
33593SOL    HW1 4184  10.083   3.939  10.364 -1.6573  0.3314 -2.1567
33593SOL    HW2 4185  10.073   4.090  10.372  0.0040  0.4046 -1.1987
33594SOL     OW 4186  10.407   1.100   0.015 -0.7246 -0.5856 -0.3347
33594SOL    HW1 4187  10.483   1.156   0.024 -1.2232 -0.2040  1.7962
33594SOL    HW2 4188  10.369   1.124  -0.070 -0.6698  1.9812  0.3358
33595SOL     OW 4189   2.345   5.694   4.537  0.0616  0.0022  0.6199
33595SOL    HW1 4190   2.258   5.703   4.576 -1.3966 -0.5837 -2.2767
33595SOL    HW2 4191   2.394   5.771   4.565 -1.5036  0.4782  2.0654
33596SOL     OW 4192   4.844   2.726   6.977 -0.1747  0.1041  0.3726
33596SOL    HW1 4193   4.893   2.727   7.058 -0.1998 -0.4182  0.3994
33596SOL    HW2 4194   4.903   2.685   6.913  0.1482  1.2405 -0.0734
33597SOL     OW 4195   7.491   7.828  10.539 -0.2523 -0.0999 -0.0176
33597SOL    HW1 4196   7.518   7.795  10.453 -0.5204 -1.6147  0.4673
33597SOL    HW2 4197   7.464   7.750  10.587  0.4259  0.6724  1.6459
33598SOL     OW 4198   8.971   9.125   5.730 -0.2038 -0.1993  0.5452
33598SOL    HW1 4199   9.058   9.142   5.766 -0.3961  0.0070  0.9264
33598SOL    HW2 4200   8.955   9.199   5.672  0.0227 -0.4224  0.1991
33599SOL     OW 4201   5.409   1.378   5.418  0.0479  0.2400  0.1819
33599SOL    HW1 4202   5.451   1.460   5.446  1.6028 -0.2382 -0.6864
33599SOL    HW2 4203   5.342   1.406   5.356 -0.5946  0.9854  1.1938
33600SOL     OW 4204   1.358   6.964   8.708 -0.4603  0.4341  0.4250
33600SOL    HW1 4205   1.402   6.937   8.627 -1.4394  1.0637 -0.3320
33600SOL    HW2 4206   1.277   6.914   8.709 -1.4636  1.9969 -0.0983
33601SOL     OW 4207   9.253   8.880  10.904  0.6835  0.3907 -0.0563
33601SOL    HW1 4208   9.227   8.910  10.816 -0.7843 -1.3227 -0.2336
33601SOL    HW2 4209   9.171   8.876  10.953  1.1870 -0.9274  0.6846
33602SOL     OW 4210   9.831   4.777   9.419 -0.0560 -0.6963  0.1756
33602SOL    HW1 4211   9.836   4.817   9.506  1.1485 -1.1220  0.3184
33602SOL    HW2 4212   9.737   4.771   9.401 -0.3116 -0.2781  1.2974
33603SOL     OW 4213   6.375   6.946  10.678  0.1376  0.4448 -0.3566
33603SOL    HW1 4214   6.385   6.929  10.584  3.2442 -0.5936  0.0842
33603SOL    HW2 4215   6.404   6.864  10.719 -0.2777  1.2273  1.5155
33604SOL     OW 4216   1.849  10.473   5.015  0.1448  0.6838  0.3400
33604SOL    HW1 4217   1.842  10.400   5.077  1.1773  1.0881  0.9482
33604SOL    HW2 4218   1.824  10.550   5.067 -1.6822  0.6878 -0.4995
33605SOL     OW 4219   2.204   5.693  10.612 -0.2117  0.0569 -0.6250
33605SOL    HW1 4220   2.136   5.730  10.556 -2.2500 -0.1729  1.6002
33605SOL    HW2 4221   2.236   5.768  10.663 -0.2398 -0.1926 -0.2359
33606SOL     OW 4222  10.351   7.043   8.553  0.1651  0.3580  0.0988
33606SOL    HW1 4223  10.316   6.954   8.554  0.7927  0.0644 -2.0963
33606SOL    HW2 4224  10.446   7.032   8.556  0.1992  1.1155  4.3906
33607SOL     OW 4225   0.170   4.397   9.881 -0.5593  0.8372  0.1939
33607SOL    HW1 4226   0.076   4.402   9.895 -1.0039 -0.1114 -2.1970
33607SOL    HW2 4227   0.193   4.307   9.904  0.4401  2.0237  4.2310
33608SOL     OW 4228   3.507   9.975   5.003 -0.1553 -0.3652 -0.0213
33608SOL    HW1 4229   3.497  10.043   4.937 -2.0498  1.6527  2.2277
33608SOL    HW2 4230   3.566  10.013   5.069 -0.6897 -1.1411  0.9346
33609SOL     OW 4231   9.463   4.882   4.106 -0.1396  0.5092 -0.2811
33609SOL    HW1 4232   9.372   4.856   4.090 -0.0651  0.3326 -0.4089
33609SOL    HW2 4233   9.508   4.865   4.023  0.2465 -0.3879  0.1085
33610SOL     OW 4234   8.970  10.042   8.421 -0.2016 -0.0270  0.0812
33610SOL    HW1 4235   9.042  10.085   8.374  0.3657  0.5409  1.4532
33610SOL    HW2 4236   9.011   9.968   8.466 -0.7287 -0.5268 -0.2583
33611SOL     OW 4237   9.511   2.440  10.847  0.0972 -0.0534  0.3761
33611SOL    HW1 4238   9.491   2.522  10.893 -0.5980  0.9530 -1.6745
33611SOL    HW2 4239   9.441   2.380  10.874  0.6127 -0.0097  1.8882
33612SOL     OW 4240   5.164   3.039   5.063 -0.1382  0.6797  0.1203
33612SOL    HW1 4241   5.072   3.051   5.038 -0.2797  0.2166  0.4160
33612SOL    HW2 4242   5.207   3.007   4.984 -0.0088  1.9227 -0.3293
33613SOL     OW 4243   4.389   0.440   1.908 -0.1341 -0.5181  0.6232
33613SOL    HW1 4244   4.450   0.420   1.979 -1.5688 -1.6322  1.5785
33613SOL    HW2 4245   4.317   0.378   1.920 -0.4103 -0.7404 -1.8122
33614SOL     OW 4246   6.026   5.501   5.226 -0.2049 -0.4383 -0.2453
33614SOL    HW1 4247   6.098   5.550   5.264  1.4968 -2.1486 -1.1915
33614SOL    HW2 4248   5.997   5.441   5.295  0.7844 -1.3157 -0.5775
33615SOL     OW 4249   3.140   2.576   3.226  0.6473  0.2201  0.2038
33615SOL    HW1 4250   3.045   2.587   3.238  0.4097 -0.2373 -1.1639
33615SOL    HW2 4251   3.177   2.662   3.246 -0.3192  1.1478 -1.8247
33616SOL     OW 4252   2.053   4.535   2.353  0.4248 -0.7651 -0.2853
33616SOL    HW1 4253   2.014   4.539   2.440  2.4677  2.0919  0.5972
33616SOL    HW2 4254   2.128   4.475   2.363  1.5229  0.6758  0.3493
33617SOL     OW 4255   5.289  10.262   0.063  0.0335  0.3097  0.1401
33617SOL    HW1 4256   5.262  10.285  -0.025  0.1903  0.0039  0.0094
33617SOL    HW2 4257   5.303  10.345   0.107 -0.6857  0.4662  0.0735
33618SOL     OW 4258   5.927   6.299   1.874 -0.0338 -0.6282  0.5014
33618SOL    HW1 4259   5.972   6.239   1.933  0.6761 -1.1208 -0.5337
33618SOL    HW2 4260   5.846   6.254   1.849 -0.5379 -0.2454  1.4095
33619SOL     OW 4261   8.168  10.637   2.845 -0.3014  0.2364 -0.0291
33619SOL    HW1 4262   8.158  10.728   2.871  0.1900  0.1810  0.3561
33619SOL    HW2 4263   8.086  10.616   2.800  0.0396  1.2076 -1.1308
33620SOL     OW 4264   1.030   4.304   2.309 -0.2210  0.4584  0.5338
33620SOL    HW1 4265   1.094   4.333   2.244 -0.5952 -0.4082 -0.2385
33620SOL    HW2 4266   1.082   4.282   2.386  0.2236  1.5011  0.5393
33621SOL     OW 4267   0.538   8.366   9.932 -0.1252 -0.7441  0.0033
33621SOL    HW1 4268   0.587   8.285   9.947  1.6477  0.7746  2.5905
33621SOL    HW2 4269   0.545   8.415  10.014 -0.9118  2.2027 -1.6100
33622SOL     OW 4270   6.940   6.908   4.874  0.1284 -0.4117 -0.1489
33622SOL    HW1 4271   6.973   6.846   4.939 -0.3205 -1.1275 -0.5925
33622SOL    HW2 4272   7.016   6.930   4.821  0.1723 -1.0229 -0.3424
33623SOL     OW 4273   7.835   4.286   6.327 -0.2403 -0.6402  0.8386
33623SOL    HW1 4274   7.899   4.345   6.287 -1.0885 -0.3350 -0.0890
33623SOL    HW2 4275   7.869   4.198   6.309 -1.2941 -0.5593 -1.7821
33624SOL     OW 4276   3.349   5.172   7.922 -0.1686  0.0295 -0.4109
33624SOL    HW1 4277   3.342   5.241   7.988  0.1361  0.1130 -0.4672
33624SOL    HW2 4278   3.443   5.164   7.905 -0.2259 -0.1871 -0.6277
33625SOL     OW 4279   7.774   4.927   3.662 -0.6384 -0.6153  0.6151
33625SOL    HW1 4280   7.683   4.956   3.661 -0.6117 -0.5391  0.3864
33625SOL    HW2 4281   7.772   4.841   3.621 -0.6424 -0.7159  0.8254
33626SOL     OW 4282   4.154  10.036   9.726  0.6395 -0.3627  0.1471
33626SOL    HW1 4283   4.089  10.102   9.701 -0.4280 -1.5149 -0.2009
33626SOL    HW2 4284   4.185  10.001   9.642  2.1599  0.6017  0.2980
33627SOL     OW 4285   1.016   8.288   0.311  0.2457  0.4110  0.1778
33627SOL    HW1 4286   0.931   8.332   0.318 -0.6396 -1.1522 -0.5412
33627SOL    HW2 4287   1.032   8.281   0.217  1.0552  0.4590  0.3042
33628SOL     OW 4288   4.381   0.298   1.330  0.0046  0.0998  0.1853
33628SOL    HW1 4289   4.312   0.265   1.387 -0.9163 -0.6382 -1.3242
33628SOL    HW2 4290   4.462   0.265   1.368 -0.5715 -0.1454  1.2121
33629SOL     OW 4291   6.978   7.506   6.599 -0.1775 -0.1645  1.0988
33629SOL    HW1 4292   6.883   7.515   6.607  0.0440  1.3759  2.3795
33629SOL    HW2 4293   7.011   7.533   6.685  1.4613  0.1790  0.3668
33630SOL     OW 4294   5.819   3.153   2.931 -0.1717 -0.2632  0.4006
33630SOL    HW1 4295   5.891   3.210   2.908  1.1119 -2.7547 -2.0552
33630SOL    HW2 4296   5.746   3.182   2.876  0.3651 -0.6924 -0.5529
33631SOL     OW 4297   6.327   1.713  10.776 -0.3161 -0.4476 -0.4361
33631SOL    HW1 4298   6.269   1.640  10.756  0.3317 -0.7057 -1.4079
33631SOL    HW2 4299   6.370   1.689  10.858 -1.6433 -0.2077  0.3371
33632SOL     OW 4300   3.419   8.815   9.965  0.4089 -0.1421  0.2221
33632SOL    HW1 4301   3.480   8.819   9.892 -0.2573  0.3796 -0.3193
33632SOL    HW2 4302   3.468   8.848  10.040  1.3968 -1.5992  0.2139
33633SOL     OW 4303   5.069   8.799   0.287 -0.2097  0.0858  0.3025
33633SOL    HW1 4304   5.005   8.772   0.221 -0.8368  2.8550 -0.2986
33633SOL    HW2 4305   5.083   8.721   0.340 -1.7584 -1.4354 -1.4512
33634SOL     OW 4306   6.280   7.465   6.220 -0.2137  0.3328  0.1703
33634SOL    HW1 4307   6.353   7.487   6.278  2.2426  0.2902 -2.7660
33634SOL    HW2 4308   6.247   7.550   6.190  3.1364  0.4189 -3.7599
33635SOL     OW 4309   9.583   5.034   4.593 -0.6645 -0.3970  0.4477
33635SOL    HW1 4310   9.624   5.074   4.669 -0.3301 -1.6414  0.9401
33635SOL    HW2 4311   9.525   4.967   4.629  0.0500 -1.5044 -0.3997
33636SOL     OW 4312   9.497   8.473   9.203  0.1135 -0.1114 -0.3434
33636SOL    HW1 4313   9.454   8.519   9.131  1.2457 -0.7308 -1.4706
33636SOL    HW2 4314   9.555   8.538   9.242 -2.3139  0.9229  1.6399
33637SOL     OW 4315  10.301   0.577   5.134 -0.1191  0.1087  0.9763
33637SOL    HW1 4316  10.266   0.665   5.122 -1.9651 -0.6568  0.5867
33637SOL    HW2 4317  10.240   0.535   5.195  1.7944 -0.3038  2.6551
33638SOL     OW 4318   4.622   5.122   6.105 -0.2174 -0.0290  0.5321
33638SOL    HW1 4319   4.535   5.158   6.124 -0.4425 -0.5208  0.4640
33638SOL    HW2 4320   4.616   5.092   6.014 -1.1934 -3.3942  1.5922
33639SOL     OW 4321   9.005   8.435   7.105  0.2184 -0.4466 -0.1222
33639SOL    HW1 4322   8.956   8.353   7.093 -1.2181  0.1207  1.5131
33639SOL    HW2 4323   8.953   8.501   7.058  0.2812 -0.1287  0.2513
33640SOL     OW 4324   9.865   9.414   0.784 -0.0189  0.0341 -0.5105
33640SOL    HW1 4325   9.816   9.474   0.840 -0.0984  0.7350 -1.3083
33640SOL    HW2 4326   9.857   9.329   0.826  0.7810  0.7220  1.0736
33641SOL     OW 4327   0.978   1.496   6.405  0.2324 -0.4032  0.0632
33641SOL    HW1 4328   1.003   1.423   6.462 -1.6016 -0.2860  1.0672
33641SOL    HW2 4329   1.028   1.483   6.325  2.7874 -0.6576  1.6353
33642SOL     OW 4330   3.917   5.376   0.284  0.1398  0.0333  0.2065
33642SOL    HW1 4331   3.947   5.411   0.368 -1.4324  1.2352  0.2962
33642SOL    HW2 4332   3.838   5.326   0.305 -0.4497  0.6104 -0.5927
33643SOL     OW 4333   1.937   0.874  10.136  0.3176  0.4919 -0.5017
33643SOL    HW1 4334   1.974   0.918  10.059  0.2226  0.7374 -0.4080
33643SOL    HW2 4335   1.965   0.929  10.210 -1.7492  1.6930 -0.5763
33644SOL     OW 4336   5.781   9.671   4.975  0.0143 -0.3758  0.2709
33644SOL    HW1 4337   5.833   9.686   4.896 -0.7312  0.6935 -0.0361
33644SOL    HW2 4338   5.764   9.577   4.975 -1.6856 -0.1262 -1.9730
33645SOL     OW 4339   0.257   0.329   4.391 -0.1060  0.5799 -0.3266
33645SOL    HW1 4340   0.282   0.302   4.303 -0.4416  0.5600 -0.4167
33645SOL    HW2 4341   0.294   0.262   4.449 -0.4315  0.2431 -0.5032
33646SOL     OW 4342   6.127  10.190   6.739  0.0334 -0.1355  0.2098
33646SOL    HW1 4343   6.143  10.284   6.733 -0.3325 -0.1875 -1.7828
33646SOL    HW2 4344   6.213  10.150   6.726  0.0689 -0.1021  0.3327
33647SOL     OW 4345   1.783   3.044   4.052  0.4284  0.3537  0.1492
33647SOL    HW1 4346   1.819   3.066   4.138  1.7695  1.0912 -0.5826
33647SOL    HW2 4347   1.847   2.983   4.015  0.5314  1.0771 -0.8606
33648SOL     OW 4348   2.191   9.489   4.547  0.1628  0.6094 -0.3769
33648SOL    HW1 4349   2.277   9.480   4.505 -0.9218  1.9711 -3.0505
33648SOL    HW2 4350   2.132   9.507   4.474 -2.5732 -1.2560  1.3098
33649SOL     OW 4351   8.273  10.805   1.153 -0.1626 -0.5919 -0.4345
33649SOL    HW1 4352   8.313  10.718   1.157  0.5659 -0.2147  0.9537
33649SOL    HW2 4353   8.192  10.796   1.204  0.3585 -0.2476  0.4773
33650SOL     OW 4354   5.669   8.943  10.268  0.4492 -0.0735  0.4530
33650SOL    HW1 4355   5.672   8.857  10.227  0.4092  0.8662 -1.5570
33650SOL    HW2 4356   5.755   8.953  10.309  1.4933  0.0323 -1.6712
33651SOL     OW 4357   4.388   2.755   0.992  0.3377  0.6224  0.1504
33651SOL    HW1 4358   4.350   2.811   1.060  0.3162 -1.3731  1.8449
33651SOL    HW2 4359   4.352   2.668   1.010  1.3888 -0.2035 -1.6132
33652SOL     OW 4360   8.109   1.795   0.223  0.0175  0.1852  0.0524
33652SOL    HW1 4361   8.180   1.767   0.281  0.6776 -0.4101 -1.0483
33652SOL    HW2 4362   8.045   1.724   0.229 -0.5337  0.7609  1.1099
33653SOL     OW 4363   1.142   1.603   1.030  0.0047 -0.1135  0.3765
33653SOL    HW1 4364   1.238   1.601   1.033  0.0169 -0.8063 -0.2372
33653SOL    HW2 4365   1.116   1.523   1.077 -0.2071 -1.2217 -1.5776
33654SOL     OW 4366   9.600   4.015   0.095  0.6361  0.1257  0.1736
33654SOL    HW1 4367   9.555   4.015   0.010  3.4185 -0.3063 -1.3409
33654SOL    HW2 4368   9.629   4.105   0.107  0.7410  0.0571  0.4264
33655SOL     OW 4369   7.626   1.840   6.541  0.5733  0.0689 -0.4657
33655SOL    HW1 4370   7.555   1.827   6.604  0.2387  1.1326 -0.6106
33655SOL    HW2 4371   7.664   1.753   6.529 -0.7501 -0.5190 -0.4480
33656SOL     OW 4372   6.518   4.843   6.220 -0.5337 -0.2189  0.0952
33656SOL    HW1 4373   6.510   4.795   6.137 -0.3063 -0.4617  0.2122
33656SOL    HW2 4374   6.446   4.906   6.218 -0.9981 -0.7349  0.0508
33657SOL     OW 4375   2.420   5.506   3.353 -0.0550 -0.5266 -0.4748
33657SOL    HW1 4376   2.491   5.495   3.416 -1.0057  0.6940  0.8522
33657SOL    HW2 4377   2.398   5.417   3.326  1.1941 -0.9898 -0.0192
33658SOL     OW 4378   5.358   0.591   5.413  0.1642  0.0130 -0.1750
33658SOL    HW1 4379   5.393   0.676   5.438 -0.4616  0.6412 -1.4182
33658SOL    HW2 4380   5.351   0.543   5.495  0.8605  1.0221  0.4871
33659SOL     OW 4381   3.143   7.925  10.649  0.6092 -0.5165 -0.3596
33659SOL    HW1 4382   3.211   7.869  10.610  0.4890 -1.5637  0.8992
33659SOL    HW2 4383   3.066   7.868  10.655 -0.0100  0.2907 -0.6092
33660SOL     OW 4384   9.370   3.931   5.171  0.5046 -0.2000 -0.3433
33660SOL    HW1 4385   9.399   3.999   5.111  1.8816 -0.2243  0.2763
33660SOL    HW2 4386   9.367   3.852   5.116  2.5789 -0.4006 -0.2346
33661SOL     OW 4387   1.687   3.772   1.082  0.6668  0.1304  0.2277
33661SOL    HW1 4388   1.751   3.737   1.019 -0.4646  0.5606 -1.1778
33661SOL    HW2 4389   1.738   3.833   1.135  1.9302 -1.2038  0.6116
33662SOL     OW 4390   3.554   6.989   3.850 -0.4156 -0.0363 -0.5695
33662SOL    HW1 4391   3.522   6.994   3.940 -0.9791 -0.4884 -0.7418
33662SOL    HW2 4392   3.475   6.999   3.796 -0.0386  0.5444 -1.0152
33663SOL     OW 4393   8.139   8.917   6.772 -0.0471 -0.0090 -0.0967
33663SOL    HW1 4394   8.142   8.869   6.855 -1.4675  0.2243  0.0975
33663SOL    HW2 4395   8.062   8.973   6.779 -0.6553 -0.5872 -1.9125
33664SOL     OW 4396   7.114  10.198   5.942 -0.3251  0.0235 -0.0177
33664SOL    HW1 4397   7.124  10.208   5.847  1.9706  1.9446  0.3552
33664SOL    HW2 4398   7.147  10.111   5.961 -2.2811 -0.9991 -1.1388
33665SOL     OW 4399   0.837   5.898   7.536 -0.2869  0.4141 -0.1177
33665SOL    HW1 4400   0.769   5.920   7.599 -0.0194 -1.8759  0.9991
33665SOL    HW2 4401   0.894   5.836   7.582  0.4185 -0.5934 -2.2796
33666SOL     OW 4402   8.018   7.273   9.854 -0.2151  0.0285  0.2333
33666SOL    HW1 4403   7.937   7.253   9.807 -0.7132  0.3155  0.9671
33666SOL    HW2 4404   8.086   7.271   9.786 -0.9049  0.2959 -0.4804
33667SOL     OW 4405   2.301   4.049   4.105 -0.6283 -0.1440  0.8372
33667SOL    HW1 4406   2.230   4.012   4.158 -2.0229  0.6257 -0.4528
33667SOL    HW2 4407   2.258   4.114   4.049  0.9204 -0.4629 -0.7672
33668SOL     OW 4408   2.185   1.290   6.274 -0.0279  0.0582 -0.2407
33668SOL    HW1 4409   2.129   1.216   6.250 -0.1532  0.1957 -0.3624
33668SOL    HW2 4410   2.273   1.262   6.246 -0.1707  0.2129 -0.8397
33669SOL     OW 4411   5.798   3.335   6.986 -0.2465  0.2397 -0.0082
33669SOL    HW1 4412   5.823   3.278   7.058  0.2600  1.0605  0.4717
33669SOL    HW2 4413   5.828   3.422   7.012 -0.4594  0.6240 -1.0079
33670SOL     OW 4414   4.104   2.823  10.638  0.5496 -0.5381  0.5949
33670SOL    HW1 4415   4.137   2.842  10.726  2.2404  1.2554 -0.4012
33670SOL    HW2 4416   4.178   2.783  10.592 -0.0596 -0.6760 -0.2938
33671SOL     OW 4417   9.895   1.983   8.343 -0.5520  0.3986  0.0514
33671SOL    HW1 4418   9.937   2.057   8.299  0.5976  1.0436  2.2234
33671SOL    HW2 4419   9.964   1.917   8.351 -1.7604 -1.3053 -2.5942
33672SOL     OW 4420   4.227   3.659   1.267  0.5713  0.1038  0.1730
33672SOL    HW1 4421   4.188   3.719   1.203  0.2093 -0.4270 -0.1072
33672SOL    HW2 4422   4.162   3.652   1.337 -0.9943 -2.7535 -1.4665
33673SOL     OW 4423  10.140   3.537   0.716  0.4524  0.2729  0.8443
33673SOL    HW1 4424  10.072   3.537   0.784 -2.3525 -0.9965 -1.8328
33673SOL    HW2 4425  10.171   3.447   0.714 -1.5551 -0.4373 -1.4291
33674SOL     OW 4426  10.065   1.060   5.550 -0.0486  0.1424 -0.7970
33674SOL    HW1 4427  10.023   0.974   5.556  0.4743 -0.0291  0.7015
33674SOL    HW2 4428  10.023   1.102   5.475 -1.0256 -1.0326 -0.9312
33675SOL     OW 4429   1.102   8.640   8.161  0.3519 -0.0045 -0.2020
33675SOL    HW1 4430   1.110   8.727   8.122 -0.3787  0.1667  0.0364
33675SOL    HW2 4431   1.162   8.642   8.236 -1.1579  0.9633  0.9959
33676SOL     OW 4432   6.431   6.911  10.403  0.1083  0.1941 -0.0329
33676SOL    HW1 4433   6.525   6.928  10.396  0.1168 -0.0482 -0.5443
33676SOL    HW2 4434   6.417   6.834  10.349 -0.2218 -0.3694  0.8494
33677SOL     OW 4435   3.365   4.936   6.031  0.1081  0.3671 -0.0129
33677SOL    HW1 4436   3.432   4.877   6.066  1.2354  1.0617 -0.9577
33677SOL    HW2 4437   3.290   4.880   6.013  1.8014 -1.1530 -2.6798
33678SOL     OW 4438   4.900   3.935   0.727  0.3606  0.2095 -0.1825
33678SOL    HW1 4439   4.967   3.980   0.778  0.0764  1.3156 -0.7660
33678SOL    HW2 4440   4.818   3.952   0.774  0.4467 -0.9329  0.3952
33679SOL     OW 4441   0.295   4.582   3.477 -0.0284 -0.3096  0.2025
33679SOL    HW1 4442   0.210   4.577   3.434 -0.3275 -0.5143  0.8149
33679SOL    HW2 4443   0.275   4.613   3.565  0.3734 -1.8623  0.8427
33680SOL     OW 4444   0.877   5.436   4.797  0.1485 -0.0304 -0.2734
33680SOL    HW1 4445   0.968   5.408   4.790  0.4605  1.2098 -1.3227
33680SOL    HW2 4446   0.851   5.411   4.886  1.5858 -0.1580  0.1146
33681SOL     OW 4447  10.244   8.322   7.686 -0.3961  0.3359  0.6918
33681SOL    HW1 4448  10.226   8.406   7.644 -0.6566  0.0093  0.1429
33681SOL    HW2 4449  10.307   8.279   7.627 -1.4354 -0.4923  0.1663
33682SOL     OW 4450  10.289   2.785   0.842  0.0518  0.1527 -0.6946
33682SOL    HW1 4451  10.288   2.782   0.938  0.8587  2.8581 -0.5537
33682SOL    HW2 4452  10.311   2.695   0.816  1.7363 -0.2015  1.7083
33683SOL     OW 4453   6.607   7.428   6.902 -0.2368  0.2205 -0.6511
33683SOL    HW1 4454   6.691   7.382   6.906  0.7471  2.1151  1.5930
33683SOL    HW2 4455   6.620   7.495   6.834  0.7101  1.6602  0.9111
33684SOL     OW 4456   0.891   6.599   8.303 -0.0543 -0.4845 -0.5637
33684SOL    HW1 4457   0.910   6.551   8.222  2.5461  1.6327 -1.3004
33684SOL    HW2 4458   0.977   6.611   8.344 -1.0412  0.6554  1.2366
33685SOL     OW 4459   2.614   9.500   5.054  0.4325 -0.0108 -0.3827
33685SOL    HW1 4460   2.671   9.429   5.025  1.9830  1.2762 -0.5686
33685SOL    HW2 4461   2.584   9.474   5.141 -1.3755 -2.2407 -1.6255
33686SOL     OW 4462   6.232   5.227   5.495 -0.1448 -0.6012 -0.1933
33686SOL    HW1 4463   6.217   5.309   5.542 -0.1488 -1.4286  1.2760
33686SOL    HW2 4464   6.324   5.232   5.466 -0.0503 -0.2261  0.1770
33687SOL     OW 4465   1.322   1.893   2.611  0.1912  0.1732 -0.7474
33687SOL    HW1 4466   1.408   1.886   2.569  0.7631 -1.2034  0.6107
33687SOL    HW2 4467   1.276   1.814   2.583  0.4567 -0.5809  0.9056
33688SOL     OW 4468   2.725   2.023   5.082  0.5506  0.3188  0.9850
33688SOL    HW1 4469   2.642   2.010   5.126 -0.1850  1.5766  0.0228
33688SOL    HW2 4470   2.780   2.068   5.146 -1.0909  3.7378  0.1272
33689SOL     OW 4471   5.897   1.990   0.641 -0.4724  0.8192  0.0563
33689SOL    HW1 4472   5.826   1.930   0.619 -0.1346  0.3709  0.1584
33689SOL    HW2 4473   5.900   2.052   0.569  0.0890 -0.1365 -0.7687
33690SOL     OW 4474   9.339   6.179   5.825 -0.4678 -0.3233  0.9496
33690SOL    HW1 4475   9.360   6.146   5.912  0.2862 -1.3741  0.3795
33690SOL    HW2 4476   9.323   6.272   5.837 -0.5095 -0.4975  2.2355
33691SOL     OW 4477   8.842   7.417   9.653  0.0239 -0.8147 -0.1238
33691SOL    HW1 4478   8.889   7.437   9.734 -1.7785 -0.0247  0.7638
33691SOL    HW2 4479   8.801   7.499   9.628  0.9561 -0.9375 -2.1248
33692SOL     OW 4480  10.452   0.167   7.611  0.2496  0.0262  0.1278
33692SOL    HW1 4481  10.537   0.165   7.655  1.4342  0.7744 -2.0343
33692SOL    HW2 4482  10.412   0.249   7.640  0.2069 -0.4019  1.2728
33693SOL     OW 4483  10.120   1.230   1.575 -0.0793 -0.1402  0.2530
33693SOL    HW1 4484  10.066   1.235   1.496  0.5623  0.0307 -0.1801
33693SOL    HW2 4485  10.079   1.162   1.628  0.0432 -0.9356 -0.6610
33694SOL     OW 4486   2.962   5.418   4.831 -0.1115  0.1759 -0.2824
33694SOL    HW1 4487   2.900   5.352   4.800  1.2668  0.0151 -2.8156
33694SOL    HW2 4488   2.983   5.470   4.753  2.1679  0.8454  0.7351
33695SOL     OW 4489   9.050   2.978   1.185 -0.4214  0.2126  0.0248
33695SOL    HW1 4490   8.971   2.925   1.197 -0.0172 -0.2735  0.5931
33695SOL    HW2 4491   9.057   2.990   1.091 -0.2170 -1.2048 -0.1448
33696SOL     OW 4492   9.399  10.279   2.839  0.5415  0.3706  0.5782
33696SOL    HW1 4493   9.417  10.271   2.933 -0.3836  1.0621  0.8328
33696SOL    HW2 4494   9.478  10.319   2.803  1.3883 -1.0376  0.8575
33697SOL     OW 4495   2.484   3.164   8.851 -0.3171  0.0381 -0.2105
33697SOL    HW1 4496   2.579   3.158   8.863 -0.5724 -1.8573  1.2705
33697SOL    HW2 4497   2.470   3.153   8.757  1.0628  2.6785 -0.7440
33698SOL     OW 4498   5.527   6.909   3.219  0.6484 -0.1466  0.8164
33698SOL    HW1 4499   5.514   6.993   3.173 -1.2504 -0.2980  1.0170
33698SOL    HW2 4500   5.531   6.844   3.149  0.6098 -0.0474  0.7216
33699SOL     OW 4501   3.764   3.462   3.027  0.3326 -0.2751 -0.0296
33699SOL    HW1 4502   3.706   3.394   3.062 -0.5591 -0.1822 -1.2771
33699SOL    HW2 4503   3.706   3.537   3.014  1.1561  0.4755  0.5989
33700SOL     OW 4504   5.819   3.521   8.534  0.1554 -0.1695  0.0465
33700SOL    HW1 4505   5.730   3.553   8.548  0.5208  0.5025  0.9092
33700SOL    HW2 4506   5.870   3.560   8.606  0.9070 -1.4861  0.2437
33701SOL     OW 4507   6.082   2.825   8.037 -0.4008 -0.0234  0.3670
33701SOL    HW1 4508   6.133   2.823   8.118  1.9496 -0.9199 -1.0784
33701SOL    HW2 4509   6.084   2.916   8.009 -1.6056  0.3755  1.5123
33702SOL     OW 4510   8.367   7.083   6.277 -0.2323  0.4516  0.7127
33702SOL    HW1 4511   8.283   7.124   6.296 -0.8358 -0.0175 -0.8849
33702SOL    HW2 4512   8.345   6.992   6.254  0.7782  0.1155  1.0084
33703SOL     OW 4513  10.832   8.160   8.745  0.1368 -0.4505  0.1884
33703SOL    HW1 4514  10.807   8.123   8.660 -0.7312 -0.4214  0.4280
33703SOL    HW2 4515  10.755   8.209   8.773  0.8092  0.4659  0.4820
33704SOL     OW 4516   8.117   2.681   5.732 -0.2612 -0.0545 -0.5880
33704SOL    HW1 4517   8.206   2.660   5.703 -0.2769 -0.0110 -0.6705
33704SOL    HW2 4518   8.076   2.597   5.750 -0.3546 -0.1004 -1.0024
33705SOL     OW 4519   7.958   8.769   9.957 -0.0846  0.6733  0.9387
33705SOL    HW1 4520   7.967   8.839  10.022  0.5659 -0.3212  1.9241
33705SOL    HW2 4521   7.876   8.789   9.912  1.2681  3.4366 -0.4465
33706SOL     OW 4522  10.226   5.799   4.522  0.4261  0.4664 -0.1159
33706SOL    HW1 4523  10.209   5.840   4.606  0.9324 -1.3344  0.8817
33706SOL    HW2 4524  10.270   5.866   4.470 -2.3596  2.5027  0.0788
33707SOL     OW 4525   8.887   9.447   1.886  0.1692 -0.0819 -0.0720
33707SOL    HW1 4526   8.852   9.368   1.928  0.1287 -0.4953 -0.8806
33707SOL    HW2 4527   8.980   9.429   1.876 -0.3925 -1.5208 -3.4732
33708SOL     OW 4528   3.351   6.184   6.638 -0.6955 -0.6162  0.0586
33708SOL    HW1 4529   3.308   6.157   6.557  0.4985  0.2987 -0.8927
33708SOL    HW2 4530   3.443   6.163   6.624 -0.3479  0.4028  0.8222
33709SOL     OW 4531   8.385   7.347   5.336 -0.2580 -0.0177  0.1737
33709SOL    HW1 4532   8.433   7.363   5.255 -0.4875  0.7888  0.1970
33709SOL    HW2 4533   8.384   7.431   5.381  0.6191 -0.6614  1.4277
33710SOL     OW 4534   2.557   4.238   1.444 -0.7700  0.5019 -0.2948
33710SOL    HW1 4535   2.533   4.195   1.527  1.4805  1.0025  0.6569
33710SOL    HW2 4536   2.525   4.179   1.376 -1.5132 -0.5516  0.9513
33711SOL     OW 4537   7.941   8.720   5.242  0.3046  0.1479 -0.2297
33711SOL    HW1 4538   7.968   8.659   5.310 -0.2506  0.7571  0.5413
33711SOL    HW2 4539   7.899   8.665   5.175  1.9264 -0.5993 -0.6558
33712SOL     OW 4540   2.869  10.654   5.502 -0.8363  0.1830  0.1146
33712SOL    HW1 4541   2.944  10.611   5.541 -2.5658 -2.2033  0.9380
33712SOL    HW2 4542   2.906  10.719   5.442  1.8668 -2.0638 -0.7213
33713SOL     OW 4543   5.154   6.470   3.260 -0.3786  0.1383 -0.1786
33713SOL    HW1 4544   5.125   6.537   3.322 -0.1606 -1.1026  1.2956
33713SOL    HW2 4545   5.119   6.388   3.294  2.9658 -1.1113  0.4747
33714SOL     OW 4546   3.437   6.400   7.925 -0.1320 -0.2667 -0.3525
33714SOL    HW1 4547   3.466   6.395   7.834  1.2428  0.5174  0.0329
33714SOL    HW2 4548   3.502   6.455   7.968  0.4436 -2.3625  1.5771
33715SOL     OW 4549   6.432   0.334   7.050  0.3862 -0.2395 -0.2782
33715SOL    HW1 4550   6.481   0.328   7.132  0.1019  3.3293  0.2225
33715SOL    HW2 4551   6.497   0.363   6.985  0.1230 -0.9728 -0.8902
33716SOL     OW 4552   9.910   1.707   5.485  0.6237 -0.0147  0.1541
33716SOL    HW1 4553   9.905   1.624   5.437 -1.6124  0.4711 -0.5337
33716SOL    HW2 4554   9.863   1.769   5.429  1.3336  1.4577  1.1787
33717SOL     OW 4555   9.561   7.875   2.817  0.3360 -0.5496 -0.1375
33717SOL    HW1 4556   9.569   7.800   2.876 -2.7389 -0.6676  0.1999
33717SOL    HW2 4557   9.497   7.847   2.751  1.0406  0.8768 -1.4660
33718SOL     OW 4558   7.932   0.658   0.007  0.7571 -0.0623  0.1070
33718SOL    HW1 4559   7.981   0.627  -0.069 -0.1438 -1.1069 -0.0632
33718SOL    HW2 4560   7.879   0.583   0.034 -0.8584  1.0632  0.1773
33719SOL     OW 4561   6.440   5.550   7.909 -0.0594 -0.8646  0.3668
33719SOL    HW1 4562   6.456   5.512   7.822 -1.4379 -0.2322 -0.1696
33719SOL    HW2 4563   6.370   5.614   7.895  1.9523  1.6613  1.3073
33720SOL     OW 4564   3.806   7.221  10.589  0.1228  0.1762  0.0127
33720SOL    HW1 4565   3.760   7.217  10.672 -0.6129  1.2554 -0.3352
33720SOL    HW2 4566   3.870   7.150  10.594 -0.5930 -0.4128  1.0800
33721SOL     OW 4567   9.731   5.826   6.992 -0.1304 -0.3788 -0.3186
33721SOL    HW1 4568   9.713   5.918   6.975 -1.9552 -0.6440 -0.0191
33721SOL    HW2 4569   9.699   5.781   6.914  0.2400 -0.7934 -0.2309
33722SOL     OW 4570   3.176   8.676   0.781 -0.4823 -0.4528 -0.2320
33722SOL    HW1 4571   3.236   8.659   0.854 -1.9796 -1.3002  0.8085
33722SOL    HW2 4572   3.227   8.656   0.703  0.7630 -0.6422  0.6217
33723SOL     OW 4573   0.005   1.412   5.944 -0.5157 -0.0389 -0.2463
33723SOL    HW1 4574   0.066   1.403   6.017 -0.7302 -0.8269 -0.1665
33723SOL    HW2 4575  -0.077   1.377   5.976 -0.8585  0.4518 -0.5645
33724SOL     OW 4576   6.849  10.376   2.759  0.5081 -0.0608  1.0001
33724SOL    HW1 4577   6.924  10.396   2.702 -0.0931  0.2525  0.3151
33724SOL    HW2 4578   6.823  10.460   2.795 -1.0238  0.1997 -0.6443
33725SOL     OW 4579   9.574   5.586   4.782 -0.4894  0.6177  0.1222
33725SOL    HW1 4580   9.645   5.638   4.744  1.1165 -1.7365 -0.1573
33725SOL    HW2 4581   9.495   5.626   4.745  0.6520  3.0784  0.1919
33726SOL     OW 4582   9.070   2.330   0.457  0.2400 -0.3114 -0.1697
33726SOL    HW1 4583   9.143   2.296   0.405  0.2200  1.1966 -1.1981
33726SOL    HW2 4584   9.046   2.411   0.414 -0.6334  0.2974  1.4492
33727SOL     OW 4585   9.836   9.317   8.299  0.0122 -0.0754 -0.1274
33727SOL    HW1 4586   9.823   9.225   8.278  0.3144 -0.3469  0.8750
33727SOL    HW2 4587   9.898   9.348   8.232  0.1552 -0.6663 -0.2719
33728SOL     OW 4588   3.203   8.785   4.716 -0.2315 -0.8892 -0.2042
33728SOL    HW1 4589   3.218   8.699   4.754 -0.0108  0.5267  3.1305
33728SOL    HW2 4590   3.289   8.815   4.688  0.6077  0.2124  3.2425
33729SOL     OW 4591   6.693   7.312   0.030 -0.7896  0.2461  0.0532
33729SOL    HW1 4592   6.770   7.257   0.042 -0.6008  0.5541  0.2447
33729SOL    HW2 4593   6.692   7.371   0.105 -0.8244  0.7071 -0.3049
33730SOL     OW 4594   5.933   1.736   4.760 -0.1748  0.1654  0.0108
33730SOL    HW1 4595   5.897   1.665   4.707  0.4981 -0.5891  0.5508
33730SOL    HW2 4596   6.023   1.708   4.778  0.8419  2.2227 -1.7127
33731SOL     OW 4597   6.583   3.036   1.653  0.9199  0.5048 -0.1774
33731SOL    HW1 4598   6.590   2.952   1.698 -1.7180 -0.0055 -0.6465
33731SOL    HW2 4599   6.524   3.088   1.707  0.8623  1.2980 -0.9913
33732SOL     OW 4600   5.043   8.051   1.935  0.4972 -0.2553 -0.1858
33732SOL    HW1 4601   5.072   8.142   1.934  1.2743 -0.5177 -2.5710
33732SOL    HW2 4602   4.975   8.046   1.868  0.3381 -1.4163  0.0491
33733SOL     OW 4603   6.845  10.885   9.754 -0.0420 -0.6795  0.3299
33733SOL    HW1 4604   6.833  10.906   9.846  1.2676 -1.3462  0.6565
33733SOL    HW2 4605   6.783  10.814   9.737  0.3482 -1.1624  0.9203
33734SOL     OW 4606   5.133   3.861   3.483 -0.0148  0.1461 -0.0833
33734SOL    HW1 4607   5.179   3.923   3.539  0.6229  1.9469 -2.5069
33734SOL    HW2 4608   5.074   3.915   3.430 -0.3762 -1.4379 -1.3462
33735SOL     OW 4609   4.528   9.758  10.773 -0.3463  0.2014 -1.0044
33735SOL    HW1 4610   4.564   9.684  10.724  2.3524 -0.7459  2.1973
33735SOL    HW2 4611   4.602   9.817  10.787 -1.3624  1.1471  0.6089
33736SOL     OW 4612   6.891   5.525   0.034  0.0151 -0.0584  0.0248
33736SOL    HW1 4613   6.902   5.542   0.128 -1.1441  0.3945  0.0782
33736SOL    HW2 4614   6.804   5.558   0.013 -0.6588 -2.2182 -0.7305
33737SOL     OW 4615   7.185   6.920   4.664  0.0746 -0.1574  0.2756
33737SOL    HW1 4616   7.154   6.854   4.603 -1.1370 -0.5836  1.3159
33737SOL    HW2 4617   7.260   6.880   4.707  0.2522 -0.2773 -0.1465
33738SOL     OW 4618   8.112   8.645   7.369  0.0033  0.0273  0.0433
33738SOL    HW1 4619   8.202   8.627   7.343 -0.1193 -1.2935  0.4822
33738SOL    HW2 4620   8.116   8.651   7.465 -0.3991 -0.2591  0.0803
33739SOL     OW 4621   5.433   1.096   7.164  0.4818 -0.1475  0.0021
33739SOL    HW1 4622   5.443   1.005   7.134 -0.0219 -0.5970  1.1513
33739SOL    HW2 4623   5.348   1.123   7.132  1.2402  0.4150 -1.5715
33740SOL     OW 4624   3.679   8.097   0.591  0.2176 -0.1120  0.4730
33740SOL    HW1 4625   3.767   8.062   0.574  0.7943  1.5755 -0.1265
33740SOL    HW2 4626   3.640   8.108   0.505 -0.5424 -0.7111  0.7331
33741SOL     OW 4627   4.682   8.026   5.973 -0.6033 -0.2204 -0.8699
33741SOL    HW1 4628   4.736   8.085   6.026 -0.2915 -0.3194 -1.0718
33741SOL    HW2 4629   4.641   8.083   5.908 -2.5583  0.1951  0.7044
33742SOL     OW 4630  10.031   2.735   2.407  0.1616 -0.0758  0.6252
33742SOL    HW1 4631  10.105   2.715   2.350 -1.0311  0.1459 -1.0656
33742SOL    HW2 4632  10.004   2.651   2.443  1.0587 -0.1908  1.0387
33743SOL     OW 4633  10.726   4.271   8.618 -0.0471 -0.1245  0.2275
33743SOL    HW1 4634  10.716   4.183   8.582 -1.3191 -0.3429  1.0683
33743SOL    HW2 4635  10.640   4.292   8.653  0.9064  0.3805  2.4081
33744SOL     OW 4636  10.277   7.222   3.269 -0.0058 -0.1284  0.2579
33744SOL    HW1 4637  10.348   7.203   3.331  0.4754  1.5983  0.2696
33744SOL    HW2 4638  10.320   7.269   3.197 -1.1999  1.2866  0.4479
33745SOL     OW 4639   5.911  10.604   3.188  0.3498  0.0028 -0.1122
33745SOL    HW1 4640   5.823  10.598   3.151  0.2850  1.3459 -0.2032
33745SOL    HW2 4641   5.969  10.608   3.113  0.3407  1.0806 -0.0651
33746SOL     OW 4642   5.340   3.923   6.264 -0.3576 -0.0957 -0.3922
33746SOL    HW1 4643   5.353   3.953   6.173  0.3473  0.0871 -0.2362
33746SOL    HW2 4644   5.249   3.947   6.284 -0.7933 -0.9174 -1.3378
33747SOL     OW 4645   1.916   5.547   3.167  0.4323  0.0197  0.1039
33747SOL    HW1 4646   1.910   5.470   3.112 -0.3488  0.3678 -0.3022
33747SOL    HW2 4647   1.910   5.514   3.257 -1.2823 -0.2637 -0.1015
33748SOL     OW 4648   6.993   5.265  10.922  0.3553  0.2864  0.2309
33748SOL    HW1 4649   6.952   5.346  10.951  1.4241  1.8431 -2.4262
33748SOL    HW2 4650   7.087   5.284  10.922  0.6997 -1.2920  0.4982
33749SOL     OW 4651   8.110  10.029   9.806  0.6868 -0.1838  0.3927
33749SOL    HW1 4652   8.092   9.941   9.771  0.4576  0.0494 -0.0756
33749SOL    HW2 4653   8.195  10.053   9.769  1.4895 -0.8461  1.7623
33750SOL     OW 4654   9.358   0.303   4.300 -0.2473  0.1949 -0.5615
33750SOL    HW1 4655   9.405   0.220   4.303 -0.5368  0.0501  0.5671
33750SOL    HW2 4656   9.265   0.277   4.299 -0.3863  0.4816  1.3122
33751SOL     OW 4657   9.944   5.373   8.291 -0.4365 -0.0347  0.0906
33751SOL    HW1 4658   9.868   5.402   8.239  0.4802  0.9669 -0.7225
33751SOL    HW2 4659   9.908   5.357   8.378 -1.4888  0.9924 -0.1347
33752SOL     OW 4660   2.266  10.348   7.316 -0.2375  0.2264 -0.2017
33752SOL    HW1 4661   2.233  10.424   7.268  2.3398  0.7242 -1.2312
33752SOL    HW2 4662   2.277  10.379   7.406  1.1787  1.1965 -0.7028
33753SOL     OW 4663   2.815   7.118   0.564 -0.3630 -0.0439  0.7126
33753SOL    HW1 4664   2.722   7.137   0.550 -0.6740 -0.6934  1.8674
33753SOL    HW2 4665   2.827   7.127   0.659  0.6915 -0.2478  0.5991
33754SOL     OW 4666   6.312   4.517   7.450 -0.1796  0.5318 -0.0042
33754SOL    HW1 4667   6.273   4.446   7.399 -0.6544 -0.2570  1.4288
33754SOL    HW2 4668   6.237   4.569   7.478  0.0051  0.4496  0.6416
33755SOL     OW 4669   6.948   8.092   8.349  0.1012 -0.1584  0.7357
33755SOL    HW1 4670   6.985   8.096   8.437 -0.6595  1.2916  1.0066
33755SOL    HW2 4671   6.972   8.176   8.309  0.6024 -0.8832 -0.4991
33756SOL     OW 4672   2.084   8.163   9.128 -0.1224  0.5581  0.0912
33756SOL    HW1 4673   2.002   8.141   9.171 -0.0811  0.8151  0.3077
33756SOL    HW2 4674   2.059   8.209   9.048 -0.2137 -0.4302 -0.4653
33757SOL     OW 4675   2.360   6.066   7.550 -0.2377  0.1204  0.1121
33757SOL    HW1 4676   2.453   6.083   7.564  0.8702 -4.0416 -1.5104
33757SOL    HW2 4677   2.352   6.048   7.456 -2.7281  0.6545  0.1749
33758SOL     OW 4678   6.933   6.259   0.945 -0.4071 -0.5255  0.0324
33758SOL    HW1 4679   6.865   6.316   0.911 -0.9104 -1.6312 -0.8584
33758SOL    HW2 4680   6.926   6.267   1.040 -1.3656 -0.1507 -0.0665
33759SOL     OW 4681   3.220   0.060   9.249 -0.2674  0.1838  0.1948
33759SOL    HW1 4682   3.294   0.070   9.189  1.5420 -1.2520  2.0996
33759SOL    HW2 4683   3.216  -0.034   9.267 -0.5094  0.5942  2.5756
33760SOL     OW 4684   2.347   9.947   0.655 -0.0700  0.1464 -0.4899
33760SOL    HW1 4685   2.378  10.022   0.605 -0.4007  0.4655 -0.2101
33760SOL    HW2 4686   2.293   9.984   0.724 -0.4762 -0.3659 -0.5316
33761SOL     OW 4687   9.115   0.886   8.955 -0.1519  0.1327  0.2523
33761SOL    HW1 4688   9.195   0.919   8.995 -1.4626  0.4547  2.7046
33761SOL    HW2 4689   9.074   0.964   8.917  0.3351  0.0831 -0.3875
33762SOL     OW 4690   8.454   9.810   2.443  0.0032  0.1757  0.3253
33762SOL    HW1 4691   8.463   9.891   2.493  1.1880 -0.2348  0.7689
33762SOL    HW2 4692   8.507   9.746   2.490 -3.1186 -1.6217  1.5739
33763SOL     OW 4693   8.993   5.728   0.254  0.5308 -0.3424 -0.5936
33763SOL    HW1 4694   9.062   5.791   0.273  0.6272 -0.3899 -0.7953
33763SOL    HW2 4695   8.998   5.713   0.160 -0.1590  0.1307 -0.7157
33764SOL     OW 4696   5.874   0.267   0.668 -0.5264  0.5375 -0.1169
33764SOL    HW1 4697   5.889   0.342   0.611 -2.3968  1.2726  0.3233
33764SOL    HW2 4698   5.871   0.305   0.756  2.0157 -0.5395  0.4568
33765SOL     OW 4699   7.945   0.728   1.830  0.2200 -0.4218 -0.4898
33765SOL    HW1 4700   7.858   0.719   1.789  0.2697 -1.4716 -0.3817
33765SOL    HW2 4701   7.976   0.638   1.839  1.7701 -0.0009 -1.4865
33766SOL     OW 4702   5.158   5.679   2.566 -0.3421 -0.6195  0.0839
33766SOL    HW1 4703   5.150   5.642   2.478  0.4105 -2.0197  0.5890
33766SOL    HW2 4704   5.245   5.654   2.595  0.5398  2.3250  0.1269
33767SOL     OW 4705   2.845   7.906   3.856 -0.0555 -0.6459 -0.2240
33767SOL    HW1 4706   2.896   7.875   3.781  0.1415 -1.6897  0.3377
33767SOL    HW2 4707   2.892   7.873   3.932 -1.1469 -0.9656  0.3143
33768SOL     OW 4708   9.304   7.500   2.394 -0.2048 -0.1838 -0.5188
33768SOL    HW1 4709   9.273   7.415   2.426 -0.1665  0.2937  0.8100
33768SOL    HW2 4710   9.392   7.509   2.430 -0.6435  0.9224  0.3185
33769SOL     OW 4711   6.567   2.017   8.674 -1.2158 -0.3058 -0.2340
33769SOL    HW1 4712   6.503   2.034   8.742  0.7879  0.3814  1.5318
33769SOL    HW2 4713   6.642   1.978   8.720 -0.7461 -2.0620 -2.3893
33770SOL     OW 4714   3.977  10.186   3.622 -0.7132  0.5304 -0.2098
33770SOL    HW1 4715   3.898  10.239   3.627 -0.2183  1.2894 -0.4288
33770SOL    HW2 4716   4.041  10.232   3.676 -0.1117  0.4698 -0.8558
33771SOL     OW 4717   2.159   0.869   2.476 -0.2401  0.0158  0.5594
33771SOL    HW1 4718   2.195   0.888   2.563  1.1061 -0.9494  0.2280
33771SOL    HW2 4719   2.215   0.800   2.442 -2.1828 -1.2662 -0.1379
33772SOL     OW 4720   7.751   0.724   8.899  0.7055  0.5382  0.7580
33772SOL    HW1 4721   7.722   0.680   8.819 -0.3797  0.6338  1.0921
33772SOL    HW2 4722   7.704   0.679   8.969  0.4489  1.4923  1.1986
33773SOL     OW 4723   8.123   6.365   7.305  0.2842 -0.3958 -0.2081
33773SOL    HW1 4724   8.032   6.350   7.281  0.1765  0.6965 -0.5264
33773SOL    HW2 4725   8.119   6.438   7.367  0.7910 -1.4797  1.1317
33774SOL     OW 4726   1.343   6.297   2.781 -0.0640 -0.1902 -0.4514
33774SOL    HW1 4727   1.344   6.393   2.778  1.7039 -0.1473  0.2856
33774SOL    HW2 4728   1.375   6.270   2.696 -3.0022 -0.2126 -1.6049
33775SOL     OW 4729   8.195   7.896   2.835  0.5103  0.4456  0.3215
33775SOL    HW1 4730   8.217   7.927   2.747 -1.4439 -0.2193 -0.4180
33775SOL    HW2 4731   8.238   7.811   2.842 -0.2809 -0.0164 -0.4175
33776SOL     OW 4732   4.821   5.632   4.948 -0.2874 -0.1472 -0.0764
33776SOL    HW1 4733   4.875   5.589   4.881  1.0659  1.1487  0.1693
33776SOL    HW2 4734   4.748   5.571   4.961  0.6212 -1.5017 -1.0655
33777SOL     OW 4735   8.863   5.823   5.753  0.1941  0.4709 -0.7106
33777SOL    HW1 4736   8.864   5.845   5.847  0.6873 -2.9578  0.1470
33777SOL    HW2 4737   8.786   5.869   5.719  0.7587  2.8627  1.0657
33778SOL     OW 4738  10.850   8.413   2.286  0.2350  0.5976 -0.0878
33778SOL    HW1 4739  10.890   8.487   2.241 -0.8200  0.4061 -1.3898
33778SOL    HW2 4740  10.923   8.368   2.329  0.8256  2.5911  1.0389
33779SOL     OW 4741   1.548   7.667   1.275 -0.4029 -0.0335 -0.1821
33779SOL    HW1 4742   1.527   7.752   1.237 -0.8734 -0.2530 -0.4273
33779SOL    HW2 4743   1.502   7.604   1.219 -1.4914 -0.3322  1.0111
33780SOL     OW 4744   1.425  10.611   9.453 -0.5122  0.1088 -0.4451
33780SOL    HW1 4745   1.335  10.621   9.485 -0.5784 -0.5978 -0.3998
33780SOL    HW2 4746   1.427  10.522   9.416  0.2281  0.0456 -0.2504
33781SOL     OW 4747   1.875  10.063   2.453 -0.0045  0.0298  0.2137
33781SOL    HW1 4748   1.946  10.106   2.500  0.6139 -0.0834 -0.5987
33781SOL    HW2 4749   1.899   9.970   2.452 -0.3483 -0.0603  0.2680
33782SOL     OW 4750   1.984   7.786   5.096 -0.1418  0.0371 -0.3226
33782SOL    HW1 4751   1.969   7.856   5.160  0.0240 -0.8732  0.7214
33782SOL    HW2 4752   1.912   7.724   5.111  1.2146 -1.3490  0.5966
33783SOL     OW 4753   1.432   5.627  10.932 -0.5735 -0.2793  0.3780
33783SOL    HW1 4754   1.440   5.587  10.846  1.1532 -1.2041  0.9607
33783SOL    HW2 4755   1.388   5.711  10.915 -0.6301 -0.6363 -1.3288
33784SOL     OW 4756   5.967   1.501   2.490  0.0910 -0.4454 -0.0547
33784SOL    HW1 4757   5.906   1.483   2.562 -2.0755 -0.0187 -1.7290
33784SOL    HW2 4758   5.923   1.466   2.412  1.8654  0.1571 -1.3621
33785SOL     OW 4759   0.646   1.976   9.419 -0.0238  1.1146 -0.2107
33785SOL    HW1 4760   0.569   1.973   9.363  0.4956 -0.1037 -0.8810
33785SOL    HW2 4761   0.628   2.047   9.482 -3.2348 -1.4623  1.9201
33786SOL     OW 4762   3.038   4.774   5.098 -0.5093  0.4029 -0.7300
33786SOL    HW1 4763   3.030   4.744   5.188  1.3398  1.4011 -0.2189
33786SOL    HW2 4764   3.052   4.868   5.105  1.2575  0.2513 -1.9749
33787SOL     OW 4765   5.647   8.315   8.441 -0.0203  0.1264  0.3686
33787SOL    HW1 4766   5.684   8.265   8.369 -1.3214 -2.0657  1.1866
33787SOL    HW2 4767   5.653   8.406   8.413 -0.4866 -0.6867 -2.4773
33788SOL     OW 4768   0.345   4.289   7.129  0.0056  0.4990 -0.0817
33788SOL    HW1 4769   0.360   4.363   7.187  0.4115  0.0072  0.4450
33788SOL    HW2 4770   0.261   4.308   7.087 -0.5797  0.5598  1.1117
33789SOL     OW 4771   1.462   3.645   3.926 -0.0081 -0.2012 -0.1158
33789SOL    HW1 4772   1.518   3.647   4.003 -0.2698 -1.1715  0.1138
33789SOL    HW2 4773   1.485   3.723   3.876  0.5038  0.1739  0.7064
33790SOL     OW 4774   5.777   8.967   6.152 -0.3437  0.5549  0.4722
33790SOL    HW1 4775   5.792   9.061   6.136 -1.1356  0.5274 -0.4587
33790SOL    HW2 4776   5.723   8.939   6.079  0.5619 -0.8272  0.3177
33791SOL     OW 4777   0.900  10.131   4.840  0.5435 -0.1595 -0.1954
33791SOL    HW1 4778   0.844  10.200   4.805  0.9027  0.9861  1.4141
33791SOL    HW2 4779   0.987  10.170   4.840  0.8197 -0.7844  0.3114
33792SOL     OW 4780   2.452   8.749   2.193  0.6285 -0.1780 -0.1290
33792SOL    HW1 4781   2.369   8.701   2.187  0.7977 -0.4220 -0.5815
33792SOL    HW2 4782   2.458   8.796   2.110 -0.1827  1.7086  0.8600
33793SOL     OW 4783   9.574   4.031   0.424 -0.1657 -0.1338  0.0266
33793SOL    HW1 4784   9.657   4.046   0.469 -0.6479  0.6930  0.6755
33793SOL    HW2 4785   9.575   4.092   0.351 -0.6865  0.7068  0.7081
33794SOL     OW 4786   8.574   4.684   9.888  0.1900 -0.2431  0.3878
33794SOL    HW1 4787   8.631   4.720   9.956 -0.9264  0.7842  0.7923
33794SOL    HW2 4788   8.547   4.760   9.837  1.3121 -1.0386 -1.4651
33795SOL     OW 4789   5.057   9.317   4.345  0.5203 -0.0305  0.7646
33795SOL    HW1 4790   5.112   9.252   4.389  0.7009  0.0365  0.6376
33795SOL    HW2 4791   4.999   9.349   4.413  0.4836 -0.2677  0.8474
33796SOL     OW 4792   9.071   6.734   9.200 -0.0715 -0.4274  0.4430
33796SOL    HW1 4793   8.990   6.766   9.160  0.4287 -0.4249 -0.5789
33796SOL    HW2 4794   9.066   6.639   9.193  0.1295 -0.4176  0.1380
33797SOL     OW 4795   8.145   3.913   7.334 -0.4941 -0.1749  0.8775
33797SOL    HW1 4796   8.224   3.937   7.382 -0.3255  0.4370  0.2950
33797SOL    HW2 4797   8.153   3.958   7.250 -0.5455 -1.6227  0.0707
33798SOL     OW 4798   4.295   5.460   1.574 -0.0516  0.0999  0.1452
33798SOL    HW1 4799   4.298   5.519   1.649 -1.0763  0.9504 -0.4831
33798SOL    HW2 4800   4.354   5.388   1.599  2.1867  1.9530  0.4179
33799SOL     OW 4801   4.842   7.968   8.568 -0.1344  0.3905  0.5474
33799SOL    HW1 4802   4.773   8.033   8.564 -1.3643 -0.9244 -0.1237
33799SOL    HW2 4803   4.819   7.904   8.501  2.4836  0.6369 -0.6751
33800SOL     OW 4804   3.641   0.134   0.696 -0.3827 -0.0296  0.5656
33800SOL    HW1 4805   3.697   0.194   0.647 -1.9723 -0.5255 -1.9779
33800SOL    HW2 4806   3.587   0.191   0.750 -0.7393  0.7568 -0.5938
33801SOL     OW 4807   6.250   8.028   9.928  0.6296  0.0084 -0.2490
33801SOL    HW1 4808   6.285   7.964   9.866  1.2578  1.2613 -1.2319
33801SOL    HW2 4809   6.167   8.056   9.888 -1.1452 -2.3102  1.6377
33802SOL     OW 4810   6.559   2.827   6.930  0.0238  0.5878  0.0227
33802SOL    HW1 4811   6.642   2.787   6.955 -0.0165  0.1521 -0.5416
33802SOL    HW2 4812   6.582   2.892   6.863 -0.0231  0.8608  0.2701
33803SOL     OW 4813   6.995   4.628   3.461  0.5090  0.6563  0.2111
33803SOL    HW1 4814   7.051   4.586   3.396  0.8932  0.6234  0.5605
33803SOL    HW2 4815   6.944   4.693   3.412  1.1353  0.9581 -0.0369
33804SOL     OW 4816   9.932   6.026   4.607  0.5557 -0.1250  0.1899
33804SOL    HW1 4817  10.023   6.005   4.629  1.0238  0.1529 -1.4414
33804SOL    HW2 4818   9.886   5.942   4.614  0.5927  0.0021  2.5462
33805SOL     OW 4819   6.574   7.021   9.297  0.1847  0.1424  0.2164
33805SOL    HW1 4820   6.648   6.987   9.347  0.6154  0.0209 -0.4907
33805SOL    HW2 4821   6.542   6.946   9.246  0.7050  0.6203 -0.8290
33806SOL     OW 4822   8.112   4.282  10.975 -0.0520 -0.4265 -0.3599
33806SOL    HW1 4823   8.085   4.267  11.065 -0.1390 -0.1093 -0.3329
33806SOL    HW2 4824   8.204   4.254  10.973 -0.3726 -1.4943 -0.4513
33807SOL     OW 4825   3.527   8.829   4.916 -0.5893  0.1664  0.2337
33807SOL    HW1 4826   3.520   8.765   4.987 -0.6811  0.1388  0.2002
33807SOL    HW2 4827   3.589   8.790   4.854 -2.8695 -1.2226 -1.2223
33808SOL     OW 4828  10.675   1.185  10.676 -0.0003  0.0079  0.6237
33808SOL    HW1 4829  10.597   1.132  10.659 -0.1219 -0.0337  1.3048
33808SOL    HW2 4830  10.724   1.135  10.742  0.7290 -0.0905  0.0144
33809SOL     OW 4831   2.221   1.237   3.520 -0.3302 -0.3941  0.0138
33809SOL    HW1 4832   2.134   1.274   3.504 -0.1417  0.5491  1.1310
33809SOL    HW2 4833   2.240   1.260   3.611  0.4993 -1.8111  0.1979
33810SOL     OW 4834   6.333   0.683   6.733 -0.0122 -0.3730  0.1901
33810SOL    HW1 4835   6.256   0.652   6.782 -0.0565  1.2545  1.1880
33810SOL    HW2 4836   6.382   0.603   6.713 -1.5870 -1.3742  0.1493
33811SOL     OW 4837   0.754   8.731   6.662  0.8347  0.3749  0.5843
33811SOL    HW1 4838   0.709   8.662   6.711 -1.2439  0.3321 -1.2804
33811SOL    HW2 4839   0.750   8.808   6.719 -1.7220  0.3791  0.4692
33812SOL     OW 4840   2.466   9.663   4.672 -0.4454  0.4854  0.0970
33812SOL    HW1 4841   2.410   9.604   4.723  0.1037  1.0234  1.3508
33812SOL    HW2 4842   2.555   9.634   4.691 -0.2918 -0.4850 -2.0473
33813SOL     OW 4843   7.875   0.303  10.180 -0.0094  0.4180  0.1741
33813SOL    HW1 4844   7.905   0.394  10.181 -0.3138  0.5171  0.6813
33813SOL    HW2 4845   7.799   0.302  10.239 -0.8861  0.1348 -0.9462
33814SOL     OW 4846   2.418   8.441   4.460 -0.6358  0.9635  0.2167
33814SOL    HW1 4847   2.386   8.428   4.371  1.2791  0.5419 -0.4333
33814SOL    HW2 4848   2.458   8.528   4.460  0.4510  0.4761  0.3193
33815SOL     OW 4849   9.707  10.678   5.635 -0.1044  0.2260 -0.3339
33815SOL    HW1 4850   9.654  10.652   5.711 -1.3172 -1.4438 -1.6923
33815SOL    HW2 4851   9.646  10.672   5.561  1.3512  0.7254 -1.5963
33816SOL     OW 4852   7.366   7.724   7.616 -0.3871 -0.5366 -0.2781
33816SOL    HW1 4853   7.294   7.780   7.587  0.4139  1.7878  1.9411
33816SOL    HW2 4854   7.426   7.721   7.542 -0.5140  1.5420 -0.5123
33817SOL     OW 4855   4.824   7.275   1.649 -0.2346  0.4118 -0.2130
33817SOL    HW1 4856   4.891   7.304   1.711  0.7340 -0.2295 -0.9436
33817SOL    HW2 4857   4.823   7.342   1.581 -3.8337  3.0253  2.2517
33818SOL     OW 4858   7.348   9.666   1.605  0.5285  0.0384 -0.0054
33818SOL    HW1 4859   7.382   9.637   1.521 -0.1352 -0.7929  0.0112
33818SOL    HW2 4860   7.398   9.616   1.669 -0.8368 -1.3172  0.0152
33819SOL     OW 4861   3.586   2.023   1.847 -0.2006  0.1598  0.0544
33819SOL    HW1 4862   3.583   2.034   1.752  0.9387  0.6301  0.0609
33819SOL    HW2 4863   3.517   1.960   1.866  0.2868 -0.7871 -1.2207
33820SOL     OW 4864   3.908  10.556   1.042  0.5278 -0.4231  0.1446
33820SOL    HW1 4865   3.833  10.588   0.992  0.5386  0.0277  0.4083
33820SOL    HW2 4866   3.980  10.555   0.979  0.8067  1.2034  0.4054
33821SOL     OW 4867  10.602   3.999   7.219  0.1176 -0.2991 -0.3365
33821SOL    HW1 4868  10.572   4.034   7.134 -1.0298 -0.5718 -0.0568
33821SOL    HW2 4869  10.623   3.908   7.201  1.5141  0.0776 -0.6951
33822SOL     OW 4870  10.389   5.669   8.484  0.5974 -0.0186 -0.2348
33822SOL    HW1 4871  10.358   5.748   8.529  3.0084  0.5058  0.5793
33822SOL    HW2 4872  10.313   5.610   8.485 -0.1761  0.9254  2.3376
33823SOL     OW 4873   8.496   9.586   8.328 -0.5195  0.3667  0.0223
33823SOL    HW1 4874   8.529   9.523   8.393 -0.7259  0.2578  0.0218
33823SOL    HW2 4875   8.455   9.531   8.260  0.1730  0.4550 -0.4705
33824SOL     OW 4876   9.892   6.888   8.864 -0.3796  0.7285 -0.0867
33824SOL    HW1 4877   9.895   6.818   8.798 -2.6701  1.4324 -0.9802
33824SOL    HW2 4878   9.951   6.955   8.830  1.0645 -0.3277  0.2840
33825SOL     OW 4879   2.444   4.300   6.422  0.0904 -0.6247  0.4542
33825SOL    HW1 4880   2.411   4.261   6.503 -0.9190 -0.6951  0.0209
33825SOL    HW2 4881   2.367   4.340   6.382  0.8432  0.5842  0.1846
33826SOL     OW 4882   0.521  10.741   8.588  0.7872  0.0244 -0.4233
33826SOL    HW1 4883   0.468  10.812   8.551 -0.9411 -0.9470  0.1123
33826SOL    HW2 4884   0.513  10.753   8.683  0.0457 -1.2042 -0.3315
33827SOL     OW 4885   5.163   1.077  10.604 -0.0735  0.2034  0.0268
33827SOL    HW1 4886   5.070   1.101  10.610 -0.5550 -1.3960 -0.6457
33827SOL    HW2 4887   5.204   1.122  10.678 -0.5244  4.6251 -2.2592
33828SOL     OW 4888   6.094   3.618   3.986 -0.1941  0.4136 -0.5755
33828SOL    HW1 4889   6.156   3.648   3.920  1.8942 -1.9807  0.2389
33828SOL    HW2 4890   6.081   3.526   3.967 -2.2355  0.4887  0.2963
33829SOL     OW 4891   3.210   3.089   3.976  0.5570 -0.2845  0.2420
33829SOL    HW1 4892   3.299   3.116   3.955  0.2250 -0.4552 -1.4372
33829SOL    HW2 4893   3.205   2.997   3.951 -0.1265 -0.2445  0.2099
33830SOL     OW 4894   5.605  10.314   2.291  0.2286  0.2128  0.0499
33830SOL    HW1 4895   5.598  10.333   2.198 -1.6921  1.2929  0.3746
33830SOL    HW2 4896   5.601  10.219   2.297  0.9626  0.1125 -1.0064
33831SOL     OW 4897   0.509   8.390   7.503 -0.3111 -0.4993  0.1035
33831SOL    HW1 4898   0.510   8.342   7.420 -0.2056  0.0312 -0.2017
33831SOL    HW2 4899   0.417   8.389   7.531 -0.1281 -1.8867  0.6879
33832SOL     OW 4900   1.532   3.627   1.539  0.0909 -0.2022  0.5557
33832SOL    HW1 4901   1.536   3.712   1.583 -0.1987 -0.0710  0.3379
33832SOL    HW2 4902   1.583   3.568   1.594 -1.2887 -0.3302  1.7366
33833SOL     OW 4903   3.533   5.717   3.878 -0.4341  0.0340  0.0993
33833SOL    HW1 4904   3.553   5.652   3.946 -1.0400  1.1024  1.3200
33833SOL    HW2 4905   3.562   5.800   3.915  0.1147  0.5058 -1.3594
33834SOL     OW 4906  10.066   5.115   4.994  0.0205 -0.8308  0.1188
33834SOL    HW1 4907  10.030   5.107   4.906 -1.5854 -2.6836  0.9031
33834SOL    HW2 4908  10.159   5.135   4.980 -0.5911  0.7525 -1.9535
33835SOL     OW 4909  10.846   1.773   6.617 -0.3125  0.1709 -0.3188
33835SOL    HW1 4910  10.821   1.860   6.649  0.9780  1.0050 -1.5321
33835SOL    HW2 4911  10.938   1.783   6.590  0.1068 -1.7822  0.3101
33836SOL     OW 4912   0.135   7.272   9.575 -0.1364  0.0658  0.6468
33836SOL    HW1 4913   0.121   7.196   9.632 -0.6648  0.9560  1.7287
33836SOL    HW2 4914   0.049   7.288   9.535  1.1501 -3.2295 -3.8931
33837SOL     OW 4915   9.932   8.253   1.054 -0.1864 -0.5069 -0.4453
33837SOL    HW1 4916   9.915   8.302   1.135  0.6624  0.1198 -0.6386
33837SOL    HW2 4917   9.912   8.162   1.076  1.1643 -0.5103  0.8086
33838SOL     OW 4918   4.928   0.725  10.143 -0.2359  0.2013  0.8360
33838SOL    HW1 4919   4.916   0.638  10.182 -1.2535  0.2505  0.6491
33838SOL    HW2 4920   4.992   0.711  10.074 -1.6320 -0.7485 -0.2933
33839SOL     OW 4921   0.086   4.508   1.232  0.4970  0.2356 -0.1603
33839SOL    HW1 4922   0.062   4.452   1.306  1.2891 -1.2317 -0.9977
33839SOL    HW2 4923   0.038   4.471   1.158 -0.1470  1.5857 -0.4285
33840SOL     OW 4924   2.240   0.798   8.132 -0.2484 -0.3494 -0.1412
33840SOL    HW1 4925   2.225   0.859   8.204 -0.8009  0.1673 -0.6772
33840SOL    HW2 4926   2.311   0.742   8.161  0.9266  1.1631 -0.0057
33841SOL     OW 4927  10.366   8.559  10.431 -0.2934  0.4811 -0.2057
33841SOL    HW1 4928  10.286   8.507  10.438  1.1724 -1.7470  0.4130
33841SOL    HW2 4929  10.403   8.560  10.519  0.5611  1.2102 -0.5590
33842SOL     OW 4930   1.799   3.065   1.348 -0.2954  0.2961 -0.7829
33842SOL    HW1 4931   1.771   3.034   1.263  1.5062 -1.7330 -0.6895
33842SOL    HW2 4932   1.763   3.002   1.410  1.6730 -0.5241 -0.4145
33843SOL     OW 4933   2.414   6.091   0.319  0.0011 -0.1799 -0.0585
33843SOL    HW1 4934   2.478   6.026   0.347 -0.9523 -1.3498 -0.5571
33843SOL    HW2 4935   2.378   6.126   0.401 -0.7475 -1.5496  0.2051
33844SOL     OW 4936   4.091   7.331   2.723 -0.4612 -0.1490 -0.3426
33844SOL    HW1 4937   4.182   7.303   2.733 -0.3529 -0.5606 -2.2136
33844SOL    HW2 4938   4.082   7.407   2.780  0.6955 -0.8682  0.8315
33845SOL     OW 4939   7.225   3.117   6.560  0.1297 -0.1978 -0.1129
33845SOL    HW1 4940   7.225   3.211   6.578 -0.0224 -0.0537 -0.8687
33845SOL    HW2 4941   7.134   3.090   6.576  0.6412 -0.6318  2.2328
33846SOL     OW 4942   3.592   2.790   1.224 -0.4641 -0.0061  0.3482
33846SOL    HW1 4943   3.678   2.827   1.244  0.2739 -1.3094 -0.3904
33846SOL    HW2 4944   3.563   2.748   1.305 -0.6027  0.7978  0.7200
33847SOL     OW 4945   1.711   4.008  10.051 -0.0989 -0.1728  0.0716
33847SOL    HW1 4946   1.659   3.995   9.972  0.3088  0.7595 -0.3521
33847SOL    HW2 4947   1.683   3.938  10.110 -1.5298  0.0680 -0.3121
33848SOL     OW 4948   2.138   5.434  10.744 -0.5962 -0.2492  0.1226
33848SOL    HW1 4949   2.049   5.424  10.710 -0.4624  1.1338 -0.6860
33848SOL    HW2 4950   2.158   5.527  10.731  1.2586 -0.7166 -0.4211
33849SOL     OW 4951   8.635   5.308   3.121 -0.5052  0.2085  0.2115
33849SOL    HW1 4952   8.595   5.392   3.140  1.4700  1.0562  0.6780
33849SOL    HW2 4953   8.713   5.329   3.069 -0.5738 -1.4081 -0.6048
33850SOL     OW 4954   5.338   7.288   8.359  0.1874 -0.0402 -0.3378
33850SOL    HW1 4955   5.384   7.369   8.382  0.1107 -0.1648  0.2667
33850SOL    HW2 4956   5.377   7.221   8.416 -0.6008 -0.1850  0.0444
33851SOL     OW 4957   8.635   4.901   1.562 -0.3063 -0.4739  0.4893
33851SOL    HW1 4958   8.580   4.948   1.624 -1.9067 -1.5712 -0.0651
33851SOL    HW2 4959   8.668   4.826   1.611 -0.1922 -0.4270  0.4874
33852SOL     OW 4960   0.531   3.866   8.980  0.3650 -0.4745 -0.4163
33852SOL    HW1 4961   0.459   3.833   8.926  0.7654 -1.0393 -0.6200
33852SOL    HW2 4962   0.521   3.821   9.064 -1.8680  2.4587  0.9475
33853SOL     OW 4963   6.966   1.000   1.495  0.0558 -0.2970 -0.0546
33853SOL    HW1 4964   6.920   0.952   1.426 -0.6013 -0.4693  0.4998
33853SOL    HW2 4965   6.903   1.067   1.523 -0.0505 -0.8392  1.0355
33854SOL     OW 4966   9.673   9.310   0.594 -0.2703 -0.7537  0.0603
33854SOL    HW1 4967   9.601   9.278   0.647 -1.4580  2.2027  0.3371
33854SOL    HW2 4968   9.727   9.362   0.654  0.7389 -0.9354 -0.6725
33855SOL     OW 4969   4.815   9.075   5.638  0.1342  0.3368 -0.4921
33855SOL    HW1 4970   4.781   8.986   5.651 -1.5480  1.2589  1.7404
33855SOL    HW2 4971   4.738   9.132   5.647  2.0104  2.4097  3.6080
33856SOL     OW 4972   5.234   2.817   7.324  0.2945  0.1563 -0.7524
33856SOL    HW1 4973   5.240   2.767   7.243 -1.7020  1.7311 -1.9304
33856SOL    HW2 4974   5.281   2.898   7.305  0.1621  0.3619 -0.2082
33857SOL     OW 4975   2.421   5.245   0.231 -0.3783 -0.3225 -0.0062
33857SOL    HW1 4976   2.373   5.328   0.236 -1.2769 -0.8573  0.1832
33857SOL    HW2 4977   2.513   5.272   0.234 -0.6517  0.6993 -0.3314
33858SOL     OW 4978   3.350   4.811   6.424 -0.0058  0.3854  0.1147
33858SOL    HW1 4979   3.304   4.895   6.429 -0.3276  0.2610 -0.7323
33858SOL    HW2 4980   3.287   4.747   6.455  0.0621  0.3866  0.2560
33859SOL     OW 4981   3.217  10.837   4.525  0.2531 -0.1440  0.1038
33859SOL    HW1 4982   3.128  10.810   4.547 -0.3667  2.0931  0.4439
33859SOL    HW2 4983   3.242  10.781   4.452 -1.1699 -1.2563  0.4544
33860SOL     OW 4984   1.785   6.804   4.085  0.0569  0.3104 -0.1245
33860SOL    HW1 4985   1.707   6.749   4.080  0.0121  0.3029  0.5877
33860SOL    HW2 4986   1.832   6.771   4.162 -1.0320  2.6679  1.6081
33861SOL     OW 4987   9.023   0.623   6.588 -0.4252  0.4232  0.3139
33861SOL    HW1 4988   8.955   0.559   6.613  0.4923  0.0791  2.0313
33861SOL    HW2 4989   8.985   0.671   6.515 -3.3552  1.5992  2.5228
33862SOL     OW 4990   6.346   1.821  10.030 -0.0830  0.4402 -0.1620
33862SOL    HW1 4991   6.363   1.899   9.977  0.8695 -0.3595 -1.0649
33862SOL    HW2 4992   6.251   1.809  10.027 -0.0318  0.3773 -1.7414
33863SOL     OW 4993   2.341   8.071   5.007  0.0202  0.2039  0.2277
33863SOL    HW1 4994   2.328   7.992   4.954  0.9853 -0.2402  0.6425
33863SOL    HW2 4995   2.277   8.063   5.078 -1.9030  1.2486 -1.3573
33864SOL     OW 4996   1.112   5.924   3.418 -0.5670 -0.2458  0.1528
33864SOL    HW1 4997   1.095   5.840   3.376  0.8553 -0.6508  0.3804
33864SOL    HW2 4998   1.181   5.965   3.366  0.7907 -0.4955  1.7137
33865SOL     OW 4999   2.375   0.602   4.227 -0.4526 -0.4918 -0.3855
33865SOL    HW1 5000   2.280   0.605   4.214 -0.4920  0.8675  0.1320
33865SOL    HW2 5001   2.388   0.537   4.296 -0.9625 -1.0734 -0.8327
33866SOL     OW 5002   9.515   6.072  10.344 -0.0038  0.2151  0.5458
33866SOL    HW1 5003   9.474   6.150  10.380  0.4216  0.5959  0.2073
33866SOL    HW2 5004   9.442   6.018  10.314 -0.2170  2.2370 -2.8757
33867SOL     OW 5005   2.238   7.737  10.954  0.5148 -0.1067 -0.2311
33867SOL    HW1 5006   2.215   7.765  10.865  0.8946 -1.6283 -0.8285
33867SOL    HW2 5007   2.169   7.674  10.977  0.6473 -0.0216  0.3943
33868SOL     OW 5008   8.231   8.147   1.616 -0.1912 -0.1455 -0.2247
33868SOL    HW1 5009   8.309   8.189   1.582 -0.3338 -0.0648 -0.4550
33868SOL    HW2 5010   8.174   8.220   1.642  0.3771 -0.2119  1.2411
33869SOL     OW 5011   3.891   9.325   4.906 -0.3975  0.2422  0.1111
33869SOL    HW1 5012   3.813   9.270   4.914 -1.1228  0.9808 -1.6553
33869SOL    HW2 5013   3.948   9.296   4.977 -1.0428 -2.3095 -0.3664
33870SOL     OW 5014   7.875   3.462   6.198  0.1494 -0.1696  0.0657
33870SOL    HW1 5015   7.940   3.398   6.227  1.5621  0.7535 -0.9770
33870SOL    HW2 5016   7.808   3.409   6.153  0.4325 -1.0694  0.6814
33871SOL     OW 5017   2.187   6.651  10.910 -0.2109 -0.0296  0.1062
33871SOL    HW1 5018   2.198   6.652  11.005 -2.2805  2.3782  0.3712
33871SOL    HW2 5019   2.095   6.674  10.896  0.4526  1.2347 -2.5233
33872SOL     OW 5020   6.971   8.849   8.651 -0.2585 -0.0362  0.1893
33872SOL    HW1 5021   6.918   8.840   8.730  1.8743 -0.3778  1.6232
33872SOL    HW2 5022   7.010   8.762   8.639  0.6449  0.4389 -0.3489
33873SOL     OW 5023   1.750   3.846   3.076  0.1101  0.0580 -0.4996
33873SOL    HW1 5024   1.839   3.825   3.047 -0.1861 -0.9735 -0.6892
33873SOL    HW2 5025   1.739   3.796   3.158 -0.1999  0.3780 -0.3443
33874SOL     OW 5026   7.355   8.592   2.104  0.2609 -0.1928 -0.3299
33874SOL    HW1 5027   7.361   8.657   2.174  1.5435 -0.3232 -0.3120
33874SOL    HW2 5028   7.389   8.637   2.027  1.5054 -0.9570 -0.2323
33875SOL     OW 5029   0.198   6.456   9.065  0.0906  0.2041  0.4483
33875SOL    HW1 5030   0.196   6.541   9.021  0.9135  0.2290  0.4606
33875SOL    HW2 5031   0.286   6.423   9.050 -0.3366 -0.8222  0.1099
33876SOL     OW 5032   7.141   1.928   7.273 -0.1561  0.7248 -0.4861
33876SOL    HW1 5033   7.069   1.964   7.221 -0.6587 -1.3877 -1.3246
33876SOL    HW2 5034   7.100   1.861   7.327  1.0134  0.1697 -0.2658
33877SOL     OW 5035   6.848   7.281   5.389  0.1236  0.5316 -0.9550
33877SOL    HW1 5036   6.903   7.270   5.312  0.5762  2.7142 -0.9666
33877SOL    HW2 5037   6.761   7.251   5.362  0.6231 -0.1086 -1.8511
33878SOL     OW 5038   3.098   7.393   4.934 -0.7983 -0.3416 -0.2077
33878SOL    HW1 5039   3.038   7.435   4.996 -0.7816  0.5843 -0.8146
33878SOL    HW2 5040   3.091   7.445   4.854  4.1433  2.6367  1.0757
33879SOL     OW 5041   4.039   4.093   7.895  0.3348 -0.4573 -0.3406
33879SOL    HW1 5042   3.951   4.074   7.864 -0.2037 -0.8316  1.3867
33879SOL    HW2 5043   4.086   4.123   7.817 -0.9562 -1.4514 -1.5278
33880SOL     OW 5044   7.397  10.533   1.162 -0.2488  0.3646 -0.2105
33880SOL    HW1 5045   7.460  10.573   1.221  1.2801 -1.6130 -0.4780
33880SOL    HW2 5046   7.336  10.487   1.220 -0.0486  0.2636 -0.0821
33881SOL     OW 5047   9.863   0.773   7.874 -0.1890  0.1159  0.3995
33881SOL    HW1 5048   9.897   0.861   7.856  0.4849 -0.1937  0.1582
33881SOL    HW2 5049   9.873   0.763   7.969  0.5015 -0.0221  0.3111
33882SOL     OW 5050   7.483   9.674   9.723 -0.0948 -0.0136  0.3000
33882SOL    HW1 5051   7.535   9.715   9.653 -2.3680  1.3773 -0.6333
33882SOL    HW2 5052   7.417   9.623   9.676 -1.3650  0.5765  1.4589
33883SOL     OW 5053   2.492   3.844   6.977 -0.0955 -0.1013  0.1490
33883SOL    HW1 5054   2.536   3.877   6.898 -0.2418  0.4107  0.2795
33883SOL    HW2 5055   2.472   3.753   6.956 -1.6127  0.4738 -1.0634
33884SOL     OW 5056  10.616  10.514   1.862 -0.0429 -0.2243  0.3452
33884SOL    HW1 5057  10.549  10.551   1.920  0.7977  0.1605  1.0767
33884SOL    HW2 5058  10.692  10.571   1.872  0.9314 -1.5418  0.7311
33885SOL     OW 5059  10.670   7.703   6.968 -0.0817  0.2819 -0.6345
33885SOL    HW1 5060  10.747   7.651   6.947 -0.6054  0.4148 -2.9319
33885SOL    HW2 5061  10.702   7.766   7.033  1.7110  0.2159 -1.4129
33886SOL     OW 5062  10.464  10.213   7.715 -0.9429  0.5304 -0.0398
33886SOL    HW1 5063  10.552  10.250   7.723 -0.4941 -0.9899  2.5295
33886SOL    HW2 5064  10.478  10.119   7.704 -2.2440  0.2547  0.5257
33887SOL     OW 5065   5.611   2.511   3.708 -0.3019  0.1582  0.5677
33887SOL    HW1 5066   5.681   2.507   3.643 -0.4475 -0.3169  0.4394
33887SOL    HW2 5067   5.540   2.559   3.664  0.6021  2.2560  1.3240
33888SOL     OW 5068   4.022   9.598   5.265  0.6328  0.4654  0.1403
33888SOL    HW1 5069   4.014   9.531   5.333  0.7836 -1.3077 -1.5722
33888SOL    HW2 5070   3.932   9.626   5.249  0.4902  0.1281  0.3364
33889SOL     OW 5071   0.363   3.342   3.216  0.2654  0.0396  0.1759
33889SOL    HW1 5072   0.349   3.381   3.303 -0.0537  0.7164 -0.1730
33889SOL    HW2 5073   0.388   3.252   3.234 -1.2900 -0.2690  0.9509
33890SOL     OW 5074   0.712   7.029   1.112 -0.3684  0.0620 -0.0942
33890SOL    HW1 5075   0.728   7.123   1.103 -0.8081  0.0449 -1.0762
33890SOL    HW2 5076   0.660   7.021   1.192 -0.4941  0.6658 -0.1141
33891SOL     OW 5077   0.999   0.590   5.014 -0.2485  0.3633 -0.4830
33891SOL    HW1 5078   1.009   0.584   4.919 -1.8174  0.7762 -0.6887
33891SOL    HW2 5079   0.904   0.601   5.027 -0.1985 -1.1052  1.2026
33892SOL     OW 5080   4.932   1.657   1.721 -0.2291 -0.6473  0.2234
33892SOL    HW1 5081   4.857   1.615   1.678 -0.5296  0.4681 -0.3670
33892SOL    HW2 5082   4.999   1.660   1.652 -0.0755 -0.5189  0.3793
33893SOL     OW 5083   7.540   8.887   1.014 -0.7176  0.5402  0.4515
33893SOL    HW1 5084   7.476   8.944   0.971  0.6352  0.8519 -1.2148
33893SOL    HW2 5085   7.572   8.829   0.944  1.8864  1.3900  0.8653
33894SOL     OW 5086   3.076   7.085   1.633 -0.0071  0.0171  0.4110
33894SOL    HW1 5087   3.002   7.025   1.618  0.9444 -0.9325 -0.5668
33894SOL    HW2 5088   3.056   7.161   1.578 -1.7021  1.0479  2.3947
33895SOL     OW 5089  10.322   3.215   4.174 -0.5199  0.6055 -0.4947
33895SOL    HW1 5090  10.398   3.271   4.155  0.1755  0.1265  0.7802
33895SOL    HW2 5091  10.276   3.207   4.090  1.9180 -0.6884 -1.7706
33896SOL     OW 5092   9.783   2.065   9.792 -0.3746 -0.1274 -0.6968
33896SOL    HW1 5093   9.743   2.142   9.833  0.8224  0.6481 -0.9586
33896SOL    HW2 5094   9.855   2.100   9.740  0.4300 -1.4686 -0.5165
33897SOL     OW 5095   9.573   5.730   6.732 -0.1433 -0.7361  0.2813
33897SOL    HW1 5096   9.517   5.726   6.655  1.1177 -1.2877 -0.6383
33897SOL    HW2 5097   9.557   5.647   6.777 -0.6433 -0.5521  0.4470
33898SOL     OW 5098   1.709   1.687   5.574  0.0656 -0.2958  0.0001
33898SOL    HW1 5099   1.632   1.702   5.629 -0.1039  0.8705 -0.5533
33898SOL    HW2 5100   1.720   1.592   5.575 -0.2200 -0.3324  1.6606
33899SOL     OW 5101   1.452   8.910   1.541 -0.3428  0.1027  0.0326
33899SOL    HW1 5102   1.544   8.907   1.566  0.5262  1.9736 -2.7112
33899SOL    HW2 5103   1.416   8.986   1.586 -0.1642  0.2395 -0.0589
33900SOL     OW 5104   8.721   0.267   2.118  0.2274  0.0983  0.1036
33900SOL    HW1 5105   8.757   0.207   2.182  1.2313 -0.5151 -1.0063
33900SOL    HW2 5106   8.790   0.332   2.104  0.1225  0.0715 -0.5542
33901SOL     OW 5107   3.410   1.331  10.702  0.1858 -0.5249  0.2924
33901SOL    HW1 5108   3.345   1.261  10.701 -1.9250  1.3495 -2.0909
33901SOL    HW2 5109   3.461   1.317  10.623 -0.4609  0.7820 -0.3709
33902SOL     OW 5110   3.584   8.060   5.009  0.2498  0.1737 -0.2257
33902SOL    HW1 5111   3.618   8.039   5.096 -1.4498  1.8733  0.8901
33902SOL    HW2 5112   3.491   8.039   5.013  0.0972  0.5178 -1.5571
33903SOL     OW 5113   1.560   6.563   8.225  0.5345 -0.7882  0.5471
33903SOL    HW1 5114   1.472   6.600   8.223  1.1058  0.6081  0.1179
33903SOL    HW2 5115   1.564   6.513   8.306 -0.2271  0.2605  1.2406
33904SOL     OW 5116  10.229   5.282   9.171 -0.2478  0.5340 -0.5024
33904SOL    HW1 5117  10.321   5.281   9.144  0.3537  0.5017  1.4571
33904SOL    HW2 5118  10.206   5.375   9.176  0.1559  0.5779  0.5556
33905SOL     OW 5119   0.609   2.709   2.126  0.5592  0.0821  0.1674
33905SOL    HW1 5120   0.645   2.730   2.040  0.4621 -1.3774 -0.2362
33905SOL    HW2 5121   0.632   2.785   2.180 -2.2579  2.5260 -1.9297
33906SOL     OW 5122   0.378  10.318   7.718 -0.1522  0.0943 -0.2138
33906SOL    HW1 5123   0.346  10.399   7.679  0.4805 -0.5970 -2.2464
33906SOL    HW2 5124   0.398  10.262   7.643  3.8766 -0.2265  0.9526
33907SOL     OW 5125   8.245   5.702   3.858 -0.0940 -0.2949  0.0558
33907SOL    HW1 5126   8.293   5.626   3.889 -0.1519 -0.9765 -1.4689
33907SOL    HW2 5127   8.274   5.774   3.914  2.1211 -0.8423 -0.3475
33908SOL     OW 5128   6.937   8.748   4.423  0.4532  0.2446  0.0769
33908SOL    HW1 5129   6.927   8.701   4.506  0.2278 -0.8149 -0.5423
33908SOL    HW2 5130   7.001   8.696   4.374  0.5802  0.8637 -0.4272
33909SOL     OW 5131   7.616   5.544   3.463  0.1550  0.5012  0.1688
33909SOL    HW1 5132   7.544   5.500   3.508 -0.0213  0.0168 -0.5791
33909SOL    HW2 5133   7.588   5.550   3.372  1.8358 -1.3866 -0.5126
33910SOL     OW 5134   2.063   6.944   3.705 -0.4785  0.1798 -0.1466
33910SOL    HW1 5135   1.997   6.927   3.772  0.1715 -2.9703 -0.2313
33910SOL    HW2 5136   2.123   7.006   3.745 -0.9426 -0.4977  1.6470
33911SOL     OW 5137   0.523   1.151   2.048  0.1450 -0.0027 -0.5573
33911SOL    HW1 5138   0.459   1.212   2.011  1.4757  1.4745 -0.5230
33911SOL    HW2 5139   0.535   1.085   1.981 -0.8780  0.1098 -0.8578
33912SOL     OW 5140   5.875  10.305   3.165  0.0122  0.2262  0.7054
33912SOL    HW1 5141   5.834  10.391   3.169 -0.5297  0.0307 -0.6121
33912SOL    HW2 5142   5.843  10.266   3.084  1.3175 -0.6813  0.6113
33913SOL     OW 5143   9.540   8.408   2.890 -0.2039 -0.6122  0.3674
33913SOL    HW1 5144   9.493   8.332   2.855 -1.9090  0.3793  0.4525
33913SOL    HW2 5145   9.610   8.425   2.827 -1.3250 -0.7601 -0.9347
33914SOL     OW 5146   9.504   7.103   8.410 -0.5425 -0.0373  0.3369
33914SOL    HW1 5147   9.439   7.062   8.352  0.9369 -1.1870 -0.5499
33914SOL    HW2 5148   9.588   7.082   8.369  0.3715  1.6423  1.3416
33915SOL     OW 5149   3.619   9.161   1.807  0.1741  0.4844  0.3741
33915SOL    HW1 5150   3.549   9.226   1.802  0.1502  0.4688  0.4996
33915SOL    HW2 5151   3.573   9.077   1.806  0.1799  0.4758  0.6223
33916SOL     OW 5152   2.531   1.559   0.890 -0.2753  0.0774 -0.4337
33916SOL    HW1 5153   2.554   1.572   0.799 -2.3662  1.2716 -0.8330
33916SOL    HW2 5154   2.517   1.647   0.925  0.0140 -0.3872  0.8951
33917SOL     OW 5155   8.898   1.465   0.008  0.9767 -0.4811 -0.2685
33917SOL    HW1 5156   8.939   1.509   0.082  2.9969 -0.4111 -1.3718
33917SOL    HW2 5157   8.967   1.408  -0.027 -0.1378 -0.9896 -1.7074
33918SOL     OW 5158   2.604   7.820   2.351  0.2544 -0.2909  0.1367
33918SOL    HW1 5159   2.624   7.750   2.413  0.6464  1.3582  1.9259
33918SOL    HW2 5160   2.682   7.825   2.295  0.8360 -0.3447  0.9227
33919SOL     OW 5161   4.325   8.833   0.056  0.2384  0.7992 -0.5300
33919SOL    HW1 5162   4.328   8.889  -0.022  0.1150 -0.9180 -1.8048
33919SOL    HW2 5163   4.285   8.752   0.025  2.3306 -0.7765  0.7783
33920SOL     OW 5164   2.160  10.936   4.368  0.4552 -0.6284  0.0770
33920SOL    HW1 5165   2.170  10.841   4.367 -0.7653 -0.7653 -1.6654
33920SOL    HW2 5166   2.068  10.951   4.388  0.8034  0.2241  1.0984
33921SOL     OW 5167   1.954   0.970   2.292  0.2629  0.4334 -0.1864
33921SOL    HW1 5168   1.904   0.892   2.269 -0.5178  1.3483 -1.7035
33921SOL    HW2 5169   1.994   0.950   2.376 -0.3953 -1.3759 -0.2972
33922SOL     OW 5170   7.011   9.509   3.510  0.3471 -0.2447 -0.1676
33922SOL    HW1 5171   6.974   9.527   3.597  0.6847  0.8257 -0.2329
33922SOL    HW2 5172   6.968   9.572   3.452  0.8780 -0.2579 -0.5845
33923SOL     OW 5173   9.825   9.774   7.858 -0.4180 -0.0474 -0.4135
33923SOL    HW1 5174   9.761   9.842   7.880 -1.1890 -0.6622 -0.7080
33923SOL    HW2 5175   9.843   9.788   7.765 -0.2263  0.0361 -0.3641
33924SOL     OW 5176   6.788   5.600   0.737  0.1653 -0.6424 -0.6821
33924SOL    HW1 5177   6.800   5.510   0.769 -0.6311 -1.2110 -1.9131
33924SOL    HW2 5178   6.693   5.611   0.733  0.2570  0.6023  0.3718
33925SOL     OW 5179   2.852   1.158  10.120 -0.2922 -0.4144  0.3242
33925SOL    HW1 5180   2.840   1.158  10.025 -0.4054 -0.5836  0.3389
33925SOL    HW2 5181   2.910   1.085  10.138 -0.5463 -0.5946  0.4196
33926SOL     OW 5182   8.639  10.909   1.135 -0.3543 -0.1295  0.1858
33926SOL    HW1 5183   8.607  10.930   1.048  0.3339  1.0023  0.2029
33926SOL    HW2 5184   8.645  10.813   1.136 -1.0904 -0.1923 -0.7419
33927SOL     OW 5185   8.804   3.398   7.415  0.0499  0.3684 -0.1620
33927SOL    HW1 5186   8.863   3.455   7.365  1.3327 -0.7602  0.0233
33927SOL    HW2 5187   8.863   3.342   7.465 -1.2114  0.3618  1.3554
33928SOL     OW 5188   5.615   5.431   0.697 -0.2590  0.6997  0.3125
33928SOL    HW1 5189   5.578   5.497   0.756 -0.6444  0.9347 -0.1875
33928SOL    HW2 5190   5.655   5.367   0.756 -1.7072  0.2964  0.8831
33929SOL     OW 5191   9.960   0.159   1.826 -0.1421 -0.3140  0.2069
33929SOL    HW1 5192  10.032   0.216   1.797 -0.5934 -0.8007 -1.9112
33929SOL    HW2 5193   9.934   0.196   1.911  0.9904  1.3454 -0.1336
33930SOL     OW 5194  10.034   6.856   0.681  0.1320 -0.2489 -0.1413
33930SOL    HW1 5195  10.085   6.888   0.756  0.7699  0.7251 -0.9876
33930SOL    HW2 5196  10.014   6.765   0.703 -0.2505  0.2163  1.5212
33931SOL     OW 5197   9.277   2.407   5.142 -0.0553  0.0985 -0.2065
33931SOL    HW1 5198   9.318   2.320   5.142 -1.1497 -0.4420 -1.1482
33931SOL    HW2 5199   9.279   2.435   5.233 -0.0857 -1.1184  0.1748
33932SOL     OW 5200   8.204   0.462   0.645 -0.6489 -0.4039  0.3703
33932SOL    HW1 5201   8.257   0.400   0.696 -1.6387 -1.7292 -0.1812
33932SOL    HW2 5202   8.261   0.538   0.634  2.3459 -2.8809 -2.7448
33933SOL     OW 5203   2.180   2.343   8.079  0.2610 -0.6369 -0.4421
33933SOL    HW1 5204   2.253   2.322   8.021 -0.6097 -0.6117 -1.5673
33933SOL    HW2 5205   2.217   2.405   8.142  1.2067 -0.6089 -1.0105
33934SOL     OW 5206   5.636   1.706   6.184  0.5777 -0.1777  0.1208
33934SOL    HW1 5207   5.581   1.677   6.110  0.7137  1.1728 -0.5237
33934SOL    HW2 5208   5.633   1.633   6.246 -1.0864 -0.5588 -0.3810
33935SOL     OW 5209   6.216   1.408   9.110  0.3374 -0.1523 -0.7704
33935SOL    HW1 5210   6.173   1.378   9.030 -1.2234 -1.0960  0.4085
33935SOL    HW2 5211   6.198   1.501   9.113 -0.2504 -0.2522 -1.1148
33936SOL     OW 5212   9.582   2.611   1.304  0.0506  0.0317  0.4217
33936SOL    HW1 5213   9.487   2.627   1.304  0.1468  0.6183  0.5106
33936SOL    HW2 5214   9.592   2.529   1.256 -0.4788  0.1349  0.1201
33937SOL     OW 5215   8.958   4.249   4.592 -0.1137 -0.2860 -0.1440
33937SOL    HW1 5216   8.862   4.250   4.592 -0.1511 -2.2031 -0.8525
33937SOL    HW2 5217   8.981   4.159   4.614  1.5307  0.0147 -0.5666
33938SOL     OW 5218   1.290  10.954   5.936  0.3484 -0.0839 -0.2825
33938SOL    HW1 5219   1.215  10.998   5.895  1.7753  0.9091 -1.9107
33938SOL    HW2 5220   1.268  10.861   5.932 -1.2957  0.2550  0.3029
33939SOL     OW 5221   0.407   2.855   1.629 -0.5406  0.3070 -0.1411
33939SOL    HW1 5222   0.483   2.893   1.585  1.7862 -1.4203  2.1952
33939SOL    HW2 5223   0.362   2.806   1.560  0.8218  0.8334 -1.4393
33940SOL     OW 5224   0.795  10.932  10.866 -0.3173 -0.3545 -0.7130
33940SOL    HW1 5225   0.768  10.846  10.897 -0.3261 -0.2785 -0.5115
33940SOL    HW2 5226   0.714  10.977  10.843 -0.4192  0.1363  0.5606
33941SOL     OW 5227   6.037   3.157   7.632  0.1227  0.1223 -0.3971
33941SOL    HW1 5228   5.995   3.145   7.547 -1.4705 -0.3058  0.4460
33941SOL    HW2 5229   6.001   3.088   7.687  1.8801 -0.2326  0.3718
33942SOL     OW 5230  10.906   1.031   7.954  0.1449  0.3548  0.2838
33942SOL    HW1 5231  10.926   0.944   7.986  0.3259  0.6148  0.8827
33942SOL    HW2 5232  10.952   1.090   8.014  0.4147  0.8458 -0.4044
33943SOL     OW 5233   6.485   4.798   5.701 -0.1007  0.0531 -0.1530
33943SOL    HW1 5234   6.398   4.812   5.662  0.2482 -0.0724 -0.9924
33943SOL    HW2 5235   6.541   4.860   5.655  0.3145 -0.0679  0.1910
33944SOL     OW 5236   4.446  10.523   3.707 -0.5669 -0.0767 -0.5842
33944SOL    HW1 5237   4.514  10.479   3.758  0.3589  0.1934 -1.5547
33944SOL    HW2 5238   4.484  10.530   3.619 -1.6137  0.6205 -0.9806
33945SOL     OW 5239   0.935   0.588   8.483 -0.1074 -0.2826  0.4954
33945SOL    HW1 5240   0.944   0.614   8.391  2.2327  0.3592  0.8707
33945SOL    HW2 5241   0.926   0.493   8.480 -0.3166 -0.2404 -0.4105
33946SOL     OW 5242   3.789   7.425   4.832  0.2020  0.3403 -0.1724
33946SOL    HW1 5243   3.694   7.426   4.822  0.2062  0.0356 -0.2262
33946SOL    HW2 5244   3.823   7.449   4.746  0.2546 -2.8539 -1.0991
33947SOL     OW 5245   0.709   6.253   2.151  0.1906 -0.2888  0.3303
33947SOL    HW1 5246   0.692   6.271   2.243 -0.2368 -0.4069  0.2762
33947SOL    HW2 5247   0.783   6.192   2.151  1.9563  1.7856  0.4966
33948SOL     OW 5248   4.212   3.236   5.801  0.1142  0.7002 -0.0778
33948SOL    HW1 5249   4.177   3.325   5.789 -1.7348  0.1997  1.3577
33948SOL    HW2 5250   4.135   3.184   5.824  1.5217 -0.8538  1.1308
33949SOL     OW 5251  10.067   1.092   0.430  0.2741 -0.9176 -0.0574
33949SOL    HW1 5252  10.055   1.156   0.501  0.2575 -0.9979  0.0115
33949SOL    HW2 5253  10.135   1.131   0.375  0.1852 -0.7868 -0.0768
33950SOL     OW 5254   5.959   5.996   4.147  0.0424  0.0942  0.0640
33950SOL    HW1 5255   6.052   6.017   4.139 -0.0591  0.6475  0.3336
33950SOL    HW2 5256   5.922   6.016   4.061 -0.1099  1.3019  0.4082
33951SOL     OW 5257  10.027   2.755  10.271  0.0969 -0.3197  0.1294
33951SOL    HW1 5258  10.020   2.797  10.357  0.2389 -2.2351  1.0941
33951SOL    HW2 5259  10.111   2.784  10.237 -0.1885  0.8694  0.3869
33952SOL     OW 5260   3.989   6.620   6.229 -0.4447  0.2566  0.3668
33952SOL    HW1 5261   3.930   6.547   6.212 -0.1935  0.2851 -0.6669
33952SOL    HW2 5262   4.070   6.580   6.258 -0.9530  0.2156  1.7729
33953SOL     OW 5263   0.063   7.690   8.934  0.4112 -0.7601 -0.0431
33953SOL    HW1 5264   0.015   7.678   8.851  1.0257  0.1320 -0.5402
33953SOL    HW2 5265   0.003   7.658   9.001 -0.9267  0.4334 -0.6484
33954SOL     OW 5266   0.210   9.303   5.620  0.5428  0.0788 -0.4826
33954SOL    HW1 5267   0.246   9.381   5.577  0.3517 -0.3406 -1.4168
33954SOL    HW2 5268   0.247   9.305   5.709 -0.6836  2.0609 -0.0012
33955SOL     OW 5269  10.939   9.480   8.799 -0.8726  0.3632 -0.1130
33955SOL    HW1 5270  10.846   9.455   8.801 -0.4210 -1.3689  1.0863
33955SOL    HW2 5271  10.984   9.398   8.779  0.3221  1.5041 -2.2101
33956SOL     OW 5272   5.371   0.256   7.243 -0.2578  0.2000  0.3286
33956SOL    HW1 5273   5.425   0.186   7.208 -0.3699  0.8176 -1.0861
33956SOL    HW2 5274   5.328   0.216   7.320  0.9028 -0.7827  0.4831
33957SOL     OW 5275  10.760   7.060   2.877 -0.2284  0.5067  0.0354
33957SOL    HW1 5276  10.784   7.148   2.848 -0.8500  1.3062  1.9130
33957SOL    HW2 5277  10.664   7.057   2.871 -0.2906  0.3394  1.0439
33958SOL     OW 5278   3.235   5.997   9.339 -1.0824 -0.6088 -0.8183
33958SOL    HW1 5279   3.184   6.021   9.417  0.3015  1.3708 -0.5085
33958SOL    HW2 5280   3.186   6.034   9.266 -0.0094  1.4419 -0.5061
33959SOL     OW 5281   9.120  10.682   1.980  0.0476  0.3863  0.0380
33959SOL    HW1 5282   9.087  10.749   1.920 -0.2740  0.3457  0.1643
33959SOL    HW2 5283   9.146  10.609   1.924 -4.0239 -1.2848  0.1408
33960SOL     OW 5284   0.663   0.950   2.528 -0.1025  0.2693  0.5794
33960SOL    HW1 5285   0.743   0.897   2.521 -0.7339 -1.0525  2.7918
33960SOL    HW2 5286   0.664   1.005   2.450  0.6905 -2.8445 -1.6733
33961SOL     OW 5287   6.904   1.666   2.636  0.0429  0.1151 -0.6078
33961SOL    HW1 5288   6.975   1.667   2.572 -2.0116  1.8347 -2.9216
33961SOL    HW2 5289   6.888   1.758   2.656  0.2503 -0.3591  1.9932
33962SOL     OW 5290  10.443   8.818  10.344 -0.2687  0.5484  0.0112
33962SOL    HW1 5291  10.488   8.772  10.274  2.6087  1.5268  1.1566
33962SOL    HW2 5292  10.388   8.751  10.385 -2.4676  0.1011 -3.4802
33963SOL     OW 5293   4.241   3.003   2.352 -0.3102 -0.0701 -0.1016
33963SOL    HW1 5294   4.259   2.945   2.277 -2.1350 -0.5313 -0.2134
33963SOL    HW2 5295   4.261   2.949   2.429 -3.8994 -1.6024 -0.1557
33964SOL     OW 5296   6.004   8.067   2.997 -0.2054  0.1085 -0.0121
33964SOL    HW1 5297   6.019   8.159   2.976 -0.1435 -0.1616 -1.1859
33964SOL    HW2 5298   6.004   8.064   3.093 -1.3522  1.5117  0.0388
33965SOL     OW 5299   5.919   8.641   3.129 -0.5414 -0.2844  0.3436
33965SOL    HW1 5300   5.936   8.583   3.203 -0.5612 -0.7508 -0.0168
33965SOL    HW2 5301   6.005   8.652   3.087 -0.6242 -0.4276  0.1377
33966SOL     OW 5302   3.340   7.526   3.234  0.3818  0.4341 -0.4677
33966SOL    HW1 5303   3.433   7.537   3.215  0.4779  0.7309  0.1680
33966SOL    HW2 5304   3.298   7.524   3.148  0.7514  2.3857 -0.7109
33967SOL     OW 5305   1.439   2.465   4.940 -0.7825  0.1152  0.3815
33967SOL    HW1 5306   1.487   2.457   5.022 -2.6355 -2.7345  1.2735
33967SOL    HW2 5307   1.352   2.495   4.965 -1.3608 -0.7640 -0.5198
33968SOL     OW 5308   1.914   9.562   2.374  0.5932 -0.3609 -0.2972
33968SOL    HW1 5309   2.001   9.598   2.392  0.7210  0.3078 -2.2070
33968SOL    HW2 5310   1.876   9.548   2.461  1.6702  1.6054  0.5185
33969SOL     OW 5311   9.906   0.518   5.808 -0.0542 -0.1159  0.0433
33969SOL    HW1 5312   9.909   0.583   5.879  0.2265 -1.2051  1.0356
33969SOL    HW2 5313   9.821   0.475   5.819 -0.0533 -0.2241 -0.3581
33970SOL     OW 5314   6.462   9.471   6.773  0.2686  0.5115 -0.4922
33970SOL    HW1 5315   6.407   9.526   6.717 -0.4254  0.1281 -0.1845
33970SOL    HW2 5316   6.401   9.416   6.821  0.9047  0.2829  0.0649
33971SOL     OW 5317  10.972   0.880  10.280 -0.0977 -0.3995  0.3865
33971SOL    HW1 5318  10.994   0.815  10.213  1.1820 -0.2606  0.6501
33971SOL    HW2 5319  10.954   0.960  10.231  1.9525  0.0060  0.2407
33972SOL     OW 5320   5.190   2.930   9.242 -0.4095  0.6694  0.3509
33972SOL    HW1 5321   5.114   2.909   9.296  0.3275  1.5611  1.7444
33972SOL    HW2 5322   5.256   2.963   9.304  0.6184  1.2364 -1.0211
33973SOL     OW 5323   9.709  10.920   4.162  0.4311 -0.1643  0.2311
33973SOL    HW1 5324   9.707  10.841   4.216  2.6495 -1.2290 -1.1791
33973SOL    HW2 5325   9.679  10.989   4.221 -0.7434 -1.9037  1.7359
33974SOL     OW 5326   6.873   7.882  10.804  0.5134 -0.0824  0.5666
33974SOL    HW1 5327   6.789   7.894  10.848  0.6523 -0.7026  1.0153
33974SOL    HW2 5328   6.938   7.912  10.868  0.6110  0.7475  0.0755
33975SOL     OW 5329   3.183   2.512   6.729  0.6488 -0.2699 -0.3115
33975SOL    HW1 5330   3.231   2.502   6.647  1.5975  0.2356  0.1657
33975SOL    HW2 5331   3.175   2.606   6.741 -1.2161 -0.3571 -0.7984
33976SOL     OW 5332   6.103   5.543   6.549 -0.1074  0.1696 -0.0498
33976SOL    HW1 5333   6.102   5.630   6.589 -3.1672  0.3172 -0.3716
33976SOL    HW2 5334   6.013   5.529   6.519  0.4193 -2.9761 -0.2932
33977SOL     OW 5335   4.984  10.420   4.465  0.0780 -0.0846  0.4571
33977SOL    HW1 5336   4.983  10.514   4.446  0.5625 -0.4195 -1.4117
33977SOL    HW2 5337   4.899  10.402   4.504 -0.8615  0.7734 -1.1346
33978SOL     OW 5338   0.095   8.204   8.453 -0.2986 -0.5447 -0.0051
33978SOL    HW1 5339   0.141   8.274   8.405 -0.7601 -0.4944 -0.3822
33978SOL    HW2 5340   0.121   8.216   8.544 -1.7427  1.2224  0.2040
33979SOL     OW 5341   9.252   5.973  10.356 -0.3869 -0.8978 -0.2453
33979SOL    HW1 5342   9.207   5.935  10.280 -0.7858 -0.5391 -0.1864
33979SOL    HW2 5343   9.182   5.997  10.416 -0.2217  1.1457 -0.8290
33980SOL     OW 5344   0.962  10.118  10.688 -0.5136 -0.1914 -0.1803
33980SOL    HW1 5345   0.927  10.039  10.647 -0.1588 -0.4508  0.0148
33980SOL    HW2 5346   1.047  10.132  10.646 -0.2206 -0.3678  0.3508
33981SOL     OW 5347   3.766   4.517   1.628  0.0449  0.6818 -0.0406
33981SOL    HW1 5348   3.707   4.492   1.556  0.2291  0.6436 -0.1789
33981SOL    HW2 5349   3.744   4.608   1.646  0.4179  0.8765 -0.5550
33982SOL     OW 5350   9.837   5.838   5.913  0.7077 -0.4366  0.0800
33982SOL    HW1 5351   9.778   5.775   5.954  0.2881 -1.1121 -1.5315
33982SOL    HW2 5352   9.925   5.807   5.935  0.5225  0.8559  2.9207
33983SOL     OW 5353   3.686  10.030   4.128  0.1620  0.1666 -0.0942
33983SOL    HW1 5354   3.637  10.112   4.126 -0.8846 -0.4544 -0.5903
33983SOL    HW2 5355   3.754  10.044   4.193 -0.7875  0.9937  0.7370
33984SOL     OW 5356   5.611   3.124   2.493  0.2944  0.1540 -0.3384
33984SOL    HW1 5357   5.624   3.119   2.398 -0.4395 -0.0373 -0.4366
33984SOL    HW2 5358   5.573   3.039   2.516  1.1981 -0.0969  0.2501
33985SOL     OW 5359   9.556  10.772   6.917  0.4071  0.4409  0.0427
33985SOL    HW1 5360   9.578  10.723   6.839  1.0704 -0.0076  0.5074
33985SOL    HW2 5361   9.489  10.835   6.888 -0.1374 -0.4451 -0.6352
33986SOL     OW 5362   1.353   5.930   4.259 -0.0368 -0.1465 -0.0177
33986SOL    HW1 5363   1.307   5.886   4.330 -0.9151  0.0035 -0.4923
33986SOL    HW2 5364   1.289   5.992   4.223 -0.3303 -1.7683 -2.3598
33987SOL     OW 5365   1.361   7.251   2.651  0.3890  0.0685 -0.3344
33987SOL    HW1 5366   1.330   7.322   2.595  1.0147 -0.5179 -1.4341
33987SOL    HW2 5367   1.455   7.245   2.634  0.6723  0.2006  1.1391
33988SOL     OW 5368   6.529   7.445   2.736  0.4083 -0.1287  0.2589
33988SOL    HW1 5369   6.564   7.473   2.651  1.1587 -0.6863  0.3861
33988SOL    HW2 5370   6.452   7.392   2.713  0.4688 -0.0767 -0.0663
33989SOL     OW 5371   9.284   3.374   3.578 -0.0657 -0.9689  0.8764
33989SOL    HW1 5372   9.211   3.363   3.639 -1.5490  1.8059 -0.3012
33989SOL    HW2 5373   9.244   3.411   3.499  2.2932 -1.5926 -0.6573
33990SOL     OW 5374   0.239   4.040   0.537  0.6379  0.7681 -0.2797
33990SOL    HW1 5375   0.253   4.068   0.627 -0.2018  0.7707 -0.1494
33990SOL    HW2 5376   0.169   4.096   0.504  0.4851  0.3212 -0.7251
33991SOL     OW 5377   5.105   5.507   3.547  0.1463  0.2757  0.3143
33991SOL    HW1 5378   5.048   5.476   3.478  1.0611 -1.5324  0.3246
33991SOL    HW2 5379   5.052   5.569   3.597 -1.5414 -0.7858 -0.1248
33992SOL     OW 5380   2.466   4.317   5.933  0.5367  0.4382  0.0186
33992SOL    HW1 5381   2.546   4.335   5.983  0.9693  1.3653 -0.9596
33992SOL    HW2 5382   2.477   4.227   5.902  1.1213  0.4869  0.0670
33993SOL     OW 5383  10.767   4.575   0.680  0.1381  0.6060  0.4852
33993SOL    HW1 5384  10.793   4.622   0.759  2.1734  1.8326 -0.8595
33993SOL    HW2 5385  10.830   4.503   0.672 -0.1853  0.3590  0.0974
33994SOL     OW 5386   6.956   3.659  10.861  0.8329 -0.1246  0.2290
33994SOL    HW1 5387   6.912   3.700  10.787  0.0063 -1.4864 -0.0460
33994SOL    HW2 5388   6.899   3.587  10.887  2.5570 -1.5174  0.3033
33995SOL     OW 5389   6.240   5.434   4.569  0.5687  0.1108 -0.4359
33995SOL    HW1 5390   6.332   5.429   4.594  0.1831  1.6028  1.3791
33995SOL    HW2 5391   6.202   5.353   4.602  0.9469  0.1220  0.0374
33996SOL     OW 5392   6.587   9.543   4.071 -0.3016  0.0146  0.1647
33996SOL    HW1 5393   6.597   9.596   3.992  1.0855 -2.2460 -1.2055
33996SOL    HW2 5394   6.500   9.504   4.063 -0.2771  0.0145 -0.1182
33997SOL     OW 5395   4.785   2.498   6.685 -0.6491  0.3028 -0.2003
33997SOL    HW1 5396   4.831   2.480   6.603 -1.7450 -2.2062 -0.3240
33997SOL    HW2 5397   4.854   2.515   6.748  0.4232 -1.7328 -0.7640
33998SOL     OW 5398   6.809   5.524   8.782  0.1203 -0.4431  0.2145
33998SOL    HW1 5399   6.838   5.610   8.751 -0.0916 -0.0711  1.0261
33998SOL    HW2 5400   6.755   5.543   8.859 -2.1103 -1.1415 -1.1342
33999SOL     OW 5401   4.082   6.568   8.385  0.0950  0.7720 -0.4070
33999SOL    HW1 5402   3.986   6.567   8.393  0.1733  1.3897  0.7105
33999SOL    HW2 5403   4.112   6.620   8.460  1.3066  0.6330 -0.7819
34000SOL     OW 5404   3.528   9.271   2.264 -0.2611 -0.0039 -0.3036
34000SOL    HW1 5405   3.478   9.349   2.289 -2.1238 -1.1053 -0.4619
34000SOL    HW2 5406   3.469   9.198   2.285 -0.0311 -1.1895 -3.5429
34001SOL     OW 5407   8.757   9.514   6.601 -0.6319  0.2671 -0.0500
34001SOL    HW1 5408   8.704   9.437   6.580 -0.4590  0.3119 -0.6423
34001SOL    HW2 5409   8.794   9.495   6.688 -2.2569  0.5831  0.7265
34002SOL     OW 5410   8.764   4.017   1.591 -0.1424 -0.0361 -0.3872
34002SOL    HW1 5411   8.837   3.958   1.612 -2.0672 -1.9788  1.1376
34002SOL    HW2 5412   8.772   4.032   1.497  2.3967  0.0447 -0.1955
34003SOL     OW 5413   3.848   8.667   3.716  0.5942 -0.2586  0.5067
34003SOL    HW1 5414   3.854   8.708   3.630  1.8337 -0.9071  0.2649
34003SOL    HW2 5415   3.929   8.694   3.760  1.3580 -2.3128  0.4033
34004SOL     OW 5416   9.028   9.945   1.383  0.0596  0.3851 -0.0598
34004SOL    HW1 5417   9.063   9.981   1.301 -0.5207 -0.8202 -0.8353
34004SOL    HW2 5418   8.965   9.879   1.356 -1.0933  0.8726  1.3614
34005SOL     OW 5419   9.812   2.617  10.544 -0.2321  0.4865 -0.0010
34005SOL    HW1 5420   9.904   2.621  10.570 -0.1592 -0.1878 -0.1612
34005SOL    HW2 5421   9.777   2.703  10.568  0.5969  0.9875 -0.5554
34006SOL     OW 5422   2.762   5.986   4.309  0.0568 -0.3037 -0.2498
34006SOL    HW1 5423   2.708   6.039   4.251 -0.2726  0.6777  0.9364
34006SOL    HW2 5424   2.701   5.927   4.352  0.1139 -0.0995  0.1104
34007SOL     OW 5425   6.363   6.870   1.222 -0.4108  0.2872  0.3608
34007SOL    HW1 5426   6.311   6.790   1.233 -2.0761  1.5995  2.6135
34007SOL    HW2 5427   6.314   6.920   1.157  0.2155 -0.1950 -0.4819
34008SOL     OW 5428   9.051   2.144   7.534 -0.1921  0.4943 -0.2788
34008SOL    HW1 5429   9.051   2.210   7.466  1.2110  1.9556  1.0826
34008SOL    HW2 5430   8.960   2.138   7.563 -0.5932  0.6631 -1.4882
34009SOL     OW 5431   0.734   9.004   3.543 -0.4435  0.0677 -0.0587
34009SOL    HW1 5432   0.695   9.077   3.590  0.1949  0.4433 -0.0994
34009SOL    HW2 5433   0.738   8.933   3.607  0.3656  0.5572  0.4395
34010SOL     OW 5434   1.642   6.485   2.276  0.0095  0.1593  0.4230
34010SOL    HW1 5435   1.581   6.470   2.348 -0.2101  0.3149  0.2686
34010SOL    HW2 5436   1.648   6.401   2.231 -0.2854  0.2126  0.2857
34011SOL     OW 5437   2.458   3.242   9.864  0.2457  0.3403 -0.2226
34011SOL    HW1 5438   2.411   3.286   9.935  0.9122  1.7158 -0.6093
34011SOL    HW2 5439   2.398   3.246   9.790  0.3582  0.7593 -0.2964
34012SOL     OW 5440   2.781   2.212   0.262  0.1409 -0.0517 -0.0832
34012SOL    HW1 5441   2.813   2.300   0.243  0.7878  0.2119  2.0376
34012SOL    HW2 5442   2.689   2.224   0.284 -0.6454 -0.3771 -3.0087
34013SOL     OW 5443   4.165   1.012  10.689 -0.9196  0.0605  0.0199
34013SOL    HW1 5444   4.118   0.932  10.713 -0.1884 -0.3113  0.2542
34013SOL    HW2 5445   4.192   1.050  10.773 -0.5306  0.0981 -0.1187
34014SOL     OW 5446   7.522   7.519   2.794 -0.2369  0.2676 -0.3314
34014SOL    HW1 5447   7.507   7.613   2.806  0.2807  0.3396 -0.2319
34014SOL    HW2 5448   7.605   7.514   2.746 -0.7388 -0.1115 -1.1565
34015SOL     OW 5449   6.644   2.712   7.685  0.0981  0.0056 -0.2750
34015SOL    HW1 5450   6.600   2.747   7.608 -1.4835  0.1777  0.6935
34015SOL    HW2 5451   6.584   2.645   7.718  2.5768 -2.9204 -1.4927
34016SOL     OW 5452   7.170   4.554   1.942 -0.0321 -0.1286  0.5578
34016SOL    HW1 5453   7.196   4.465   1.917  1.6072  0.1679  1.0863
34016SOL    HW2 5454   7.082   4.565   1.906 -0.5385 -2.2084  1.0684
34017SOL     OW 5455   6.313   5.865   1.683 -0.5489 -0.2003 -0.2918
34017SOL    HW1 5456   6.302   5.885   1.590 -1.9983 -0.8934 -0.2844
34017SOL    HW2 5457   6.331   5.771   1.685 -0.4630 -0.1746  0.1121
34018SOL     OW 5458   9.240   2.540   4.886 -0.0704  0.4450 -0.6779
34018SOL    HW1 5459   9.144   2.536   4.894 -0.0955  1.1101 -0.6039
34018SOL    HW2 5460   9.269   2.452   4.911 -0.6999  0.0474 -1.3010
34019SOL     OW 5461   5.579  10.848   1.306  0.2968  0.3571 -0.4190
34019SOL    HW1 5462   5.510  10.889   1.254  0.2434  1.3179  0.3902
34019SOL    HW2 5463   5.656  10.901   1.289  1.4292 -2.0390 -3.0844
34020SOL     OW 5464   4.061   3.552  10.963  0.0061  0.3504  0.0794
34020SOL    HW1 5465   4.089   3.642  10.983 -1.1454  0.4121  1.5082
34020SOL    HW2 5466   4.095   3.501  11.037  0.0105 -0.2733 -0.3574
34021SOL     OW 5467   4.109   9.551   3.142 -0.5506 -0.0700 -0.3887
34021SOL    HW1 5468   4.133   9.569   3.233 -1.9875  0.7492 -0.1651
34021SOL    HW2 5469   4.164   9.476   3.118  0.1535 -0.0294  1.0082
34022SOL     OW 5470   6.057   4.629   8.857  0.1039  0.3388  0.2019
34022SOL    HW1 5471   6.079   4.648   8.948 -0.3432  0.4459  0.2844
34022SOL    HW2 5472   5.962   4.623   8.855  0.1787 -0.9597 -0.0110
34023SOL     OW 5473   4.936   5.463   5.999 -0.5180 -0.3345 -0.3764
34023SOL    HW1 5474   5.016   5.463   6.052 -1.4859 -0.0103  1.1023
34023SOL    HW2 5475   4.875   5.520   6.046 -2.0445 -1.5401 -0.8350
34024SOL     OW 5476   0.430   3.240   5.290 -0.4105 -0.4417 -0.3887
34024SOL    HW1 5477   0.393   3.153   5.303  0.8841 -0.9279  0.1359
34024SOL    HW2 5478   0.501   3.228   5.228  0.9084 -0.0840  1.0060
34025SOL     OW 5479   5.363   2.697  10.815  0.0905  0.2682  0.4239
34025SOL    HW1 5480   5.296   2.637  10.848 -0.5694  0.2001 -0.9743
34025SOL    HW2 5481   5.388   2.661  10.730 -0.7478  2.2613 -0.7076
34026SOL     OW 5482   1.630   1.321  10.054 -0.0416  0.5219 -0.4431
34026SOL    HW1 5483   1.667   1.396  10.008  0.9318  0.8252  0.7975
34026SOL    HW2 5484   1.620   1.254   9.987  0.2627  1.3446 -1.3200
34027SOL     OW 5485   0.694   3.163  10.768  0.1626  0.4030  0.1380
34027SOL    HW1 5486   0.647   3.166  10.685  0.5289 -0.7911 -0.1231
34027SOL    HW2 5487   0.654   3.088  10.814  0.5127  0.5627  0.6976
34028SOL     OW 5488   4.652   0.349   0.446 -0.3527 -0.5017  0.5359
34028SOL    HW1 5489   4.724   0.285   0.436  0.2627  0.2659  0.0140
34028SOL    HW2 5490   4.697   0.431   0.465 -1.1413 -0.1719  0.9634
34029SOL     OW 5491   9.833   3.673   1.223  0.0259 -0.5765  0.1466
34029SOL    HW1 5492   9.878   3.641   1.145 -2.8186 -2.1779 -0.9252
34029SOL    HW2 5493   9.843   3.603   1.288  0.0594 -0.4250  0.3064
34030SOL     OW 5494   3.084   8.732   3.804  0.0285 -0.0193 -0.0159
34030SOL    HW1 5495   3.104   8.790   3.877 -1.7307 -0.4256  0.7999
34030SOL    HW2 5496   3.002   8.766   3.767  0.3940 -0.3880 -1.2109
34031SOL     OW 5497   6.902   9.220   1.169 -0.6539  0.3429  0.2802
34031SOL    HW1 5498   6.866   9.132   1.183 -0.5365  0.3857  0.8377
34031SOL    HW2 5499   6.845   9.258   1.102  1.0585 -1.2092 -2.1362
34032SOL     OW 5500   2.331   0.867  10.586  0.0700  0.3771  0.2292
34032SOL    HW1 5501   2.271   0.796  10.563 -0.2637  1.1608 -1.3920
34032SOL    HW2 5502   2.274   0.934  10.625 -0.0627  0.9459 -0.9215
34033SOL     OW 5503   9.949   5.075   4.724 -0.3331  0.4369  0.2334
34033SOL    HW1 5504  10.025   5.127   4.700  0.0772  0.8929  2.3844
34033SOL    HW2 5505   9.926   5.027   4.645  0.8747  1.9239 -1.0377
34034SOL     OW 5506   8.057   5.838  10.187 -0.2736  0.4913 -0.0633
34034SOL    HW1 5507   7.998   5.763  10.189  0.0620  0.2348  0.2107
34034SOL    HW2 5508   8.099   5.834  10.101 -0.6554  0.6742 -0.2568
34035SOL     OW 5509   2.273   8.600   3.761 -0.3898  0.5400  0.5687
34035SOL    HW1 5510   2.356   8.612   3.715 -1.5222 -1.4085 -2.1340
34035SOL    HW2 5511   2.294   8.539   3.832  0.2029 -1.3122 -1.1443
34036SOL     OW 5512   6.855   6.407   8.261 -0.0699 -0.3085 -0.1009
34036SOL    HW1 5513   6.765   6.416   8.293 -1.0877  0.3784 -3.0151
34036SOL    HW2 5514   6.909   6.449   8.329 -2.2818  2.4925  0.0162
34037SOL     OW 5515   1.339   9.126   3.293  0.2746 -0.0918 -0.1481
34037SOL    HW1 5516   1.419   9.105   3.245  0.4315 -1.5663  0.7340
34037SOL    HW2 5517   1.338   9.221   3.298  2.2912 -0.0780  0.3575
34038SOL     OW 5518   7.046   4.362   6.865 -0.7131  0.3393  0.0255
34038SOL    HW1 5519   7.119   4.300   6.865 -0.2522  0.8767 -0.1222
34038SOL    HW2 5520   6.968   4.307   6.875 -0.2047 -0.1210  1.5712
34039SOL     OW 5521   3.775   0.128   0.084 -0.2212 -0.0333 -0.2834
34039SOL    HW1 5522   3.721   0.050   0.098  1.1984 -1.2628 -1.5165
34039SOL    HW2 5523   3.846   0.121   0.148 -0.9959  1.1392  0.7449
34040SOL     OW 5524   8.133   7.411   5.870  0.2623  0.3605 -0.1442
34040SOL    HW1 5525   8.073   7.344   5.838  1.3187 -0.3242 -0.7465
34040SOL    HW2 5526   8.106   7.491   5.826  0.8775 -0.3084 -1.7890
34041SOL     OW 5527   3.991   4.770   7.271 -0.5872 -0.4693 -0.4875
34041SOL    HW1 5528   4.003   4.853   7.226 -0.6384 -1.3300 -2.1002
34041SOL    HW2 5529   4.076   4.752   7.311 -0.1771 -0.3146 -1.2848
34042SOL     OW 5530   6.276   2.757   6.192 -0.1249 -0.0368 -0.0430
34042SOL    HW1 5531   6.326   2.750   6.273  1.8346  2.1269 -1.0263
34042SOL    HW2 5532   6.311   2.688   6.135 -0.5297 -0.6345  0.4269
34043SOL     OW 5533   8.537   8.676   0.924 -0.0484 -0.2804 -0.0704
34043SOL    HW1 5534   8.632   8.666   0.922 -0.1972 -2.1048  0.7572
34043SOL    HW2 5535   8.521   8.740   0.994  0.4807 -1.7563  1.4423
34044SOL     OW 5536   1.425   4.454   7.129 -0.0819  0.2761  0.1805
34044SOL    HW1 5537   1.416   4.548   7.117  1.4513  0.4874  0.6059
34044SOL    HW2 5538   1.404   4.417   7.043  0.1027  1.0602 -0.2077
34045SOL     OW 5539   8.275   6.166   1.554  0.3534  0.3200  0.4289
34045SOL    HW1 5540   8.355   6.213   1.529  0.5426  0.2368  0.8766
34045SOL    HW2 5541   8.285   6.079   1.514  0.3375  0.4209  0.2069
34046SOL     OW 5542   3.619   8.927   0.134  0.4649  0.3729  0.0954
34046SOL    HW1 5543   3.661   8.986   0.197 -0.4344  0.7459  0.3443
34046SOL    HW2 5544   3.531   8.913   0.169  0.2007  0.0050 -0.7080
34047SOL     OW 5545   8.997   6.126   9.316 -0.2744  0.3239  0.1945
34047SOL    HW1 5546   9.057   6.169   9.255 -0.9254  2.6031  1.0864
34047SOL    HW2 5547   8.917   6.113   9.266  0.3713 -1.1353 -0.4831
34048SOL     OW 5548   5.740   7.517   2.679 -0.1135 -0.2956  0.1667
34048SOL    HW1 5549   5.794   7.594   2.692 -1.6402  0.8940 -0.3841
34048SOL    HW2 5550   5.710   7.522   2.588 -2.1162 -0.2569  0.7939
34049SOL     OW 5551  10.314  10.441  10.492 -0.2828  0.1979  0.2390
34049SOL    HW1 5552  10.222  10.449  10.470 -0.1959  0.4156 -0.0526
34049SOL    HW2 5553  10.346  10.372  10.434 -0.4713 -0.5394  1.0055
34050SOL     OW 5554  10.973   6.110   2.540 -0.0065 -0.2159  0.1713
34050SOL    HW1 5555  10.880   6.130   2.528 -0.2677 -1.3677  0.1479
34050SOL    HW2 5556  11.001   6.167   2.611 -0.4893  0.8303 -0.4633
34051SOL     OW 5557   9.281   9.721   2.320  0.7082  0.1145  0.1119
34051SOL    HW1 5558   9.250   9.802   2.361 -0.1052  1.7433 -3.5060
34051SOL    HW2 5559   9.376   9.729   2.321  0.6556  0.6956  0.6398
34052SOL     OW 5560   7.015   2.918   4.234 -0.1482  0.0946  0.5905
34052SOL    HW1 5561   7.053   2.861   4.300  0.2572 -0.4817 -0.1300
34052SOL    HW2 5562   6.921   2.898   4.236 -0.1887  0.3281  1.2211
34053SOL     OW 5563   8.696   6.764   3.531  0.8601  0.0216 -0.2136
34053SOL    HW1 5564   8.618   6.799   3.488  0.6173 -1.0174 -0.6284
34053SOL    HW2 5565   8.703   6.815   3.612  0.2788  0.7418 -0.6094
34054SOL     OW 5566   2.534   5.519   0.984 -0.4645  0.0138 -0.2558
34054SOL    HW1 5567   2.595   5.593   0.984  1.2515 -1.3123 -2.6487
34054SOL    HW2 5568   2.485   5.528   0.902 -0.4724 -1.2841 -0.4057
34055SOL     OW 5569   7.037   1.401   4.508  0.6623 -0.3394  0.0200
34055SOL    HW1 5570   6.986   1.483   4.506 -1.0599 -1.3724  0.5990
34055SOL    HW2 5571   7.061   1.386   4.417 -2.2198 -1.1131 -0.6757
34056SOL     OW 5572   3.588   5.995  10.043  0.5417 -0.5177 -0.4345
34056SOL    HW1 5573   3.624   6.066  10.096 -1.5957  0.3734 -0.1124
34056SOL    HW2 5574   3.532   6.039   9.979 -1.4566 -1.9334  0.2904
34057SOL     OW 5575   7.907   3.752   3.730  0.2781 -0.4643 -0.2418
34057SOL    HW1 5576   7.990   3.708   3.748  0.6611  0.3934  0.1124
34057SOL    HW2 5577   7.895   3.811   3.805 -1.1916 -1.3769  0.2529
34058SOL     OW 5578   5.845   7.231   2.714 -0.2168 -0.4592  0.5446
34058SOL    HW1 5579   5.784   7.292   2.672 -0.5994  0.1733  1.9871
34058SOL    HW2 5580   5.901   7.286   2.769 -0.5751 -1.3942  1.8821
34059SOL     OW 5581   6.950   9.265  10.884  0.5445 -0.1438  0.0612
34059SOL    HW1 5582   6.919   9.180  10.854  1.4856 -1.2476  2.1106
34059SOL    HW2 5583   6.911   9.276  10.970  1.0524  1.1659  0.1348
34060SOL     OW 5584   4.338   5.093   3.543  0.6497 -0.0886  0.1486
34060SOL    HW1 5585   4.418   5.059   3.583  0.3823 -0.1303  0.6499
34060SOL    HW2 5586   4.269   5.033   3.571  0.8837 -1.7811 -2.6526
34061SOL     OW 5587   2.566   1.226   7.283  0.0265 -0.8476  0.4225
34061SOL    HW1 5588   2.638   1.278   7.319 -0.8989  1.8170 -1.3916
34061SOL    HW2 5589   2.523   1.188   7.360  1.5120  0.0390  1.7288
34062SOL     OW 5590   8.302  10.798  10.614 -0.2609  0.1957  0.0244
34062SOL    HW1 5591   8.314  10.735  10.544 -0.0355  0.4339 -0.1515
34062SOL    HW2 5592   8.232  10.856  10.583  0.0322  0.4718 -0.1268
34063SOL     OW 5593   7.025   9.706   6.372  0.0034 -0.3981  0.0866
34063SOL    HW1 5594   6.964   9.693   6.300 -0.5859  0.3558  0.4322
34063SOL    HW2 5595   7.090   9.637   6.362 -1.0033 -1.3213 -0.1887
34064SOL     OW 5596  10.888   8.377   3.700 -0.3078  0.3652  0.3968
34064SOL    HW1 5597  10.946   8.301   3.707 -2.3674 -1.2274  0.6895
34064SOL    HW2 5598  10.810   8.343   3.656 -1.2028  2.3464  0.4293
34065SOL     OW 5599   7.310   2.469   4.980  0.1427  0.4029 -0.2444
34065SOL    HW1 5600   7.223   2.451   5.018  0.2332  2.8097  1.2418
34065SOL    HW2 5601   7.346   2.382   4.962 -1.4057 -0.7471  1.8572
34066SOL     OW 5602   4.085   6.998   0.705 -0.1161  0.2651 -0.0900
34066SOL    HW1 5603   4.108   6.934   0.638  0.3209 -1.1054  1.3184
34066SOL    HW2 5604   4.167   7.012   0.753 -0.5013  0.9641  0.3731
34067SOL     OW 5605   6.992   9.383   6.221 -0.2168  0.3380  0.5242
34067SOL    HW1 5606   7.006   9.451   6.155 -0.8904  1.3840  1.4278
34067SOL    HW2 5607   7.073   9.381   6.271 -0.5641  1.1915  1.1260
34068SOL     OW 5608   9.117   1.679  10.788  0.6938  0.4020 -0.3074
34068SOL    HW1 5609   9.176   1.615  10.747  0.5876  0.6178 -0.8067
34068SOL    HW2 5610   9.054   1.626  10.837  2.6474  0.2308  2.1005
34069SOL     OW 5611   2.819   5.502   1.321  0.4011 -0.2490 -0.3295
34069SOL    HW1 5612   2.826   5.597   1.309 -0.9522 -0.2029 -0.8409
34069SOL    HW2 5613   2.773   5.492   1.404 -1.0833 -0.4078 -1.1355
34070SOL     OW 5614   0.259   6.589   9.486  0.1209  0.1470 -0.1013
34070SOL    HW1 5615   0.318   6.545   9.548  0.0304  1.1583  0.7024
34070SOL    HW2 5616   0.314   6.653   9.441  0.0101 -0.0538 -0.5264
34071SOL     OW 5617   2.593   7.777   6.590  0.1368 -0.1032 -0.5009
34071SOL    HW1 5618   2.596   7.870   6.610 -0.1124 -0.0025 -0.9070
34071SOL    HW2 5619   2.677   7.742   6.620 -0.7241 -0.2109  1.8586
34072SOL     OW 5620   3.241   7.981   9.730 -0.0423  0.5352 -0.0351
34072SOL    HW1 5621   3.291   7.990   9.811 -0.8881 -1.5668  0.7726
34072SOL    HW2 5622   3.236   8.070   9.694  3.6847  0.8771  0.1520
34073SOL     OW 5623   1.514   2.179   6.927 -0.0283 -0.8311  0.4275
34073SOL    HW1 5624   1.583   2.232   6.887  0.8104 -1.1419  1.4301
34073SOL    HW2 5625   1.434   2.229   6.913  0.5052 -0.1190 -0.1292
34074SOL     OW 5626   5.716   4.484   1.598 -0.1661 -0.0301  0.1439
34074SOL    HW1 5627   5.681   4.395   1.607  1.4023 -0.7466 -0.6477
34074SOL    HW2 5628   5.756   4.503   1.683  0.8696 -0.6958 -0.1885
34075SOL     OW 5629   1.812   5.031   0.595 -0.5805  0.0598 -0.3879
34075SOL    HW1 5630   1.803   5.099   0.661 -0.6245  0.3671 -0.7078
34075SOL    HW2 5631   1.740   4.970   0.612  2.0956 -2.3790  2.7751
34076SOL     OW 5632   1.608   3.345   5.912 -0.4153 -0.1673 -0.5214
34076SOL    HW1 5633   1.676   3.361   5.976 -0.1888  0.6202 -0.9500
34076SOL    HW2 5634   1.622   3.411   5.844 -1.2340 -0.3749 -0.9095
34077SOL     OW 5635   9.246   8.211   0.502  0.6852  0.0989 -0.5485
34077SOL    HW1 5636   9.175   8.226   0.565 -0.7766  0.4711 -2.2291
34077SOL    HW2 5637   9.203   8.170   0.427  2.8122 -2.7056 -0.3428
34078SOL     OW 5638   6.387   0.733   9.312  0.1136  0.8239 -0.2823
34078SOL    HW1 5639   6.382   0.692   9.399  0.2642  1.2989 -0.0451
34078SOL    HW2 5640   6.312   0.698   9.265  0.2458  0.2643 -0.0889
34079SOL     OW 5641   7.300   8.558   0.806  0.1430 -0.0219 -0.2684
34079SOL    HW1 5642   7.263   8.618   0.741 -0.5157 -0.3241 -0.1713
34079SOL    HW2 5643   7.294   8.471   0.765 -0.3431 -0.2211  0.2327
34080SOL     OW 5644   1.110   3.396   8.840  0.2595 -0.6082 -0.1632
34080SOL    HW1 5645   1.056   3.352   8.905  1.4332  0.7933  1.8132
34080SOL    HW2 5646   1.108   3.338   8.764 -1.3670 -2.1394  1.0127
34081SOL     OW 5647   5.144   7.496   6.699  0.0459 -0.5863 -0.3998
34081SOL    HW1 5648   5.107   7.423   6.649 -0.6109 -0.7094  0.2614
34081SOL    HW2 5649   5.223   7.459   6.739  0.2145 -0.6715 -0.7999
34082SOL     OW 5650   0.287   5.137   2.938  0.3480 -0.3650 -0.3396
34082SOL    HW1 5651   0.319   5.180   2.859  1.0409  1.0226  0.6775
34082SOL    HW2 5652   0.192   5.142   2.932  0.4116  0.3107 -0.7798
34083SOL     OW 5653   8.484   7.940   7.990 -0.3887 -0.1900 -0.2451
34083SOL    HW1 5654   8.446   7.873   8.047  0.4110  0.2733  0.8508
34083SOL    HW2 5655   8.561   7.899   7.951 -0.1426 -0.0454  0.0912
34084SOL     OW 5656   5.763   3.358  10.212 -0.1969  0.3846  0.1051
34084SOL    HW1 5657   5.799   3.271  10.229 -1.5060  0.1793  1.9239
34084SOL    HW2 5658   5.769   3.403  10.296 -4.4471  0.2392  0.5910
34085SOL     OW 5659   2.184   8.634   2.273  0.3418 -0.2661 -0.0405
34085SOL    HW1 5660   2.186   8.599   2.362  0.2425  0.8642  0.4086
34085SOL    HW2 5661   2.105   8.687   2.270 -0.0940 -0.9432 -1.0591
34086SOL     OW 5662   4.738   6.492  10.816 -0.1197  0.7923 -0.4950
34086SOL    HW1 5663   4.698   6.539  10.742 -0.7441  2.3568  0.7884
34086SOL    HW2 5664   4.793   6.558  10.858  0.4080 -0.1583  0.3007
34087SOL     OW 5665  10.022  10.237   6.474 -0.0046  0.0541 -0.1740
34087SOL    HW1 5666  10.112  10.270   6.472 -1.3726  4.0599  1.5550
34087SOL    HW2 5667  10.012  10.199   6.561 -0.0528 -0.3073 -0.3335
34088SOL     OW 5668   1.722   8.135   6.409 -0.1375 -0.0329 -0.4891
34088SOL    HW1 5669   1.737   8.083   6.331 -0.1809  1.0065 -1.2039
34088SOL    HW2 5670   1.792   8.110   6.469 -0.8339 -1.7529 -0.3702
34089SOL     OW 5671   6.631   2.448   9.854 -0.6099  0.1472  0.5612
34089SOL    HW1 5672   6.710   2.395   9.862 -0.2959  0.3780 -0.8423
34089SOL    HW2 5673   6.614   2.452   9.760 -2.0242  0.5006  0.8121
34090SOL     OW 5674   4.079   2.401   7.867 -0.3274  0.0664 -0.2092
34090SOL    HW1 5675   4.125   2.411   7.783 -0.6844  0.0412 -0.4080
34090SOL    HW2 5676   4.030   2.482   7.877  1.5632  1.0828  1.1171
34091SOL     OW 5677   3.672   2.416   2.223 -0.0092  0.0532 -0.1503
34091SOL    HW1 5678   3.582   2.436   2.199  0.4752  2.1677 -0.3215
34091SOL    HW2 5679   3.694   2.338   2.173 -2.5432 -2.0302  1.8168
34092SOL     OW 5680  10.119   7.926   2.303 -0.5070 -0.7207 -0.0628
34092SOL    HW1 5681  10.037   7.971   2.322 -0.7807 -1.5041  0.6890
34092SOL    HW2 5682  10.146   7.890   2.388  1.0712  0.2726 -0.1203
34093SOL     OW 5683   6.323  10.733   7.806 -0.1147 -0.0222 -0.5267
34093SOL    HW1 5684   6.376  10.801   7.764  0.2320  1.3615  2.0092
34093SOL    HW2 5685   6.233  10.752   7.779  0.2326  0.0534 -1.6448
34094SOL     OW 5686   3.249   3.439   7.862  0.3291  0.5312  0.2136
34094SOL    HW1 5687   3.331   3.440   7.813  0.3904 -1.0104  0.2580
34094SOL    HW2 5688   3.198   3.368   7.822  0.1806 -0.4232  2.0390
34095SOL     OW 5689  10.904   6.289   4.806 -0.2984 -0.3339  0.1416
34095SOL    HW1 5690  10.900   6.376   4.765 -0.1459 -0.3910  0.0055
34095SOL    HW2 5691  10.945   6.233   4.740  1.1612 -0.1385  0.8634
34096SOL     OW 5692   6.302   8.436   5.563 -0.4248  0.5904  0.0061
34096SOL    HW1 5693   6.239   8.448   5.492  0.1973  2.0081 -0.3288
34096SOL    HW2 5694   6.267   8.488   5.635 -1.8987 -2.1319  1.3207
34097SOL     OW 5695   4.759   9.300  10.624 -0.0902 -0.4867  0.3830
34097SOL    HW1 5696   4.849   9.272  10.644 -0.2631  0.1553  2.1546
34097SOL    HW2 5697   4.714   9.219  10.601  0.8986 -0.8439 -0.3137
34098SOL     OW 5698   0.142   6.296   2.231 -0.2694 -0.0569  0.5108
34098SOL    HW1 5699   0.056   6.335   2.224 -0.9730 -1.6782 -0.3611
34098SOL    HW2 5700   0.157   6.284   2.324  0.1982  2.7078  0.8342
34099SOL     OW 5701   2.523   2.029   7.149 -0.7578 -0.2381 -0.0664
34099SOL    HW1 5702   2.529   1.949   7.097 -1.6377  0.3266 -1.0712
34099SOL    HW2 5703   2.610   2.068   7.144 -0.9285 -0.0242 -1.4022
34100SOL     OW 5704   3.522   7.222   5.480  0.7241  0.4356  0.0298
34100SOL    HW1 5705   3.552   7.203   5.392 -1.2141 -1.1887 -0.3073
34100SOL    HW2 5706   3.519   7.137   5.524 -0.4309  0.9567  0.9805
34101SOL     OW 5707   5.370   0.647   9.113  0.1343 -0.0259 -0.4517
34101SOL    HW1 5708   5.384   0.554   9.132  1.4262  0.3179  0.3252
34101SOL    HW2 5709   5.341   0.684   9.197 -0.7729  0.2008 -0.8604
34102SOL     OW 5710   4.630   5.119   0.102 -0.3531 -0.1592 -0.2268
34102SOL    HW1 5711   4.587   5.033   0.101 -1.0049  0.1487  0.6478
34102SOL    HW2 5712   4.600   5.160   0.183  1.8179 -0.0409  0.5236
34103SOL     OW 5713   9.303   6.929   6.912  0.3474  0.1215  0.1520
34103SOL    HW1 5714   9.350   7.011   6.902 -2.1188  1.8488  2.1652
34103SOL    HW2 5715   9.221   6.942   6.864  0.9180 -2.1044 -1.5797
34104SOL     OW 5716   2.852  10.125  10.043  0.3561  0.0795  0.1170
34104SOL    HW1 5717   2.822  10.214  10.062 -0.0899 -0.1006  0.2676
34104SOL    HW2 5718   2.875  10.089  10.128 -4.0378 -1.5988  0.7129
34105SOL     OW 5719   4.403   4.060   6.105  0.8841 -0.1581  0.2226
34105SOL    HW1 5720   4.445   4.093   6.026  1.5994 -0.4591  0.4787
34105SOL    HW2 5721   4.399   3.965   6.092 -2.2088  0.0598 -1.0352
34106SOL     OW 5722   1.210   6.359  10.651 -0.3292  0.1070  0.4801
34106SOL    HW1 5723   1.124   6.341  10.689 -0.3673  2.7467  1.7790
34106SOL    HW2 5724   1.270   6.352  10.725  0.8089 -2.8997 -0.6444
34107SOL     OW 5725   1.416   2.758  10.292 -0.3229  0.3218 -0.3533
34107SOL    HW1 5726   1.391   2.727  10.205  0.4972 -2.5844  0.3872
34107SOL    HW2 5727   1.512   2.758  10.290 -0.3070  0.3122  0.5104
34108SOL     OW 5728   8.692   6.813   4.212  0.1590  0.2255 -0.3952
34108SOL    HW1 5729   8.733   6.869   4.147  0.4786 -1.1485 -1.3845
34108SOL    HW2 5730   8.742   6.732   4.210 -1.0360 -0.5478  0.1839
34109SOL     OW 5731   8.772   0.875   2.713  0.2461 -0.0071 -0.2231
34109SOL    HW1 5732   8.691   0.917   2.742  0.8757  0.2311  1.2012
34109SOL    HW2 5733   8.743   0.812   2.646 -1.2665 -0.9106  1.2462
34110SOL     OW 5734   9.994   9.898  10.646  0.6861  0.1811  0.3094
34110SOL    HW1 5735   9.906   9.869  10.671  0.3029  1.0521 -0.0294
34110SOL    HW2 5736  10.006   9.865  10.557  0.7458 -0.0254  0.3935
34111SOL     OW 5737   7.113   9.019   4.577 -0.2052 -0.1813 -0.5386
34111SOL    HW1 5738   7.018   9.024   4.592  0.1422  2.0791  1.1849
34111SOL    HW2 5739   7.125   9.048   4.487 -1.1852 -0.8860 -0.9035
34112SOL     OW 5740  10.379   9.783   0.065 -0.2299  0.3192 -0.1029
34112SOL    HW1 5741  10.358   9.700   0.108 -1.8088  0.4953 -0.5158
34112SOL    HW2 5742  10.320   9.786  -0.011 -0.1901  1.8279 -0.0725
34113SOL     OW 5743   0.051   0.397   2.796 -0.2915 -0.0424  0.3730
34113SOL    HW1 5744   0.043   0.479   2.846 -0.0876  0.4952 -0.4617
34113SOL    HW2 5745   0.109   0.420   2.723 -1.2760 -0.5986 -0.5890
34114SOL     OW 5746   5.344   7.112  10.816  0.2100  0.1652 -0.2023
34114SOL    HW1 5747   5.270   7.053  10.805 -0.2674  0.7514 -0.1226
34114SOL    HW2 5748   5.421   7.054  10.812 -0.1908 -0.3175 -1.2698
34115SOL     OW 5749   5.317   0.355   7.858  0.1799  0.1462 -0.3489
34115SOL    HW1 5750   5.250   0.363   7.791  1.1550 -1.3921 -1.5433
34115SOL    HW2 5751   5.281   0.294   7.922  0.2911 -0.4006 -0.8052
34116SOL     OW 5752  10.875   6.962   8.648  0.0827 -0.0529  0.1604
34116SOL    HW1 5753  10.864   6.899   8.720 -2.3544 -1.4500 -1.3681
34116SOL    HW2 5754  10.892   6.908   8.571 -0.0903  1.2626 -0.8098
34117SOL     OW 5755   4.173   3.253   3.305 -0.5201 -0.5689  0.2172
34117SOL    HW1 5756   4.237   3.298   3.251 -2.2088  1.4009 -0.1807
34117SOL    HW2 5757   4.096   3.309   3.304 -1.5613 -1.8688  2.3745
34118SOL     OW 5758   9.494   0.910   2.360 -0.1209 -0.4148  0.3330
34118SOL    HW1 5759   9.500   1.001   2.391 -1.1024 -0.2424  0.0504
34118SOL    HW2 5760   9.433   0.868   2.421  0.5690 -0.9727  0.6481
34119SOL     OW 5761   4.570   9.309   7.219  0.2798  0.3095  0.3951
34119SOL    HW1 5762   4.581   9.343   7.307 -0.5754  0.0892  0.5880
34119SOL    HW2 5763   4.578   9.386   7.162 -0.2011  0.6118  0.7362
34120SOL     OW 5764   5.619   9.075   5.658 -0.5506  0.1075 -0.3575
34120SOL    HW1 5765   5.573   9.133   5.597 -1.3467 -0.4545 -0.3002
34120SOL    HW2 5766   5.553   9.051   5.723  0.2347  0.5227  0.6090
34121SOL     OW 5767   7.360   2.258   8.456  0.5885  0.5440  0.1408
34121SOL    HW1 5768   7.370   2.316   8.381  1.7309 -1.2096 -1.0906
34121SOL    HW2 5769   7.448   2.223   8.472 -0.0044 -0.5906  1.0633
34122SOL     OW 5770   6.757   0.648  10.448 -0.4468  1.0075  0.0183
34122SOL    HW1 5771   6.836   0.691  10.415 -0.3410  0.7342 -0.0860
34122SOL    HW2 5772   6.688   0.713  10.437 -0.1724  1.3789  0.4363
34123SOL     OW 5773   3.675   0.871   4.497 -0.2951 -0.2476  0.2501
34123SOL    HW1 5774   3.589   0.900   4.530  0.4872  0.7269  1.4905
34123SOL    HW2 5775   3.658   0.785   4.459 -1.8050 -0.1329  0.6178
34124SOL     OW 5776  10.670   4.319   6.533  0.1814 -0.0505  0.4686
34124SOL    HW1 5777  10.761   4.323   6.561  0.3752  4.1045 -0.3724
34124SOL    HW2 5778  10.629   4.395   6.573 -2.3753 -0.5685 -1.0133
34125SOL     OW 5779   8.544   8.311   3.214 -0.7134  0.1438  0.2176
34125SOL    HW1 5780   8.515   8.304   3.305 -0.0407 -1.1289  0.3420
34125SOL    HW2 5781   8.478   8.264   3.164 -0.3245 -0.4045  0.2118
34126SOL     OW 5782   8.781   8.858   7.765  0.7722 -0.1947 -0.4258
34126SOL    HW1 5783   8.796   8.829   7.675 -1.6196  0.3579 -1.0217
34126SOL    HW2 5784   8.767   8.952   7.758  0.2701 -0.1935  0.5082
34127SOL     OW 5785  10.825   3.255   8.224  0.2996  0.0367 -0.8871
34127SOL    HW1 5786  10.851   3.325   8.165 -2.2292  0.6697 -1.2884
34127SOL    HW2 5787  10.738   3.229   8.195 -0.8016  0.0158  2.1932
34128SOL     OW 5788   2.430   2.950   9.342 -0.6781 -0.0197  0.4983
34128SOL    HW1 5789   2.460   2.892   9.412  0.4335  0.6153  0.5694
34128SOL    HW2 5790   2.474   2.917   9.263 -0.5500  0.3142  0.4266
34129SOL     OW 5791  10.049   4.180   5.535  0.5562 -0.4421 -0.8614
34129SOL    HW1 5792  10.059   4.108   5.597 -0.4506 -0.8403 -1.1593
34129SOL    HW2 5793  10.126   4.236   5.550  0.6179 -0.8491  0.3216
34130SOL     OW 5794   3.904   2.549   6.228 -0.0237  0.4448 -0.1871
34130SOL    HW1 5795   3.962   2.534   6.303 -1.2413  2.5448  1.2306
34130SOL    HW2 5796   3.822   2.579   6.267 -1.5135 -0.8180 -2.2556
34131SOL     OW 5797   7.144   2.805   5.081  0.2647 -0.3173  0.2399
34131SOL    HW1 5798   7.224   2.850   5.110  0.7226 -0.8803 -0.1225
34131SOL    HW2 5799   7.174   2.749   5.009 -0.5926 -0.0015 -0.3643
34132SOL     OW 5800   0.065   9.527   6.278 -0.1547  0.4663 -0.2418
34132SOL    HW1 5801   0.062   9.598   6.342  0.3392 -1.1503  1.6459
34132SOL    HW2 5802   0.158   9.502   6.274 -0.2585  0.2167 -1.2011
34133SOL     OW 5803   7.780   7.680   7.530  0.0108  0.2702 -0.2187
34133SOL    HW1 5804   7.764   7.625   7.453 -1.2178 -1.5746  1.3293
34133SOL    HW2 5805   7.756   7.768   7.500 -0.8317 -0.4761 -1.8473
34134SOL     OW 5806   4.438   7.246   9.602 -0.2887  0.1543  0.2909
34134SOL    HW1 5807   4.384   7.174   9.568 -0.1071 -0.3931  1.1434
34134SOL    HW2 5808   4.527   7.223   9.575 -0.1795 -0.1422  0.9018
34135SOL     OW 5809   9.594   2.124   8.499  0.5999 -0.5039 -0.0598
34135SOL    HW1 5810   9.517   2.104   8.447  0.1296  0.3908  0.2727
34135SOL    HW2 5811   9.629   2.039   8.526  0.3278 -0.9391 -1.0687
34136SOL     OW 5812   4.715   1.430   7.556 -0.3488 -0.3764  0.1735
34136SOL    HW1 5813   4.623   1.404   7.567 -0.8672  0.7479 -1.3510
34136SOL    HW2 5814   4.724   1.447   7.462  0.7006  2.2201  0.7141
34137SOL     OW 5815   2.909   6.633   3.981 -0.7949 -0.4605 -0.4035
34137SOL    HW1 5816   2.954   6.607   3.900 -2.4187 -3.0940 -0.4927
34137SOL    HW2 5817   2.959   6.591   4.051 -0.5892  0.1694 -0.1642
34138SOL     OW 5818   0.065   0.427   5.849  0.1835 -0.0214  0.4119
34138SOL    HW1 5819   0.116   0.369   5.792 -0.7633 -0.5115  0.0484
34138SOL    HW2 5820   0.000   0.370   5.890  0.4430  0.4479  1.4970
34139SOL     OW 5821   8.971   7.704   4.191  0.3058 -0.0967  0.4582
34139SOL    HW1 5822   9.032   7.771   4.224  2.5010 -0.8522 -1.8375
34139SOL    HW2 5823   8.997   7.624   4.236 -1.2805  0.2290  2.0137
34140SOL     OW 5824   2.482   3.827   5.231 -0.0967  0.3111  0.1312
34140SOL    HW1 5825   2.555   3.774   5.264  0.3745  0.4563 -0.6597
34140SOL    HW2 5826   2.427   3.766   5.183  0.3834  0.4964 -0.6780
34141SOL     OW 5827   7.500   0.571   5.304 -0.4545 -0.0129 -0.1381
34141SOL    HW1 5828   7.463   0.597   5.220  0.7461 -1.9081 -1.3017
34141SOL    HW2 5829   7.425   0.541   5.356 -1.2006  1.2052 -0.4780
34142SOL     OW 5830   3.491   0.718   6.448 -0.1121 -0.1347 -0.2233
34142SOL    HW1 5831   3.499   0.672   6.365 -0.4244  2.3920 -1.6855
34142SOL    HW2 5832   3.576   0.706   6.490  0.1298 -1.2214 -0.9881
34143SOL     OW 5833   5.966   3.378   9.362 -0.3921 -0.4945 -0.0396
34143SOL    HW1 5834   5.958   3.427   9.280 -1.2773  0.4327  0.5889
34143SOL    HW2 5835   5.998   3.441   9.425  2.9788 -1.8733 -0.2605
34144SOL     OW 5836   9.333   6.300  10.236 -0.1994  0.4112  0.4534
34144SOL    HW1 5837   9.286   6.268  10.158 -0.1466  2.0698 -0.2959
34144SOL    HW2 5838   9.415   6.336  10.201 -0.1503  1.1067  1.2794
34145SOL     OW 5839   8.054  10.423   9.492  0.2604  0.0058 -0.2588
34145SOL    HW1 5840   8.089  10.335   9.503  0.2850 -0.0092 -0.4585
34145SOL    HW2 5841   8.022  10.425   9.402  0.6589  0.3376 -0.3971
34146SOL     OW 5842   5.705   0.176   0.345 -0.0650  0.7170  0.0338
34146SOL    HW1 5843   5.763   0.128   0.404  0.7901 -0.1709 -1.5056
34146SOL    HW2 5844   5.620   0.178   0.390  0.1409 -1.3954  0.5602
34147SOL     OW 5845   8.711   4.877   4.051  0.9115  0.0681 -0.0201
34147SOL    HW1 5846   8.799   4.916   4.055  0.5435  1.1730 -2.1669
34147SOL    HW2 5847   8.654   4.943   4.089  0.9582 -0.6047  1.2674
34148SOL     OW 5848   9.050   4.196   9.186  0.0023 -0.1308  0.0309
34148SOL    HW1 5849   9.052   4.248   9.105 -1.2219 -0.1615 -0.0321
34148SOL    HW2 5850   8.957   4.192   9.209  0.3842  0.1435  1.6278
34149SOL     OW 5851  10.725  10.034   5.733 -0.4205 -0.4099 -0.1808
34149SOL    HW1 5852  10.691   9.951   5.702 -0.8272 -0.7256  1.0694
34149SOL    HW2 5853  10.715  10.030   5.828 -1.0826  1.3273 -0.1492
34150SOL     OW 5854   9.716   1.220   6.878 -0.0520  0.4759 -0.3702
34150SOL    HW1 5855   9.805   1.186   6.892 -1.0174 -2.5123 -1.0725
34150SOL    HW2 5856   9.661   1.165   6.933 -1.4510  2.5461  0.3368
34151SOL     OW 5857   9.171   1.898   4.092 -0.4184 -1.2654  0.1505
34151SOL    HW1 5858   9.201   1.883   4.182 -1.7924 -0.3927  0.7734
34151SOL    HW2 5859   9.233   1.850   4.038  0.4818 -1.7368  1.5642
34152SOL     OW 5860   7.611   7.467  10.876  0.0022  0.4115 -0.5880
34152SOL    HW1 5861   7.693   7.514  10.862  1.2381 -1.0030  1.5544
34152SOL    HW2 5862   7.621   7.386  10.827 -0.1384  0.2810 -0.4014
34153SOL     OW 5863   0.070   0.858   4.789 -0.7763 -0.2473 -0.1132
34153SOL    HW1 5864   0.136   0.858   4.719  0.4293  2.1799  0.9452
34153SOL    HW2 5865  -0.008   0.895   4.748 -1.1331 -1.9591 -1.0394
34154SOL     OW 5866   6.860   1.449   5.873 -0.1995 -0.3461 -0.1671
34154SOL    HW1 5867   6.932   1.419   5.818  0.4233  1.3150 -0.2689
34154SOL    HW2 5868   6.782   1.441   5.818 -0.0224 -1.6281 -0.2379
34155SOL     OW 5869   3.134   7.015   3.044 -0.2158  0.2684  0.4132
34155SOL    HW1 5870   3.072   6.952   3.008  0.4915  0.1872 -0.7004
34155SOL    HW2 5871   3.194   6.962   3.096  0.3218  0.0140 -0.4451
34156SOL     OW 5872   0.943   0.649   4.218  0.0506 -0.1865  0.3926
34156SOL    HW1 5873   0.986   0.701   4.150 -2.1115  1.7439  0.4148
34156SOL    HW2 5874   0.860   0.622   4.177  0.8864 -3.2355  0.5700
34157SOL     OW 5875   6.672   6.736   2.364 -0.5125  0.2241 -0.1944
34157SOL    HW1 5876   6.729   6.772   2.431 -0.8293 -2.0131  1.3370
34157SOL    HW2 5877   6.684   6.793   2.288  2.0999  1.0458  0.8008
34158SOL     OW 5878   7.100   6.638   6.467 -0.6857  0.0844  0.0916
34158SOL    HW1 5879   7.134   6.557   6.430  0.5955  0.0220  1.3563
34158SOL    HW2 5880   7.082   6.618   6.558 -0.8806  1.0771  0.2853
34159SOL     OW 5881   1.446  10.873   0.954  0.2973 -0.0867 -0.2329
34159SOL    HW1 5882   1.352  10.852   0.957  0.4284 -1.0224 -1.9229
34159SOL    HW2 5883   1.457  10.920   0.871  1.1082  1.1500  0.5713
34160SOL     OW 5884   9.679   7.066   1.665  0.1752  0.4103  0.6642
34160SOL    HW1 5885   9.667   7.007   1.591 -0.3067 -0.9232  1.8010
34160SOL    HW2 5886   9.640   7.149   1.636 -3.4254 -1.1573  0.8085
34161SOL     OW 5887   1.984   1.236   5.608  0.1451 -0.0522 -0.3215
34161SOL    HW1 5888   2.006   1.316   5.657  1.0271 -0.7792  0.4856
34161SOL    HW2 5889   2.069   1.199   5.585 -0.2558 -1.1751 -0.0096
34162SOL     OW 5890   7.171   9.098   7.887  0.4788 -0.3077  0.4627
34162SOL    HW1 5891   7.139   9.066   7.802  0.1964  0.7501  0.1677
34162SOL    HW2 5892   7.183   9.192   7.874  0.1204 -0.0885  1.6969
34163SOL     OW 5893   7.827  10.528   5.782 -0.2643 -0.1186 -0.0295
34163SOL    HW1 5894   7.799  10.617   5.762  0.1144 -0.0967 -0.4747
34163SOL    HW2 5895   7.747  10.476   5.778 -0.4144  0.1238 -0.2105
34164SOL     OW 5896  10.321   3.128   7.018  0.0239  0.2465  0.1784
34164SOL    HW1 5897  10.238   3.104   6.977  0.2614  1.0171 -0.7744
34164SOL    HW2 5898  10.353   3.202   6.966  2.5412 -1.6562 -1.1131
34165SOL     OW 5899  10.494   7.264   2.870 -0.4382  0.5093 -0.2785
34165SOL    HW1 5900  10.422   7.239   2.812 -0.6497  0.7483 -0.1190
34165SOL    HW2 5901  10.522   7.349   2.837 -0.2503  0.4322 -0.3192
34166SOL     OW 5902   2.506   4.803   0.461 -0.3104  1.2011 -0.0354
34166SOL    HW1 5903   2.504   4.767   0.373 -0.6433  0.2055  0.3780
34166SOL    HW2 5904   2.588   4.771   0.499 -0.2899  1.4172  0.1046
34167SOL     OW 5905   6.263   6.070   7.709 -0.2666  0.4860 -0.2839
34167SOL    HW1 5906   6.274   6.023   7.792  1.1147  0.2475 -0.5919
34167SOL    HW2 5907   6.234   6.003   7.648 -0.1440  0.4245 -0.2740
34168SOL     OW 5908   4.798   1.028   4.864 -0.3661 -0.1760  0.0311
34168SOL    HW1 5909   4.820   1.115   4.899  1.8137  0.1380 -1.9591
34168SOL    HW2 5910   4.744   1.047   4.787 -0.1240 -0.6068 -0.2431
34169SOL     OW 5911   7.925   2.695   4.156  0.0693  0.1898 -0.3666
34169SOL    HW1 5912   7.985   2.719   4.086  0.1351 -0.8101 -0.6459
34169SOL    HW2 5913   7.859   2.640   4.114 -1.5315  1.9582 -0.2430
34170SOL     OW 5914   3.475   7.228   0.240  0.4173  0.0428  0.7923
34170SOL    HW1 5915   3.398   7.228   0.183  0.4261 -0.8896  0.7690
34170SOL    HW2 5916   3.439   7.214   0.328  0.4377  1.0754  0.9701
34171SOL     OW 5917   1.800   5.113   5.348 -0.0515 -0.0625  0.3989
34171SOL    HW1 5918   1.839   5.054   5.283 -0.6614 -0.4333  0.3636
34171SOL    HW2 5919   1.729   5.063   5.386 -0.8668  0.8094  0.0496
34172SOL     OW 5920   9.264   3.330   3.972 -0.0848  0.0149 -0.5681
34172SOL    HW1 5921   9.318   3.394   4.018 -0.5027  0.7285 -1.0623
34172SOL    HW2 5922   9.323   3.257   3.955  0.4024  0.2774 -0.0226
34173SOL     OW 5923   0.333   0.323   1.200 -0.1165  0.2820 -0.1567
34173SOL    HW1 5924   0.346   0.237   1.239 -1.5840  0.6993  1.3076
34173SOL    HW2 5925   0.421   0.351   1.174  0.6469 -0.7988  1.2097
34174SOL     OW 5926   2.550   3.724   3.678  0.3601  0.4217  0.2020
34174SOL    HW1 5927   2.587   3.809   3.653  0.9064 -0.4644 -2.0688
34174SOL    HW2 5928   2.461   3.726   3.644  0.0744  0.4332  0.9460
34175SOL     OW 5929   7.424   5.065   7.746  0.2957  0.1776  0.1245
34175SOL    HW1 5930   7.434   5.121   7.669 -3.0760 -1.6466 -1.7600
34175SOL    HW2 5931   7.497   5.003   7.739  0.1077  0.1069 -1.5684
34176SOL     OW 5932   3.750   3.046   8.779 -0.7521 -0.0067  0.4389
34176SOL    HW1 5933   3.675   3.091   8.818 -1.2786  0.0307 -0.5788
34176SOL    HW2 5934   3.755   3.081   8.690  2.5265  2.4449  1.4831
34177SOL     OW 5935   1.645   7.429   2.390  0.0181  0.2179 -0.0735
34177SOL    HW1 5936   1.682   7.486   2.323  0.4938 -1.1915 -1.0385
34177SOL    HW2 5937   1.556   7.462   2.403  0.8412  2.2476  0.6570
34178SOL     OW 5938   4.454   9.776   2.067 -0.4154  0.1595 -0.3315
34178SOL    HW1 5939   4.514   9.805   2.136  0.9166 -2.6544 -0.2406
34178SOL    HW2 5940   4.404   9.705   2.107 -0.3714 -0.7833 -1.9156
34179SOL     OW 5941  10.398  10.761   9.669  0.1794 -0.2990 -0.1725
34179SOL    HW1 5942  10.331  10.766   9.601  1.1529  0.7157 -1.0890
34179SOL    HW2 5943  10.349  10.755   9.751 -1.0282  0.0694 -0.8495
34180SOL     OW 5944   9.693   6.592   6.088 -0.2681 -0.0169 -0.0512
34180SOL    HW1 5945   9.745   6.671   6.071 -2.3161  1.7781  1.6074
34180SOL    HW2 5946   9.757   6.524   6.108  1.5586  1.1891 -1.6316
34181SOL     OW 5947   5.365   2.871   5.681 -0.0780  0.7391 -0.0419
34181SOL    HW1 5948   5.424   2.878   5.756 -0.4346  2.0401  0.1266
34181SOL    HW2 5949   5.286   2.831   5.716  0.5740 -0.7688 -0.2153
34182SOL     OW 5950   1.416   6.537   3.115 -0.3411 -0.2299 -0.9419
34182SOL    HW1 5951   1.344   6.583   3.073  0.2941 -0.3533 -2.2084
34182SOL    HW2 5952   1.428   6.581   3.199 -1.5440  0.1220 -0.9545
34183SOL     OW 5953   7.353   9.205   6.992 -0.4069 -0.3426  0.0352
34183SOL    HW1 5954   7.439   9.171   7.017 -0.9260 -2.0021 -0.4135
34183SOL    HW2 5955   7.301   9.200   7.072 -0.9398 -2.0838 -0.4067
34184SOL     OW 5956   6.922   8.302   0.116 -0.1827 -0.1926  0.3268
34184SOL    HW1 5957   6.935   8.350   0.198  0.9947  1.3197 -0.6992
34184SOL    HW2 5958   6.899   8.213   0.142  0.4774  0.2022  2.2861
34185SOL     OW 5959   0.823   2.822   9.341  0.1362  0.2709 -0.3509
34185SOL    HW1 5960   0.766   2.758   9.298 -2.9514  1.5725  1.6330
34185SOL    HW2 5961   0.830   2.791   9.431  0.7040  1.3925  0.0027
34186SOL     OW 5962   4.863   6.310   1.382 -0.6305 -0.3126 -0.5021
34186SOL    HW1 5963   4.853   6.300   1.477 -0.5297  1.5325 -0.2808
34186SOL    HW2 5964   4.944   6.263   1.362  1.1608  2.0853  0.8550
34187SOL     OW 5965   8.466   7.355   7.384  0.5474  0.1778  0.0871
34187SOL    HW1 5966   8.421   7.409   7.449 -0.5965  1.4404 -1.6994
34187SOL    HW2 5967   8.427   7.268   7.393 -0.5701  0.6802  0.1876
34188SOL     OW 5968  10.118   9.394   2.122 -0.0999  0.3715  0.3159
34188SOL    HW1 5969  10.144   9.433   2.038  0.2597 -1.2211 -0.3424
34188SOL    HW2 5970  10.060   9.322   2.097 -1.0213  0.6717  1.5216
34189SOL     OW 5971   6.091   1.360   9.724  0.1340  0.6926  0.3893
34189SOL    HW1 5972   6.117   1.404   9.805 -0.7723 -0.5416  1.3506
34189SOL    HW2 5973   6.174   1.334   9.683  0.5444 -0.1833  1.7531
34190SOL     OW 5974   8.900   2.283   8.959  0.0065  0.3109 -0.2995
34190SOL    HW1 5975   8.966   2.304   8.893 -0.6885  0.9501 -0.7880
34190SOL    HW2 5976   8.908   2.188   8.971  1.1814  0.4138 -0.1783
34191SOL     OW 5977   2.661   2.338  10.510 -0.3410  0.2720  0.3700
34191SOL    HW1 5978   2.637   2.395  10.584  0.5986  1.2127 -0.0385
34191SOL    HW2 5979   2.706   2.264  10.550  1.1557  1.3169  0.6753
34192SOL     OW 5980   7.937   0.983   8.356  0.1584 -0.1818  0.1020
34192SOL    HW1 5981   7.919   0.976   8.263 -0.4917  0.9439  0.1438
34192SOL    HW2 5982   7.864   1.032   8.392  2.0387  2.3188  0.6706
34193SOL     OW 5983   9.920   4.895   7.963 -0.4180 -0.8847  0.3473
34193SOL    HW1 5984   9.883   4.851   8.040 -1.6289 -1.4083 -0.5139
34193SOL    HW2 5985   9.922   4.827   7.895  0.9765 -0.5272  0.0123
34194SOL     OW 5986   2.953   3.162   0.155  0.1154 -0.4744 -0.0824
34194SOL    HW1 5987   2.858   3.170   0.162  0.1319  0.6268 -0.9832
34194SOL    HW2 5988   2.983   3.156   0.245 -0.6258  1.4462  0.3138
34195SOL     OW 5989   4.481   1.292   0.383 -0.6502  0.4663 -0.0966
34195SOL    HW1 5990   4.551   1.312   0.446 -1.5434  1.7482  0.5267
34195SOL    HW2 5991   4.502   1.204   0.352  0.3355  0.1696  1.3049
34196SOL     OW 5992  10.733   8.417   7.918  0.0706 -0.0030 -0.5273
34196SOL    HW1 5993  10.692   8.338   7.954 -2.3701  1.1110 -0.8198
34196SOL    HW2 5994  10.667   8.485   7.927  1.5311  1.6285 -1.8787
34197SOL     OW 5995   4.305   8.044  10.014 -0.1240 -0.2575 -0.5080
34197SOL    HW1 5996   4.278   7.968  10.066  0.9132  0.3474  0.9337
34197SOL    HW2 5997   4.358   8.006   9.943  0.8468 -0.8370  0.5141
34198SOL     OW 5998   1.508   2.785   6.224  0.4899  0.5292  0.4631
34198SOL    HW1 5999   1.428   2.732   6.216  1.5748 -1.2385  1.2416
34198SOL    HW2 6000   1.480   2.862   6.274 -1.4202  1.4478 -1.8574
34199SOL     OW 6001   2.173   0.486   3.485 -0.0079  0.1102  0.4324
34199SOL    HW1 6002   2.139   0.455   3.569  0.7329 -0.7366  0.4263
34199SOL    HW2 6003   2.234   0.556   3.508  1.4628 -1.2462  0.7161
34200SOL     OW 6004   1.587   1.699   3.004 -0.1967  0.2893 -0.1342
34200SOL    HW1 6005   1.499   1.733   3.025  0.3376 -0.0089  2.6996
34200SOL    HW2 6006   1.574   1.605   2.991 -0.0976  0.0528  1.4771
34201SOL     OW 6007   9.423   4.815   8.497 -0.6116 -0.5904 -0.4160
34201SOL    HW1 6008   9.412   4.874   8.422 -0.2509 -0.3072 -0.2464
34201SOL    HW2 6009   9.388   4.864   8.571  1.2436  0.0908  0.0271
34202SOL     OW 6010   2.078   2.389   6.118  0.2396  0.4517 -0.0113
34202SOL    HW1 6011   1.998   2.436   6.143  0.5402  0.9125  0.0889
34202SOL    HW2 6012   2.140   2.458   6.095  0.7922  0.1147  0.4549
34203SOL     OW 6013   7.618   9.099   1.352  0.4618  0.1767 -0.3368
34203SOL    HW1 6014   7.555   9.032   1.326  1.5089 -0.5583 -1.0101
34203SOL    HW2 6015   7.592   9.123   1.441  0.5455 -1.6951  0.2133
34204SOL     OW 6016   1.870   8.207   9.298 -0.3528  0.1848  0.0730
34204SOL    HW1 6017   1.819   8.126   9.305  1.5436 -1.0113  0.4016
34204SOL    HW2 6018   1.861   8.248   9.384  0.0211 -0.5280  0.4651
34205SOL     OW 6019  10.748   1.392   9.906  0.4797  0.1646 -0.2518
34205SOL    HW1 6020  10.774   1.484   9.908 -0.5090  0.4218  2.2059
34205SOL    HW2 6021  10.675   1.385   9.967  0.3484 -2.2081 -0.6016
34206SOL     OW 6022   4.994   6.097   6.428  0.2078 -0.2424 -0.4746
34206SOL    HW1 6023   5.070   6.113   6.373  0.5058 -1.2002 -0.3467
34206SOL    HW2 6024   4.964   6.010   6.403 -0.1942 -0.3142  0.2416
34207SOL     OW 6025   6.882  10.970   5.649 -0.3320 -0.6147 -0.5583
34207SOL    HW1 6026   6.970  10.933   5.647 -0.7730 -1.6534 -1.8571
34207SOL    HW2 6027   6.854  10.970   5.558 -1.2492  0.7667 -0.2888
34208SOL     OW 6028   6.683   7.882   0.433 -0.4800  0.2994  0.4697
34208SOL    HW1 6029   6.744   7.956   0.432 -2.6095  2.0792 -2.0172
34208SOL    HW2 6030   6.597   7.922   0.423 -1.6595 -2.5533 -1.1331
34209SOL     OW 6031   9.949   6.194  10.540  0.4642 -0.1200 -0.3037
34209SOL    HW1 6032   9.888   6.176  10.612  0.6226 -1.2013 -0.4384
34209SOL    HW2 6033   9.902   6.167  10.461 -0.4135  2.7500 -0.8027
34210SOL     OW 6034   0.950   5.320   3.233  0.0103  0.2835 -0.4595
34210SOL    HW1 6035   0.964   5.341   3.326 -1.6533  0.3684 -0.2135
34210SOL    HW2 6036   0.993   5.391   3.186  0.0168  0.7731  0.2718
34211SOL     OW 6037   8.149   0.716   0.818 -0.6848 -0.4499  0.2637
34211SOL    HW1 6038   8.199   0.634   0.816  0.6611  0.3390  0.8585
34211SOL    HW2 6039   8.148   0.745   0.726  0.1820 -0.3459  0.2819
34212SOL     OW 6040   2.422   2.340  10.169 -0.0027 -0.2566 -0.2958
34212SOL    HW1 6041   2.421   2.431  10.198  0.1388 -1.6418  4.4915
34212SOL    HW2 6042   2.504   2.331  10.121  1.8432  1.2879  2.4152
34213SOL     OW 6043   8.327   5.791   5.227 -0.0477  0.5454  0.5674
34213SOL    HW1 6044   8.253   5.749   5.271 -0.5366  0.6600 -0.1365
34213SOL    HW2 6045   8.287   5.855   5.168  0.5363 -0.4760 -0.9800
34214SOL     OW 6046   6.312   5.610  10.679  0.4563 -0.2097 -0.6500
34214SOL    HW1 6047   6.305   5.541  10.745  1.1049 -0.3286 -0.7073
34214SOL    HW2 6048   6.406   5.626  10.670  0.4301 -0.8315 -2.2227
34215SOL     OW 6049   6.482   1.102   4.406 -0.4997  0.2244  0.0613
34215SOL    HW1 6050   6.497   1.128   4.314 -0.8706  1.0033  0.2151
34215SOL    HW2 6051   6.565   1.123   4.450 -0.1758 -0.5381 -0.1740
34216SOL     OW 6052   8.111  10.812   1.798  0.1039 -0.3228 -0.5194
34216SOL    HW1 6053   8.165  10.793   1.721  0.5353  0.8377 -0.5142
34216SOL    HW2 6054   8.136  10.901   1.824 -0.9541 -0.2175  0.1996
34217SOL     OW 6055   1.455   8.603  10.312  0.0174  0.1329 -0.3284
34217SOL    HW1 6056   1.421   8.622  10.399  1.5055  0.7040  0.1418
34217SOL    HW2 6057   1.550   8.596  10.323  0.2701  0.6045 -1.9666
34218SOL     OW 6058   7.971   3.167   8.486 -0.3120 -0.3757 -0.6201
34218SOL    HW1 6059   7.902   3.174   8.552 -0.2592  1.3600 -0.7266
34218SOL    HW2 6060   8.046   3.133   8.534  0.1181  2.0863  0.5538
34219SOL     OW 6061  10.709   7.248   2.570  0.0619 -0.0845  0.6641
34219SOL    HW1 6062  10.759   7.227   2.492  0.5716 -1.9239  1.4513
34219SOL    HW2 6063  10.771   7.239   2.642 -0.3842  1.6546  1.2810
34220SOL     OW 6064   5.967   0.630   9.449 -0.2834 -0.4283  0.0736
34220SOL    HW1 6065   5.874   0.625   9.424 -0.4098 -0.0809  0.4752
34220SOL    HW2 6066   5.968   0.605   9.541 -0.1117  0.6377  0.3606
34221SOL     OW 6067   9.059   5.582  10.356  0.7291 -0.1089  0.3174
34221SOL    HW1 6068   9.007   5.521  10.408 -0.0321  0.5597  0.3552
34221SOL    HW2 6069   9.142   5.537  10.341  0.9910 -0.2729  2.1770
34222SOL     OW 6070   0.412   5.980   5.791 -0.6449 -0.0055 -0.1447
34222SOL    HW1 6071   0.415   5.943   5.879  1.1167 -0.7592 -0.5000
34222SOL    HW2 6072   0.417   6.075   5.806 -1.3655 -0.0728  0.5976
34223SOL     OW 6073   2.310  10.011   0.086  0.2069  0.2967  0.0051
34223SOL    HW1 6074   2.249  10.068   0.039  0.7811  0.6200 -0.3624
34223SOL    HW2 6075   2.374  10.072   0.125  0.7354 -0.0767 -0.2649
34224SOL     OW 6076  10.920   0.284  10.276  0.1924 -0.0721  0.0641
34224SOL    HW1 6077  10.877   0.269  10.192  1.3277  0.7318 -0.6701
34224SOL    HW2 6078  10.864   0.240  10.340 -2.0397  1.4639 -0.7920
34225SOL     OW 6079   2.892   8.514   0.353 -0.9731  0.2444  0.1482
34225SOL    HW1 6080   2.856   8.603   0.362  0.6568  1.0574 -1.0608
34225SOL    HW2 6081   2.842   8.476   0.282 -0.0583  1.0624 -0.9480
34226SOL     OW 6082   4.793   7.261   0.654 -0.0314 -0.0601  0.0007
34226SOL    HW1 6083   4.776   7.178   0.699 -1.7349 -0.0514 -0.5851
34226SOL    HW2 6084   4.767   7.244   0.563  0.7393  0.7632 -0.3764
34227SOL     OW 6085   6.254   8.987  10.449 -0.9788  0.0065 -0.5086
34227SOL    HW1 6086   6.347   8.969  10.432 -1.3016 -2.0201 -0.2641
34227SOL    HW2 6087   6.222   9.027  10.369 -0.5866 -2.0931 -1.7519
34228SOL     OW 6088   0.321   1.897   6.993  0.3373 -0.2399  0.4116
34228SOL    HW1 6089   0.255   1.828   6.997  0.7801 -0.6001  2.0709
34228SOL    HW2 6090   0.282   1.969   7.043  0.2753  0.3781 -0.5062
34229SOL     OW 6091   8.077   6.749   2.660  0.0255  0.2418  0.6708
34229SOL    HW1 6092   7.995   6.795   2.679 -0.5774 -0.6340  0.2075
34229SOL    HW2 6093   8.050   6.668   2.617  1.0348 -1.0332  2.3798
34230SOL     OW 6094   7.060   0.370  10.655 -0.3967  0.3650 -0.0290
34230SOL    HW1 6095   7.062   0.458  10.617  0.6064  0.5571  0.4494
34230SOL    HW2 6096   7.003   0.378  10.731 -1.0786  0.3733 -0.5381
34231SOL     OW 6097   3.241   0.836   6.440  0.0758  0.1999 -0.1352
34231SOL    HW1 6098   3.325   0.795   6.458  0.9454  2.6828  1.7212
34231SOL    HW2 6099   3.178   0.764   6.440  2.2183 -1.7362 -2.0274
34232SOL     OW 6100   6.545   7.423   8.755 -0.0936  0.0614 -0.0563
34232SOL    HW1 6101   6.467   7.367   8.749 -0.4308  0.6364 -1.1097
34232SOL    HW2 6102   6.571   7.417   8.847 -1.7491  0.3398  0.4513
34233SOL     OW 6103   1.492   4.886   6.013 -0.0223 -0.7691  0.3207
34233SOL    HW1 6104   1.481   4.919   6.102 -0.0996 -0.3520  0.1560
34233SOL    HW2 6105   1.520   4.962   5.962 -2.5207 -0.3876 -0.5553
34234SOL     OW 6106   6.041   4.079   5.295 -0.2700 -0.4405  0.2318
34234SOL    HW1 6107   6.053   4.001   5.242 -1.5558  0.0425 -0.7945
34234SOL    HW2 6108   6.039   4.046   5.385 -0.0454 -1.4977 -0.1414
34235SOL     OW 6109   6.988   8.093   6.726  0.1028  0.0177 -0.3066
34235SOL    HW1 6110   6.980   8.047   6.810  0.3113 -0.9456 -0.8021
34235SOL    HW2 6111   6.912   8.151   6.724 -0.3453 -0.5331  0.1986
34236SOL     OW 6112   3.540   7.943  10.806 -0.5131 -0.0958  0.0120
34236SOL    HW1 6113   3.521   7.858  10.846 -0.0044  0.7755  2.1676
34236SOL    HW2 6114   3.458   7.991  10.809 -0.9964 -0.7674 -1.9122
34237SOL     OW 6115   4.426   0.329   4.202  0.0524  0.3248 -0.2878
34237SOL    HW1 6116   4.465   0.407   4.241 -1.0967  0.1884  1.1789
34237SOL    HW2 6117   4.501   0.275   4.177  0.8197  1.0608  0.3944
34238SOL     OW 6118   1.622   2.634   8.059 -0.0065 -0.0788 -0.0231
34238SOL    HW1 6119   1.532   2.652   8.087  0.1363 -0.3153  0.5877
34238SOL    HW2 6120   1.616   2.553   8.008 -0.2375  0.2537 -0.5290
34239SOL     OW 6121  10.650   6.112   7.529  0.1172  0.5811 -0.3505
34239SOL    HW1 6122  10.688   6.157   7.605 -1.3507  1.3876 -0.0686
34239SOL    HW2 6123  10.726   6.077   7.482  1.0592  0.0897  1.4587
34240SOL     OW 6124   9.803   7.092  10.956 -0.3268  0.6827  0.0268
34240SOL    HW1 6125   9.758   7.176  10.945 -1.2150  0.0107 -1.5431
34240SOL    HW2 6126   9.846   7.099  11.042 -0.2407  2.7999 -0.1738
34241SOL     OW 6127   0.068   9.971   8.587 -0.4695  0.3335  0.4526
34241SOL    HW1 6128   0.023  10.024   8.653 -0.7035  1.0853 -0.3041
34241SOL    HW2 6129   0.010   9.897   8.571 -1.0330  0.8510  0.1107
34242SOL     OW 6130   2.194   1.782   0.058  0.3899 -0.3952 -0.0419
34242SOL    HW1 6131   2.171   1.715  -0.006 -0.8986  0.4261 -0.4480
34242SOL    HW2 6132   2.111   1.821   0.083  0.9293 -0.3727  1.7754
34243SOL     OW 6133   3.645   5.997   2.788  0.4534  0.0424 -0.4004
34243SOL    HW1 6134   3.687   6.061   2.846 -0.2229  0.5960 -0.5160
34243SOL    HW2 6135   3.577   5.957   2.843 -0.0261  0.3955 -0.7355
34244SOL     OW 6136   5.477   2.284   5.148  0.4484  0.2777  0.9392
34244SOL    HW1 6137   5.533   2.361   5.136  1.4410 -0.7661 -1.4655
34244SOL    HW2 6138   5.536   2.210   5.135 -1.2750 -0.8462 -0.6591
34245SOL     OW 6139   0.143   7.259   7.168 -0.1558  0.0438 -0.1712
34245SOL    HW1 6140   0.213   7.220   7.220 -0.9472 -1.3364 -0.1234
34245SOL    HW2 6141   0.188   7.320   7.109  0.8557  0.8853  1.4250
34246SOL     OW 6142   5.699   2.490   1.277  0.4989 -0.7310 -0.2909
34246SOL    HW1 6143   5.689   2.494   1.182  0.1915 -2.0622 -0.3204
34246SOL    HW2 6144   5.672   2.401   1.301  0.0878 -0.2435  1.1016
34247SOL     OW 6145   7.070   1.169   3.350 -0.2466  0.3509  0.6423
34247SOL    HW1 6146   7.162   1.145   3.362  0.1948  1.3384 -0.6572
34247SOL    HW2 6147   7.035   1.176   3.439  1.5035  2.0946  1.2260
34248SOL     OW 6148   6.493   1.497   6.901  0.4823 -0.5276  0.0096
34248SOL    HW1 6149   6.402   1.471   6.887  0.2077  0.5007 -0.1778
34248SOL    HW2 6150   6.544   1.423   6.869 -0.3018 -1.7096  1.4008
34249SOL     OW 6151   6.801   1.791   4.092 -0.5494  0.2190  0.9415
34249SOL    HW1 6152   6.735   1.852   4.057 -1.0046 -1.4034 -1.1067
34249SOL    HW2 6153   6.868   1.848   4.131 -1.1257  2.0172 -0.6236
34250SOL     OW 6154   3.686   9.604   1.711  0.3378  0.0618 -0.9283
34250SOL    HW1 6155   3.696   9.644   1.797  1.2402  1.8477 -1.8501
34250SOL    HW2 6156   3.675   9.677   1.651 -3.2159 -1.2223 -2.0046
34251SOL     OW 6157   7.751   3.292   1.715  0.7513 -0.2673 -0.2170
34251SOL    HW1 6158   7.810   3.353   1.759  1.7493 -0.7951 -0.8085
34251SOL    HW2 6159   7.682   3.347   1.678  2.2476  0.6314 -1.7127
34252SOL     OW 6160   4.120   3.192   9.331 -0.2818 -0.8711 -0.1689
34252SOL    HW1 6161   4.092   3.268   9.381 -0.4055 -0.9412 -0.1320
34252SOL    HW2 6162   4.039   3.147   9.307 -0.2615 -0.4011 -1.1165
34253SOL     OW 6163   0.031   3.288   7.103 -0.0316 -0.1953  0.2395
34253SOL    HW1 6164   0.009   3.359   7.043 -0.6706  0.7655  1.5710
34253SOL    HW2 6165   0.077   3.224   7.049  1.4204  1.6578 -0.7888
34254SOL     OW 6166   5.099   4.771   0.188  0.1777  0.3173 -0.1420
34254SOL    HW1 6167   5.091   4.791   0.095 -0.3334  0.6497 -0.0261
34254SOL    HW2 6168   5.061   4.683   0.197 -1.0504  0.8504 -0.0186
34255SOL     OW 6169   0.405   2.356   4.821 -0.2432 -0.3347 -0.7482
34255SOL    HW1 6170   0.458   2.429   4.853  0.9502 -1.8439  0.7132
34255SOL    HW2 6171   0.315   2.390   4.822  0.2162  0.8763  0.6326
34256SOL     OW 6172   6.965   8.603   6.573 -0.3903 -0.8522 -0.5938
34256SOL    HW1 6173   6.878   8.568   6.557 -0.9459  0.2712 -0.0571
34256SOL    HW2 6174   6.983   8.583   6.665 -2.0555  3.0681  0.6814
34257SOL     OW 6175   9.801   8.683   8.496 -0.1239  0.5025  0.3659
34257SOL    HW1 6176   9.862   8.674   8.569 -1.7000  1.5153  1.8392
34257SOL    HW2 6177   9.737   8.613   8.510  0.5133 -0.3759 -1.0108
34258SOL     OW 6178   5.154   1.630   6.043 -0.0743  0.4049  0.8207
34258SOL    HW1 6179   5.234   1.578   6.051 -0.1848  0.6168  4.1967
34258SOL    HW2 6180   5.184   1.716   6.015  0.9004  0.4707  2.0392
34259SOL     OW 6181   7.019  10.369   3.331 -0.4322  0.4609  0.1368
34259SOL    HW1 6182   7.019  10.361   3.426  0.0119 -1.3961 -0.0044
34259SOL    HW2 6183   7.111  10.381   3.307 -0.4803  0.3815 -0.0971
34260SOL     OW 6184   1.275   2.634   8.602 -0.4231  0.2885 -0.0463
34260SOL    HW1 6185   1.322   2.636   8.686  0.1633 -0.1669 -0.3609
34260SOL    HW2 6186   1.236   2.721   8.594  0.3895  0.6751  0.2054
34261SOL     OW 6187   3.977   4.401   0.936  0.6861 -0.1404  0.1628
34261SOL    HW1 6188   3.959   4.494   0.948  1.6320  0.0765 -0.0655
34261SOL    HW2 6189   3.932   4.358   1.009 -0.4488  0.4051 -0.1950
34262SOL     OW 6190   5.414  10.337   2.621  0.1945 -0.2720 -0.9884
34262SOL    HW1 6191   5.468  10.396   2.673 -1.2304  0.3496 -0.1989
34262SOL    HW2 6192   5.396  10.263   2.680 -2.1671  0.8483 -0.2615
34263SOL     OW 6193   1.553   5.645   2.094 -0.1871  0.1599  0.3981
34263SOL    HW1 6194   1.488   5.678   2.032 -0.2828 -0.6862  0.0372
34263SOL    HW2 6195   1.548   5.549   2.085  1.0898  0.0823  0.3745
34264SOL     OW 6196   2.392   4.995   1.415 -0.0258 -0.4271  0.5318
34264SOL    HW1 6197   2.304   4.996   1.379  0.8868  0.6417 -1.8008
34264SOL    HW2 6198   2.429   5.080   1.390  2.0817 -1.3561  0.3677
34265SOL     OW 6199   5.944   1.454   4.858 -0.0095 -0.1797 -0.4019
34265SOL    HW1 6200   5.935   1.362   4.884  0.2172 -0.0384  0.1716
34265SOL    HW2 6201   6.029   1.459   4.815 -0.2610 -0.3516 -0.9295
34266SOL     OW 6202  10.831   7.031   4.035 -0.4669 -0.4845 -0.5328
34266SOL    HW1 6203  10.801   6.995   3.952 -0.4446 -0.1150 -0.7031
34266SOL    HW2 6204  10.926   7.022   4.032 -0.6420 -3.3426  0.7869
34267SOL     OW 6205   8.669   9.983  10.653  0.8506 -0.1798  0.0425
34267SOL    HW1 6206   8.576   9.996  10.639  0.7006 -0.8022  0.4192
34267SOL    HW2 6207   8.708   9.992  10.566  0.4439  0.0969 -0.1129
34268SOL     OW 6208   4.242   3.625   3.812 -0.1438  0.4695 -0.1579
34268SOL    HW1 6209   4.299   3.619   3.889 -2.4369 -2.4905  1.3968
34268SOL    HW2 6210   4.302   3.621   3.738  1.8662  0.3004  1.4349
34269SOL     OW 6211   0.042   0.960   2.811 -0.0584 -0.1523 -0.3074
34269SOL    HW1 6212   0.093   0.937   2.889 -1.4746 -0.8290  0.4631
34269SOL    HW2 6213   0.044   0.881   2.757  0.6250  0.1940 -0.7840
34270SOL     OW 6214   7.995   9.961   9.281 -0.0361 -0.4236  0.2094
34270SOL    HW1 6215   7.953   9.903   9.218  2.2711 -2.3466  0.3570
34270SOL    HW2 6216   7.941   9.953   9.360 -1.7077  0.3536 -0.8104
34271SOL     OW 6217   2.551   4.070   1.034  0.7017  0.1666 -0.5818
34271SOL    HW1 6218   2.470   4.077   1.085 -0.0849  1.4888 -1.9697
34271SOL    HW2 6219   2.620   4.082   1.099 -0.2534  0.6946  0.3654
34272SOL     OW 6220   7.973   1.584   4.276 -0.0686 -0.2642  0.3347
34272SOL    HW1 6221   7.915   1.650   4.315  1.0874  1.2722 -0.5088
34272SOL    HW2 6222   8.060   1.606   4.310  0.5693 -0.3913 -1.1961
34273SOL     OW 6223   2.881   9.008   2.651  0.2226 -0.1546  0.1646
34273SOL    HW1 6224   2.942   8.996   2.579  1.3522  1.0679  0.8851
34273SOL    HW2 6225   2.854   9.100   2.644 -0.0243 -0.1587  1.0133
34274SOL     OW 6226   1.170   6.672   4.170 -0.4131 -0.6503 -0.0951
34274SOL    HW1 6227   1.153   6.730   4.245  0.0443  0.1937 -0.6350
34274SOL    HW2 6228   1.188   6.587   4.210  0.6533 -0.0205  0.8124
34275SOL     OW 6229   8.003   8.217   2.714  0.1395  0.0011 -0.1974
34275SOL    HW1 6230   8.074   8.249   2.659  0.6132  1.2079  1.0978
34275SOL    HW2 6231   8.004   8.122   2.701  0.8472  0.1767 -1.5320
34276SOL     OW 6232   5.486   5.786   2.235  0.3034  0.0131  0.1328
34276SOL    HW1 6233   5.501   5.693   2.215  0.1672  0.1833 -0.7852
34276SOL    HW2 6234   5.508   5.794   2.328 -1.1291 -1.2507  0.6138
34277SOL     OW 6235   8.926   8.170   5.209 -0.0114 -0.8443  0.0357
34277SOL    HW1 6236   8.994   8.221   5.166 -0.9778 -0.2530 -0.7954
34277SOL    HW2 6237   8.881   8.232   5.266 -0.5192 -0.9987 -0.1927
34278SOL     OW 6238   7.395   2.208   4.935  0.7309  0.2855 -0.8063
34278SOL    HW1 6239   7.475   2.160   4.956  0.0349  0.5940  2.8361
34278SOL    HW2 6240   7.342   2.146   4.885  1.8175 -1.1149 -0.2524
34279SOL     OW 6241   0.128   1.532  10.731  0.0062 -0.0920  0.2310
34279SOL    HW1 6242   0.068   1.470  10.771 -1.4951  0.6886 -0.7603
34279SOL    HW2 6243   0.209   1.483  10.718 -0.6175 -1.3401  0.9710
34280SOL     OW 6244  10.403   0.637   0.557  0.4034  0.1892 -0.1234
34280SOL    HW1 6245  10.434   0.714   0.510 -1.7361  0.9456 -0.3203
34280SOL    HW2 6246  10.418   0.657   0.649 -0.0969  0.8002 -0.1792
34281SOL     OW 6247   6.791   9.114   3.514  0.3158  0.2891 -0.5235
34281SOL    HW1 6248   6.739   9.046   3.472  1.4799  0.0675 -1.6066
34281SOL    HW2 6249   6.787   9.189   3.454  0.9455  0.3986 -0.4342
34282SOL     OW 6250   3.163   3.439   1.970 -0.0375  0.3058 -0.0004
34282SOL    HW1 6251   3.070   3.420   1.982  0.6177 -2.0637  1.7474
34282SOL    HW2 6252   3.172   3.531   1.995 -1.7341  0.2534  0.8790
34283SOL     OW 6253   4.533   6.169   8.032 -0.1996 -0.0183  0.5353
34283SOL    HW1 6254   4.476   6.214   7.970 -1.4016 -1.5849  0.4594
34283SOL    HW2 6255   4.507   6.202   8.118 -0.4164  0.1266  0.4147
34284SOL     OW 6256   0.585   4.396   5.433 -0.1241 -0.2419  0.1703
34284SOL    HW1 6257   0.650   4.349   5.486  0.1766  1.8389  1.6959
34284SOL    HW2 6258   0.634   4.429   5.358  0.2219 -0.0739  0.4715
34285SOL     OW 6259   6.900   1.421   3.584 -0.0663  0.3232 -0.0846
34285SOL    HW1 6260   6.938   1.473   3.514 -0.0409  1.3340  0.6743
34285SOL    HW2 6261   6.967   1.355   3.604  1.3050  2.0879  1.2429
34286SOL     OW 6262   7.484   3.836   2.999  0.3815 -0.2536  0.8817
34286SOL    HW1 6263   7.490   3.832   2.904  3.2683  1.4838  0.9606
34286SOL    HW2 6264   7.493   3.745   3.028 -1.4363 -0.9072 -0.4905
34287SOL     OW 6265   4.930   2.357   6.205  0.1982  0.0476 -0.2164
34287SOL    HW1 6266   4.994   2.295   6.168  1.6365  2.0320 -1.1757
34287SOL    HW2 6267   4.900   2.407   6.130  1.0138  2.2315  0.8695
34288SOL     OW 6268   3.319   3.350  10.150  0.3102 -0.3877 -0.7480
34288SOL    HW1 6269   3.386   3.368  10.216  0.0975  1.4598 -1.0074
34288SOL    HW2 6270   3.236   3.362  10.197  0.1605 -0.9140 -0.8787
34289SOL     OW 6271   6.681   1.904   3.783  0.0359 -0.1764  0.1276
34289SOL    HW1 6272   6.757   1.962   3.787  1.3821 -1.9184  0.3783
34289SOL    HW2 6273   6.710   1.828   3.732 -2.2276  0.1104 -1.7105
34290SOL     OW 6274   2.646   9.936  10.412 -0.3035 -0.3646  0.2140
34290SOL    HW1 6275   2.647   9.915  10.319 -1.8609 -1.9517  0.5179
34290SOL    HW2 6276   2.718   9.998  10.424  0.0790 -0.3478 -1.9853
34291SOL     OW 6277   8.194   5.752   6.352  0.6289  0.2753  0.2503
34291SOL    HW1 6278   8.156   5.772   6.437 -0.7317  0.9069 -0.4833
34291SOL    HW2 6279   8.245   5.830   6.330 -0.8147  1.0547 -0.4719
34292SOL     OW 6280   9.784   9.147   2.284 -0.3718  0.0379 -0.2167
34292SOL    HW1 6281   9.709   9.136   2.226  0.6938 -0.9914 -1.4617
34292SOL    HW2 6282   9.810   9.058   2.307  1.0123  0.3285 -0.5522
34293SOL     OW 6283   7.509   5.391   9.789 -0.0716  0.2832 -0.2655
34293SOL    HW1 6284   7.435   5.330   9.780 -1.3333  1.7961 -0.2995
34293SOL    HW2 6285   7.554   5.361   9.868  0.6735 -2.1034 -1.5667
34294SOL     OW 6286   3.179   2.855   8.896 -0.5541 -0.0868  0.2327
34294SOL    HW1 6287   3.261   2.862   8.847 -0.5919  1.0762  0.3157
34294SOL    HW2 6288   3.163   2.944   8.928 -0.5763 -0.8006  2.2678
34295SOL     OW 6289  10.760   7.444  10.891 -0.5287  0.3442  0.1166
34295SOL    HW1 6290  10.763   7.516  10.955 -0.4775  0.0753  0.4175
34295SOL    HW2 6291  10.841   7.396  10.904 -0.7640 -0.0323  0.2273
34296SOL     OW 6292   9.943   0.547   9.104  0.6607 -0.6092  0.5203
34296SOL    HW1 6293   9.883   0.478   9.076 -0.5893  1.0905 -1.1092
34296SOL    HW2 6294   9.984   0.578   9.024 -0.6404  2.1832  0.8571
34297SOL     OW 6295   3.660   2.901   8.357  0.3135  0.1440  0.6376
34297SOL    HW1 6296   3.578   2.901   8.406 -0.3710 -1.1929 -0.5115
34297SOL    HW2 6297   3.709   2.826   8.391 -0.1214 -0.7294 -0.6608
34298SOL     OW 6298   8.376   6.562   0.673 -0.6719  0.1236 -0.3116
34298SOL    HW1 6299   8.317   6.618   0.724 -0.6249 -0.6085  0.5519
34298SOL    HW2 6300   8.452   6.551   0.729 -0.2525  0.0068 -0.8991
34299SOL     OW 6301   3.750   3.438   0.699  0.3952  0.0652 -0.2559
34299SOL    HW1 6302   3.783   3.348   0.702  0.4853  0.1405  1.0224
34299SOL    HW2 6303   3.772   3.468   0.610  0.0676 -1.2787 -0.7969
34300SOL     OW 6304   5.157   4.836   7.224 -0.0892 -0.6376 -0.2004
34300SOL    HW1 6305   5.184   4.770   7.288  0.0545  1.2575  1.7458
34300SOL    HW2 6306   5.078   4.799   7.184  0.5482 -2.4223  0.1371
34301SOL     OW 6307   8.399   7.086   2.479 -1.0065  0.3521  0.4027
34301SOL    HW1 6308   8.320   7.114   2.432 -2.0482 -1.8486  0.7797
34301SOL    HW2 6309   8.454   7.047   2.411 -1.7741 -1.2849  0.7076
34302SOL     OW 6310   5.274   7.347   9.135 -0.2673  0.2720  0.2168
34302SOL    HW1 6311   5.197   7.399   9.110 -0.2049  0.0670 -0.3843
34302SOL    HW2 6312   5.241   7.286   9.201 -0.2000  1.5389  1.4505
34303SOL     OW 6313  10.360  10.924   0.495 -0.1676 -0.5628  0.0117
34303SOL    HW1 6314  10.339  10.855   0.559  0.1770  1.2883  2.1983
34303SOL    HW2 6315  10.276  10.949   0.458 -0.3603 -1.7247 -0.3670
34304SOL     OW 6316   7.853   9.870   4.342  0.1729  0.4391 -0.1748
34304SOL    HW1 6317   7.759   9.855   4.348 -0.0198  1.7789  0.3105
34304SOL    HW2 6318   7.867   9.895   4.251  0.5490 -2.8298 -1.0888
34305SOL     OW 6319   3.703   2.213   1.370  0.3310  0.2224  0.1316
34305SOL    HW1 6320   3.716   2.285   1.432  2.4332  1.6385 -1.8715
34305SOL    HW2 6321   3.790   2.191   1.339 -0.5893 -1.0429 -1.6795
34306SOL     OW 6322   0.526   1.280   1.474 -0.3714 -0.0312 -0.3597
34306SOL    HW1 6323   0.454   1.321   1.426  0.4295  0.5950 -1.0507
34306SOL    HW2 6324   0.582   1.244   1.405 -0.5999 -1.4973  0.2096
34307SOL     OW 6325   1.152   0.924   4.283  0.3923 -0.5388  0.6023
34307SOL    HW1 6326   1.119   0.978   4.211  0.6753 -1.5135 -0.2753
34307SOL    HW2 6327   1.082   0.923   4.347 -1.4299 -2.7884 -1.3379
34308SOL     OW 6328   4.595   5.070   8.576 -0.0674  0.0604 -0.3381
34308SOL    HW1 6329   4.643   5.120   8.510 -1.0076  1.7380  0.2211
34308SOL    HW2 6330   4.506   5.062   8.540  0.0053 -0.9989 -0.3023
34309SOL     OW 6331   1.881   1.995   9.930 -0.0584  0.3372  0.4302
34309SOL    HW1 6332   1.959   1.951   9.963  0.1997  0.0950 -0.4961
34309SOL    HW2 6333   1.915   2.071   9.883 -0.4061  0.4805  0.4085
34310SOL     OW 6334   0.134  10.350  10.130 -0.1846 -0.2089  0.2702
34310SOL    HW1 6335   0.221  10.328  10.097  0.4583  1.5111  0.7600
34310SOL    HW2 6336   0.081  10.367  10.052 -0.0960 -1.2900 -0.0279
34311SOL     OW 6337   4.390   5.114   5.336 -0.2271 -0.4975 -0.6951
34311SOL    HW1 6338   4.363   5.039   5.388  1.0999 -1.1125 -0.8643
34311SOL    HW2 6339   4.309   5.160   5.315 -1.1506 -2.4504 -1.4607
34312SOL     OW 6340   9.033   7.971   9.828 -0.0262  0.1213  0.9703
34312SOL    HW1 6341   8.989   7.913   9.890 -2.7204  0.0401 -0.9409
34312SOL    HW2 6342   8.995   8.057   9.845  1.1361  0.6205  1.1502
34313SOL     OW 6343   0.083   6.208   7.856 -0.0419  0.0027 -0.1309
34313SOL    HW1 6344   0.140   6.279   7.826  1.3149 -2.0263 -2.5409
34313SOL    HW2 6345   0.131   6.167   7.927 -0.2761  0.7008  0.4401
34314SOL     OW 6346   8.102   3.862   5.091 -0.5954 -0.2851  0.1255
34314SOL    HW1 6347   8.021   3.813   5.076 -0.9042  0.1790  0.2627
34314SOL    HW2 6348   8.163   3.797   5.125 -0.3249 -1.0601 -1.7783
34315SOL     OW 6349   2.061   9.816   9.472 -0.2502  0.2244 -0.4363
34315SOL    HW1 6350   2.091   9.846   9.557  0.8789  1.3961 -1.2409
34315SOL    HW2 6351   2.109   9.870   9.408 -3.0835  1.2884 -1.7676
34316SOL     OW 6352   5.602   5.493   2.235  0.4694  0.1568 -0.4769
34316SOL    HW1 6353   5.697   5.494   2.242  0.4302  3.7515  0.9502
34316SOL    HW2 6354   5.573   5.448   2.315  0.9599  1.3353  0.3851
34317SOL     OW 6355   0.221   4.990   0.227  0.1050  0.0550 -0.0798
34317SOL    HW1 6356   0.207   4.907   0.274 -0.7936  0.1538 -0.1785
34317SOL    HW2 6357   0.173   5.055   0.278  1.3952  0.6601  0.4014
34318SOL     OW 6358   3.474   4.888   7.762 -0.1086  0.4305  0.2515
34318SOL    HW1 6359   3.433   4.970   7.736 -0.1618  0.2555 -0.2252
34318SOL    HW2 6360   3.459   4.829   7.689  0.6772  0.2492  0.2250
34319SOL     OW 6361   4.587   0.441   2.384 -0.2919  0.5608  0.3344
34319SOL    HW1 6362   4.526   0.418   2.314 -0.9215  0.1893  0.9967
34319SOL    HW2 6363   4.626   0.524   2.356 -2.1741  1.5536  0.5757
34320SOL     OW 6364   8.443  10.551   7.123 -0.0734 -0.0694 -0.0139
34320SOL    HW1 6365   8.483  10.613   7.184 -1.4704 -0.5301  1.3954
34320SOL    HW2 6366   8.495  10.471   7.132 -0.0355 -0.0131  0.2739
34321SOL     OW 6367   1.013   7.147   7.234 -0.3483 -0.4293 -0.7993
34321SOL    HW1 6368   1.105   7.129   7.249 -0.8301 -1.3337  1.1652
34321SOL    HW2 6369   0.998   7.125   7.142  1.6251  0.7804 -1.4282
34322SOL     OW 6370   5.655   0.617   1.691  0.2379 -0.1084 -0.0792
34322SOL    HW1 6371   5.661   0.576   1.778 -1.2714 -1.0216 -0.3927
34322SOL    HW2 6372   5.636   0.709   1.710  1.8614  0.1133  0.5892
34323SOL     OW 6373   8.774   8.012   4.341 -0.1333  0.1914  0.2998
34323SOL    HW1 6374   8.778   8.004   4.436 -1.1905 -4.7886  0.0259
34323SOL    HW2 6375   8.861   8.042   4.315  0.1635  1.5747  2.7945
34324SOL     OW 6376   3.279   5.450   6.616  0.5495  0.6470 -0.3181
34324SOL    HW1 6377   3.321   5.370   6.585  0.3100  0.0598  0.8417
34324SOL    HW2 6378   3.352   5.507   6.643  0.6974  0.6082 -0.6438
34325SOL     OW 6379   5.990   1.777   9.765  0.4761  0.0871 -0.3886
34325SOL    HW1 6380   5.930   1.703   9.767 -0.1013  0.5590  0.8294
34325SOL    HW2 6381   6.070   1.743   9.726 -0.6744 -0.4730 -2.3311
34326SOL     OW 6382   2.900  10.074   4.520  0.2056 -0.2102  0.4289
34326SOL    HW1 6383   2.946  10.082   4.437 -2.1083  0.7937 -0.8066
34326SOL    HW2 6384   2.925   9.988   4.554  3.0839  0.3670 -0.0882
34327SOL     OW 6385   7.128   7.233   1.427  0.0365 -0.0445  0.1431
34327SOL    HW1 6386   7.080   7.176   1.367 -0.2014  0.6433 -0.3275
34327SOL    HW2 6387   7.164   7.302   1.370  0.3021  0.2808  0.7050
34328SOL     OW 6388   8.407   7.970   0.005 -0.0100 -0.4125 -0.4950
34328SOL    HW1 6389   8.349   8.026   0.057 -1.8516 -1.1567 -1.6947
34328SOL    HW2 6390   8.395   7.883   0.042  0.8706 -0.4667 -0.3226
34329SOL     OW 6391   1.788   5.022   8.839 -0.1083  0.2087  0.0669
34329SOL    HW1 6392   1.855   4.967   8.879  1.1838  2.5543  1.2832
34329SOL    HW2 6393   1.789   5.103   8.891 -0.5381  2.1613 -2.8311
34330SOL     OW 6394   7.550   7.276   6.168  0.1233  0.5228  0.2681
34330SOL    HW1 6395   7.507   7.248   6.087  1.4761  1.4453 -0.8085
34330SOL    HW2 6396   7.632   7.317   6.138  0.2459  1.6376  2.0520
34331SOL     OW 6397   2.098   7.191   2.768  0.1623  0.6949 -0.3812
34331SOL    HW1 6398   2.051   7.121   2.812  2.3031 -0.0739  0.7755
34331SOL    HW2 6399   2.100   7.263   2.832  0.4875  0.7352 -0.4313
34332SOL     OW 6400   0.992   4.500   8.762 -0.4694 -0.2128  0.0392
34332SOL    HW1 6401   0.996   4.483   8.668 -1.6247  1.2664 -0.2897
34332SOL    HW2 6402   0.968   4.415   8.800  0.2921 -0.8878 -0.9626
34333SOL     OW 6403   6.339   6.967   4.300  0.2948 -0.4140 -0.4144
34333SOL    HW1 6404   6.244   6.972   4.313  0.3406 -1.5702  0.4661
34333SOL    HW2 6405   6.353   6.994   4.209 -0.8815 -0.2617 -0.5500
34334SOL     OW 6406   8.742   5.764   4.648 -0.6634 -0.1945  0.7352
34334SOL    HW1 6407   8.748   5.816   4.729 -0.7193 -0.0981  0.6770
34334SOL    HW2 6408   8.816   5.704   4.653 -0.1436  0.4201  0.4311
34335SOL     OW 6409  10.422   8.251   1.678 -0.4962  0.0989  0.2259
34335SOL    HW1 6410  10.437   8.278   1.769 -0.6419 -1.2248  0.6570
34335SOL    HW2 6411  10.332   8.220   1.676 -0.8536  1.1764 -0.6448
34336SOL     OW 6412   9.466   7.853   7.688 -0.5917  0.4758  0.1862
34336SOL    HW1 6413   9.381   7.812   7.674 -0.0551 -0.2664 -1.0080
34336SOL    HW2 6414   9.451   7.946   7.671 -0.9095  0.1799 -1.2146
34337SOL     OW 6415   9.614   1.744   3.916  0.0613  0.0340  0.3448
34337SOL    HW1 6416   9.639   1.656   3.887  1.3157  0.4763  0.0738
34337SOL    HW2 6417   9.696   1.785   3.943 -0.7765  0.3887  2.5352
34338SOL     OW 6418   7.002   2.955   5.302 -0.0354  0.2080 -0.1022
34338SOL    HW1 6419   7.016   2.878   5.356  0.0161 -1.1955 -2.0404
34338SOL    HW2 6420   7.012   2.923   5.212  0.4506  2.5791 -0.9238
34339SOL     OW 6421  10.624   6.493   3.929  0.3517  0.1511  0.4983
34339SOL    HW1 6422  10.607   6.475   4.021 -0.2775  1.4925  0.6528
34339SOL    HW2 6423  10.678   6.420   3.899  2.1533  0.6500  2.4201
34340SOL     OW 6424   3.392   0.852   2.237 -0.4116  0.0368  0.6061
34340SOL    HW1 6425   3.396   0.802   2.156 -0.2311  0.1165  0.5652
34340SOL    HW2 6426   3.425   0.791   2.304  0.4496  0.3256  0.4458
34341SOL     OW 6427  10.208   5.735  10.644 -0.2235  0.0684  0.1544
34341SOL    HW1 6428  10.191   5.645  10.672  0.2447  0.0745  0.4527
34341SOL    HW2 6429  10.198   5.733  10.548 -4.7121  0.6499  0.5024
34342SOL     OW 6430   8.419   3.677  10.885  0.3035 -0.1994  0.1506
34342SOL    HW1 6431   8.458   3.605  10.835  0.8156 -0.4752  0.9423
34342SOL    HW2 6432   8.381   3.734  10.818 -2.5948 -2.6109 -0.3609
34343SOL     OW 6433   2.348   3.315   3.301 -0.0439 -0.0802  1.0193
34343SOL    HW1 6434   2.398   3.395   3.313 -0.4043  0.0379  1.7599
34343SOL    HW2 6435   2.403   3.245   3.338  0.2830 -0.1800  0.3478
34344SOL     OW 6436   5.147   3.759   0.958 -0.3578  0.3038 -0.1967
34344SOL    HW1 6437   5.176   3.674   0.990 -0.6216 -0.2656 -1.4394
34344SOL    HW2 6438   5.091   3.794   1.028 -0.1728 -0.4946  0.3498
34345SOL     OW 6439   0.227   7.069   0.500 -0.0596  0.2793 -0.0284
34345SOL    HW1 6440   0.255   7.024   0.579  0.3281 -0.1763 -0.4175
34345SOL    HW2 6441   0.141   7.031   0.480  1.2725 -2.0404 -1.6627
34346SOL     OW 6442   0.017   5.555   9.407  0.8476 -0.1502 -0.1497
34346SOL    HW1 6443   0.100   5.518   9.438  1.2181  0.7232 -0.0666
34346SOL    HW2 6444   0.037   5.648   9.393 -0.3792  0.2595  0.8135
34347SOL     OW 6445   6.288   1.729   7.527 -0.1301 -0.6213  0.5545
34347SOL    HW1 6446   6.237   1.773   7.596  0.5673  0.5761  0.3237
34347SOL    HW2 6447   6.270   1.781   7.448  0.6632 -0.7804  0.2662
34348SOL     OW 6448  10.737   8.797   3.428  0.5934  0.2073  0.1302
34348SOL    HW1 6449  10.790   8.718   3.444  1.4091  0.8113  0.4492
34348SOL    HW2 6450  10.763   8.827   3.341 -0.6354 -0.5798 -0.5199
34349SOL     OW 6451   1.963   2.887   4.996 -0.4472  0.3110  0.2040
34349SOL    HW1 6452   1.985   2.980   4.993 -0.8496  0.4873  1.9243
34349SOL    HW2 6453   1.928   2.874   5.084  0.8904 -1.7501  0.4699
34350SOL     OW 6454   4.994   3.032   9.701 -0.0452 -0.4624 -0.1839
34350SOL    HW1 6455   5.081   3.055   9.734 -0.2860  0.5887 -0.2588
34350SOL    HW2 6456   4.939   3.106   9.726 -1.0523 -1.3837  0.3731
34351SOL     OW 6457   3.741   2.036   6.669  0.0885 -0.6897 -0.4460
34351SOL    HW1 6458   3.793   2.015   6.591 -1.0162 -1.4775 -0.9768
34351SOL    HW2 6459   3.780   1.983   6.738  0.3151 -0.8969 -0.7286
34352SOL     OW 6460   2.460   6.036   2.143 -0.1736 -0.6470 -0.1977
34352SOL    HW1 6461   2.394   6.037   2.212  0.3989  1.2033  0.3701
34352SOL    HW2 6462   2.447   6.120   2.097  1.0059 -0.7954 -0.8122
34353SOL     OW 6463  10.947   2.409   8.141  0.5091 -0.1761 -0.3140
34353SOL    HW1 6464  10.925   2.322   8.174 -2.5150  0.5738 -0.1678
34353SOL    HW2 6465  10.989   2.454   8.214  1.1329 -1.1658 -0.0645
34354SOL     OW 6466   9.534   4.832   1.957  0.5672 -0.2782  0.0769
34354SOL    HW1 6467   9.485   4.764   2.003  0.4467 -0.1508  0.1383
34354SOL    HW2 6468   9.624   4.819   1.985  0.6508 -0.8343 -0.4260
34355SOL     OW 6469   5.009   2.079   7.564 -0.5927  0.0724  0.1586
34355SOL    HW1 6470   5.034   2.171   7.573  0.2961 -0.0745 -0.6916
34355SOL    HW2 6471   4.969   2.073   7.477  1.6440 -0.8196 -0.8567
34356SOL     OW 6472   7.358   4.017   5.021  0.2148 -0.2140 -0.2103
34356SOL    HW1 6473   7.432   3.966   4.989  0.7611 -0.2524  1.0910
34356SOL    HW2 6474   7.322   3.964   5.093 -0.5009  0.2494 -0.2242
34357SOL     OW 6475  10.370   3.998   3.381  0.4173 -0.2476 -0.5617
34357SOL    HW1 6476  10.278   3.988   3.358  0.0632  0.3472  0.5742
34357SOL    HW2 6477  10.378   4.089   3.411  1.5328 -0.0597 -1.3593
34358SOL     OW 6478   4.760   0.911   6.826 -0.7794  0.2899  0.4831
34358SOL    HW1 6479   4.834   0.971   6.818 -0.6205  0.1518  0.9042
34358SOL    HW2 6480   4.784   0.836   6.772 -0.7220  0.3519  0.4222
34359SOL     OW 6481  10.568   8.922   9.293 -0.2448  0.3447 -0.0223
34359SOL    HW1 6482  10.481   8.885   9.309 -0.1355  0.3061  0.4979
34359SOL    HW2 6483  10.620   8.893   9.368 -0.1208  1.4502  0.3312
34360SOL     OW 6484   1.664   6.612   0.297  0.1401 -0.3015 -0.2403
34360SOL    HW1 6485   1.757   6.621   0.279 -0.1518 -1.3102 -2.3680
34360SOL    HW2 6486   1.651   6.519   0.314 -0.5156 -0.1877 -0.0771
34361SOL     OW 6487   0.264   5.368   3.421 -0.7271 -0.1718  0.1262
34361SOL    HW1 6488   0.253   5.460   3.400  0.4792 -0.1623 -0.4859
34361SOL    HW2 6489   0.350   5.362   3.462 -0.5212 -1.1139 -0.4144
34362SOL     OW 6490   9.430   8.338   7.442  0.6749 -0.9156 -0.0741
34362SOL    HW1 6491   9.415   8.346   7.348  1.7502 -0.5833 -0.2288
34362SOL    HW2 6492   9.522   8.363   7.453  0.4889 -0.7356  1.0899
34363SOL     OW 6493   2.127   6.648   9.462 -0.1290  0.1017 -0.5940
34363SOL    HW1 6494   2.162   6.570   9.419  0.4017 -0.0246  0.0475
34363SOL    HW2 6495   2.181   6.720   9.429 -0.3129  0.1306 -0.8298
34364SOL     OW 6496   7.773   6.933   4.893  0.0532  0.0171  0.6649
34364SOL    HW1 6497   7.761   6.839   4.878 -0.5797  0.0126  1.1791
34364SOL    HW2 6498   7.857   6.939   4.938  0.0776 -0.3146  0.6679
34365SOL     OW 6499   4.123  10.575   0.890  0.0784 -0.4512  0.4299
34365SOL    HW1 6500   4.151  10.660   0.855 -0.1868 -0.5064  0.0888
34365SOL    HW2 6501   4.183  10.512   0.850  0.2072 -0.4411  0.6018
34366SOL     OW 6502   8.051   5.750   2.061 -0.7994 -0.0613  0.2375
34366SOL    HW1 6503   8.107   5.748   2.138 -0.7776 -0.7771  0.2038
34366SOL    HW2 6504   8.002   5.667   2.064 -2.0968  0.6897  0.4532
34367SOL     OW 6505   2.207   2.021   5.904  0.4762 -0.3471 -0.7737
34367SOL    HW1 6506   2.146   2.054   5.969 -0.1966 -1.2409 -0.9465
34367SOL    HW2 6507   2.292   2.056   5.931 -0.2918  2.0119 -1.2976
34368SOL     OW 6508   5.512   6.334   4.165 -0.0020  0.1848 -0.6026
34368SOL    HW1 6509   5.539   6.414   4.210 -0.4542  0.1393 -0.2464
34368SOL    HW2 6510   5.493   6.272   4.235 -0.7958  0.1414 -0.8440
34369SOL     OW 6511   0.538   2.547   0.311 -0.2684 -0.3715 -0.0559
34369SOL    HW1 6512   0.629   2.578   0.307 -0.6313  0.6039 -1.0275
34369SOL    HW2 6513   0.545   2.459   0.348  0.9362  0.2306  1.2161
34370SOL     OW 6514   1.704   1.391   1.043 -0.1905  0.7204  0.7116
34370SOL    HW1 6515   1.783   1.445   1.042 -1.9095  3.2754  0.3382
34370SOL    HW2 6516   1.633   1.450   1.019 -1.8937 -2.1047 -1.6455
34371SOL     OW 6517   9.491   7.089   6.045 -0.2964 -0.1825  0.2582
34371SOL    HW1 6518   9.511   7.048   6.130 -0.5536  2.5651  1.7247
34371SOL    HW2 6519   9.399   7.070   6.031 -0.1423 -1.0433  0.3604
34372SOL     OW 6520   7.023   0.689   9.255  0.3276  0.3330  0.4308
34372SOL    HW1 6521   6.985   0.626   9.194 -0.3827 -0.1780  1.3805
34372SOL    HW2 6522   7.051   0.762   9.200 -1.0537  0.2375 -0.4277
34373SOL     OW 6523   2.887   4.821   9.491  0.7328  0.5719 -0.0168
34373SOL    HW1 6524   2.827   4.845   9.420 -0.2432 -1.3321  0.1379
34373SOL    HW2 6525   2.973   4.818   9.449  0.2844  0.3034 -0.9279
34374SOL     OW 6526   8.705   8.648   6.972  0.3368  0.5079  0.0843
34374SOL    HW1 6527   8.796   8.668   6.948  0.2745  2.1619  1.1301
34374SOL    HW2 6528   8.710   8.628   7.066 -0.2421 -0.4093 -0.0734
34375SOL     OW 6529   0.646   5.491   2.414 -0.0983  0.0304 -0.1585
34375SOL    HW1 6530   0.610   5.406   2.438 -0.6145  0.9420  2.3731
34375SOL    HW2 6531   0.600   5.514   2.333  0.2081 -2.1709 -1.0097
34376SOL     OW 6532   6.440   8.492   7.302 -0.5158  0.0709 -0.4700
34376SOL    HW1 6533   6.410   8.582   7.312 -0.2206  0.4722 -2.7904
34376SOL    HW2 6534   6.360   8.440   7.297 -0.8079  0.6931 -2.9332
34377SOL     OW 6535   3.609   6.730   6.585  0.3385  0.5033 -0.3690
34377SOL    HW1 6536   3.692   6.684   6.598  0.4916  1.4097  2.1334
34377SOL    HW2 6537   3.619   6.774   6.500  1.2438 -1.7860 -1.4944
34378SOL     OW 6538   0.260   7.489  10.950 -0.2717  0.0860  0.4931
34378SOL    HW1 6539   0.197   7.509  10.881  1.3174  0.5189 -0.8692
34378SOL    HW2 6540   0.318   7.564  10.951  0.0001 -0.1373  1.9989
34379SOL     OW 6541   6.323   6.724   5.139 -0.5145  0.0519 -0.2928
34379SOL    HW1 6542   6.334   6.781   5.215 -2.6618 -2.4080  1.9660
34379SOL    HW2 6543   6.295   6.783   5.069 -1.0416  2.0191  1.5308
34380SOL     OW 6544   4.042   4.671   1.769 -0.0824 -0.2014 -0.0168
34380SOL    HW1 6545   3.994   4.705   1.844  0.5358 -1.1708  0.8171
34380SOL    HW2 6546   3.990   4.597   1.739  1.6917 -2.2504  1.8640
34381SOL     OW 6547   7.130   5.901   0.344 -0.1820 -0.1166 -0.3416
34381SOL    HW1 6548   7.071   5.973   0.323  0.6580  0.6963  0.0565
34381SOL    HW2 6549   7.165   5.923   0.431 -0.4974 -1.3772  0.1224
34382SOL     OW 6550   7.816  10.477   8.880  0.1905 -0.8127 -0.0564
34382SOL    HW1 6551   7.846  10.434   8.960 -1.0974  0.5497  1.2027
34382SOL    HW2 6552   7.728  10.442   8.866 -0.7024  1.0495  0.7432
34383SOL     OW 6553  10.514   0.767   8.020 -0.1289 -0.1429  0.6366
34383SOL    HW1 6554  10.511   0.810   7.935  0.6394 -0.2928  0.5382
34383SOL    HW2 6555  10.485   0.835   8.082  0.9500  0.4714  0.4655
34384SOL     OW 6556   3.796   7.124   3.962 -0.6476  0.9182  0.1779
34384SOL    HW1 6557   3.724   7.159   3.910  0.3716 -0.0756 -1.9746
34384SOL    HW2 6558   3.855   7.198   3.976 -0.9386  1.1966 -0.0893
34385SOL     OW 6559   5.924   7.412   5.078 -0.1617 -0.1415  0.1635
34385SOL    HW1 6560   5.960   7.479   5.020 -1.5956  0.2580 -0.2855
34385SOL    HW2 6561   5.880   7.350   5.020  1.3138 -1.5960  0.5626
34386SOL     OW 6562   0.131   9.411   7.634 -0.2583 -0.6469 -0.1670
34386SOL    HW1 6563   0.057   9.352   7.618  0.5314 -1.4841 -0.7424
34386SOL    HW2 6564   0.108   9.491   7.587 -0.7856 -0.9097 -0.3664
34387SOL     OW 6565   9.805   1.849   0.293  0.2117 -0.1236  0.9469
34387SOL    HW1 6566   9.843   1.896   0.367  0.2498  0.8996  0.2857
34387SOL    HW2 6567   9.880   1.825   0.239  0.0543  0.5514  0.4227
34388SOL     OW 6568   1.175   6.280   7.666  0.2097 -0.0326 -0.3646
34388SOL    HW1 6569   1.094   6.312   7.626 -0.5235 -0.2337  0.9302
34388SOL    HW2 6570   1.181   6.188   7.641 -0.5613 -0.3157  0.4804
34389SOL     OW 6571   1.522  10.517  10.061  0.2761  0.2938  0.0926
34389SOL    HW1 6572   1.468  10.505  10.139  0.3528  0.2391  0.1372
34389SOL    HW2 6573   1.469  10.482   9.989  0.6158 -0.5654  0.2609
34390SOL     OW 6574   2.119   7.164   8.255 -0.2571  0.6001 -0.2897
34390SOL    HW1 6575   2.121   7.259   8.244  1.7879  0.6431  0.3091
34390SOL    HW2 6576   2.133   7.129   8.167  0.2341  0.8585 -0.3147
34391SOL     OW 6577   2.380   0.004   5.324  0.7594 -0.0876 -0.8822
34391SOL    HW1 6578   2.361   0.082   5.271 -0.2930 -0.4498 -1.0607
34391SOL    HW2 6579   2.366  -0.069   5.264  1.3274 -0.4331 -0.5960
34392SOL     OW 6580   6.444   3.634   7.047 -0.0907  0.7224 -0.3762
34392SOL    HW1 6581   6.495   3.553   7.041  2.5856  2.3896 -1.4391
34392SOL    HW2 6582   6.458   3.665   7.136  0.9025  1.1957 -0.6742
34393SOL     OW 6583   7.986   1.114   1.194 -0.5985 -0.1533  0.1876
34393SOL    HW1 6584   8.011   1.052   1.263  0.8072 -0.0611 -0.2281
34393SOL    HW2 6585   8.034   1.194   1.215  1.1687 -0.6516 -1.8259
34394SOL     OW 6586   9.606   3.253   7.594  0.1301  0.1480  0.0037
34394SOL    HW1 6587   9.587   3.295   7.677 -1.5807  2.6785 -1.6020
34394SOL    HW2 6588   9.702   3.250   7.590  0.2427  1.5335  1.2955
34395SOL     OW 6589  10.325   4.987   3.308  0.2795  0.3165  0.1758
34395SOL    HW1 6590  10.368   4.902   3.299 -0.5124 -0.0844  0.1012
34395SOL    HW2 6591  10.267   4.977   3.383 -0.5279  0.4738 -0.4127
34396SOL     OW 6592   5.318   6.361   0.120 -0.7775 -0.0169  0.2783
34396SOL    HW1 6593   5.329   6.289   0.182  3.2496 -1.2241 -1.7098
34396SOL    HW2 6594   5.361   6.435   0.163 -0.6392 -0.0579  0.2089
34397SOL     OW 6595  10.653   0.801   2.752  0.2653  0.2150 -0.2124
34397SOL    HW1 6596  10.684   0.722   2.709 -1.3661 -0.1916 -0.6671
34397SOL    HW2 6597  10.667   0.786   2.845  0.3707 -0.4296 -0.3368
34398SOL     OW 6598   3.594   1.961  10.673  0.2096 -0.1331 -0.3583
34398SOL    HW1 6599   3.515   1.970  10.726 -0.3588 -0.0275 -1.2232
34398SOL    HW2 6600   3.641   2.044  10.685 -0.9237  0.7126 -1.6440
34399SOL     OW 6601   7.277   9.421   1.273 -0.1897 -0.0262  0.1178
34399SOL    HW1 6602   7.310   9.333   1.289  1.0298  0.6014  1.1766
34399SOL    HW2 6603   7.341   9.479   1.315 -1.9098  1.2953  0.9988
34400SOL     OW 6604   3.897   7.296   3.413  0.2473  0.1637 -0.3308
34400SOL    HW1 6605   3.928   7.386   3.411  0.9386  0.1638  4.4649
34400SOL    HW2 6606   3.977   7.243   3.418 -0.1741 -0.7084 -2.3926
34401SOL     OW 6607  10.650   6.515   7.008 -0.0028  0.5746 -0.0236
34401SOL    HW1 6608  10.716   6.581   7.030 -1.3669  1.2705  2.1051
34401SOL    HW2 6609  10.655   6.452   7.080  0.6508 -1.1911 -1.5760
34402SOL     OW 6610   9.296   6.106   0.589 -0.3098 -0.4457  0.6292
34402SOL    HW1 6611   9.329   6.188   0.552 -1.3968 -0.0077  0.6069
34402SOL    HW2 6612   9.344   6.096   0.671 -1.0383  0.8373  1.2239
34403SOL     OW 6613   7.184   4.949   8.007  0.1433  0.1769 -0.4728
34403SOL    HW1 6614   7.170   4.952   7.913  0.1671  0.3894 -0.4693
34403SOL    HW2 6615   7.116   5.006   8.044  0.6331  0.7315 -0.4151
34404SOL     OW 6616   0.144  10.949   6.233 -0.4092  0.3078 -0.0053
34404SOL    HW1 6617   0.050  10.937   6.221 -0.4476 -1.0058  1.5045
34404SOL    HW2 6618   0.181  10.937   6.145 -1.3028 -2.7373 -0.0036
34405SOL     OW 6619   4.696   3.921   6.287  0.1829 -0.0429 -0.6387
34405SOL    HW1 6620   4.772   3.865   6.269  0.2676  0.5059 -2.0317
34405SOL    HW2 6621   4.621   3.861   6.284  0.3743 -0.2593 -1.1510
34406SOL     OW 6622   9.941   7.560   9.588  0.0468  0.0437  0.5480
34406SOL    HW1 6623   9.978   7.647   9.568 -0.3817 -0.0495 -0.6722
34406SOL    HW2 6624   9.895   7.535   9.509  0.6284 -1.5566  0.6967
34407SOL     OW 6625   5.289   1.452   2.175  0.0383  0.1684 -0.5247
34407SOL    HW1 6626   5.351   1.521   2.199 -0.2242  0.6061 -1.0879
34407SOL    HW2 6627   5.344   1.383   2.135  0.4608 -0.5219  1.2167
34408SOL     OW 6628   9.544   0.347   2.859  0.4751  0.2981  0.1286
34408SOL    HW1 6629   9.569   0.311   2.944  0.6532  0.9612  0.3579
34408SOL    HW2 6630   9.463   0.394   2.875  0.0644 -0.2688 -0.2407
34409SOL     OW 6631   3.730   4.865   6.962  0.2112 -0.0660  0.2554
34409SOL    HW1 6632   3.676   4.931   6.918 -1.1485  0.2439  2.3490
34409SOL    HW2 6633   3.669   4.813   7.014  1.4609 -2.0725 -0.2001
34410SOL     OW 6634   5.333   9.530   0.628  0.2455  0.5689 -0.4129
34410SOL    HW1 6635   5.388   9.476   0.571 -0.3039 -2.1061  1.5066
34410SOL    HW2 6636   5.247   9.489   0.625 -0.5958  2.2477 -0.0908
34411SOL     OW 6637   4.723   6.182   4.739  0.2267 -0.6221  0.0729
34411SOL    HW1 6638   4.707   6.092   4.708 -0.5891 -0.4917  0.0920
34411SOL    HW2 6639   4.635   6.220   4.744  0.6230  0.3787 -0.5442
34412SOL     OW 6640   4.509   6.075   3.627 -0.8156  0.2907  0.3850
34412SOL    HW1 6641   4.508   6.042   3.538  1.1884 -0.8125  0.7400
34412SOL    HW2 6642   4.558   6.009   3.677  0.7282  2.3391  1.6926
34413SOL     OW 6643   1.203   5.196   7.543 -0.4988  0.3353  0.3436
34413SOL    HW1 6644   1.205   5.218   7.450 -0.9136 -0.0445  0.2435
34413SOL    HW2 6645   1.155   5.113   7.548 -1.8946  1.1564  1.0548
34414SOL     OW 6646   7.869   1.277  10.493  0.0150  0.1694 -0.4776
34414SOL    HW1 6647   7.943   1.333  10.519 -0.4141  0.9039 -0.8225
34414SOL    HW2 6648   7.868   1.208  10.559  1.0280  0.1331 -0.4815
34415SOL     OW 6649   5.689   1.228   1.385 -0.4325  0.3892  0.1464
34415SOL    HW1 6650   5.698   1.301   1.322  1.6229  1.3821  1.5145
34415SOL    HW2 6651   5.608   1.246   1.431 -0.9839  0.6974 -0.9138
34416SOL     OW 6652   4.228   2.352   5.772 -0.6616 -0.6422  0.8743
34416SOL    HW1 6653   4.303   2.324   5.719 -0.3358 -0.5977  1.3135
34416SOL    HW2 6654   4.194   2.271   5.810 -0.5079 -0.5961  1.1081
34417SOL     OW 6655   4.244   7.016   7.151 -0.8189  0.3365  0.0037
34417SOL    HW1 6656   4.265   7.024   7.244  1.2101 -0.1268 -0.4055
34417SOL    HW2 6657   4.328   7.017   7.107 -1.8746  3.1163 -2.0671
34418SOL     OW 6658   2.436   5.749   9.977 -0.0083  0.0339 -0.4900
34418SOL    HW1 6659   2.482   5.695   9.912 -0.2045 -0.0672 -0.5489
34418SOL    HW2 6660   2.486   5.830   9.981  1.3342 -0.8417  0.9256
34419SOL     OW 6661  10.583   6.276   4.884  0.0124  0.0194  0.1179
34419SOL    HW1 6662  10.669   6.246   4.854 -0.0684 -2.0039  1.7910
34419SOL    HW2 6663  10.549   6.328   4.811  1.6467 -1.1580 -1.5381
34420SOL     OW 6664   8.574  10.568  10.763 -0.6765 -0.3889  0.4728
34420SOL    HW1 6665   8.568  10.662  10.782 -2.2838 -0.5212  0.6612
34420SOL    HW2 6666   8.577  10.527  10.849  1.2668 -0.4615  0.3983
34421SOL     OW 6667   9.163   2.742   5.178  0.4314  0.0565 -0.2936
34421SOL    HW1 6668   9.118   2.709   5.256 -0.4483  0.8033 -0.4706
34421SOL    HW2 6669   9.208   2.821   5.209  1.8038 -0.7919 -0.0724
34422SOL     OW 6670   3.435   0.633   4.435 -0.3660 -0.2386 -0.0399
34422SOL    HW1 6671   3.370   0.566   4.458 -0.2132 -1.2758 -2.5077
34422SOL    HW2 6672   3.511   0.583   4.404  0.3224  1.0412 -0.4573
34423SOL     OW 6673   1.053  10.093   9.358 -0.0021 -0.2934 -0.3236
34423SOL    HW1 6674   1.029  10.037   9.284  2.2054  0.2901 -1.5141
34423SOL    HW2 6675   1.055  10.182   9.322  1.6958 -0.0696  0.2701
34424SOL     OW 6676   8.622   5.199   4.342 -1.2130  0.1566  0.0650
34424SOL    HW1 6677   8.606   5.150   4.261 -2.7754  0.1914  0.3474
34424SOL    HW2 6678   8.651   5.285   4.313  0.7574 -0.6419 -0.4402
34425SOL     OW 6679   3.943   9.946   3.364  0.4111  0.1105 -0.5384
34425SOL    HW1 6680   3.957   9.868   3.419  1.3677  1.1358  0.7026
34425SOL    HW2 6681   4.004  10.011   3.399 -1.2421  1.8203 -0.7607
34426SOL     OW 6682  10.839  10.506  10.547 -0.4292  0.0663  0.3836
34426SOL    HW1 6683  10.762  10.451  10.533 -0.6991  0.9862 -2.1280
34426SOL    HW2 6684  10.802  10.593  10.565 -0.0107  0.5401 -0.9814
34427SOL     OW 6685   7.398   4.106   5.945  0.2484  0.2297 -0.3216
34427SOL    HW1 6686   7.357   4.140   6.025  0.7871 -0.7100  0.3504
34427SOL    HW2 6687   7.402   4.183   5.887 -1.3492  0.6228  0.0419
34428SOL     OW 6688  10.639   2.167   4.820 -0.1791  0.1442 -0.0565
34428SOL    HW1 6689  10.704   2.237   4.817  0.0138 -0.0737 -3.4221
34428SOL    HW2 6690  10.555   2.214   4.821 -0.0363  0.4907 -1.6246
34429SOL     OW 6691   6.006   6.055   0.529  0.6300  0.3930  0.2742
34429SOL    HW1 6692   6.054   6.132   0.498  0.7801  0.5192  0.8244
34429SOL    HW2 6693   6.042   6.037   0.615  1.3739 -0.9782 -0.3107
34430SOL     OW 6694   0.064   7.493  10.417 -0.0068 -0.3049 -0.0919
34430SOL    HW1 6695  -0.004   7.474  10.352  0.3751  0.0152 -0.5939
34430SOL    HW2 6696   0.021   7.550  10.481 -0.1053  0.2216 -0.6204
34431SOL     OW 6697   4.229   5.524   0.160  0.4542  0.1079 -0.0443
34431SOL    HW1 6698   4.181   5.465   0.102 -0.1916 -1.2636  1.7973
34431SOL    HW2 6699   4.160   5.569   0.210  1.0078  0.6115  0.2692
34432SOL     OW 6700   1.499   5.403   5.249  0.3643  0.0529 -1.0910
34432SOL    HW1 6701   1.588   5.378   5.273  0.1494  1.0349  0.8369
34432SOL    HW2 6702   1.458   5.322   5.219  1.2745 -0.8030 -0.0232
34433SOL     OW 6703   9.519   3.310   6.425 -0.3176  0.0753 -0.0297
34433SOL    HW1 6704   9.511   3.215   6.423  1.3121 -0.1540  2.6847
34433SOL    HW2 6705   9.430   3.341   6.442 -0.5304 -1.0604  0.9767
34434SOL     OW 6706   5.519   2.708   9.958  0.0474 -0.6450  0.5762
34434SOL    HW1 6707   5.495   2.617   9.939 -0.1285 -0.4995  0.0780
34434SOL    HW2 6708   5.438   2.757   9.944  1.0814  0.1359 -3.1187
34435SOL     OW 6709   1.178   0.016   5.181 -0.0438 -0.3464 -0.1861
34435SOL    HW1 6710   1.110   0.033   5.247  1.1614 -1.5377  1.3977
34435SOL    HW2 6711   1.227   0.098   5.176 -0.6573  0.0194 -0.2004
34436SOL     OW 6712   1.743   0.078   1.580  0.4196 -0.0386  0.5338
34436SOL    HW1 6713   1.691   0.155   1.603 -0.0225 -0.2732  0.3205
34436SOL    HW2 6714   1.697   0.005   1.621  0.4876 -0.2700  0.1953
34437SOL     OW 6715  10.434   8.553   8.270  0.0931 -0.2816 -0.0617
34437SOL    HW1 6716  10.442   8.597   8.354  0.2584 -0.9651  0.2899
34437SOL    HW2 6717  10.369   8.484   8.285  1.7339 -1.8308  0.1477
34438SOL     OW 6718   5.206  10.012   0.147 -0.1146 -0.3959 -0.4316
34438SOL    HW1 6719   5.213  10.107   0.140 -0.2183 -0.3751 -0.2569
34438SOL    HW2 6720   5.199   9.995   0.242  2.1542 -0.7321 -0.2958
34439SOL     OW 6721   7.216   7.109   5.732  0.4353 -0.3908 -0.0575
34439SOL    HW1 6722   7.201   7.191   5.779  1.9422 -1.2739  2.0582
34439SOL    HW2 6723   7.144   7.053   5.759  0.6129 -0.4765  0.2501
34440SOL     OW 6724   2.951  10.108   2.751  0.5390  0.1868  0.3641
34440SOL    HW1 6725   2.969  10.144   2.664 -2.3608  1.2757  0.1606
34440SOL    HW2 6726   2.901  10.028   2.734 -0.3389  0.5863  1.0369
34441SOL     OW 6727   8.014   5.021   4.900 -0.0642 -0.2032  0.4114
34441SOL    HW1 6728   7.940   5.015   4.840 -0.0626 -1.7556  0.5478
34441SOL    HW2 6729   8.089   5.039   4.843 -0.0653 -1.6458 -0.0591
34442SOL     OW 6730   8.880   6.049   3.172 -0.1152 -0.5648  0.2188
34442SOL    HW1 6731   8.857   6.141   3.156  1.2617 -0.0474  1.1061
34442SOL    HW2 6732   8.801   6.000   3.150 -1.0426  0.8899  0.2500
34443SOL     OW 6733   0.959   7.749   2.494  0.9333 -0.2871  0.2663
34443SOL    HW1 6734   0.943   7.659   2.521  0.3636 -0.4379 -0.5463
34443SOL    HW2 6735   1.013   7.786   2.564  1.8214 -1.4827  0.2368
34444SOL     OW 6736   1.271   4.424   0.133  0.0123 -0.0021  0.2744
34444SOL    HW1 6737   1.319   4.420   0.216 -0.9588 -0.1839  0.8358
34444SOL    HW2 6738   1.285   4.338   0.094  1.5798  0.5285 -0.3984
34445SOL     OW 6739   0.629   6.717   9.055 -0.1696  0.4478 -0.5696
34445SOL    HW1 6740   0.691   6.770   9.006 -0.6175  1.6689  0.1738
34445SOL    HW2 6741   0.579   6.670   8.988 -0.0064  1.2276 -1.2411
34446SOL     OW 6742   4.281   7.133   8.210  0.2104 -0.6557  0.0370
34446SOL    HW1 6743   4.375   7.116   8.224  0.0192 -1.8078 -0.0778
34446SOL    HW2 6744   4.239   7.048   8.221 -0.7568 -0.2634 -0.5874
34447SOL     OW 6745   3.022   9.239  10.267  0.0872 -0.1146 -0.1659
34447SOL    HW1 6746   3.049   9.247  10.358  0.7839  1.0475 -0.4652
34447SOL    HW2 6747   3.104   9.229  10.219 -0.2448 -0.0920 -0.7389
34448SOL     OW 6748   2.292   7.275   0.455 -0.0216  0.4078 -0.6516
34448SOL    HW1 6749   2.267   7.353   0.505  1.5406  1.5164 -1.5165
34448SOL    HW2 6750   2.317   7.309   0.369 -0.0735 -1.1519 -1.3030
34449SOL     OW 6751   7.197   8.740   3.079  0.1950  0.0206 -0.6707
34449SOL    HW1 6752   7.195   8.816   3.021  1.3876  0.8413  0.3576
34449SOL    HW2 6753   7.290   8.727   3.099  0.1026 -2.2255 -1.4957
34450SOL     OW 6754   6.306   5.433  10.254 -0.1883  0.0722  0.0328
34450SOL    HW1 6755   6.309   5.378  10.176  2.5892  0.3437 -0.1157
34450SOL    HW2 6756   6.297   5.371  10.327  1.6723 -0.5191 -0.2189
34451SOL     OW 6757   8.467   8.809   3.655  0.1167 -0.5866 -1.0750
34451SOL    HW1 6758   8.488   8.867   3.729 -3.0452 -0.1115 -0.4826
34451SOL    HW2 6759   8.516   8.729   3.673  0.9385  0.2315  0.4812
34452SOL     OW 6760   4.427   0.784  10.748 -0.5698  0.3646  0.3070
34452SOL    HW1 6761   4.453   0.803  10.838 -0.6401 -0.2254  0.4591
34452SOL    HW2 6762   4.340   0.745  10.756 -0.4375  0.0047  0.0127
34453SOL     OW 6763   2.774   7.965   5.154 -0.0975 -0.1241  0.4053
34453SOL    HW1 6764   2.698   7.910   5.138  0.2458 -0.5461  0.2213
34453SOL    HW2 6765   2.844   7.925   5.102  0.9711 -1.3495  2.7377
34454SOL     OW 6766   2.572  10.885   6.148 -0.0135  0.4052 -0.4082
34454SOL    HW1 6767   2.497  10.921   6.196 -0.8824  1.2524 -2.3593
34454SOL    HW2 6768   2.596  10.807   6.198 -2.2912  0.0319  0.1699
34455SOL     OW 6769   1.560   0.261   4.608 -0.0440  0.1034  0.0575
34455SOL    HW1 6770   1.568   0.244   4.514 -0.3073  0.0398  0.0464
34455SOL    HW2 6771   1.485   0.208   4.636 -1.0382  1.4471 -0.0281
34456SOL     OW 6772  10.646   7.185  10.899  0.5059  0.1978  0.3585
34456SOL    HW1 6773  10.683   7.273  10.911  0.6477  0.3054 -0.8510
34456SOL    HW2 6774  10.558   7.191  10.936  0.9572  0.5038  1.4014
34457SOL     OW 6775   6.926  10.505   9.292 -0.7354 -0.2088  0.0184
34457SOL    HW1 6776   6.943  10.483   9.200 -1.5324 -0.2233 -0.1260
34457SOL    HW2 6777   6.876  10.431   9.326 -0.2934 -0.2851  0.5135
34458SOL     OW 6778   5.024  10.862   9.417  0.0684 -0.0665  0.3950
34458SOL    HW1 6779   5.077  10.826   9.346  0.4381  0.3760  0.4497
34458SOL    HW2 6780   4.991  10.945   9.383 -3.1432 -1.7638 -0.8307
34459SOL     OW 6781   5.551   6.238   3.313  0.6288  0.1099 -0.1976
34459SOL    HW1 6782   5.620   6.297   3.344  0.0565  2.6790 -3.5403
34459SOL    HW2 6783   5.521   6.277   3.231 -3.5599 -1.9459  0.2167
34460SOL     OW 6784   3.983   8.872   3.041 -0.1519  0.2284 -0.7064
34460SOL    HW1 6785   4.059   8.888   3.096  1.2400 -1.0182 -2.2390
34460SOL    HW2 6786   4.009   8.900   2.954 -1.0534 -1.1925 -1.4646
34461SOL     OW 6787   3.873   3.357  10.943 -0.1180  0.2492  0.3389
34461SOL    HW1 6788   3.780   3.344  10.963  0.7283 -2.3974  3.0891
34461SOL    HW2 6789   3.898   3.435  10.993 -0.4870 -0.0284  0.9606
34462SOL     OW 6790   6.490   1.755   4.862  0.3504  0.2261 -0.0275
34462SOL    HW1 6791   6.409   1.783   4.819  0.6922 -2.6254 -2.7273
34462SOL    HW2 6792   6.560   1.783   4.803  1.1309  0.1145  0.8359
34463SOL     OW 6793   5.744   9.790   3.553  0.6530  0.1969  0.2093
34463SOL    HW1 6794   5.723   9.862   3.613  0.6987  0.0863  0.3577
34463SOL    HW2 6795   5.836   9.805   3.529 -0.3773  2.2993 -2.6655
34464SOL     OW 6796   3.410   0.499  10.155  0.2971 -0.0534 -0.2615
34464SOL    HW1 6797   3.427   0.593  10.151  0.8315 -0.1960 -1.3093
34464SOL    HW2 6798   3.370   0.486  10.241  2.6113  0.7499  0.9718
34465SOL     OW 6799   9.733   5.721   2.883  0.0082  0.2879  0.5422
34465SOL    HW1 6800   9.674   5.677   2.823 -0.8676  1.8056  0.2696
34465SOL    HW2 6801   9.711   5.686   2.969 -1.7439  1.3166  0.5260
34466SOL     OW 6802   8.601   4.240   0.103 -0.3609 -0.2087 -0.1698
34466SOL    HW1 6803   8.689   4.250   0.067 -0.5181 -0.2382 -0.5668
34466SOL    HW2 6804   8.611   4.179   0.176  0.0103  0.0852  0.0237
34467SOL     OW 6805   6.475   9.872   2.734 -0.1152 -0.1288 -0.2996
34467SOL    HW1 6806   6.426   9.841   2.658  1.3554 -4.1663  0.2627
34467SOL    HW2 6807   6.563   9.890   2.701 -0.5329  2.0898 -0.2949
34468SOL     OW 6808   7.856   8.001   8.802  0.1301 -0.3906  1.0378
34468SOL    HW1 6809   7.858   7.909   8.776  0.4271 -0.2567  0.5766
34468SOL    HW2 6810   7.929   8.010   8.863 -0.1251 -0.5430  1.3650
34469SOL     OW 6811   6.508   1.134   6.167 -0.0668 -0.0718  0.0264
34469SOL    HW1 6812   6.585   1.077   6.171 -0.1702 -0.2305 -0.2491
34469SOL    HW2 6813   6.544   1.223   6.164  0.1339 -0.1793 -1.0654
34470SOL     OW 6814   4.093   8.613  10.308  0.4340 -0.4643 -0.4730
34470SOL    HW1 6815   4.035   8.563  10.365  0.0336 -1.1935 -1.5174
34470SOL    HW2 6816   4.049   8.615  10.224  0.4749  1.6007 -0.4787
34471SOL     OW 6817   9.956  10.003   1.200  0.1012 -0.2994  0.0925
34471SOL    HW1 6818   9.984  10.076   1.146 -2.1671  1.0414  0.6777
34471SOL    HW2 6819   9.971  10.032   1.290 -0.2308 -0.8164  0.3183
34472SOL     OW 6820   5.266   7.959   1.803  0.1795  0.4287 -0.2223
34472SOL    HW1 6821   5.271   7.906   1.723 -0.5564  1.6354 -1.0913
34472SOL    HW2 6822   5.174   7.953   1.830  0.5382 -0.4195  0.8634
34473SOL     OW 6823  10.239  10.115  10.392  0.7688  0.6391 -0.3093
34473SOL    HW1 6824  10.318  10.163  10.367 -0.2011  2.0810 -0.7267
34473SOL    HW2 6825  10.201  10.087  10.308  1.1485 -0.5713 -0.0829
34474SOL     OW 6826   2.284   2.591   1.212  0.7642  0.0276 -0.2661
34474SOL    HW1 6827   2.369   2.551   1.193  1.0807  0.4205  0.2931
34474SOL    HW2 6828   2.240   2.526   1.268  1.6827  0.8629  1.4941
34475SOL     OW 6829   1.265   8.682   1.513  0.6733  0.0212  0.3605
34475SOL    HW1 6830   1.193   8.733   1.476 -0.6909 -1.4568  0.9053
34475SOL    HW2 6831   1.334   8.746   1.529 -0.8737  1.6458  0.7318
34476SOL     OW 6832   8.711   4.597   0.060  0.2324  0.0706 -0.1002
34476SOL    HW1 6833   8.691   4.612  -0.033  0.7411  0.2281 -0.1882
34476SOL    HW2 6834   8.735   4.505   0.065  0.8442  0.2174 -0.2464
34477SOL     OW 6835   8.065   7.179   4.662  0.2221  0.4901  0.7116
34477SOL    HW1 6836   8.026   7.205   4.746  1.1296  0.9772  0.9880
34477SOL    HW2 6837   8.049   7.085   4.656  0.8711  0.2949  1.8279
34478SOL     OW 6838   9.619   4.676   2.497  0.1084 -0.0600 -0.1372
34478SOL    HW1 6839   9.575   4.596   2.468 -0.5338  0.5454 -0.8614
34478SOL    HW2 6840   9.709   4.666   2.467  0.3404 -1.0642  0.8615
34479SOL     OW 6841   9.712   3.835  10.716 -0.3604 -0.2112 -0.8532
34479SOL    HW1 6842   9.677   3.759  10.762 -2.6110  0.5854 -1.1783
34479SOL    HW2 6843   9.754   3.799  10.638  1.7158 -1.3939  0.7764
34480SOL     OW 6844   0.857   1.826   4.878 -0.4074  0.2119 -0.6763
34480SOL    HW1 6845   0.798   1.814   4.953 -0.0517 -0.8776 -0.5663
34480SOL    HW2 6846   0.945   1.819   4.916 -0.2249  0.0226 -1.1344
34481SOL     OW 6847   3.178   1.345  10.429  0.0237  0.0606 -0.1183
34481SOL    HW1 6848   3.181   1.300  10.344  1.5797  0.4067 -0.2607
34481SOL    HW2 6849   3.176   1.438  10.408 -2.9265  0.1405  0.1868
34482SOL     OW 6850   1.381  10.313   8.275 -0.5854 -0.1369 -0.0024
34482SOL    HW1 6851   1.308  10.254   8.260 -0.5468  0.0455 -0.9086
34482SOL    HW2 6852   1.412  10.337   8.188  0.4431 -0.0777  0.3647
34483SOL     OW 6853  10.032   9.642  10.050  0.1095 -0.6429 -0.0809
34483SOL    HW1 6854  10.063   9.694   9.976 -0.0760  0.1227  0.3784
34483SOL    HW2 6855  10.084   9.562  10.046  3.4932  1.3647  1.7693
34484SOL     OW 6856   7.154  10.335   0.769  0.1681  0.2027  0.2489
34484SOL    HW1 6857   7.064  10.351   0.798 -0.3275 -0.2082 -0.9990
34484SOL    HW2 6858   7.204  10.407   0.806 -0.6329  0.2912  1.1758
34485SOL     OW 6859   4.521   4.248   3.679 -0.0014 -0.5631 -0.4070
34485SOL    HW1 6860   4.558   4.327   3.718 -0.0939 -0.5964 -0.2530
34485SOL    HW2 6861   4.461   4.214   3.745  0.3003 -0.9540 -0.3292
34486SOL     OW 6862   0.358   1.773   9.101 -0.0094 -0.0463  0.0123
34486SOL    HW1 6863   0.371   1.694   9.154 -0.8590  1.0819  1.9106
34486SOL    HW2 6864   0.444   1.789   9.061  0.4029 -1.4076  0.3114
34487SOL     OW 6865   1.739   0.262   5.530  0.3978 -0.0555 -0.2546
34487SOL    HW1 6866   1.722   0.176   5.569  0.6796 -1.1147 -2.3997
34487SOL    HW2 6867   1.826   0.286   5.563  1.0940 -1.4255 -1.0514
34488SOL     OW 6868   3.253   9.107   2.536 -0.0725  0.1125  0.8040
34488SOL    HW1 6869   3.202   9.153   2.470  0.7191 -1.1420 -0.7221
34488SOL    HW2 6870   3.289   9.177   2.591 -1.0053  1.1646  0.1010
34489SOL     OW 6871   7.719   6.271   0.069  0.7241 -0.2124  0.0030
34489SOL    HW1 6872   7.791   6.213   0.043 -0.4890 -0.9298 -1.8150
34489SOL    HW2 6873   7.645   6.244   0.015 -0.9671  0.4497  1.9220
34490SOL     OW 6874   2.846   5.598   7.784 -0.4100 -0.2064  0.1616
34490SOL    HW1 6875   2.761   5.580   7.824 -0.0819 -1.7506  0.2136
34490SOL    HW2 6876   2.902   5.527   7.815  0.7770  0.5328 -0.2554
34491SOL     OW 6877   0.779  10.482   5.353 -0.0927  0.5333  0.2829
34491SOL    HW1 6878   0.804  10.546   5.286  1.4507 -1.3354 -0.9790
34491SOL    HW2 6879   0.859  10.465   5.402 -0.0857 -1.5251 -0.3700
34492SOL     OW 6880   9.702   0.445   9.318  0.3904 -0.0487  0.2376
34492SOL    HW1 6881   9.623   0.426   9.268  0.2105  0.2386  0.4093
34492SOL    HW2 6882   9.701   0.540   9.330  1.0958  0.0279 -0.3071
34493SOL     OW 6883  10.108   4.566   3.571 -0.0681  0.1231  0.0731
34493SOL    HW1 6884  10.073   4.478   3.557  0.6282 -0.2265  0.5112
34493SOL    HW2 6885  10.201   4.558   3.552  0.0036  0.7612  0.1447
34494SOL     OW 6886   7.479   8.567   3.808 -0.2538 -0.2114 -0.1836
34494SOL    HW1 6887   7.405   8.519   3.845  0.0655  0.7844  1.8198
34494SOL    HW2 6888   7.443   8.611   3.731 -1.6770 -0.0340  0.5602
34495SOL     OW 6889   1.220   3.983   9.372  0.0347 -0.7116 -0.3927
34495SOL    HW1 6890   1.240   3.954   9.461 -0.2932  0.4440  0.0688
34495SOL    HW2 6891   1.304   3.984   9.328  0.3997  0.0178  0.3044
34496SOL     OW 6892   2.377   8.295  10.820  0.0430 -0.2283 -0.1238
34496SOL    HW1 6893   2.338   8.364  10.874  0.9351 -1.7099  2.4699
34496SOL    HW2 6894   2.447   8.340  10.772 -0.3777  0.9787  0.3668
34497SOL     OW 6895   2.412   9.100   5.384 -0.2669  0.1146  0.6866
34497SOL    HW1 6896   2.400   9.130   5.474 -0.9058  3.2314 -0.3760
34497SOL    HW2 6897   2.343   9.144   5.334  1.5040  0.3031 -1.7164
34498SOL     OW 6898   0.611   8.237   6.739  0.3801 -0.1710  0.3231
34498SOL    HW1 6899   0.583   8.329   6.731  0.2783 -0.2813 -0.6793
34498SOL    HW2 6900   0.559   8.190   6.674  1.0520 -0.7972  0.2295
34499SOL     OW 6901   6.238   4.655   4.899 -0.4861  0.1711  0.4415
34499SOL    HW1 6902   6.225   4.645   4.994 -2.2515 -0.3117  0.1738
34499SOL    HW2 6903   6.149   4.661   4.864  0.2022  1.5340 -1.0687
34500SOL     OW 6904   7.966   1.273   8.132 -0.2778  0.1909 -0.0984
34500SOL    HW1 6905   8.059   1.250   8.128  0.1455  1.9436 -0.8549
34500SOL    HW2 6906   7.958   1.324   8.212  0.1222  2.9945 -1.8092
34501SOL     OW 6907   1.776   5.684   0.304  0.1437  0.4266  0.4589
34501SOL    HW1 6908   1.692   5.664   0.345  0.0396  2.1686  1.1232
34501SOL    HW2 6909   1.753   5.708   0.214  0.1109 -0.7824  0.1355
34502SOL     OW 6910   1.697   5.834  10.115 -0.3099 -0.5077 -0.2563
34502SOL    HW1 6911   1.675   5.856  10.206  1.7079 -2.4888  0.7710
34502SOL    HW2 6912   1.757   5.903  10.087 -0.8822  0.0730 -0.0550
34503SOL     OW 6913  10.616  10.772   4.576  0.3386 -0.1052 -0.1027
34503SOL    HW1 6914  10.617  10.684   4.614 -0.7979 -0.4402 -0.8307
34503SOL    HW2 6915  10.661  10.826   4.641 -2.3120 -0.4990  2.1683
34504SOL     OW 6916   1.699   1.825   1.940 -0.3394  0.3368  0.5313
34504SOL    HW1 6917   1.623   1.875   1.969  0.5648  1.0568  1.7053
34504SOL    HW2 6918   1.680   1.735   1.969 -1.6239  0.1043 -0.9336
34505SOL     OW 6919   5.506   2.187   4.038  0.1707 -0.2297 -0.2589
34505SOL    HW1 6920   5.444   2.117   4.057  0.0920  0.3907  1.9104
34505SOL    HW2 6921   5.558   2.195   4.118  1.6514  0.6871 -1.2952
34506SOL     OW 6922   8.931   0.516   5.001  0.4642  0.0202  0.9634
34506SOL    HW1 6923   8.945   0.564   4.919 -2.2796 -1.7746 -0.6661
34506SOL    HW2 6924   9.008   0.460   5.010  0.8759  0.3721 -0.2990
34507SOL     OW 6925   4.060   4.527   6.619  0.2504  0.4551 -0.0405
34507SOL    HW1 6926   4.021   4.540   6.705  0.2935  0.1924  0.0211
34507SOL    HW2 6927   4.149   4.560   6.627  0.4249 -0.0591  0.1731
34508SOL     OW 6928   5.708   3.360   1.316 -0.8356 -0.1079 -0.8095
34508SOL    HW1 6929   5.624   3.388   1.351  0.0270 -0.4382  1.6080
34508SOL    HW2 6930   5.770   3.428   1.346  0.0559 -0.8071 -1.0453
34509SOL     OW 6931   8.468   3.629   2.784 -0.4404 -0.0937 -0.0323
34509SOL    HW1 6932   8.466   3.533   2.776 -1.5977  0.0447 -1.4709
34509SOL    HW2 6933   8.395   3.650   2.842 -1.4007  0.0594 -1.2852
34510SOL     OW 6934   2.901   6.116   5.410  0.5567 -0.2871 -0.0208
34510SOL    HW1 6935   2.841   6.188   5.433 -1.2597 -1.6078 -0.5157
34510SOL    HW2 6936   2.843   6.041   5.396  2.1693 -1.0964 -2.5079
34511SOL     OW 6937   9.575   9.330   6.977 -0.4313 -0.3965 -0.3890
34511SOL    HW1 6938   9.518   9.273   7.028  0.8197 -2.5809 -1.3683
34511SOL    HW2 6939   9.654   9.340   7.032 -0.3672 -0.1528 -0.5234
34512SOL     OW 6940   8.795   0.277   8.206 -0.3711  0.5500 -0.1101
34512SOL    HW1 6941   8.724   0.340   8.221 -1.2548 -0.0120 -1.8347
34512SOL    HW2 6942   8.751   0.193   8.194  0.7071 -0.1168  0.5698
34513SOL     OW 6943  10.677   1.486  10.807  0.1272 -0.0143  0.0134
34513SOL    HW1 6944  10.728   1.437  10.742 -0.3354 -0.2633 -0.1601
34513SOL    HW2 6945  10.661   1.570  10.766 -0.7772 -0.4280 -0.4815
34514SOL     OW 6946   9.330   4.004   0.534 -0.3576  0.0237  0.4290
34514SOL    HW1 6947   9.404   4.009   0.474 -0.3926 -0.8684  0.2984
34514SOL    HW2 6948   9.325   4.091   0.573  0.7623  0.1026  0.4368
34515SOL     OW 6949   4.571   5.637  10.371 -0.4124  0.7792  0.0776
34515SOL    HW1 6950   4.523   5.687  10.437  0.9535  1.5488  0.5078
34515SOL    HW2 6951   4.632   5.582  10.422  0.8540  1.5880 -0.5364
34516SOL     OW 6952   4.295   8.018   5.364  0.5131  0.6739 -0.6052
34516SOL    HW1 6953   4.346   8.060   5.433  0.2339 -0.6068  0.4162
34516SOL    HW2 6954   4.356   7.956   5.324  0.2297  0.2846 -0.4425
34517SOL     OW 6955   9.713   1.048  10.630  0.1296 -0.3347  0.3562
34517SOL    HW1 6956   9.702   1.053  10.725 -0.9201  1.3914  0.1724
34517SOL    HW2 6957   9.691   0.957  10.608 -0.2421 -0.5843  1.6934
34518SOL     OW 6958   8.529   1.107  10.692 -0.0086  0.3239 -0.0885
34518SOL    HW1 6959   8.565   1.048  10.759 -1.8582 -0.6009  0.1189
34518SOL    HW2 6960   8.548   1.195  10.724 -1.3617 -0.0921  1.9525
34519SOL     OW 6961   1.393   2.508   3.127 -0.7304 -0.6866 -0.0543
34519SOL    HW1 6962   1.424   2.589   3.087  1.7133 -1.9641 -0.8331
34519SOL    HW2 6963   1.299   2.523   3.141 -0.4917  1.9397 -0.9476
34520SOL     OW 6964   4.135   8.131   2.771  0.0654  0.0655  0.3453
34520SOL    HW1 6965   4.115   8.224   2.762 -0.3956 -0.1105 -0.5799
34520SOL    HW2 6966   4.229   8.128   2.789 -0.0497  0.7393  1.0617
34521SOL     OW 6967   4.984   7.709   7.500  0.5937 -0.2516 -0.0893
34521SOL    HW1 6968   4.957   7.672   7.415  1.7546  0.4179 -0.7590
34521SOL    HW2 6969   5.033   7.788   7.477 -1.8188  1.7197  1.3283
34522SOL     OW 6970  10.538   9.966   9.202  0.3495  0.0940  0.6561
34522SOL    HW1 6971  10.630   9.945   9.220  0.1759 -1.0742  0.2933
34522SOL    HW2 6972  10.495   9.880   9.198 -0.5859  0.5863 -0.0337
34523SOL     OW 6973   4.743   5.489  10.511 -1.0525  0.0066 -0.8972
34523SOL    HW1 6974   4.764   5.505  10.603 -1.4348  0.7210 -0.9322
34523SOL    HW2 6975   4.822   5.514  10.464 -1.2743  0.7698 -0.8624
34524SOL     OW 6976   7.666   9.087   7.315  0.0667  0.0449 -0.4098
34524SOL    HW1 6977   7.653   9.168   7.364 -1.9361 -1.1559  1.1654
34524SOL    HW2 6978   7.636   9.107   7.226 -0.8888  0.9009  0.0935
34525SOL     OW 6979   1.690   2.144   4.295  0.9091  0.0045  0.0434
34525SOL    HW1 6980   1.711   2.060   4.335  0.5171  0.1226  0.4937
34525SOL    HW2 6981   1.651   2.196   4.365  0.0578  0.1499 -0.5285
34526SOL     OW 6982   2.342   5.152   1.639 -0.3443  0.5693  0.2929
34526SOL    HW1 6983   2.394   5.080   1.602 -2.6808 -0.9344 -0.1453
34526SOL    HW2 6984   2.323   5.209   1.564 -0.2158  0.5813  0.2682
34527SOL     OW 6985   3.264   3.758   9.801 -0.1710  0.0267 -0.1422
34527SOL    HW1 6986   3.275   3.811   9.879 -0.5386 -2.1602  1.4336
34527SOL    HW2 6987   3.348   3.763   9.756  0.2595  0.7479  0.7320
34528SOL     OW 6988   2.733   4.330   6.389  0.2575  0.3363 -0.3939
34528SOL    HW1 6989   2.783   4.411   6.376  0.3140  0.5077  0.7733
34528SOL    HW2 6990   2.642   4.358   6.395  0.3414  0.4097  0.7072
34529SOL     OW 6991   5.849   3.667   2.815  0.0853  0.4858 -0.3911
34529SOL    HW1 6992   5.936   3.673   2.854  0.0103 -0.0024 -0.1340
34529SOL    HW2 6993   5.804   3.746   2.844  0.2821  0.4976 -0.1080
34530SOL     OW 6994   8.161  10.326   2.694  0.4074 -0.0018 -0.3983
34530SOL    HW1 6995   8.180  10.322   2.600  0.1048 -0.7765 -0.4312
34530SOL    HW2 6996   8.238  10.287   2.736  0.7152  0.7101 -0.3005
34531SOL     OW 6997   3.135   1.048   5.765 -0.3225  0.2632  0.2580
34531SOL    HW1 6998   3.216   1.058   5.716 -0.5716 -0.4664 -0.3173
34531SOL    HW2 6999   3.158   0.990   5.838  0.2625  2.0578  1.5430
34532SOL     OW 7000  10.371   3.818   3.049  0.0238  0.0778  0.3897
34532SOL    HW1 7001  10.308   3.837   2.980  1.3117  1.7101 -0.3672
34532SOL    HW2 7002  10.455   3.849   3.015  1.3797 -2.5709  1.1464
34533SOL     OW 7003   7.999   3.653   1.111 -0.4471  0.5742  0.3356
34533SOL    HW1 7004   7.955   3.642   1.026 -3.5626 -1.1084  2.0717
34533SOL    HW2 7005   7.973   3.741   1.140 -0.6973  0.5331  0.2402
34534SOL     OW 7006   0.939   0.331   3.567  0.0887  0.6569 -0.0118
34534SOL    HW1 7007   0.900   0.365   3.648  0.6183  0.0221  0.5148
34534SOL    HW2 7008   1.028   0.366   3.566 -0.0032  0.8842 -0.4577
34535SOL     OW 7009   3.690   4.111   2.675 -0.4933  0.4911  0.0484
34535SOL    HW1 7010   3.638   4.093   2.597 -2.0291 -0.2660  1.2257
34535SOL    HW2 7011   3.776   4.136   2.641 -0.3662 -2.2657 -1.8217
34536SOL     OW 7012   1.745   6.035   5.096  0.2316  0.3100 -0.2776
34536SOL    HW1 7013   1.826   6.066   5.137 -0.4231  0.6435  0.7777
34536SOL    HW2 7014   1.748   5.940   5.108 -0.0687  0.4234  0.7779
34537SOL     OW 7015   7.771  10.567   9.557 -0.1503  0.0080 -0.6285
34537SOL    HW1 7016   7.744  10.600   9.471  0.6424  0.8598 -0.5622
34537SOL    HW2 7017   7.846  10.621   9.581 -0.5843  0.0335  0.7664
34538SOL     OW 7018   7.650   0.327   8.181 -0.0211  0.1684 -0.2750
34538SOL    HW1 7019   7.607   0.407   8.151  0.0144  0.3351  0.1195
34538SOL    HW2 7020   7.731   0.357   8.222  0.3897 -0.1315 -0.8550
34539SOL     OW 7021   6.877   5.464   1.045 -0.1936 -0.1142  0.2224
34539SOL    HW1 7022   6.789   5.430   1.032 -0.5402  0.4215  1.1299
34539SOL    HW2 7023   6.934   5.388   1.036 -0.7643 -0.5025 -0.1449
34540SOL     OW 7024   7.115   6.805   2.313  0.2095 -0.7252 -0.2743
34540SOL    HW1 7025   7.186   6.865   2.289 -0.3411 -0.9567 -2.5545
34540SOL    HW2 7026   7.113   6.741   2.243 -2.8225 -0.2457 -0.6743
34541SOL     OW 7027   0.385   6.447   2.852 -0.2202  0.0502 -0.2105
34541SOL    HW1 7028   0.421   6.431   2.939 -0.5031  0.3313 -0.0403
34541SOL    HW2 7029   0.405   6.367   2.802  0.1822 -0.0002  0.0302
34542SOL     OW 7030   5.504   3.158   9.664 -0.5791  0.1252  0.0187
34542SOL    HW1 7031   5.594   3.127   9.667 -0.4795  0.2724 -1.1737
34542SOL    HW2 7032   5.496   3.203   9.580 -1.9236 -0.4228 -0.1742
34543SOL     OW 7033   0.485   8.088   2.745  0.4084  0.0167  0.1284
34543SOL    HW1 7034   0.471   8.182   2.756  0.9420 -0.1520  2.4430
34543SOL    HW2 7035   0.555   8.082   2.680  0.3262  1.2132 -0.0803
34544SOL     OW 7036   8.861   9.534   8.164  0.5805 -0.2905 -0.2419
34544SOL    HW1 7037   8.843   9.443   8.142 -1.7510 -0.0066  0.3971
34544SOL    HW2 7038   8.792   9.584   8.121  1.4814  1.1432 -0.0812
34545SOL     OW 7039   3.972   8.449   0.484 -0.1997  0.3029  0.2653
34545SOL    HW1 7040   4.049   8.437   0.540 -0.2070 -0.7592  0.0573
34545SOL    HW2 7041   4.008   8.463   0.396 -0.2273  0.6637  0.3087
34546SOL     OW 7042   4.106   5.624   3.652 -0.4883 -0.1441 -0.3896
34546SOL    HW1 7043   4.113   5.714   3.619 -0.2783 -0.2761 -0.7128
34546SOL    HW2 7044   4.104   5.633   3.747  2.7279  0.0330 -0.2697
34547SOL     OW 7045   3.165   5.517   2.900 -0.1614  0.1489  0.4199
34547SOL    HW1 7046   3.232   5.585   2.909  0.0711 -0.0347  0.1077
34547SOL    HW2 7047   3.091   5.550   2.950 -0.6039  1.3563 -0.9681
34548SOL     OW 7048  10.701   9.463   6.650 -0.1194 -0.3464 -0.0393
34548SOL    HW1 7049  10.610   9.467   6.620 -0.1150 -0.7316 -0.1082
34548SOL    HW2 7050  10.743   9.540   6.612 -0.6692  0.3971  0.8343
34549SOL     OW 7051   2.130   3.207   1.629 -0.1991 -0.0839 -0.9827
34549SOL    HW1 7052   2.141   3.130   1.574 -3.0033  0.4498 -2.3859
34549SOL    HW2 7053   2.036   3.212   1.646  0.3557  0.9599  2.1743
34550SOL     OW 7054  10.858   2.891   4.391 -0.2093  0.6242  0.2435
34550SOL    HW1 7055  10.920   2.818   4.393  2.3485  2.7221  0.3747
34550SOL    HW2 7056  10.853   2.915   4.298 -0.3767  0.8055  0.2996
34551SOL     OW 7057   1.221   1.531   4.025 -0.5411 -0.3008  0.3898
34551SOL    HW1 7058   1.232   1.616   3.983 -0.2799  0.8616  2.6923
34551SOL    HW2 7059   1.126   1.515   4.021 -0.6400  0.2934  0.2908
34552SOL     OW 7060   6.988   2.787   7.157  0.5440  0.5336 -0.1263
34552SOL    HW1 7061   6.981   2.770   7.251 -2.1635 -0.5748 -0.4798
34552SOL    HW2 7062   7.081   2.809   7.143  0.6272  2.4462  3.0459
34553SOL     OW 7063   1.198   7.483   0.876  0.0416 -0.2431  0.0839
34553SOL    HW1 7064   1.237   7.499   0.790  2.1697 -0.0283  1.0360
34553SOL    HW2 7065   1.248   7.409   0.911 -0.0747  0.3713  1.5720
34554SOL     OW 7066   6.953   3.462   0.199  0.5912  0.5156  0.1902
34554SOL    HW1 7067   6.987   3.549   0.218  1.4763  0.0700  0.6551
34554SOL    HW2 7068   6.964   3.413   0.280  0.6340 -0.2030 -0.2411
34555SOL     OW 7069   2.047   8.982  10.000  0.3576  0.1342  0.2756
34555SOL    HW1 7070   2.029   8.930   9.922 -1.0527 -0.0633  0.7262
34555SOL    HW2 7071   1.972   9.040  10.008  0.9190  0.7683  0.9828
34556SOL     OW 7072   5.378   5.851   9.352 -0.5973  0.1468  0.0766
34556SOL    HW1 7073   5.338   5.867   9.267  1.2352 -2.3654 -1.3202
34556SOL    HW2 7074   5.425   5.933   9.372 -0.4990  0.5252 -1.6333
34557SOL     OW 7075   7.838   9.576   8.353 -0.2552  0.3150  0.2867
34557SOL    HW1 7076   7.793   9.549   8.433  1.2824 -0.6176  0.8669
34557SOL    HW2 7077   7.923   9.609   8.384  0.3594 -0.0756 -0.9525
34558SOL     OW 7078   8.672   2.969   1.013 -0.0385  0.0197  0.2538
34558SOL    HW1 7079   8.653   2.936   0.925 -0.3646  1.4422 -0.2276
34558SOL    HW2 7080   8.708   3.057   0.998 -0.8683  0.5991  1.5742
34559SOL     OW 7081   1.513   1.057  10.784  0.5280 -0.1585  0.4794
34559SOL    HW1 7082   1.494   1.119  10.854  0.0383 -1.1630  1.2493
34559SOL    HW2 7083   1.468   1.092  10.708  0.6534  0.6839  0.7902
34560SOL     OW 7084   8.093  10.254   8.672  0.1933 -0.0125  0.3071
34560SOL    HW1 7085   8.008  10.230   8.637 -0.1705  0.0941  1.1127
34560SOL    HW2 7086   8.104  10.346   8.649  0.4279 -0.2323 -0.4649
34561SOL     OW 7087  10.960   7.463   2.258 -0.2783 -0.0274  0.2072
34561SOL    HW1 7088  10.931   7.372   2.261 -0.3056 -0.0250  0.0240
34561SOL    HW2 7089  11.046   7.460   2.216 -0.2081  0.0131  0.3489
34562SOL     OW 7090   6.325   2.908   4.339 -0.0969 -0.1275  0.2959
34562SOL    HW1 7091   6.416   2.913   4.308  0.4390 -1.5623  1.5814
34562SOL    HW2 7092   6.273   2.939   4.265  1.3256 -1.2311 -1.2118
34563SOL     OW 7093   2.744   8.515   3.620  0.0447  0.2374  0.0116
34563SOL    HW1 7094   2.817   8.577   3.622 -0.4787  0.9555 -1.7782
34563SOL    HW2 7095   2.764   8.457   3.547 -0.5814 -0.3253  0.2853
34564SOL     OW 7096   6.960   8.668   5.986  0.5625  0.3571  0.0256
34564SOL    HW1 7097   7.038   8.703   5.942  1.3699  0.8930  1.8239
34564SOL    HW2 7098   6.914   8.618   5.918  2.4860  0.0178 -1.0578
34565SOL     OW 7099   6.674   6.154   9.119 -0.2962  0.5964 -0.1299
34565SOL    HW1 7100   6.766   6.172   9.100 -0.1860 -0.6067 -0.7744
34565SOL    HW2 7101   6.657   6.201   9.201  0.6173  1.6216 -0.5111
34566SOL     OW 7102   9.817   1.135   2.337  0.2039 -0.2136 -0.6306
34566SOL    HW1 7103   9.899   1.102   2.374  0.6049  0.1165 -1.2149
34566SOL    HW2 7104   9.839   1.222   2.303 -0.4865  0.0366 -0.4422
34567SOL     OW 7105   2.772  10.513   9.366  0.1513  0.0057  0.5139
34567SOL    HW1 7106   2.677  10.516   9.371  0.0260 -0.0596 -1.3687
34567SOL    HW2 7107   2.800  10.604   9.373 -0.2345  0.3119 -1.6375
34568SOL     OW 7108   1.648   9.044   6.600 -0.0393  0.6536 -0.5436
34568SOL    HW1 7109   1.566   9.037   6.648  0.0889  0.0783 -0.4084
34568SOL    HW2 7110   1.636   8.990   6.522  1.6523 -2.8353  1.4811
34569SOL     OW 7111   8.660   8.859   4.176 -0.3809 -0.0208 -0.2612
34569SOL    HW1 7112   8.607   8.938   4.182  0.5535  0.7292 -1.6228
34569SOL    HW2 7113   8.741   8.880   4.224 -0.4386 -0.4153  0.0142
34570SOL     OW 7114   5.500   6.467   5.392 -0.6846  0.1583  0.5630
34570SOL    HW1 7115   5.571   6.434   5.338  0.7407  1.2330  1.7319
34570SOL    HW2 7116   5.420   6.444   5.344  0.4707 -0.4205 -1.1195
34571SOL     OW 7117   3.952   5.981   1.305 -0.0696  0.1270 -0.1514
34571SOL    HW1 7118   3.984   5.952   1.391  0.6223  1.1225 -0.0695
34571SOL    HW2 7119   4.012   5.941   1.242  0.0706  0.2677 -0.1087
34572SOL     OW 7120   5.811   0.057   4.196 -0.3495 -0.6701 -0.0979
34572SOL    HW1 7121   5.754   0.074   4.121 -0.4598 -0.6967 -0.0196
34572SOL    HW2 7122   5.838  -0.034   4.186 -0.2334 -0.6247 -0.1944
34573SOL     OW 7123   5.080   3.020   8.047  0.1378 -0.0552 -0.4005
34573SOL    HW1 7124   5.031   3.061   7.976 -1.4328 -1.9018 -0.4199
34573SOL    HW2 7125   5.156   2.980   8.005  0.3940  0.7614 -0.7168
34574SOL     OW 7126   1.109   6.331   4.840 -0.0712 -0.2523 -0.1763
34574SOL    HW1 7127   1.150   6.255   4.798 -0.3215 -0.7087  0.3962
34574SOL    HW2 7128   1.157   6.343   4.921  0.7173  0.9257 -0.8117
34575SOL     OW 7129   0.873   4.002   3.284 -0.1486 -0.2951  0.5002
34575SOL    HW1 7130   0.863   3.991   3.379 -1.9498  2.1918  0.6585
34575SOL    HW2 7131   0.813   3.939   3.246 -0.1008 -0.6758  1.0462
34576SOL     OW 7132   0.611   9.319   0.749  0.2138 -0.4359 -0.0515
34576SOL    HW1 7133   0.530   9.333   0.700  0.3982  0.0930 -0.2087
34576SOL    HW2 7134   0.678   9.368   0.700  0.4063  0.0761  0.7014
34577SOL     OW 7135   2.570   4.231  10.941 -0.7428  0.4846 -0.1202
34577SOL    HW1 7136   2.577   4.293  11.013 -0.4033  1.3076 -0.8427
34577SOL    HW2 7137   2.658   4.194  10.933 -0.5868  0.9426 -0.5783
34578SOL     OW 7138   8.632   5.833   7.432 -0.3895  0.2461  0.1403
34578SOL    HW1 7139   8.675   5.812   7.349 -0.6698  1.0482 -0.2133
34578SOL    HW2 7140   8.628   5.750   7.479 -0.6181 -0.2951 -0.8332
34579SOL     OW 7141   1.133   2.063  10.408  0.2033 -0.2243 -0.6106
34579SOL    HW1 7142   1.147   1.972  10.381  0.7721 -0.3137 -0.0420
34579SOL    HW2 7143   1.152   2.114  10.329 -1.5229 -0.6730 -1.3342
34580SOL     OW 7144   9.428   3.783   4.368 -0.1378  0.2904 -0.0163
34580SOL    HW1 7145   9.474   3.856   4.327  1.6927 -0.9503 -0.1863
34580SOL    HW2 7146   9.497   3.728   4.404 -1.5132 -1.3295  0.1696
34581SOL     OW 7147  10.314   8.872   0.790  0.2359  0.3160  0.3309
34581SOL    HW1 7148  10.357   8.894   0.872 -0.2830 -0.5706  0.8388
34581SOL    HW2 7149  10.386   8.869   0.726  0.5636  1.5954  0.6125
34582SOL     OW 7150   4.070   0.240   5.481  0.0296 -0.5481  0.6894
34582SOL    HW1 7151   4.141   0.274   5.535  0.2321 -0.5487  0.4259
34582SOL    HW2 7152   4.037   0.165   5.531 -0.6721  0.2563  1.4491
34583SOL     OW 7153   7.937   5.693   8.116  0.4676  0.4365 -0.0263
34583SOL    HW1 7154   7.985   5.732   8.190 -2.6103  3.5185  0.4750
34583SOL    HW2 7155   7.849   5.675   8.151  0.1074 -1.7150 -1.8956
34584SOL     OW 7156   8.330   2.781   4.064 -0.9940 -0.2773 -0.2929
34584SOL    HW1 7157   8.237   2.773   4.040 -0.4290  0.8218 -3.0434
34584SOL    HW2 7158   8.357   2.864   4.025  1.8847 -2.0063 -2.1242
34585SOL     OW 7159   7.572   7.557   0.482 -0.2055  0.0844 -0.1835
34585SOL    HW1 7160   7.494   7.528   0.435 -0.4096  1.2415 -0.5927
34585SOL    HW2 7161   7.542   7.632   0.533  1.1319  2.0771 -2.2189
34586SOL     OW 7162   9.154   7.156   6.434  0.2467  0.5017 -0.0187
34586SOL    HW1 7163   9.150   7.095   6.360 -0.6558 -0.1511  0.5630
34586SOL    HW2 7164   9.062   7.177   6.453  0.5173  1.4692  0.2670
34587SOL     OW 7165   9.482   6.243   2.221  0.4331  0.0905 -0.0792
34587SOL    HW1 7166   9.409   6.182   2.207 -0.8603  1.1900  1.8286
34587SOL    HW2 7167   9.539   6.229   2.145 -0.1789 -3.0073 -0.0327
34588SOL     OW 7168   0.539   6.206   0.631 -0.1873 -0.0652  0.4703
34588SOL    HW1 7169   0.634   6.192   0.638 -0.0935  0.1442 -0.3424
34588SOL    HW2 7170   0.521   6.202   0.537 -0.8009  1.0629  0.5280
34589SOL     OW 7171   7.588   1.936   7.362  0.5407  0.5600  0.3786
34589SOL    HW1 7172   7.666   1.914   7.414  0.0248  1.7849  1.7041
34589SOL    HW2 7173   7.545   1.852   7.347  2.1270 -0.1417 -0.4048
34590SOL     OW 7174   0.105   2.235  10.764 -0.0395 -0.5327 -0.5781
34590SOL    HW1 7175   0.160   2.264  10.837 -0.9156  0.6088 -0.3471
34590SOL    HW2 7176   0.162   2.238  10.688  0.8809 -1.7151  0.0600
34591SOL     OW 7177  10.102   4.359   7.699  0.4148 -0.3255  0.1709
34591SOL    HW1 7178  10.150   4.439   7.721 -1.1827  0.6929  0.0706
34591SOL    HW2 7179  10.100   4.358   7.603 -0.2968  0.0027  0.1708
34592SOL     OW 7180   0.893   0.492   7.510  0.1912 -0.5202  0.2558
34592SOL    HW1 7181   0.952   0.443   7.567  2.7412 -0.6781 -2.4131
34592SOL    HW2 7182   0.951   0.542   7.452 -2.3126  1.0968 -0.9628
34593SOL     OW 7183   0.621   7.377   0.496 -0.2809  0.5159  0.2458
34593SOL    HW1 7184   0.673   7.342   0.568  0.5578 -1.8420 -1.4712
34593SOL    HW2 7185   0.530   7.364   0.523  0.0259 -1.8385  0.1923
34594SOL     OW 7186   2.255   5.140   0.945 -0.6769 -0.3222  1.0107
34594SOL    HW1 7187   2.332   5.173   0.899  0.5665 -0.8893  2.6709
34594SOL    HW2 7188   2.275   5.049   0.964 -2.6034 -1.0618 -0.3171
34595SOL     OW 7189  10.668   7.374   3.120 -0.0291 -0.3349  0.4003
34595SOL    HW1 7190  10.639   7.455   3.161 -1.0055 -1.2023  1.4562
34595SOL    HW2 7191  10.668   7.393   3.026  0.8979  1.2448  0.7089
34596SOL     OW 7192   6.399   8.208   4.190  0.2571 -0.6155  0.0819
34596SOL    HW1 7193   6.361   8.235   4.274  0.2000  0.1863 -0.1918
34596SOL    HW2 7194   6.479   8.162   4.213 -0.2626 -1.2513  0.6178
34597SOL     OW 7195   2.678   7.176   2.461 -0.6903  0.1084 -0.5080
34597SOL    HW1 7196   2.599   7.174   2.515 -1.7402 -1.0891 -2.0368
34597SOL    HW2 7197   2.723   7.256   2.488 -1.0854 -0.5391  2.2495
34598SOL     OW 7198   2.145   0.219   2.707  0.4935  0.1638 -1.0843
34598SOL    HW1 7199   2.152   0.292   2.769  0.8548  0.6203 -1.6486
34598SOL    HW2 7200   2.204   0.243   2.635  0.5972 -0.6796 -1.2873
34599SOL     OW 7201   8.383   4.193  10.925  0.0428 -0.0508 -0.0817
34599SOL    HW1 7202   8.430   4.182  10.843 -0.2533  1.3310 -0.4475
34599SOL    HW2 7203   8.452   4.203  10.991  0.2735  0.0618 -0.3415
34600SOL     OW 7204   2.088   9.813   4.819 -0.0273 -0.7019 -0.6218
34600SOL    HW1 7205   2.174   9.851   4.797 -0.1833  0.4088  0.5638
34600SOL    HW2 7206   2.029   9.847   4.752  0.3100 -0.8006 -0.9696
34601SOL     OW 7207   0.916  10.218  10.945  0.2449  0.3116  0.3378
34601SOL    HW1 7208   0.921  10.219  10.849 -1.4194 -0.8725  0.2388
34601SOL    HW2 7209   0.893  10.128  10.968 -0.0747  0.7582  1.8224
34602SOL     OW 7210   2.375   9.301   2.568 -0.5614 -0.6456  0.3659
34602SOL    HW1 7211   2.287   9.340   2.563 -0.2832  0.1724  1.4334
34602SOL    HW2 7212   2.363   9.210   2.541 -1.3677 -0.0065 -1.4660
34603SOL     OW 7213   6.074   3.403  10.380 -0.6061  0.6998 -0.3070
34603SOL    HW1 7214   6.083   3.486  10.334 -0.2147  0.0307 -1.4379
34603SOL    HW2 7215   5.999   3.417  10.439 -0.9524  1.6419 -0.9521
34604SOL     OW 7216   7.657   5.629   8.154 -0.4611  0.2329  0.3900
34604SOL    HW1 7217   7.619   5.556   8.203  1.1577 -1.1286 -0.3360
34604SOL    HW2 7218   7.632   5.612   8.063  0.7047  0.0735  0.0960
34605SOL     OW 7219   4.829   1.285   4.447  0.3527 -0.6969 -0.5297
34605SOL    HW1 7220   4.872   1.370   4.435  2.6109 -1.8996 -1.2378
34605SOL    HW2 7221   4.801   1.259   4.359 -0.5939 -0.5462 -0.2719
34606SOL     OW 7222   8.544   4.347   7.639 -0.0971 -0.3379  0.2752
34606SOL    HW1 7223   8.593   4.306   7.567  1.2144  2.4083 -0.4498
34606SOL    HW2 7224   8.458   4.365   7.601 -0.0952 -0.7900  0.0452
34607SOL     OW 7225  10.378  10.697   8.360  0.0643 -0.8344 -0.0452
34607SOL    HW1 7226  10.329  10.619   8.334 -1.2075  0.3197 -1.1328
34607SOL    HW2 7227  10.333  10.728   8.438  0.0492 -0.6931 -0.1118
34608SOL     OW 7228   7.521   5.479   3.202 -0.0090 -0.2474 -0.0214
34608SOL    HW1 7229   7.520   5.557   3.146  1.0791 -0.0290  0.2631
34608SOL    HW2 7230   7.568   5.413   3.151  1.3419  0.0761  0.7970
34609SOL     OW 7231   8.375   0.627   1.706 -0.1512  0.7080 -0.5067
34609SOL    HW1 7232   8.439   0.633   1.635 -0.0472 -0.3647 -0.5191
34609SOL    HW2 7233   8.359   0.717   1.732  1.0414  1.0107 -0.8028
34610SOL     OW 7234   1.751   2.395   8.819  0.5881 -0.1716 -0.4776
34610SOL    HW1 7235   1.788   2.310   8.795  0.9625  0.1770 -1.1504
34610SOL    HW2 7236   1.818   2.435   8.874  1.5675  0.7616 -2.2867
34611SOL     OW 7237  10.345   8.886   9.910 -0.2396 -0.2200  0.4634
34611SOL    HW1 7238  10.370   8.851   9.825 -1.3322 -1.9913  0.8290
34611SOL    HW2 7239  10.427   8.903   9.955  0.3280 -1.9155  0.0834
34612SOL     OW 7240   1.865   7.732   3.244  0.5019  0.3282 -0.1703
34612SOL    HW1 7241   1.868   7.747   3.150 -0.7844 -0.3931 -0.3342
34612SOL    HW2 7242   1.943   7.680   3.263  0.1996 -0.4381 -1.0117
34613SOL     OW 7243   5.475   3.506   7.034  0.0836 -0.1609 -0.0042
34613SOL    HW1 7244   5.392   3.554   7.035 -0.3428 -0.8557  2.9556
34613SOL    HW2 7245   5.519   3.535   6.954 -2.0976  1.7714 -0.5579
34614SOL     OW 7246   8.040  10.334  10.059  0.3428  0.4636  0.1711
34614SOL    HW1 7247   7.980  10.315  10.132 -0.4059  2.5159  0.1171
34614SOL    HW2 7248   7.991  10.310   9.981  1.2444 -1.9981  0.3104
34615SOL     OW 7249   5.914   0.247   2.872  0.0923  0.0391  0.9011
34615SOL    HW1 7250   5.997   0.284   2.841 -1.2531  2.1523 -0.3136
34615SOL    HW2 7251   5.851   0.270   2.804 -1.2209 -2.8189  1.1052
34616SOL     OW 7252   7.840   5.289   8.343  0.4547 -0.2302  0.1906
34616SOL    HW1 7253   7.787   5.220   8.383  0.7893  0.2508  1.5092
34616SOL    HW2 7254   7.853   5.353   8.414 -0.1426  1.3562 -1.0908
34617SOL     OW 7255   3.893   3.932   6.865  0.2665 -0.0723 -0.0623
34617SOL    HW1 7256   3.867   3.970   6.949 -2.2222  0.4996 -1.0572
34617SOL    HW2 7257   3.958   3.866   6.888 -0.5898 -0.1413  2.3457
34618SOL     OW 7258   8.225   7.956   5.265 -0.3136  0.0676 -0.3256
34618SOL    HW1 7259   8.314   7.935   5.294 -0.9266 -0.8889  0.8764
34618SOL    HW2 7260   8.183   7.871   5.252 -0.7769  0.5072 -1.7949
34619SOL     OW 7261   8.969   6.902   8.335 -0.1318  0.2885 -0.1222
34619SOL    HW1 7262   8.958   6.837   8.266 -0.6445  1.9451 -1.6575
34619SOL    HW2 7263   9.031   6.965   8.298 -1.4264  1.9000  0.3708
34620SOL     OW 7264   7.528   9.527   4.211 -0.0678 -0.9849  0.0697
34620SOL    HW1 7265   7.577   9.585   4.269 -1.5161  2.3988 -1.8963
34620SOL    HW2 7266   7.577   9.527   4.129 -1.5695 -0.1442 -0.8695
34621SOL     OW 7267   8.132  10.910   2.848 -0.1610  0.1324 -0.9869
34621SOL    HW1 7268   8.195  10.969   2.807  1.1752 -0.8156 -0.3322
34621SOL    HW2 7269   8.054  10.964   2.860  0.5703  1.3793 -1.6522
34622SOL     OW 7270   9.756   4.518   8.938  0.1364  0.6082  0.3664
34622SOL    HW1 7271   9.811   4.458   8.989  0.1961 -0.0233 -0.4344
34622SOL    HW2 7272   9.702   4.461   8.883  0.1025  1.2792 -0.3086
34623SOL     OW 7273   1.189   0.431   2.331 -1.0401 -0.6392 -0.0776
34623SOL    HW1 7274   1.253   0.386   2.385  0.2754 -1.5019 -2.3022
34623SOL    HW2 7275   1.131   0.362   2.299 -2.5771  0.0250  1.1999
34624SOL     OW 7276   3.907   2.399   3.332  0.1931 -1.0576  0.2426
34624SOL    HW1 7277   3.883   2.353   3.412  0.5054  0.2749  1.1127
34624SOL    HW2 7278   3.824   2.419   3.290  0.0317 -1.7943  0.2031
34625SOL     OW 7279   4.779   1.780   7.549  0.1533  0.6203  0.3638
34625SOL    HW1 7280   4.843   1.794   7.478  0.7062 -0.1610  0.7010
34625SOL    HW2 7281   4.821   1.715   7.605 -1.3187 -0.5379  0.1322
34626SOL     OW 7282  10.447   5.234   7.369 -0.1260  0.1049  0.0058
34626SOL    HW1 7283  10.496   5.315   7.357  0.6814 -0.1132  1.7428
34626SOL    HW2 7284  10.403   5.244   7.454  1.2153 -1.8810  0.9771
34627SOL     OW 7285   2.849   6.810   1.199 -0.1506  0.5366 -0.4222
34627SOL    HW1 7286   2.782   6.742   1.196  0.9143 -0.5487 -0.0396
34627SOL    HW2 7287   2.841   6.847   1.286  2.8730 -2.8562  1.4135
34628SOL     OW 7288   8.623   6.785   9.508  0.0862 -0.5149 -0.7614
34628SOL    HW1 7289   8.587   6.869   9.536  0.1467 -0.7441  0.0054
34628SOL    HW2 7290   8.549   6.739   9.468  0.4176  0.5432 -2.6533
34629SOL     OW 7291   8.944   9.596   7.129  0.0861  0.4027 -0.4361
34629SOL    HW1 7292   9.008   9.665   7.142  1.2943 -0.7069 -0.4163
34629SOL    HW2 7293   8.861   9.635   7.157  1.0481  1.2408  1.3084
34630SOL     OW 7294  10.475   9.170  10.076  0.1420  0.4188  0.3196
34630SOL    HW1 7295  10.426   9.153  10.157  0.9476 -1.2980  0.4728
34630SOL    HW2 7296  10.521   9.088  10.059  3.5585  2.1948  0.5833
34631SOL     OW 7297   5.621  10.938   3.390 -0.7266  0.2926 -0.3944
34631SOL    HW1 7298   5.686  10.879   3.353 -0.1085  0.7489 -0.0418
34631SOL    HW2 7299   5.633  10.931   3.484 -0.3057  1.3768 -0.3673
34632SOL     OW 7300   7.334   4.409   5.960 -0.3242  0.2053  0.0566
34632SOL    HW1 7301   7.382   4.384   5.880  1.4799  1.3727  0.7358
34632SOL    HW2 7302   7.389   4.476   6.000 -1.5586  0.1102  1.9396
34633SOL     OW 7303   0.891   7.699  10.555 -0.1100  0.4918  0.0367
34633SOL    HW1 7304   0.887   7.655  10.640  3.0299  0.2691  0.1293
34633SOL    HW2 7305   0.851   7.638  10.494  0.8675 -0.9139  0.7861
34634SOL     OW 7306  10.713   7.554   0.485  0.3423 -1.0027 -0.0544
34634SOL    HW1 7307  10.797   7.523   0.452  1.6453  1.4530  0.8566
34634SOL    HW2 7308  10.653   7.547   0.411  1.6343 -1.6462 -1.0520
34635SOL     OW 7309   9.825   5.922   8.483 -0.0006  0.2541 -0.0707
34635SOL    HW1 7310   9.743   5.914   8.434 -0.2178 -1.1246  0.4921
34635SOL    HW2 7311   9.891   5.940   8.416 -0.4896 -0.3374 -0.7236
34636SOL     OW 7312   5.595   4.982   4.886  0.2897 -0.2701  0.0843
34636SOL    HW1 7313   5.516   4.986   4.940  0.7388  2.0932  0.6148
34636SOL    HW2 7314   5.569   5.018   4.801  1.2280  2.3412  0.8563
34637SOL     OW 7315   5.781   4.200   7.866  0.2435 -0.2513 -0.5003
34637SOL    HW1 7316   5.875   4.207   7.879  0.2354  0.4780 -0.8322
34637SOL    HW2 7317   5.750   4.291   7.860 -0.3026 -0.4993 -1.6171
34638SOL     OW 7318   2.836   1.750   1.805 -0.1024 -0.4095  0.4648
34638SOL    HW1 7319   2.911   1.728   1.751  0.6706  0.7821  1.0323
34638SOL    HW2 7320   2.871   1.757   1.894 -0.6706  1.0826  0.6033
34639SOL     OW 7321   8.177   8.300   7.667 -0.2646  0.4598  0.5256
34639SOL    HW1 7322   8.171   8.209   7.636 -0.4081  0.0311  1.7655
34639SOL    HW2 7323   8.240   8.341   7.608  0.1144 -0.5560  0.1947
34640SOL     OW 7324   2.144   3.452   7.279  0.4081  0.0553 -0.1338
34640SOL    HW1 7325   2.103   3.529   7.241  0.2185 -0.1548 -0.3544
34640SOL    HW2 7326   2.156   3.392   7.206 -1.8424 -1.1790  0.4683
34641SOL     OW 7327   2.656  10.524   5.335 -0.4745 -0.2037  0.1173
34641SOL    HW1 7328   2.729  10.576   5.369  0.4237 -1.6991  0.5210
34641SOL    HW2 7329   2.616  10.486   5.413 -0.2122 -1.3056 -0.2856
34642SOL     OW 7330   4.269   2.678   4.284  0.7621 -0.1867 -0.4867
34642SOL    HW1 7331   4.177   2.666   4.259  0.4665  1.5571 -0.3656
34642SOL    HW2 7332   4.276   2.773   4.300  2.6118 -0.3002 -0.6050
34643SOL     OW 7333   6.251   4.079   0.424  0.3851 -0.4461  0.1321
34643SOL    HW1 7334   6.169   4.127   0.413 -1.1089 -2.4510  1.9313
34643SOL    HW2 7335   6.250   4.013   0.355  0.7781 -0.1005 -0.2067
34644SOL     OW 7336  10.843   2.618   2.897  0.0368 -0.9470  0.4533
34644SOL    HW1 7337  10.842   2.536   2.847  1.6368  0.5312 -2.1535
34644SOL    HW2 7338  10.760   2.660   2.874  0.2508 -0.8025 -0.0767
34645SOL     OW 7339   8.892   9.912   6.146 -0.0826 -0.0097  0.2743
34645SOL    HW1 7340   8.890   9.997   6.102 -0.6326 -0.0357  0.2363
34645SOL    HW2 7341   8.930   9.931   6.232 -0.7554  0.3914  0.4945
34646SOL     OW 7342   3.590   0.673   5.247 -0.0699 -0.2467  0.5326
34646SOL    HW1 7343   3.663   0.615   5.227  0.8169  0.9782  0.1733
34646SOL    HW2 7344   3.630   0.756   5.269 -1.2838 -0.0813  2.2276
34647SOL     OW 7345   5.623   3.282   3.748 -0.2083  0.7355 -0.2090
34647SOL    HW1 7346   5.581   3.353   3.699  0.0088  1.4531  0.6282
34647SOL    HW2 7347   5.717   3.295   3.733 -0.2352 -0.3312 -1.3442
34648SOL     OW 7348   3.948   8.760   6.142 -0.1154  0.3357 -0.9178
34648SOL    HW1 7349   3.928   8.853   6.148  0.2447  0.3201  0.6334
34648SOL    HW2 7350   4.004   8.752   6.065  1.9695  1.7697  0.4123
34649SOL     OW 7351   3.661   9.332   3.959 -0.0473  0.8431 -0.4299
34649SOL    HW1 7352   3.579   9.382   3.958 -0.3487  0.3503 -1.6741
34649SOL    HW2 7353   3.637   9.248   3.920  1.2075  0.9494 -1.4381
34650SOL     OW 7354  10.372   4.137   2.094  0.8302  0.4513  0.3795
34650SOL    HW1 7355  10.436   4.149   2.164  2.1089 -1.7835 -0.3358
34650SOL    HW2 7356  10.287   4.142   2.138  1.5853 -0.0856  1.9457
34651SOL     OW 7357   0.514   1.676  10.512  0.1221  0.0300  0.2910
34651SOL    HW1 7358   0.545   1.631  10.590  0.1928  0.2122  0.3678
34651SOL    HW2 7359   0.489   1.763  10.543  0.0009  0.0493  0.1405
34652SOL     OW 7360   3.631   6.192   2.613  0.4017  0.0091  1.2300
34652SOL    HW1 7361   3.636   6.129   2.685  0.5634  0.3356  1.5040
34652SOL    HW2 7362   3.603   6.140   2.538  0.4918 -0.3826  1.4663
34653SOL     OW 7363   9.969   7.648   8.699  0.0221  0.5060  0.0917
34653SOL    HW1 7364   9.950   7.560   8.733 -1.2438  1.2896  1.4819
34653SOL    HW2 7365   9.912   7.656   8.622  1.0166 -0.3219 -0.7445
34654SOL     OW 7366   9.908  10.840   1.224 -0.0511 -0.5612  0.0702
34654SOL    HW1 7367   9.983  10.899   1.228 -0.0106 -0.2915 -3.2728
34654SOL    HW2 7368   9.832  10.898   1.227 -0.0534 -0.5282 -0.5556
34655SOL     OW 7369  10.330  10.040   1.381  0.2992  0.3173  0.0838
34655SOL    HW1 7370  10.372   9.957   1.403  0.3231 -0.0026 -1.1406
34655SOL    HW2 7371  10.370  10.066   1.298  0.3152  1.5722  0.4764
34656SOL     OW 7372   6.664   7.844   2.858 -0.5198  1.1009 -0.1359
34656SOL    HW1 7373   6.618   7.777   2.909  0.5009 -1.0262 -1.9268
34656SOL    HW2 7374   6.619   7.846   2.774  0.8798  1.0203 -0.9070
34657SOL     OW 7375  10.780  10.080  10.920  0.2631 -0.5283  0.8049
34657SOL    HW1 7376  10.776  10.043  11.009  1.4771  1.1286  1.5825
34657SOL    HW2 7377  10.873  10.098  10.906 -0.2773  2.2927  0.5294
34658SOL     OW 7378   1.168  10.428   6.130 -0.6038 -0.2612  0.4560
34658SOL    HW1 7379   1.244  10.400   6.181  3.0467  1.9795 -3.4584
34658SOL    HW2 7380   1.153  10.518   6.158 -1.8338 -0.6901  1.1936
34659SOL     OW 7381   2.181   5.784   9.884 -0.2038  0.5278 -0.0060
34659SOL    HW1 7382   2.273   5.760   9.889 -0.4028 -0.4555 -0.8603
34659SOL    HW2 7383   2.182   5.880   9.877  0.7476  0.5351  0.1455
34660SOL     OW 7384   5.247   2.281   0.136 -0.0598  0.5636  0.2138
34660SOL    HW1 7385   5.313   2.218   0.168 -1.5370 -1.8707 -1.3821
34660SOL    HW2 7386   5.176   2.275   0.200 -0.9099 -0.6695 -0.8180
34661SOL     OW 7387  10.575   9.753   8.801 -0.4713  1.2023  0.4284
34661SOL    HW1 7388  10.531   9.772   8.718  0.0234 -1.4745 -0.4783
34661SOL    HW2 7389  10.506   9.719   8.858 -0.1300 -0.4031 -0.0979
34662SOL     OW 7390   8.576  10.231   9.147  0.2965 -0.3179  0.7085
34662SOL    HW1 7391   8.656  10.268   9.111  0.1559 -1.1417 -0.4800
34662SOL    HW2 7392   8.605  10.160   9.204  0.3950 -1.1444 -0.3524
34663SOL     OW 7393   4.995   1.138   0.134 -0.3866  0.4671  0.0462
34663SOL    HW1 7394   5.007   1.170   0.045  1.3453  0.3418  0.2169
34663SOL    HW2 7395   4.948   1.208   0.179  1.3889  1.8222 -0.1813
34664SOL     OW 7396   6.737   9.040   7.379 -0.2688  0.3159  0.2216
34664SOL    HW1 7397   6.678   9.009   7.310  0.2261 -0.8191  0.3002
34664SOL    HW2 7398   6.811   9.078   7.332 -1.0096  1.6948  0.1216
34665SOL     OW 7399   7.338   4.366   1.306 -0.4752 -0.8603 -0.2576
34665SOL    HW1 7400   7.294   4.405   1.382  1.3750  0.8146  0.0039
34665SOL    HW2 7401   7.302   4.414   1.231  0.6140  0.2937 -0.0695
34666SOL     OW 7402   0.318   3.862   4.913 -0.1144  0.1692  0.2106
34666SOL    HW1 7403   0.234   3.817   4.900  1.2790 -2.6700  0.6782
34666SOL    HW2 7404   0.323   3.875   5.007 -0.8832  2.0973 -0.0010
34667SOL     OW 7405   7.949  10.074   1.029  0.1206 -0.6096 -0.3922
34667SOL    HW1 7406   7.959  10.165   1.000  0.5689  0.2376  2.2572
34667SOL    HW2 7407   7.859  10.051   1.008  0.4427 -0.0565 -2.4259
34668SOL     OW 7408  10.855   8.733  10.069 -0.0943 -0.2427  0.6930
34668SOL    HW1 7409  10.851   8.815  10.117  1.1728 -0.5223  1.3083
34668SOL    HW2 7410  10.913   8.752   9.995 -0.6421 -0.2901  0.2545
34669SOL     OW 7411   5.368   4.461   8.298 -0.0330  0.0144  0.1468
34669SOL    HW1 7412   5.326   4.544   8.275  0.3387  0.0261 -0.4877
34669SOL    HW2 7413   5.330   4.397   8.238  0.6684 -0.0251 -0.2562
34670SOL     OW 7414   7.169   7.746   3.725 -0.3993  0.4095 -0.0451
34670SOL    HW1 7415   7.163   7.753   3.820 -0.9719  0.2492 -0.0667
34670SOL    HW2 7416   7.107   7.676   3.702  0.2702 -0.0545 -0.4632
34671SOL     OW 7417   6.758   7.021   5.862 -0.1250 -0.4204 -0.3622
34671SOL    HW1 7418   6.830   7.053   5.807  0.4571 -2.2670 -0.7057
34671SOL    HW2 7419   6.680   7.032   5.808  0.4126 -1.9871 -1.5148
34672SOL     OW 7420  10.291   9.844   4.177 -0.2243 -0.0038  0.2950
34672SOL    HW1 7421  10.254   9.756   4.179 -1.0555  0.2997 -0.7223
34672SOL    HW2 7422  10.371   9.836   4.125 -0.4396 -0.1180 -0.0225
34673SOL     OW 7423   9.993   4.554  10.238 -0.5569  0.5238  0.1719
34673SOL    HW1 7424  10.035   4.555  10.152 -1.5922  0.6353 -0.3372
34673SOL    HW2 7425   9.916   4.609  10.228 -0.8141  0.3451  1.1085
34674SOL     OW 7426   9.393   3.284   2.572  0.0199  0.1182  0.4461
34674SOL    HW1 7427   9.423   3.228   2.643  0.9205 -1.8845 -1.4260
34674SOL    HW2 7428   9.386   3.371   2.610 -0.5334 -1.1006  3.2166
34675SOL     OW 7429   2.378   0.879   9.029 -0.2535 -0.0568 -0.0778
34675SOL    HW1 7430   2.303   0.833   8.991  0.3996 -1.3347  0.1540
34675SOL    HW2 7431   2.352   0.898   9.119 -1.0465  1.2513 -0.5635
34676SOL     OW 7432   7.713   5.069   6.511  0.1710 -0.1972 -0.6275
34676SOL    HW1 7433   7.628   5.025   6.514 -2.1139  4.0051  1.4355
34676SOL    HW2 7434   7.758   5.041   6.590 -0.1659 -0.8226 -0.6591
34677SOL     OW 7435   1.172   5.741   6.962  0.0396  0.2531 -0.2840
34677SOL    HW1 7436   1.227   5.814   6.930  2.5481 -0.9353  1.1683
34677SOL    HW2 7437   1.123   5.713   6.884  0.9426  1.8265 -1.4632
34678SOL     OW 7438   4.410   2.327  10.051  0.3911 -0.0941 -0.2620
34678SOL    HW1 7439   4.378   2.374   9.974  0.0329 -0.5579 -0.3969
34678SOL    HW2 7440   4.504   2.344  10.053  0.0689  1.7252  0.4329
34679SOL     OW 7441   4.311   6.329   1.358 -0.4335 -0.1963 -0.2701
34679SOL    HW1 7442   4.312   6.236   1.385 -0.7455  0.1244  0.8914
34679SOL    HW2 7443   4.400   6.359   1.376 -0.2717 -0.3210 -0.8505
34680SOL     OW 7444   8.043   7.888   7.418 -0.5462 -0.0969  0.0401
34680SOL    HW1 7445   7.947   7.884   7.415 -0.4532 -1.9708 -4.0794
34680SOL    HW2 7446   8.071   7.842   7.339  3.7139  2.8442 -0.3325
34681SOL     OW 7447   1.384   0.037   1.738 -0.9243 -0.5474  0.1395
34681SOL    HW1 7448   1.417   0.065   1.824  0.6862  0.8359 -0.9101
34681SOL    HW2 7449   1.433  -0.043   1.719  1.6286  1.2659 -1.2166
34682SOL     OW 7450   3.985   5.659   1.063  0.0433  0.2312 -0.4087
34682SOL    HW1 7451   3.968   5.638   1.155 -3.2845  1.6363 -0.6405
34682SOL    HW2 7452   4.075   5.692   1.062 -0.3780  1.6244  2.5983
34683SOL     OW 7453   5.417   6.818   4.508  0.3411  0.4058 -0.6571
34683SOL    HW1 7454   5.425   6.911   4.484  2.2035  0.5194  0.2378
34683SOL    HW2 7455   5.335   6.812   4.556  0.2752  1.6431 -0.5983
34684SOL     OW 7456   3.579   3.096   5.813 -0.0265  0.3859  0.6256
34684SOL    HW1 7457   3.620   3.072   5.730 -1.2626 -0.0537  0.1234
34684SOL    HW2 7458   3.647   3.143   5.861  1.1805 -0.6879 -0.0079
34685SOL     OW 7459   1.302   2.157   4.429  0.4236 -0.0269  0.2635
34685SOL    HW1 7460   1.343   2.086   4.478 -0.1251 -1.1505 -0.8822
34685SOL    HW2 7461   1.344   2.154   4.342  1.0179  1.6039  0.4634
34686SOL     OW 7462   2.377   1.215   4.043  0.2331  0.0264 -0.4336
34686SOL    HW1 7463   2.318   1.185   4.111 -0.0037 -0.3668 -0.8129
34686SOL    HW2 7464   2.447   1.260   4.090 -1.7213  2.8723 -0.1169
34687SOL     OW 7465   6.557   7.233   7.979  0.4922  0.1347 -0.0129
34687SOL    HW1 7466   6.527   7.276   7.899  0.9631 -0.8651 -0.7405
34687SOL    HW2 7467   6.586   7.304   8.035  1.7530  0.7567 -1.4030
34688SOL     OW 7468   6.522   0.545   1.518  0.0578  0.4200 -0.0911
34688SOL    HW1 7469   6.509   0.556   1.423  0.5339  1.1329 -0.0787
34688SOL    HW2 7470   6.435   0.554   1.555 -0.6661 -3.1056 -0.7384
34689SOL     OW 7471   4.838  10.480   5.749  0.0446  0.2563  0.5248
34689SOL    HW1 7472   4.759  10.448   5.793  0.4133 -0.5303  0.6300
34689SOL    HW2 7473   4.868  10.553   5.803 -2.1284  2.3441 -1.0169
34690SOL     OW 7474   3.515   4.545   7.716  0.0858 -0.3119  0.1640
34690SOL    HW1 7475   3.589   4.551   7.655 -0.0757 -2.0085 -0.2201
34690SOL    HW2 7476   3.439   4.569   7.664  0.1190 -0.4764  0.0383
34691SOL     OW 7477   8.237   8.877   1.733 -0.1312 -0.0067  0.0947
34691SOL    HW1 7478   8.255   8.815   1.804 -0.1576  0.0681  0.1658
34691SOL    HW2 7479   8.311   8.938   1.735  0.0655 -0.2373 -0.1955
34692SOL     OW 7480   7.521   2.822   6.115 -0.1580  0.1991  0.3017
34692SOL    HW1 7481   7.484   2.903   6.149  1.0588  1.5200 -1.4420
34692SOL    HW2 7482   7.615   2.830   6.130  0.0658 -0.4931 -0.6715
34693SOL     OW 7483   6.896   5.065   7.547  0.2314 -0.3716  0.2484
34693SOL    HW1 7484   6.855   4.985   7.514  2.2662 -1.1146 -0.5642
34693SOL    HW2 7485   6.870   5.133   7.484  0.2869 -0.8472 -0.2902
34694SOL     OW 7486   6.771   9.266  10.438  0.2784  0.3194  0.0762
34694SOL    HW1 7487   6.746   9.357  10.421  1.0348 -0.1247 -3.9566
34694SOL    HW2 7488   6.866   9.264  10.421  0.5625 -0.9358  1.6625
34695SOL     OW 7489  10.456   4.377   2.735 -0.5164 -0.2415  0.2913
34695SOL    HW1 7490  10.546   4.345   2.733 -1.1359 -1.9867 -0.3387
34695SOL    HW2 7491  10.443   4.417   2.649 -0.4060 -0.1771  0.3045
34696SOL     OW 7492  10.598   8.932  10.052 -0.0339 -0.0545 -0.3079
34696SOL    HW1 7493  10.689   8.959  10.042  0.0249 -0.2900 -0.3914
34696SOL    HW2 7494  10.601   8.856  10.110 -0.2135  0.1978  0.0393
34697SOL     OW 7495   4.575   2.356   8.756 -0.5696 -0.3702 -0.0668
34697SOL    HW1 7496   4.636   2.323   8.822 -0.5431 -0.1238  0.0353
34697SOL    HW2 7497   4.495   2.305   8.770 -0.7329  0.0287  0.4949
34698SOL     OW 7498   1.250   9.726   9.907 -0.8456 -0.0379 -0.1002
34698SOL    HW1 7499   1.281   9.696   9.822  0.6744  2.9093 -0.6494
34698SOL    HW2 7500   1.323   9.709   9.966  0.1168  2.6047 -0.4583
34699SOL     OW 7501   9.353   8.899   3.416  0.3124  0.1020 -0.5841
34699SOL    HW1 7502   9.397   8.981   3.396  0.1900 -0.1863 -2.0766
34699SOL    HW2 7503   9.301   8.879   3.338 -0.2902 -0.9786  0.0718
34700SOL     OW 7504  10.579   5.087   4.240  0.1833  0.2119  0.0728
34700SOL    HW1 7505  10.532   5.161   4.276 -1.5220 -0.5773 -0.4773
34700SOL    HW2 7506  10.596   5.030   4.315 -0.1531  0.2874  0.2059
34701SOL     OW 7507  10.879   3.997   8.693 -0.0165  0.5171  0.4332
34701SOL    HW1 7508  10.890   3.908   8.658  0.6179  0.7132  0.1354
34701SOL    HW2 7509  10.968   4.026   8.713 -0.2835  0.8154  1.2089
34702SOL     OW 7510   3.172   1.491   1.126  0.5614 -0.2409 -0.1664
34702SOL    HW1 7511   3.199   1.401   1.107  1.2810  0.1639 -1.1083
34702SOL    HW2 7512   3.251   1.543   1.111  0.3561  0.4601  1.1381
34703SOL     OW 7513   4.249   8.904   2.001  0.2961  0.3301 -0.4203
34703SOL    HW1 7514   4.303   8.870   1.929 -0.6058  0.5141 -1.1850
34703SOL    HW2 7515   4.171   8.848   2.000  0.2717  0.3553  0.3986
34704SOL     OW 7516   6.855   2.236  10.444  0.5914 -0.1832  0.1141
34704SOL    HW1 7517   6.836   2.326  10.470 -4.2096 -0.5606 -1.5914
34704SOL    HW2 7518   6.853   2.185  10.525 -2.9695  0.3439  0.4039
34705SOL     OW 7519   0.059   7.650   4.366 -0.2957 -0.2828 -0.4740
34705SOL    HW1 7520   0.017   7.577   4.322  1.6600 -2.3517  0.9619
34705SOL    HW2 7521   0.063   7.623   4.458  1.6279  1.0267 -0.1355
34706SOL     OW 7522   5.909   0.175  10.147 -0.0013 -0.1587  0.6637
34706SOL    HW1 7523   5.907   0.168  10.242 -1.9346 -0.2070  0.6485
34706SOL    HW2 7524   5.960   0.255  10.130  1.0431 -0.5930  1.6935
34707SOL     OW 7525   2.265   6.682   9.995 -0.2895  0.0072  0.0276
34707SOL    HW1 7526   2.218   6.599   9.992 -1.8343  0.8421  1.2300
34707SOL    HW2 7527   2.271   6.704  10.088  3.8788 -0.8534  0.0783
34708SOL     OW 7528   8.215   3.202   7.954  0.2505 -0.0492 -0.6685
34708SOL    HW1 7529   8.262   3.164   8.028  1.5645 -1.1255 -2.0438
34708SOL    HW2 7530   8.126   3.215   7.987  0.5041 -1.6946  0.7064
34709SOL     OW 7531   5.442   4.044   8.819 -0.4650  0.1059 -0.3678
34709SOL    HW1 7532   5.410   4.079   8.736 -0.6810 -0.1452 -0.3925
34709SOL    HW2 7533   5.363   4.026   8.870 -0.2857  1.5937  0.4552
34710SOL     OW 7534   4.825   2.669   1.975 -0.1658 -0.0717 -0.4912
34710SOL    HW1 7535   4.746   2.636   1.931 -0.4029 -1.4085  0.8916
34710SOL    HW2 7536   4.896   2.616   1.938 -0.2668 -0.6729  0.1653
34711SOL     OW 7537   4.852   5.093   4.182  0.8143  0.0923  0.1254
34711SOL    HW1 7538   4.863   5.168   4.241  1.2914  0.8696 -0.9468
34711SOL    HW2 7539   4.788   5.123   4.117  0.4569 -0.6869  0.1121
34712SOL     OW 7540  10.045   4.504   4.650 -0.3755 -0.2962 -0.3183
34712SOL    HW1 7541  10.120   4.490   4.708 -0.5259  1.6778  0.3910
34712SOL    HW2 7542  10.083   4.539   4.569 -0.4957  0.4565 -0.0541
34713SOL     OW 7543   2.894   3.382  10.914 -0.4777 -0.1880  0.5474
34713SOL    HW1 7544   2.927   3.335  10.990  1.9491  0.4034 -0.0867
34713SOL    HW2 7545   2.926   3.472  10.926 -1.8023  0.3913 -0.1569
34714SOL     OW 7546   1.903   4.117   3.874 -0.1514 -0.2271 -0.8638
34714SOL    HW1 7547   1.952   4.199   3.874  0.9021 -0.8402 -0.5482
34714SOL    HW2 7548   1.866   4.110   3.786  0.9629 -0.1226 -1.3426
34715SOL     OW 7549   0.937   3.804   2.977 -0.3721  0.3808  0.5789
34715SOL    HW1 7550   0.974   3.799   3.065 -1.7430  0.7488  1.1859
34715SOL    HW2 7551   0.920   3.712   2.953 -1.3058  0.3636  1.2727
34716SOL     OW 7552   3.632   3.038   7.411 -0.9898  0.1137  0.1135
34716SOL    HW1 7553   3.693   3.088   7.357 -1.8371  0.3052 -0.6716
34716SOL    HW2 7554   3.558   3.097   7.426 -0.5471  0.2495  1.9092
34717SOL     OW 7555   1.661   8.530   1.609 -0.0590  0.1814 -0.8656
34717SOL    HW1 7556   1.634   8.516   1.519 -1.8109  2.0240 -0.6758
34717SOL    HW2 7557   1.579   8.543   1.657  0.9474  1.4215  0.5868
34718SOL     OW 7558   2.191   2.103  10.888 -0.6023  0.2278 -0.3975
34718SOL    HW1 7559   2.250   2.085  10.960  0.3205  1.2755 -0.8709
34718SOL    HW2 7560   2.134   2.027  10.883  0.7111 -0.7948  0.0651
34719SOL     OW 7561   7.311   0.205   5.016  0.2366 -0.0915 -0.7882
34719SOL    HW1 7562   7.393   0.176   4.976  1.0614  1.0272  0.0734
34719SOL    HW2 7563   7.266   0.124   5.039  0.3566 -0.7504 -2.7152
34720SOL     OW 7564   1.924   4.555   2.584 -0.5867 -0.1279 -0.2986
34720SOL    HW1 7565   1.875   4.514   2.655 -1.1160  2.3243  0.8264
34720SOL    HW2 7566   2.004   4.587   2.626 -1.0500  1.6158 -0.7045
34721SOL     OW 7567   7.787   7.658   2.391 -0.1105  0.3753 -0.4555
34721SOL    HW1 7568   7.800   7.583   2.332 -1.0690  1.1351 -1.6567
34721SOL    HW2 7569   7.876   7.690   2.409  0.3135 -1.1240  0.1748
34722SOL     OW 7570  10.854   9.958   3.852 -0.0454 -0.0904 -0.2870
34722SOL    HW1 7571  10.812  10.034   3.810 -0.3995 -0.3526 -0.4039
34722SOL    HW2 7572  10.847   9.976   3.946 -1.5116 -0.7230 -0.2732
34723SOL     OW 7573   1.656   6.516   6.261 -0.1803 -0.2319  0.7818
34723SOL    HW1 7574   1.581   6.460   6.243 -0.0675 -0.5779  1.3554
34723SOL    HW2 7575   1.658   6.578   6.189  0.2854 -1.5983 -0.4000
34724SOL     OW 7576   0.272   6.961   0.750  0.2331  0.4227 -0.2381
34724SOL    HW1 7577   0.322   6.925   0.824 -0.2462  0.1496 -0.0451
34724SOL    HW2 7578   0.195   6.905   0.745 -0.0614  0.8587 -0.5261
34725SOL     OW 7579   4.561   6.301   9.911 -0.1224  0.5152 -0.3092
34725SOL    HW1 7580   4.588   6.333   9.825  1.4793  0.6070  0.2247
34725SOL    HW2 7581   4.618   6.226   9.928 -2.1168 -1.0596 -0.4218
34726SOL     OW 7582   1.569   2.026   4.055  0.0229  0.2755  0.7020
34726SOL    HW1 7583   1.613   2.051   4.136  3.0891 -1.6497 -0.2825
34726SOL    HW2 7584   1.577   2.103   3.998  4.0538 -0.6542 -0.1677
34727SOL     OW 7585   6.817   5.856  10.848 -0.1780 -0.9055  0.4161
34727SOL    HW1 7586   6.881   5.901  10.903  1.3599 -1.1740 -1.1326
34727SOL    HW2 7587   6.848   5.870  10.758 -2.6844 -0.3926 -0.4182
34728SOL     OW 7588   8.746   6.112   6.832  0.1532 -0.3227 -0.0046
34728SOL    HW1 7589   8.738   6.208   6.838  2.0567 -0.0970 -0.6224
34728SOL    HW2 7590   8.677   6.086   6.772  1.1810  0.9863 -1.8311
34729SOL     OW 7591   3.408   7.776   8.073  0.3060  0.0847 -0.6248
34729SOL    HW1 7592   3.356   7.754   7.995 -0.5027 -0.3626  0.0431
34729SOL    HW2 7593   3.471   7.705   8.080 -1.2303 -1.1829  0.5651
34730SOL     OW 7594   8.347   2.533   0.900 -0.3717 -1.2649  0.1207
34730SOL    HW1 7595   8.328   2.476   0.975 -0.3658 -0.0186  1.0898
34730SOL    HW2 7596   8.262   2.570   0.877 -0.4060 -1.7949 -0.6319
34731SOL     OW 7597   8.807   6.091   6.481 -0.0470  0.0409 -0.0653
34731SOL    HW1 7598   8.736   6.071   6.542 -1.7844 -1.1879 -2.4065
34731SOL    HW2 7599   8.789   6.181   6.454 -0.6320 -0.1969 -0.4960
34732SOL     OW 7600   6.190   5.916  10.370 -0.0013 -0.4605  0.3154
34732SOL    HW1 7601   6.164   5.986  10.431 -1.5677 -1.2583  0.6014
34732SOL    HW2 7602   6.121   5.850  10.380  0.8293 -1.5085 -0.8305
34733SOL     OW 7603   9.758   1.603   8.107  0.0439 -0.4027  0.4511
34733SOL    HW1 7604   9.815   1.554   8.166 -0.5166  0.5026  1.7556
34733SOL    HW2 7605   9.734   1.540   8.039  2.3202 -0.8922  0.0633
34734SOL     OW 7606   4.913   2.974   3.128  0.2319  0.6826  0.1460
34734SOL    HW1 7607   4.926   2.904   3.193 -1.1065 -0.7309 -1.0639
34734SOL    HW2 7608   4.879   3.048   3.180 -1.0707 -0.5091  1.0451
34735SOL     OW 7609   3.979   3.184   8.920 -0.0478  0.0951  0.3159
34735SOL    HW1 7610   4.016   3.112   8.971 -0.9793 -0.1278  0.6807
34735SOL    HW2 7611   3.904   3.145   8.874 -0.2887  0.7217  0.1702
34736SOL     OW 7612  10.632   2.506   7.123  0.0728  0.6836 -0.2887
34736SOL    HW1 7613  10.568   2.547   7.181  0.4511  1.6003 -0.5181
34736SOL    HW2 7614  10.654   2.574   7.059  1.1186  0.3095 -0.3366
34737SOL     OW 7615   7.868   8.488   0.441 -0.6246  0.0470 -0.1288
34737SOL    HW1 7616   7.819   8.408   0.460  0.4946 -0.9772 -1.4214
34737SOL    HW2 7617   7.959   8.459   0.433  0.0859  1.7797  1.3596
34738SOL     OW 7618   2.895   0.626   5.457  0.1141  0.3284  0.7263
34738SOL    HW1 7619   2.831   0.573   5.505  0.1385  0.7073  1.1819
34738SOL    HW2 7620   2.868   0.716   5.474 -0.5438  0.4646 -0.8660
34739SOL     OW 7621   1.707   8.391   8.654  0.1667 -0.1693 -0.4055
34739SOL    HW1 7622   1.724   8.439   8.573  0.8127 -1.9567 -1.3557
34739SOL    HW2 7623   1.760   8.312   8.647 -0.6530 -0.8923  1.2526
34740SOL     OW 7624   0.894   7.642   0.962  0.0020  0.2782 -0.5754
34740SOL    HW1 7625   0.832   7.701   1.004 -0.6397 -0.8607  0.1114
34740SOL    HW2 7626   0.945   7.606   1.034 -1.7761 -2.4648 -0.6201
34741SOL     OW 7627   6.778   8.392   6.593 -0.2567 -0.3106  0.0395
34741SOL    HW1 7628   6.708   8.454   6.609  0.8790  0.9627  0.1826
34741SOL    HW2 7629   6.794   8.351   6.678 -0.6066 -0.3609  0.0802
34742SOL     OW 7630   6.302   3.276   5.428  0.3337 -0.1795 -0.1225
34742SOL    HW1 7631   6.265   3.278   5.340  0.9553 -1.6744 -0.4257
34742SOL    HW2 7632   6.233   3.235   5.482  0.1375  0.3058 -0.0033
34743SOL     OW 7633   7.349   1.060   7.949  0.1159  0.1748 -0.2830
34743SOL    HW1 7634   7.444   1.053   7.943  0.1521  1.3201 -1.1385
34743SOL    HW2 7635   7.323   0.984   8.002  1.4814 -0.2268 -0.1656
34744SOL     OW 7636   5.355   6.426   0.421 -0.4712  0.4751  0.0888
34744SOL    HW1 7637   5.287   6.491   0.407 -1.9485 -0.9705  0.4663
34744SOL    HW2 7638   5.436   6.477   0.423 -1.6999  2.4383  1.5941
34745SOL     OW 7639   3.069   1.064   1.354  0.6040  0.4424  0.4420
34745SOL    HW1 7640   2.993   1.098   1.402 -0.1045  0.4151 -0.6426
34745SOL    HW2 7641   3.144   1.097   1.403 -0.0955 -0.2585  2.0494
34746SOL     OW 7642   6.809   4.915   6.276  0.2748 -0.3181 -0.0232
34746SOL    HW1 7643   6.735   4.855   6.282  0.1175 -0.1785 -0.5261
34746SOL    HW2 7644   6.887   4.860   6.283  0.1581 -0.7897 -2.2035
34747SOL     OW 7645   7.854   4.790   8.783  0.7220 -0.0267 -0.5803
34747SOL    HW1 7646   7.896   4.876   8.780 -1.1020  0.8790 -1.0401
34747SOL    HW2 7647   7.792   4.796   8.855  3.9951 -2.6466  2.6678
34748SOL     OW 7648   7.428   8.985   8.506  0.3498 -0.1238  0.4865
34748SOL    HW1 7649   7.449   8.893   8.490  0.5164 -0.4270  2.3693
34748SOL    HW2 7650   7.346   8.999   8.458 -0.3380 -1.6012  1.1968
34749SOL     OW 7651   4.513   4.705   6.006 -0.4916 -0.3800 -0.1989
34749SOL    HW1 7652   4.419   4.706   6.024 -0.2451 -1.8385  1.2432
34749SOL    HW2 7653   4.531   4.791   5.967 -2.4736 -0.2184 -0.8154
34750SOL     OW 7654   0.352   8.578   2.268 -0.3959  0.1044  0.4758
34750SOL    HW1 7655   0.309   8.519   2.330 -1.3725 -0.0498 -0.3210
34750SOL    HW2 7656   0.426   8.527   2.235 -2.1160 -1.3633 -1.3723
34751SOL     OW 7657   5.878   9.738   9.840 -0.5918 -0.1102  0.1657
34751SOL    HW1 7658   5.878   9.698   9.927  0.1408  1.0441  0.7172
34751SOL    HW2 7659   5.958   9.790   9.838 -1.0941  0.6449 -0.8433
34752SOL     OW 7660   3.968  10.377   1.301  0.5874 -0.1817  0.0874
34752SOL    HW1 7661   3.962  10.404   1.209 -0.0879  0.2294  0.2481
34752SOL    HW2 7662   4.007  10.452   1.346 -0.2168  0.0940  0.3384
34753SOL     OW 7663  10.950   0.828  10.547 -0.0473 -0.4659 -0.1775
34753SOL    HW1 7664  10.859   0.799  10.558  0.0297 -1.0323 -0.9806
34753SOL    HW2 7665  10.956   0.850  10.454  0.3140  0.7017  0.1065
34754SOL     OW 7666   3.363   3.125   2.327  0.3320 -0.1882 -0.0035
34754SOL    HW1 7667   3.337   3.217   2.338  0.1721 -0.3335  0.9051
34754SOL    HW2 7668   3.438   3.115   2.385  0.2159 -0.6903  0.0565
34755SOL     OW 7669   4.334   6.671   5.938 -0.4210  0.4214 -0.0863
34755SOL    HW1 7670   4.344   6.726   5.860 -0.0355  1.7307  0.8779
34755SOL    HW2 7671   4.370   6.723   6.009 -1.2784 -0.5376  1.0737
34756SOL     OW 7672   8.294   6.548  10.625 -0.1618  0.1171  0.0422
34756SOL    HW1 7673   8.387   6.573  10.629 -0.1459  0.0360  0.2063
34756SOL    HW2 7674   8.295   6.456  10.599 -0.1707 -0.1006  0.8190
34757SOL     OW 7675  10.310   7.401   6.159  0.1599  0.0083  0.2803
34757SOL    HW1 7676  10.228   7.354   6.178 -0.3936  0.8288 -0.0534
34757SOL    HW2 7677  10.341   7.362   6.077  1.6463 -2.3295  1.8908
34758SOL     OW 7678   7.853   0.684   3.085  0.2733  0.3936 -0.1853
34758SOL    HW1 7679   7.868   0.590   3.084 -2.9589 -0.1995 -1.0758
34758SOL    HW2 7680   7.844   0.708   2.993 -2.5111  0.8472  0.1424
34759SOL     OW 7681   7.195   6.290   5.546 -0.2462  0.1095 -0.4453
34759SOL    HW1 7682   7.254   6.222   5.578 -0.4231 -0.2352 -0.8419
34759SOL    HW2 7683   7.249   6.369   5.540 -0.0881  0.0517  0.2022
34760SOL     OW 7684   2.587   2.832  10.833  0.1700  0.5341  0.1197
34760SOL    HW1 7685   2.588   2.790  10.748 -2.6907  1.4425 -0.4136
34760SOL    HW2 7686   2.615   2.922  10.816 -0.0766  0.6227  0.1740
34761SOL     OW 7687   0.382   3.864  10.737  0.6400 -0.2360 -0.0733
34761SOL    HW1 7688   0.384   3.826  10.649 -2.2076 -0.1343 -0.2335
34761SOL    HW2 7689   0.344   3.951  10.725 -0.4033 -0.4755  1.3115
34762SOL     OW 7690   4.955   2.176   5.803 -0.0311 -0.2820 -0.2012
34762SOL    HW1 7691   4.910   2.253   5.838  1.2052  0.7441 -0.8518
34762SOL    HW2 7692   4.921   2.103   5.855 -0.0867  0.8911  1.4419
34763SOL     OW 7693   9.770   1.697   8.990  0.3322 -0.0796 -0.4154
34763SOL    HW1 7694   9.725   1.613   8.987 -0.1595  0.1317  0.5501
34763SOL    HW2 7695   9.830   1.696   8.916  0.6656 -1.4680 -0.1284
34764SOL     OW 7696   7.773   7.083   4.666 -0.3062 -0.1940 -0.0415
34764SOL    HW1 7697   7.683   7.073   4.634 -0.4597 -0.5114  0.4904
34764SOL    HW2 7698   7.770   7.054   4.757 -0.0581  1.6045  0.5520
34765SOL     OW 7699   0.760   9.170   9.575  0.4610  0.3321  0.1065
34765SOL    HW1 7700   0.702   9.145   9.647 -0.0945  0.5956 -0.2439
34765SOL    HW2 7701   0.843   9.189   9.617  0.4212 -0.4866  0.5639
34766SOL     OW 7702   7.237   5.368   6.903  0.7830 -1.0786 -0.0112
34766SOL    HW1 7703   7.332   5.375   6.904  0.6450  0.9678  0.4524
34766SOL    HW2 7704   7.211   5.380   6.994  0.0295 -0.9714 -0.2342
34767SOL     OW 7705  10.799  10.245   9.579  0.4383 -0.4546  0.0444
34767SOL    HW1 7706  10.754  10.221   9.660 -2.1486 -0.8712 -1.4762
34767SOL    HW2 7707  10.742  10.311   9.538  1.7666 -0.1673 -1.3873
34768SOL     OW 7708   3.548   7.377   3.433 -0.5371 -0.0478  0.1212
34768SOL    HW1 7709   3.603   7.431   3.375 -1.1385 -0.5066 -0.8922
34768SOL    HW2 7710   3.523   7.436   3.504  2.4010 -0.2156  1.3415
34769SOL     OW 7711   6.473   5.960   9.467 -0.3841 -0.6385 -1.0743
34769SOL    HW1 7712   6.411   6.006   9.523  0.2763 -0.3729 -0.5684
34769SOL    HW2 7713   6.488   6.019   9.394  0.5041 -0.0234 -0.3983
34770SOL     OW 7714   6.379   3.569   6.001 -0.3276 -0.5220 -0.3173
34770SOL    HW1 7715   6.352   3.482   5.971 -0.2667  0.0164 -2.0110
34770SOL    HW2 7716   6.421   3.608   5.924 -0.1478  0.9157  0.5018
34771SOL     OW 7717   0.833   9.557   2.377  0.1189 -0.5338  0.2740
34771SOL    HW1 7718   0.768   9.543   2.308  1.5860 -1.4297 -0.9585
34771SOL    HW2 7719   0.918   9.551   2.332  1.0761  0.2386  1.9151
34772SOL     OW 7720   9.889   5.654   4.750 -0.4819 -0.1692 -0.0207
34772SOL    HW1 7721   9.884   5.710   4.827 -0.0316  1.4646 -1.1462
34772SOL    HW2 7722   9.857   5.709   4.678  0.6550 -1.1168 -1.2738
34773SOL     OW 7723   6.483   1.016   2.307 -0.6287 -0.0009  0.0032
34773SOL    HW1 7724   6.504   1.001   2.215 -1.9872 -2.0123 -0.0159
34773SOL    HW2 7725   6.563   0.993   2.354  0.3308  1.7898 -0.6899
34774SOL     OW 7726   0.593   4.920   5.423 -0.1224 -0.0143 -0.1661
34774SOL    HW1 7727   0.645   4.882   5.493 -0.7337 -0.6789 -0.0662
34774SOL    HW2 7728   0.564   5.005   5.458 -1.6570 -0.9828  0.9759
34775SOL     OW 7729   8.841   0.060   9.074  0.2159 -0.0033 -0.2492
34775SOL    HW1 7730   8.784   0.005   9.127  0.3709 -1.0580 -1.1757
34775SOL    HW2 7731   8.786   0.135   9.050  0.2492  0.6744  1.6745
34776SOL     OW 7732   6.212   1.315   5.242 -0.3389 -0.0839 -0.1996
34776SOL    HW1 7733   6.144   1.372   5.277 -0.1333 -0.5197  0.9448
34776SOL    HW2 7734   6.198   1.315   5.148 -1.9456 -0.1869  0.0258
34777SOL     OW 7735   6.054  10.974   0.495 -0.0926 -0.7401 -0.1980
34777SOL    HW1 7736   6.060  10.909   0.425 -1.1714 -0.7518 -0.2890
34777SOL    HW2 7737   6.086  11.055   0.455 -3.0978 -0.1439 -1.5206
34778SOL     OW 7738   9.289   0.556   4.329 -0.4177 -0.1294  0.4123
34778SOL    HW1 7739   9.326   0.468   4.335 -0.7581 -0.2344  0.9669
34778SOL    HW2 7740   9.361   0.610   4.295 -0.4108 -0.7465 -0.5856
34779SOL     OW 7741  10.318   4.896   3.984 -0.5557  0.1857  0.5324
34779SOL    HW1 7742  10.370   4.942   4.050  1.3050 -0.0744 -0.6921
34779SOL    HW2 7743  10.337   4.803   4.000  1.8551  0.1974 -1.8190
34780SOL     OW 7744   2.953   2.753  10.936  0.3226 -0.7362 -0.0782
34780SOL    HW1 7745   2.930   2.839  10.901  0.5896  1.2215  4.3056
34780SOL    HW2 7746   3.006   2.713  10.867 -0.2448  2.3621 -2.4187
34781SOL     OW 7747   9.171   3.352   7.111  0.0364 -0.0941  0.3815
34781SOL    HW1 7748   9.120   3.378   7.188  2.0007  0.2363  1.6165
34781SOL    HW2 7749   9.150   3.418   7.045 -0.5150  0.4826  1.1269
34782SOL     OW 7750   1.172   6.784   2.209  0.4316  0.1932  0.0096
34782SOL    HW1 7751   1.157   6.848   2.139 -2.4239  0.1490  0.5421
34782SOL    HW2 7752   1.228   6.718   2.169 -0.7402  0.4295 -2.1063
34783SOL     OW 7753   9.440   6.888  10.503  0.1757 -0.1633 -0.0113
34783SOL    HW1 7754   9.521   6.870  10.455 -0.3840 -0.9069 -0.6712
34783SOL    HW2 7755   9.470   6.930  10.584  1.2741 -1.2522  0.1545
34784SOL     OW 7756   3.062  10.130   0.701  0.0270 -0.5727 -0.4666
34784SOL    HW1 7757   3.010  10.184   0.642  0.9541  0.0732 -0.7020
34784SOL    HW2 7758   3.024  10.043   0.693 -2.1005  0.2116  0.6242
34785SOL     OW 7759   1.215   4.423  10.470 -0.2198 -0.0852 -0.4333
34785SOL    HW1 7760   1.130   4.395  10.503 -0.2952  0.3931 -0.2080
34785SOL    HW2 7761   1.268   4.437  10.549  0.9848 -3.1545 -0.6431
34786SOL     OW 7762   5.564   6.260  10.269 -0.1986 -0.0095 -0.4088
34786SOL    HW1 7763   5.562   6.342  10.220 -1.7624  0.8087  0.9562
34786SOL    HW2 7764   5.552   6.191  10.204 -0.1846  0.9245 -1.3991
34787SOL     OW 7765   6.106   7.724   8.647  0.2614 -0.3039  0.4861
34787SOL    HW1 7766   6.113   7.819   8.655  0.0483 -0.1081 -1.3899
34787SOL    HW2 7767   6.161   7.702   8.571 -2.4076 -1.2571 -1.2483
34788SOL     OW 7768   9.447  10.966   0.153  0.0876 -0.0640  0.3766
34788SOL    HW1 7769   9.452  10.871   0.142  2.9903 -0.0573  1.1784
34788SOL    HW2 7770   9.453  10.980   0.247  0.3209  0.9195  0.2221
34789SOL     OW 7771   8.908   5.289   5.607  0.3886 -0.1057 -0.1097
34789SOL    HW1 7772   8.953   5.216   5.563  0.6716  1.3872 -2.3696
34789SOL    HW2 7773   8.975   5.357   5.614 -0.0979  0.2378  1.2601
34790SOL     OW 7774   5.406   8.061   2.167  0.3134  0.6099 -0.5386
34790SOL    HW1 7775   5.501   8.072   2.173  0.1313  1.6683  0.5294
34790SOL    HW2 7776   5.394   7.977   2.123  1.7301 -0.5367  1.2406
34791SOL     OW 7777  10.279   3.847   7.101 -0.1122  0.0436  0.0259
34791SOL    HW1 7778  10.315   3.911   7.040 -0.5010 -0.1714 -0.4345
34791SOL    HW2 7779  10.215   3.798   7.049  1.5140 -1.9666 -0.1644
34792SOL     OW 7780   1.172   3.039   4.055 -0.3763 -0.0059  0.3169
34792SOL    HW1 7781   1.100   3.062   3.996 -1.0949 -0.8150  0.8594
34792SOL    HW2 7782   1.231   3.114   4.052 -0.5517  0.0915 -1.2010
34793SOL     OW 7783   8.599   0.582   6.819 -0.1127 -0.2663  0.3724
34793SOL    HW1 7784   8.651   0.646   6.772 -0.2895  0.1609  0.7460
34793SOL    HW2 7785   8.642   0.574   6.905  1.5454 -2.7293 -0.6294
34794SOL     OW 7786   6.380   7.500   5.030 -0.1304 -0.4706 -0.3310
34794SOL    HW1 7787   6.440   7.570   5.004  0.8524 -1.8007 -1.7525
34794SOL    HW2 7788   6.403   7.427   4.973 -0.1785 -2.4172  2.0868
34795SOL     OW 7789  10.224   2.531   4.718 -0.0153  0.0511  0.0183
34795SOL    HW1 7790  10.204   2.568   4.632  0.4918 -0.5201 -0.3560
34795SOL    HW2 7791  10.152   2.560   4.774  0.3670  1.5696 -0.2574
34796SOL     OW 7792   9.450  10.301   3.104  0.1356 -0.1505  0.0906
34796SOL    HW1 7793   9.449  10.394   3.127 -2.1375  0.2776 -1.5843
34796SOL    HW2 7794   9.531  10.268   3.142  1.6842  2.8317 -0.4645
34797SOL     OW 7795   8.861   5.520   1.847  0.4233  0.0424 -0.6059
34797SOL    HW1 7796   8.844   5.588   1.783 -0.3396  0.5122  0.0751
34797SOL    HW2 7797   8.847   5.438   1.799 -1.6271  0.4001 -0.6801
34798SOL     OW 7798  10.309   1.843   9.738  0.6625 -0.1211  0.0618
34798SOL    HW1 7799  10.216   1.841   9.762  0.8275 -0.4359  0.6942
34798SOL    HW2 7800  10.322   1.930   9.701 -0.1159 -0.4388 -0.9946
34799SOL     OW 7801   6.346   8.681   9.495  0.6278  0.1180 -0.3769
34799SOL    HW1 7802   6.357   8.638   9.580 -0.7445  1.0709  0.3044
34799SOL    HW2 7803   6.334   8.774   9.516 -0.3118  0.2779 -1.5544
34800SOL     OW 7804   9.577   2.272   6.784 -0.5112 -0.3659  0.3414
34800SOL    HW1 7805   9.597   2.365   6.791 -2.3985 -0.0419  1.7326
34800SOL    HW2 7806   9.519   2.266   6.708  2.3748 -0.9278 -1.9280
34801SOL     OW 7807   5.410   8.149   5.443  0.4148 -0.1332 -0.0982
34801SOL    HW1 7808   5.469   8.223   5.460  1.5661 -0.9793 -0.3365
34801SOL    HW2 7809   5.464   8.072   5.460 -0.7838 -0.9239  0.1603
34802SOL     OW 7810   9.006   7.960   7.213  0.0550  0.7299  0.3032
34802SOL    HW1 7811   8.929   7.921   7.171 -0.2846 -0.7293  2.1846
34802SOL    HW2 7812   9.075   7.953   7.148 -0.5811 -1.0158 -0.2076
34803SOL     OW 7813   2.798   1.232  10.965  0.2826 -0.0914 -0.1178
34803SOL    HW1 7814   2.880   1.282  10.965  0.1230  0.1794 -0.7266
34803SOL    HW2 7815   2.740   1.282  10.907  0.9694 -2.3526 -2.8470
34804SOL     OW 7816   6.551   0.213   2.046  0.4945 -0.2348 -0.4431
34804SOL    HW1 7817   6.521   0.295   2.007  0.0578 -0.4132 -0.4791
34804SOL    HW2 7818   6.533   0.146   1.980 -0.3745 -0.5585  0.1096
34805SOL     OW 7819   3.367   6.835   2.542  0.4737 -0.9811 -0.3266
34805SOL    HW1 7820   3.401   6.885   2.616 -2.6043 -1.2823  1.3723
34805SOL    HW2 7821   3.374   6.744   2.569 -0.9464 -1.0790 -0.2235
34806SOL     OW 7822   4.034   6.136   3.442  0.2422 -0.1086  0.0823
34806SOL    HW1 7823   4.060   6.198   3.511  0.5305  0.8969 -0.9206
34806SOL    HW2 7824   3.963   6.180   3.395 -0.4044 -1.0698  0.1373
34807SOL     OW 7825   4.426  10.126   9.592  0.4017  0.3745  0.1579
34807SOL    HW1 7826   4.476  10.194   9.637  1.5055 -0.1598 -0.2372
34807SOL    HW2 7827   4.386  10.075   9.663 -0.1409  1.2067  0.4612
34808SOL     OW 7828   1.048   4.157   4.392  0.1921 -0.0664 -0.0669
34808SOL    HW1 7829   1.021   4.072   4.359  0.3239 -0.1518  0.0453
34808SOL    HW2 7830   1.132   4.141   4.435 -0.7038 -0.2275  1.6554
34809SOL     OW 7831  10.839   3.937   2.552  0.5852 -0.2901 -0.9558
34809SOL    HW1 7832  10.751   3.939   2.588  0.3016 -0.7719 -1.6123
34809SOL    HW2 7833  10.839   3.863   2.491  1.4996 -0.4179 -0.8085
34810SOL     OW 7834   2.567   8.319   0.322 -0.5859  0.0398 -0.1397
34810SOL    HW1 7835   2.553   8.412   0.303  3.0261  0.7119  0.1725
34810SOL    HW2 7836   2.627   8.290   0.254 -1.5771 -2.0825 -0.1391
34811SOL     OW 7837   0.821   6.600   3.215  0.4435 -0.3991  0.1752
34811SOL    HW1 7838   0.877   6.558   3.280  0.1450  0.3015  0.9023
34811SOL    HW2 7839   0.782   6.674   3.262  1.3950  1.0408 -1.1976
34812SOL     OW 7840   8.380   2.482   0.067  0.5048 -0.6302  0.5295
34812SOL    HW1 7841   8.393   2.399   0.021 -0.4617  0.7669 -2.3925
34812SOL    HW2 7842   8.469   2.511   0.090  1.2885 -0.2137 -2.6807
34813SOL     OW 7843   6.643   7.324   9.271 -0.1309 -0.7544 -0.3068
34813SOL    HW1 7844   6.734   7.326   9.300  0.1123  1.4730 -1.0943
34813SOL    HW2 7845   6.615   7.233   9.282  2.3338 -1.5604 -0.5053
34814SOL     OW 7846   7.838   3.741   1.953 -0.0248 -0.2840 -0.2962
34814SOL    HW1 7847   7.913   3.775   2.002 -1.6040  0.1509  1.9248
34814SOL    HW2 7848   7.781   3.817   1.941 -0.2350 -0.6586 -1.7690
34815SOL     OW 7849   5.574   7.292   2.868 -0.7997  0.0402 -0.4703
34815SOL    HW1 7850   5.589   7.244   2.950  0.9988  0.6609 -0.4261
34815SOL    HW2 7851   5.615   7.377   2.882 -0.1621  0.0283 -2.1628
34816SOL     OW 7852   4.814   6.566   0.412  0.8603 -0.4051 -0.2485
34816SOL    HW1 7853   4.760   6.493   0.381  2.4331 -0.7407 -2.3413
34816SOL    HW2 7854   4.849   6.536   0.495 -0.8485 -0.8411  0.3310
34817SOL     OW 7855   6.605   2.164   6.327 -0.3556  0.0935  0.2957
34817SOL    HW1 7856   6.652   2.220   6.265  1.9729 -0.6424  1.3435
34817SOL    HW2 7857   6.674   2.125   6.381 -2.1341 -1.6433  1.3683
34818SOL     OW 7858   5.386   9.948   4.092 -0.3232  0.4938  0.1687
34818SOL    HW1 7859   5.339  10.009   4.036 -0.6181  0.6812  0.6214
34818SOL    HW2 7860   5.426   9.886   4.031 -1.3676  0.1760 -0.2059
34819SOL     OW 7861   1.056   1.784  10.417  0.2525  0.7575 -0.1607
34819SOL    HW1 7862   0.987   1.784  10.483  0.8876 -0.7000  0.5221
34819SOL    HW2 7863   1.063   1.693  10.389  0.2247  1.3050 -2.0060
34820SOL     OW 7864   9.914   9.959   2.122  0.4237  0.8762  0.2121
34820SOL    HW1 7865   9.893   9.868   2.101 -0.2703  0.9859  0.4317
34820SOL    HW2 7866  10.008   9.966   2.105 -0.3651  1.4132 -4.4917
34821SOL     OW 7867   5.484   5.525   6.343  0.1224  0.3890  0.8006
34821SOL    HW1 7868   5.487   5.460   6.272  0.7073 -1.1055  2.1569
34821SOL    HW2 7869   5.404   5.575   6.326 -0.0167 -0.2868 -0.6246
34822SOL     OW 7870   5.244   6.143   0.897  0.5359 -0.2014  0.2691
34822SOL    HW1 7871   5.185   6.219   0.894 -1.3819 -1.6772 -0.8171
34822SOL    HW2 7872   5.253   6.123   0.991 -2.9095 -1.5460  0.3929
34823SOL     OW 7873   5.911   2.499   6.660 -0.2596 -0.8421 -0.1849
34823SOL    HW1 7874   5.866   2.485   6.743 -0.0146 -0.1580  0.0666
34823SOL    HW2 7875   5.996   2.456   6.672 -0.0946 -0.4537  0.0394
34824SOL     OW 7876   7.608   5.030   8.361  0.4393  0.0995 -0.1725
34824SOL    HW1 7877   7.533   5.043   8.303  0.9793  0.7922 -0.7371
34824SOL    HW2 7878   7.681   5.013   8.301  0.8598  0.0951  0.3343
34825SOL     OW 7879   8.956  10.611   9.313  0.3951 -0.2486  0.4178
34825SOL    HW1 7880   8.889  10.678   9.317 -0.5729 -1.3062  2.9281
34825SOL    HW2 7881   8.912  10.535   9.275  0.3232 -0.7768  1.5593
34826SOL     OW 7882   9.558   7.240   9.635  0.2667 -0.7332 -0.7891
34826SOL    HW1 7883   9.512   7.324   9.632 -1.6582 -1.6829  0.7516
34826SOL    HW2 7884   9.495   7.177   9.600  0.5330 -2.0005  0.9742
34827SOL     OW 7885   6.628   9.566  10.413  0.1630 -0.2651 -0.4059
34827SOL    HW1 7886   6.600   9.621  10.486 -0.5327 -2.0729  0.7231
34827SOL    HW2 7887   6.722   9.584  10.404  0.0444  0.7203  0.2579
34828SOL     OW 7888   2.354  10.283   3.501  0.1360  0.1164  0.1619
34828SOL    HW1 7889   2.356  10.357   3.442  0.8822 -0.6260 -0.7528
34828SOL    HW2 7890   2.441  10.279   3.539  1.1931 -2.2849 -2.3301
34829SOL     OW 7891   5.927   5.827   7.739 -0.3679  0.5849  0.3988
34829SOL    HW1 7892   5.988   5.877   7.793  1.5899  0.6833 -1.8490
34829SOL    HW2 7893   5.846   5.878   7.741  0.7462  2.3831  0.4442
34830SOL     OW 7894   7.472   1.891   0.866 -0.9204  0.4981 -0.1468
34830SOL    HW1 7895   7.556   1.856   0.837 -0.1838 -0.0476  2.4664
34830SOL    HW2 7896   7.409   1.859   0.802  0.7574  0.2709 -1.7122
34831SOL     OW 7897   9.093   3.062   3.752 -0.3945  0.2407 -0.4051
34831SOL    HW1 7898   9.066   2.981   3.796  1.0510  0.1147  0.3014
34831SOL    HW2 7899   9.167   3.035   3.697  0.3299  1.1316  0.1130
34832SOL     OW 7900   3.786   1.336   1.905  0.1447 -0.2162 -0.0238
34832SOL    HW1 7901   3.860   1.302   1.854  0.8762  0.5871  0.4912
34832SOL    HW2 7902   3.788   1.286   1.987  0.7589  0.5120  0.4181
34833SOL     OW 7903   8.932   5.408   3.077  0.0252 -0.0078  0.1129
34833SOL    HW1 7904   9.004   5.345   3.073  0.3387  0.3781 -0.3964
34833SOL    HW2 7905   8.972   5.492   3.054 -0.6083  0.1898 -0.2783
34834SOL     OW 7906   5.964   3.111   4.526 -0.6831 -0.6353 -0.2145
34834SOL    HW1 7907   5.918   3.072   4.452  2.1760 -2.1044 -1.3231
34834SOL    HW2 7908   5.928   3.068   4.603 -1.2973 -1.5829 -1.0189
34835SOL     OW 7909  10.592   8.244   7.182  0.4351  0.3853 -0.3824
34835SOL    HW1 7910  10.611   8.193   7.104  0.2955  1.6454 -1.2454
34835SOL    HW2 7911  10.670   8.236   7.237 -0.0404 -1.7087  0.0178
34836SOL     OW 7912   7.239   3.685   2.095 -0.3128  0.2019  0.3319
34836SOL    HW1 7913   7.242   3.749   2.165 -0.7778  1.2425 -0.5939
34836SOL    HW2 7914   7.321   3.636   2.103 -0.3089  0.4015  1.5085
34837SOL     OW 7915   2.133   0.542   4.426 -0.0836  0.2747  0.0600
34837SOL    HW1 7916   2.044   0.553   4.461 -0.5207 -1.4129 -0.4629
34837SOL    HW2 7917   2.140   0.449   4.408  1.7144  0.4408 -0.1771
34838SOL     OW 7918   3.123   1.736   4.560 -0.4234  0.8833  0.1628
34838SOL    HW1 7919   3.123   1.783   4.643 -1.3469  1.1493  0.0142
34838SOL    HW2 7920   3.192   1.670   4.570  0.0365  1.4588  0.8249
34839SOL     OW 7921   4.291   5.556   3.452  0.6784  0.4830 -0.2394
34839SOL    HW1 7922   4.251   5.560   3.539  0.3651 -0.3688 -0.3435
34839SOL    HW2 7923   4.244   5.622   3.401 -0.6279 -0.5409 -0.3771
34840SOL     OW 7924   9.623   2.899   1.197 -0.1157 -0.1440 -0.0383
34840SOL    HW1 7925   9.572   2.979   1.206 -0.5254 -0.3669 -0.3575
34840SOL    HW2 7926   9.577   2.835   1.252  0.4534 -0.0485  0.5628
34841SOL     OW 7927   2.749   7.328   4.445 -0.0284  0.5173 -0.8921
34841SOL    HW1 7928   2.828   7.342   4.392  0.9656 -0.5600  0.2842
34841SOL    HW2 7929   2.679   7.369   4.394  1.3874  2.0964 -1.6236
34842SOL     OW 7930   3.438   2.753   0.067 -0.3340  0.0723 -0.8968
34842SOL    HW1 7931   3.430   2.697  -0.010 -0.5135 -2.0456  0.6105
34842SOL    HW2 7932   3.524   2.732   0.102 -0.5694  0.4389 -0.1017
34843SOL     OW 7933   4.244   5.582   5.739 -0.1277  0.0824 -0.1633
34843SOL    HW1 7934   4.251   5.522   5.665 -1.4177  1.0785 -1.1013
34843SOL    HW2 7935   4.172   5.641   5.716  0.1824  1.0912  1.3863
34844SOL     OW 7936   1.399   8.268   6.658  0.1109  0.3213  0.5850
34844SOL    HW1 7937   1.460   8.340   6.640  1.2626 -0.9176 -0.5506
34844SOL    HW2 7938   1.325   8.284   6.599 -0.7759  1.9047  2.0645
34845SOL     OW 7939   2.039   7.432   7.731 -0.0890  0.4562 -0.2164
34845SOL    HW1 7940   2.016   7.383   7.809 -2.1760 -0.4004 -1.3356
34845SOL    HW2 7941   2.130   7.409   7.714 -0.2778 -1.0377  0.7265
34846SOL     OW 7942   1.258   7.684   9.318  0.5064 -0.0824 -0.4977
34846SOL    HW1 7943   1.260   7.616   9.251 -0.4024  0.6378 -1.2769
34846SOL    HW2 7944   1.178   7.734   9.299  0.7428  0.7111  0.5419
34847SOL     OW 7945   3.519   7.187   7.876 -0.8318  0.2655 -0.4314
34847SOL    HW1 7946   3.535   7.092   7.878  0.7673  0.5484  1.5731
34847SOL    HW2 7947   3.607   7.226   7.874 -1.4750  1.7171 -2.2718
34848SOL     OW 7948   7.398   1.694   8.881 -0.3219  0.3592  0.0798
34848SOL    HW1 7949   7.331   1.627   8.869 -0.4031  0.1472  1.5846
34848SOL    HW2 7950   7.392   1.748   8.802 -0.1935 -1.4356 -1.1983
34849SOL     OW 7951   1.384   6.581   2.199 -0.0212  0.1571  0.2589
34849SOL    HW1 7952   1.464   6.571   2.251 -0.5583 -1.9682  0.7452
34849SOL    HW2 7953   1.380   6.501   2.147 -1.5637  0.4681 -0.1178
34850SOL     OW 7954  10.855   4.954   9.339 -0.4397  0.0210 -0.1711
34850SOL    HW1 7955  10.854   4.983   9.247  0.8151  1.5976  0.2821
34850SOL    HW2 7956  10.889   5.029   9.387  1.2711 -1.6347  1.2770
34851SOL     OW 7957  10.206   3.358   3.380 -0.2216  0.3810  0.1817
34851SOL    HW1 7958  10.207   3.263   3.367  0.6413  0.3798  0.2114
34851SOL    HW2 7959  10.114   3.381   3.384 -0.4388 -0.4166 -0.1508
34852SOL     OW 7960   3.679   2.775   8.689 -0.0424  0.6989  0.4479
34852SOL    HW1 7961   3.758   2.787   8.637  2.3067  1.6886  4.1155
34852SOL    HW2 7962   3.676   2.681   8.706  0.1004  0.6105 -0.0001
34853SOL     OW 7963  10.283   5.120   1.265 -0.8618  0.7604 -0.7410
34853SOL    HW1 7964  10.294   5.133   1.359 -0.6431 -1.1424 -0.4753
34853SOL    HW2 7965  10.372   5.101   1.234 -0.9116  1.5318 -1.3596
34854SOL     OW 7966   7.985   8.639   4.369 -0.1334 -0.6404 -0.2901
34854SOL    HW1 7967   8.032   8.683   4.298 -0.8900 -0.3585 -0.6332
34854SOL    HW2 7968   7.947   8.711   4.420 -1.1447 -0.8810 -0.6913
34855SOL     OW 7969   5.744   2.378   2.024 -0.3583 -0.5242  0.2341
34855SOL    HW1 7970   5.677   2.438   2.058 -0.1899 -0.5350  0.5885
34855SOL    HW2 7971   5.744   2.394   1.929 -0.8285 -0.4939  0.2382
34856SOL     OW 7972   6.890   5.832   2.862 -0.3659  0.3320 -0.3163
34856SOL    HW1 7973   6.969   5.782   2.884 -0.3639  0.4380 -0.0809
34856SOL    HW2 7974   6.916   5.923   2.871 -0.4505  0.3709 -0.4706
34857SOL     OW 7975   1.639   7.254   9.135  0.2589  0.0299  0.1732
34857SOL    HW1 7976   1.722   7.288   9.169 -0.4041 -0.5337  2.4800
34857SOL    HW2 7977   1.628   7.169   9.179 -2.5379  1.0435  1.5598
34858SOL     OW 7978   2.252   4.595  10.007 -0.2509 -0.5547  0.2901
34858SOL    HW1 7979   2.341   4.590   9.974 -0.2206 -0.0724  0.2881
34858SOL    HW2 7980   2.202   4.533   9.954  0.2282 -1.3406  0.7662
34859SOL     OW 7981   6.817   3.058   0.695 -0.5531 -0.6324 -0.2948
34859SOL    HW1 7982   6.872   3.083   0.621 -1.1870  1.6813 -0.0347
34859SOL    HW2 7983   6.728   3.055   0.659 -0.9336  1.0239  0.4555
34860SOL     OW 7984   5.989   8.723   7.139 -0.0811 -0.2625  0.6392
34860SOL    HW1 7985   6.070   8.729   7.088  0.0115 -0.5389  0.7549
34860SOL    HW2 7986   5.924   8.690   7.078 -0.3663  0.9789  0.2504
34861SOL     OW 7987   5.200  10.691   2.098  0.2873 -0.3999 -0.1997
34861SOL    HW1 7988   5.192  10.776   2.142 -0.1735 -0.4797 -0.1204
34861SOL    HW2 7989   5.111  10.656   2.098  0.2668 -0.3679 -1.2485
34862SOL     OW 7990   7.501   0.138   8.324 -0.0825  0.2159 -0.1162
34862SOL    HW1 7991   7.424   0.194   8.320  0.1566  0.5830  0.3260
34862SOL    HW2 7992   7.574   0.197   8.305  0.4958  0.7592  3.4145
34863SOL     OW 7993   8.006   7.458   0.043 -0.5409  0.2900 -0.0180
34863SOL    HW1 7994   7.992   7.365   0.058 -0.2897  0.1548 -0.6137
34863SOL    HW2 7995   8.100   7.466   0.026 -0.1898  0.9352  2.1156
34864SOL     OW 7996   6.150   8.971   2.778 -0.0921  0.0488  0.3876
34864SOL    HW1 7997   6.230   8.972   2.726 -0.6608  0.5096 -0.4744
34864SOL    HW2 7998   6.079   8.980   2.715 -0.7755  0.8557  1.2504
34865SOL     OW 7999   6.493   6.723   6.010  0.4520  0.2332  0.3114
34865SOL    HW1 8000   6.426   6.711   5.942  0.7730 -0.1880  0.0717
34865SOL    HW2 8001   6.465   6.802   6.056 -1.3497 -1.0919  1.5623
34866SOL     OW 8002   1.600   2.236  10.956  0.3959 -0.1941 -0.0743
34866SOL    HW1 8003   1.644   2.210  11.038  0.8464 -1.7350 -0.7739
34866SOL    HW2 8004   1.508   2.241  10.980  0.6683  0.6396  0.8361
34867SOL     OW 8005   0.245   6.910   9.967 -0.3390  0.4680  0.2739
34867SOL    HW1 8006   0.261   6.817   9.986 -1.3103  0.1307 -0.5146
34867SOL    HW2 8007   0.294   6.928   9.888  1.4238  1.1455  1.4951
34868SOL     OW 8008   4.104   6.187   7.787 -0.3207  0.1287 -0.0820
34868SOL    HW1 8009   4.101   6.236   7.705 -1.8538 -1.8226 -1.2427
34868SOL    HW2 8010   4.021   6.206   7.831 -0.2661 -0.2335  0.1832
34869SOL     OW 8011   3.780  10.850   1.122 -0.1939 -0.0943 -0.8123
34869SOL    HW1 8012   3.726  10.819   1.049 -0.2697  1.0996 -1.2756
34869SOL    HW2 8013   3.855  10.790   1.123  0.3886  0.5597 -2.6057
34870SOL     OW 8014   3.223   1.357   9.255  0.1659  0.0159  0.0669
34870SOL    HW1 8015   3.293   1.296   9.279  1.1078  0.0572 -2.5117
34870SOL    HW2 8016   3.146   1.323   9.302  0.6371 -3.2516 -1.3702
34871SOL     OW 8017   2.754   0.472   3.787  0.6702 -0.8610 -0.4359
34871SOL    HW1 8018   2.848   0.452   3.783  0.6902 -0.6293 -1.3404
34871SOL    HW2 8019   2.747   0.543   3.850  1.0348 -1.2685  0.0659
34872SOL     OW 8020   3.271   8.029   5.884 -0.5455  0.1558  0.2760
34872SOL    HW1 8021   3.290   8.004   5.794 -2.2982 -0.0129 -0.0694
34872SOL    HW2 8022   3.188   8.078   5.878 -1.4836 -1.1773  1.9594
34873SOL     OW 8023  10.778   1.936   1.526 -0.8782 -0.0075 -0.2042
34873SOL    HW1 8024  10.814   1.864   1.474 -0.4427 -0.0564  0.1656
34873SOL    HW2 8025  10.739   1.894   1.602  1.9683  0.3568  1.5096
34874SOL     OW 8026   5.961   5.176   2.512 -0.0965 -0.0141 -0.3379
34874SOL    HW1 8027   6.050   5.153   2.540  0.1730 -0.8947 -1.8951
34874SOL    HW2 8028   5.905   5.142   2.582  0.7803  0.5495  0.6535
34875SOL     OW 8029  10.698   6.539   9.195 -0.2197  0.1003  0.1381
34875SOL    HW1 8030  10.735   6.538   9.284 -2.0532  0.0452  0.9156
34875SOL    HW2 8031  10.678   6.447   9.177 -1.8372  0.3664  0.5271
34876SOL     OW 8032   0.825   3.791   5.346 -0.2446  0.0926  0.0728
34876SOL    HW1 8033   0.736   3.826   5.341  0.4647  2.2007  1.6885
34876SOL    HW2 8034   0.829   3.747   5.431 -0.5310 -2.3353 -1.1248
34877SOL     OW 8035   3.342   2.875  10.038 -0.1617 -0.0949 -0.0746
34877SOL    HW1 8036   3.397   2.812   9.991  1.4023  1.7070 -0.7498
34877SOL    HW2 8037   3.256   2.834  10.043  1.6138 -3.8304  2.6145
34878SOL     OW 8038   4.633   5.737   4.641  0.3063  0.5547  0.3832
34878SOL    HW1 8039   4.624   5.724   4.736 -2.2315  1.5800  0.3207
34878SOL    HW2 8040   4.620   5.831   4.628  1.6811  0.5854 -0.8939
34879SOL     OW 8041  10.267   0.087   3.450  0.0770  0.1080 -0.0063
34879SOL    HW1 8042  10.243   0.089   3.357  0.2574  0.3204 -0.0489
34879SOL    HW2 8043  10.252  -0.003   3.477  0.0978  0.0267 -0.2615
34880SOL     OW 8044   9.362   7.586   1.527 -0.3014 -0.2226 -0.0653
34880SOL    HW1 8045   9.388   7.557   1.615 -2.2810  1.9969  1.3227
34880SOL    HW2 8046   9.379   7.680   1.528 -0.4595 -0.1695 -2.0434
34881SOL     OW 8047   9.283   2.994   5.275  0.3871 -0.0133 -0.0192
34881SOL    HW1 8048   9.327   2.980   5.359  1.7462  0.5557 -0.6147
34881SOL    HW2 8049   9.201   3.037   5.297 -0.2439 -1.7492  1.1804
34882SOL     OW 8050   3.897   4.902   8.472  0.0215  0.4784  0.2503
34882SOL    HW1 8051   3.888   4.813   8.506 -1.2163  0.4840 -0.0413
34882SOL    HW2 8052   3.850   4.956   8.535  0.1375  0.8372  0.0288
34883SOL     OW 8053   2.152   3.525   5.743  1.1748 -0.0334  0.2333
34883SOL    HW1 8054   2.215   3.456   5.760 -0.8181 -1.7211  1.0402
34883SOL    HW2 8055   2.093   3.488   5.677  0.9135  1.4309 -0.3803
34884SOL     OW 8056   1.358   1.593   5.405  0.7986  0.6408 -0.2810
34884SOL    HW1 8057   1.381   1.536   5.331 -0.4219  1.1279 -1.0654
34884SOL    HW2 8058   1.402   1.676   5.386  3.0639 -0.2056  1.1672
34885SOL     OW 8059   2.510   8.356   1.748 -0.1024  0.5856 -0.2258
34885SOL    HW1 8060   2.567   8.293   1.792 -0.4191  0.4022 -0.0784
34885SOL    HW2 8061   2.504   8.430   1.809 -0.3664  0.4239 -0.0563
34886SOL     OW 8062   4.890   2.658   8.464 -0.1846 -0.1036  0.2502
34886SOL    HW1 8063   4.906   2.639   8.557 -1.2146 -2.9892 -0.1402
34886SOL    HW2 8064   4.795   2.665   8.456 -0.0791  0.5605 -0.5250
34887SOL     OW 8065   0.836   3.562   8.288 -0.4391  0.0039 -0.4202
34887SOL    HW1 8066   0.847   3.624   8.216 -0.7913  0.2866 -0.2348
34887SOL    HW2 8067   0.816   3.617   8.364  1.7320 -0.1440  0.3085
34888SOL     OW 8068   1.556   7.650   9.265  0.2684 -0.4121 -0.1374
34888SOL    HW1 8069   1.540   7.737   9.303  0.5080 -0.7554  0.7671
34888SOL    HW2 8070   1.512   7.653   9.180  0.7160  0.7704 -0.3423
34889SOL     OW 8071  10.291   7.556   1.889 -0.4569 -0.2241  0.3221
34889SOL    HW1 8072  10.231   7.565   1.814 -0.0804 -0.1975  0.0225
34889SOL    HW2 8073  10.248   7.605   1.959 -1.7833 -1.8929  0.7060
34890SOL     OW 8074  10.460   4.104   0.318  0.9349  0.6911 -0.4238
34890SOL    HW1 8075  10.500   4.158   0.386  0.7196  1.0710 -0.5949
34890SOL    HW2 8076  10.440   4.166   0.248 -1.5216  0.8318  0.3416
34891SOL     OW 8077  10.736   7.804   5.431  0.4258  0.2174  0.1179
34891SOL    HW1 8078  10.766   7.881   5.480 -0.4709  0.1790  0.7188
34891SOL    HW2 8079  10.801   7.737   5.450 -0.0724  0.1128  1.4892
34892SOL     OW 8080  10.270   8.183   9.733 -0.4571  0.3443 -0.3740
34892SOL    HW1 8081  10.312   8.249   9.788  1.0269 -2.1624  1.6057
34892SOL    HW2 8082  10.178   8.185   9.760 -0.6598  2.2710 -1.0814
34893SOL     OW 8083   3.185   5.801   4.115 -0.1141  0.3959  0.4192
34893SOL    HW1 8084   3.153   5.715   4.089  0.5738  0.2236  0.1280
34893SOL    HW2 8085   3.116   5.836   4.171 -0.6515 -0.1092  0.0792
34894SOL     OW 8086   4.547   3.203   7.663 -0.0172  0.2943 -0.0044
34894SOL    HW1 8087   4.508   3.146   7.597 -2.0546  0.7703  0.7710
34894SOL    HW2 8088   4.584   3.143   7.727  0.5352 -0.1592 -0.7388
34895SOL     OW 8089   4.950   2.409   8.889  0.1233 -0.4718 -0.4120
34895SOL    HW1 8090   4.958   2.499   8.857  0.6260  0.4264  2.1454
34895SOL    HW2 8091   5.029   2.395   8.941 -1.1472 -1.5033  1.2850
34896SOL     OW 8092   2.647   4.322   3.671  0.6709  0.3273  0.4855
34896SOL    HW1 8093   2.692   4.400   3.638 -1.1155  1.7935  1.3908
34896SOL    HW2 8094   2.714   4.272   3.717  1.3021  2.6704  2.1809
34897SOL     OW 8095   5.511   8.522   6.224 -0.2401 -0.1223  0.2745
34897SOL    HW1 8096   5.577   8.590   6.243 -1.2549  0.3043  2.4177
34897SOL    HW2 8097   5.450   8.565   6.164 -0.4293  0.6164  0.9768
34898SOL     OW 8098   2.020   1.051   3.985  0.7200 -0.3790  0.3302
34898SOL    HW1 8099   2.077   1.100   4.044  0.4951 -0.9462  1.0307
34898SOL    HW2 8100   1.948   1.022   4.041 -0.8815  1.3309 -0.7971
34899SOL     OW 8101   7.313   9.592  10.184  0.4084  0.3350 -0.2198
34899SOL    HW1 8102   7.327   9.675  10.229 -0.7758  0.3340  0.1501
34899SOL    HW2 8103   7.298   9.528  10.254 -1.8049  0.4054 -0.5996
34900SOL     OW 8104   7.737   4.409   0.761 -0.1666 -0.5458  0.1017
34900SOL    HW1 8105   7.748   4.326   0.808 -3.4171 -1.1395 -0.0710
34900SOL    HW2 8106   7.677   4.459   0.816  0.2917  0.9597 -0.7501
34901SOL     OW 8107   7.247   2.406   7.404  0.5188  0.6811 -0.1129
34901SOL    HW1 8108   7.277   2.318   7.379  1.4450  1.1153 -0.5986
34901SOL    HW2 8109   7.162   2.392   7.445  1.3706 -0.6038  1.2606
34902SOL     OW 8110   9.878   9.037   3.045 -0.4140  0.2407 -0.0046
34902SOL    HW1 8111   9.962   9.048   3.001  0.1255 -0.7909  0.7648
34902SOL    HW2 8112   9.813   9.067   2.981  0.4387 -0.1938 -1.0781
34903SOL     OW 8113   3.337   8.846   6.896  0.0348 -0.7138  0.2343
34903SOL    HW1 8114   3.417   8.794   6.896 -0.2680 -1.2148 -2.5730
34903SOL    HW2 8115   3.365   8.933   6.867  0.1706  0.1682  2.8730
34904SOL     OW 8116   3.150   4.104   5.110  0.3870 -0.1458  0.6958
34904SOL    HW1 8117   3.183   4.191   5.131 -1.7452  1.0441 -0.5857
34904SOL    HW2 8118   3.221   4.062   5.061  0.2157  2.1671 -1.6528
34905SOL     OW 8119   7.593   5.146   3.487  0.2027 -0.5851 -0.6275
34905SOL    HW1 8120   7.535   5.118   3.558  0.6295 -2.3147 -0.9580
34905SOL    HW2 8121   7.635   5.225   3.521 -0.0285 -1.0684  0.8189
34906SOL     OW 8122   1.583  10.545   3.227 -0.2948  0.1872 -0.1678
34906SOL    HW1 8123   1.641  10.521   3.299 -0.5146 -1.5350 -0.5381
34906SOL    HW2 8124   1.526  10.469   3.216 -2.8179  1.9600  0.3607
34907SOL     OW 8125   8.939   1.436   3.890 -0.0240  0.7538 -0.1079
34907SOL    HW1 8126   8.907   1.410   3.804  1.2500 -0.6211 -0.1955
34907SOL    HW2 8127   9.034   1.445   3.878 -0.0080  1.8645  0.8267
34908SOL     OW 8128   1.192   5.397   2.592  0.0692 -0.5080  0.1636
34908SOL    HW1 8129   1.159   5.464   2.532 -0.3376 -1.3320 -0.5464
34908SOL    HW2 8130   1.208   5.320   2.536  2.7269 -0.3043  0.5795
34909SOL     OW 8131   0.616   4.016   5.243 -0.6410  0.5388 -0.0730
34909SOL    HW1 8132   0.709   4.034   5.229 -0.5508  0.5952  0.5614
34909SOL    HW2 8133   0.577   4.102   5.257 -0.4126  0.3531  1.7933
34910SOL     OW 8134   3.632   2.417   0.383 -0.4011  0.1078 -0.1511
34910SOL    HW1 8135   3.683   2.378   0.454 -0.7629  0.9928  0.6188
34910SOL    HW2 8136   3.552   2.366   0.380 -0.2124 -0.1848 -0.1836
34911SOL     OW 8137   3.469  10.703   9.840  0.4378 -0.1450 -0.5995
34911SOL    HW1 8138   3.547  10.655   9.867  0.6112  0.2447 -0.3956
34911SOL    HW2 8139   3.397  10.655   9.880  0.6527  0.1045  0.0967
34912SOL     OW 8140   1.608   7.607   0.345 -0.3005 -0.3479  0.4936
34912SOL    HW1 8141   1.616   7.702   0.355 -0.7597 -0.3384  0.8270
34912SOL    HW2 8142   1.668   7.570   0.409 -0.2972 -0.2797  0.5296
34913SOL     OW 8143   5.290   9.944  10.836 -0.2047 -0.1270  0.6829
34913SOL    HW1 8144   5.340  10.015  10.797 -1.3391  1.1672  1.5193
34913SOL    HW2 8145   5.287   9.965  10.929 -0.3651 -1.3965  0.9767
34914SOL     OW 8146   0.908   7.997   9.620  0.2398 -0.1210 -0.6475
34914SOL    HW1 8147   0.906   7.902   9.606 -0.1253 -0.1127 -0.6351
34914SOL    HW2 8148   0.817   8.025   9.614 -0.0203 -0.1773  2.1585
34915SOL     OW 8149   1.738   8.690   7.708  0.0779  0.0618 -0.5495
34915SOL    HW1 8150   1.710   8.639   7.784  0.3884 -1.5364 -1.4947
34915SOL    HW2 8151   1.658   8.701   7.656 -0.2337  1.5610  0.2329
34916SOL     OW 8152   6.143   1.518  10.831 -0.0195  0.2963 -0.1972
34916SOL    HW1 8153   6.144   1.423  10.825  0.5179  0.3566 -1.2348
34916SOL    HW2 8154   6.113   1.537  10.920  0.6584 -0.8431  0.2704
34917SOL     OW 8155   8.587   2.165   1.104 -0.2482  0.3433 -0.2968
34917SOL    HW1 8156   8.566   2.072   1.096  1.6982 -0.1173 -0.1870
34917SOL    HW2 8157   8.547   2.205   1.026  0.0730 -0.7837 -1.0523
34918SOL     OW 8158   4.632   9.676   5.551 -0.6015  0.3328  0.3342
34918SOL    HW1 8159   4.645   9.588   5.516  0.7648  0.9607 -0.8042
34918SOL    HW2 8160   4.537   9.687   5.554 -0.8059 -1.4133  1.1411
34919SOL     OW 8161   6.665   1.305   7.861  0.2772  0.1665  0.7430
34919SOL    HW1 8162   6.707   1.223   7.887  2.4465  0.7080 -0.8572
34919SOL    HW2 8163   6.572   1.293   7.881  0.4676 -2.8841 -0.0061
34920SOL     OW 8164   2.379  10.308  10.262  0.0608 -0.1906  0.6508
34920SOL    HW1 8165   2.294  10.307  10.218  0.3660  0.8305  0.0064
34920SOL    HW2 8166   2.430  10.373  10.213  1.3267 -1.0382  0.8185
34921SOL     OW 8167   3.139  10.249   5.891  0.4042 -0.1538  0.4703
34921SOL    HW1 8168   3.094  10.332   5.878  0.4056 -0.1481  0.4997
34921SOL    HW2 8169   3.155  10.245   5.985  0.4790 -0.1477  0.4580
34922SOL     OW 8170   0.107   3.972   7.578 -0.2951  0.0624 -0.1091
34922SOL    HW1 8171   0.054   3.939   7.506 -0.1310 -0.0922 -0.1598
34922SOL    HW2 8172   0.060   4.050   7.609  0.4448  1.0174 -1.3681
34923SOL     OW 8173   5.059  10.289   3.921  0.4879  0.2649 -0.5025
34923SOL    HW1 8174   5.108  10.270   4.001 -0.5145  2.6651  0.7157
34923SOL    HW2 8175   4.970  10.305   3.951  0.0134  0.7788 -2.1555
34924SOL     OW 8176   4.699   6.473   3.828 -0.7327 -0.0727  0.5913
34924SOL    HW1 8177   4.647   6.395   3.848 -1.3250  0.5619  1.5692
34924SOL    HW2 8178   4.639   6.547   3.846  0.1353  0.6232  0.6401
34925SOL     OW 8179   4.667   6.692   1.721 -0.4781 -0.3276  0.0142
34925SOL    HW1 8180   4.619   6.740   1.653 -2.0072 -0.4277  0.9923
34925SOL    HW2 8181   4.743   6.746   1.740  1.9013 -1.9309 -4.2308
34926SOL     OW 8182   5.767   1.576   5.491  0.1778 -0.6670  0.6557
34926SOL    HW1 8183   5.836   1.641   5.486  0.9047 -1.3849  1.2331
34926SOL    HW2 8184   5.758   1.543   5.401 -0.3885  0.4119  0.3074
34927SOL     OW 8185  10.974   7.682   8.669 -0.6619 -0.0313 -0.3312
34927SOL    HW1 8186  11.002   7.718   8.585  0.2317 -2.0841 -0.9396
34927SOL    HW2 8187  10.880   7.665   8.657 -0.6347  0.1078 -0.7635
34928SOL     OW 8188   7.999   0.400   9.592 -0.2257  0.1382 -0.1340
34928SOL    HW1 8189   7.976   0.322   9.542 -1.0982  0.5985 -0.4617
34928SOL    HW2 8190   7.927   0.461   9.576 -1.1330 -0.1413  2.6749
34929SOL     OW 8191   4.093   9.299   3.246 -0.1653 -0.2797 -0.5885
34929SOL    HW1 8192   4.028   9.304   3.175 -1.0568 -0.8815  0.1660
34929SOL    HW2 8193   4.050   9.341   3.320  0.1513 -1.0186  0.0230
34930SOL     OW 8194   7.073   7.644   1.632 -0.3088  0.4737 -0.5213
34930SOL    HW1 8195   7.077   7.736   1.609 -1.0616  0.3160 -1.2990
34930SOL    HW2 8196   6.981   7.627   1.653  0.3383  0.6188  2.7535
34931SOL     OW 8197   3.964   9.788   0.385  0.1510 -0.3004 -0.0946
34931SOL    HW1 8198   3.871   9.772   0.401  0.4900 -1.3687  0.9147
34931SOL    HW2 8199   3.966   9.844   0.308 -1.3491  0.2086  0.2249
34932SOL     OW 8200   7.587   2.050   2.506 -0.6241  1.0158 -0.0279
34932SOL    HW1 8201   7.573   2.108   2.582 -0.5444 -0.5360  1.1926
34932SOL    HW2 8202   7.513   1.988   2.510  0.7053 -0.5804  0.2163
34933SOL     OW 8203   8.729  10.112   0.241  0.0861 -0.1786  0.1896
34933SOL    HW1 8204   8.720  10.041   0.304  0.5995 -0.0491  0.4166
34933SOL    HW2 8205   8.657  10.100   0.179 -0.0016 -0.7183  0.3989
34934SOL     OW 8206   3.507   5.379   1.888 -0.3167  0.2429 -0.6269
34934SOL    HW1 8207   3.421   5.374   1.846 -0.1999  0.5870 -0.9051
34934SOL    HW2 8208   3.489   5.416   1.974 -0.5399 -0.3456 -0.4168
34935SOL     OW 8209   2.930   5.553  10.006 -0.1544  0.2036 -0.0543
34935SOL    HW1 8210   2.857   5.493   9.989  0.2946 -0.3843  0.0801
34935SOL    HW2 8211   2.963   5.527  10.091  0.8166 -0.1604 -0.5359
34936SOL     OW 8212   0.244  10.633   4.094  0.2815 -0.0199  0.1800
34936SOL    HW1 8213   0.197  10.562   4.138 -2.2152  1.3505 -0.2390
34936SOL    HW2 8214   0.257  10.699   4.162 -0.4935  0.6131 -0.2889
34937SOL     OW 8215  10.439   5.373  10.898 -0.2921  0.2462  0.0032
34937SOL    HW1 8216  10.390   5.387  10.978 -0.0547 -1.6914  0.5201
34937SOL    HW2 8217  10.388   5.308  10.849  0.7603 -0.3636 -0.3189
34938SOL     OW 8218   5.594   4.260   8.100 -0.5834  0.4794  0.4561
34938SOL    HW1 8219   5.684   4.228   8.106 -0.5433  0.5895  0.4436
34938SOL    HW2 8220   5.561   4.256   8.190  0.1262  2.4313  0.8281
34939SOL     OW 8221   2.382   9.230   3.466  0.3458  0.7087 -0.2047
34939SOL    HW1 8222   2.333   9.306   3.496  3.0720  1.9189  1.3813
34939SOL    HW2 8223   2.345   9.157   3.516  0.6670  1.7158  1.5703
34940SOL     OW 8224   9.831   6.969   5.186 -0.6532  0.0861  0.1010
34940SOL    HW1 8225   9.879   7.044   5.152 -2.1397  1.1959  0.4224
34940SOL    HW2 8226   9.896   6.922   5.240  0.5197  0.6379 -0.8108
34941SOL     OW 8227   2.803   5.770   4.783 -0.1664  1.1320  0.0070
34941SOL    HW1 8228   2.752   5.821   4.846  1.0029 -0.0709  1.9806
34941SOL    HW2 8229   2.749   5.693   4.765 -0.9355  1.9323 -1.2734
34942SOL     OW 8230   5.852   5.456   1.794 -0.1525  0.2290  0.4067
34942SOL    HW1 8231   5.931   5.412   1.762 -0.5311 -1.5085  1.7900
34942SOL    HW2 8232   5.884   5.522   1.856  0.3489  1.1377 -0.8111
34943SOL     OW 8233   7.347   5.023  10.815  0.1667 -0.5176  0.6960
34943SOL    HW1 8234   7.381   4.993  10.899  1.1922 -1.3978 -0.0188
34943SOL    HW2 8235   7.421   5.066  10.773  0.3521 -2.1888 -0.7519
34944SOL     OW 8236   6.750   1.036   7.910  0.2416 -0.7352  0.1909
34944SOL    HW1 8237   6.814   1.021   7.979  0.4595 -1.3479 -0.1442
34944SOL    HW2 8238   6.692   0.960   7.913 -0.0583 -0.5143  0.0438
34945SOL     OW 8239  10.109   1.816   6.681  0.1262  0.0524 -0.1360
34945SOL    HW1 8240  10.192   1.843   6.642  0.3975  0.0197  0.4156
34945SOL    HW2 8241  10.133   1.759   6.754 -0.4000 -0.4818 -0.3657
34946SOL     OW 8242   7.255   7.925   7.922 -0.1010  0.0143 -0.4375
34946SOL    HW1 8243   7.178   7.903   7.870  1.2837 -0.3022 -2.4064
34946SOL    HW2 8244   7.225   7.920   8.013 -2.4434  0.1352 -1.1853
34947SOL     OW 8245   3.739   6.921   2.854 -0.0435 -0.2226  0.1529
34947SOL    HW1 8246   3.654   6.911   2.812  0.4883 -1.0563 -0.7542
34947SOL    HW2 8247   3.796   6.956   2.785  0.6223 -0.7647  0.4242
34948SOL     OW 8248   3.232   2.958   5.977 -0.1575 -0.8955 -0.4748
34948SOL    HW1 8249   3.215   2.880   6.029 -0.0875  0.0998  1.0878
34948SOL    HW2 8250   3.307   2.934   5.922 -0.3616 -2.0378 -0.2699
34949SOL     OW 8251  10.558   1.083   3.618 -0.0892 -0.4098 -0.4140
34949SOL    HW1 8252  10.540   1.177   3.612  1.1410 -0.2102 -1.3895
34949SOL    HW2 8253  10.606   1.064   3.537 -0.1595 -1.8345 -0.1220
34950SOL     OW 8254   2.224   4.037   3.762  0.0454 -0.0219 -0.3140
34950SOL    HW1 8255   2.215   4.003   3.673 -0.8628  1.2306 -0.7201
34950SOL    HW2 8256   2.174   3.977   3.816  1.8929 -1.6882 -0.4061
34951SOL     OW 8257   0.264   6.569   0.650 -0.2486 -0.0468 -0.7220
34951SOL    HW1 8258   0.252   6.541   0.559  1.6577 -1.0153 -0.7121
34951SOL    HW2 8259   0.242   6.662   0.651  0.5513  0.1673 -2.3621
34952SOL     OW 8260   6.532   4.113   8.270  0.3173 -0.0398 -0.0234
34952SOL    HW1 8261   6.464   4.087   8.332 -0.9258  1.7688 -0.6058
34952SOL    HW2 8262   6.610   4.126   8.324  0.4949 -3.0274  0.5355
34953SOL     OW 8263   2.706  10.507  10.932 -0.4983 -0.4081 -0.0325
34953SOL    HW1 8264   2.718  10.414  10.914 -2.0361 -0.5417 -0.3621
34953SOL    HW2 8265   2.757  10.551  10.863 -0.3211 -0.9845 -0.2722
34954SOL     OW 8266   7.722   7.847   5.862 -0.1354  0.2176 -0.0645
34954SOL    HW1 8267   7.817   7.847   5.869  0.0528  0.6293 -2.4801
34954SOL    HW2 8268   7.692   7.885   5.945  1.7954  0.4443  0.5464
34955SOL     OW 8269   7.073   4.047   2.879  0.4113 -0.0133 -0.3916
34955SOL    HW1 8270   7.013   4.120   2.865  1.3661  1.1149  1.2591
34955SOL    HW2 8271   7.158   4.080   2.851  0.3086 -1.6031 -2.7164
34956SOL     OW 8272   2.231   4.245   3.938  0.0538  0.1107  0.0330
34956SOL    HW1 8273   2.267   4.329   3.909 -0.0486 -0.3763 -1.5310
34956SOL    HW2 8274   2.247   4.185   3.865  0.2906 -1.2933  1.2012
34957SOL     OW 8275   7.580   8.301   6.732  0.1336 -0.4861  0.2915
34957SOL    HW1 8276   7.643   8.336   6.669 -2.1245 -1.1571 -2.4142
34957SOL    HW2 8277   7.582   8.207   6.719  0.0681 -0.6978  1.6797
34958SOL     OW 8278   2.109   3.578   4.334  0.3332 -0.4040  0.1691
34958SOL    HW1 8279   2.147   3.593   4.420  1.2209  1.2978 -0.4949
34958SOL    HW2 8280   2.026   3.626   4.336  1.1759  1.1133 -0.5029
34959SOL     OW 8281   8.880   8.146   7.389  0.1541  0.3958  0.0563
34959SOL    HW1 8282   8.881   8.077   7.456  2.4212  1.2233  0.9639
34959SOL    HW2 8283   8.944   8.117   7.324 -0.0555  0.8672 -0.3614
34960SOL     OW 8284   1.921   9.665   8.019  0.0634  0.3998  0.2205
34960SOL    HW1 8285   1.927   9.726   8.092 -0.2943 -1.0834  1.5261
34960SOL    HW2 8286   1.829   9.664   7.995 -0.2488 -1.0281  1.4440
34961SOL     OW 8287   1.200   4.677   3.505  0.5643  0.5768 -0.4620
34961SOL    HW1 8288   1.169   4.606   3.562  1.0069  0.5118 -0.2986
34961SOL    HW2 8289   1.120   4.722   3.477  0.2732 -0.0651 -0.6684
34962SOL     OW 8290   2.137   2.914  10.442  0.1925 -0.4000  0.0278
34962SOL    HW1 8291   2.044   2.902  10.458  0.3027 -1.8151 -0.3401
34962SOL    HW2 8292   2.146   2.910  10.347  0.4497  1.1462 -0.0270
34963SOL     OW 8293   4.983  10.342  10.812 -0.9969  0.1846 -0.7935
34963SOL    HW1 8294   5.050  10.305  10.754  0.2442 -0.2207  0.8531
34963SOL    HW2 8295   4.959  10.425  10.770  0.9771  0.6253 -1.1390
34964SOL     OW 8296  10.882   0.473   1.119  0.3288  0.4320  0.5554
34964SOL    HW1 8297  10.828   0.395   1.133  0.1997  0.7755  2.0832
34964SOL    HW2 8298  10.823   0.546   1.139  0.0457  0.9960 -2.1815
34965SOL     OW 8299   5.640   2.828   6.267 -0.2835  0.0029  0.2069
34965SOL    HW1 8300   5.631   2.920   6.244  1.7397 -0.5576 -3.0648
34965SOL    HW2 8301   5.580   2.783   6.209  1.9328 -1.0869 -1.3134
34966SOL     OW 8302   6.711   9.395   8.659 -0.0903  0.0186  0.2831
34966SOL    HW1 8303   6.711   9.362   8.569  0.2556 -1.1938  0.7285
34966SOL    HW2 8304   6.764   9.333   8.708  1.0793  1.5602  1.0189
34967SOL     OW 8305   5.870   6.969   7.529 -0.1515  0.2489 -0.0971
34967SOL    HW1 8306   5.793   6.931   7.572 -0.9103 -0.2140 -1.8081
34967SOL    HW2 8307   5.893   6.906   7.461 -0.1176  1.8224 -1.5905
34968SOL     OW 8308   0.544  10.589   9.823 -0.0906 -0.4243  0.2755
34968SOL    HW1 8309   0.532  10.547   9.737  1.8261 -0.9427  0.2285
34968SOL    HW2 8310   0.461  10.632   9.840 -0.2868  0.2606 -2.1608
34969SOL     OW 8311   6.232   5.905   2.589 -0.1932  0.3416 -0.3328
34969SOL    HW1 8312   6.174   5.862   2.526 -1.5781 -0.7846  1.6658
34969SOL    HW2 8313   6.316   5.859   2.580 -0.4608  0.0106 -1.1632
34970SOL     OW 8314   7.990  10.677  10.263 -0.1833 -0.2421 -0.1004
34970SOL    HW1 8315   7.976  10.664  10.357 -0.5356 -2.1413 -0.3927
34970SOL    HW2 8316   8.085  10.673  10.252 -0.0988  0.6295  0.2480
34971SOL     OW 8317   2.224   9.915   3.593  0.1000 -0.2260 -0.3768
34971SOL    HW1 8318   2.263  10.002   3.608 -1.3112  0.3134  0.2662
34971SOL    HW2 8319   2.298   9.860   3.566  1.0669  1.0961 -0.4847
34972SOL     OW 8320   7.299  10.653   4.136 -0.1734  0.0145  0.3675
34972SOL    HW1 8321   7.293  10.668   4.042  0.1701  3.3756  0.8115
34972SOL    HW2 8322   7.221  10.695   4.172 -0.3161 -1.2633  1.6073
34973SOL     OW 8323   0.720   9.386   3.480  0.1653  0.0117  0.0540
34973SOL    HW1 8324   0.682   9.332   3.549  2.4663 -1.4560  0.2063
34973SOL    HW2 8325   0.655   9.384   3.409 -1.1135 -0.4459  1.2170
34974SOL     OW 8326   0.285   1.460   1.427 -0.9490 -0.4017 -0.3350
34974SOL    HW1 8327   0.296   1.535   1.485  0.1923  0.4271 -1.6118
34974SOL    HW2 8328   0.192   1.439   1.434 -0.7933 -0.5006  1.9966
34975SOL     OW 8329  10.361  10.612   6.218 -0.3470 -0.2748  0.5023
34975SOL    HW1 8330  10.421  10.552   6.174 -0.9696 -1.0621  0.7294
34975SOL    HW2 8331  10.391  10.612   6.309 -1.0210 -1.0976  0.7336
34976SOL     OW 8332   9.833   4.217   9.354 -0.9137 -0.7787 -0.0581
34976SOL    HW1 8333   9.865   4.203   9.443  0.6766  0.7298 -0.3595
34976SOL    HW2 8334   9.792   4.134   9.329 -2.4810 -0.8091  2.5154
34977SOL     OW 8335   9.008   4.879   4.777 -0.0149  0.0221  0.2916
34977SOL    HW1 8336   9.095   4.905   4.748 -0.2149  1.1576  0.6845
34977SOL    HW2 8337   8.964   4.962   4.797 -1.3292 -0.5217 -0.3393
34978SOL     OW 8338   4.864   2.942   6.793 -0.0489  0.2204 -0.6780
34978SOL    HW1 8339   4.854   2.866   6.851  0.0785  0.7113 -0.0021
34978SOL    HW2 8340   4.848   2.908   6.705  1.5064 -0.9122 -0.5491
34979SOL     OW 8341   9.553   3.235   5.241 -0.1339  0.3585  0.0996
34979SOL    HW1 8342   9.640   3.194   5.243 -0.5806 -0.7596 -2.1319
34979SOL    HW2 8343   9.522   3.227   5.331  1.8429  0.2881  0.8130
34980SOL     OW 8344   6.182   0.312   2.766 -0.0071  0.2621 -0.2915
34980SOL    HW1 8345   6.261   0.264   2.792  0.9080  0.7902 -2.0607
34980SOL    HW2 8346   6.214   0.398   2.739 -1.3225  0.8601  0.0275
34981SOL     OW 8347   1.941   5.457   0.949 -0.3111 -0.2606  0.4240
34981SOL    HW1 8348   1.905   5.393   1.011  0.1893  0.0768  1.0603
34981SOL    HW2 8349   1.987   5.403   0.884 -1.9423 -0.7027 -0.4099
34982SOL     OW 8350   4.834   1.713   6.594  0.5575  0.4751 -0.3131
34982SOL    HW1 8351   4.897   1.692   6.663 -1.2974 -0.2688  1.2171
34982SOL    HW2 8352   4.748   1.696   6.634 -0.6089  1.1240 -2.4431
34983SOL     OW 8353   5.449   6.996   4.797  0.3518  0.4176  0.3772
34983SOL    HW1 8354   5.432   7.089   4.777  1.5872  0.5144 -0.2172
34983SOL    HW2 8355   5.513   6.969   4.732  3.0738  0.2456  3.0548
34984SOL     OW 8356   2.460   6.607   6.669  0.4061  0.1675 -0.3555
34984SOL    HW1 8357   2.383   6.551   6.669 -0.1705  0.9278  1.3448
34984SOL    HW2 8358   2.530   6.552   6.705  0.0577  0.2425  0.4475
34985SOL     OW 8359   0.662   4.425   4.095 -0.2508 -0.2229  0.1476
34985SOL    HW1 8360   0.753   4.420   4.123 -0.2371  1.2441  0.4206
34985SOL    HW2 8361   0.666   4.425   3.999  0.0054 -0.6313  0.1593
34986SOL     OW 8362   4.261  10.920   4.114 -0.4333 -0.2543  0.3171
34986SOL    HW1 8363   4.180  10.870   4.103 -0.6301  0.3424 -1.0472
34986SOL    HW2 8364   4.235  10.998   4.163 -0.7092  0.0219 -0.2756
34987SOL     OW 8365   8.778  10.875   9.504 -0.0351  0.2431 -0.2102
34987SOL    HW1 8366   8.777  10.798   9.561 -0.0026 -0.6588 -1.4120
34987SOL    HW2 8367   8.752  10.947   9.561 -1.7204 -0.9244  0.5476
34988SOL     OW 8368   5.462   1.324   4.343 -0.7523  0.3735 -0.4099
34988SOL    HW1 8369   5.511   1.347   4.422 -2.0813  1.3391  0.1504
34988SOL    HW2 8370   5.528   1.288   4.284  0.5039  0.9282  0.6212
34989SOL     OW 8371   1.597   1.702   7.777  0.0384 -0.1351  0.1592
34989SOL    HW1 8372   1.603   1.645   7.700 -1.4293 -0.9783  0.6554
34989SOL    HW2 8373   1.588   1.642   7.851 -0.8661  0.7189  0.7519
34990SOL     OW 8374   3.847   3.356   4.511 -0.5762 -0.5160 -0.4860
34990SOL    HW1 8375   3.849   3.296   4.436 -1.3083  1.8364 -2.4523
34990SOL    HW2 8376   3.914   3.422   4.491 -1.7400  0.9188  0.2210
34991SOL     OW 8377  10.424   6.894   8.837 -0.0894  0.2120  0.1059
34991SOL    HW1 8378  10.397   6.983   8.816  1.1976  0.5598 -0.1048
34991SOL    HW2 8379  10.427   6.891   8.933  0.8434  0.7004  0.0975
34992SOL     OW 8380   8.240   9.735   7.510 -0.8187 -0.5470  0.3651
34992SOL    HW1 8381   8.228   9.830   7.508 -0.1005 -0.4421  1.1166
34992SOL    HW2 8382   8.166   9.703   7.561  0.1279 -0.2003  1.9685
34993SOL     OW 8383   2.922   5.953   8.482  0.3878  0.6800  0.0454
34993SOL    HW1 8384   2.995   6.012   8.465  1.0230 -0.2784 -0.5959
34993SOL    HW2 8385   2.883   5.937   8.395  0.2827  0.0855  0.1990
34994SOL     OW 8386  10.134   5.978   7.379 -0.7273 -0.3565  0.1436
34994SOL    HW1 8387  10.155   5.990   7.471 -0.1396  1.6558 -0.2344
34994SOL    HW2 8388  10.048   6.018   7.368  0.0254  1.1372 -0.5453
34995SOL     OW 8389   1.961   4.839   3.048 -0.2359  0.4363  0.4436
34995SOL    HW1 8390   1.995   4.807   2.965 -1.2579 -3.1140  1.3232
34995SOL    HW2 8391   2.037   4.880   3.091  1.3421 -1.4389 -0.4617
34996SOL     OW 8392   5.084   3.742   0.682 -0.0961  0.2182 -0.1605
34996SOL    HW1 8393   5.121   3.732   0.769  0.6817  0.4424 -0.4566
34996SOL    HW2 8394   5.014   3.805   0.692  0.3399  0.6436  0.2070
34997SOL     OW 8395   3.613   1.718   1.594 -0.3483 -0.0935  0.4072
34997SOL    HW1 8396   3.644   1.808   1.597  0.6472 -0.4621  1.6244
34997SOL    HW2 8397   3.518   1.725   1.594 -0.2744  0.9593  0.1937
34998SOL     OW 8398   9.840   7.280   6.304 -0.3485 -0.0859  0.0483
34998SOL    HW1 8399   9.809   7.349   6.245  0.3678  0.2963  0.1038
34998SOL    HW2 8400   9.805   7.304   6.390  0.3588  0.5241  0.1744
34999SOL     OW 8401   1.815   0.389   7.643 -0.2775 -0.3562 -0.0341
34999SOL    HW1 8402   1.896   0.394   7.592 -0.8734 -0.1875 -0.9644
34999SOL    HW2 8403   1.837   0.431   7.727  0.5232 -0.0853 -0.3771
35000SOL     OW 8404   3.510   3.674   2.123 -0.3632 -0.3534 -0.0843
35000SOL    HW1 8405   3.553   3.622   2.055  1.1091  0.9621 -0.1777
35000SOL    HW2 8406   3.541   3.763   2.108 -4.2372  0.9517 -1.0884
35001SOL     OW 8407  10.700   2.403   9.166  0.1120  0.4078  0.5328
35001SOL    HW1 8408  10.653   2.443   9.240 -0.7124 -0.5210  0.5283
35001SOL    HW2 8409  10.690   2.308   9.180  0.8353  0.2167 -0.2103
35002SOL     OW 8410   7.619   6.500   4.023 -0.6352 -0.1280 -0.2333
35002SOL    HW1 8411   7.544   6.518   4.079  0.7236 -0.5398  1.7860
35002SOL    HW2 8412   7.624   6.405   4.019  0.1222 -0.1070  0.1305
35003SOL     OW 8413  10.669   7.992   0.492  0.2487 -0.2740 -0.1534
35003SOL    HW1 8414  10.594   7.954   0.539  0.0225 -1.0474 -1.1309
35003SOL    HW2 8415  10.656   8.086   0.501  0.5856 -0.3932  1.9270
35004SOL     OW 8416   4.286   1.622   1.651  0.3370  0.2421 -0.7512
35004SOL    HW1 8417   4.228   1.551   1.680  1.6194 -0.2411  0.7009
35004SOL    HW2 8418   4.357   1.577   1.605  0.9872  0.6091 -0.1055
35005SOL     OW 8419   8.859   5.503  10.724 -0.2887 -0.1024 -0.0093
35005SOL    HW1 8420   8.807   5.534  10.650  0.4062 -0.5593 -0.6925
35005SOL    HW2 8421   8.911   5.431  10.689  0.3558 -0.0534  0.8179
35006SOL     OW 8422   6.844   9.161   8.733 -0.0217  0.2969  0.3759
35006SOL    HW1 8423   6.766   9.114   8.703  0.1313 -0.0782  0.5570
35006SOL    HW2 8424   6.879   9.106   8.803  0.7774  0.1119 -0.1521
35007SOL     OW 8425   0.040   2.476   1.150  0.0445  0.4313  0.1571
35007SOL    HW1 8426   0.087   2.558   1.137 -1.5693  1.0631 -2.1226
35007SOL    HW2 8427  -0.052   2.503   1.160 -0.3913 -1.0337  0.2276
35008SOL     OW 8428   4.634   9.143   3.721 -0.6319 -0.3167 -0.8306
35008SOL    HW1 8429   4.654   9.183   3.636  0.0221 -0.1228 -0.5936
35008SOL    HW2 8430   4.675   9.057   3.717 -0.3159 -0.1812 -0.5966
35009SOL     OW 8431   4.139   6.422   4.975  0.7194  0.0197  0.1718
35009SOL    HW1 8432   4.179   6.366   4.908  0.5794 -1.2545  1.1323
35009SOL    HW2 8433   4.067   6.370   5.010  0.4103  0.9189  0.8957
35010SOL     OW 8434   4.347   2.229   8.824 -0.1542  0.1755 -0.0079
35010SOL    HW1 8435   4.344   2.179   8.742  1.3247 -1.9417  1.1785
35010SOL    HW2 8436   4.256   2.229   8.855 -0.5504  0.1291 -1.1437
35011SOL     OW 8437   8.004   6.931   3.211 -0.1280 -0.2767 -0.4467
35011SOL    HW1 8438   8.031   7.005   3.265 -1.9136 -0.3941  0.6597
35011SOL    HW2 8439   8.029   6.854   3.263  0.0174 -0.4197 -0.7294
35012SOL     OW 8440   4.529   0.492   6.123  0.5153 -0.2750  0.0524
35012SOL    HW1 8441   4.600   0.505   6.186 -0.2374 -0.5083  0.9725
35012SOL    HW2 8442   4.568   0.441   6.052  1.5010  0.3938  0.1067
35013SOL     OW 8443  10.970   1.307   8.951  0.1004  0.4453 -0.6959
35013SOL    HW1 8444  11.054   1.264   8.937 -0.2704  0.2860 -2.5998
35013SOL    HW2 8445  10.990   1.380   9.009  1.5382  0.3236 -1.0169
35014SOL     OW 8446   7.698   7.501   7.242 -0.7823  0.0527  0.0172
35014SOL    HW1 8447   7.676   7.440   7.313  0.1884 -0.7789 -0.3844
35014SOL    HW2 8448   7.624   7.493   7.181 -2.1750  1.6102  1.4451
35015SOL     OW 8449   7.087   0.982   9.151 -0.2859  0.1448 -0.2401
35015SOL    HW1 8450   7.181   0.970   9.166 -0.0342  1.8866 -0.3228
35015SOL    HW2 8451   7.062   1.049   9.215 -1.2088  0.6082 -1.0904
35016SOL     OW 8452   9.051   5.902   7.382 -0.6731  0.4910 -0.4471
35016SOL    HW1 8453   9.022   5.979   7.333  0.1114  1.3217  0.3636
35016SOL    HW2 8454   9.094   5.847   7.317 -0.5770  1.0920 -0.8990
35017SOL     OW 8455  10.696   2.911   5.918  0.0785  0.2281 -0.5333
35017SOL    HW1 8456  10.721   2.890   5.828 -0.9680 -0.9547 -0.5650
35017SOL    HW2 8457  10.630   2.979   5.910  0.0608  0.1949 -0.6632
35018SOL     OW 8458   7.434  10.840   4.352  0.1972  0.0808 -0.0735
35018SOL    HW1 8459   7.453  10.747   4.368 -1.0775 -0.1562  0.1555
35018SOL    HW2 8460   7.340  10.842   4.333  0.4804  1.1625 -1.4383
35019SOL     OW 8461   1.698   7.862   3.821  0.1839  0.2799  0.0800
35019SOL    HW1 8462   1.654   7.943   3.847  1.5181  0.6264  1.3201
35019SOL    HW2 8463   1.627   7.803   3.798 -0.9992  0.6073  2.6784
35020SOL     OW 8464   4.511   9.835   1.233  0.1660  0.3246 -0.4080
35020SOL    HW1 8465   4.582   9.850   1.294 -0.3893  1.4146 -0.0131
35020SOL    HW2 8466   4.511   9.913   1.176 -0.5389  0.2285 -0.5527
35021SOL     OW 8467   9.016   6.331  10.195  0.0313 -0.3004  0.3740
35021SOL    HW1 8468   9.040   6.413  10.237  0.2852 -0.1610 -0.0464
35021SOL    HW2 8469   9.099   6.291  10.171 -0.1374  0.0499 -0.8286
35022SOL     OW 8470   5.913   8.073   0.395 -0.5481  0.4328 -0.3444
35022SOL    HW1 8471   5.876   8.005   0.338  0.5057  1.0193 -1.7417
35022SOL    HW2 8472   5.905   8.036   0.483 -1.6322 -0.7500 -0.9167
35023SOL     OW 8473   5.504   5.140   3.620 -0.4215  0.3015  0.1460
35023SOL    HW1 8474   5.563   5.068   3.642  0.0863  0.2287 -1.3867
35023SOL    HW2 8475   5.540   5.216   3.667  1.7043  0.5546 -1.8088
35024SOL     OW 8476   3.255   8.978   3.047  0.9353  0.0970 -0.6062
35024SOL    HW1 8477   3.296   9.011   2.967 -0.3026 -1.2289 -1.8196
35024SOL    HW2 8478   3.262   9.050   3.110  1.8652  1.1762 -1.9213
35025SOL     OW 8479   8.166   4.282   7.417  0.0982 -0.5398  0.1757
35025SOL    HW1 8480   8.200   4.246   7.499 -0.2294 -0.9334  0.1428
35025SOL    HW2 8481   8.081   4.318   7.441  0.0484 -0.5628  0.0307
35026SOL     OW 8482  10.187   3.067   1.066 -0.3293 -0.6121 -0.0889
35026SOL    HW1 8483  10.227   2.981   1.078  0.4855 -0.1838  0.3022
35026SOL    HW2 8484  10.209   3.115   1.146 -2.4785 -0.6938  0.5962
35027SOL     OW 8485   7.916   6.010   4.195  0.5119 -0.1451 -0.1949
35027SOL    HW1 8486   8.000   6.037   4.157  1.1720 -0.6610  0.8714
35027SOL    HW2 8487   7.864   6.090   4.197  1.1958  0.3110 -0.3052
35028SOL     OW 8488   6.782   7.739   4.116  0.2713  0.2706 -0.2725
35028SOL    HW1 8489   6.727   7.674   4.159 -0.1177  0.5928 -0.2834
35028SOL    HW2 8490   6.721   7.797   4.072  0.6348  0.4179 -0.5861
35029SOL     OW 8491   9.484   5.835   2.399  0.2045 -0.1462 -0.3657
35029SOL    HW1 8492   9.483   5.749   2.439  3.0508 -0.3528 -0.6016
35029SOL    HW2 8493   9.542   5.887   2.454 -2.0438  1.8609  0.1845
35030SOL     OW 8494  10.125   7.860   7.065 -0.0685 -0.3384  0.5034
35030SOL    HW1 8495  10.084   7.807   7.134 -1.3528 -0.2279 -0.1727
35030SOL    HW2 8496  10.211   7.820   7.053 -0.9855 -2.2355  0.0564
35031SOL     OW 8497   0.559   2.770   8.205 -0.1107  0.1373  0.6171
35031SOL    HW1 8498   0.594   2.854   8.174  0.6115 -0.7547 -1.0937
35031SOL    HW2 8499   0.637   2.719   8.228 -0.4671 -0.5676  0.2786
35032SOL     OW 8500   1.678   4.000   3.957  0.3710  0.7288  0.6784
35032SOL    HW1 8501   1.662   4.040   4.042 -0.3781  0.9673  0.4288
35032SOL    HW2 8502   1.766   4.030   3.933  0.5981  0.6334  1.3775
35033SOL     OW 8503   0.358   0.975   5.127 -0.3518 -0.2233 -0.0003
35033SOL    HW1 8504   0.445   1.000   5.097  0.0736  0.6924  1.9174
35033SOL    HW2 8505   0.307   0.965   5.047  0.7058  2.2416 -1.0412
35034SOL     OW 8506   5.768   3.016   3.180  0.0502  0.0923  0.6185
35034SOL    HW1 8507   5.782   2.995   3.088 -0.1979 -1.6985  0.9834
35034SOL    HW2 8508   5.680   3.054   3.183 -0.1539 -0.3532  0.2029
35035SOL     OW 8509   8.838  10.329   7.255  0.0907  0.4752 -0.2304
35035SOL    HW1 8510   8.862  10.315   7.163  1.6887  0.8715  0.1163
35035SOL    HW2 8511   8.905  10.389   7.289 -1.2149  1.3427  0.8636
35036SOL     OW 8512   9.515   7.286   0.780  0.1063 -0.1690 -0.3383
35036SOL    HW1 8513   9.471   7.370   0.787  0.5009  0.1722 -1.8542
35036SOL    HW2 8514   9.551   7.271   0.868  0.4944  1.4911 -0.1991
35037SOL     OW 8515   3.202   2.827   3.926 -0.2943  0.3400  0.3364
35037SOL    HW1 8516   3.108   2.817   3.909 -0.0997  0.0789 -0.6341
35037SOL    HW2 8517   3.232   2.739   3.947 -0.3178  0.4690  0.9061
35038SOL     OW 8518   3.563   7.262   6.573  0.3837 -0.3230 -0.0806
35038SOL    HW1 8519   3.491   7.260   6.509  1.6742 -0.3304 -1.5592
35038SOL    HW2 8520   3.565   7.352   6.604 -1.4666 -0.7466  1.4022
35039SOL     OW 8521   7.590   1.474   7.134 -0.3827  1.1551 -0.4283
35039SOL    HW1 8522   7.677   1.435   7.126 -0.6351  0.4799  0.0866
35039SOL    HW2 8523   7.596   1.556   7.086  0.1543  0.4836 -1.5197
35040SOL     OW 8524   6.472   0.399   5.447 -0.3104  0.0765  0.6435
35040SOL    HW1 8525   6.393   0.352   5.473 -1.3851  1.7443  0.4674
35040SOL    HW2 8526   6.448   0.443   5.366  0.8529  0.4963  0.5194
35041SOL     OW 8527   4.621   7.448  10.619 -0.4209 -0.9786 -0.9951
35041SOL    HW1 8528   4.659   7.361  10.614 -0.3343 -1.1088  1.4162
35041SOL    HW2 8529   4.549   7.447  10.556  0.7394 -2.1652 -2.3303
35042SOL     OW 8530   9.316   1.509   7.418 -0.1377  0.1738  0.4947
35042SOL    HW1 8531   9.364   1.483   7.497 -0.2793  2.5634  1.4147
35042SOL    HW2 8532   9.358   1.591   7.391 -2.1167  1.0202 -0.0853
35043SOL     OW 8533   3.685   9.092   0.347  0.1817  0.0992  0.3420
35043SOL    HW1 8534   3.723   9.163   0.397 -0.6243 -0.2295  1.4520
35043SOL    HW2 8535   3.667   9.024   0.412  0.2546 -0.8189 -0.5821
35044SOL     OW 8536   7.245   3.959   5.724  0.5741 -0.4453  0.4593
35044SOL    HW1 8537   7.264   3.995   5.811 -0.2302  0.5857  0.2168
35044SOL    HW2 8538   7.214   4.034   5.673 -0.0155 -1.2566 -0.3929
35045SOL     OW 8539   5.358   0.829   1.124 -0.1089 -0.2593  0.6535
35045SOL    HW1 8540   5.331   0.846   1.034  1.1130  1.1722  0.5398
35045SOL    HW2 8541   5.276   0.819   1.173 -0.7801 -1.1029 -0.6082
35046SOL     OW 8542   4.379   9.923   9.003 -0.1917  0.2682 -0.0592
35046SOL    HW1 8543   4.343   9.964   9.082  1.4045  0.3534  0.6406
35046SOL    HW2 8544   4.316   9.945   8.934 -0.8908  1.3611  0.9015
35047SOL     OW 8545   0.479   4.615   2.010  0.3448  0.0834  0.3430
35047SOL    HW1 8546   0.476   4.520   2.001 -1.3673  0.1171  0.2681
35047SOL    HW2 8547   0.415   4.646   1.945  1.9992  1.3703 -0.7120
35048SOL     OW 8548   3.628   4.948   3.343 -0.3672  0.0485  0.6692
35048SOL    HW1 8549   3.698   4.976   3.284 -0.4956 -1.2415 -0.1239
35048SOL    HW2 8550   3.666   4.873   3.390 -1.3473 -0.9152 -0.0604
35049SOL     OW 8551   6.892   4.069   4.093  0.3114  0.2686 -0.2679
35049SOL    HW1 8552   6.843   3.993   4.125  2.2824 -0.4630  1.1211
35049SOL    HW2 8553   6.963   4.032   4.041  1.3276  1.1278  0.4719
35050SOL     OW 8554   8.692  10.474   2.739  0.8219 -0.2717  0.8006
35050SOL    HW1 8555   8.722  10.502   2.825  1.6343 -0.5970  0.6299
35050SOL    HW2 8556   8.606  10.515   2.729  1.4291  1.0966  1.0844
35051SOL     OW 8557   8.190   2.628   0.595 -0.5186  0.2597  0.0727
35051SOL    HW1 8558   8.133   2.563   0.554 -0.1695 -0.2520  0.4022
35051SOL    HW2 8559   8.278   2.606   0.565 -0.5599  1.4129 -0.9116
35052SOL     OW 8560   4.909   3.492   2.779 -1.1222 -0.3037  0.5247
35052SOL    HW1 8561   4.995   3.491   2.737 -0.8769  2.3171  0.8872
35052SOL    HW2 8562   4.918   3.430   2.852  0.4466 -0.1130  0.5160
35053SOL     OW 8563   4.799   8.739  10.592 -0.1773  0.2318 -0.1399
35053SOL    HW1 8564   4.755   8.694  10.520 -0.0759  0.1846 -0.1718
35053SOL    HW2 8565   4.730   8.752  10.658 -0.2856  0.3412 -0.2762
35054SOL     OW 8566   4.046   5.626   3.925  0.1520  0.2384 -0.0050
35054SOL    HW1 8567   4.037   5.698   3.987 -2.0728  0.7468 -0.8754
35054SOL    HW2 8568   4.068   5.550   3.979  2.6093  1.5404  0.9103
35055SOL     OW 8569   1.783   7.032   5.619  0.1836  0.1467 -0.0874
35055SOL    HW1 8570   1.735   7.094   5.673  1.1058  1.1377 -0.3872
35055SOL    HW2 8571   1.793   7.077   5.534  1.6905  0.0092 -0.0086
35056SOL     OW 8572   1.894   4.610   9.845  0.2950  0.1510  0.5375
35056SOL    HW1 8573   1.878   4.542   9.910  0.6924 -1.0395 -0.5855
35056SOL    HW2 8574   1.891   4.564   9.761  0.2942  1.5691 -0.2518
35057SOL     OW 8575   2.753   0.002   9.048 -0.1705 -0.2365  0.3886
35057SOL    HW1 8576   2.731  -0.013   9.140 -2.1550 -0.2941 -0.0573
35057SOL    HW2 8577   2.831   0.057   9.050 -1.2041  1.2340  2.1405
35058SOL     OW 8578   0.260   8.910   6.414  0.3156 -0.6114 -0.1778
35058SOL    HW1 8579   0.229   9.000   6.406  0.6979 -0.5052 -0.4844
35058SOL    HW2 8580   0.288   8.886   6.326  1.4872 -0.5570  0.1619
35059SOL     OW 8581  10.676   6.261   9.601 -0.0375 -0.0128  0.0475
35059SOL    HW1 8582  10.714   6.182   9.561 -1.8352 -0.3130 -1.1196
35059SOL    HW2 8583  10.747   6.297   9.654  0.8556 -2.3415  0.4992
35060SOL     OW 8584   1.292   8.740   9.510 -0.5637 -0.4630 -0.3216
35060SOL    HW1 8585   1.201   8.710   9.502 -0.2668 -2.0561  1.8908
35060SOL    HW2 8586   1.294   8.786   9.594  0.9268 -1.4145  0.1737
35061SOL     OW 8587   6.619   2.560   8.351  0.1975  0.2758 -0.1071
35061SOL    HW1 8588   6.562   2.632   8.327  0.1695 -0.3415 -1.9414
35061SOL    HW2 8589   6.699   2.602   8.382 -0.3673  1.0987  0.2499
35062SOL     OW 8590  10.333  10.946  10.795 -0.5205 -0.5533  0.5404
35062SOL    HW1 8591  10.252  10.950  10.745 -1.3687 -1.0549  1.8574
35062SOL    HW2 8592  10.334  11.028  10.845  0.2422 -0.1308 -0.1457
35063SOL     OW 8593   1.640   6.683   3.798  0.6262 -0.4413  0.0447
35063SOL    HW1 8594   1.549   6.701   3.820  0.5135  1.3589 -1.6962
35063SOL    HW2 8595   1.672   6.765   3.760  3.0136 -1.0056  0.7397
35064SOL     OW 8596   9.628   8.618   9.408  0.1498 -0.0875  0.9471
35064SOL    HW1 8597   9.595   8.566   9.482 -0.4356  0.5226  1.1158
35064SOL    HW2 8598   9.723   8.613   9.417  0.0883 -0.3856  1.4869
35065SOL     OW 8599   4.148   3.331   0.965  0.2028  0.3434  0.0373
35065SOL    HW1 8600   4.133   3.411   0.914  0.8382  1.1839  1.1539
35065SOL    HW2 8601   4.170   3.362   1.053 -1.8623 -1.1018  1.1140
35066SOL     OW 8602   5.079   5.657   4.745  0.2386  0.0261 -0.1834
35066SOL    HW1 8603   5.111   5.731   4.695 -0.0238 -0.2282 -0.7284
35066SOL    HW2 8604   5.155   5.628   4.795 -0.1744  1.9405  1.6292
35067SOL     OW 8605   0.196   0.927   4.267 -0.2384  0.1812 -0.4933
35067SOL    HW1 8606   0.281   0.961   4.239  0.4513 -0.8846  0.2632
35067SOL    HW2 8607   0.133   0.995   4.241  0.8420  0.9960 -1.0223
35068SOL     OW 8608   4.344   4.573   5.499  0.3873  0.1572 -0.5490
35068SOL    HW1 8609   4.304   4.489   5.480  1.6367  0.0724 -3.0307
35068SOL    HW2 8610   4.274   4.626   5.537 -0.3633 -2.0243  1.2168
35069SOL     OW 8611   7.198   0.202   8.046 -0.5167  0.6108  0.1401
35069SOL    HW1 8612   7.209   0.292   8.015 -0.7790 -0.3356 -2.8919
35069SOL    HW2 8613   7.148   0.159   7.977  0.3422 -2.0958  1.1372
35070SOL     OW 8614   0.198   5.054  10.533 -0.2356  0.0513 -0.1393
35070SOL    HW1 8615   0.242   5.138  10.545 -2.5355  1.1993  0.7268
35070SOL    HW2 8616   0.162   5.058  10.445 -0.5519  0.0942 -0.0101
35071SOL     OW 8617   6.989   5.914   5.722  0.5852  0.1938  0.8433
35071SOL    HW1 8618   6.973   5.984   5.659  1.0427 -0.4875 -0.0554
35071SOL    HW2 8619   6.935   5.936   5.798 -1.4871  0.0137 -0.5535
35072SOL     OW 8620   5.128   2.901   0.938 -0.5258 -0.0518  0.1959
35072SOL    HW1 8621   5.038   2.896   0.906 -0.2791 -1.4846 -0.3431
35072SOL    HW2 8622   5.168   2.972   0.888 -1.1637  0.1170 -0.0778
35073SOL     OW 8623   0.581   3.481   4.891 -1.1334 -0.2400  0.1350
35073SOL    HW1 8624   0.549   3.423   4.822 -0.3613  1.3894 -1.6289
35073SOL    HW2 8625   0.643   3.538   4.847 -0.2883  0.5389  2.2948
35074SOL     OW 8626   6.528   5.075   3.699  0.2529 -0.0522 -0.1051
35074SOL    HW1 8627   6.549   5.057   3.607 -0.6924  1.6059 -0.6663
35074SOL    HW2 8628   6.464   5.007   3.722 -0.5449  0.3395 -1.1021
35075SOL     OW 8629   1.042   7.499   5.272 -0.8386 -0.2160  0.4492
35075SOL    HW1 8630   1.067   7.479   5.362 -0.7937 -1.8137  0.0891
35075SOL    HW2 8631   1.126   7.509   5.226 -0.8437 -1.7121  0.0904
35076SOL     OW 8632   5.873   6.734   7.052  0.5046  0.1653  0.2122
35076SOL    HW1 8633   5.934   6.763   6.985 -0.4852 -1.6729 -1.5294
35076SOL    HW2 8634   5.802   6.798   7.049 -0.7864 -1.3224 -2.3279
35077SOL     OW 8635   0.544   7.527   5.272 -0.3927  0.0304 -0.1464
35077SOL    HW1 8636   0.471   7.582   5.244 -0.2101  0.5975  0.4697
35077SOL    HW2 8637   0.618   7.556   5.219 -0.2943  0.3818  0.1855
35078SOL     OW 8638   6.229  10.283   3.780 -0.0834  0.0693 -0.1206
35078SOL    HW1 8639   6.231  10.209   3.720  1.9144 -1.2880  1.5303
35078SOL    HW2 8640   6.280  10.351   3.736  0.3092 -0.4698 -0.5078
35079SOL     OW 8641   9.499   9.743   1.120  0.3211  0.3378  0.4199
35079SOL    HW1 8642   9.434   9.810   1.143 -0.0737  0.7636 -1.7966
35079SOL    HW2 8643   9.583   9.783   1.140 -0.0181  0.6098  1.3063
35080SOL     OW 8644   1.530   6.651   6.981  0.3506  0.0557 -0.1952
35080SOL    HW1 8645   1.449   6.629   6.935  0.7781  0.3289 -1.0903
35080SOL    HW2 8646   1.586   6.575   6.969 -0.6169 -1.1320  2.4451
35081SOL     OW 8647   5.660   4.943   1.243  0.1658  0.5728 -0.2418
35081SOL    HW1 8648   5.674   4.850   1.226  0.1256  0.8657 -1.9109
35081SOL    HW2 8649   5.584   4.967   1.191  0.0066  1.4922  0.3801
35082SOL     OW 8650   9.850   2.312   5.113  0.8166 -0.4248  0.6704
35082SOL    HW1 8651   9.873   2.371   5.185  1.9808 -0.2025  0.1322
35082SOL    HW2 8652   9.757   2.329   5.097  1.4721  2.3172 -0.4225
35083SOL     OW 8653   5.928   8.629  10.756  0.2487  0.5985 -0.0955
35083SOL    HW1 8654   5.874   8.578  10.697  0.2779  2.2575 -1.5991
35083SOL    HW2 8655   6.018   8.608  10.731  0.2616  1.2686 -0.6248
35084SOL     OW 8656   0.002   5.987   8.778  0.0431 -0.4178 -0.2018
35084SOL    HW1 8657  -0.034   6.008   8.864 -0.7320 -1.1236 -0.3505
35084SOL    HW2 8658  -0.014   6.065   8.725 -1.2914 -0.7214 -0.2665
35085SOL     OW 8659   0.845   6.348   0.937  0.3407 -0.0981 -0.2186
35085SOL    HW1 8660   0.891   6.430   0.954 -0.6339  0.1853  1.0597
35085SOL    HW2 8661   0.754   6.373   0.925 -0.5749 -1.3028  3.5229
35086SOL     OW 8662   3.483   5.151   7.312 -0.1057 -0.3511  0.5848
35086SOL    HW1 8663   3.563   5.159   7.366  1.0363  1.3473 -1.2948
35086SOL    HW2 8664   3.449   5.240   7.308 -2.6719 -1.2198  2.1294
35087SOL     OW 8665   2.551   0.599   9.213 -0.0092 -0.0307  0.7042
35087SOL    HW1 8666   2.572   0.623   9.123 -0.5453 -2.3888 -0.0819
35087SOL    HW2 8667   2.542   0.683   9.259  2.4813  1.1615 -0.8955
35088SOL     OW 8668   4.322   1.082   5.215  0.2578  0.2730  0.3696
35088SOL    HW1 8669   4.255   1.052   5.154 -1.3338  0.7007  1.8638
35088SOL    HW2 8670   4.375   1.004   5.233 -0.3236 -0.2607 -0.2154
35089SOL     OW 8671   3.247   6.172  10.300 -0.6224 -0.5768 -0.1607
35089SOL    HW1 8672   3.259   6.081  10.273  1.0656 -0.1183 -1.0216
35089SOL    HW2 8673   3.303   6.222  10.240 -0.1913  0.8649  1.4154
35090SOL     OW 8674   4.035   7.625   2.130 -0.0024 -0.4613 -0.3832
35090SOL    HW1 8675   4.042   7.680   2.208 -0.4788 -1.0941  0.1038
35090SOL    HW2 8676   3.962   7.566   2.148 -0.1228 -0.6107 -1.3078
35091SOL     OW 8677  10.779  10.667   9.992 -0.0372  0.1097 -0.2458
35091SOL    HW1 8678  10.717  10.669  10.065  1.2072 -2.0048  0.9181
35091SOL    HW2 8679  10.762  10.584   9.948  2.4802 -0.8964  0.5867
35092SOL     OW 8680   4.089   7.462   6.251  0.0585 -0.1024 -0.3348
35092SOL    HW1 8681   4.042   7.446   6.170 -0.3840 -1.4892  0.1912
35092SOL    HW2 8682   4.176   7.424   6.236 -0.6274 -2.0281  0.5067
35093SOL     OW 8683   7.300   2.801   7.492  0.5376  0.4459 -0.3088
35093SOL    HW1 8684   7.298   2.715   7.534 -0.9158  0.2429 -0.7665
35093SOL    HW2 8685   7.337   2.784   7.405  0.6613  0.3559 -0.2382
35094SOL     OW 8686   4.023   8.276   9.380 -0.0010 -0.6352  0.3425
35094SOL    HW1 8687   3.939   8.317   9.401  0.7134  0.4134  1.2130
35094SOL    HW2 8688   4.043   8.222   9.456 -0.5624 -2.0062 -0.4706
35095SOL     OW 8689   6.809   6.853   6.277 -0.2826  0.2297  0.2244
35095SOL    HW1 8690   6.883   6.900   6.316  0.4092 -0.1963 -0.5618
35095SOL    HW2 8691   6.734   6.879   6.330  0.0013  2.6187 -0.5158
35096SOL     OW 8692   7.210   3.336   9.374 -0.0706 -0.3497  0.5153
35096SOL    HW1 8693   7.120   3.318   9.399 -0.5143 -0.0258 -0.8436
35096SOL    HW2 8694   7.220   3.298   9.287  0.5994  1.0902 -0.0580
35097SOL     OW 8695   9.591   9.124  10.742  0.3261  0.0341  0.2592
35097SOL    HW1 8696   9.568   9.047  10.794  0.6420 -0.5495 -0.4733
35097SOL    HW2 8697   9.636   9.182  10.805  0.7688 -0.6982  0.6254
35098SOL     OW 8698   4.148   8.057   1.460  0.6490 -0.1588  0.1547
35098SOL    HW1 8699   4.193   7.995   1.517  1.1750  0.6121  0.5805
35098SOL    HW2 8700   4.162   8.023   1.371  2.8991  0.5668  0.1874
35099SOL     OW 8701   5.896   5.010   1.420  0.1355  0.4850 -0.6934
35099SOL    HW1 8702   5.933   4.963   1.345  0.9087  0.7322 -0.4734
35099SOL    HW2 8703   5.889   4.943   1.488  0.6029  0.5354 -0.5938
35100SOL     OW 8704   4.485   8.849   5.055 -0.4220  0.2199  0.0962
35100SOL    HW1 8705   4.493   8.932   5.007  1.1400  0.6887  1.1334
35100SOL    HW2 8706   4.478   8.783   4.987  0.9301  0.9626 -0.7978
35101SOL     OW 8707   9.253   7.892   6.282 -0.3761  0.3911 -0.5427
35101SOL    HW1 8708   9.343   7.924   6.275 -0.5046  1.0716  0.6441
35101SOL    HW2 8709   9.202   7.950   6.226 -0.1843  0.5255 -0.5770
35102SOL     OW 8710   5.216  10.294   4.986 -0.2793 -0.4731 -0.4180
35102SOL    HW1 8711   5.301  10.251   4.973  0.5535  0.9519  0.2516
35102SOL    HW2 8712   5.194  10.275   5.077 -1.2899 -1.8802 -0.9303
35103SOL     OW 8713   5.765   7.784   2.874  0.7432 -0.1051 -0.7820
35103SOL    HW1 8714   5.849   7.763   2.832 -0.1368 -1.3205 -1.9650
35103SOL    HW2 8715   5.758   7.879   2.867  0.9839 -0.2086 -2.7239
35104SOL     OW 8716   8.005   6.498   7.690 -0.3499 -0.8974 -0.3237
35104SOL    HW1 8717   7.968   6.557   7.625 -1.3475 -1.0312  0.1171
35104SOL    HW2 8718   8.056   6.556   7.748 -0.6042 -0.5879 -0.4092
35105SOL     OW 8719   6.784  10.212   3.101  0.0862  0.3508  0.9136
35105SOL    HW1 8720   6.719  10.248   3.042  0.1383 -0.3859  0.3999
35105SOL    HW2 8721   6.742  10.216   3.187 -0.6882 -0.2249  0.5739
35106SOL     OW 8722   1.612   4.781  10.696  0.2656  0.0554  0.4199
35106SOL    HW1 8723   1.675   4.834  10.647 -0.2331  0.3826  0.1262
35106SOL    HW2 8724   1.665   4.735  10.761  1.0340 -0.9095 -0.8766
35107SOL     OW 8725   2.581   9.745   2.501 -0.1187  0.3478 -0.4506
35107SOL    HW1 8726   2.502   9.785   2.465  0.8937  3.0456  0.2073
35107SOL    HW2 8727   2.584   9.775   2.592  0.4689 -1.5796  0.1838
35108SOL     OW 8728   8.195   4.635   9.306  0.7166 -0.2358  0.2073
35108SOL    HW1 8729   8.194   4.548   9.346  5.0393  0.6649  2.6710
35108SOL    HW2 8730   8.163   4.693   9.375 -0.1009  0.3755 -0.6766
35109SOL     OW 8731   2.557  10.355   5.532  0.0671  0.2060 -0.0176
35109SOL    HW1 8732   2.539  10.305   5.453  2.0014  1.3802 -1.2418
35109SOL    HW2 8733   2.484  10.335   5.591 -0.8880 -1.4295 -1.7262
35110SOL     OW 8734   9.355   5.733   1.962  0.3270  0.0058 -0.1102
35110SOL    HW1 8735   9.441   5.732   2.004  0.2034  0.2139  0.1434
35110SOL    HW2 8736   9.364   5.672   1.888  0.5665 -0.2871  0.1612
35111SOL     OW 8737  10.000   9.987   7.205  0.1774 -0.1224  0.2189
35111SOL    HW1 8738  10.094   9.982   7.192  0.2780  0.3805  0.7332
35111SOL    HW2 8739   9.990  10.031   7.289 -0.5418  0.9568 -0.4200
35112SOL     OW 8740   5.268   6.188   8.683 -0.4285  0.1391 -0.3987
35112SOL    HW1 8741   5.202   6.213   8.748 -1.2076  0.3459 -1.2592
35112SOL    HW2 8742   5.352   6.199   8.728 -0.9632  0.3364  0.5517
35113SOL     OW 8743   0.669   2.227   7.767  0.5018  0.3097 -0.3844
35113SOL    HW1 8744   0.591   2.248   7.818  0.7660  1.1177 -0.3074
35113SOL    HW2 8745   0.741   2.226   7.830  0.6730  0.3100 -0.5774
35114SOL     OW 8746   6.818   4.926   1.411 -0.2377  0.6686 -0.0902
35114SOL    HW1 8747   6.726   4.915   1.435 -0.0246 -0.7054  0.1678
35114SOL    HW2 8748   6.822   4.898   1.319 -0.2566  1.6785 -0.3994
35115SOL     OW 8749   7.455   8.678   3.166 -0.0224  0.5700 -0.6137
35115SOL    HW1 8750   7.469   8.646   3.255  0.0235  0.3429 -0.7039
35115SOL    HW2 8751   7.517   8.750   3.157  0.4777  0.1244 -0.7145
35116SOL     OW 8752   7.940   7.651   9.292 -0.0475  0.1843  0.3325
35116SOL    HW1 8753   7.856   7.683   9.325 -0.0019 -0.7367  1.3691
35116SOL    HW2 8754   7.916   7.586   9.226 -0.1420  0.5822 -0.0277
35117SOL     OW 8755  10.100   5.854   0.047  0.2811 -0.5436 -0.3785
35117SOL    HW1 8756  10.053   5.873  -0.034 -0.6676 -0.2656  0.2274
35117SOL    HW2 8757  10.044   5.889   0.117 -1.0141 -4.4944  0.6998
35118SOL     OW 8758   5.047   5.381   4.121  0.0041  0.8116  0.2277
35118SOL    HW1 8759   5.011   5.408   4.037 -1.8646 -1.4636  0.2664
35118SOL    HW2 8760   5.103   5.306   4.101 -0.1319  0.5030  0.9756
35119SOL     OW 8761   6.456   3.093   7.019 -0.2031 -0.2063 -0.0600
35119SOL    HW1 8762   6.478   3.107   6.926  2.3507  0.3255  0.5948
35119SOL    HW2 8763   6.537   3.111   7.066 -1.6779  0.2919  2.3753
35120SOL     OW 8764   0.613   3.786   7.813  0.4062 -0.2285  0.4894
35120SOL    HW1 8765   0.576   3.825   7.892  2.4179  0.4789  1.0948
35120SOL    HW2 8766   0.707   3.801   7.820  0.5466  0.5994 -2.4566
35121SOL     OW 8767   9.959  10.477   0.940  0.6572  0.5061 -0.0893
35121SOL    HW1 8768   9.883  10.504   0.991  0.5573  0.4805 -0.2235
35121SOL    HW2 8769  10.018  10.553   0.943  0.5241  0.6128 -0.1833
35122SOL     OW 8770   6.594   2.718   1.336 -0.3074 -0.1551 -0.0050
35122SOL    HW1 8771   6.536   2.696   1.409  1.0216  1.4837  1.5852
35122SOL    HW2 8772   6.642   2.796   1.366  0.4102  0.4197 -2.5420
35123SOL     OW 8773   6.822   9.991   5.137  0.5602  0.7663 -0.0297
35123SOL    HW1 8774   6.740  10.014   5.094  0.2451 -0.4808 -0.0971
35123SOL    HW2 8775   6.802   9.912   5.187  1.6834  0.5390  0.0720
35124SOL     OW 8776   5.285   0.710   1.485 -0.1131 -0.1624  0.8167
35124SOL    HW1 8777   5.372   0.697   1.446  0.1637  0.6906  1.1462
35124SOL    HW2 8778   5.241   0.625   1.473  0.5936 -0.4560  0.2308
35125SOL     OW 8779   5.823   0.902   6.406  0.5828 -0.1888 -0.1702
35125SOL    HW1 8780   5.897   0.902   6.467  0.7323 -0.9896 -0.3535
35125SOL    HW2 8781   5.798   0.810   6.397  0.2545 -0.0313 -0.9491
35126SOL     OW 8782   9.495  10.362   8.865 -0.1169 -0.0902 -1.0585
35126SOL    HW1 8783   9.481  10.455   8.848 -1.0146 -0.2564 -1.2654
35126SOL    HW2 8784   9.467  10.318   8.784  1.8550 -0.4398 -1.5937
35127SOL     OW 8785   5.661   6.714   1.299  0.9203  0.3935 -0.1445
35127SOL    HW1 8786   5.713   6.650   1.348 -0.0678 -0.6053 -0.3697
35127SOL    HW2 8787   5.615   6.764   1.366 -0.0199 -0.6241 -0.0013
35128SOL     OW 8788   4.440   6.572   7.446 -0.6487  0.3890  0.5146
35128SOL    HW1 8789   4.491   6.613   7.516  0.8815 -0.9475  0.2116
35128SOL    HW2 8790   4.481   6.602   7.366 -0.5224 -0.4433  0.2592
35129SOL     OW 8791   4.780   1.086   9.258  0.0219  0.6165 -0.5061
35129SOL    HW1 8792   4.771   0.990   9.260  2.2265  0.4265  1.5325
35129SOL    HW2 8793   4.772   1.113   9.349 -0.4882  2.4067 -1.0540
35130SOL     OW 8794   6.277   1.143   3.952  0.5214 -0.2852 -0.1757
35130SOL    HW1 8795   6.256   1.054   3.923 -1.4965  0.4210 -0.9594
35130SOL    HW2 8796   6.246   1.199   3.881 -1.2593  1.2534  1.7682
35131SOL     OW 8797  10.421  10.200   8.372 -0.0129 -0.2893  0.1946
35131SOL    HW1 8798  10.387  10.159   8.293  0.2907  1.3464 -0.8199
35131SOL    HW2 8799  10.374  10.158   8.444 -0.4582 -1.6259 -0.8695
35132SOL     OW 8800   9.887   6.964  10.714 -0.4994  0.1063 -0.3554
35132SOL    HW1 8801   9.845   7.034  10.665 -0.9546  0.5042  0.5858
35132SOL    HW2 8802   9.879   6.990  10.806  0.4139 -0.5767 -0.0621
35133SOL     OW 8803   4.095   4.369   2.076  0.1964  0.0387  0.3621
35133SOL    HW1 8804   4.089   4.286   2.030  0.4614  0.2955 -0.1360
35133SOL    HW2 8805   4.141   4.347   2.158 -0.5033 -0.4588  0.6281
35134SOL     OW 8806   2.086   1.125   4.837  0.2877 -0.2835 -0.1686
35134SOL    HW1 8807   2.077   1.052   4.776 -0.9795 -1.6060  1.5487
35134SOL    HW2 8808   2.168   1.109   4.883 -0.1509 -0.7987  0.4335
35135SOL     OW 8809   9.460   3.516   8.493  0.1648  0.4399  0.2381
35135SOL    HW1 8810   9.475   3.434   8.447 -2.1634 -0.1640  0.5042
35135SOL    HW2 8811   9.492   3.584   8.433  1.2726 -0.5815 -0.3521
35136SOL     OW 8812   1.935   5.785   9.772  0.3243  0.4037  0.3926
35136SOL    HW1 8813   1.861   5.749   9.820 -0.1409  2.2110  1.0659
35136SOL    HW2 8814   2.007   5.785   9.835  0.0147  1.7142  0.7593
35137SOL     OW 8815   2.355   5.287   1.385 -0.4634  0.4348 -0.3524
35137SOL    HW1 8816   2.422   5.355   1.394 -1.3316  1.0667  1.3990
35137SOL    HW2 8817   2.316   5.304   1.299  2.2870 -0.5798 -1.8968
35138SOL     OW 8818   0.853   4.538   1.474 -0.3461 -0.4104 -0.4275
35138SOL    HW1 8819   0.943   4.568   1.488 -0.6575 -0.1389  1.0937
35138SOL    HW2 8820   0.801   4.618   1.466 -0.5709 -0.5615 -0.4848
35139SOL     OW 8821   5.919   3.994   9.556  0.2825 -0.2948 -0.5215
35139SOL    HW1 8822   5.937   3.918   9.500 -1.7097 -0.5451 -0.8772
35139SOL    HW2 8823   5.824   4.007   9.549  0.3851  1.3347  0.6913
35140SOL     OW 8824   2.180   7.639   5.794  0.1838 -0.7011  0.0675
35140SOL    HW1 8825   2.251   7.579   5.771  0.8532 -0.0982  0.5634
35140SOL    HW2 8826   2.212   7.726   5.768 -0.2819 -0.4025  0.4753
35141SOL     OW 8827   9.345   7.036   2.309  0.3481 -0.0873 -0.3492
35141SOL    HW1 8828   9.386   6.998   2.387 -0.9398  0.0573  0.4030
35141SOL    HW2 8829   9.418   7.050   2.249  1.3539 -0.2289  0.8120
35142SOL     OW 8830   4.854  10.191   0.879  0.2309 -0.0892 -0.5203
35142SOL    HW1 8831   4.759  10.189   0.875  0.0087  0.7986  2.6277
35142SOL    HW2 8832   4.880  10.102   0.903  0.0510  0.0199  0.1091
35143SOL     OW 8833   7.885  10.872   2.046 -0.1714  0.2325 -0.2366
35143SOL    HW1 8834   7.793  10.863   2.020 -0.4721 -0.3781  0.9949
35143SOL    HW2 8835   7.896  10.966   2.062 -1.0829  0.1127  1.3008
35144SOL     OW 8836   2.785   0.022   1.947  0.1630 -0.1851 -0.2358
35144SOL    HW1 8837   2.762   0.035   1.855 -1.4342 -0.5721  0.0891
35144SOL    HW2 8838   2.780   0.110   1.985  1.5307  0.0861 -0.6613
35145SOL     OW 8839   0.527   0.851  10.791 -0.1129 -0.6909  0.0770
35145SOL    HW1 8840   0.437   0.819  10.796  0.4498 -2.1475  1.3535
35145SOL    HW2 8841   0.566   0.801  10.718 -0.0954 -0.6958  0.0907
35146SOL     OW 8842   4.741   1.984   2.469  0.4490  0.1120  0.2649
35146SOL    HW1 8843   4.776   2.040   2.538 -1.5187  0.6109  0.9106
35146SOL    HW2 8844   4.690   1.918   2.515  1.7558 -1.5113 -0.5645
35147SOL     OW 8845   4.659   3.883   8.744 -0.2677  0.7334 -0.0328
35147SOL    HW1 8846   4.592   3.886   8.676 -0.4627 -1.6244  0.0183
35147SOL    HW2 8847   4.732   3.835   8.704 -1.0818 -2.3254  1.9410
35148SOL     OW 8848   1.765   9.908   8.502 -0.0948  0.1753 -0.2678
35148SOL    HW1 8849   1.778  10.003   8.508 -2.1282  0.3932  1.4259
35148SOL    HW2 8850   1.800   9.874   8.585  0.3438 -0.5368 -0.7387
35149SOL     OW 8851   2.369   4.685   2.263 -0.5692  0.2711  0.3356
35149SOL    HW1 8852   2.394   4.601   2.223  0.4647  0.3742  0.7669
35149SOL    HW2 8853   2.318   4.729   2.195  0.3379  0.0187 -0.5206
35150SOL     OW 8854   4.328   8.237   4.659  0.5480  0.0239  0.3855
35150SOL    HW1 8855   4.310   8.330   4.641 -0.2663 -0.0039  1.0212
35150SOL    HW2 8856   4.354   8.236   4.751  0.5318 -0.3787  0.3834
35151SOL     OW 8857   3.490   7.002   2.721  0.8587 -0.1505 -0.2427
35151SOL    HW1 8858   3.519   7.068   2.658 -0.7008 -0.3523 -1.2190
35151SOL    HW2 8859   3.432   7.049   2.781  0.5468 -0.4139 -0.3319
35152SOL     OW 8860   5.580  10.348  10.572  0.1304  0.3065  0.3009
35152SOL    HW1 8861   5.490  10.379  10.564 -0.3238 -0.9518  0.4732
35152SOL    HW2 8862   5.630  10.405  10.513 -0.5875  1.7015  0.9970
35153SOL     OW 8863   2.955   2.953   2.445 -0.0064  0.4001 -0.5723
35153SOL    HW1 8864   3.049   2.945   2.459  0.0903  2.3466 -0.1016
35153SOL    HW2 8865   2.942   3.043   2.415 -1.7308  0.1911 -0.5139
35154SOL     OW 8866   9.077   0.118   7.444  0.1690  0.6150  0.0147
35154SOL    HW1 8867   9.135   0.189   7.472 -1.8196  2.2134  0.1496
35154SOL    HW2 8868   9.074   0.125   7.348  1.5134 -0.5320 -0.1248
35155SOL     OW 8869   1.880   7.775   6.495  0.0251 -0.0202 -0.1159
35155SOL    HW1 8870   1.942   7.845   6.476 -0.9848  0.5570 -1.3667
35155SOL    HW2 8871   1.887   7.715   6.421  0.6758 -1.1135  0.8068
35156SOL     OW 8872   6.765   4.230   0.551  0.1779 -0.1534  0.3139
35156SOL    HW1 8873   6.678   4.201   0.526  0.4723 -1.8043  1.1529
35156SOL    HW2 8874   6.817   4.224   0.471 -0.3818  0.5121 -0.1057
35157SOL     OW 8875   2.433   3.214   9.471  0.1059 -0.3384 -0.2338
35157SOL    HW1 8876   2.424   3.141   9.410 -0.2683  0.4613 -1.1498
35157SOL    HW2 8877   2.384   3.186   9.549  0.4139 -1.2774 -0.3739
35158SOL     OW 8878   2.121   1.097   6.736  0.2386 -0.0621  0.2829
35158SOL    HW1 8879   2.078   1.014   6.718  0.7809 -0.1265 -0.7610
35158SOL    HW2 8880   2.086   1.157   6.670  0.6731  0.2611  0.3450
35159SOL     OW 8881   2.063   1.739   5.012 -0.4534 -0.0688  0.5883
35159SOL    HW1 8882   2.107   1.682   4.949 -1.0251  1.2383 -1.0648
35159SOL    HW2 8883   2.134   1.793   5.048 -0.0626 -1.1047  1.3771
35160SOL     OW 8884   8.345   6.412  10.919 -0.2340  0.1623  0.6694
35160SOL    HW1 8885   8.425   6.384  10.875 -1.6138 -0.5714 -1.4453
35160SOL    HW2 8886   8.342   6.359  10.999 -0.1554 -2.0833 -0.7608
35161SOL     OW 8887   9.274   2.268   2.883 -0.3623  0.3039  0.1821
35161SOL    HW1 8888   9.228   2.342   2.843  0.4091  0.1385 -1.0275
35161SOL    HW2 8889   9.255   2.277   2.977 -2.6254  0.3810 -0.2440
35162SOL     OW 8890   7.091   4.868   4.656 -0.2851  0.1783  0.0117
35162SOL    HW1 8891   7.032   4.835   4.588  1.6430 -1.0883 -1.0990
35162SOL    HW2 8892   7.076   4.962   4.657 -1.8373 -0.0511 -0.7273
35163SOL     OW 8893   2.289   6.127   6.895 -0.0913 -0.4747 -0.0894
35163SOL    HW1 8894   2.226   6.193   6.867 -0.7951 -1.2093 -0.2416
35163SOL    HW2 8895   2.240   6.069   6.953  0.0630 -1.8626 -1.2980
35164SOL     OW 8896   3.067   4.008  10.751 -0.1852 -0.1709 -0.0874
35164SOL    HW1 8897   3.037   3.958  10.827 -1.2590 -0.6878 -0.8382
35164SOL    HW2 8898   2.989   4.017  10.696  0.6439 -0.0405 -1.2528
35165SOL     OW 8899   1.821   9.160   8.942  0.0332 -0.1777 -0.4038
35165SOL    HW1 8900   1.820   9.184   9.035 -0.5319 -1.3841 -0.0938
35165SOL    HW2 8901   1.898   9.206   8.907  0.2188  0.3329  0.6426
35166SOL     OW 8902   9.473   5.455   1.992  0.2425 -0.0132 -0.2979
35166SOL    HW1 8903   9.385   5.440   2.029 -0.4544  0.7438 -1.6359
35166SOL    HW2 8904   9.505   5.367   1.973 -0.6682 -0.2414 -0.8119
35167SOL     OW 8905   1.460   9.858   8.485  0.3088  0.0688  0.1527
35167SOL    HW1 8906   1.445   9.903   8.401  0.1749 -0.1482  0.0584
35167SOL    HW2 8907   1.555   9.857   8.495  0.2491  1.8781  0.9755
35168SOL     OW 8908   1.702   2.107   7.986  0.0663  0.2972  0.4083
35168SOL    HW1 8909   1.732   2.031   7.937  0.0097  0.5660 -0.0418
35168SOL    HW2 8910   1.754   2.105   8.067  1.3087  0.7734 -0.3666
35169SOL     OW 8911   5.465   6.665   0.760 -0.2756  0.3661  0.6294
35169SOL    HW1 8912   5.400   6.733   0.739  0.1296  0.9518  1.2497
35169SOL    HW2 8913   5.415   6.598   0.805 -0.5513  0.5762  0.6420
35170SOL     OW 8914   6.692   7.129   1.696  0.0267  0.4526 -0.6699
35170SOL    HW1 8915   6.697   7.209   1.644  0.3900 -0.2100 -1.6652
35170SOL    HW2 8916   6.606   7.133   1.739 -0.2654  1.0074 -1.2998
35171SOL     OW 8917   1.876  10.504   1.459  0.5548 -0.5068 -0.3173
35171SOL    HW1 8918   1.952  10.557   1.482  1.1679 -1.9415  1.0569
35171SOL    HW2 8919   1.801  10.556   1.488  1.0335  0.4833 -0.8108
35172SOL     OW 8920   9.061   4.531   9.623  0.0710  0.1482  0.1419
35172SOL    HW1 8921   9.111   4.478   9.561 -0.9850  0.3750 -0.9225
35172SOL    HW2 8922   9.110   4.613   9.631  1.2542 -0.6281  1.1397
35173SOL     OW 8923   7.421   8.193   3.707  0.0963  0.2702  0.0252
35173SOL    HW1 8924   7.436   8.209   3.613  0.1247 -1.7587 -0.3322
35173SOL    HW2 8925   7.496   8.141   3.734 -0.3052  0.1971  1.0079
35174SOL     OW 8926   6.535   9.262   0.388  0.0977  0.1967  0.5161
35174SOL    HW1 8927   6.442   9.257   0.409  0.5670 -2.3137  2.1505
35174SOL    HW2 8928   6.548   9.198   0.318  0.8729 -0.6636  1.4269
35175SOL     OW 8929  10.492   0.558   8.872 -0.6112 -0.3179 -0.5554
35175SOL    HW1 8930  10.495   0.507   8.791  1.9619 -2.0795  0.5950
35175SOL    HW2 8931  10.566   0.618   8.866 -0.9108  0.1364  0.1407
35176SOL     OW 8932   4.550   9.107  10.918 -0.3950  0.6450 -0.4784
35176SOL    HW1 8933   4.520   9.018  10.900 -0.1723  0.4535  0.1052
35176SOL    HW2 8934   4.603   9.130  10.842  1.0870 -0.4073  0.2211
35177SOL     OW 8935   6.979   6.895  10.955 -0.3228 -0.4595  0.0911
35177SOL    HW1 8936   6.999   6.989  10.953  2.0679 -0.9328 -0.2864
35177SOL    HW2 8937   6.912   6.883  10.887 -0.1720  0.8670 -0.3041
35178SOL     OW 8938   8.013   3.521   3.465  0.1729  0.1769  0.3472
35178SOL    HW1 8939   8.024   3.609   3.431  0.8923 -0.4068 -1.0018
35178SOL    HW2 8940   7.947   3.481   3.408 -0.9969  0.1991  1.6660
35179SOL     OW 8941   9.914  10.012   5.110 -0.3490 -0.7830  0.5934
35179SOL    HW1 8942   9.917  10.050   5.198  1.8383 -0.6816  0.5019
35179SOL    HW2 8943   9.852  10.067   5.063  1.3396  1.5799  1.0145
35180SOL     OW 8944   9.865   9.637   9.702 -0.0941  0.5658 -0.1127
35180SOL    HW1 8945   9.901   9.559   9.659  0.5867  0.3383  0.8320
35180SOL    HW2 8946   9.798   9.602   9.761 -1.1455  0.8904 -1.0917
35181SOL     OW 8947  10.489   2.188   9.219  0.5560 -0.3401 -0.0360
35181SOL    HW1 8948  10.401   2.158   9.242  0.1242  1.1266  0.2914
35181SOL    HW2 8949  10.545   2.158   9.291  0.7816 -3.3270 -1.3769
35182SOL     OW 8950   9.222  10.600   9.325 -0.0507  0.3410 -0.2406
35182SOL    HW1 8951   9.271  10.596   9.242  0.7400  1.2433  0.1837
35182SOL    HW2 8952   9.135  10.631   9.300  0.2380  0.7731 -0.7153
35183SOL     OW 8953   7.344   0.269   3.436 -0.3464 -0.4556  0.1500
35183SOL    HW1 8954   7.266   0.287   3.489 -1.1206 -1.1496 -0.7617
35183SOL    HW2 8955   7.329   0.316   3.354 -0.5925 -1.9843 -0.7012
35184SOL     OW 8956   6.800   6.695   4.084  0.6791  0.8650  0.6168
35184SOL    HW1 8957   6.893   6.688   4.062  0.4494 -0.1763 -0.0445
35184SOL    HW2 8958   6.777   6.785   4.061  1.1917  0.7118 -0.5245
35185SOL     OW 8959   4.793   8.809  10.291 -0.0861 -0.7454 -0.3482
35185SOL    HW1 8960   4.866   8.759  10.254 -0.3688 -0.6253 -1.0951
35185SOL    HW2 8961   4.832   8.860  10.362  0.4530 -1.0727 -0.4039
35186SOL     OW 8962   6.185   6.837   9.573  0.4631  0.1393  0.2621
35186SOL    HW1 8963   6.100   6.865   9.539 -0.9676 -2.5332  1.4694
35186SOL    HW2 8964   6.210   6.763   9.518  1.3043 -0.0158  0.8338
35187SOL     OW 8965   9.637   7.751   4.219 -0.5757  1.0295  0.6119
35187SOL    HW1 8966   9.597   7.814   4.158 -1.1944 -2.0810 -2.3546
35187SOL    HW2 8967   9.572   7.739   4.288 -0.7768  2.9922  0.8101
35188SOL     OW 8968   9.516   3.165   2.780  0.2299 -0.4880 -0.6704
35188SOL    HW1 8969   9.520   3.240   2.839 -1.2378 -0.1813 -0.9603
35188SOL    HW2 8970   9.526   3.089   2.838  0.8564 -0.1106 -0.2782
35189SOL     OW 8971   8.193   1.884   1.223 -0.1183  0.1040  0.0994
35189SOL    HW1 8972   8.159   1.828   1.293 -0.0793 -0.2836 -0.1926
35189SOL    HW2 8973   8.125   1.949   1.209 -1.2287 -1.3072 -1.2223
35190SOL     OW 8974   7.075   2.359   2.443  0.2120 -0.1927  0.3987
35190SOL    HW1 8975   7.046   2.438   2.397 -1.3289 -0.7322  0.3875
35190SOL    HW2 8976   7.162   2.381   2.477  1.6289  0.0456 -3.1961
35191SOL     OW 8977   1.701   0.219   8.879 -0.2061  0.3648 -0.3773
35191SOL    HW1 8978   1.718   0.197   8.787  0.9534 -0.2127 -0.0332
35191SOL    HW2 8979   1.775   0.275   8.903 -0.3494  0.2616  0.2928
35192SOL     OW 8980   3.465   6.059   3.029  0.0339 -0.6539  0.1320
35192SOL    HW1 8981   3.485   6.101   3.112  1.7954  0.3551 -0.7734
35192SOL    HW2 8982   3.398   6.114   2.989  0.6943  0.0335 -0.0354
35193SOL     OW 8983   1.456   9.411   4.607 -0.0177 -0.0978  0.0586
35193SOL    HW1 8984   1.550   9.409   4.591  0.1067 -2.2332  0.8252
35193SOL    HW2 8985   1.427   9.495   4.571  1.9265 -0.0704 -1.5398
35194SOL     OW 8986   4.309   4.463   1.299  0.1563 -0.0611 -0.0038
35194SOL    HW1 8987   4.366   4.386   1.303 -0.6239 -0.6938 -0.9216
35194SOL    HW2 8988   4.363   4.530   1.258  0.5258 -0.4086 -0.0913
35195SOL     OW 8989   1.484   5.960   8.076  0.3621  0.5496  0.0276
35195SOL    HW1 8990   1.494   5.973   8.170 -1.3802  2.3019  0.0175
35195SOL    HW2 8991   1.397   5.996   8.057 -0.5611 -2.4885 -1.7552
35196SOL     OW 8992   0.597   2.442   1.929 -0.5091  0.5193  0.3400
35196SOL    HW1 8993   0.599   2.377   1.859 -0.4286  1.4826 -0.5814
35196SOL    HW2 8994   0.515   2.427   1.974 -0.9482  0.4004 -0.4888
35197SOL     OW 8995   1.242   3.966   2.835 -0.4347  0.3302 -0.3049
35197SOL    HW1 8996   1.251   4.054   2.871 -0.9980  0.5888 -0.7901
35197SOL    HW2 8997   1.255   3.908   2.910  0.3688  0.8107 -0.0657
35198SOL     OW 8998   6.936   3.174   1.825  0.0704  0.6276 -0.0519
35198SOL    HW1 8999   6.878   3.202   1.754  0.8000  1.0421 -0.4987
35198SOL    HW2 9000   6.887   3.106   1.871 -0.6917  0.8446 -0.5331
35199SOL     OW 9001   9.114   5.481   9.482 -0.0500  0.1391 -0.2942
35199SOL    HW1 9002   9.195   5.513   9.442  0.6656 -0.6450  0.4942
35199SOL    HW2 9003   9.064   5.444   9.409  0.3465  0.5287 -0.7712
35200SOL     OW 9004   2.440   6.571   4.904  0.0448 -0.0384 -0.0011
35200SOL    HW1 9005   2.364   6.529   4.865  0.7878 -1.4448  0.0045
35200SOL    HW2 9006   2.492   6.600   4.830  0.3855 -0.7360 -0.0437
35201SOL     OW 9007   9.271   1.173   7.428 -0.0924  0.3000 -0.8549
35201SOL    HW1 9008   9.264   1.184   7.523  0.4667 -0.4089 -0.7187
35201SOL    HW2 9009   9.181   1.170   7.397 -0.2892 -0.2237 -0.2475
35202SOL     OW 9010  10.895   7.703   7.649 -0.0226 -0.0988  0.7989
35202SOL    HW1 9011  10.950   7.654   7.710  1.8246  1.8717  0.7821
35202SOL    HW2 9012  10.893   7.651   7.569  1.0044 -0.6552  1.1379
35203SOL     OW 9013  10.257   3.091   5.341 -0.4459 -0.2001 -0.7414
35203SOL    HW1 9014  10.342   3.053   5.320  0.2793  1.0852 -0.2136
35203SOL    HW2 9015  10.226   3.044   5.418 -1.2454 -2.1788 -2.2378
35204SOL     OW 9016   6.195   5.328   3.226 -0.3219 -0.2141 -0.3872
35204SOL    HW1 9017   6.183   5.268   3.153  1.3880 -0.9455 -0.0968
35204SOL    HW2 9018   6.165   5.279   3.303  1.3051 -0.8260 -0.1156
35205SOL     OW 9019   1.760   6.514   9.579 -0.2858  0.5154 -0.0219
35205SOL    HW1 9020   1.814   6.592   9.590  0.8187 -0.2183 -0.2366
35205SOL    HW2 9021   1.818   6.449   9.541 -1.3807 -0.2091 -0.4822
35206SOL     OW 9022   7.106   6.848   5.601 -0.7713 -0.0158  0.3385
35206SOL    HW1 9023   7.183   6.906   5.604 -0.0705 -0.8374 -1.2421
35206SOL    HW2 9024   7.138   6.768   5.560 -3.1136  0.6997 -3.1641
35207SOL     OW 9025   9.545   6.286   1.515  0.0083  0.1938  0.0031
35207SOL    HW1 9026   9.456   6.262   1.544  0.6502 -0.3317  1.6216
35207SOL    HW2 9027   9.599   6.273   1.593  1.7722 -1.0012 -1.3726
35208SOL     OW 9028   8.722   0.953  10.824 -0.1208  0.2543 -0.0170
35208SOL    HW1 9029   8.797   0.999  10.863  0.0354  0.4450 -0.5425
35208SOL    HW2 9030   8.664   0.936  10.898 -0.4904  1.9044  0.1001
35209SOL     OW 9031   0.447   3.028   0.754  0.6178 -0.0313  0.5231
35209SOL    HW1 9032   0.415   3.045   0.666  2.3633 -0.5906 -0.2513
35209SOL    HW2 9033   0.541   3.014   0.743  1.0254  0.8848  2.6192
35210SOL     OW 9034   0.300   1.597   1.734  0.0594 -0.0266 -0.2992
35210SOL    HW1 9035   0.225   1.568   1.786 -0.1668  0.4065 -0.3810
35210SOL    HW2 9036   0.377   1.566   1.783 -0.1686 -0.3125 -0.1225
35211SOL     OW 9037   1.538   5.855   6.317  0.3375 -0.1821 -0.0179
35211SOL    HW1 9038   1.536   5.922   6.248 -0.6783  0.6379  0.7793
35211SOL    HW2 9039   1.473   5.790   6.290  0.9386 -0.5610 -0.5295
35212SOL     OW 9040  10.817   3.369   0.236  0.8056  0.6515  0.2605
35212SOL    HW1 9041  10.802   3.280   0.268  0.7169  0.1142 -1.2420
35212SOL    HW2 9042  10.903   3.393   0.271  0.9368 -0.1229  0.4801
35213SOL     OW 9043  10.426   8.917   5.307 -0.3880  0.3934  0.1476
35213SOL    HW1 9044  10.491   8.858   5.269 -0.8462  0.1562 -0.2824
35213SOL    HW2 9045  10.350   8.861   5.323 -1.6772  1.3045 -2.4532
35214SOL     OW 9046   4.715   7.493   9.712  0.2588  0.1899 -0.0450
35214SOL    HW1 9047   4.691   7.572   9.664  1.5112  0.1101 -0.8044
35214SOL    HW2 9048   4.725   7.425   9.645  0.2831 -0.3473  0.4946
35215SOL     OW 9049   9.556  10.459   3.767 -0.6651 -0.0291 -0.0530
35215SOL    HW1 9050   9.540  10.549   3.739 -0.4377  0.0886  0.1968
35215SOL    HW2 9051   9.630  10.465   3.828 -1.2056 -0.2687  0.6408
35216SOL     OW 9052   4.489   3.553   3.225  0.7263 -0.0252 -0.3075
35216SOL    HW1 9053   4.396   3.535   3.213  0.5448 -1.5163  2.9942
35216SOL    HW2 9054   4.531   3.510   3.150 -1.0228 -1.4044 -0.5360
35217SOL     OW 9055   5.514   8.021   0.820  0.1808 -0.2084  0.0704
35217SOL    HW1 9056   5.507   8.101   0.872 -0.8775 -0.5767  0.5134
35217SOL    HW2 9057   5.574   8.044   0.748  1.4140  0.3836  1.2763
35218SOL     OW 9058   2.529   3.421   8.926  0.1270  0.1822 -0.5124
35218SOL    HW1 9059   2.514   3.496   8.869 -2.4296  0.0427 -0.1104
35218SOL    HW2 9060   2.518   3.345   8.869 -1.0741  0.0714 -0.1573
35219SOL     OW 9061   1.847   7.667  10.047 -0.1534 -0.5916 -0.3161
35219SOL    HW1 9062   1.871   7.701   9.961 -2.5227  1.1862 -0.3088
35219SOL    HW2 9063   1.780   7.601  10.029 -2.3157  1.3753  0.2563
35220SOL     OW 9064   3.460   3.204   4.231  0.4247 -0.0101 -0.2957
35220SOL    HW1 9065   3.448   3.269   4.300  0.3038 -0.0864 -0.2443
35220SOL    HW2 9066   3.484   3.255   4.154 -1.9778  0.3126 -0.8611
35221SOL     OW 9067   1.791   9.448   3.444 -0.3866 -0.1187 -0.1633
35221SOL    HW1 9068   1.696   9.455   3.455 -0.5037 -1.5920 -0.1008
35221SOL    HW2 9069   1.820   9.538   3.430 -1.5498  0.5802  1.6767
35222SOL     OW 9070   5.767   0.993   2.327  0.2296  0.9582 -0.0026
35222SOL    HW1 9071   5.815   1.033   2.399  0.6428  1.7620 -0.7181
35222SOL    HW2 9072   5.811   1.025   2.248 -0.3655  0.2736 -0.6140
35223SOL     OW 9073   6.564   6.671   9.777  0.5362 -0.3471  0.4360
35223SOL    HW1 9074   6.513   6.624   9.710  0.0425  0.7245  0.0377
35223SOL    HW2 9075   6.645   6.621   9.785  1.1845  0.2248 -1.9458
35224SOL     OW 9076   2.249   2.205   8.608 -0.0970 -0.2749 -0.2955
35224SOL    HW1 9077   2.341   2.181   8.612 -0.6087 -2.5323 -1.4735
35224SOL    HW2 9078   2.224   2.218   8.700  1.3301  0.1380  0.0440
35225SOL     OW 9079   9.191   5.988  10.821 -0.1789 -0.0865  0.2490
35225SOL    HW1 9080   9.210   6.069  10.774  0.1884 -0.0841  0.3995
35225SOL    HW2 9081   9.099   5.970  10.802  0.7824 -1.8967 -3.3012
35226SOL     OW 9082   0.293   7.022   3.624  0.4071  0.0311 -0.3456
35226SOL    HW1 9083   0.340   6.959   3.678 -1.4062 -1.5037 -0.5207
35226SOL    HW2 9084   0.251   6.970   3.555 -1.9861  1.2536  0.1159
35227SOL     OW 9085   0.758   7.032   1.895  0.0524  0.0872 -0.1957
35227SOL    HW1 9086   0.748   6.996   1.983  1.3263  0.7746  0.2371
35227SOL    HW2 9087   0.684   7.093   1.885  0.7995  1.2017  0.9994
35228SOL     OW 9088   7.284   3.695   4.211  0.1971  0.1205 -0.2197
35228SOL    HW1 9089   7.225   3.770   4.200 -0.4680 -0.8794 -4.1443
35228SOL    HW2 9090   7.364   3.734   4.247 -0.6527  2.5346 -0.8030
35229SOL     OW 9091   7.891   1.230   9.623  0.4130 -0.1774  0.1181
35229SOL    HW1 9092   7.928   1.148   9.590 -0.2218 -1.1321  1.7365
35229SOL    HW2 9093   7.962   1.269   9.675  0.1635 -0.5297  0.7287
35230SOL     OW 9094   8.534   0.829   5.456 -0.1276 -0.2575  0.4662
35230SOL    HW1 9095   8.602   0.896   5.467  0.5809 -0.4576 -2.2307
35230SOL    HW2 9096   8.566   0.754   5.506  0.6706  0.3223  0.8333
35231SOL     OW 9097   0.138   6.933   6.653 -0.5837  0.1585 -0.5954
35231SOL    HW1 9098   0.233   6.927   6.651 -0.4428  1.4233  1.0479
35231SOL    HW2 9099   0.108   6.842   6.651  0.7579 -0.3764  1.6485
35232SOL     OW 9100   7.234   3.198   2.349  0.3754 -0.5994  0.0154
35232SOL    HW1 9101   7.204   3.154   2.269  2.1173 -1.1515 -0.3491
35232SOL    HW2 9102   7.316   3.154   2.371  1.3101  1.4012  0.5705
35233SOL     OW 9103   5.377   3.807   4.964  0.1384  0.5108  0.3833
35233SOL    HW1 9104   5.292   3.826   5.005  0.0039  0.0062  0.3379
35233SOL    HW2 9105   5.426   3.889   4.972 -0.0833  0.5757  1.0776
35234SOL     OW 9106   1.891   6.555   3.907 -0.4354 -0.2072  0.0929
35234SOL    HW1 9107   1.882   6.478   3.852 -0.9762  0.0194 -0.1358
35234SOL    HW2 9108   1.805   6.597   3.905  0.0555  0.8025 -0.3757
35235SOL     OW 9109   5.830   5.507   6.702  0.0932  0.0230  0.1031
35235SOL    HW1 9110   5.767   5.476   6.766 -0.6964  0.6918 -0.3381
35235SOL    HW2 9111   5.791   5.486   6.617  1.7164 -2.0271 -0.1875
35236SOL     OW 9112   2.624   5.702   6.464 -0.1147 -0.2037 -0.0378
35236SOL    HW1 9113   2.639   5.707   6.370  0.5395 -0.2555  0.0612
35236SOL    HW2 9114   2.653   5.786   6.498 -1.1515  0.1359  0.0131
35237SOL     OW 9115   9.088   4.232   7.455  0.6499  0.6535  0.2010
35237SOL    HW1 9116   9.073   4.224   7.361  1.2242  1.9875 -0.0297
35237SOL    HW2 9117   9.026   4.172   7.496  1.4658 -1.1049 -1.0916
35238SOL     OW 9118   3.532   8.321   1.955 -0.1357 -0.1567  0.0411
35238SOL    HW1 9119   3.586   8.281   2.022 -0.9872 -1.7184 -0.1746
35238SOL    HW2 9120   3.463   8.366   2.004  0.7899  1.0324  0.2820
35239SOL     OW 9121   3.073  10.793   9.842 -0.1894  0.3294  0.0216
35239SOL    HW1 9122   3.114  10.709   9.823  1.0190  0.6660  1.0645
35239SOL    HW2 9123   2.994  10.794   9.788 -0.1413 -1.4073 -0.1097
35240SOL     OW 9124   8.360   9.679   6.825 -0.1706  0.3851  0.3888
35240SOL    HW1 9125   8.441   9.702   6.871  0.6828 -0.9267 -0.4130
35240SOL    HW2 9126   8.383   9.601   6.774 -1.9076  0.0860  0.0350
35241SOL     OW 9127   3.409   5.644   4.670  0.0045  0.0299 -0.1550
35241SOL    HW1 9128   3.462   5.626   4.747 -0.3314  0.3129  0.1397
35241SOL    HW2 9129   3.467   5.694   4.612  0.3387 -0.4007 -0.2003
35242SOL     OW 9130   7.065   4.542   3.896  0.1458  0.5650 -0.1892
35242SOL    HW1 9131   6.984   4.494   3.878  0.6783 -0.8502  1.1149
35242SOL    HW2 9132   7.128   4.474   3.919  1.5838  1.7024 -0.7016
35243SOL     OW 9133   9.301   4.253   2.899 -0.4030  0.2392  0.1559
35243SOL    HW1 9134   9.255   4.249   2.815 -1.1127  3.3756  0.3332
35243SOL    HW2 9135   9.363   4.326   2.889 -0.5295  0.6965  2.3744
35244SOL     OW 9136  10.453   4.570  10.870  0.0344  0.0124  0.2043
35244SOL    HW1 9137  10.440   4.592  10.778 -2.0455  0.3074  0.5611
35244SOL    HW2 9138  10.381   4.512  10.892  0.1062  0.5089  1.8334
35245SOL     OW 9139   9.408   5.264   9.012 -0.2581 -0.3115 -0.6265
35245SOL    HW1 9140   9.485   5.298   9.056  0.3516 -2.1620 -0.2199
35245SOL    HW2 9141   9.431   5.268   8.919  0.0399 -0.1800 -0.5504
35246SOL     OW 9142   6.286   2.080   6.610 -0.2008 -0.2221  0.4671
35246SOL    HW1 9143   6.368   2.130   6.617 -0.3303 -0.1838  1.7682
35246SOL    HW2 9144   6.238   2.123   6.538  0.5330  0.3056  0.2848
35247SOL     OW 9145   6.779  10.928   1.547 -0.6961  0.2320  0.1679
35247SOL    HW1 9146   6.780  10.938   1.452 -0.3989 -2.4900 -0.1366
35247SOL    HW2 9147   6.699  10.975   1.574 -0.1339  2.0913 -1.2527
35248SOL     OW 9148   3.525   5.163   2.563  0.1245  0.4825  0.0211
35248SOL    HW1 9149   3.555   5.197   2.478  1.6696 -2.3036 -0.6088
35248SOL    HW2 9150   3.447   5.111   2.541 -1.2702  2.1941  0.7631
35249SOL     OW 9151   4.120   7.426   3.595  0.6984 -0.2641 -0.0975
35249SOL    HW1 9152   4.117   7.514   3.558 -1.6805 -0.4798 -0.4671
35249SOL    HW2 9153   4.162   7.437   3.680 -0.4176  1.3708  0.2472
35250SOL     OW 9154   9.211   8.778   5.318 -0.6485  0.5429  0.6671
35250SOL    HW1 9155   9.131   8.743   5.358 -0.7984  1.1719  0.9257
35250SOL    HW2 9156   9.281   8.745   5.374 -0.9289  2.2745  2.0950
35251SOL     OW 9157   7.970   7.648   2.881  0.0501  0.5669 -0.3172
35251SOL    HW1 9158   8.046   7.703   2.901  0.6507  0.1609 -1.4079
35251SOL    HW2 9159   7.986   7.567   2.929  0.8828  0.0521 -1.4367
35252SOL     OW 9160   7.074  10.950   4.914  0.1118 -0.0476  0.1764
35252SOL    HW1 9161   7.022  10.971   4.991  0.1085 -0.0603  0.1778
35252SOL    HW2 9162   7.136  10.883   4.944 -1.6501 -2.0417 -0.4587
35253SOL     OW 9163   6.096  10.435   4.775  0.0017  0.4985 -0.0782
35253SOL    HW1 9164   6.108  10.453   4.681  1.5893  1.5831  0.3164
35253SOL    HW2 9165   6.170  10.378   4.798 -1.3824 -1.2516  0.1340
35254SOL     OW 9166   7.448   7.519   3.993 -0.3424 -1.3908 -0.7604
35254SOL    HW1 9167   7.534   7.481   4.013 -1.0949 -3.7482 -1.9273
35254SOL    HW2 9168   7.387   7.474   4.050 -0.9726 -0.4210 -0.6466
35255SOL     OW 9169   1.808   8.530  10.109 -0.0120 -0.1741 -0.1351
35255SOL    HW1 9170   1.839   8.616  10.138 -0.3312 -0.2266  0.3674
35255SOL    HW2 9171   1.885   8.473  10.117  0.3826  0.2045 -1.1099
35256SOL     OW 9172   3.762   7.250   2.695  0.0245 -0.0602 -0.6247
35256SOL    HW1 9173   3.852   7.223   2.708  0.4353  1.9222  0.8201
35256SOL    HW2 9174   3.768   7.332   2.646 -0.9956  0.1594 -0.3976
35257SOL     OW 9175   3.851   5.118   5.271 -0.2607  0.4403  0.0538
35257SOL    HW1 9176   3.792   5.044   5.260 -0.6344  0.7595 -0.0909
35257SOL    HW2 9177   3.809   5.190   5.225  0.4128  0.5807 -0.3483
35258SOL     OW 9178   2.520   0.805   3.223  0.3252 -0.2327 -0.4845
35258SOL    HW1 9179   2.565   0.806   3.308  0.5526  2.0600 -0.6244
35258SOL    HW2 9180   2.587   0.778   3.161  0.5469 -0.4245 -0.1648
35259SOL     OW 9181   3.688   8.974   2.799  0.2207  0.1920  0.3087
35259SOL    HW1 9182   3.703   8.900   2.857  0.0835 -1.2321 -1.4023
35259SOL    HW2 9183   3.746   8.958   2.724 -1.6224  0.4557 -1.2289
35260SOL     OW 9184   8.525   0.420   5.268  0.3452  0.1199 -0.2799
35260SOL    HW1 9185   8.585   0.395   5.199  0.3637 -2.2076  0.5251
35260SOL    HW2 9186   8.580   0.430   5.346 -0.0485 -0.1278  0.0345
35261SOL     OW 9187   4.794   4.133  10.611 -0.2303  0.7727 -0.2091
35261SOL    HW1 9188   4.790   4.131  10.515 -0.9422 -2.8350 -0.1933
35261SOL    HW2 9189   4.703   4.122  10.638  0.2329 -0.6803  0.8263
35262SOL     OW 9190   2.486  10.585   9.436 -0.5468  0.4800 -0.0732
35262SOL    HW1 9191   2.418  10.518   9.448  1.1611 -1.7059 -1.9448
35262SOL    HW2 9192   2.467  10.623   9.350  1.0825 -0.7975 -1.0270
35263SOL     OW 9193   5.927   7.485   3.651 -0.5307 -0.0650 -0.4968
35263SOL    HW1 9194   5.940   7.395   3.620  1.4488 -0.1641  0.4881
35263SOL    HW2 9195   5.858   7.479   3.717  0.3165 -1.0545  0.3163
35264SOL     OW 9196   2.489   6.197   7.837 -0.0219  0.7356  0.1980
35264SOL    HW1 9197   2.546   6.240   7.774 -1.5599  1.5263 -0.6677
35264SOL    HW2 9198   2.510   6.104   7.827 -0.5861  0.7958 -1.8523
35265SOL     OW 9199   2.503   1.399   5.864 -0.2619 -0.4888  0.0336
35265SOL    HW1 9200   2.496   1.429   5.774  1.3254 -1.5942 -0.4745
35265SOL    HW2 9201   2.589   1.428   5.893  0.1977 -2.1732  0.4064
35266SOL     OW 9202   9.840   2.035   4.732  0.4206  0.4374  0.5384
35266SOL    HW1 9203   9.755   1.991   4.742  0.1181  0.9498  0.2394
35266SOL    HW2 9204   9.873   2.006   4.647  0.6854  0.0024  0.7892
35267SOL     OW 9205   8.545   3.187   6.328  0.0057  0.1945 -0.0613
35267SOL    HW1 9206   8.548   3.133   6.406  0.2626  1.0596  0.5296
35267SOL    HW2 9207   8.458   3.228   6.331 -0.3835 -0.5522 -0.7659
35268SOL     OW 9208   5.999  10.578   4.288 -0.0083 -0.2502 -0.1198
35268SOL    HW1 9209   5.947  10.656   4.266 -0.4283 -0.5810 -0.2961
35268SOL    HW2 9210   5.935  10.507   4.294  0.4501 -0.7024 -0.5539
35269SOL     OW 9211   7.931   9.967   6.229  0.5202 -0.1560  0.2101
35269SOL    HW1 9212   7.979   9.885   6.225  1.3207  0.2126  1.8307
35269SOL    HW2 9213   7.944  10.007   6.143 -0.4035 -1.9921 -0.8153
35270SOL     OW 9214   6.010   7.676   5.860  0.2623  0.0200 -0.5899
35270SOL    HW1 9215   6.065   7.711   5.790  0.7786 -0.3363 -0.3647
35270SOL    HW2 9216   5.935   7.735   5.863  0.1867 -0.0134 -1.5053
35271SOL     OW 9217   8.753   2.004   5.086  0.2373 -0.2368 -0.6315
35271SOL    HW1 9218   8.663   1.987   5.111  0.5236 -0.9856 -0.0987
35271SOL    HW2 9219   8.791   2.050   5.161  0.3631 -0.1106 -0.7693
35272SOL     OW 9220   9.469  10.088   4.492  0.1008  0.2103 -0.0288
35272SOL    HW1 9221   9.498  10.162   4.545 -0.5370 -0.1580  0.8594
35272SOL    HW2 9222   9.537  10.021   4.505  0.7310  0.6711 -0.9171
35273SOL     OW 9223   3.801   8.862  10.923 -0.0547 -0.0928  0.1740
35273SOL    HW1 9224   3.803   8.767  10.938  0.1816 -0.0560  0.3765
35273SOL    HW2 9225   3.735   8.894  10.984 -0.4268 -0.1804 -0.1850
35274SOL     OW 9226   7.916   2.169   2.015  0.4154 -0.3626 -0.5560
35274SOL    HW1 9227   7.950   2.160   2.104 -1.0661  0.5186  0.1323
35274SOL    HW2 9228   7.919   2.081   1.978  0.6447 -0.8036  0.5208
35275SOL     OW 9229   4.328   1.171   9.542  0.2530 -0.0411  0.4380
35275SOL    HW1 9230   4.385   1.234   9.497  0.0691  1.4175  2.1741
35275SOL    HW2 9231   4.269   1.225   9.595 -1.6259 -1.6048 -0.0063
35276SOL     OW 9232   2.635   3.280   9.668 -0.0325  0.5488  0.3830
35276SOL    HW1 9233   2.561   3.256   9.613  0.5125 -0.3605  0.0454
35276SOL    HW2 9234   2.606   3.261   9.757 -0.2943  0.4288  0.2722
35277SOL     OW 9235   9.560   7.641   0.278  0.2009 -0.4985  0.0399
35277SOL    HW1 9236   9.652   7.615   0.273  0.4043  0.0291  0.9008
35277SOL    HW2 9237   9.513   7.574   0.228  1.2625  0.2989 -2.0741
35278SOL     OW 9238   2.946   1.014   1.111 -0.0526  0.1009 -0.1700
35278SOL    HW1 9239   2.988   1.010   1.197  1.7917 -0.3998 -1.0820
35278SOL    HW2 9240   2.898   1.097   1.112 -1.1464 -0.5054  1.8219
35279SOL     OW 9241   7.873   1.942   4.132  0.1764  0.1901 -0.0729
35279SOL    HW1 9242   7.828   1.889   4.198 -0.8071 -0.9103 -1.6151
35279SOL    HW2 9243   7.961   1.954   4.168  0.5812 -2.9007  0.1000
35280SOL     OW 9244   1.029   6.265   3.444 -0.3086 -0.7441 -0.3373
35280SOL    HW1 9245   0.999   6.203   3.510  0.6343 -0.3275  0.4990
35280SOL    HW2 9246   0.959   6.329   3.438  0.6210  0.5632  2.0387
35281SOL     OW 9247   3.279   7.000   3.760  0.4726 -0.7309 -0.3720
35281SOL    HW1 9248   3.258   7.049   3.680 -1.2537 -2.6538 -1.1338
35281SOL    HW2 9249   3.210   7.022   3.821  0.0503 -1.6852 -0.4954
35282SOL     OW 9250  10.291   2.516   5.366 -0.3391  0.4916  0.5178
35282SOL    HW1 9251  10.261   2.448   5.426  0.6685 -0.5840 -0.1844
35282SOL    HW2 9252  10.271   2.482   5.279  2.1872  0.0748  0.0715
35283SOL     OW 9253   3.142   8.338  10.222 -0.4850 -0.1066  0.0219
35283SOL    HW1 9254   3.135   8.262  10.280  0.8429 -0.1244  0.1556
35283SOL    HW2 9255   3.064   8.390  10.242  0.6679  0.6157  2.8888
35284SOL     OW 9256   8.531   7.759   2.609  0.0766  0.5048 -0.3913
35284SOL    HW1 9257   8.479   7.815   2.551 -0.4810  1.9548  1.4183
35284SOL    HW2 9258   8.469   7.731   2.676  0.8220 -0.7095 -0.2076
35285SOL     OW 9259   2.880   8.733   6.075 -0.4284  0.1607 -0.0965
35285SOL    HW1 9260   2.934   8.732   6.154 -1.8781 -2.2874  0.9027
35285SOL    HW2 9261   2.914   8.661   6.022 -0.4629  0.8248 -1.0440
35286SOL     OW 9262   9.897   6.432   2.554 -0.3440  0.5332  0.2455
35286SOL    HW1 9263   9.838   6.500   2.521 -0.5522  0.7627  1.0784
35286SOL    HW2 9264   9.964   6.480   2.603 -1.7006  0.0067  2.6766
35287SOL     OW 9265   7.451   1.482   8.595  0.5426 -0.1444 -0.2312
35287SOL    HW1 9266   7.420   1.412   8.653  1.0223 -0.6166 -0.5315
35287SOL    HW2 9267   7.372   1.529   8.569  0.0611 -1.4377 -1.1316
35288SOL     OW 9268  10.003   9.575   0.127  0.2820 -0.2951  0.0892
35288SOL    HW1 9269   9.986   9.534   0.042 -0.5980 -1.5269  0.8439
35288SOL    HW2 9270  10.067   9.518   0.169  2.0109  1.2342 -0.4114
35289SOL     OW 9271  10.703   7.535   9.467  0.2991  0.4248 -0.2788
35289SOL    HW1 9272  10.652   7.584   9.403  0.1753 -0.5364 -0.9275
35289SOL    HW2 9273  10.790   7.527   9.427  0.2258 -0.1684 -0.3308
35290SOL     OW 9274   3.009  10.605   2.097  0.3164  0.4547  0.3619
35290SOL    HW1 9275   2.926  10.606   2.145  0.1956 -0.0159  0.1573
35290SOL    HW2 9276   3.073  10.641   2.159 -0.1023  1.1201  0.4045
35291SOL     OW 9277   4.507   1.858   7.436 -0.2834  0.1240  0.0869
35291SOL    HW1 9278   4.489   1.764   7.436  0.3730 -0.0032  1.2413
35291SOL    HW2 9279   4.596   1.866   7.469  0.2969  1.0509 -1.6340
35292SOL     OW 9280  10.141   7.554   0.890 -0.0185 -0.3865  0.0848
35292SOL    HW1 9281  10.115   7.462   0.895 -0.8966 -0.0728  2.0175
35292SOL    HW2 9282  10.080   7.592   0.827  0.2821 -1.0994 -0.6489
35293SOL     OW 9283   6.636   9.094   6.484 -0.9402  1.1205  0.3444
35293SOL    HW1 9284   6.665   9.153   6.554 -0.9476  0.1229  1.1965
35293SOL    HW2 9285   6.662   9.139   6.403 -0.6774  2.1512  0.9870
35294SOL     OW 9286  10.575   6.486   2.969 -0.4569  0.4286  0.6123
35294SOL    HW1 9287  10.507   6.552   2.978 -0.2837  0.3715  2.4776
35294SOL    HW2 9288  10.656   6.536   2.960 -0.5586  0.4803 -0.0403
35295SOL     OW 9289   4.987   5.013   6.198  0.0284  0.1583 -0.2245
35295SOL    HW1 9290   4.917   5.024   6.134  0.7231  2.5792 -0.6409
35295SOL    HW2 9291   4.968   4.930   6.241 -2.4650  0.2554 -1.0658
35296SOL     OW 9292   9.195   8.701   1.311  0.0180  0.0652  0.5433
35296SOL    HW1 9293   9.245   8.757   1.251 -1.7546 -2.8442 -3.8818
35296SOL    HW2 9294   9.261   8.664   1.370  2.0467  1.8341 -0.5366
35297SOL     OW 9295   2.595   4.221   2.844 -0.6321  0.2005  0.1695
35297SOL    HW1 9296   2.629   4.302   2.882 -0.1863 -0.4460  1.1832
35297SOL    HW2 9297   2.547   4.179   2.916 -0.7947 -0.4730 -0.3244
35298SOL     OW 9298   9.011   1.510   6.296 -0.0809  0.0819 -0.4424
35298SOL    HW1 9299   8.916   1.522   6.297 -0.3564 -1.8533  1.1592
35298SOL    HW2 9300   9.045   1.580   6.352 -0.8237 -0.7949  1.1570
35299SOL     OW 9301   5.143   2.956   9.978 -0.7703 -0.0826 -0.0724
35299SOL    HW1 9302   5.222   2.940   9.926 -0.9115  1.7362 -0.8842
35299SOL    HW2 9303   5.072   2.929   9.920 -0.8739  0.9249 -0.4219
35300SOL     OW 9304   4.111   6.991   4.338 -0.1610  0.2563  0.0676
35300SOL    HW1 9305   4.083   6.960   4.424 -0.0272  1.2880  0.4890
35300SOL    HW2 9306   4.140   6.912   4.292 -1.8862 -0.5524  0.3253
35301SOL     OW 9307   2.344   2.378   5.856 -0.0747  0.5885  0.0765
35301SOL    HW1 9308   2.380   2.458   5.894 -1.7778  0.8070  1.2932
35301SOL    HW2 9309   2.391   2.367   5.774  2.7799  0.8162  1.6165
35302SOL     OW 9310   9.086   9.151  10.912 -0.3456  1.1754  0.3969
35302SOL    HW1 9311   9.083   9.172  11.006  0.3322  1.2149  0.4096
35302SOL    HW2 9312   9.174   9.177  10.884  0.2155 -0.8362  0.2191
35303SOL     OW 9313   0.095   1.725   1.162 -0.0109  0.0512  0.0101
35303SOL    HW1 9314   0.074   1.638   1.127 -0.5402 -0.1683  0.8511
35303SOL    HW2 9315   0.111   1.779   1.085 -0.7603 -0.5257 -0.5549
35304SOL     OW 9316   1.310   2.103  10.788 -0.2404  0.2129 -0.3093
35304SOL    HW1 9317   1.286   2.091  10.880  0.4143  2.0862  0.1345
35304SOL    HW2 9318   1.227   2.123  10.744 -0.2154  1.8364  0.3477
35305SOL     OW 9319   2.010   6.093   5.812 -0.1362 -0.0800 -0.2304
35305SOL    HW1 9320   2.067   6.163   5.846  0.0712  0.5492 -1.7954
35305SOL    HW2 9321   1.950   6.073   5.883  0.6221  0.8280  0.6720
35306SOL     OW 9322   9.859   7.250   1.181  0.1369  0.0272 -0.5460
35306SOL    HW1 9323   9.853   7.184   1.251  0.4450  1.2834  0.6843
35306SOL    HW2 9324   9.941   7.228   1.136  2.6394  2.2191  2.6809
35307SOL     OW 9325   2.433   1.947   1.888  0.4255 -0.0977  0.0243
35307SOL    HW1 9326   2.434   1.912   1.977  2.8826  0.9498  0.4534
35307SOL    HW2 9327   2.447   1.872   1.832  1.2976 -0.4104  0.6658
35308SOL     OW 9328   3.758   3.792   3.685  0.0673  0.3646 -0.0720
35308SOL    HW1 9329   3.753   3.706   3.644  1.4444  0.5526 -0.6724
35308SOL    HW2 9330   3.819   3.841   3.630 -1.5271  2.0678 -0.3524
35309SOL     OW 9331   2.409   6.177   9.412 -0.0173 -0.2193  0.4666
35309SOL    HW1 9332   2.370   6.243   9.469 -0.9540 -0.8901  0.6307
35309SOL    HW2 9333   2.492   6.155   9.453 -0.3272 -0.1322  1.1532
35310SOL     OW 9334   3.650   1.558   5.862 -0.0976 -0.2603 -0.2790
35310SOL    HW1 9335   3.610   1.552   5.776 -1.1815  0.3163  0.1645
35310SOL    HW2 9336   3.673   1.468   5.885 -0.7312 -0.5401 -0.7459
35311SOL     OW 9337   8.343   3.054   9.151  0.6491 -0.0346  0.3832
35311SOL    HW1 9338   8.358   3.026   9.060 -1.8921 -0.5924  0.0859
35311SOL    HW2 9339   8.297   2.980   9.191  1.1491  0.4932  1.9283
35312SOL     OW 9340   8.294   3.780   0.826  0.2817 -0.1836  0.1147
35312SOL    HW1 9341   8.207   3.742   0.816  0.1672  0.4609 -1.6132
35312SOL    HW2 9342   8.348   3.734   0.762  0.7698  0.6883 -0.1146
35313SOL     OW 9343   2.589  10.122   0.188 -0.9805  0.3066 -0.6315
35313SOL    HW1 9344   2.613  10.046   0.136 -2.1377 -0.4133 -0.1392
35313SOL    HW2 9345   2.610  10.098   0.278  1.3119  1.6715 -0.7579
35314SOL     OW 9346   0.108   3.455   4.247 -0.0997 -0.3395 -0.2325
35314SOL    HW1 9347   0.162   3.527   4.214  1.3374 -1.5157 -0.5154
35314SOL    HW2 9348   0.107   3.392   4.175  0.4476 -1.5402  0.7987
35315SOL     OW 9349   8.389   2.727   7.715  0.4070  0.1416  0.5978
35315SOL    HW1 9350   8.389   2.695   7.805 -1.2676  1.9333  1.2724
35315SOL    HW2 9351   8.478   2.712   7.684  0.7977 -1.1653  2.3070
35316SOL     OW 9352  10.311   8.340   6.916 -0.1016 -0.0524  0.0242
35316SOL    HW1 9353  10.357   8.270   6.869 -0.3056  0.9435 -1.6753
35316SOL    HW2 9354  10.267   8.294   6.988  1.1368 -1.4318 -0.0594
35317SOL     OW 9355   8.106   1.469   5.214 -0.0341  0.2074 -0.1486
35317SOL    HW1 9356   8.022   1.430   5.241 -0.4520  0.0535 -1.6287
35317SOL    HW2 9357   8.104   1.558   5.250  0.6188 -0.8406  2.6621
35318SOL     OW 9358   8.708  10.915   2.778 -0.6569 -1.0600 -0.1941
35318SOL    HW1 9359   8.777  10.954   2.833 -0.5070  0.4341 -1.4228
35318SOL    HW2 9360   8.644  10.882   2.841  0.5708 -1.3213  0.9406
35319SOL     OW 9361   6.076   1.030   1.065  0.2385  0.0446 -0.5395
35319SOL    HW1 9362   5.984   1.054   1.074 -0.5719 -2.4925 -1.7075
35319SOL    HW2 9363   6.089   1.019   0.971  1.6086 -0.1381 -0.3417
35320SOL     OW 9364   0.612   7.370   7.623 -0.7256  0.8840  0.1175
35320SOL    HW1 9365   0.646   7.458   7.638  1.4345  0.0832  0.1173
35320SOL    HW2 9366   0.672   7.331   7.559 -2.0060 -0.3826 -0.3542
35321SOL     OW 9367   8.408   1.449   1.071  0.2229  0.6374  0.1528
35321SOL    HW1 9368   8.489   1.441   1.019  0.5294  0.3202  0.6700
35321SOL    HW2 9369   8.367   1.529   1.040  1.1429  1.2251  0.4274
35322SOL     OW 9370   5.850   1.419   9.601 -0.1625 -0.0029  0.4884
35322SOL    HW1 9371   5.860   1.390   9.510  1.8394  0.7376  0.4503
35322SOL    HW2 9372   5.940   1.427   9.634 -0.8771 -0.6880  2.6866
35323SOL     OW 9373   5.323   5.369   1.545 -0.5251  0.0416 -0.1767
35323SOL    HW1 9374   5.363   5.287   1.519 -1.6051 -0.5048 -0.1568
35323SOL    HW2 9375   5.391   5.435   1.531  0.0434 -0.7227 -1.0664
35324SOL     OW 9376   2.825   6.137   2.147 -0.2427  0.2622  0.2111
35324SOL    HW1 9377   2.744   6.136   2.198 -0.1044 -1.5204  0.4553
35324SOL    HW2 9378   2.860   6.225   2.158 -0.8074  0.2549  2.2810
35325SOL     OW 9379   5.617   4.669  10.874 -0.0727  0.2786  0.2590
35325SOL    HW1 9380   5.665   4.650  10.954  1.9411  0.1470 -0.9443
35325SOL    HW2 9381   5.616   4.587  10.826 -1.3471  0.3306  0.1707
35326SOL     OW 9382   6.013   0.274   0.010  0.2694  0.1355  0.0600
35326SOL    HW1 9383   5.927   0.294  -0.027 -0.1887  1.8566  1.9458
35326SOL    HW2 9384   6.065   0.353  -0.008  1.7448 -1.2040 -1.7973
35327SOL     OW 9385   4.504   4.182   1.435  0.0984 -0.1041 -0.0525
35327SOL    HW1 9386   4.513   4.120   1.508  0.6904  0.4572  0.3604
35327SOL    HW2 9387   4.563   4.254   1.458 -1.4897  1.1950  0.0858
35328SOL     OW 9388   7.884   2.404   6.890 -0.5616 -0.6751  0.0595
35328SOL    HW1 9389   7.806   2.351   6.906 -1.2300  0.8408  2.0234
35328SOL    HW2 9390   7.919   2.422   6.978  1.0602  0.0031 -0.7171
35329SOL     OW 9391   4.059   0.094  10.124  0.2955  0.1930  0.2568
35329SOL    HW1 9392   4.090   0.004  10.132  0.4341  0.3431  1.5524
35329SOL    HW2 9393   3.978   0.096  10.176 -0.5055  0.4487 -0.9785
35330SOL     OW 9394   6.101   7.153   2.634  0.4410  0.5640 -0.1259
35330SOL    HW1 9395   6.138   7.073   2.670  0.4554  0.1061 -1.1228
35330SOL    HW2 9396   6.022   7.168   2.686 -0.2122 -0.7651 -0.6851
35331SOL     OW 9397   6.827   1.971  10.322  0.6025 -0.4520 -0.0257
35331SOL    HW1 9398   6.751   1.920  10.351  0.4992 -1.1161 -1.4320
35331SOL    HW2 9399   6.833   2.043  10.384  0.3053 -1.7712  1.5655
35332SOL     OW 9400   9.267   0.847   7.154  0.1046  0.3396 -0.4375
35332SOL    HW1 9401   9.293   0.802   7.073  0.3230  0.3053 -0.3491
35332SOL    HW2 9402   9.204   0.913   7.126 -1.3345 -0.9823 -0.4009
35333SOL     OW 9403  10.477   6.724  10.807  0.1260  0.0096 -0.5345
35333SOL    HW1 9404  10.400   6.711  10.863 -1.1320  1.9064 -1.7389
35333SOL    HW2 9405  10.445   6.780  10.736  3.2322  2.7963  0.1726
35334SOL     OW 9406   2.687   2.090   4.314  0.9112  0.3848 -1.1247
35334SOL    HW1 9407   2.719   2.001   4.297 -0.7164  0.1427 -3.0859
35334SOL    HW2 9408   2.591   2.081   4.314  0.7580  1.7315  1.0247
35335SOL     OW 9409   7.815   8.166   9.098 -0.5855  0.1613  0.5068
35335SOL    HW1 9410   7.886   8.119   9.054 -0.1720  0.0868  1.2516
35335SOL    HW2 9411   7.747   8.174   9.031 -0.4798 -1.0973  0.2467
35336SOL     OW 9412   2.560   4.638   8.627  0.4566  0.5523  0.5704
35336SOL    HW1 9413   2.574   4.697   8.552  1.0556 -0.0163  0.2243
35336SOL    HW2 9414   2.484   4.673   8.672  0.8369  1.6257  0.3908
35337SOL     OW 9415  10.267   4.346   5.639 -0.2184  0.6038 -0.6912
35337SOL    HW1 9416  10.360   4.365   5.653  0.4574 -0.6573 -3.1317
35337SOL    HW2 9417  10.252   4.264   5.684  0.6473 -0.7685 -2.8265
35338SOL     OW 9418   4.993  10.544   0.614  0.3340 -0.4469 -0.2534
35338SOL    HW1 9419   5.004  10.451   0.634 -0.6730 -0.3259  0.9213
35338SOL    HW2 9420   5.057  10.588   0.669  2.4952 -0.5817 -2.5741
35339SOL     OW 9421   4.730   9.975   9.694 -0.1103  0.3294 -0.1351
35339SOL    HW1 9422   4.798   9.922   9.652 -0.0473 -1.3052  1.9504
35339SOL    HW2 9423   4.649   9.924   9.683  0.0684 -0.6169  2.4838
35340SOL     OW 9424   7.434   9.197   8.752  0.4501 -0.0981  0.2741
35340SOL    HW1 9425   7.483   9.256   8.695  0.0435 -0.2859 -0.2866
35340SOL    HW2 9426   7.366   9.160   8.694 -0.0041 -0.2471  0.8995
35341SOL     OW 9427   6.783   3.185   0.996  0.1652 -0.7346 -0.3782
35341SOL    HW1 9428   6.762   3.152   0.908 -0.7521 -0.0354 -0.4291
35341SOL    HW2 9429   6.700   3.182   1.043  0.8361 -1.9802  0.7647
35342SOL     OW 9430   5.036   4.712  10.162 -0.1155  0.1961 -0.9975
35342SOL    HW1 9431   5.023   4.622  10.189  3.6747  0.6992  3.1157
35342SOL    HW2 9432   4.958   4.758  10.193  0.9407 -0.5629  3.0248
35343SOL     OW 9433   4.571   6.001   4.605 -0.2911  0.2668 -0.3229
35343SOL    HW1 9434   4.593   6.026   4.515  3.0492 -1.2769  0.0225
35343SOL    HW2 9435   4.475   6.006   4.607 -0.3795  1.5935 -3.5834
35344SOL     OW 9436   2.960   8.806   0.872  0.1452  0.0797 -0.0924
35344SOL    HW1 9437   3.016   8.729   0.862  0.6594  0.0927  2.5369
35344SOL    HW2 9438   2.982   8.842   0.958 -4.9073 -0.8291  1.7841
35345SOL     OW 9439   5.396   6.055   7.902 -0.2818 -0.3952  0.2097
35345SOL    HW1 9440   5.344   6.106   7.840  1.6208  1.4660  0.1109
35345SOL    HW2 9441   5.401   5.967   7.863 -0.3346  0.3612 -1.5328
35346SOL     OW 9442   6.355  10.808   2.222 -0.1078  0.1446  0.3709
35346SOL    HW1 9443   6.284  10.846   2.169  0.7542  1.8156  0.3779
35346SOL    HW2 9444   6.435  10.833   2.176  0.5295 -0.6860  1.0239
35347SOL     OW 9445   6.864   4.442   7.625 -0.3900  0.2218 -0.7412
35347SOL    HW1 9446   6.856   4.353   7.659 -0.0346 -0.3418 -2.1195
35347SOL    HW2 9447   6.896   4.432   7.535 -0.5749  1.7215 -1.0026
35348SOL     OW 9448   8.274  10.116  10.325 -0.2320 -0.3638  0.0981
35348SOL    HW1 9449   8.228  10.053  10.270  0.1852 -0.2820 -0.3500
35348SOL    HW2 9450   8.205  10.172  10.361 -0.4027  0.5381 -1.5591
35349SOL     OW 9451   4.814   3.181   3.511  0.0072 -0.8459  0.3992
35349SOL    HW1 9452   4.866   3.257   3.484  0.5948 -0.9508  1.1984
35349SOL    HW2 9453   4.875   3.129   3.565 -0.8174 -1.1488  1.0427
35350SOL     OW 9454   0.574   8.610   8.633  0.2623  0.1554 -0.4671
35350SOL    HW1 9455   0.624   8.583   8.556 -0.0099  0.5500 -0.7835
35350SOL    HW2 9456   0.504   8.666   8.598  1.1791  1.7691  0.2445
35351SOL     OW 9457   4.148   6.791   8.545  0.0546 -0.0952 -0.4239
35351SOL    HW1 9458   4.143   6.740   8.626 -0.3654 -0.5244 -0.7223
35351SOL    HW2 9459   4.217   6.855   8.563  0.7636 -0.9232 -0.1382
35352SOL     OW 9460   3.634   9.795   4.606 -0.2391 -0.2909 -0.5763
35352SOL    HW1 9461   3.673   9.708   4.598  0.3457 -0.1196  0.3271
35352SOL    HW2 9462   3.612   9.820   4.517  1.1301 -0.6641 -1.0249
35353SOL     OW 9463   2.004  10.706   5.793  0.1474  0.2338  0.4690
35353SOL    HW1 9464   1.985  10.683   5.884 -1.1364 -0.1137  0.1340
35353SOL    HW2 9465   2.050  10.629   5.758 -0.7909 -0.2986  0.3887
35354SOL     OW 9466   5.970   3.906   4.862  0.0942 -0.2653 -0.0237
35354SOL    HW1 9467   6.040   3.963   4.894  0.0727 -0.4612  0.3760
35354SOL    HW2 9468   5.991   3.819   4.898 -0.3987 -0.3081  0.1752
35355SOL     OW 9469   0.787   0.143   0.444 -0.7245 -0.4165 -0.8183
35355SOL    HW1 9470   0.775   0.224   0.395  2.3020  0.2316 -0.5856
35355SOL    HW2 9471   0.880   0.122   0.434 -0.8035 -2.1896  1.6841
35356SOL     OW 9472  10.435   3.055   3.922 -0.1049 -0.1562 -0.3774
35356SOL    HW1 9473  10.366   3.002   3.963 -0.0564  0.5583  0.6571
35356SOL    HW2 9474  10.507   3.052   3.985 -0.2316  1.4063 -0.1489
35357SOL     OW 9475   1.229   9.325   0.517 -0.6727  0.4674 -0.0167
35357SOL    HW1 9476   1.160   9.331   0.583 -1.2582 -0.5945 -0.5078
35357SOL    HW2 9477   1.307   9.358   0.560 -1.3557  1.1054  0.7521
35358SOL     OW 9478   6.679   9.317   4.226  0.0197  0.2432  0.1059
35358SOL    HW1 9479   6.592   9.326   4.262 -0.4171  0.1365 -0.8989
35358SOL    HW2 9480   6.691   9.395   4.171  0.7644  0.5263  0.6596
35359SOL     OW 9481   4.693   1.102   2.671 -0.2916 -0.3593  1.0146
35359SOL    HW1 9482   4.787   1.120   2.679 -0.4697  2.5798 -2.1881
35359SOL    HW2 9483   4.652   1.162   2.734 -0.1389  0.4132  0.3905
35360SOL     OW 9484   3.764   6.502   1.597  0.7039  0.1651 -0.9068
35360SOL    HW1 9485   3.719   6.434   1.648  0.4561  1.2811  0.4165
35360SOL    HW2 9486   3.695   6.541   1.543  0.6117  0.0880 -0.8459
35361SOL     OW 9487   2.784  10.206   1.939  0.1949  0.2326 -0.2268
35361SOL    HW1 9488   2.741  10.240   1.861  1.0118 -0.1867 -0.8609
35361SOL    HW2 9489   2.861  10.160   1.907  1.1577  1.0130  0.9010
35362SOL     OW 9490   1.641   6.758   5.444  0.0836 -0.0286 -0.2177
35362SOL    HW1 9491   1.732   6.768   5.473 -0.3824  1.6042  0.7541
35362SOL    HW2 9492   1.621   6.839   5.399 -1.4007  0.3105  1.0061
35363SOL     OW 9493   1.520   4.710   1.595 -0.5810  0.4479  0.0727
35363SOL    HW1 9494   1.497   4.708   1.502  1.0356  2.2389 -0.4013
35363SOL    HW2 9495   1.497   4.799   1.623  1.3349  0.7512  0.7409
35364SOL     OW 9496   6.567   3.504   0.916 -0.3703  0.5404 -0.6421
35364SOL    HW1 9497   6.473   3.516   0.933 -0.3920  1.5788 -1.4567
35364SOL    HW2 9498   6.609   3.536   0.996 -0.7136 -0.1217 -0.1890
35365SOL     OW 9499   1.800   4.507   7.471  0.4038  0.2032  0.7577
35365SOL    HW1 9500   1.876   4.493   7.528 -0.4108  0.8275  2.0101
35365SOL    HW2 9501   1.836   4.550   7.393  0.9920  2.6531  2.3427
35366SOL     OW 9502   4.144   4.055  10.649  0.2119  0.0492 -0.4161
35366SOL    HW1 9503   4.162   4.149  10.655 -0.6725  0.2176 -0.3468
35366SOL    HW2 9504   4.058   4.050  10.608  0.7145 -0.7663 -1.3757
35367SOL     OW 9505   5.660   3.124   2.237 -0.1272  0.4917 -0.4340
35367SOL    HW1 9506   5.670   3.037   2.198  0.0318  0.3943 -0.1704
35367SOL    HW2 9507   5.716   3.180   2.183 -1.7365  0.8022 -1.8365
35368SOL     OW 9508   4.736  10.090   4.137 -0.0699 -0.2747  0.3779
35368SOL    HW1 9509   4.760  10.144   4.212 -0.0654  0.0542  0.1439
35368SOL    HW2 9510   4.734  10.152   4.064  1.3028 -0.8485 -0.1563
35369SOL     OW 9511  10.098  10.589   2.605  0.4931  0.0914 -0.5282
35369SOL    HW1 9512  10.184  10.549   2.598  1.8081  2.6439  0.5287
35369SOL    HW2 9513  10.108  10.656   2.673 -1.4650  2.5815 -2.6091
35370SOL     OW 9514   4.908   4.197   2.538  0.3331  0.4051  0.4565
35370SOL    HW1 9515   4.938   4.196   2.447 -0.3288  3.1634  0.1839
35370SOL    HW2 9516   4.978   4.153   2.586  0.8363 -0.8167 -1.3200
35371SOL     OW 9517   1.857   4.350   4.842  0.2644 -0.4016 -0.5016
35371SOL    HW1 9518   1.853   4.270   4.894  0.2337  0.8643  1.5165
35371SOL    HW2 9519   1.935   4.395   4.874  0.4451  0.2255 -1.8219
35372SOL     OW 9520   7.895  10.298   0.860  0.2671 -0.6226 -0.1224
35372SOL    HW1 9521   7.856  10.278   0.775 -0.9083 -0.0733  0.2833
35372SOL    HW2 9522   7.873  10.390   0.875  1.2803 -0.4488  0.3587
35373SOL     OW 9523   1.968   1.132   6.218  0.4253  0.1338 -0.6978
35373SOL    HW1 9524   1.915   1.122   6.139 -1.0937  1.3884  0.1356
35373SOL    HW2 9525   1.935   1.065   6.278  1.5610 -0.8023 -1.0904
35374SOL     OW 9526   7.179   4.071   4.823 -0.4615 -0.3695  0.3651
35374SOL    HW1 9527   7.225   4.093   4.742 -1.4883  0.0085 -0.1219
35374SOL    HW2 9528   7.249   4.054   4.887  0.3407  0.7193 -0.2200
35375SOL     OW 9529   7.314   0.129   3.020  0.1944  0.0813 -0.0330
35375SOL    HW1 9530   7.275   0.049   2.985 -1.3413  0.7042  0.1927
35375SOL    HW2 9531   7.252   0.198   2.997  0.9145  1.0263  0.8082
35376SOL     OW 9532   5.077   0.145   9.998 -0.2606 -0.3127 -0.0194
35376SOL    HW1 9533   5.058   0.063  10.044 -1.2378  0.0439  0.2208
35376SOL    HW2 9534   5.169   0.138   9.973 -0.0222 -0.9770  1.0270
35377SOL     OW 9535   4.634   6.017   0.472 -0.1459  0.0533 -0.5962
35377SOL    HW1 9536   4.577   6.036   0.547  0.3718 -0.1901 -0.1393
35377SOL    HW2 9537   4.649   6.103   0.432  1.8913  0.5894  1.2553
35378SOL     OW 9538   7.631   9.971   7.102  0.0941 -0.7164 -0.0443
35378SOL    HW1 9539   7.649  10.011   7.187  1.6722 -0.3460 -0.5292
35378SOL    HW2 9540   7.705   9.997   7.047 -0.9072 -0.9561 -1.5349
35379SOL     OW 9541   6.810   3.462   5.763 -0.4301 -0.8377 -0.5944
35379SOL    HW1 9542   6.730   3.440   5.811 -1.1380 -1.3109 -1.9753
35379SOL    HW2 9543   6.857   3.521   5.822 -1.9851 -0.2238  0.0694
35380SOL     OW 9544   1.054   1.439   1.783  0.6775  0.1911 -0.5728
35380SOL    HW1 9545   1.003   1.427   1.703  1.9471  0.7903 -1.4916
35380SOL    HW2 9546   1.124   1.373   1.777  0.5508 -0.0205  0.2258
35381SOL     OW 9547   2.514   4.569   2.718  0.0411 -0.5310 -0.1451
35381SOL    HW1 9548   2.571   4.541   2.789  2.4749 -1.2258 -2.3000
35381SOL    HW2 9549   2.511   4.494   2.658  0.8661  1.2243 -2.4629
35382SOL     OW 9550   6.191   1.126   7.694  0.3507  0.1589  0.3910
35382SOL    HW1 9551   6.160   1.036   7.678 -0.1201  0.3684  0.1261
35382SOL    HW2 9552   6.271   1.132   7.642 -0.9857  0.7188 -1.6504
35383SOL     OW 9553   8.675   1.786  10.829  0.0776  0.1328 -0.5545
35383SOL    HW1 9554   8.603   1.796  10.767  0.4045  3.4832 -0.5323
35383SOL    HW2 9555   8.709   1.875  10.840  0.7447 -0.5302  3.5898
35384SOL     OW 9556  10.329   1.387   2.549 -0.3033 -0.5272 -0.0901
35384SOL    HW1 9557  10.334   1.387   2.645  1.7871  0.3376 -0.1767
35384SOL    HW2 9558  10.286   1.469   2.527  1.0427  0.2120  0.0318
35385SOL     OW 9559  10.196  10.282   0.177  0.0966  0.6545 -0.3557
35385SOL    HW1 9560  10.192  10.192   0.145 -1.0060  1.4708 -2.6233
35385SOL    HW2 9561  10.115  10.323   0.146  0.4323  2.3622  0.9042
35386SOL     OW 9562   2.019   2.713   9.943  0.0507  0.1439  1.1070
35386SOL    HW1 9563   2.080   2.663   9.889 -1.6635 -1.3450  0.4997
35386SOL    HW2 9564   2.073   2.750  10.013  2.2304  1.7581 -1.3865
35387SOL     OW 9565   9.359   4.742   3.320 -0.2545 -0.2691 -0.2079
35387SOL    HW1 9566   9.316   4.665   3.358  1.0901  0.0930  2.1047
35387SOL    HW2 9567   9.305   4.816   3.347 -0.1985 -0.1572 -0.4017
35388SOL     OW 9568   0.388   3.583   7.255 -0.3011 -0.6160 -0.4943
35388SOL    HW1 9569   0.303   3.539   7.244 -0.0623 -0.5422 -2.8939
35388SOL    HW2 9570   0.424   3.588   7.167  2.4758 -1.1340  0.5508
35389SOL     OW 9571   0.539   0.062   1.399  0.1410  0.1063 -0.0499
35389SOL    HW1 9572   0.548  -0.016   1.454  0.6338 -1.1453 -1.8593
35389SOL    HW2 9573   0.474   0.037   1.333 -0.7529  1.7243  0.2021
35390SOL     OW 9574  10.203  10.145   2.934 -0.3139 -0.2846  0.7106
35390SOL    HW1 9575  10.196  10.051   2.922 -0.3214 -0.2895  0.7591
35390SOL    HW2 9576  10.231  10.178   2.848 -0.0317 -0.3621  0.7711
35391SOL     OW 9577   1.438   0.793   9.649  0.4177 -0.2967  0.4002
35391SOL    HW1 9578   1.532   0.780   9.660  0.2277 -1.1139  1.0834
35391SOL    HW2 9579   1.399   0.758   9.729 -0.4672  0.0799  0.1433
35392SOL     OW 9580   9.647   7.882   9.125  0.0455 -0.5888  0.2393
35392SOL    HW1 9581   9.671   7.801   9.081  1.8426  0.3541 -0.5673
35392SOL    HW2 9582   9.729   7.917   9.159 -1.1074 -0.5670  3.1598
35393SOL     OW 9583   5.358   1.646  10.266 -0.1925  0.1087 -0.0948
35393SOL    HW1 9584   5.267   1.674  10.255 -0.0424  0.7370  0.1952
35393SOL    HW2 9585   5.358   1.601  10.351 -0.6452 -1.6935 -1.0427
35394SOL     OW 9586   5.725   1.775   0.575 -0.1234 -1.1253 -0.1213
35394SOL    HW1 9587   5.805   1.722   0.574  0.1442 -0.7460  0.6484
35394SOL    HW2 9588   5.676   1.741   0.651  0.4905  0.3738  0.9602
35395SOL     OW 9589   2.921   0.836   4.546 -0.8859  0.0740 -0.4979
35395SOL    HW1 9590   2.974   0.779   4.603  1.6589  1.1305 -1.7261
35395SOL    HW2 9591   2.856   0.874   4.604  1.8930  1.4225  1.8545
35396SOL     OW 9592   1.680   8.944   4.233 -0.1596 -0.0152  0.0445
35396SOL    HW1 9593   1.651   9.029   4.266  0.3478  0.8426 -1.6469
35396SOL    HW2 9594   1.600   8.898   4.212 -0.4079  0.6375 -0.4553
35397SOL     OW 9595   3.426   7.187   0.508  0.2663 -0.0484  0.2697
35397SOL    HW1 9596   3.445   7.280   0.521  0.2377  0.2474 -1.6607
35397SOL    HW2 9597   3.384   7.159   0.590 -0.7302  1.9071  0.4500
35398SOL     OW 9598   5.772   4.245   0.477 -0.3545 -0.4134 -0.1892
35398SOL    HW1 9599   5.700   4.184   0.492 -0.6322 -0.1023 -0.2287
35398SOL    HW2 9600   5.729   4.330   0.467 -0.0675 -0.3747 -1.1821
35399SOL     OW 9601   5.286   2.447   7.977  0.3016 -0.3812  0.0143
35399SOL    HW1 9602   5.214   2.407   7.930 -0.1731 -0.7988  1.0913
35399SOL    HW2 9603   5.244   2.504   8.042  0.9426 -0.0085  0.1078
35400SOL     OW 9604   4.453   9.868   8.715  0.0616 -0.1535 -0.0349
35400SOL    HW1 9605   4.362   9.887   8.693 -0.1942 -1.0550  0.2406
35400SOL    HW2 9606   4.451   9.835   8.805  0.8613  1.4411  0.5988
35401SOL     OW 9607   0.968   9.080   8.531 -0.0438 -0.7793  0.6600
35401SOL    HW1 9608   0.928   9.106   8.615  0.6926  0.7588  0.5603
35401SOL    HW2 9609   0.912   9.121   8.465 -0.5933 -1.9521  0.3913
35402SOL     OW 9610   9.171   6.228   1.845  0.5241  0.0560  0.4480
35402SOL    HW1 9611   9.181   6.321   1.865 -0.0308  0.0363  0.8386
35402SOL    HW2 9612   9.130   6.226   1.759 -0.1586  0.1926  0.7607
35403SOL     OW 9613   2.354   3.501   8.392  0.0832  0.4626 -0.1038
35403SOL    HW1 9614   2.417   3.526   8.325  0.6822 -0.4062  0.1305
35403SOL    HW2 9615   2.298   3.436   8.350  0.1606  0.2689  0.0929
35404SOL     OW 9616   8.816   9.456   8.503  0.3211  0.2211  0.5417
35404SOL    HW1 9617   8.759   9.398   8.452  1.0760  0.3619 -0.4732
35404SOL    HW2 9618   8.905   9.432   8.476  0.6273  2.2677 -0.3437
35405SOL     OW 9619   1.444   0.531   2.734 -0.0446 -0.1704  0.0770
35405SOL    HW1 9620   1.461   0.442   2.705 -1.2627 -0.2956 -0.2843
35405SOL    HW2 9621   1.517   0.552   2.793  1.0237 -0.8736 -0.9674
35406SOL     OW 9622   8.021   6.836   6.629 -0.1083  0.0637  0.3965
35406SOL    HW1 9623   8.099   6.892   6.631  0.3423 -0.4278 -1.7653
35406SOL    HW2 9624   7.960   6.884   6.573 -0.6075 -0.4969  0.4683
35407SOL     OW 9625   3.705   1.371   6.647  0.1403 -0.0664 -0.5801
35407SOL    HW1 9626   3.673   1.347   6.560  2.0486 -1.1477 -1.0302
35407SOL    HW2 9627   3.731   1.288   6.687 -2.3423  0.2124  1.7539
35408SOL     OW 9628   2.241   9.007   6.778  0.2324  0.2548 -0.6301
35408SOL    HW1 9629   2.165   9.040   6.730  0.5174  0.2541 -1.0919
35408SOL    HW2 9630   2.232   8.912   6.776  0.2094  0.2561 -0.6231
35409SOL     OW 9631   3.250   7.483   2.067  0.0255  0.2067  0.0902
35409SOL    HW1 9632   3.225   7.400   2.108  0.6553  0.4528  0.9937
35409SOL    HW2 9633   3.322   7.516   2.121 -0.9716  1.9193  0.4090
35410SOL     OW 9634   7.168   8.417   5.568 -0.1370  0.0861  0.5658
35410SOL    HW1 9635   7.153   8.493   5.511  1.1771  0.6445  0.9363
35410SOL    HW2 9636   7.210   8.454   5.646  2.4876 -1.2672 -0.1590
35411SOL     OW 9637   4.060   8.899   2.290  0.0140 -0.0579 -0.2042
35411SOL    HW1 9638   4.071   8.845   2.212  1.2776  0.4753 -0.4072
35411SOL    HW2 9639   4.137   8.956   2.291 -1.2640  1.6913  0.0538
35412SOL     OW 9640   9.846   9.387   7.053 -0.4958  0.3002  0.0835
35412SOL    HW1 9641   9.909   9.315   7.054 -1.2666 -0.3829  0.0332
35412SOL    HW2 9642   9.838   9.411   6.961 -1.1971 -0.4093 -0.0483
35413SOL     OW 9643   5.173   5.607  10.191 -0.0780  0.0329  0.0190
35413SOL    HW1 9644   5.221   5.627  10.271 -1.6210 -0.2906  1.0492
35413SOL    HW2 9645   5.239   5.570  10.132  1.5971  2.5599  0.2094
35414SOL     OW 9646   1.393   9.823  10.901 -0.1493 -0.2210  0.2139
35414SOL    HW1 9647   1.414   9.833  10.994 -1.7464 -1.7946  0.7640
35414SOL    HW2 9648   1.310   9.870  10.891  1.2600  2.1180 -0.9876
35415SOL     OW 9649   5.376   1.252   7.387  0.2415  0.4025 -0.4380
35415SOL    HW1 9650   5.446   1.317   7.396  1.1521 -0.7370  0.9777
35415SOL    HW2 9651   5.386   1.217   7.298  0.8753  0.9229 -0.5741
35416SOL     OW 9652   7.556   7.744   6.237 -0.0264 -0.3463  0.0734
35416SOL    HW1 9653   7.521   7.796   6.165 -1.2184 -0.1479  0.7632
35416SOL    HW2 9654   7.478   7.714   6.284  0.7432  0.3033  1.8189
35417SOL     OW 9655   2.101   0.118   0.473  0.3399 -0.3458 -0.2346
35417SOL    HW1 9656   2.046   0.099   0.549  0.6477 -1.3943 -0.2646
35417SOL    HW2 9657   2.158   0.189   0.503 -2.6545  2.5030 -0.9992
35418SOL     OW 9658   2.093   8.557   5.645  0.1437 -0.0783 -0.4654
35418SOL    HW1 9659   2.045   8.591   5.720  0.9699 -0.1777  0.1175
35418SOL    HW2 9660   2.036   8.490   5.608 -0.4614  0.2927 -0.2019
35419SOL     OW 9661   6.999   1.196   9.286  0.1655  0.2572 -0.2835
35419SOL    HW1 9662   7.027   1.254   9.215 -0.6477 -0.4426 -1.1968
35419SOL    HW2 9663   6.918   1.235   9.318 -0.1587 -0.1315 -0.6182
35420SOL     OW 9664   4.712   6.368   5.413 -0.5149  0.6607 -0.5683
35420SOL    HW1 9665   4.708   6.458   5.381 -2.0722  0.6467 -0.4178
35420SOL    HW2 9666   4.799   6.361   5.452 -0.7221  2.3822  0.2487
35421SOL     OW 9667   9.591   9.870   0.081 -0.2499  0.4247 -0.0942
35421SOL    HW1 9668   9.656   9.938   0.061 -1.1111  1.1878 -0.3295
35421SOL    HW2 9669   9.642   9.789   0.084  0.7308  1.0274 -0.1820
35422SOL     OW 9670   8.610   5.915  10.122 -0.1811  0.3128 -0.1435
35422SOL    HW1 9671   8.621   5.953  10.034 -1.3487  0.2953 -0.3065
35422SOL    HW2 9672   8.603   5.991  10.180 -1.9474  0.3764 -0.3981
35423SOL     OW 9673   5.517   2.934   5.465  0.0105 -0.3593  0.1912
35423SOL    HW1 9674   5.582   2.998   5.490 -0.8111  0.5099  0.1320
35423SOL    HW2 9675   5.448   2.943   5.531 -0.8707 -0.0102 -0.7658
35424SOL     OW 9676   8.600   1.757   9.118  0.4420  0.5337  0.1051
35424SOL    HW1 9677   8.675   1.800   9.158  1.3360  0.2118 -1.1811
35424SOL    HW2 9678   8.634   1.673   9.088 -0.3096  0.5837 -0.9129
35425SOL     OW 9679   5.978   8.523  10.092 -0.6037 -0.4958 -0.5599
35425SOL    HW1 9680   6.019   8.588  10.149  0.3696 -0.8964 -0.7933
35425SOL    HW2 9681   5.888   8.554  10.082  0.0516  1.2725 -1.3284
35426SOL     OW 9682   3.590   5.080   9.959  0.0559  0.2656  1.1544
35426SOL    HW1 9683   3.546   5.070   9.875  2.0418 -1.5043  0.2670
35426SOL    HW2 9684   3.604   5.174   9.968  0.2703  0.4429 -0.7591
35427SOL     OW 9685   4.724   8.689   4.148  0.6089  0.0833  0.4392
35427SOL    HW1 9686   4.689   8.738   4.075  2.2857 -1.2389 -1.3271
35427SOL    HW2 9687   4.795   8.743   4.182 -0.3489  0.8216  1.2722
35428SOL     OW 9688   8.632   7.815   6.369  0.1615  0.3094  0.3015
35428SOL    HW1 9689   8.543   7.788   6.393  0.4116 -0.6182  0.2152
35428SOL    HW2 9690   8.689   7.762   6.424  0.7078 -0.6245 -1.1255
35429SOL     OW 9691   1.313   2.358   6.903  0.0074  0.3549 -0.2054
35429SOL    HW1 9692   1.248   2.427   6.915  1.9273  2.2341 -0.4767
35429SOL    HW2 9693   1.286   2.314   6.822 -1.3436  0.6300  0.0802
35430SOL     OW 9694   2.420   1.120   8.981  0.0349 -0.3656  0.3548
35430SOL    HW1 9695   2.421   1.025   8.983  0.4266 -0.3395  2.5564
35430SOL    HW2 9696   2.388   1.146   9.067  2.1470  1.4844  0.6478
35431SOL     OW 9697   1.701   3.364   4.227 -0.4314  0.3121 -0.4049
35431SOL    HW1 9698   1.763   3.413   4.174 -1.0762 -0.5319 -2.0032
35431SOL    HW2 9699   1.616   3.382   4.187 -0.9031 -0.5461  0.1869
35432SOL     OW 9700   8.239   1.219   9.563 -0.0917 -0.0841 -0.2170
35432SOL    HW1 9701   8.314   1.168   9.594  1.2193  2.7853  1.5641
35432SOL    HW2 9702   8.198   1.252   9.643 -0.8844  1.6486 -1.2994
35433SOL     OW 9703   1.796   1.313  10.622  0.6237 -0.3132 -0.4620
35433SOL    HW1 9704   1.823   1.263  10.545 -0.2256 -2.0967  0.3735
35433SOL    HW2 9705   1.709   1.346  10.600  0.2062 -1.1741 -0.1078
35434SOL     OW 9706   5.858  10.370   0.442 -0.1532 -0.1168 -0.5883
35434SOL    HW1 9707   5.890  10.281   0.456  0.1949  0.2736  1.2817
35434SOL    HW2 9708   5.932  10.426   0.468 -1.3869  0.7459  1.1405
35435SOL     OW 9709   6.943  10.834   2.402 -0.4922  0.3038  0.5672
35435SOL    HW1 9710   7.009  10.903   2.394  2.6199 -2.4541  1.5224
35435SOL    HW2 9711   6.874  10.873   2.457  0.3432  3.1827 -0.3167
35436SOL     OW 9712   6.222  10.762   9.682  0.3413 -0.2309 -0.1499
35436SOL    HW1 9713   6.154  10.704   9.718  0.0651  0.9663  1.2953
35436SOL    HW2 9714   6.271  10.792   9.759  0.0993  1.9306 -0.8211
35437SOL     OW 9715   2.489   0.430   2.762  0.2209  0.0853  0.6408
35437SOL    HW1 9716   2.567   0.485   2.764 -0.1522  0.6303  0.4628
35437SOL    HW2 9717   2.478   0.400   2.852  0.8929 -0.3662  0.5792
35438SOL     OW 9718   2.465   5.730   9.134  0.0159 -0.2590 -0.3604
35438SOL    HW1 9719   2.406   5.722   9.059  0.1310 -0.3818 -0.4372
35438SOL    HW2 9720   2.530   5.795   9.107  0.5084 -0.8807 -0.6560
35439SOL     OW 9721   6.659   8.742   1.084 -0.4434 -0.0136  0.1805
35439SOL    HW1 9722   6.582   8.690   1.061  0.8681 -1.3692 -1.3245
35439SOL    HW2 9723   6.726   8.714   1.021  0.4235  3.2866 -0.4777
35440SOL     OW 9724   8.721   6.375   7.658 -0.1542  0.3832  0.2946
35440SOL    HW1 9725   8.633   6.340   7.645 -0.2256  0.1833  1.3471
35440SOL    HW2 9726   8.766   6.356   7.575 -1.1345  0.6027 -0.2916
35441SOL     OW 9727   8.234  10.236   7.292 -0.3554  0.2312  0.3783
35441SOL    HW1 9728   8.321  10.275   7.288 -1.2728  2.2417 -0.8377
35441SOL    HW2 9729   8.237  10.178   7.368  1.6602  1.2270  1.0905
35442SOL     OW 9730   9.133   6.210   0.100  0.2960 -0.1265  0.1378
35442SOL    HW1 9731   9.162   6.151   0.030 -2.8401 -1.6120 -0.0270
35442SOL    HW2 9732   9.060   6.258   0.061 -0.4764  0.1510  1.8907
35443SOL     OW 9733   0.459   5.594   8.138 -0.1985 -0.0604 -0.3558
35443SOL    HW1 9734   0.433   5.580   8.047  0.9430 -0.1518 -0.6757
35443SOL    HW2 9735   0.483   5.687   8.142  0.7919 -0.3040 -0.4244
35444SOL     OW 9736   8.731   4.255   3.382 -0.0938 -0.0991 -0.0856
35444SOL    HW1 9737   8.684   4.242   3.465  0.0871 -0.9031 -0.1065
35444SOL    HW2 9738   8.786   4.331   3.398 -1.0896  0.5986  0.0778
35445SOL     OW 9739   8.965   5.086  10.231 -0.0162  0.3586 -0.0398
35445SOL    HW1 9740   8.932   5.172  10.203 -0.4307  0.7439  1.5422
35445SOL    HW2 9741   8.908   5.062  10.304  0.7130 -0.8203  0.1512
35446SOL     OW 9742   2.395  10.565   5.782 -0.6190  0.5427 -0.0940
35446SOL    HW1 9743   2.469  10.601   5.830 -0.5954  2.0138 -1.1993
35446SOL    HW2 9744   2.389  10.618   5.703 -2.4690  0.0495 -0.3194
35447SOL     OW 9745   4.299   9.587   9.416 -0.4004  0.0776  0.0279
35447SOL    HW1 9746   4.365   9.552   9.476 -1.1186 -0.7921  0.3278
35447SOL    HW2 9747   4.215   9.564   9.457 -0.9217 -1.3240 -1.7546
35448SOL     OW 9748   2.592   8.679   6.382  0.6874  0.8257  0.0967
35448SOL    HW1 9749   2.612   8.758   6.433  1.2474  0.3722  0.5711
35448SOL    HW2 9750   2.660   8.616   6.405 -1.6842 -1.0061  2.3488
35449SOL     OW 9751   4.003   1.538   6.023  0.3727  0.2607  0.3628
35449SOL    HW1 9752   4.028   1.559   5.934  2.1113  0.4031  0.8643
35449SOL    HW2 9753   3.929   1.596   6.042 -0.6143 -0.4421 -1.2813
35450SOL     OW 9754  10.424   2.180   8.103 -0.2270 -0.7105  0.5359
35450SOL    HW1 9755  10.374   2.105   8.070 -0.1885  0.6034 -2.6621
35450SOL    HW2 9756  10.513   2.165   8.072 -0.2837  0.8105 -0.3813
35451SOL     OW 9757   7.523   1.278   3.246 -0.2260  0.3389 -0.2317
35451SOL    HW1 9758   7.548   1.319   3.163 -2.3812  2.4687  0.1259
35451SOL    HW2 9759   7.582   1.318   3.311 -1.1678  1.6313 -0.1524
35452SOL     OW 9760   1.104   5.739   6.685  0.1852  0.2503 -0.1117
35452SOL    HW1 9761   1.168   5.791   6.635  0.1474 -0.4491 -0.8960
35452SOL    HW2 9762   1.143   5.652   6.690 -0.2045  0.1039  0.3593
35453SOL     OW 9763   1.567   4.075  10.951 -0.3304 -0.6038 -0.1935
35453SOL    HW1 9764   1.558   4.125  11.032  1.1820 -1.3429  0.4423
35453SOL    HW2 9765   1.477   4.061  10.921 -0.8181  1.8069  0.0259
35454SOL     OW 9766   0.976  10.231   5.087 -0.0884 -0.1656  0.3642
35454SOL    HW1 9767   0.916  10.197   5.020  0.9428 -0.9367 -0.1905
35454SOL    HW2 9768   0.963  10.173   5.162  0.2660 -0.5977  0.0954
35455SOL     OW 9769   7.165   4.228   5.600 -0.1152 -0.0831 -0.4472
35455SOL    HW1 9770   7.101   4.256   5.534 -0.6098 -2.6511 -1.1294
35455SOL    HW2 9771   7.249   4.231   5.554 -0.0268  1.2399 -0.2017
35456SOL     OW 9772   1.494   6.487  10.699  0.0094  0.2892  0.0469
35456SOL    HW1 9773   1.450   6.429  10.637  0.2973  0.1534 -0.0294
35456SOL    HW2 9774   1.451   6.470  10.783 -1.3133  1.4474 -0.3685
35457SOL     OW 9775   2.033   6.071  10.827 -0.5889  0.1521  0.4452
35457SOL    HW1 9776   2.068   6.134  10.891  1.1013  1.5783 -1.8075
35457SOL    HW2 9777   1.960   6.117  10.786  0.8518  0.8468 -1.4349
35458SOL     OW 9778   2.998   5.273   1.287 -0.7474 -0.7421 -0.4091
35458SOL    HW1 9779   2.940   5.347   1.306  1.0999  0.7033 -0.2886
35458SOL    HW2 9780   3.016   5.234   1.372  0.3334  0.2587 -0.1668
35459SOL     OW 9781   1.215   5.163   3.332 -0.0380  0.8198  0.1613
35459SOL    HW1 9782   1.131   5.149   3.375 -1.0154 -2.3776 -2.5446
35459SOL    HW2 9783   1.193   5.176   3.240  2.4043 -0.1385 -0.6097
35460SOL     OW 9784   7.421   4.544   9.512 -0.6641 -0.4260  0.4749
35460SOL    HW1 9785   7.342   4.540   9.459 -0.0662  1.7483 -0.6426
35460SOL    HW2 9786   7.448   4.453   9.523 -2.8045 -1.1211  0.1015
35461SOL     OW 9787   3.439   7.542   7.711 -0.2299  0.2855 -0.8119
35461SOL    HW1 9788   3.515   7.522   7.765  0.7874  1.9790 -1.5882
35461SOL    HW2 9789   3.475   7.573   7.628 -1.7681 -0.5698 -1.8370
35462SOL     OW 9790   1.352   1.532   1.712  0.7041 -0.1521  0.6052
35462SOL    HW1 9791   1.284   1.476   1.749 -0.7691  2.0220  1.2742
35462SOL    HW2 9792   1.309   1.580   1.642  1.9704  0.1037 -0.0157
35463SOL     OW 9793   0.091   8.248   8.749  0.0971  0.1858  0.0503
35463SOL    HW1 9794   0.001   8.224   8.772  0.6432 -1.0244  0.9453
35463SOL    HW2 9795   0.135   8.260   8.833  0.8691  0.4434 -0.3885
35464SOL     OW 9796   4.361   8.813   4.145 -0.2199  0.6346  0.2164
35464SOL    HW1 9797   4.447   8.854   4.136  0.0015  0.1995  0.3420
35464SOL    HW2 9798   4.306   8.881   4.184 -0.7175  1.9264 -2.6500
35465SOL     OW 9799   3.293   3.087   7.022 -0.1141 -0.6268 -0.4525
35465SOL    HW1 9800   3.366   3.027   7.007 -1.8971 -2.6710 -1.2051
35465SOL    HW2 9801   3.219   3.047   6.976 -1.9021  1.0243  0.8883
35466SOL     OW 9802   1.402   1.738   4.587  0.2765  0.3741 -0.3443
35466SOL    HW1 9803   1.322   1.788   4.568  0.6364  0.4800 -1.6396
35466SOL    HW2 9804   1.371   1.658   4.629 -0.4997  0.5337 -0.6047
35467SOL     OW 9805   5.377   9.842   3.202 -0.2905  0.4964 -0.1832
35467SOL    HW1 9806   5.469   9.817   3.197 -0.6529 -0.9980  0.2818
35467SOL    HW2 9807   5.331   9.773   3.153 -1.0278  2.0567 -1.7587
35468SOL     OW 9808   9.633   0.096   9.547  0.1786  0.0869 -0.2713
35468SOL    HW1 9809   9.588   0.180   9.538  1.9519  1.0211 -0.7059
35468SOL    HW2 9810   9.718   0.110   9.506  0.5458 -1.9021 -0.2351
35469SOL     OW 9811   1.865   8.289   0.304  0.3534  0.6895 -0.1443
35469SOL    HW1 9812   1.793   8.351   0.316 -0.9673 -0.8469  0.0903
35469SOL    HW2 9813   1.941   8.343   0.286 -0.7314  2.3815  0.2734
35470SOL     OW 9814   3.791   8.676  10.475  0.4555  0.3344 -0.0600
35470SOL    HW1 9815   3.828   8.611  10.415 -0.8446  0.9310 -1.5193
35470SOL    HW2 9816   3.819   8.646  10.562  1.0952 -1.3703 -0.8229
35471SOL     OW 9817   5.193   9.131   1.428  0.3480  0.5977 -0.0456
35471SOL    HW1 9818   5.218   9.206   1.483 -0.0906  0.1950  0.7227
35471SOL    HW2 9819   5.102   9.114   1.451 -0.2136  1.1748 -1.7880
35472SOL     OW 9820   5.393   1.715   5.065  0.5907  0.0187  0.0826
35472SOL    HW1 9821   5.297   1.716   5.063  0.5700  0.3162  1.1284
35472SOL    HW2 9822   5.417   1.636   5.017 -0.2111 -0.9382  1.2245
35473SOL     OW 9823   2.899   5.956   1.708  0.3352  0.4209  0.0441
35473SOL    HW1 9824   2.915   6.035   1.758  2.0690 -0.8830  1.6440
35473SOL    HW2 9825   2.813   5.925   1.737  0.1931  1.0547  0.3064
35474SOL     OW 9826   9.583   9.861   0.723  0.8034 -0.2346  0.6279
35474SOL    HW1 9827   9.656   9.842   0.664  0.7991 -1.0348  0.8706
35474SOL    HW2 9828   9.623   9.910   0.794  0.7844  0.8428 -0.0996
35475SOL     OW 9829   2.044   1.050   0.188 -0.6542  0.8908  0.3933
35475SOL    HW1 9830   2.136   1.055   0.161 -0.1610 -0.2039  1.7654
35475SOL    HW2 9831   2.000   1.007   0.115 -0.1352  1.6852 -0.4001
35476SOL     OW 9832   7.057   3.675   5.112 -0.2048 -0.5011  0.2521
35476SOL    HW1 9833   7.005   3.712   5.040 -0.5598  0.3173  0.9196
35476SOL    HW2 9834   6.992   3.642   5.174  0.0532  0.5305  1.0925
35477SOL     OW 9835   9.695   7.428   6.491  0.0411 -0.1040  0.0254
35477SOL    HW1 9836   9.730   7.366   6.554 -1.0781  0.4051  1.1625
35477SOL    HW2 9837   9.729   7.513   6.519 -2.6125  0.5013  1.5681
35478SOL     OW 9838   2.575   2.489   3.638  0.0055  0.5204 -0.0608
35478SOL    HW1 9839   2.669   2.507   3.632  0.4613 -2.1442 -1.2877
35478SOL    HW2 9840   2.538   2.571   3.672  2.8046  1.4507  0.9326
35479SOL     OW 9841  10.252   5.251   3.698 -0.3566 -0.1979  0.2683
35479SOL    HW1 9842  10.256   5.342   3.726 -0.2036 -0.0821 -0.1422
35479SOL    HW2 9843  10.267   5.253   3.604  1.7579 -0.8287  0.5714
35480SOL     OW 9844   5.038   7.813   3.921 -0.0966  0.4682  0.4301
35480SOL    HW1 9845   5.112   7.873   3.909  0.5797 -0.1798  1.2400
35480SOL    HW2 9846   5.065   7.757   3.994 -0.6947 -0.8247 -0.3163
35481SOL     OW 9847   4.595   2.007   8.861  0.1815  0.0863  0.1174
35481SOL    HW1 9848   4.684   2.037   8.874 -0.2338  1.5009 -0.2455
35481SOL    HW2 9849   4.579   2.018   8.767  0.2262 -1.8722 -0.1477
35482SOL     OW 9850   7.197   9.204   9.066  0.2294 -0.1520 -0.1616
35482SOL    HW1 9851   7.215   9.123   9.017 -1.6510 -1.2762  0.8958
35482SOL    HW2 9852   7.115   9.237   9.028  0.3076  0.5510  0.2708
35483SOL     OW 9853  10.695   2.575   5.772  0.5828  0.3292  0.3902
35483SOL    HW1 9854  10.744   2.648   5.735  0.3171  0.5825  0.5391
35483SOL    HW2 9855  10.736   2.560   5.858  0.7304  0.2100  0.2979
35484SOL     OW 9856   3.338   4.677   9.695  0.1449  0.0509  0.7857
35484SOL    HW1 9857   3.259   4.723   9.667 -0.2978 -0.2459  1.5153
35484SOL    HW2 9858   3.318   4.584   9.679  0.6045  0.0265  0.3498
35485SOL     OW 9859   5.555  10.597  10.429  0.1940  0.0462 -0.3349
35485SOL    HW1 9860   5.476  10.565  10.473  0.0358 -0.1661 -0.7757
35485SOL    HW2 9861   5.546  10.692  10.431  0.1860  0.0374  0.0925
35486SOL     OW 9862   4.644   8.300   0.756 -0.1420 -0.1206 -0.0291
35486SOL    HW1 9863   4.579   8.360   0.718  0.0444  0.2859  0.2917
35486SOL    HW2 9864   4.669   8.243   0.683  0.9784  1.3193 -0.8001
35487SOL     OW 9865   9.130   8.668   2.772  0.4732 -0.1087  0.1981
35487SOL    HW1 9866   9.217   8.645   2.804  0.4004  1.3899  1.5212
35487SOL    HW2 9867   9.079   8.587   2.779  1.6190 -0.8592 -0.1218
35488SOL     OW 9868   6.107   2.811   0.124  0.3203 -0.2309  0.0176
35488SOL    HW1 9869   6.198   2.800   0.097  0.1632 -0.0285 -0.6309
35488SOL    HW2 9870   6.059   2.817   0.041 -0.0647  1.4018  0.3331
35489SOL     OW 9871   7.193   0.306   7.133  0.4248 -0.0006 -0.5952
35489SOL    HW1 9872   7.215   0.391   7.171  0.3091 -0.0728 -0.3579
35489SOL    HW2 9873   7.264   0.248   7.161 -0.1795 -0.2942  0.3897
35490SOL     OW 9874  10.188   0.437   1.853  0.0637  0.2133 -0.2510
35490SOL    HW1 9875  10.173   0.495   1.779  0.0130 -0.1395 -0.5177
35490SOL    HW2 9876  10.153   0.484   1.928 -1.2344 -0.0510 -0.6683
35491SOL     OW 9877   0.025   4.723   3.905 -0.0911 -0.1410 -0.0108
35491SOL    HW1 9878   0.038   4.788   3.974 -3.6049  1.2071 -0.4893
35491SOL    HW2 9879  -0.011   4.647   3.950 -0.6659  0.0828 -0.0788
35492SOL     OW 9880  10.589   0.129   5.645  0.0435 -0.6058 -0.0319
35492SOL    HW1 9881  10.661   0.166   5.697 -0.5453  0.1586  0.2534
35492SOL    HW2 9882  10.575   0.192   5.574 -0.6706 -0.4873  0.2028
35493SOL     OW 9883   2.720   0.849   9.890 -0.3244  0.0821  0.0244
35493SOL    HW1 9884   2.733   0.774   9.949  2.4014 -0.1478 -0.7964
35493SOL    HW2 9885   2.722   0.925   9.948  0.1990 -0.2752  0.4800
35494SOL     OW 9886   1.368   0.773   4.626  0.4076 -0.0481  0.3688
35494SOL    HW1 9887   1.366   0.756   4.532 -1.7125 -0.8292  0.5238
35494SOL    HW2 9888   1.321   0.699   4.665  1.2609  0.2640  2.0425
35495SOL     OW 9889   7.605   2.085   6.631 -0.1438  0.1333 -0.2906
35495SOL    HW1 9890   7.670   2.150   6.603  0.0515  0.0220 -0.1007
35495SOL    HW2 9891   7.603   2.022   6.559  0.2381 -0.0657 -0.1268
35496SOL     OW 9892   7.635   0.577   2.620  0.3227 -0.1983 -0.1238
35496SOL    HW1 9893   7.620   0.586   2.715 -0.6795 -2.6239 -0.0031
35496SOL    HW2 9894   7.719   0.530   2.614  0.6639  0.4549 -0.4568
35497SOL     OW 9895   9.450   3.125   3.945 -0.8692  0.0562 -0.1081
35497SOL    HW1 9896   9.517   3.110   4.012 -0.4233 -0.3964 -0.6553
35497SOL    HW2 9897   9.499   3.137   3.864 -1.4648 -0.6740 -0.5788
35498SOL     OW 9898   0.327   4.520   5.459  0.7613 -0.3964  0.4003
35498SOL    HW1 9899   0.419   4.495   5.459  0.7601 -0.4245 -0.2861
35498SOL    HW2 9900   0.322   4.592   5.396  0.3958 -0.0877  0.7787
35499SOL     OW 9901   8.154   1.817   3.623  0.7351 -0.0055  0.3482
35499SOL    HW1 9902   8.189   1.749   3.680  2.1871 -0.2359 -0.7709
35499SOL    HW2 9903   8.186   1.794   3.536 -2.2498 -0.2120 -0.7537
35500SOL     OW 9904  10.300   2.019   0.775  0.1384 -0.5719  0.1381
35500SOL    HW1 9905  10.341   1.933   0.761  2.8922  0.7111  0.0711
35500SOL    HW2 9906  10.329   2.072   0.701 -1.9667  0.2858 -0.0914
35501SOL     OW 9907   6.939   8.090   4.445  0.4285 -0.3261 -0.1014
35501SOL    HW1 9908   7.026   8.118   4.473  0.9794 -3.2297  1.2985
35501SOL    HW2 9909   6.954   8.036   4.368 -0.3503  0.7726 -1.0527
35502SOL     OW 9910   8.991   5.513   3.793  0.2830 -0.7424  0.1579
35502SOL    HW1 9911   9.067   5.469   3.755  0.1945 -0.3503 -0.4868
35502SOL    HW2 9912   8.988   5.483   3.883  2.0946  0.3989  0.6288
35503SOL     OW 9913   0.744   3.404   7.057  0.1250  0.5730 -0.8665
35503SOL    HW1 9914   0.736   3.498   7.045 -0.5290  0.7722  1.0158
35503SOL    HW2 9915   0.676   3.382   7.121  0.4858 -1.1176 -1.0532
35504SOL     OW 9916   7.372   0.722   7.708 -0.0126  0.3788  0.0672
35504SOL    HW1 9917   7.300   0.679   7.661 -0.5080  0.4303  0.7766
35504SOL    HW2 9918   7.363   0.815   7.685  2.4790 -0.1229 -3.3817
35505SOL     OW 9919   1.152   8.278   2.463  0.2162  0.0810 -0.4762
35505SOL    HW1 9920   1.185   8.280   2.552  1.1382  3.0889 -0.8216
35505SOL    HW2 9921   1.198   8.350   2.419 -1.6266 -0.1339 -2.8532
35506SOL     OW 9922   8.651   1.911   2.553  0.1210  0.2912 -0.5456
35506SOL    HW1 9923   8.594   1.944   2.483 -0.8460  0.9196  0.5241
35506SOL    HW2 9924   8.607   1.834   2.586  0.0154  0.6381  0.1237
35507SOL     OW 9925   0.054   5.779  10.175 -0.1981 -0.1295 -0.1739
35507SOL    HW1 9926   0.038   5.803  10.084 -0.6574  1.4545  0.3191
35507SOL    HW2 9927   0.091   5.857  10.215 -0.3535 -0.6922  1.0992
35508SOL     OW 9928  10.532   8.299   7.627  0.2273 -0.3423  0.6045
35508SOL    HW1 9929  10.613   8.326   7.670 -0.5091  2.6158  0.2516
35508SOL    HW2 9930  10.514   8.212   7.662  3.0544 -0.6873  1.3750
35509SOL     OW 9931   4.656   2.491   0.010 -0.0035 -0.1845 -0.5462
35509SOL    HW1 9932   4.572   2.475  -0.033 -0.1702 -0.3415 -0.1576
35509SOL    HW2 9933   4.677   2.582  -0.011 -1.2605  0.4930  1.0400
35510SOL     OW 9934   8.536   0.034  10.265  0.0135 -0.0539 -0.0728
35510SOL    HW1 9935   8.550   0.062  10.175 -0.5132 -0.6039 -0.3328
35510SOL    HW2 9936   8.485  -0.047  10.257 -0.7142  0.3200  0.7466
35511SOL     OW 9937   9.766   4.159  10.382 -0.2884  0.0534  0.4228
35511SOL    HW1 9938   9.729   4.245  10.401  0.2944  0.7885 -1.6961
35511SOL    HW2 9939   9.859   4.175  10.366 -0.0242 -1.0802  0.7777
35512SOL     OW 9940   1.246   1.568   0.675 -0.3737 -0.4408 -0.0813
35512SOL    HW1 9941   1.201   1.581   0.592  0.6661  1.5823 -0.3477
35512SOL    HW2 9942   1.338   1.586   0.656 -0.3638  1.8290  1.8609
35513SOL     OW 9943   2.682   8.754   8.123 -0.8834  0.6664 -0.2232
35513SOL    HW1 9944   2.722   8.785   8.204  0.0657 -2.1628  0.4247
35513SOL    HW2 9945   2.597   8.719   8.150 -0.8510  0.3242 -0.5647
35514SOL     OW 9946  10.294   4.617   3.210 -0.0713  1.0261 -0.3118
35514SOL    HW1 9947  10.210   4.571   3.222  1.0583 -0.2804  3.2479
35514SOL    HW2 9948  10.334   4.573   3.135 -1.0471 -0.7628  0.1622
35515SOL     OW 9949   7.421   5.393   6.035  0.0730  0.1964 -0.1343
35515SOL    HW1 9950   7.465   5.449   5.972 -0.0957  0.3105 -0.1508
35515SOL    HW2 9951   7.415   5.308   5.991 -2.2523  0.9012 -1.2642
35516SOL     OW 9952   9.429   2.401   3.331 -0.0703 -0.3649 -0.1328
35516SOL    HW1 9953   9.504   2.460   3.325  1.8364 -2.3770  2.7176
35516SOL    HW2 9954   9.368   2.446   3.391 -0.1081  0.2133 -0.6021
35517SOL     OW 9955   6.436   1.688   5.561  0.1438  0.0189  0.4089
35517SOL    HW1 9956   6.351   1.676   5.518  0.6604 -1.6373 -0.1793
35517SOL    HW2 9957   6.420   1.664   5.652  0.2815 -1.6961  0.0108
35518SOL     OW 9958   3.887   1.433  10.442  0.0473  0.0310  0.2452
35518SOL    HW1 9959   3.972   1.476  10.433 -0.1820  0.6151  0.8542
35518SOL    HW2 9960   3.879   1.414  10.535 -1.2303  1.5348  0.4774
35519SOL     OW 9961   6.429   6.329   0.425 -0.4123  0.8100 -0.2866
35519SOL    HW1 9962   6.380   6.405   0.391  0.4865  2.2593  1.5808
35519SOL    HW2 9963   6.521   6.353   0.415 -0.1127  1.0657  2.6228
35520SOL     OW 9964   6.214   6.152   8.384  0.2604 -0.3407  0.3652
35520SOL    HW1 9965   6.239   6.206   8.309 -0.0982 -0.8985 -0.1586
35520SOL    HW2 9966   6.225   6.210   8.459 -1.6896  0.9837 -0.3386
35521SOL     OW 9967   5.328   9.724   5.810  0.1463  0.6370 -0.0054
35521SOL    HW1 9968   5.360   9.790   5.871 -0.3873  0.6505  0.2638
35521SOL    HW2 9969   5.262   9.676   5.859  1.9021 -1.3816  0.4432
35522SOL     OW 9970   9.426   2.804   5.878  0.1178 -0.3631 -0.0968
35522SOL    HW1 9971   9.481   2.814   5.956  0.3685  0.3827 -0.3702
35522SOL    HW2 9972   9.375   2.725   5.895  0.7698 -0.6661  0.4651
35523SOL     OW 9973   4.289   8.651   7.833  0.6953 -0.4318  0.0194
35523SOL    HW1 9974   4.214   8.611   7.876 -0.7965  0.8144 -1.3745
35523SOL    HW2 9975   4.257   8.736   7.803  2.0583 -0.7535 -2.4145
35524SOL     OW 9976   8.996   8.921   3.302 -0.5021  0.2173  0.0331
35524SOL    HW1 9977   8.970   8.993   3.245 -1.5545  0.4569  0.8211
35524SOL    HW2 9978   8.954   8.844   3.263 -0.1646  0.1705 -0.2477
35525SOL     OW 9979   7.640   0.107   3.999 -0.1411 -0.0992  0.6108
35525SOL    HW1 9980   7.597   0.122   4.083 -1.1819  1.5458 -0.1877
35525SOL    HW2 9981   7.571   0.121   3.934  0.9582 -0.0723 -0.5691
35526SOL     OW 9982   2.901   1.865   5.376 -0.1104  0.1560  0.1535
35526SOL    HW1 9983   2.941   1.934   5.324  0.2985 -0.0757  0.1615
35526SOL    HW2 9984   2.807   1.883   5.371  0.0280  1.0829  0.6886
35527SOL     OW 9985  10.031   3.864   4.850 -0.0264  0.6840  0.3776
35527SOL    HW1 9986   9.964   3.917   4.807 -0.9582  1.2037  2.4127
35527SOL    HW2 9987  10.057   3.915   4.927  1.8620 -0.0596  0.2773
35528SOL     OW 9988   4.440   4.695   7.994  0.1964  0.6807 -0.4581
35528SOL    HW1 9989   4.351   4.667   8.016 -0.2345  0.9287 -1.8109
35528SOL    HW2 9990   4.458   4.767   8.054 -0.9242  1.3083 -0.8466
35529SOL     OW 9991  10.591   5.654   6.752  0.5592  0.2296 -0.4284
35529SOL    HW1 9992  10.644   5.670   6.673  1.6609 -1.0900  0.0220
35529SOL    HW2 9993  10.589   5.559   6.761  0.1125  0.3555  0.9278
35530SOL     OW 9994   1.890   0.824   7.885  0.7770  0.4087 -0.5249
35530SOL    HW1 9995   1.907   0.880   7.961  0.1184  0.6686 -0.5643
35530SOL    HW2 9996   1.961   0.761   7.885  1.0443  0.7087  0.0320
35531SOL     OW 9997   0.398   0.476   9.846  0.5971  0.0352  0.7957
35531SOL    HW1 9998   0.408   0.532   9.769 -0.1450  0.8027  1.2445
35531SOL    HW2 9999   0.481   0.429   9.852  0.6823 -0.0110 -0.4524
35532SOL     OW10000   0.933   4.004   2.770 -0.4105  0.1078  0.4777
35532SOL    HW110001   0.866   3.997   2.837 -0.2654  0.3844  0.6556
35532SOL    HW210002   1.015   3.985   2.816 -0.0947  2.0974  0.8108
35533SOL     OW10003   8.942   2.558   1.039  0.2058 -0.5204 -0.4709
35533SOL    HW110004   8.924   2.611   0.961  0.5854 -2.2574 -1.7845
35533SOL    HW210005   8.923   2.615   1.112 -0.9435  0.8985 -1.8504
35534SOL     OW10006   3.356   3.537   9.347  0.3893 -0.2080  0.4748
35534SOL    HW110007   3.309   3.550   9.429 -0.4990 -1.2036  0.1449
35534SOL    HW210008   3.403   3.619   9.332  0.5074 -0.0040  1.9355
35535SOL     OW10009   9.303   2.701   1.702  0.1673  0.3719  0.0678
35535SOL    HW110010   9.363   2.736   1.768  1.6550 -1.2021 -0.4000
35535SOL    HW210011   9.333   2.737   1.619  0.4810 -0.4177 -0.1692
35536SOL     OW10012   8.286  10.375   3.420 -0.3548 -0.1484 -0.0199
35536SOL    HW110013   8.334  10.361   3.502 -0.1025 -0.9636 -0.3068
35536SOL    HW210014   8.259  10.288   3.393  0.3095  0.0314 -1.2770
35537SOL     OW10015   2.397   0.089   8.696  0.5435 -0.6866  0.3841
35537SOL    HW110016   2.357   0.003   8.688 -1.4746  0.0485  2.1352
35537SOL    HW210017   2.477   0.074   8.746 -0.6951 -1.3194  2.2277
35538SOL     OW10018   6.934  10.079   8.455  0.1306 -0.0241 -0.2947
35538SOL    HW110019   6.914  10.048   8.367 -0.7157 -0.1262 -0.0714
35538SOL    HW210020   6.863  10.046   8.509  0.4184  0.3988  0.3527
35539SOL     OW10021   7.486   8.416   8.528  0.2927  0.2278  0.0237
35539SOL    HW110022   7.562   8.366   8.557 -0.5309 -0.5092  0.9397
35539SOL    HW210023   7.422   8.350   8.503 -0.2711  0.8396 -0.1658
35540SOL     OW10024   6.364   9.113   5.474  0.4028  0.1626 -0.6586
35540SOL    HW110025   6.357   9.030   5.521 -0.1217 -0.1402 -1.2627
35540SOL    HW210026   6.291   9.111   5.412  1.3438  0.3459 -1.7915
35541SOL     OW10027   3.549  10.055   4.704 -0.0695 -0.6328 -0.4523
35541SOL    HW110028   3.618  10.118   4.724  0.6563 -1.3349 -0.6994
35541SOL    HW210029   3.587   9.999   4.636 -1.1986 -0.5025 -1.2026
35542SOL     OW10030   9.104   7.246   1.155  0.9711  0.5135  0.1954
35542SOL    HW110031   9.063   7.294   1.083  0.3236 -0.0506  0.1813
35542SOL    HW210032   9.123   7.313   1.220  0.8285  0.9116 -0.1665
35543SOL     OW10033   2.053   3.659   9.865  0.0210 -0.2866 -0.7180
35543SOL    HW110034   1.986   3.675   9.932  1.0269  0.6732  0.0799
35543SOL    HW210035   2.007   3.671   9.782 -0.8485  0.1627 -0.1801
35544SOL     OW10036   8.268   4.032   1.455 -0.0544  0.0065  0.1787
35544SOL    HW110037   8.344   4.035   1.396 -0.1447 -0.0527  0.0568
35544SOL    HW210038   8.194   4.059   1.399 -0.2287 -0.5943  0.1225
35545SOL     OW10039  10.335  10.086   9.474  0.2380 -0.2411  0.2853
35545SOL    HW110040  10.394  10.023   9.515  0.4379 -0.4774 -0.3629
35545SOL    HW210041  10.265  10.034   9.435  0.6852 -0.1137 -0.7127
35546SOL     OW10042   1.024   8.909  10.943 -0.1621 -0.9901  0.9339
35546SOL    HW110043   1.099   8.953  10.982  0.4150 -0.4621 -0.7258
35546SOL    HW210044   1.062   8.849  10.879 -1.1837 -0.2165 -0.4294
35547SOL     OW10045   1.327   3.260   2.749 -0.2859 -0.9982  0.9075
35547SOL    HW110046   1.304   3.236   2.838 -1.4351 -1.4161  0.5098
35547SOL    HW210047   1.246   3.295   2.711  0.1931 -0.7952  0.0384
35548SOL     OW10048   6.160   9.771   1.139 -0.4202 -0.1644 -0.1769
35548SOL    HW110049   6.209   9.700   1.097  2.3942 -0.8478  3.8689
35548SOL    HW210050   6.194   9.851   1.098  0.4600 -0.9128 -0.9375
35549SOL     OW10051   8.292   9.136   8.046 -0.3124  0.1870 -0.5815
35549SOL    HW110052   8.238   9.186   8.107  1.8152  0.8865  0.7652
35549SOL    HW210053   8.377   9.181   8.046  0.9535 -2.1290 -1.0367
35550SOL     OW10054   0.531   6.056   5.534 -0.5870 -0.2695  0.2175
35550SOL    HW110055   0.624   6.058   5.556 -0.3904 -2.1170 -0.3454
35550SOL    HW210056   0.487   6.051   5.618 -0.2062  0.8929  0.4992
35551SOL     OW10057   7.225   1.263   8.140 -0.0763  0.0677 -0.2413
35551SOL    HW110058   7.162   1.332   8.123  0.2803  0.7065  1.0101
35551SOL    HW210059   7.225   1.211   8.059 -0.3923  1.4723 -1.1686
35552SOL     OW10060   7.310   3.875   7.249 -0.2508  0.5341 -0.0240
35552SOL    HW110061   7.270   3.868   7.162 -0.0833 -0.9077 -0.0090
35552SOL    HW210062   7.246   3.834   7.307  0.7312 -0.7565  0.1602
35553SOL     OW10063  10.694   1.483   2.018 -0.6808 -0.7323  0.0042
35553SOL    HW110064  10.659   1.530   2.094 -0.2133 -0.3625 -0.0072
35553SOL    HW210065  10.758   1.543   1.980  0.2611 -1.5753  0.2549
35554SOL     OW10066   6.029   5.428   1.214  0.0269  0.0842 -0.7320
35554SOL    HW110067   5.995   5.489   1.149  0.6252 -0.1296 -1.2467
35554SOL    HW210068   6.121   5.418   1.191  0.5507  0.9544  0.8706
35555SOL     OW10069   5.792   7.608   3.346 -0.4832  0.0032  0.3224
35555SOL    HW110070   5.875   7.572   3.315 -1.0572  0.2534 -1.5939
35555SOL    HW210071   5.767   7.672   3.279 -0.3937  2.6720  2.7389
35556SOL     OW10072   8.491  10.515   2.291 -0.1925 -0.8222  0.0935
35556SOL    HW110073   8.435  10.559   2.226 -0.9073  0.1310  1.3370
35556SOL    HW210074   8.434  10.450   2.331  0.4042 -1.7794 -0.6059
35557SOL     OW10075   1.570   4.891   3.243  0.0789 -0.0099 -0.2054
35557SOL    HW110076   1.619   4.832   3.301 -0.7805  0.8680  1.4341
35557SOL    HW210077   1.524   4.951   3.302 -0.1064  1.4814 -1.8203
35558SOL     OW10078  10.050   0.679   0.554 -0.1945 -0.4105 -0.2580
35558SOL    HW110079  10.005   0.659   0.636  0.2394 -3.9592 -0.8014
35558SOL    HW210080   9.983   0.668   0.486  0.2624 -0.8930 -0.6425
35559SOL     OW10081   1.104   6.722   6.778  0.2194 -0.0964 -0.4560
35559SOL    HW110082   1.147   6.745   6.695 -0.0039 -2.7277 -1.3604
35559SOL    HW210083   1.169   6.670   6.825  0.2728  1.2362  0.9679
35560SOL     OW10084   1.088   2.806   3.351  0.0403  0.0501 -0.2350
35560SOL    HW110085   1.063   2.841   3.436 -1.3195  1.9711 -1.3807
35560SOL    HW210086   1.171   2.849   3.331  1.0081 -1.3778  0.6805
35561SOL     OW10087   2.991   5.060  10.443 -0.1835  0.2798  0.1630
35561SOL    HW110088   2.928   5.034  10.376  0.5346  0.4850 -0.5873
35561SOL    HW210089   3.054   4.988  10.446  0.5147  0.8666 -0.3013
35562SOL     OW10090   9.570   6.160   3.145 -0.2739 -0.1873  0.0792
35562SOL    HW110091   9.514   6.193   3.075  0.3403 -0.7370 -0.6873
35562SOL    HW210092   9.573   6.065   3.131 -0.4994 -0.3535  1.1162
35563SOL     OW10093   9.075   3.412   5.928  0.4203  0.1311 -0.3988
35563SOL    HW110094   9.055   3.358   6.004 -2.8082  1.4730 -0.2443
35563SOL    HW210095   9.119   3.352   5.867  0.5951 -1.6200  1.3913
35564SOL     OW10096   1.257   9.415   7.533  0.0412 -0.7667 -0.1239
35564SOL    HW110097   1.285   9.462   7.455  0.3608  0.6453  0.8302
35564SOL    HW210098   1.337   9.375   7.567  0.2112 -0.0162  0.3832
35565SOL     OW10099   2.567   0.889  10.134 -0.1219  0.2953  0.0913
35565SOL    HW110100   2.591   0.796  10.132  0.9275  0.5713 -0.3961
35565SOL    HW210101   2.479   0.890  10.171 -0.7881 -1.0326 -1.3660
35566SOL     OW10102   6.506   6.773   9.161 -0.0154  0.5713 -0.2380
35566SOL    HW110103   6.453   6.698   9.133  0.0715  0.4178  0.0036
35566SOL    HW210104   6.595   6.738   9.169  0.1045  0.8050 -0.5462
35567SOL     OW10105   4.996   0.453   2.977 -0.4175 -0.0944  0.3555
35567SOL    HW110106   4.941   0.462   3.056 -1.4566 -1.4404 -0.1857
35567SOL    HW210107   4.957   0.380   2.929 -0.0814  1.0114 -1.6582
35568SOL     OW10108   0.494   0.881   3.003 -0.1459 -0.4010 -0.1050
35568SOL    HW110109   0.556   0.828   2.953 -1.8987 -2.1874 -0.4591
35568SOL    HW210110   0.489   0.839   3.088  0.5945  0.8967  0.5943
35569SOL     OW10111   6.166   8.380   2.442  0.3980  0.0771 -0.0446
35569SOL    HW110112   6.228   8.423   2.383 -0.8690  0.5526 -1.0577
35569SOL    HW210113   6.085   8.375   2.391 -0.8649  0.9796  1.8540
35570SOL     OW10114   7.402   7.549   7.802 -1.0909 -0.4303  0.0348
35570SOL    HW110115   7.397   7.610   7.728 -1.1565  1.7984  1.8039
35570SOL    HW210116   7.327   7.491   7.790 -1.1929  0.0102 -1.5475
35571SOL     OW10117   5.885   5.079   0.009  0.6349 -0.2221  0.5383
35571SOL    HW110118   5.908   5.002   0.062  0.4119 -0.2438  0.6035
35571SOL    HW210119   5.855   5.144   0.073  0.5909 -0.1660  0.4616
35572SOL     OW10120   8.110   7.995   4.496 -0.2722  0.4605 -0.3256
35572SOL    HW110121   8.170   8.000   4.422 -0.2308  0.3090 -0.3020
35572SOL    HW210122   8.052   8.071   4.485  0.3207  0.9642 -0.0055
35573SOL     OW10123   6.339  10.013   9.175  0.1964 -0.4904  0.1561
35573SOL    HW110124   6.324   9.962   9.255  0.9554 -0.3593  0.3854
35573SOL    HW210125   6.394  10.086   9.203  0.4024 -0.4007 -0.4796
35574SOL     OW10126   3.555   1.509   4.711  0.1869 -0.6637 -0.2428
35574SOL    HW110127   3.642   1.543   4.732 -0.1789  2.7992 -3.8349
35574SOL    HW210128   3.568   1.458   4.630 -1.3242  1.1648 -1.6799
35575SOL     OW10129   7.904   0.204   9.929 -0.1972 -0.1295 -0.0340
35575SOL    HW110130   7.891   0.221  10.022  0.0835  0.4267 -0.0905
35575SOL    HW210131   7.822   0.166   9.899 -0.2650 -0.3693  0.4545
35576SOL     OW10132   0.298   1.911   5.339  0.1688  0.0182  0.3178
35576SOL    HW110133   0.231   1.978   5.328 -0.1533 -0.0463  1.8093
35576SOL    HW210134   0.256   1.842   5.390  1.1134 -0.3978  0.5470
35577SOL     OW10135   2.360  10.189   6.159 -0.1139 -0.0049 -0.1192
35577SOL    HW110136   2.279  10.139   6.171 -0.4290  0.5964  0.2708
35577SOL    HW210137   2.422  10.151   6.221 -0.6257  0.6772  0.8216
35578SOL     OW10138   9.403   7.732   4.431  0.3901 -0.1080 -0.4331
35578SOL    HW110139   9.328   7.763   4.480  0.3905 -0.8168  0.0204
35578SOL    HW210140   9.377   7.741   4.339  0.3678  1.1555 -0.3090
35579SOL     OW10141   7.489   5.241  10.455 -0.0451 -0.1620  0.0752
35579SOL    HW110142   7.396   5.235  10.475 -0.1154 -0.1120 -0.2372
35579SOL    HW210143   7.532   5.239  10.541 -0.2245 -2.0741  0.1515
35580SOL     OW10144   4.325   2.761   3.693  0.1510 -0.0046 -0.3188
35580SOL    HW110145   4.292   2.825   3.756  1.8384 -0.0023  0.5996
35580SOL    HW210146   4.310   2.677   3.735  0.1718 -0.0642 -0.4333
35581SOL     OW10147   7.164  10.551   2.394 -0.1526  0.0906 -0.1812
35581SOL    HW110148   7.100  10.549   2.322 -0.4644  0.4473  0.0817
35581SOL    HW210149   7.247  10.530   2.352 -0.4218 -0.2591 -0.5509
35582SOL     OW10150   1.620   9.871   0.568  0.1216  0.0984  0.0219
35582SOL    HW110151   1.562   9.913   0.632 -0.0239  0.9550 -0.6761
35582SOL    HW210152   1.706   9.910   0.585  0.0722  0.3610 -0.3518
35583SOL     OW10153   9.919   2.929   1.540  0.1133 -0.5029  0.3044
35583SOL    HW110154   9.953   2.922   1.629 -0.5146  0.0893  0.5964
35583SOL    HW210155   9.899   2.839   1.515 -1.0477 -0.5266  1.2975
35584SOL     OW10156  10.841   5.076   6.806 -0.3920  0.7954  0.1090
35584SOL    HW110157  10.820   5.024   6.884  0.6942  0.2336  0.0305
35584SOL    HW210158  10.768   5.061   6.747 -0.4409 -0.0498  0.3804
35585SOL     OW10159   9.360   2.709   7.784 -0.3573 -0.0397  0.0159
35585SOL    HW110160   9.336   2.634   7.729 -1.7169  0.5062 -0.1622
35585SOL    HW210161   9.441   2.742   7.745 -0.9237 -0.0952 -1.2396
35586SOL     OW10162   3.304   3.892  10.032  0.2474 -0.5856  0.3599
35586SOL    HW110163   3.309   3.968  10.090  1.0614  0.1696 -0.6815
35586SOL    HW210164   3.382   3.841  10.052 -0.1373 -0.9961  0.8348
35587SOL     OW10165   9.265   7.972   2.317 -0.6862 -0.0523 -0.0503
35587SOL    HW110166   9.207   7.983   2.392 -3.2543  2.7772 -2.2969
35587SOL    HW210167   9.349   8.007   2.345 -1.1673 -0.4584  1.9614
35588SOL     OW10168   1.281   2.847   9.982  0.1885  0.0680  0.0858
35588SOL    HW110169   1.345   2.781  10.008 -1.1453 -1.6110 -0.7477
35588SOL    HW210170   1.332   2.926   9.968  1.8740 -0.8632  0.8084
35589SOL     OW10171   0.073   4.701   3.612 -0.2360 -0.4694  0.4214
35589SOL    HW110172  -0.014   4.739   3.625 -0.4488 -0.2340 -1.5821
35589SOL    HW210173   0.096   4.665   3.698 -2.6534 -1.2756  0.7740
35590SOL     OW10174   8.394   4.813   1.119 -0.1203 -0.6909  0.1123
35590SOL    HW110175   8.417   4.793   1.210  1.6091 -1.3101 -0.4461
35590SOL    HW210176   8.380   4.727   1.079 -1.5921 -0.3892 -0.0335
35591SOL     OW10177   4.304   2.693   7.678 -0.8999 -0.4259  0.6812
35591SOL    HW110178   4.328   2.601   7.686 -1.5647 -0.6089  0.5855
35591SOL    HW210179   4.223   2.692   7.627  0.5342  0.3767 -1.7054
35592SOL     OW10180   2.322   3.761   7.518 -0.2653  1.0294 -0.1986
35592SOL    HW110181   2.369   3.842   7.540 -3.1170  2.7551 -0.1652
35592SOL    HW210182   2.306   3.769   7.424  2.4747 -1.2016 -0.9064
35593SOL     OW10183   1.364   9.922   3.263 -0.2596  0.4041  0.2188
35593SOL    HW110184   1.277   9.882   3.260 -0.4143  0.6572  1.1753
35593SOL    HW210185   1.378   9.957   3.175 -1.4217  0.9976  0.2700
35594SOL     OW10186   1.997   7.495   6.632 -0.0820 -0.2138  0.1038
35594SOL    HW110187   1.969   7.574   6.678  1.8413  1.0994 -0.8838
35594SOL    HW210188   1.935   7.486   6.560  0.0703  0.7859 -0.1648
35595SOL     OW10189   7.079   1.401   5.149  0.4324 -0.8918 -0.6252
35595SOL    HW110190   7.093   1.365   5.237  3.3532  0.2818 -0.5313
35595SOL    HW210191   7.075   1.324   5.092 -0.4631 -1.6229  0.4041
35596SOL     OW10192   9.964   7.082   0.221  0.8601 -0.2506  0.0339
35596SOL    HW110193  10.007   7.038   0.294 -1.0273 -0.5944  0.9776
35596SOL    HW210194   9.952   7.172   0.251  0.2536 -0.3460  0.0907
35597SOL     OW10195   8.171   7.019   9.419  0.0498 -0.1252  0.3365
35597SOL    HW110196   8.261   7.049   9.417 -0.4296  1.3095 -2.0162
35597SOL    HW210197   8.177   6.924   9.417  1.5059 -0.0430  0.4099
35598SOL     OW10198   6.318   4.957   9.956  0.4013 -0.1682  0.1016
35598SOL    HW110199   6.392   4.898   9.967  1.3211  1.1165  0.8750
35598SOL    HW210200   6.250   4.920  10.013  0.4137 -1.3625 -0.6341
35599SOL     OW10201   4.428   2.130   2.241  0.6873  0.0381  0.2550
35599SOL    HW110202   4.517   2.127   2.208  0.8269  0.8261  0.5366
35599SOL    HW210203   4.438   2.144   2.336  0.2693  0.0337  0.3002
35600SOL     OW10204   2.091   8.164   9.686 -0.2735 -0.3238 -0.0354
35600SOL    HW110205   2.164   8.103   9.682 -0.2888 -0.4698  1.5676
35600SOL    HW210206   2.086   8.190   9.779 -2.1633 -0.2363 -0.1453
35601SOL     OW10207   3.769   2.536   6.495 -0.5516 -0.1267  0.2893
35601SOL    HW110208   3.824   2.458   6.510 -0.4446  0.1076  1.1789
35601SOL    HW210209   3.805   2.601   6.555 -1.1376  0.3657  0.1023
35602SOL     OW10210   6.047  10.947   4.565  0.0872  0.6962  0.0051
35602SOL    HW110211   6.091  10.937   4.650  0.0184 -0.6080 -0.1047
35602SOL    HW210212   5.959  10.912   4.579 -0.3234  1.5859 -0.2870
35603SOL     OW10213   1.466   3.158  10.550 -0.2716  0.4029  0.0767
35603SOL    HW110214   1.550   3.200  10.569 -0.2973  1.0701 -1.2294
35603SOL    HW210215   1.466   3.079  10.605  1.2350  0.3649  0.0589
35604SOL     OW10216   3.563   3.174   8.008  0.0804  0.1751  0.0758
35604SOL    HW110217   3.561   3.093   8.059  0.1858  0.3864  0.4106
35604SOL    HW210218   3.498   3.160   7.939  1.7449 -1.1215 -1.2561
35605SOL     OW10219   7.174   2.747   9.542 -0.0161 -0.1201  0.6959
35605SOL    HW110220   7.086   2.786   9.549 -0.1889 -0.3982  0.1111
35605SOL    HW210221   7.173   2.700   9.458  1.3537  1.5412 -0.2939
35606SOL     OW10222   6.953  10.892   1.274 -0.0216 -0.1269  0.2058
35606SOL    HW110223   6.998  10.949   1.212 -1.0623  1.1664  0.6088
35606SOL    HW210224   6.860  10.907   1.256 -0.3189 -0.4133  1.4684
35607SOL     OW10225   9.322   3.176   7.228 -0.5036 -0.1901  0.7925
35607SOL    HW110226   9.265   3.119   7.279 -1.8672  0.8648  0.4571
35607SOL    HW210227   9.265   3.244   7.195  1.0526  1.1873  0.8902
35608SOL     OW10228   9.677   0.450   4.847  0.0457 -0.0016 -0.7860
35608SOL    HW110229   9.747   0.498   4.892  0.9249 -1.6475 -0.3596
35608SOL    HW210230   9.598   0.468   4.900  1.2673 -2.8137  2.1683
35609SOL     OW10231   3.239   4.372   1.750 -0.2522  0.0663  0.0727
35609SOL    HW110232   3.311   4.435   1.741 -0.1258 -0.1739 -0.6132
35609SOL    HW210233   3.162   4.426   1.765  0.3968  0.2632  3.0039
35610SOL     OW10234   5.620   6.896   2.163  0.0663 -0.4042 -0.0616
35610SOL    HW110235   5.674   6.962   2.208 -0.7550 -1.1135  2.0478
35610SOL    HW210236   5.530   6.927   2.175 -0.1246 -0.1937 -1.9566
35611SOL     OW10237   3.445  10.099   2.313  0.9743 -0.1048 -0.0204
35611SOL    HW110238   3.489  10.022   2.277  0.5832  0.1302 -1.0283
35611SOL    HW210239   3.506  10.171   2.297  0.4668  0.1328 -0.9587
35612SOL     OW10240   1.087   2.423  10.020 -0.2192 -0.3208 -0.1662
35612SOL    HW110241   1.105   2.500  10.073 -0.8711 -1.2388  1.4395
35612SOL    HW210242   1.006   2.444   9.974 -1.1235 -0.5107  1.2797
35613SOL     OW10243   4.957   1.143   2.781  0.4243 -0.3133  0.3031
35613SOL    HW110244   4.998   1.192   2.852 -0.6144 -1.1531  1.4958
35613SOL    HW210245   5.028   1.091   2.744  1.2576  1.1162 -0.1593
35614SOL     OW10246   5.952   3.119   0.906 -0.2382  0.0303 -0.1125
35614SOL    HW110247   5.901   3.066   0.967  0.9439  0.0023  0.8799
35614SOL    HW210248   6.021   3.060   0.875 -0.1065  0.4065 -0.5428
35615SOL     OW10249   9.761   3.288   2.274 -0.3145 -0.0230  0.3588
35615SOL    HW110250   9.853   3.282   2.298 -0.6886  1.1540  2.2306
35615SOL    HW210251   9.754   3.240   2.191  2.0723  0.3581 -0.1043
35616SOL     OW10252   8.220   2.207  10.779  0.1382  0.0547  0.1700
35616SOL    HW110253   8.307   2.224  10.743  0.2015  0.4169  0.4848
35616SOL    HW210254   8.171   2.288  10.764  0.2157  0.2653  1.0389
35617SOL     OW10255   3.533   1.463   5.271 -0.1380  0.3489 -0.3485
35617SOL    HW110256   3.461   1.400   5.271 -0.9483  1.2146  2.2619
35617SOL    HW210257   3.525   1.509   5.188 -0.8878 -1.4522 -1.3061
35618SOL     OW10258   8.307   2.327   0.422  0.5155 -0.2625  0.2434
35618SOL    HW110259   8.239   2.349   0.359 -1.1982 -0.9665  1.8188
35618SOL    HW210260   8.346   2.411   0.446 -0.0030  0.1679 -0.4066
35619SOL     OW10261   2.644  10.872   2.878 -0.3932 -0.2814  0.2208
35619SOL    HW110262   2.603  10.914   2.954 -1.0116 -0.2311 -0.1327
35619SOL    HW210263   2.583  10.803   2.853  0.2942 -0.9415  0.3757
35620SOL     OW10264   1.113   6.720   6.120  0.6342 -0.0120  0.3750
35620SOL    HW110265   1.074   6.806   6.131 -0.2747 -0.3901  0.0955
35620SOL    HW210266   1.123   6.710   6.026  1.6742  0.1948  0.4496
35621SOL     OW10267   1.087   8.905   1.514  0.0939  0.2941  0.0165
35621SOL    HW110268   1.092   8.970   1.444  0.2100 -0.1225 -0.3708
35621SOL    HW210269   1.012   8.851   1.491 -2.0562  2.2941  2.1186
35622SOL     OW10270   4.112   7.604   9.290 -0.7765  0.2974 -0.1506
35622SOL    HW110271   4.019   7.614   9.270 -1.0869 -0.6872  0.7570
35622SOL    HW210272   4.151   7.567   9.210 -1.0746  1.1259 -0.6853
35623SOL     OW10273  10.932   4.359   0.706  0.7250 -0.0415 -0.1493
35623SOL    HW110274  10.870   4.293   0.738  1.6000  0.5567  2.9049
35623SOL    HW210275  10.990   4.311   0.647 -0.2748 -1.4257 -0.0324
35624SOL     OW10276  10.578   3.660   4.842  0.2204  0.5884 -0.4385
35624SOL    HW110277  10.536   3.611   4.912  0.1945  1.1883 -0.0289
35624SOL    HW210278  10.559   3.610   4.762 -0.5832  0.4294 -0.1508
35625SOL     OW10279   4.982  10.297   8.735  0.0844 -0.5389  0.4155
35625SOL    HW110280   4.887  10.300   8.723 -0.0261  1.0858  1.4869
35625SOL    HW210281   5.015  10.247   8.661 -1.5644 -0.6528 -0.2515
35626SOL     OW10282   2.065   5.775   3.512 -0.1366 -0.2629  0.0077
35626SOL    HW110283   1.979   5.751   3.479 -1.1800  0.7024  1.9479
35626SOL    HW210284   2.097   5.842   3.451  0.1896 -2.1169 -1.9260
35627SOL     OW10285  10.390   8.297   9.293  0.7166  0.4913  0.4171
35627SOL    HW110286  10.374   8.228   9.358  0.6397  1.0959  1.0533
35627SOL    HW210287  10.384   8.379   9.343 -2.3785  1.1510 -0.9391
35628SOL     OW10288   5.530   4.143   3.422 -0.2522 -0.2003 -0.2818
35628SOL    HW110289   5.453   4.168   3.370  1.0362  0.6082 -1.8336
35628SOL    HW210290   5.532   4.048   3.417 -1.8292 -0.3211  0.7814
35629SOL     OW10291   0.845   1.902   7.566 -0.7354 -0.1558 -0.3035
35629SOL    HW110292   0.868   1.944   7.483 -0.4157 -1.1595 -0.7281
35629SOL    HW210293   0.909   1.936   7.629  0.0026 -0.5902 -0.8140
35630SOL     OW10294   8.681   9.963   0.674 -0.0688 -0.2368 -0.2964
35630SOL    HW110295   8.599  10.012   0.682  1.2188  2.1192 -0.9968
35630SOL    HW210296   8.679   9.926   0.586 -0.0517  0.4499 -0.5872
35631SOL     OW10297   0.663   5.286   9.965 -0.0637  0.2101  0.0083
35631SOL    HW110298   0.714   5.259   9.888 -0.6161 -2.1062  0.4061
35631SOL    HW210299   0.616   5.364   9.937 -0.0080 -0.4283 -1.9038
35632SOL     OW10300   6.511   9.325   2.144  0.2850 -0.3910 -0.4086
35632SOL    HW110301   6.562   9.384   2.089  1.6784 -2.2558 -1.1734
35632SOL    HW210302   6.544   9.339   2.232  1.2291 -0.6639 -0.7170
35633SOL     OW10303   9.425   2.555   7.562  0.5410 -0.4159 -0.3596
35633SOL    HW110304   9.507   2.595   7.531  1.9778 -1.6111  1.7289
35633SOL    HW210305   9.453   2.473   7.604 -1.8326 -1.2498 -0.3121
35634SOL     OW10306   2.277   9.646   0.845 -0.1639 -0.1913  0.1284
35634SOL    HW110307   2.371   9.662   0.833 -0.3027 -0.0693 -0.8228
35634SOL    HW210308   2.270   9.550   0.850  0.1992 -0.1408  1.8592
35635SOL     OW10309   3.040   0.565   3.334  0.2003 -0.2841 -0.5920
35635SOL    HW110310   2.999   0.492   3.286  1.1365 -1.9957  1.1357
35635SOL    HW210311   3.132   0.539   3.342  0.4365  0.8546  0.5000
35636SOL     OW10312   1.576   5.486   0.160 -0.5432 -0.0157 -0.4490
35636SOL    HW110313   1.532   5.529   0.087 -0.1347 -0.8609 -1.2009
35636SOL    HW210314   1.505   5.447   0.211 -0.8595  0.9266 -0.1498
35637SOL     OW10315   5.327   8.133   7.400 -0.5224  0.3134  0.3079
35637SOL    HW110316   5.259   8.168   7.458  0.1135  1.7691  0.1910
35637SOL    HW210317   5.329   8.194   7.327 -1.6692 -1.7768 -1.5357
35638SOL     OW10318   2.199   1.539   7.943  0.4927 -0.2693 -0.5163
35638SOL    HW110319   2.247   1.577   7.869 -0.4124 -0.8924 -1.4398
35638SOL    HW210320   2.229   1.448   7.946  0.5067 -0.2504 -0.1374
35639SOL     OW10321   3.508   4.481   5.142 -0.1890  0.4036 -0.0564
35639SOL    HW110322   3.560   4.512   5.067 -0.0937 -0.8661 -0.5223
35639SOL    HW210323   3.563   4.415   5.184  0.9829  3.0673  2.8530
35640SOL     OW10324   1.524   5.221   1.781  0.1177 -0.1301  0.2044
35640SOL    HW110325   1.511   5.293   1.718 -0.0099 -0.9679 -0.7384
35640SOL    HW210326   1.571   5.262   1.854 -1.7156  1.3588  0.5943
35641SOL     OW10327   0.371   6.921   5.629 -0.2334 -0.0117  0.0276
35641SOL    HW110328   0.407   6.853   5.573  0.6387 -0.3334  0.9814
35641SOL    HW210329   0.374   6.885   5.717 -2.0877  0.2845  0.2488
35642SOL     OW10330   1.640  10.856   2.805  0.6384  0.1790 -0.4202
35642SOL    HW110331   1.649  10.771   2.848  0.3887 -0.1664 -1.0466
35642SOL    HW210332   1.598  10.837   2.722  1.1974  0.8359 -0.8611
35643SOL     OW10333   0.513   2.267   5.286 -0.5186  0.8064  0.0825
35643SOL    HW110334   0.541   2.209   5.357 -0.7197  1.1107  0.4119
35643SOL    HW210335   0.455   2.330   5.328  0.3536  1.7652 -0.1122
35644SOL     OW10336   6.678   6.670   0.025 -0.3886  0.4164 -0.3529
35644SOL    HW110337   6.737   6.742   0.047 -0.0616  0.3999 -1.1605
35644SOL    HW210338   6.728   6.591   0.049 -1.2233  0.4814  1.6769
35645SOL     OW10339   3.970   4.356   1.697 -0.0246  0.6233  0.2745
35645SOL    HW110340   3.955   4.262   1.708  0.4863  0.6049  0.8745
35645SOL    HW210341   3.884   4.391   1.673  0.1432 -0.2376 -1.6485
35646SOL     OW10342   4.964   6.108   0.243  0.3922  0.3559  0.3258
35646SOL    HW110343   4.962   6.098   0.147  0.2337 -1.3800  0.4811
35646SOL    HW210344   5.054   6.085   0.267  0.5433  1.1941  0.5542
35647SOL     OW10345   9.289   1.881   9.903 -0.4639 -0.2095 -0.1327
35647SOL    HW110346   9.316   1.811   9.844 -2.2314 -0.2337 -0.9729
35647SOL    HW210347   9.369   1.909   9.947  0.6915 -0.9944 -1.7025
35648SOL     OW10348   6.464   9.675   9.197 -0.3470  0.2784 -0.2773
35648SOL    HW110349   6.383   9.669   9.147 -0.9030 -2.2961  0.8379
35648SOL    HW210350   6.449   9.747   9.259 -0.3946  2.1545 -2.4010
35649SOL     OW10351   5.370   4.747   4.062 -0.3012 -0.2654  0.2362
35649SOL    HW110352   5.288   4.716   4.101 -1.3108  2.1251  0.1036
35649SOL    HW210353   5.349   4.762   3.970  0.5870 -0.6535 -0.0368
35650SOL     OW10354  10.725  10.219   3.894 -0.0418 -0.2956 -0.0292
35650SOL    HW110355  10.748  10.270   3.972 -1.0540 -0.3208  0.3004
35650SOL    HW210356  10.658  10.272   3.850 -2.4111 -2.1331  1.2601
35651SOL     OW10357   9.694   9.208   8.716 -0.1944  0.2835 -0.8884
35651SOL    HW110358   9.678   9.118   8.688 -0.0273  0.3103 -1.0774
35651SOL    HW210359   9.679   9.207   8.811 -1.4381  0.3427 -1.0800
35652SOL     OW10360   4.381   8.196   0.644 -0.4889 -0.5800  0.1082
35652SOL    HW110361   4.464   8.152   0.664 -0.6000 -0.7383  0.2113
35652SOL    HW210362   4.339   8.140   0.579 -0.8689 -0.8944  0.6234
35653SOL     OW10363   8.024   9.111   9.336 -0.2117  0.0568  0.1095
35653SOL    HW110364   8.085   9.039   9.349  0.6753  0.7854  0.0254
35653SOL    HW210365   8.069   9.170   9.275 -1.7283 -0.2636 -1.3498
35654SOL     OW10366   9.820   0.164   5.137 -0.1788 -0.4705  0.3611
35654SOL    HW110367   9.770   0.084   5.119 -2.0066 -0.3026  4.1765
35654SOL    HW210368   9.898   0.133   5.182 -0.5310 -0.1738  1.1795
35655SOL     OW10369   1.080   6.992   4.856 -0.3462  0.0035  0.4023
35655SOL    HW110370   1.056   6.939   4.932 -2.7305  0.7429  0.2238
35655SOL    HW210371   1.156   7.042   4.884  0.5688 -1.8435  1.3264
35656SOL     OW10372   4.192   8.044   4.175  0.3335 -0.7020  0.5614
35656SOL    HW110373   4.208   7.989   4.252 -2.0579 -1.4730  0.5723
35656SOL    HW210374   4.141   8.118   4.208 -1.5583 -1.5314 -0.3724
35657SOL     OW10375   5.538   6.171   8.386 -0.1430 -0.6405  0.1426
35657SOL    HW110376   5.623   6.195   8.348 -0.2114  0.9089  0.9372
35657SOL    HW210377   5.546   6.193   8.478 -1.5749 -0.0396  0.1340
35658SOL     OW10378   3.456   7.938   9.134  0.2877 -0.2252  0.2630
35658SOL    HW110379   3.391   7.957   9.066  0.6129 -0.1576 -0.0353
35658SOL    HW210380   3.522   8.007   9.123  0.4048 -0.2916  0.5609
35659SOL     OW10381   4.588   2.371   3.688  0.2227  0.2461  0.3294
35659SOL    HW110382   4.591   2.403   3.778  0.0411 -0.2684  0.5233
35659SOL    HW210383   4.599   2.449   3.633 -0.8972  0.7261  0.7727
35660SOL     OW10384   3.055   7.485   9.208  0.0457  0.6908  0.3906
35660SOL    HW110385   3.120   7.432   9.256  0.2688 -0.9770 -1.6844
35660SOL    HW210386   3.087   7.486   9.118 -3.1616 -0.7539 -0.8097
35661SOL     OW10387   8.424   0.103   0.265 -0.4859  0.2855  0.5315
35661SOL    HW110388   8.468   0.049   0.200 -0.6501  1.2094 -0.3583
35661SOL    HW210389   8.332   0.100   0.241 -0.5925  0.3720  0.9169
35662SOL     OW10390   5.866  10.177   1.031 -0.1558 -0.3342  0.4088
35662SOL    HW110391   5.911  10.097   1.002  2.1967  0.8297  0.7956
35662SOL    HW210392   5.935  10.241   1.044 -1.7960  1.1005  2.4166
35663SOL     OW10393   2.990   0.750   0.693  0.5431 -0.2108  0.4839
35663SOL    HW110394   2.912   0.696   0.683 -0.1642  0.5832  1.6230
35663SOL    HW210395   3.062   0.687   0.697  0.1021 -0.9120 -1.5826
35664SOL     OW10396   0.337   5.294  10.485 -0.2296  0.0899  0.8258
35664SOL    HW110397   0.294   5.380  10.490 -0.2108  0.1135  0.5716
35664SOL    HW210398   0.424   5.309  10.522  0.5411  0.6764 -1.1386
35665SOL     OW10399   8.318   2.530   9.970 -0.0641  0.1489  0.5664
35665SOL    HW110400   8.231   2.564   9.950 -0.3075 -1.8256 -1.8865
35665SOL    HW210401   8.375   2.570   9.906  0.4604 -0.2652  0.7718
35666SOL     OW10402   6.905   9.110   3.156 -1.0847  0.1318  0.1364
35666SOL    HW110403   6.821   9.077   3.125 -0.4959 -1.3372  0.0546
35666SOL    HW210404   6.948   9.033   3.194  0.0104  0.9743  0.6280
35667SOL     OW10405   8.556   6.692   5.721  0.1346  0.4205 -0.2961
35667SOL    HW110406   8.486   6.628   5.708 -1.2332  1.5685  1.2074
35667SOL    HW210407   8.554   6.746   5.642  0.3938 -0.5337 -0.9666
35668SOL     OW10408   4.716   5.979   3.109  0.3460 -0.0983  0.0326
35668SOL    HW110409   4.671   6.049   3.157  0.1923 -0.7881  0.9011
35668SOL    HW210410   4.676   5.898   3.141  1.5374 -0.6644  0.0978
35669SOL     OW10411  10.676   4.621   2.577  1.1273 -0.8018  0.7310
35669SOL    HW110412  10.712   4.681   2.513 -0.6701 -1.4039 -0.8822
35669SOL    HW210413  10.670   4.672   2.658  2.7881  0.1481  0.2679
35670SOL     OW10414   7.565   8.146   6.007 -0.3699 -0.5838  0.3130
35670SOL    HW110415   7.597   8.143   5.917  1.1742 -1.4895  0.8671
35670SOL    HW210416   7.527   8.233   6.016 -1.9904 -1.0494 -1.6770
35671SOL     OW10417  10.233   4.132   6.959 -0.0480 -0.3334  0.4295
35671SOL    HW110418  10.202   4.165   6.874  1.0968 -1.1283 -0.3080
35671SOL    HW210419  10.282   4.206   6.996 -0.8854  0.1541  0.6003
35672SOL     OW10420   5.528   6.415  10.052  0.1767 -0.6056 -0.4029
35672SOL    HW110421   5.580   6.462   9.987  0.2831  0.6214  0.5451
35672SOL    HW210422   5.471   6.482  10.090 -0.7150 -1.5430 -0.0689
35673SOL     OW10423   6.514   6.902   4.819  0.3650 -0.6100  0.3473
35673SOL    HW110424   6.460   6.824   4.835  0.8017 -0.9702  0.0819
35673SOL    HW210425   6.469   6.972   4.866 -0.6156 -0.7972 -0.2852
35674SOL     OW10426   6.267   2.970   7.673 -0.1510  0.9359 -0.4681
35674SOL    HW110427   6.209   2.974   7.597  2.3792 -0.7771 -2.6002
35674SOL    HW210428   6.272   2.876   7.694  3.1741  0.8204 -1.4853
35675SOL     OW10429   0.437   9.680  10.300 -0.0286  0.3375  0.1654
35675SOL    HW110430   0.422   9.595  10.258  0.1640  0.5982 -0.4334
35675SOL    HW210431   0.365   9.688  10.362  1.0346 -1.1498  1.6609
35676SOL     OW10432   3.187   8.110   6.631 -0.6476 -0.0946 -0.2871
35676SOL    HW110433   3.146   8.196   6.628 -0.8447 -0.0617  2.0106
35676SOL    HW210434   3.158   8.066   6.551 -1.2549  1.6558 -1.0443
35677SOL     OW10435   8.163   1.541   5.818  0.4121 -0.5513 -0.4603
35677SOL    HW110436   8.184   1.606   5.884  1.3934  1.1018 -2.3405
35677SOL    HW210437   8.068   1.548   5.806  0.5784  0.8572 -0.9759
35678SOL     OW10438   9.644   4.339   6.401 -0.5079  0.1130  0.0870
35678SOL    HW110439   9.726   4.379   6.429  0.4105 -1.5242 -0.2066
35678SOL    HW210440   9.667   4.248   6.381 -2.2350 -0.1640 -0.7368
35679SOL     OW10441   6.297   9.613   6.593 -0.4597  0.5209 -0.2450
35679SOL    HW110442   6.296   9.672   6.518  0.9783 -0.9952 -1.5035
35679SOL    HW210443   6.241   9.655   6.659 -0.0593  2.8602 -1.3914
35680SOL     OW10444   1.172  10.485   0.905  0.5971 -0.3819 -0.3378
35680SOL    HW110445   1.243  10.420   0.901  1.4613  0.5333 -0.0884
35680SOL    HW210446   1.202  10.548   0.971 -0.1252  0.3938 -0.7489
35681SOL     OW10447   3.714   2.986   6.907  0.6720  0.4114 -0.4360
35681SOL    HW110448   3.647   2.999   6.974  2.2284 -0.8836  1.4223
35681SOL    HW210449   3.732   3.074   6.874 -1.1352  0.8942 -0.1729
35682SOL     OW10450   3.874   8.639   5.384  0.3088  0.0736 -0.2196
35682SOL    HW110451   3.954   8.610   5.427  0.3431  1.3119  0.5930
35682SOL    HW210452   3.869   8.733   5.404 -1.6422 -0.1069  0.2185
35683SOL     OW10453   3.353   8.203   8.122  0.1328 -0.1005 -0.3172
35683SOL    HW110454   3.301   8.173   8.047 -0.9785 -0.4031  0.5482
35683SOL    HW210455   3.331   8.141   8.192 -2.6815  2.9817  1.7020
35684SOL     OW10456   4.819   6.612   3.601 -0.5356  0.8088 -0.1716
35684SOL    HW110457   4.801   6.570   3.685  0.2454 -0.0095 -0.4134
35684SOL    HW210458   4.785   6.551   3.536  2.2172 -0.3518 -0.5996
35685SOL     OW10459   6.149   5.333   7.598  0.1719  0.4725  0.0000
35685SOL    HW110460   6.102   5.415   7.617 -1.2160  0.0735 -1.5273
35685SOL    HW210461   6.156   5.332   7.502  1.4066 -0.5301  0.0970
35686SOL     OW10462   8.298   1.805   2.795  0.0947  0.1949 -0.3315
35686SOL    HW110463   8.388   1.773   2.795  0.4739  1.2245 -0.3171
35686SOL    HW210464   8.276   1.813   2.702 -0.5207 -1.4974 -0.3440
35687SOL     OW10465   9.385   3.026   6.701 -0.3610  0.0837  0.2357
35687SOL    HW110466   9.293   3.040   6.682 -0.2037  0.5776 -0.1904
35687SOL    HW210467   9.386   2.982   6.786 -1.0684 -1.6355 -0.6154
35688SOL     OW10468   2.890   6.879   9.687 -0.2031  0.2867 -0.3469
35688SOL    HW110469   2.832   6.803   9.681  0.2282 -0.1739  1.2612
35688SOL    HW210470   2.965   6.848   9.738  0.1586  1.6795 -0.0227
35689SOL     OW10471   6.904   5.535   2.378 -0.0356  0.4247  0.8212
35689SOL    HW110472   6.941   5.553   2.291 -0.0025 -2.1209  0.2650
35689SOL    HW210473   6.865   5.618   2.405 -0.3290  1.1844 -1.7711
35690SOL     OW10474   5.677   1.928   4.008  0.0705  0.6476 -0.1203
35690SOL    HW110475   5.633   1.850   3.974 -0.3945  0.6094  0.5575
35690SOL    HW210476   5.609   1.972   4.060  1.3202 -0.2682  2.3261
35691SOL     OW10477   8.793   5.068   4.723  0.7195 -0.0262  0.1667
35691SOL    HW110478   8.766   5.040   4.811 -0.1834  1.5769  0.4244
35691SOL    HW210479   8.821   5.159   4.735 -0.7441  0.6535 -1.4453
35692SOL     OW10480   4.999   6.262   3.791 -0.7227  0.2336  0.4483
35692SOL    HW110481   5.011   6.356   3.787  0.8673  0.0400  0.4175
35692SOL    HW210482   5.008   6.240   3.883 -1.1814  0.1270  0.4668
35693SOL     OW10483   5.987   3.558   5.009 -0.2065 -0.0688 -0.4610
35693SOL    HW110484   5.960   3.478   5.054  1.3357 -0.5854 -0.4277
35693SOL    HW210485   5.939   3.557   4.926 -1.1868 -0.3538  0.1016
35694SOL     OW10486   0.921   7.369   6.077  0.2210 -0.1387  0.0341
35694SOL    HW110487   0.920   7.420   6.158 -1.5266  1.3124 -0.8838
35694SOL    HW210488   0.845   7.312   6.084  1.1919 -1.4282  0.2728
35695SOL     OW10489   7.211   2.342   2.045 -0.0116  0.1763 -0.2404
35695SOL    HW110490   7.186   2.253   2.020 -0.3146  0.5294 -1.1917
35695SOL    HW210491   7.130   2.383   2.074 -0.0648  0.4750 -0.8025
35696SOL     OW10492   8.244   3.493  10.970  0.2631  0.2832  0.5421
35696SOL    HW110493   8.282   3.426  10.913 -0.1057 -0.7191  1.4492
35696SOL    HW210494   8.287   3.574  10.944  2.0575 -0.6090  0.6602
35697SOL     OW10495   2.481   4.067   5.768  0.3890  0.1190  0.5887
35697SOL    HW110496   2.510   4.015   5.844 -2.0331 -0.8091  0.9466
35697SOL    HW210497   2.438   4.003   5.711  0.6251  1.1243 -0.7340
35698SOL     OW10498   4.059   6.812   4.556 -0.0047 -0.2255 -0.2268
35698SOL    HW110499   4.118   6.737   4.546 -0.2877 -0.5943  0.8437
35698SOL    HW210500   3.973   6.773   4.572  0.1566  0.3244  2.0709
35699SOL     OW10501  10.888   6.685   6.220  0.2117 -0.4010 -0.2563
35699SOL    HW110502  10.840   6.752   6.268 -1.2382 -0.3778 -1.6926
35699SOL    HW210503  10.906   6.725   6.134 -1.2754 -2.0572 -1.3806
35700SOL     OW10504   1.419   8.541   6.226 -0.4203  0.1339  0.0958
35700SOL    HW110505   1.477   8.469   6.250 -0.1762  0.4729  0.5406
35700SOL    HW210506   1.342   8.530   6.281 -1.4628 -1.2052 -1.5836
35701SOL     OW10507   2.419   2.541   7.949  0.4040  0.0632  0.5464
35701SOL    HW110508   2.479   2.584   8.010  1.3790 -2.9327  1.7690
35701SOL    HW210509   2.451   2.568   7.862  3.8756 -1.7617  1.1456
35702SOL     OW10510   6.155   6.524  10.414  0.2440 -0.2925  0.0659
35702SOL    HW110511   6.126   6.490  10.498 -0.2612  1.1097  0.4850
35702SOL    HW210512   6.077   6.522  10.359 -0.0162  0.9995  0.3717
35703SOL     OW10513   3.716   7.947   1.103  0.5261  0.3805 -0.5972
35703SOL    HW110514   3.739   7.959   1.195  0.8986 -2.0936 -0.3138
35703SOL    HW210515   3.713   7.852   1.093 -1.5504  0.6413 -2.6370
35704SOL     OW10516   1.366   2.866   0.517 -0.3129 -0.3481  0.4088
35704SOL    HW110517   1.458   2.875   0.492  0.0451  1.7274  2.3571
35704SOL    HW210518   1.368   2.825   0.603 -1.3214 -1.9014 -0.2709
35705SOL     OW10519   8.845   2.192   3.800 -0.1670 -0.0255  0.7083
35705SOL    HW110520   8.812   2.267   3.850  1.4496  0.7558  0.6385
35705SOL    HW210521   8.776   2.126   3.807  0.0236  0.0475  3.9720
35706SOL     OW10522   8.925   9.307  10.766 -0.1348 -0.0076 -0.3008
35706SOL    HW110523   8.966   9.250  10.830  1.2082  0.7626 -0.4546
35706SOL    HW210524   8.996   9.335  10.709 -0.8218  1.4766 -0.4761
35707SOL     OW10525   3.608   1.853   6.301  0.3225 -0.3624  0.5611
35707SOL    HW110526   3.685   1.904   6.327  0.3274 -0.0829 -0.0061
35707SOL    HW210527   3.601   1.866   6.207 -0.6436 -0.0701  0.6659
35708SOL     OW10528   6.209   1.656   1.192 -0.0453 -0.1087 -0.1971
35708SOL    HW110529   6.215   1.744   1.153  0.6860  0.3213  0.8639
35708SOL    HW210530   6.198   1.672   1.286  2.0492 -1.1482  0.2657
35709SOL     OW10531   1.919   9.788  10.005  0.3109 -0.5010 -0.6588
35709SOL    HW110532   1.913   9.772   9.911 -0.5515  1.2128 -0.9260
35709SOL    HW210533   1.834   9.825  10.029  1.2104  0.9538  0.3977
35710SOL     OW10534   0.655   2.682   1.331  0.0689  0.8591  0.2083
35710SOL    HW110535   0.561   2.698   1.340 -0.2407  0.0932 -1.4578
35710SOL    HW210536   0.669   2.598   1.375 -0.4243 -0.1042 -1.4549
35711SOL     OW10537  10.424   8.025   3.274 -0.9351 -0.1829 -0.2764
35711SOL    HW110538  10.456   7.934   3.276 -2.0566 -0.5839  0.0198
35711SOL    HW210539  10.502   8.077   3.254 -0.8967 -1.4951 -3.9862
35712SOL     OW10540   2.900   8.349   0.958  0.2532 -0.2233 -0.5345
35712SOL    HW110541   2.956   8.290   0.907  1.3941 -0.3398  0.8179
35712SOL    HW210542   2.897   8.429   0.906  2.1096 -0.0365 -0.3858
35713SOL     OW10543   8.664   6.056   2.126  0.0075  0.5906  0.1922
35713SOL    HW110544   8.751   6.095   2.110  0.8299  0.2560  3.5188
35713SOL    HW210545   8.626   6.110   2.195 -1.9138 -0.1082 -0.2938
35714SOL     OW10546   4.034   1.320   3.622  0.7276  0.8168  0.0888
35714SOL    HW110547   4.016   1.255   3.690  1.0052 -1.5588 -2.0512
35714SOL    HW210548   4.055   1.269   3.544  0.2431  3.4673 -1.8721
35715SOL     OW10549  10.751   2.725   8.432 -0.4810 -0.2099  0.5864
35715SOL    HW110550  10.705   2.641   8.425  1.8484 -1.5629  0.8582
35715SOL    HW210551  10.752   2.760   8.343 -2.0476 -0.1537  0.5926
35716SOL     OW10552   8.696   7.564   9.334 -0.2207  0.3224  0.1213
35716SOL    HW110553   8.789   7.561   9.358 -0.5376 -1.5775  1.1694
35716SOL    HW210554   8.695   7.548   9.239  0.5073  0.1227  0.1474
35717SOL     OW10555   7.356   4.739   9.179 -0.3806  0.3495 -0.4147
35717SOL    HW110556   7.337   4.670   9.116  0.6855  0.0888 -0.4675
35717SOL    HW210557   7.452   4.744   9.180 -0.3842  0.2042  1.3404
35718SOL     OW10558   2.178   6.157   6.623 -0.0995 -0.0089  0.6642
35718SOL    HW110559   2.184   6.181   6.716 -2.4417  1.6757  0.4241
35718SOL    HW210560   2.099   6.103   6.617 -0.4657  0.6413 -0.4910
35719SOL     OW10561   9.826  10.536   3.127  0.6683 -0.4762 -0.0252
35719SOL    HW110562   9.869  10.588   3.059 -0.9272  0.2057 -0.5457
35719SOL    HW210563   9.847  10.445   3.104 -0.2149 -0.2804 -1.7149
35720SOL     OW10564   4.410  10.836   0.476 -0.8264  0.3989 -0.1173
35720SOL    HW110565   4.375  10.919   0.508  0.0450  1.1254 -1.0562
35720SOL    HW210566   4.494  10.858   0.437  0.2823 -1.1961  1.2726
35721SOL     OW10567   5.118   7.553   4.233  0.1338  0.1787  0.4393
35721SOL    HW110568   5.214   7.547   4.230  0.3733  3.7545 -1.1652
35721SOL    HW210569   5.100   7.605   4.311 -0.3626  1.7116 -0.6950
35722SOL     OW10570   6.105   8.484   9.681 -0.4632 -0.2206 -0.1645
35722SOL    HW110571   6.017   8.461   9.651 -0.3324 -2.1019  0.8586
35722SOL    HW210572   6.159   8.409   9.660  0.8439  0.7807 -0.4568
35723SOL     OW10573  10.336   4.578   6.861 -0.1101  0.5584 -0.6658
35723SOL    HW110574  10.260   4.521   6.871  0.6909 -0.5004 -0.4380
35723SOL    HW210575  10.369   4.560   6.773 -0.9676  2.0952 -1.3214
35724SOL     OW10576   0.249   7.485   2.995 -0.2848  0.2327  0.3338
35724SOL    HW110577   0.154   7.478   2.994 -0.2216 -0.6378  0.3883
35724SOL    HW210578   0.276   7.442   3.076  0.1619  0.3690  0.2598
35725SOL     OW10579   8.409   8.780   7.665 -0.0857  0.0892  0.1826
35725SOL    HW110580   8.377   8.803   7.752  0.0341 -0.5147  0.3940
35725SOL    HW210581   8.465   8.853   7.639 -0.3128  0.3815  0.5120
35726SOL     OW10582  10.225   7.581   2.263  0.0265  0.0910 -0.7959
35726SOL    HW110583  10.158   7.619   2.206  0.6082  0.3888 -1.2834
35726SOL    HW210584  10.228   7.488   2.239  0.3042  0.2255 -1.2863
35727SOL     OW10585   3.897   7.413   1.397 -0.1712 -0.3197  0.5701
35727SOL    HW110586   3.832   7.395   1.329 -0.7361 -0.0417  1.0410
35727SOL    HW210587   3.900   7.332   1.449 -0.8536  0.0108  1.1367
35728SOL     OW10588   0.194   2.986   0.941  1.1158 -0.1024  0.2298
35728SOL    HW110589   0.149   2.964   0.860  0.9716  1.9866 -0.2919
35728SOL    HW210590   0.286   2.998   0.916  0.9029  1.5327  0.1535
35729SOL     OW10591   7.960   2.615   1.131 -0.4192  0.3090  0.6671
35729SOL    HW110592   7.964   2.710   1.135  0.2655  0.4178 -1.9321
35729SOL    HW210593   8.008   2.592   1.051 -1.6774 -2.1339  0.5689
35730SOL     OW10594   8.958  10.301   7.015 -0.4075 -0.5318  0.0371
35730SOL    HW110595   8.892  10.340   6.959  0.3583  1.2088  0.3076
35730SOL    HW210596   9.021  10.262   6.954 -0.7983 -0.6970 -0.2611
35731SOL     OW10597   0.711   8.530   4.032  0.5171  0.5114 -0.2682
35731SOL    HW110598   0.753   8.470   4.094 -0.5436 -1.3418 -1.3240
35731SOL    HW210599   0.671   8.598   4.087  0.1618 -0.7522  1.0447
35732SOL     OW10600   3.756   0.227   3.286 -0.2380  0.3071 -0.3789
35732SOL    HW110601   3.686   0.206   3.223 -1.2424 -0.3582  0.9380
35732SOL    HW210602   3.721   0.201   3.371  1.5094  0.2336  0.3469
35733SOL     OW10603   7.506   6.645   8.775 -0.2573 -0.4774 -0.0293
35733SOL    HW110604   7.449   6.617   8.703  0.5171 -1.0285 -0.4298
35733SOL    HW210605   7.593   6.615   8.750  0.3155  0.8669  0.3160
35734SOL     OW10606   3.839   8.522   3.450  0.0300 -0.7315  0.2105
35734SOL    HW110607   3.846   8.603   3.400  1.2425 -1.3756 -0.7040
35734SOL    HW210608   3.922   8.516   3.497 -0.9085 -0.3744  1.9601
35735SOL     OW10609   9.043   7.611   2.479 -0.0618  0.9595  0.4115
35735SOL    HW110610   9.135   7.590   2.463  0.5992  0.8907  3.8099
35735SOL    HW210611   8.994   7.551   2.424  1.9154  0.3217 -0.7008
35736SOL     OW10612   2.550   0.038   3.815 -0.3964  0.3191  0.0986
35736SOL    HW110613   2.547   0.006   3.905  0.2406  0.4661  0.1757
35736SOL    HW210614   2.487  -0.017   3.768 -1.3647  0.8093  0.8016
35737SOL     OW10615   4.681   8.252   4.296  0.5792  0.3732 -0.8942
35737SOL    HW110616   4.617   8.206   4.242 -1.7132  1.0405  1.1618
35737SOL    HW210617   4.712   8.186   4.358  1.0979  0.3194 -1.2118
35738SOL     OW10618   0.094   6.198   9.441 -0.4674 -0.0731  0.2146
35738SOL    HW110619   0.013   6.202   9.391  0.1469 -0.3697 -0.8328
35738SOL    HW210620   0.136   6.283   9.427  0.2764 -0.5836 -0.7927
35739SOL     OW10621   1.419  10.291   2.317 -0.4571 -0.6056  0.2196
35739SOL    HW110622   1.380  10.288   2.405 -1.9603 -3.0059 -0.4602
35739SOL    HW210623   1.513  10.300   2.332 -0.8395  0.4787  2.0437
35740SOL     OW10624   1.209  10.000   1.279 -0.0334  0.1294  0.4242
35740SOL    HW110625   1.183   9.943   1.206  1.7687  0.8424 -0.8214
35740SOL    HW210626   1.273  10.060   1.240  0.5903  0.8385  2.5042
35741SOL     OW10627   3.936   5.966   5.625 -0.2807  0.1668 -0.1968
35741SOL    HW110628   3.961   5.905   5.695  1.1805 -0.7659 -1.5199
35741SOL    HW210629   3.984   6.046   5.646 -0.8954  0.3379  0.6066
35742SOL     OW10630   0.410   5.918   3.767  0.0678 -0.2648  0.0160
35742SOL    HW110631   0.326   5.872   3.765  0.6885 -1.3594 -1.2454
35742SOL    HW210632   0.398   5.985   3.834 -1.9461 -0.1726 -0.3796
35743SOL     OW10633   6.725   3.130   4.421  0.1291 -0.1595 -0.2092
35743SOL    HW110634   6.805   3.091   4.457 -0.0464  1.0782  1.5796
35743SOL    HW210635   6.726   3.220   4.452 -1.7336 -0.0017 -0.5536
35744SOL     OW10636   1.135   7.406   7.288  0.4162  0.1658 -0.9468
35744SOL    HW110637   1.082   7.475   7.248 -0.3523  1.6752  2.5171
35744SOL    HW210638   1.075   7.331   7.293 -0.8646  1.2811  1.2106
35745SOL     OW10639   7.696   3.346   2.953 -0.0726  0.0033  0.1230
35745SOL    HW110640   7.675   3.431   2.913 -0.1100 -0.1430 -0.1646
35745SOL    HW210641   7.777   3.319   2.910  0.1084  0.0400  0.4394
35746SOL     OW10642   6.741   2.446  10.601 -0.6085  0.0891  0.3814
35746SOL    HW110643   6.736   2.541  10.614 -0.0209 -0.0216  1.5813
35746SOL    HW210644   6.772   2.413  10.686 -0.8861 -1.1789 -0.0086
35747SOL     OW10645   3.279   8.040   4.760 -0.8157  0.3686 -0.4161
35747SOL    HW110646   3.304   8.074   4.846 -1.6844  1.6684 -0.6663
35747SOL    HW210647   3.190   8.071   4.747 -0.4427  0.7979 -2.0883
35748SOL     OW10648   6.592   6.035  10.963  0.1022  0.3287  0.3209
35748SOL    HW110649   6.673   5.989  10.938  0.3536  1.5918 -1.2797
35748SOL    HW210650   6.618   6.090  11.036  0.5356  0.2160  0.2567
35749SOL     OW10651   1.907   2.583   7.421  0.5153 -0.2075 -0.6847
35749SOL    HW110652   1.919   2.497   7.460  2.5850 -0.8244 -2.6025
35749SOL    HW210653   1.821   2.579   7.378  0.1012 -0.9140  0.2094
35750SOL     OW10654   4.648   8.378   2.803  0.4739  0.0761 -0.0667
35750SOL    HW110655   4.598   8.416   2.731  0.7555  0.3744 -0.1075
35750SOL    HW210656   4.671   8.290   2.774 -1.0826 -0.5202  0.4466
35751SOL     OW10657   6.314   3.119   9.823 -0.0404  0.0938  0.0874
35751SOL    HW110658   6.408   3.132   9.824 -0.0337  0.0455  0.1325
35751SOL    HW210659   6.281   3.168   9.898 -0.2571  1.6180 -0.9933
35752SOL     OW10660   3.019   0.967  10.175  0.2574  0.5469  0.1619
35752SOL    HW110661   3.110   0.979  10.147  0.7047 -1.0517  0.8591
35752SOL    HW210662   3.021   0.887  10.228 -1.8379 -0.4266 -1.1644
35753SOL     OW10663   8.044   3.117   8.831 -0.2014 -0.5973  0.2329
35753SOL    HW110664   7.959   3.160   8.823 -0.0253  0.1629  2.1401
35753SOL    HW210665   8.074   3.139   8.920  1.1409 -2.3865  0.2512
35754SOL     OW10666   5.246  10.617   8.473  0.6323 -0.6664  0.0530
35754SOL    HW110667   5.308  10.624   8.400  0.4731 -0.7837 -0.0936
35754SOL    HW210668   5.257  10.528   8.506 -0.6701 -1.2610 -1.0685
35755SOL     OW10669   5.387  10.740   6.242 -0.1025  0.0957 -0.0114
35755SOL    HW110670   5.391  10.645   6.226  0.1422  0.3808 -1.6901
35755SOL    HW210671   5.476  10.771   6.225 -0.0268  0.5439  1.1530
35756SOL     OW10672   5.847   5.428  10.186 -0.4064 -0.3043  0.0188
35756SOL    HW110673   5.845   5.399  10.095 -1.3405  0.8572 -0.3573
35756SOL    HW210674   5.837   5.523  10.180  3.2429  0.2218  1.1464
35757SOL     OW10675   7.572   3.130   7.424  0.0219 -0.5948  0.3798
35757SOL    HW110676   7.611   3.192   7.486  0.1759  0.9088 -1.1734
35757SOL    HW210677   7.616   3.047   7.442  2.0286  0.4472  0.4505
35758SOL     OW10678  10.512   6.933   6.842  0.0232 -0.1850 -0.7598
35758SOL    HW110679  10.517   6.843   6.808 -0.8219 -0.6551  0.3146
35758SOL    HW210680  10.419   6.945   6.862  0.1340  0.9358 -0.9178
35759SOL     OW10681   0.191   1.311   7.716  0.5039  0.6775  0.0971
35759SOL    HW110682   0.121   1.329   7.778  0.0053  1.0335 -0.5674
35759SOL    HW210683   0.268   1.354   7.754  0.7920 -1.2252  1.7251
35760SOL     OW10684   6.955   0.702  10.832  0.2257  0.0680 -0.0980
35760SOL    HW110685   6.907   0.783  10.850 -0.4372 -0.6209  1.3103
35760SOL    HW210686   6.901   0.655  10.769  0.3062  0.4260 -0.4407
35761SOL     OW10687  10.298   4.099   6.610  0.1612 -0.3781  0.3439
35761SOL    HW110688  10.303   4.176   6.553 -0.9739 -0.8376 -0.3880
35761SOL    HW210689  10.230   4.120   6.673  0.5306 -0.3856  0.7429
35762SOL     OW10690   0.563   3.967   8.644  0.1801  0.4868 -0.5538
35762SOL    HW110691   0.523   3.898   8.591  0.5288  0.3674 -0.6607
35762SOL    HW210692   0.625   4.009   8.585  0.6188  0.3103 -0.2191
35763SOL     OW10693   0.371   3.937   6.787 -0.6013  0.5524 -0.3797
35763SOL    HW110694   0.356   3.907   6.876 -0.7153 -0.3008 -0.6813
35763SOL    HW210695   0.285   3.933   6.745 -0.2393 -0.7145 -1.0210
35764SOL     OW10696   8.533   6.464  10.249 -0.0058 -0.1047 -0.5345
35764SOL    HW110697   8.607   6.497  10.300  0.3435 -0.0425 -1.0801
35764SOL    HW210698   8.457   6.508  10.287  0.1385 -0.7206  0.5143
35765SOL     OW10699   6.040   1.533   5.266  0.1220 -0.3884  0.1943
35765SOL    HW110700   5.961   1.495   5.304 -0.2215  1.9106  1.8811
35765SOL    HW210701   6.008   1.600   5.206  0.7693 -0.8520 -0.6899
35766SOL     OW10702   7.062   6.377   5.241 -0.1130 -0.1224  0.0462
35766SOL    HW110703   7.011   6.458   5.231 -1.1782 -0.8907 -0.8375
35766SOL    HW210704   6.998   6.312   5.270  0.5548 -0.8781 -0.1845
35767SOL     OW10705   4.288   3.643   9.384  0.0639  0.4723 -0.7776
35767SOL    HW110706   4.346   3.713   9.353  0.2391  0.3931 -0.6302
35767SOL    HW210707   4.215   3.643   9.322  1.2930 -0.8839 -2.2679
35768SOL     OW10708   8.598   8.050   3.827  0.7595 -0.3458 -0.1842
35768SOL    HW110709   8.523   8.105   3.850  1.0341 -0.1696  0.3079
35768SOL    HW210710   8.619   8.003   3.908  1.0637 -0.5313 -0.3688
35769SOL     OW10711   1.959   2.190   7.731  0.6555  0.3619 -0.0585
35769SOL    HW110712   1.983   2.281   7.713  3.8882 -0.0434  1.8320
35769SOL    HW210713   1.969   2.180   7.825  1.5331 -2.2421 -0.3805
35770SOL     OW10714  10.577   5.846   1.584 -0.1843 -0.2082  0.1809
35770SOL    HW110715  10.650   5.862   1.524 -1.5333  0.9203 -1.2047
35770SOL    HW210716  10.568   5.751   1.587  2.0896 -0.4149  1.3005
35771SOL     OW10717   3.870   7.714   5.869 -0.1788 -0.1458  0.2637
35771SOL    HW110718   3.812   7.786   5.845 -0.2627 -0.3508 -0.1506
35771SOL    HW210719   3.900   7.678   5.785  1.7643  0.9314  0.4518
35772SOL     OW10720   8.821   7.477   8.406  0.4075  0.1677 -0.0068
35772SOL    HW110721   8.871   7.555   8.382 -0.1837 -0.0896 -2.1477
35772SOL    HW210722   8.887   7.416   8.440  0.9878  1.2482  0.8414
35773SOL     OW10723   8.531   4.202   8.218  0.4975  0.0293  0.7240
35773SOL    HW110724   8.573   4.251   8.147  2.0328 -0.6410  1.1346
35773SOL    HW210725   8.455   4.254   8.242  0.0539  0.3531 -1.2970
35774SOL     OW10726   5.325   8.336   6.200 -0.0198  0.1203 -0.4776
35774SOL    HW110727   5.275   8.311   6.278  2.1417 -0.9637  0.6052
35774SOL    HW210728   5.384   8.405   6.231  2.2301 -1.6804 -0.6386
35775SOL     OW10729   6.497   0.561   4.462  0.5155 -0.5710 -0.0327
35775SOL    HW110730   6.528   0.646   4.492 -0.7901 -0.2907  0.5431
35775SOL    HW210731   6.448   0.525   4.536 -0.9104 -0.8113 -1.0684
35776SOL     OW10732   0.653   2.111   7.274 -0.1642 -0.2781 -0.2577
35776SOL    HW110733   0.585   2.075   7.330  0.1852  1.4793  1.3514
35776SOL    HW210734   0.709   2.161   7.333 -0.1945  2.2460 -2.2796
35777SOL     OW10735   8.322   4.994   5.881 -0.8247 -0.5508  0.1173
35777SOL    HW110736   8.373   4.987   5.800  0.3274  0.9685  0.7076
35777SOL    HW210737   8.289   5.084   5.881 -1.6400 -0.8431  0.8604
35778SOL     OW10738   1.344   6.851   5.874  0.3751  0.4595  0.1245
35778SOL    HW110739   1.253   6.840   5.847  0.7207  0.9489 -1.2268
35778SOL    HW210740   1.342   6.921   5.939 -0.1075  0.9713 -0.4459
35779SOL     OW10741  10.929   2.716   1.410 -0.5324 -0.1856 -0.1707
35779SOL    HW110742  10.959   2.805   1.396  2.0003 -0.9614  0.1049
35779SOL    HW210743  10.881   2.719   1.493 -1.4139  1.1261 -0.7309
35780SOL     OW10744   5.963   9.082   4.835 -0.2181  0.0288 -0.1535
35780SOL    HW110745   5.899   9.148   4.807 -1.8825 -1.7167 -0.5792
35780SOL    HW210746   5.939   9.003   4.786  2.0980 -0.7467 -0.0977
35781SOL     OW10747   0.390   3.014   4.944 -0.2129 -0.0275 -0.4782
35781SOL    HW110748   0.351   2.938   4.901  1.3966 -1.7283  0.9913
35781SOL    HW210749   0.463   3.039   4.888  0.1710 -0.5032 -0.1933
35782SOL     OW10750   0.135   9.486   8.274 -0.0002  0.0916 -0.7610
35782SOL    HW110751   0.113   9.535   8.353  0.9769  1.4349 -1.2951
35782SOL    HW210752   0.159   9.554   8.210  1.9255 -1.1196 -1.3451
35783SOL     OW10753   6.042   5.145  10.176  0.4785 -0.1941  0.1299
35783SOL    HW110754   5.966   5.197  10.204  0.1786 -0.9658  0.7451
35783SOL    HW210755   6.022   5.056  10.203  1.5744 -0.4173  0.2320
35784SOL     OW10756   5.471   8.681   1.136 -0.1637 -0.0148 -0.2824
35784SOL    HW110757   5.520   8.623   1.077  0.2239  1.3495 -1.3531
35784SOL    HW210758   5.408   8.624   1.180  0.4162 -1.2922 -1.0793
35785SOL     OW10759   6.828  10.623   2.848  0.2767  0.0650 -0.2482
35785SOL    HW110760   6.739  10.623   2.883 -0.0892  1.2195 -1.1255
35785SOL    HW210761   6.880  10.668   2.915  0.0409  0.1005 -0.0864
35786SOL     OW10762  10.408   1.980   0.168  0.1604  0.0329  0.7773
35786SOL    HW110763  10.502   1.969   0.157  0.2867  1.3677  0.4367
35786SOL    HW210764  10.389   2.066   0.129 -1.2662 -0.4276  0.4209
35787SOL     OW10765   9.319   7.868   6.746 -0.0627 -0.3044 -0.0929
35787SOL    HW110766   9.267   7.790   6.763 -0.1442  0.1129  1.7214
35787SOL    HW210767   9.404   7.850   6.787  1.0408 -0.7387 -2.5104
35788SOL     OW10768   0.598   4.521   9.818  0.3853 -0.1822 -0.0957
35788SOL    HW110769   0.517   4.543   9.865 -0.1742 -1.7157 -0.3104
35788SOL    HW210770   0.665   4.574   9.861 -0.6244  0.6630  0.4811
35789SOL     OW10771   7.205   5.035   2.752 -0.4987  0.5787  0.6789
35789SOL    HW110772   7.259   5.103   2.711  1.6255 -0.4742  1.7179
35789SOL    HW210773   7.165   4.989   2.678  2.0546 -0.2825 -0.1872
35790SOL     OW10774  10.467   6.172   3.840  0.3405 -0.0533  0.1114
35790SOL    HW110775  10.436   6.117   3.769  1.3686 -0.3412 -0.1171
35790SOL    HW210776  10.437   6.128   3.920 -2.4828  1.2665 -0.1513
35791SOL     OW10777   1.331   9.878   1.496  0.3549 -0.0551 -0.1947
35791SOL    HW110778   1.288   9.912   1.417  0.7795  0.8973 -0.0250
35791SOL    HW210779   1.289   9.793   1.511 -1.3093  0.7378 -0.1787
35792SOL     OW10780   2.359   3.321  10.971  0.0965 -0.1486  0.0961
35792SOL    HW110781   2.333   3.383  10.903 -1.1606  0.1333  0.8158
35792SOL    HW210782   2.448   3.347  10.994  0.0039  0.6636 -0.4359
35793SOL     OW10783   1.692   5.374   6.676 -0.2026  0.0577 -0.9939
35793SOL    HW110784   1.667   5.418   6.757 -0.0124  1.5890 -1.7387
35793SOL    HW210785   1.678   5.281   6.693 -2.3571  0.5331  0.0253
35794SOL     OW10786   3.670   7.951   8.482 -0.0160 -0.0268 -0.0041
35794SOL    HW110787   3.659   7.876   8.423 -0.8984 -0.2975  0.5003
35794SOL    HW210788   3.616   8.020   8.444  0.7687  0.3596 -0.4484
35795SOL     OW10789   9.521   5.829   4.987 -0.3773 -0.1891 -0.2963
35795SOL    HW110790   9.588   5.894   5.008 -0.1560 -0.2080 -0.9240
35795SOL    HW210791   9.560   5.745   5.012 -0.3766 -0.1491 -0.1616
35796SOL     OW10792   5.239   6.649   1.913  0.6114  0.4914  0.6108
35796SOL    HW110793   5.292   6.637   1.992  1.4891  0.9798  0.1143
35796SOL    HW210794   5.292   6.707   1.858 -0.0012  0.1837 -0.3188
35797SOL     OW10795  10.551   7.215   0.657 -0.1490  0.2054 -0.4028
35797SOL    HW110796  10.479   7.166   0.697 -1.3166  0.7600 -1.7972
35797SOL    HW210797  10.528   7.306   0.672 -0.1008  0.3960 -1.4683
35798SOL     OW10798   9.990   0.248   4.910 -0.0022  0.3814 -0.3125
35798SOL    HW110799   9.914   0.215   4.959  0.6760 -1.0031 -0.1600
35798SOL    HW210800  10.039   0.169   4.886  1.9968  1.3161  0.5925
35799SOL     OW10801   6.223   4.402   6.149  0.4059  0.4508 -0.2629
35799SOL    HW110802   6.282   4.436   6.081  0.4579 -1.1079 -1.0167
35799SOL    HW210803   6.258   4.316   6.171  0.4538  0.9800  1.8600
35800SOL     OW10804   5.127   1.886  10.972  0.1473  0.1138  0.0776
35800SOL    HW110805   5.108   1.963  11.026  1.9932 -0.8612  2.2183
35800SOL    HW210806   5.148   1.922  10.885  3.4679  2.3087  1.6715
35801SOL     OW10807   8.456   4.099  10.652  0.6344  0.3643  0.6689
35801SOL    HW110808   8.430   4.127  10.565  1.6759 -1.3935 -0.2309
35801SOL    HW210809   8.529   4.157  10.675 -0.2242  1.4187  0.7545
35802SOL     OW10810   7.842   3.420   6.950  0.2689  0.2714 -0.3428
35802SOL    HW110811   7.900   3.493   6.929  0.3175  0.8965  1.7939
35802SOL    HW210812   7.825   3.429   7.044  0.2570 -2.4600 -0.0397
35803SOL     OW10813   3.503   4.489   6.001 -0.2827  0.6677 -0.3083
35803SOL    HW110814   3.548   4.448   5.927 -0.9356 -1.2978  0.3459
35803SOL    HW210815   3.428   4.533   5.962 -0.5963 -0.3218 -0.8317
35804SOL     OW10816   4.408  10.332   8.103 -0.2173  0.0435 -0.1351
35804SOL    HW110817   4.492  10.329   8.148  0.0079 -0.1958 -0.5693
35804SOL    HW210818   4.397  10.245   8.066 -0.6215  0.0966 -0.1484
35805SOL     OW10819   7.194   4.358   7.578  0.1248 -0.5580 -0.0421
35805SOL    HW110820   7.123   4.359   7.515  0.5469  0.9944 -0.5207
35805SOL    HW210821   7.270   4.326   7.529  0.6502  1.4375 -0.5685
35806SOL     OW10822  10.732   5.784   2.162  0.2267 -0.1662 -0.5376
35806SOL    HW110823  10.779   5.758   2.083 -1.6406  0.9441 -2.0492
35806SOL    HW210824  10.640   5.766   2.142 -0.2952  0.4697  1.2429
35807SOL     OW10825  10.728   8.824  10.473  0.6876 -0.0517  0.0762
35807SOL    HW110826  10.638   8.836  10.443  1.1191  0.0552 -1.1726
35807SOL    HW210827  10.744   8.899  10.531  0.8094  1.3183 -1.6826
35808SOL     OW10828   5.772   1.876   6.719 -0.1871 -0.1994  0.0589
35808SOL    HW110829   5.816   1.954   6.754  0.7427 -0.3843 -0.6986
35808SOL    HW210830   5.839   1.808   6.722 -1.0651 -1.0406  0.9236
35809SOL     OW10831   4.992  10.976   0.125 -0.4979 -0.0037  0.1486
35809SOL    HW110832   4.964  11.035   0.196 -1.3149  2.7745 -2.3687
35809SOL    HW210833   5.010  10.893   0.169 -1.1101  1.5752  3.5918
35810SOL     OW10834   3.706   1.141   9.122 -0.3860 -0.0156  0.2729
35810SOL    HW110835   3.687   1.048   9.130 -1.3059  0.0885 -0.7235
35810SOL    HW210836   3.802   1.146   9.128 -0.3488 -0.9933  0.5845
35811SOL     OW10837   7.852   5.396   8.631  0.1146  0.2488  0.0326
35811SOL    HW110838   7.930   5.434   8.670 -1.5217  0.5101  3.2302
35811SOL    HW210839   7.851   5.305   8.661  0.3326 -0.3656 -1.7927
35812SOL     OW10840   3.574  10.855   0.713 -0.0153  0.3122  0.2403
35812SOL    HW110841   3.645  10.848   0.650  0.8775  0.5923  1.2135
35812SOL    HW210842   3.591  10.937   0.761 -1.3138  0.6993  0.0744
35813SOL     OW10843   3.848   4.211  10.512  0.1231  0.0177 -0.2389
35813SOL    HW110844   3.770   4.257  10.543  0.1275  0.3044 -0.6553
35813SOL    HW210845   3.895   4.275  10.459 -1.0930 -1.1661 -2.8179
35814SOL     OW10846   2.930   8.930   1.755  0.2087  0.4186 -0.4889
35814SOL    HW110847   2.843   8.954   1.721 -0.1208 -0.8587 -0.5542
35814SOL    HW210848   2.939   8.982   1.835 -0.3684  0.9988 -0.7866
35815SOL     OW10849   7.113   5.874   7.283 -0.2363 -0.2637  0.7503
35815SOL    HW110850   7.101   5.954   7.333 -1.0276 -0.6146  1.1354
35815SOL    HW210851   7.025   5.839   7.272 -0.1188 -0.0131 -1.2044
35816SOL     OW10852   8.414   3.986   7.042 -0.6591 -0.5484  0.4654
35816SOL    HW110853   8.356   3.916   7.070 -0.5346 -0.4704  0.9229
35816SOL    HW210854   8.402   3.991   6.947 -0.3734 -1.4458  0.3803
35817SOL     OW10855   5.441   5.122   1.485  0.7702  0.1546 -0.0711
35817SOL    HW110856   5.423   5.060   1.556 -0.4756  0.4405 -0.1218
35817SOL    HW210857   5.372   5.106   1.421  3.2755 -1.7931 -2.3882
35818SOL     OW10858   8.885   4.048   8.970 -0.2088  1.0346  0.2982
35818SOL    HW110859   8.874   3.994   9.048  1.1624  1.7702  1.0233
35818SOL    HW210860   8.975   4.032   8.942  0.6399  3.7886  1.2191
35819SOL     OW10861   3.878   6.049  10.952 -0.0455 -0.2945  0.4683
35819SOL    HW110862   3.785   6.041  10.929 -0.1229  0.8069  0.3510
35819SOL    HW210863   3.886   6.139  10.985  1.2873  0.1393 -0.9727
35820SOL     OW10864   1.482   9.423   0.569 -0.4006 -0.1246  0.1631
35820SOL    HW110865   1.564   9.456   0.535 -0.2715  0.0470  0.6352
35820SOL    HW210866   1.507   9.361   0.638 -0.6506 -0.6591 -0.2230
35821SOL     OW10867   8.841   2.425   6.864 -0.4368  0.1835  0.4244
35821SOL    HW110868   8.798   2.363   6.805  0.1886  0.5078 -0.3827
35821SOL    HW210869   8.934   2.409   6.851 -0.3008 -0.4717  2.1112
35822SOL     OW10870   8.043   6.379   6.948  0.0600 -0.0199 -0.0166
35822SOL    HW110871   8.117   6.435   6.925 -0.0505  0.5920  1.1173
35822SOL    HW210872   8.019   6.337   6.865  1.3934  0.1015 -0.4842
35823SOL     OW10873   5.562   6.173   7.626  0.6735  0.6987 -0.3885
35823SOL    HW110874   5.609   6.203   7.548  0.6680 -1.5163 -1.2823
35823SOL    HW210875   5.495   6.113   7.592 -1.8988  2.6983  0.9880
35824SOL     OW10876   6.417   6.865   1.958  0.0672 -0.1320  0.3593
35824SOL    HW110877   6.443   6.870   1.866 -0.4442  0.1643  0.2291
35824SOL    HW210878   6.410   6.771   1.976 -0.1202 -0.1849  0.0151
35825SOL     OW10879   4.977   9.721   2.975  0.1090 -0.6555  0.6279
35825SOL    HW110880   5.038   9.793   2.991 -0.6118 -0.0306  0.5729
35825SOL    HW210881   4.944   9.738   2.887  0.9098 -1.7723  0.0998
35826SOL     OW10882   4.883   9.197   0.660  0.1376  0.1970  0.2426
35826SOL    HW110883   4.858   9.152   0.579  0.4285  0.0006  0.2605
35826SOL    HW210884   4.948   9.140   0.700  2.8750  2.1344 -1.3093
35827SOL     OW10885   2.649   7.571   2.960  0.6651 -0.1061 -0.0540
35827SOL    HW110886   2.573   7.596   3.014  0.3008 -1.3068  0.0198
35827SOL    HW210887   2.680   7.653   2.923 -1.0069  0.3475 -0.5179
35828SOL     OW10888   6.701   7.080   6.126 -0.1534 -0.1674 -0.4489
35828SOL    HW110889   6.748   7.058   6.045 -0.9556  0.0170 -0.9735
35828SOL    HW210890   6.702   7.175   6.129  0.7459 -0.1972  0.2840
35829SOL     OW10891   6.649   7.225   3.976  0.2847 -1.0613 -0.3621
35829SOL    HW110892   6.679   7.296   3.920  1.0070 -0.1559  1.1607
35829SOL    HW210893   6.580   7.182   3.924  0.9305 -0.2489 -1.9321
35830SOL     OW10894   3.969   5.997  10.096 -0.2196 -0.3045 -0.0100
35830SOL    HW110895   3.970   5.999  10.192  0.0732  0.3383 -0.0204
35830SOL    HW210896   3.996   6.085  10.070 -2.2989  0.1541 -0.6746
35831SOL     OW10897   4.004   6.257  10.027  0.4591  0.3239  0.1903
35831SOL    HW110898   4.087   6.300  10.003  0.8162 -0.2317  0.4266
35831SOL    HW210899   3.949   6.267   9.949  0.7512  0.6779  0.0242
35832SOL     OW10900   5.878   0.270   5.729  0.0265  0.6220 -0.4364
35832SOL    HW110901   5.938   0.282   5.802  0.1615 -1.6141 -0.1417
35832SOL    HW210902   5.916   0.198   5.679 -1.4561  0.3962 -1.2565
35833SOL     OW10903   7.647  10.008   9.282 -0.3224  0.7938  0.7058
35833SOL    HW110904   7.664  10.047   9.368  0.0885  0.0428  0.9634
35833SOL    HW210905   7.552  10.021   9.269 -0.2027  1.8317  0.8029
35834SOL     OW10906  10.322   3.220  10.650  0.1316 -0.0150 -0.3868
35834SOL    HW110907  10.366   3.253  10.728  0.8604  0.0898 -0.8356
35834SOL    HW210908  10.244   3.274  10.641  0.6193  0.6972 -0.3541
35835SOL     OW10909   8.386   9.894   7.913 -0.3770  0.2659  0.1996
35835SOL    HW110910   8.386   9.800   7.891 -1.3178  0.7319 -1.9171
35835SOL    HW210911   8.416   9.897   8.003  1.2812 -1.9771 -0.2169
35836SOL     OW10912   1.830   0.317   8.100 -0.2072  0.3700  0.5219
35836SOL    HW110913   1.740   0.284   8.098 -0.2192  0.4182  0.3335
35836SOL    HW210914   1.873   0.261   8.165 -0.0266 -0.5423 -0.3735
35837SOL     OW10915   1.224   7.470   6.701 -0.1666 -0.1720  0.3858
35837SOL    HW110916   1.274   7.474   6.783  0.0935  1.7416  0.1645
35837SOL    HW210917   1.148   7.526   6.718  1.2751  2.4888 -1.5706
35838SOL     OW10918   6.096   5.387   4.346  0.2009  0.4177 -0.7701
35838SOL    HW110919   6.165   5.355   4.287 -0.4643  0.2572 -1.4680
35838SOL    HW210920   6.143   5.429   4.418  1.0011  2.1732 -2.2936
35839SOL     OW10921   1.567   7.113   6.135 -0.2895 -0.4330  0.3209
35839SOL    HW110922   1.578   7.153   6.221  2.6903 -2.6236  1.0000
35839SOL    HW210923   1.541   7.023   6.153  0.7587 -1.0248 -1.0788
35840SOL     OW10924  10.903   5.999   7.410 -0.5631  0.1896  0.3949
35840SOL    HW110925  10.934   5.918   7.451 -1.3343 -0.2226  0.1759
35840SOL    HW210926  10.916   6.066   7.477  2.2280  0.3293 -0.2269
35841SOL     OW10927  10.750   2.868   8.177  0.1398 -0.1182 -0.3062
35841SOL    HW110928  10.757   2.799   8.111 -0.0920  0.0547 -0.5131
35841SOL    HW210929  10.748   2.950   8.127 -2.4860 -0.0969 -0.2393
35842SOL     OW10930   0.540   4.867   7.262 -0.5122 -0.3483 -0.0661
35842SOL    HW110931   0.609   4.929   7.283  0.1389 -1.2186  0.3705
35842SOL    HW210932   0.538   4.807   7.336 -0.2323 -1.6379 -1.0909
35843SOL     OW10933   5.632   8.113   8.178  0.1014 -0.0575 -0.2948
35843SOL    HW110934   5.660   8.039   8.232  2.6580  0.1368 -1.3063
35843SOL    HW210935   5.644   8.082   8.088 -2.1883  0.3505 -0.7785
35844SOL     OW10936   0.358   3.538   0.088  0.4283 -0.5429 -0.2194
35844SOL    HW110937   0.408   3.463   0.057  0.8572 -1.0917  1.7364
35844SOL    HW210938   0.419   3.586   0.145 -0.1966  0.6668 -0.5462
35845SOL     OW10939   8.713   5.051   6.164  0.3146 -0.3500 -0.5810
35845SOL    HW110940   8.676   5.002   6.237 -0.1980  0.4430 -0.3027
35845SOL    HW210941   8.754   4.985   6.108  0.5530 -0.9779  0.3331
35846SOL     OW10942   2.125   7.971   3.610  0.0644 -0.1769 -0.0534
35846SOL    HW110943   2.150   7.970   3.517  1.4813 -1.6476  0.3266
35846SOL    HW210944   2.031   7.986   3.609 -0.1567 -1.5400 -1.8000
35847SOL     OW10945   1.168   8.890   7.491 -0.1597  0.1269 -0.7382
35847SOL    HW110946   1.109   8.819   7.465  0.1294  0.1287 -1.4301
35847SOL    HW210947   1.111   8.966   7.502 -0.5224 -0.2924  0.3720
35848SOL     OW10948   7.995   9.735   5.366  0.0896  0.4074 -0.0108
35848SOL    HW110949   7.914   9.786   5.365  1.2459  2.2875 -0.5150
35848SOL    HW210950   7.979   9.666   5.430 -1.7748  0.9682  0.1674
35849SOL     OW10951   8.784   7.564   9.058 -0.3575  0.3516 -0.0509
35849SOL    HW110952   8.877   7.574   9.036 -0.4861 -1.5327 -1.6201
35849SOL    HW210953   8.739   7.622   8.998 -0.2121  1.0875  0.5480
35850SOL     OW10954   1.244   6.700   5.284  0.4641 -0.1517  0.6124
35850SOL    HW110955   1.165   6.650   5.306  0.9566 -1.1196  0.1923
35850SOL    HW210956   1.310   6.667   5.345  0.5518  0.6320  0.9391
35851SOL     OW10957   5.686   6.233   6.827 -0.7175  0.2133  0.0289
35851SOL    HW110958   5.716   6.142   6.823 -2.2178 -0.2596 -0.9586
35851SOL    HW210959   5.766   6.284   6.830  0.1431 -1.1771  1.5952
35852SOL     OW10960   8.670   9.457  10.440  0.6049 -0.4489 -0.3144
35852SOL    HW110961   8.728   9.522  10.480 -0.4600  0.5680 -0.4027
35852SOL    HW210962   8.718   9.425  10.364  1.7700 -0.8761  0.5888
35853SOL     OW10963   9.452   8.780   3.629 -0.2707  0.1143 -0.8765
35853SOL    HW110964   9.389   8.806   3.562 -0.6953 -0.1337 -0.5777
35853SOL    HW210965   9.535   8.769   3.581 -0.7139 -0.7056 -1.4824
35854SOL     OW10966   1.416   5.038   7.262 -0.0172  0.3151  0.2092
35854SOL    HW110967   1.358   5.112   7.281 -2.1750 -0.2483 -3.5697
35854SOL    HW210968   1.401   4.976   7.333 -2.0559  1.3639  0.7288
35855SOL     OW10969   3.051   1.968   2.855 -0.6121  0.2044  0.1169
35855SOL    HW110970   3.127   1.925   2.893 -0.3809  1.9059  1.6482
35855SOL    HW210971   3.083   2.005   2.772  0.1619  0.7220  0.6497
35856SOL     OW10972   1.058   0.932   7.124  0.5849 -0.3558  0.9436
35856SOL    HW110973   0.965   0.919   7.108  0.5905 -1.0498  1.4184
35856SOL    HW210974   1.065   1.023   7.152  0.1000 -0.1977  0.5609
35857SOL     OW10975   6.722   9.347   2.637  0.0467 -0.2644  0.1919
35857SOL    HW110976   6.746   9.288   2.566  1.0561 -0.1493  0.4355
35857SOL    HW210977   6.780   9.325   2.709 -1.7189 -1.1418  1.3947
35858SOL     OW10978  10.299   2.390   8.278 -0.2573 -0.0383 -0.0927
35858SOL    HW110979  10.218   2.435   8.251  1.3341  1.9256 -1.7856
35858SOL    HW210980  10.301   2.311   8.224  0.7446  1.7558 -2.8191
35859SOL     OW10981   1.655   4.679   9.594  0.5485  0.1754 -0.1205
35859SOL    HW110982   1.632   4.737   9.522  0.2972  0.5283  0.2419
35859SOL    HW210983   1.650   4.591   9.557  0.0461  0.3340 -0.4339
35860SOL     OW10984  10.368   0.628   7.490  0.2495 -0.3164 -0.1471
35860SOL    HW110985  10.292   0.573   7.511 -0.7550  1.1318  0.1220
35860SOL    HW210986  10.375   0.687   7.565  0.2264  1.0712 -1.2248
35861SOL     OW10987   4.753   3.178   3.217  0.0014 -0.1151  0.2988
35861SOL    HW110988   4.743   3.250   3.154 -0.7772 -0.7100 -0.2543
35861SOL    HW210989   4.670   3.176   3.264 -0.3303 -1.2451 -0.3131
35862SOL     OW10990   8.771   4.764   0.819  0.2705  0.2741  0.1596
35862SOL    HW110991   8.797   4.705   0.749  0.5742  1.7473 -0.9958
35862SOL    HW210992   8.801   4.722   0.900  3.1691  0.3039 -0.8734
35863SOL     OW10993   8.784   4.018   0.676  0.2737 -0.3072 -0.0672
35863SOL    HW110994   8.746   3.935   0.646  2.8405 -2.2574  1.7768
35863SOL    HW210995   8.817   4.060   0.597  1.6294 -2.5055 -0.7176
35864SOL     OW10996   4.979   1.516   1.128 -0.1968  0.0200  0.1165
35864SOL    HW110997   4.905   1.466   1.094 -0.3209  0.4635 -0.2731
35864SOL    HW210998   5.056   1.465   1.103 -0.3192  0.0702 -0.3764
35865SOL     OW10999   9.289   4.934   1.527  0.6571  0.1560 -0.4848
35865SOL    HW111000   9.324   5.014   1.565 -0.0085  0.2423 -0.0451
35865SOL    HW211001   9.335   4.925   1.443 -0.3598  1.7953 -1.2261
35866SOL     OW11002   2.979   2.381   8.113  0.1343 -0.3334  0.9821
35866SOL    HW111003   2.918   2.335   8.056  1.1645 -0.7964  0.2385
35866SOL    HW211004   2.933   2.389   8.197 -1.9470  1.5709 -0.2853
35867SOL     OW11005   0.698   9.499   9.221 -0.3599  0.1566 -0.2097
35867SOL    HW111006   0.608   9.523   9.244 -0.9370 -1.8904 -0.2767
35867SOL    HW211007   0.739   9.476   9.305 -0.4459 -0.7279 -0.4143
35868SOL     OW11008   5.899   5.857   1.806 -0.1675 -0.0032 -0.1857
35868SOL    HW111009   5.928   5.777   1.849  1.9496  0.4651 -0.6731
35868SOL    HW211010   5.893   5.833   1.713 -1.1960 -0.0438 -0.1120
35869SOL     OW11011   5.068   9.622   5.399  0.0163 -0.2162  0.4166
35869SOL    HW111012   5.070   9.685   5.472 -0.0143 -0.3863  0.5643
35869SOL    HW211013   5.037   9.541   5.439 -0.3953 -0.1965  0.1262
35870SOL     OW11014   5.766   5.262   0.876 -0.3275  0.2011 -0.5181
35870SOL    HW111015   5.759   5.229   0.966 -2.6533  1.8064 -0.0614
35870SOL    HW211016   5.824   5.337   0.883  0.4598 -0.3934 -0.5833
35871SOL     OW11017   6.007   7.878   1.800  0.4845  0.3030 -0.2773
35871SOL    HW111018   6.011   7.801   1.857 -1.4212  0.2830 -0.1246
35871SOL    HW211019   6.001   7.842   1.712  1.3196  0.3063 -0.3381
35872SOL     OW11020   2.672   6.230   2.619  0.2462 -0.1963  0.0658
35872SOL    HW111021   2.692   6.142   2.651 -0.3766 -0.6982 -0.8923
35872SOL    HW211022   2.680   6.224   2.524 -0.3360  0.6484 -0.0491
35873SOL     OW11023   1.010   3.752   8.665  0.6046 -0.1992 -0.8144
35873SOL    HW111024   1.098   3.784   8.685  0.8721 -1.0561 -0.6274
35873SOL    HW211025   0.967   3.745   8.750  0.4771 -0.1423 -0.8732
35874SOL     OW11026  10.099   1.256   7.224 -0.2966  0.4729  0.2854
35874SOL    HW111027  10.045   1.335   7.232  1.5922  1.8439  0.0221
35874SOL    HW211028  10.167   1.281   7.162  0.9993 -1.0044  1.0870
35875SOL     OW11029   8.290   8.018   2.602  0.1561 -0.4881  0.1077
35875SOL    HW111030   8.270   8.107   2.573 -0.9049 -0.0023  2.1680
35875SOL    HW211031   8.340   7.979   2.530 -0.5547  1.3091 -1.4017
35876SOL     OW11032   0.035   0.515   8.137  0.3296 -0.2288 -0.2885
35876SOL    HW111033  -0.033   0.538   8.200 -1.6407 -3.4774 -1.1106
35876SOL    HW211034   0.106   0.479   8.191  0.8330  1.8493  0.4558
35877SOL     OW11035   2.205   4.397   6.796 -0.4326 -0.3850 -0.1299
35877SOL    HW111036   2.252   4.334   6.742 -0.1640  0.0840 -0.4521
35877SOL    HW211037   2.131   4.424   6.741  0.5053  0.9967 -0.7746
35878SOL     OW11038   9.337   5.342   6.535 -0.2175  0.0576 -0.4591
35878SOL    HW111039   9.413   5.290   6.560  0.0018  0.1472 -0.9463
35878SOL    HW211040   9.305   5.377   6.618 -0.7951 -1.4307 -0.0339
35879SOL     OW11041  10.203   6.851   0.935  0.5260 -0.6607 -0.5058
35879SOL    HW111042  10.296   6.827   0.939  0.9026  0.9320  1.6201
35879SOL    HW211043  10.158   6.781   0.981  0.8188 -0.8216 -0.4608
35880SOL     OW11044  10.946   7.726  10.548  0.2591  0.4133 -0.4855
35880SOL    HW111045  10.868   7.694  10.503  0.0743 -0.2874  0.3092
35880SOL    HW211046  10.917   7.802  10.598 -0.3404 -0.9426  1.2657
35881SOL     OW11047   3.953   8.539  10.104 -0.0671  0.4146  0.7247
35881SOL    HW111048   3.974   8.474  10.037  0.1586  0.3639  0.8430
35881SOL    HW211049   3.906   8.608  10.058  1.5682  1.1968  0.2108
35882SOL     OW11050   1.819   2.950   6.175  0.1576 -0.0252 -0.2199
35882SOL    HW111051   1.795   2.871   6.127 -0.6059  0.3885 -0.5333
35882SOL    HW211052   1.830   3.017   6.107 -0.1355  0.3654  0.1139
35883SOL     OW11053   5.271   2.155   6.396  0.9803  0.0657 -0.1990
35883SOL    HW111054   5.320   2.142   6.315  0.1901 -0.5481 -0.5923
35883SOL    HW211055   5.298   2.083   6.453  2.1512  0.9656  0.3994
35884SOL     OW11056   1.017   4.133   8.331 -0.1026 -0.6926  0.0156
35884SOL    HW111057   1.046   4.125   8.422  1.5095  0.1715 -0.4132
35884SOL    HW211058   1.052   4.217   8.301 -1.3209 -0.5793 -1.1668
35885SOL     OW11059   9.472   4.012   4.147 -0.6294  0.1049  0.1684
35885SOL    HW111060   9.441   4.066   4.220  1.5327  0.9580  0.4670
35885SOL    HW211061   9.460   4.068   4.070 -0.0153  0.3768  0.2650
35886SOL     OW11062  10.108   3.666   7.004  0.1106  0.4258  0.4197
35886SOL    HW111063  10.123   3.574   6.983 -0.3932  0.2718  0.7088
35886SOL    HW211064  10.046   3.663   7.077 -0.4668  1.0049 -0.0405
35887SOL     OW11065   6.596   1.672   8.148  0.4122  0.0208  0.2062
35887SOL    HW111066   6.557   1.665   8.236 -0.4096 -3.3200 -0.3349
35887SOL    HW211067   6.528   1.711   8.094 -0.5556 -1.6001  0.2324
35888SOL     OW11068   3.796   3.624   1.405  0.2350 -0.2009 -0.7394
35888SOL    HW111069   3.744   3.544   1.419 -0.9249  0.2077 -2.5414
35888SOL    HW211070   3.731   3.694   1.402  1.2400  0.8065  0.7025
35889SOL     OW11071   4.003   0.592   6.790  0.0285  0.6121  0.3008
35889SOL    HW111072   3.976   0.504   6.764 -0.1254  0.6164  0.4433
35889SOL    HW211073   4.050   0.626   6.714  0.1677  0.3736  0.2780
35890SOL     OW11074   9.755   9.554   6.207  0.4880 -0.7113  0.4152
35890SOL    HW111075   9.663   9.530   6.196 -0.1271  1.3604  0.7852
35890SOL    HW211076   9.797   9.474   6.237 -0.8858 -2.1210 -1.2725
35891SOL     OW11077   1.930   7.989   7.438  0.1552 -0.7245  0.2704
35891SOL    HW111078   1.881   7.907   7.445 -0.1897 -0.6159 -0.7217
35891SOL    HW211079   1.998   7.983   7.505  0.4126 -2.0197 -0.0968
35892SOL     OW11080   4.888  10.072   1.295  0.4198  0.1931  0.3744
35892SOL    HW111081   4.866  10.093   1.385 -1.5722 -1.6126  0.3357
35892SOL    HW211082   4.805  10.078   1.247  1.2108 -0.1154 -1.0759
35893SOL     OW11083   6.131  10.065   2.022 -0.5864  0.3069 -0.1205
35893SOL    HW111084   6.183  10.008   2.078 -0.6435  1.8120  1.5055
35893SOL    HW211085   6.070  10.108   2.081 -0.7975  1.7554 -1.3620
35894SOL     OW11086   4.211   2.368   4.877 -0.2220  0.0412 -0.4463
35894SOL    HW111087   4.273   2.416   4.931 -1.0637 -0.1090  0.6550
35894SOL    HW211088   4.200   2.284   4.921  0.1073 -0.6010 -1.5633
35895SOL     OW11089   8.270   9.681   3.761 -0.0323 -0.1106  0.5165
35895SOL    HW111090   8.352   9.703   3.804  1.5242 -0.3095 -2.2564
35895SOL    HW211091   8.236   9.766   3.731 -0.2740 -0.1583  0.6508
35896SOL     OW11092   9.746   8.446   5.872 -0.8320 -0.1848  0.4464
35896SOL    HW111093   9.725   8.536   5.848 -0.7791  0.2576  1.9648
35896SOL    HW211094   9.677   8.422   5.934  0.8254 -0.1082  2.4036
35897SOL     OW11095   1.684   9.586   8.756 -0.2321  0.6154  0.2040
35897SOL    HW111096   1.593   9.561   8.743  0.0293 -1.0745  1.4010
35897SOL    HW211097   1.680   9.654   8.823 -0.6118  0.4940  0.3077
35898SOL     OW11098   8.016   8.413   9.701 -0.3056  0.2102 -0.0437
35898SOL    HW111099   8.037   8.337   9.754 -1.5794 -0.0126  0.1521
35898SOL    HW211100   7.954   8.380   9.636 -2.2250  1.4508  1.1321
35899SOL     OW11101   6.012   8.182   8.974  0.1257  0.4599 -0.0551
35899SOL    HW111102   5.974   8.094   8.978 -1.5004  1.1701  1.1164
35899SOL    HW211103   6.077   8.183   9.045  0.0411  0.2523  0.0256
35900SOL     OW11104   5.418   9.840   1.672 -0.2219 -0.2750 -0.5903
35900SOL    HW111105   5.484   9.902   1.640  1.7026 -1.1914  1.4528
35900SOL    HW211106   5.383   9.799   1.593  0.8282  1.0878 -1.7803
35901SOL     OW11107   0.284   0.398   5.435  0.0322 -0.6447  0.0197
35901SOL    HW111108   0.353   0.454   5.401 -0.3162  0.1788  0.6235
35901SOL    HW211109   0.255   0.345   5.360  1.2972 -0.9854 -0.2274
35902SOL     OW11110   9.917   3.250   0.657 -0.7377  0.2346 -0.2682
35902SOL    HW111111   9.924   3.234   0.751  2.2938  0.2120 -0.4304
35902SOL    HW211112   9.867   3.331   0.650 -0.8846  0.2998  1.3757
35903SOL     OW11113   2.869   4.779  10.958 -0.1092 -0.3021 -0.2833
35903SOL    HW111114   2.859   4.811  10.868 -0.1847  1.4086  0.3148
35903SOL    HW211115   2.782   4.791  10.997  0.1429 -0.2621  0.2626
35904SOL     OW11116  10.131   8.868   3.673  0.0095  0.3942  0.5060
35904SOL    HW111117  10.110   8.960   3.656  1.1079  0.6667  0.5492
35904SOL    HW211118  10.113   8.857   3.766  1.9302  1.1809  1.0131
35905SOL     OW11119   2.398   2.959  10.042  0.1854 -0.4397 -0.4151
35905SOL    HW111120   2.474   2.901  10.046  2.5667  2.5418 -0.4830
35905SOL    HW211121   2.398   2.991   9.951  0.4841  1.6387  0.3026
35906SOL     OW11122   7.782   8.406   3.053  0.3231  0.7880 -0.3902
35906SOL    HW111123   7.798   8.499   3.038  0.4842  0.8392  0.1175
35906SOL    HW211124   7.859   8.362   3.017  0.5976  0.8977  0.0673
35907SOL     OW11125   7.576   3.984   7.254  0.0389  0.2380  0.2215
35907SOL    HW111126   7.598   3.976   7.347 -0.6743 -1.5249  0.2586
35907SOL    HW211127   7.506   3.920   7.241  0.7829 -0.1859 -1.7326
35908SOL     OW11128   3.528   2.171   7.644 -0.1143  0.1497  0.0938
35908SOL    HW111129   3.544   2.098   7.584  2.2879  1.1536 -0.5307
35908SOL    HW211130   3.448   2.212   7.612 -0.6011 -1.2325 -0.4910
35909SOL     OW11131  10.231   7.520   3.322  0.5287  0.1792  0.2152
35909SOL    HW111132  10.258   7.609   3.297  1.7653  0.4458  2.3962
35909SOL    HW211133  10.254   7.466   3.246 -0.4559  1.7237 -1.2413
35910SOL     OW11134   4.600   3.062   6.832  0.4995  0.4504 -0.4964
35910SOL    HW111135   4.606   3.053   6.737  0.3903 -0.9364 -0.3843
35910SOL    HW211136   4.677   3.015   6.866  1.2844  2.0990  0.0569
35911SOL     OW11137   7.232  10.758   5.073  0.6216 -0.0470 -0.0622
35911SOL    HW111138   7.190  10.687   5.025  0.7828 -0.1931  0.0096
35911SOL    HW211139   7.191  10.757   5.159  1.2667 -0.6508  0.2478
35912SOL     OW11140   1.616   6.810   5.760  0.3061 -0.0724  0.3669
35912SOL    HW111141   1.536   6.849   5.796 -0.6715 -0.4797 -1.3288
35912SOL    HW211142   1.675   6.884   5.749 -1.7540  1.1275 -3.4091
35913SOL     OW11143   8.594  10.599   8.798  0.1030 -0.5202  0.4352
35913SOL    HW111144   8.617  10.589   8.890 -3.2078  1.9794  1.6694
35913SOL    HW211145   8.508  10.558   8.790 -0.1133  0.2047 -1.2600
35914SOL     OW11146   5.348   3.428   7.926  0.0890 -0.3720  0.5342
35914SOL    HW111147   5.400   3.350   7.908 -0.1333 -0.1256 -1.3056
35914SOL    HW211148   5.260   3.406   7.894  0.6122  1.5042 -2.3813
35915SOL     OW11149   6.664   1.522   1.059 -0.2194  0.6480  0.3719
35915SOL    HW111150   6.576   1.525   1.097 -0.8378 -1.8584 -0.7400
35915SOL    HW211151   6.686   1.614   1.043 -2.0164  1.4039  2.0258
35916SOL     OW11152   5.364   1.148   9.609  0.0881 -0.0981  0.0279
35916SOL    HW111153   5.393   1.088   9.539 -0.4264 -0.3142 -0.0043
35916SOL    HW211154   5.441   1.158   9.665  0.7079  0.5949 -0.9213
35917SOL     OW11155   1.103   2.854   8.641  0.5821  0.2375 -0.2117
35917SOL    HW111156   1.089   2.918   8.711  1.5227 -1.0280  1.1601
35917SOL    HW211157   1.016   2.839   8.604  0.2856  1.9624 -0.2426
35918SOL     OW11158   8.343   2.245   2.900 -0.4049 -0.3531 -0.1907
35918SOL    HW111159   8.251   2.253   2.929 -0.1776  0.9560  0.2164
35918SOL    HW211160   8.391   2.303   2.959  0.9353 -2.3149  0.6806
35919SOL     OW11161   5.937   6.223  10.837  0.1758 -0.6302 -0.3275
35919SOL    HW111162   5.882   6.264  10.904 -0.3335  0.4492 -1.3868
35919SOL    HW211163   5.931   6.129  10.855 -2.2682 -0.5595 -0.6234
35920SOL     OW11164   8.330   4.510   5.391 -0.2630  0.5784 -0.2235
35920SOL    HW111165   8.292   4.438   5.441 -0.7259  0.4675 -0.7210
35920SOL    HW211166   8.328   4.585   5.451  0.4175  0.1320  0.3664
35921SOL     OW11167   6.882   7.782   8.592  0.5513 -0.1491  0.0962
35921SOL    HW111168   6.796   7.813   8.566  0.3462 -1.0973 -0.3596
35921SOL    HW211169   6.869   7.746   8.680  0.1876 -1.5275 -0.5073
35922SOL     OW11170  10.252   3.852   2.024 -0.4752  0.1076 -0.2023
35922SOL    HW111171  10.271   3.941   2.052  0.2770 -0.8587  2.4890
35922SOL    HW211172  10.335   3.817   1.992 -0.2844 -0.3094  0.7285
35923SOL     OW11173   9.724   8.079   5.417 -0.4811 -0.0531  0.0911
35923SOL    HW111174   9.685   8.096   5.330  0.1974  1.0799  0.0057
35923SOL    HW211175   9.818   8.086   5.403 -0.3953  0.8404  1.0707
35924SOL     OW11176   9.547   0.693   6.290 -0.0217  0.9986 -0.2315
35924SOL    HW111177   9.544   0.776   6.336 -0.7957  0.4699  0.6873
35924SOL    HW211178   9.583   0.631   6.353 -1.4475  0.1956 -0.1683
35925SOL     OW11179   9.687   6.572   1.805  0.0287  0.1936 -0.6005
35925SOL    HW111180   9.738   6.519   1.744  0.0389 -0.4914 -0.0081
35925SOL    HW211181   9.655   6.646   1.753  1.8856  0.7928 -0.8943
35926SOL     OW11182   1.377   8.218   1.036 -0.0152  0.0450 -0.0489
35926SOL    HW111183   1.461   8.189   1.002  1.0775  1.9232  0.9587
35926SOL    HW211184   1.316   8.206   0.964  1.1268 -1.2522 -0.8194
35927SOL     OW11185   9.605   0.468   1.935  0.0941 -0.1738 -0.5174
35927SOL    HW111186   9.557   0.385   1.939  0.6025 -0.5610 -2.0527
35927SOL    HW211187   9.616   0.484   1.842  1.1127  0.9909 -0.2033
35928SOL     OW11188   5.611   4.171   5.977  0.5006  0.1249  0.0093
35928SOL    HW111189   5.642   4.165   5.887  0.7992  1.2583  0.0270
35928SOL    HW211190   5.562   4.253   5.981  1.0791  0.4391  1.0360
35929SOL     OW11191   3.918  10.152   5.322 -0.0362 -0.0634  0.2601
35929SOL    HW111192   3.979  10.206   5.372 -0.1019  0.1255  0.1369
35929SOL    HW211193   3.836  10.158   5.371  0.0725 -0.4099  0.4891
35930SOL     OW11194   9.491   6.693   2.626  0.1077 -0.1585  0.0660
35930SOL    HW111195   9.484   6.602   2.655 -0.3737  0.1433  0.9193
35930SOL    HW211196   9.403   6.729   2.637 -0.2966 -0.2579 -2.5890
35931SOL     OW11197   8.661   3.071   4.370  0.0290  0.2956  0.3819
35931SOL    HW111198   8.646   2.986   4.327 -0.3033  0.3066  0.4780
35931SOL    HW211199   8.607   3.068   4.449  0.6952  0.2468  0.8409
35932SOL     OW11200   0.905  10.527   6.343  0.6372  0.2157  0.1943
35932SOL    HW111201   0.935  10.508   6.432  1.8130 -0.7402 -0.3815
35932SOL    HW211202   0.813  10.501   6.342  0.4573  0.7837  1.2852
35933SOL     OW11203   9.116   5.381   1.906  0.2442 -0.0185 -0.1666
35933SOL    HW111204   9.057   5.447   1.869  1.2815  0.3579 -1.1925
35933SOL    HW211205   9.107   5.306   1.847  1.6793  0.4761 -1.0428
35934SOL     OW11206   1.342   3.837   0.281  0.4192 -0.3478 -0.2613
35934SOL    HW111207   1.314   3.808   0.367  1.1407 -1.9572 -0.5557
35934SOL    HW211208   1.435   3.857   0.292  0.1390  1.0166 -0.2801
35935SOL     OW11209   5.511   6.527  10.583 -0.2402  0.5047 -0.1071
35935SOL    HW111210   5.486   6.606  10.630 -0.2547  0.0506  0.6666
35935SOL    HW211211   5.560   6.475  10.647 -1.2239 -0.6266 -0.2433
35936SOL     OW11212   2.736   7.208   8.457  0.5929  0.1697 -0.5890
35936SOL    HW111213   2.730   7.217   8.362  0.3364  4.3688 -0.2469
35936SOL    HW211214   2.824   7.239   8.479  0.9178 -1.4521  0.5080
35937SOL     OW11215   4.904   3.652   6.549 -0.2780  0.4759 -0.1318
35937SOL    HW111216   4.927   3.696   6.631 -0.3892 -2.0554  1.3110
35937SOL    HW211217   4.826   3.601   6.570  0.0676 -0.7088 -1.6312
35938SOL     OW11218   1.425  10.288   3.530  0.5301  0.1151  0.1766
35938SOL    HW111219   1.489  10.240   3.478  0.1719 -1.6539  1.3245
35938SOL    HW211220   1.342  10.244   3.514  0.3363 -0.1880  1.8604
35939SOL     OW11221  10.887   6.722   7.410 -0.1794 -0.7340 -0.3664
35939SOL    HW111222  10.886   6.817   7.405 -1.5860 -0.6561  0.8943
35939SOL    HW211223  10.979   6.699   7.419  0.2611  0.4305 -1.7970
35940SOL     OW11224   6.527   4.159   6.388 -0.0914  0.4524 -0.0169
35940SOL    HW111225   6.475   4.151   6.307 -1.7490 -1.2094  1.1768
35940SOL    HW211226   6.603   4.102   6.373  0.4256  1.3812 -1.0083
35941SOL     OW11227   1.635   2.228   8.410  0.5382 -0.4982 -0.1423
35941SOL    HW111228   1.651   2.322   8.409 -0.5640 -0.3138 -1.3336
35941SOL    HW211229   1.611   2.208   8.500 -0.2723  0.5448 -0.1211
35942SOL     OW11230   4.657   9.312   3.503  0.3951 -0.2706 -0.1396
35942SOL    HW111231   4.750   9.329   3.492  0.1034  0.1157 -2.4571
35942SOL    HW211232   4.620   9.397   3.528  0.6792 -0.4566  0.9199
35943SOL     OW11233  10.412   3.377  10.159 -0.0948 -0.3056 -0.1704
35943SOL    HW111234  10.405   3.322  10.237 -0.6242 -2.0926 -1.4447
35943SOL    HW211235  10.498   3.356  10.123 -1.0126 -1.6759 -1.6381
35944SOL     OW11236   8.856   8.808   5.308  1.0005 -0.5749  1.0112
35944SOL    HW111237   8.880   8.851   5.390 -0.9726 -1.0365  1.8374
35944SOL    HW211238   8.860   8.715   5.328  0.3295 -0.6851  0.6404
35945SOL     OW11239   9.880   9.537   4.191  0.2762 -0.3667 -0.5528
35945SOL    HW111240   9.947   9.576   4.135 -0.0454  2.0623  0.6961
35945SOL    HW211241   9.930   9.488   4.257  0.8260  0.8805 -0.0279
35946SOL     OW11242   5.028   7.001   2.432 -0.2480  0.5234  0.1338
35946SOL    HW111243   5.100   6.947   2.465 -1.7213 -1.0682  0.8467
35946SOL    HW211244   5.063   7.090   2.430  2.3656 -0.4617 -1.3733
35947SOL     OW11245  10.790   4.072   0.495  0.1466 -0.0327 -0.1765
35947SOL    HW111246  10.764   3.981   0.480 -1.0296  0.6420 -2.4754
35947SOL    HW211247  10.713   4.113   0.535 -0.5371  0.7304 -2.2315
35948SOL     OW11248   5.647   9.299   9.656 -0.1744 -0.1276  0.1557
35948SOL    HW111249   5.637   9.245   9.733  0.7602  0.0139  0.3854
35948SOL    HW211250   5.705   9.370   9.684  0.3904 -0.2233 -0.7402
35949SOL     OW11251   0.929   9.718   1.936 -0.4670  0.1776 -0.0612
35949SOL    HW111252   0.977   9.675   2.007 -1.7455  2.2495  2.0993
35949SOL    HW211253   0.988   9.786   1.905 -1.6507  2.2892  2.1525
35950SOL     OW11254   9.521   0.774   5.364  0.0321 -0.2131  0.2966
35950SOL    HW111255   9.578   0.712   5.410 -0.7538 -0.9736  0.2503
35950SOL    HW211256   9.454   0.719   5.324  0.3876  0.4879 -1.3021
35951SOL     OW11257   3.173   6.124   5.467  0.4245  0.2536 -0.0255
35951SOL    HW111258   3.079   6.129   5.449  0.7141 -1.3831 -2.1097
35951SOL    HW211259   3.204   6.214   5.454 -0.9632  0.9755  1.4711
35952SOL     OW11260   3.794   3.772   0.832  0.3428 -0.6073 -0.3443
35952SOL    HW111261   3.864   3.780   0.767  0.0937 -1.9738 -0.7933
35952SOL    HW211262   3.774   3.679   0.834 -0.4562 -0.4169  0.8585
35953SOL     OW11263   1.251   8.367   0.439  0.0249 -0.0805 -0.3990
35953SOL    HW111264   1.262   8.361   0.534 -1.4574 -1.4017 -0.2936
35953SOL    HW211265   1.157   8.363   0.426  0.3282 -2.5255 -2.0824
35954SOL     OW11266   2.263   4.001   6.920  0.0580 -0.1273 -0.1024
35954SOL    HW111267   2.209   4.038   6.991  0.3500 -2.8833  1.6212
35954SOL    HW211268   2.346   3.979   6.963  0.1973 -1.9576 -1.2901
35955SOL     OW11269   9.088   7.399   0.906 -0.2413 -0.1679  0.6180
35955SOL    HW111270   9.008   7.437   0.869  0.4328 -0.0196 -0.7113
35955SOL    HW211271   9.099   7.317   0.859  1.7284  0.9670 -1.0041
35956SOL     OW11272   1.823   5.817   7.402  0.0519  0.3769  0.0803
35956SOL    HW111273   1.765   5.746   7.430  1.2319 -0.4564  0.4379
35956SOL    HW211274   1.769   5.896   7.409 -0.8125 -0.2935  1.1166
35957SOL     OW11275   1.466   7.239   0.790  0.5706  0.0197  0.0125
35957SOL    HW111276   1.442   7.150   0.767  2.0073 -0.4121  0.1160
35957SOL    HW211277   1.403   7.264   0.857 -0.2050 -0.7019 -0.4399
35958SOL     OW11278   0.441   1.652   3.591 -0.7681 -0.2378  0.2684
35958SOL    HW111279   0.447   1.602   3.509 -0.3857  0.0778  0.1000
35958SOL    HW211280   0.526   1.638   3.633 -1.2378 -1.0105  0.9696
35959SOL     OW11281   1.711   7.850   9.779 -0.2611  0.3478 -0.2671
35959SOL    HW111282   1.662   7.930   9.758 -0.1900 -0.2367 -2.7631
35959SOL    HW211283   1.644   7.786   9.804 -0.3944  0.8672  0.7409
35960SOL     OW11284   1.767   7.164   0.027 -0.4880 -0.5822 -0.2988
35960SOL    HW111285   1.757   7.210   0.111  1.6188  0.6036 -0.6563
35960SOL    HW211286   1.847   7.113   0.037  0.0123 -0.0975 -1.7311
35961SOL     OW11287   3.559   2.021   4.423 -0.3766  0.1753  0.3174
35961SOL    HW111288   3.606   2.005   4.505  2.2578  2.6410 -0.6052
35961SOL    HW211289   3.471   1.987   4.438  1.3200 -3.6282  2.5561
35962SOL     OW11290   3.530   7.246   9.374  0.0466  0.3340 -0.5694
35962SOL    HW111291   3.477   7.174   9.341 -0.0146 -0.4877  1.2521
35962SOL    HW211292   3.611   7.243   9.323  0.1519 -1.1998 -0.3264
35963SOL     OW11293   1.377   3.310   4.207 -0.3565  0.0166  0.2609
35963SOL    HW111294   1.385   3.331   4.300  0.5161  0.3805  0.1072
35963SOL    HW211295   1.314   3.373   4.173 -3.2075 -2.1992  1.2677
35964SOL     OW11296   8.993   4.027  10.087 -0.3310 -0.1837 -0.0238
35964SOL    HW111297   8.906   4.061  10.104 -1.0508 -2.1211  0.3310
35964SOL    HW211298   8.979   3.934  10.067  1.6136 -0.4688 -0.1759
35965SOL     OW11299   5.491   5.471   5.373  0.2507 -0.0733 -0.3386
35965SOL    HW111300   5.549   5.500   5.302 -0.0802  0.2228 -0.4886
35965SOL    HW211301   5.471   5.380   5.351  0.4343 -0.0893 -0.4396
35966SOL     OW11302  10.620   2.685   7.804 -0.2685  0.2700 -0.2495
35966SOL    HW111303  10.674   2.647   7.873  2.3430  1.1544 -1.7139
35966SOL    HW211304  10.650   2.776   7.797 -0.3810  0.1758 -2.5674
35967SOL     OW11305   6.721   8.151   8.625  0.4161 -0.3644  0.2413
35967SOL    HW111306   6.629   8.173   8.606  0.1631 -1.6061 -0.0366
35967SOL    HW211307   6.770   8.226   8.594 -0.5440  0.5091  0.7858
35968SOL     OW11308   6.384   6.687   8.569  0.2009  0.6316  0.4224
35968SOL    HW111309   6.476   6.668   8.587  0.5327  1.3078 -0.4951
35968SOL    HW211310   6.386   6.735   8.486 -1.0107  0.3192  0.2082
35969SOL     OW11311   8.675   1.282   7.662 -0.3508 -0.5047 -0.0612
35969SOL    HW111312   8.613   1.253   7.595  1.0134 -2.2542 -0.5911
35969SOL    HW211313   8.704   1.202   7.705  0.4047  0.4234  1.2033
35970SOL     OW11314   1.277  10.890   1.335 -0.0878  0.1039  0.7881
35970SOL    HW111315   1.215  10.946   1.382  0.6476  1.1129  0.5825
35970SOL    HW211316   1.312  10.947   1.266  0.7430 -0.5849  0.6421
35971SOL     OW11317   1.198   8.904   0.412 -0.0437 -0.0264  0.5755
35971SOL    HW111318   1.122   8.937   0.459  0.2740 -1.1987  1.9351
35971SOL    HW211319   1.222   8.975   0.353  0.2980  1.9848  3.0529
35972SOL     OW11320   2.899   8.945   3.087 -0.5523  0.4128  0.1254
35972SOL    HW111321   2.878   8.968   3.177 -0.0268 -1.2041  0.6873
35972SOL    HW211322   2.828   8.982   3.035 -0.8511  1.3673  1.2030
35973SOL     OW11323   3.355   8.834   6.230  0.3253 -0.0625  0.2773
35973SOL    HW111324   3.391   8.912   6.272  1.6089 -0.6944  0.3705
35973SOL    HW211325   3.343   8.772   6.303  0.2620 -0.3066  0.0583
35974SOL     OW11326   3.758   4.544   2.712  0.2955  0.6921  0.4924
35974SOL    HW111327   3.811   4.518   2.636 -0.0169  2.4419 -0.3479
35974SOL    HW211328   3.741   4.637   2.698 -2.2940  0.3469  1.1743
35975SOL     OW11329   4.398   9.194   1.616  0.4523  0.1035 -0.1772
35975SOL    HW111330   4.420   9.179   1.523  1.4021  0.2198  0.0186
35975SOL    HW211331   4.418   9.111   1.659 -0.4969 -0.1167 -0.1605
35976SOL     OW11332   8.312   8.247   7.065  0.0481 -0.3329  0.6891
35976SOL    HW111333   8.387   8.209   7.020 -0.6157 -1.6191  0.6531
35976SOL    HW211334   8.262   8.290   6.997 -0.7302 -1.9095  0.2465
35977SOL     OW11335   0.618   5.788   4.429  0.7460  0.4781  0.3851
35977SOL    HW111336   0.587   5.798   4.519  3.3383  1.7089  1.1775
35977SOL    HW211337   0.553   5.833   4.375 -2.2110 -2.4671  1.3252
35978SOL     OW11338   6.673   3.290   2.792 -0.2193  0.2315 -0.1027
35978SOL    HW111339   6.752   3.299   2.738 -1.2816  0.1097 -1.6964
35978SOL    HW211340   6.642   3.380   2.804 -0.0818  0.2435  0.1807
35979SOL     OW11341   2.734   7.044   0.831 -0.3232  0.0465 -0.9943
35979SOL    HW111342   2.713   6.952   0.845  0.1066 -0.2736 -2.3995
35979SOL    HW211343   2.650   7.089   0.840 -0.6075 -0.5322 -0.7403
35980SOL     OW11344   7.738  10.724   5.450 -0.6845  0.8102  0.0231
35980SOL    HW111345   7.698  10.708   5.365 -2.1627  0.2635  0.7998
35980SOL    HW211346   7.784  10.643   5.470 -1.3783  0.4725  0.2890
35981SOL     OW11347   9.907   2.779   2.851 -0.1262  0.1331  0.1955
35981SOL    HW111348   9.987   2.809   2.808  0.1950  0.8881  1.2918
35981SOL    HW211349   9.836   2.810   2.795  0.3484 -0.9231 -1.0195
35982SOL     OW11350   7.483   9.813   6.543 -0.6325  0.1131  0.1177
35982SOL    HW111351   7.519   9.832   6.456 -1.3303  0.3573 -0.1161
35982SOL    HW211352   7.457   9.898   6.578 -1.3203 -0.1021  0.1395
35983SOL     OW11353   1.875   3.461   2.568 -0.1010 -0.4215  0.1567
35983SOL    HW111354   1.856   3.471   2.662 -1.4642 -1.9804  0.0628
35983SOL    HW211355   1.863   3.368   2.551 -0.1839 -0.0955 -1.6394
35984SOL     OW11356   1.749   6.663  10.144 -0.2592 -0.6125 -0.9647
35984SOL    HW111357   1.725   6.645  10.235  0.3324 -0.6831 -0.8190
35984SOL    HW211358   1.673   6.635  10.093 -0.0013 -2.0034 -0.6114
35985SOL     OW11359   4.378   5.762   5.971  0.7072 -0.5719  0.6423
35985SOL    HW111360   4.301   5.715   5.941  1.2314 -1.5689  0.8366
35985SOL    HW211361   4.429   5.779   5.891 -0.0273  0.6601  0.4356
35986SOL     OW11362   0.503   1.113   2.866  0.3238  0.2294  0.1262
35986SOL    HW111363   0.484   1.039   2.923  0.4654 -0.3501 -0.5797
35986SOL    HW211364   0.597   1.107   2.850  0.9892  2.4377  2.6986
35987SOL     OW11365   2.787  10.584   0.799 -0.4472 -0.1132  0.6266
35987SOL    HW111366   2.866  10.634   0.820  0.0312 -0.7913  0.4401
35987SOL    HW211367   2.811  10.493   0.815 -1.5818 -0.2309  1.8151
35988SOL     OW11368   5.144   5.319   9.983  0.4647  0.0837 -0.1907
35988SOL    HW111369   5.212   5.386   9.983  2.0180 -1.4453  0.2668
35988SOL    HW211370   5.146   5.282  10.072 -0.8698 -0.0906 -0.2125
35989SOL     OW11371   5.165  10.360   3.616 -0.1170  0.4398 -0.1438
35989SOL    HW111372   5.252  10.398   3.625 -0.1460  0.2265  1.0793
35989SOL    HW211373   5.108  10.416   3.669 -0.3049 -0.7995  0.9869
35990SOL     OW11374   0.580   2.082   4.189  0.0190  0.6681  0.4287
35990SOL    HW111375   0.610   2.169   4.161 -3.8450  1.7453 -0.6601
35990SOL    HW211376   0.515   2.099   4.257 -1.8981 -1.2407 -0.8428
35991SOL     OW11377   2.610   7.832   0.485  0.5718 -0.4985  0.1332
35991SOL    HW111378   2.648   7.915   0.457 -1.9499  0.5198 -0.4395
35991SOL    HW211379   2.598   7.782   0.405 -2.4684  0.6218 -0.2102
35992SOL     OW11380   2.500   8.577   0.301 -0.2444  0.2294  0.7793
35992SOL    HW111381   2.404   8.580   0.305 -0.2120  1.0096  1.0638
35992SOL    HW211382   2.528   8.658   0.343  0.4524  1.7615 -2.4458
35993SOL     OW11383   5.623   1.802   7.654  0.1817  1.0121 -0.8061
35993SOL    HW111384   5.639   1.806   7.748 -0.5234 -1.1398 -0.5766
35993SOL    HW211385   5.710   1.797   7.614  0.4625  1.5206 -0.2685
35994SOL     OW11386   1.234   6.418   5.925  0.0029  0.4603  0.5944
35994SOL    HW111387   1.146   6.386   5.905  0.8159 -0.4700 -1.6822
35994SOL    HW211388   1.247   6.491   5.864  0.9705  0.2869  0.5906
35995SOL     OW11389   0.011  10.890   1.762 -0.2512 -0.3228  0.2839
35995SOL    HW111390  -0.026  10.835   1.694 -1.1791 -1.5207  1.7105
35995SOL    HW211391  -0.018  10.979   1.740 -1.6779 -0.8743 -0.1382
35996SOL     OW11392   9.312   4.916   9.762  0.1331  0.0573 -0.3154
35996SOL    HW111393   9.289   4.942   9.672 -0.6070  0.8801  0.1013
35996SOL    HW211394   9.286   4.824   9.768  0.5145 -0.1033 -1.0577
35997SOL     OW11395   3.656   3.174   1.255  0.5475  0.5437  0.0047
35997SOL    HW111396   3.569   3.155   1.287  0.1204  0.2123 -1.3037
35997SOL    HW211397   3.714   3.158   1.330 -0.2902 -1.2704  0.2899
35998SOL     OW11398   6.386   7.712   2.014 -0.1687 -0.5404 -0.1201
35998SOL    HW111399   6.456   7.646   2.010  1.9171  1.4838  1.4812
35998SOL    HW211400   6.412   7.777   1.949 -1.8044 -0.9095 -1.1463
35999SOL     OW11401   4.681  10.092  10.687  0.4002  0.3028 -0.2246
35999SOL    HW111402   4.658  10.058  10.600  0.2898 -0.6248  0.1582
35999SOL    HW211403   4.737  10.024  10.725  0.4538  0.7089  0.4331
36000SOL     OW11404   8.712   0.158   5.262  0.2032 -0.0087  0.2183
36000SOL    HW111405   8.803   0.157   5.289 -0.1382  0.6663  1.4636
36000SOL    HW211406   8.709   0.221   5.190  0.5291  0.8295  0.9257
36001SOL     OW11407   6.211   0.349   9.379 -0.7314  0.0775  0.1493
36001SOL    HW111408   6.183   0.351   9.288  0.7327  1.3704 -0.2920
36001SOL    HW211409   6.186   0.435   9.414  0.5212  0.3348  0.4156
36002SOL     OW11410   4.478   2.838   4.621 -0.5061 -0.6350 -0.0112
36002SOL    HW111411   4.534   2.779   4.571 -0.3505  0.4293 -1.1231
36002SOL    HW211412   4.414   2.781   4.663  0.1744 -1.6647 -0.3701
36003SOL     OW11413  10.241   9.122   5.365  0.0087 -0.2422  0.4113
36003SOL    HW111414  10.222   9.178   5.290 -2.4656 -2.1299 -0.4655
36003SOL    HW211415  10.292   9.049   5.328 -0.9295 -1.0062  0.6049
36004SOL     OW11416   9.936   3.758   9.980  0.5128  0.2683 -0.1911
36004SOL    HW111417  10.013   3.701   9.972 -0.9138 -1.5572 -1.3794
36004SOL    HW211418   9.898   3.734  10.065  0.4500  0.1411 -0.2546
36005SOL     OW11419   9.911  10.572   5.352 -0.0239 -0.0749  0.1961
36005SOL    HW111420   9.973  10.558   5.281 -0.1628  0.6154 -0.0615
36005SOL    HW211421   9.825  10.573   5.310 -0.1458 -0.1391  0.4390
36006SOL     OW11422   1.330   5.754   2.614  0.0535  0.3215 -0.2946
36006SOL    HW111423   1.394   5.826   2.625  0.2713  0.1773 -0.6200
36006SOL    HW211424   1.384   5.675   2.609 -0.2070  0.0892  0.4503
36007SOL     OW11425   1.056  10.927  10.777 -0.7450  0.0782 -0.0280
36007SOL    HW111426   1.042  10.935  10.683 -0.2558  0.2144 -0.0906
36007SOL    HW211427   0.968  10.920  10.814 -0.8561 -3.3865 -0.8018
36008SOL     OW11428   2.196   8.567   0.873  0.6164  0.5288  0.7502
36008SOL    HW111429   2.221   8.634   0.808  0.9674  0.6446  1.0011
36008SOL    HW211430   2.251   8.492   0.851  0.6243  0.5157  0.8153
36009SOL     OW11431   9.435   7.493   4.699 -0.0264 -0.5284 -0.4853
36009SOL    HW111432   9.370   7.432   4.732  0.5217 -0.1183  1.4167
36009SOL    HW211433   9.421   7.573   4.750  1.8127 -0.3587 -0.2153
36010SOL     OW11434   6.488   4.694   9.321 -0.1328  0.1940  0.0957
36010SOL    HW111435   6.453   4.765   9.268 -0.1673 -0.6423 -1.0389
36010SOL    HW211436   6.490   4.619   9.262  2.4458 -0.0936  0.4662
36011SOL     OW11437   0.491   1.194   5.434  0.1558  0.3811  0.1163
36011SOL    HW111438   0.433   1.250   5.485 -0.1781 -0.7807  1.0360
36011SOL    HW211439   0.476   1.220   5.343  1.3490  3.0177  0.6229
36012SOL     OW11440   8.617   7.112   7.791 -0.0950  0.5639  0.1730
36012SOL    HW111441   8.588   7.021   7.783 -1.7752  1.1915 -1.3214
36012SOL    HW211442   8.589   7.139   7.878  1.5391 -0.7248  1.1136
36013SOL     OW11443   5.760  10.883   8.030  0.4178 -0.2304 -0.2332
36013SOL    HW111444   5.764  10.957   7.969 -0.7023 -0.2648 -0.3617
36013SOL    HW211445   5.753  10.923   8.116 -0.7526 -0.1733 -0.3447
36014SOL     OW11446   5.093   7.327   8.655 -0.0235 -0.0238 -0.6784
36014SOL    HW111447   5.081   7.386   8.580 -0.2141 -0.7350 -1.2151
36014SOL    HW211448   5.154   7.373   8.713 -1.6719  1.5683 -0.1657
36015SOL     OW11449   7.315   2.337   4.625  0.8710 -0.0842 -0.4565
36015SOL    HW111450   7.235   2.284   4.615  0.0829  1.0612 -0.3486
36015SOL    HW211451   7.367   2.289   4.689 -0.8098  0.3485  1.2856
36016SOL     OW11452   0.123   0.847   3.544  0.1723  0.0278  0.2806
36016SOL    HW111453   0.107   0.773   3.602  1.0278 -0.0038  0.4683
36016SOL    HW211454   0.135   0.921   3.602  1.2092 -0.0378  0.1514
36017SOL     OW11455   8.570   2.487   6.968 -0.4798 -0.1524  0.0225
36017SOL    HW111456   8.567   2.420   7.037  0.4741 -0.1428  0.0712
36017SOL    HW211457   8.635   2.455   6.906 -0.5277  0.3870 -0.3096
36018SOL     OW11458   7.891  10.190   2.197 -0.0539  0.0938  0.1092
36018SOL    HW111459   7.816  10.131   2.199 -1.8030  2.1594 -1.8887
36018SOL    HW211460   7.959  10.142   2.150 -1.7198 -0.0403 -2.2162
36019SOL     OW11461   8.617   2.504   0.386 -0.0099  0.0104 -0.1182
36019SOL    HW111462   8.647   2.497   0.476  0.0511  0.2586 -0.1197
36019SOL    HW211463   8.616   2.414   0.354 -0.0554 -0.0804  0.1379
36020SOL     OW11464   2.765   8.186   3.177 -0.0949  0.0913 -0.3168
36020SOL    HW111465   2.690   8.245   3.187  0.5519  0.9442 -0.4627
36020SOL    HW211466   2.809   8.188   3.262  0.2533  0.2642 -0.5000
36021SOL     OW11467   1.811  10.253   1.586  0.7497 -0.2654 -0.5554
36021SOL    HW111468   1.792  10.335   1.541  2.0738 -0.3579 -1.3024
36021SOL    HW211469   1.740  10.195   1.561 -0.0304  0.5431 -0.2655
36022SOL     OW11470   9.782   6.586   5.303 -0.1642  0.2132 -0.2567
36022SOL    HW111471   9.760   6.507   5.352  1.3123 -0.0378  0.0318
36022SOL    HW211472   9.878   6.587   5.301 -0.1848  1.2137 -1.5273
36023SOL     OW11473   4.922   3.839   7.814 -0.3392 -0.3095  0.4343
36023SOL    HW111474   5.008   3.817   7.850  0.1562 -2.6626 -2.0661
36023SOL    HW211475   4.863   3.773   7.850 -0.3454 -1.0595 -0.9424
36024SOL     OW11476   7.167   2.643   4.768  0.3425  0.4618  0.0568
36024SOL    HW111477   7.127   2.579   4.708  0.9366  0.6500 -0.5507
36024SOL    HW211478   7.211   2.590   4.834 -1.4205  0.2424  1.1056
36025SOL     OW11479   2.231   2.788   1.999  0.4971  0.4790  0.6692
36025SOL    HW111480   2.175   2.715   2.026  0.6801 -0.4745 -1.3681
36025SOL    HW211481   2.169   2.859   1.980  0.2470  0.5513  1.7193
36026SOL     OW11482   3.315   7.699   9.739 -0.0739 -0.3647 -0.5765
36026SOL    HW111483   3.273   7.781   9.711 -0.9166 -0.3352  0.7238
36026SOL    HW211484   3.331   7.712   9.832  1.2293 -1.0842 -0.6915
36027SOL     OW11485   8.554   6.781   6.014  0.2196  0.1272 -0.2498
36027SOL    HW111486   8.541   6.801   5.921 -0.3272  3.1745  0.4132
36027SOL    HW211487   8.608   6.853   6.046 -0.4477 -0.3547  2.0264
36028SOL     OW11488   3.290   2.958   0.279  0.2298 -0.9659 -0.5416
36028SOL    HW111489   3.364   2.943   0.337 -2.0219  0.0225  2.7457
36028SOL    HW211490   3.222   2.899   0.311 -1.5716  0.6933 -1.1775
36029SOL     OW11491   6.878   5.429  10.415  0.7537  0.6232  0.3078
36029SOL    HW111492   6.923   5.380  10.485  0.5309 -2.8082 -1.8464
36029SOL    HW211493   6.949   5.465  10.362  0.9179  1.0864  0.8324
36030SOL     OW11494   6.044   0.873   8.676 -0.2562  0.8379  0.3923
36030SOL    HW111495   6.003   0.951   8.639 -1.1183  0.3255  0.2544
36030SOL    HW211496   6.015   0.802   8.619 -0.3499  0.2622  1.1512
36031SOL     OW11497   9.614   2.835   2.068 -0.1098 -0.5140 -0.5154
36031SOL    HW111498   9.675   2.884   2.123 -0.4713 -0.1413 -0.4474
36031SOL    HW211499   9.569   2.776   2.128 -0.7101  0.0981 -0.3683
36032SOL     OW11500  10.701  10.132  10.430  0.0995 -0.2078  0.4399
36032SOL    HW111501  10.679  10.218  10.464  1.3707  0.5837 -0.6630
36032SOL    HW211502  10.719  10.079  10.507  1.6004  1.1731  1.0679
36033SOL     OW11503   6.633   6.214   6.362  0.1869  0.4381  0.8624
36033SOL    HW111504   6.710   6.192   6.415 -0.1523 -0.5310  0.9660
36033SOL    HW211505   6.559   6.210   6.424 -0.1893 -0.5310  0.3623
36034SOL     OW11506   9.022   8.503   3.470 -0.7722  0.7302  0.1401
36034SOL    HW111507   9.002   8.410   3.471  0.0596  0.5580  0.6268
36034SOL    HW211508   9.110   8.509   3.434 -1.4182  1.4442 -1.3585
36035SOL     OW11509   5.084   7.908   8.276  0.5804  0.7854  0.2371
36035SOL    HW111510   5.077   7.976   8.343  1.8046  1.1343  0.0299
36035SOL    HW211511   5.031   7.941   8.203  0.9488  1.4011  0.2419
36036SOL     OW11512   6.945   8.034   5.257  0.1310  0.1029  0.7037
36036SOL    HW111513   6.939   8.124   5.289 -2.1952  0.3405 -0.3311
36036SOL    HW211514   6.861   7.994   5.282  0.9369 -1.6387  0.7162
36037SOL     OW11515   8.293   7.106   3.973  0.0123 -0.3061 -0.7840
36037SOL    HW111516   8.205   7.091   3.940 -0.4434  0.5719  0.0105
36037SOL    HW211517   8.289   7.078   4.065 -0.0000  1.6059 -0.1684
36038SOL     OW11518  10.856   3.719   2.341  0.2278  0.0904  0.2738
36038SOL    HW111519  10.774   3.679   2.312  0.5282 -0.6844  0.4836
36038SOL    HW211520  10.913   3.714   2.264 -0.3992  1.9897 -0.3503
36039SOL     OW11521   1.796   9.244   8.403  0.1733  0.5254  0.2500
36039SOL    HW111522   1.803   9.282   8.491  1.5080 -2.4419  1.5004
36039SOL    HW211523   1.843   9.305   8.347 -0.1867  2.1712  1.6899
36040SOL     OW11524   2.828   2.497   3.991 -0.2861 -0.0955  0.1697
36040SOL    HW111525   2.826   2.464   4.081 -0.5933  0.4390  0.3586
36040SOL    HW211526   2.844   2.419   3.937  2.4157 -0.0753  0.8550
36041SOL     OW11527   9.874   1.350   5.667  0.4247 -0.3451  0.1577
36041SOL    HW111528   9.861   1.442   5.693 -2.2241 -1.0677  1.5430
36041SOL    HW211529   9.963   1.330   5.695  0.7963  1.6246  0.4517
36042SOL     OW11530   9.519   9.505   4.441  0.1404 -0.6295 -0.1930
36042SOL    HW111531   9.600   9.455   4.444 -0.5471 -1.6307  2.8094
36042SOL    HW211532   9.465   9.468   4.510 -1.4564  2.4798  0.2967
36043SOL     OW11533   6.616  10.681  10.563 -0.1248 -0.0147 -0.1780
36043SOL    HW111534   6.680  10.748  10.587 -0.2473 -0.3443  1.0783
36043SOL    HW211535   6.591  10.703  10.473  1.5720  0.2571 -0.5955
36044SOL     OW11536   4.527   6.655   4.511 -0.2505  0.1343 -0.2817
36044SOL    HW111537   4.442   6.613   4.500  0.3386 -1.3771  0.6931
36044SOL    HW211538   4.507   6.743   4.543 -1.4808  0.3517 -1.6000
36045SOL     OW11539   8.130   1.191   2.325  0.2106  0.0069  0.2288
36045SOL    HW111540   8.067   1.210   2.256  0.0185 -0.1786  0.3500
36045SOL    HW211541   8.165   1.105   2.301  0.5234  0.1732  0.0841
36046SOL     OW11542   4.367   9.496   6.231 -0.0905 -0.0481  0.7783
36046SOL    HW111543   4.414   9.578   6.220  1.4594 -1.0962 -0.5681
36046SOL    HW211544   4.357   9.486   6.326  1.4558  0.7123  1.0344
36047SOL     OW11545   1.445   7.124   6.606 -0.1753 -0.0256 -0.0424
36047SOL    HW111546   1.391   7.183   6.554  0.9947  1.6312  0.5855
36047SOL    HW211547   1.456   7.168   6.690  1.9767 -0.3999 -0.0824
36048SOL     OW11548   2.261   8.691   5.919  0.1395 -0.4089 -0.1361
36048SOL    HW111549   2.297   8.768   5.874 -1.4811  0.9130  0.7960
36048SOL    HW211550   2.170   8.687   5.891 -0.3279 -0.8142  1.3960
36049SOL     OW11551   2.297   9.849   4.358 -0.4289 -0.4569 -0.2739
36049SOL    HW111552   2.287   9.766   4.403 -1.0588 -0.2062  0.0591
36049SOL    HW211553   2.213   9.894   4.371 -0.5205 -0.2698 -1.4538
36050SOL     OW11554   7.069   8.669  10.338 -0.4699 -0.0056  0.0757
36050SOL    HW111555   7.124   8.701  10.409 -0.7453 -1.0234  0.7501
36050SOL    HW211556   6.990   8.723  10.343  0.0297  0.7646 -0.2536
36051SOL     OW11557   2.515   8.598   7.494 -0.5987  0.3195  0.0826
36051SOL    HW111558   2.534   8.597   7.587 -2.3424 -0.7828  0.4572
36051SOL    HW211559   2.425   8.630   7.488 -1.6715 -2.6630 -0.9544
36052SOL     OW11560   9.534   8.428   3.656  0.3100  0.1167 -0.7275
36052SOL    HW111561   9.562   8.349   3.702  2.0549  0.9968 -0.1951
36052SOL    HW211562   9.554   8.411   3.564  0.3228 -0.2122 -0.6648
36053SOL     OW11563   3.440   9.547   5.193 -0.0481  0.0777 -0.0268
36053SOL    HW111564   3.488   9.516   5.116 -0.2932  1.1012 -0.6134
36053SOL    HW211565   3.394   9.625   5.161  0.0956  0.6881  1.2425
36054SOL     OW11566   6.278   5.405   1.508 -0.6049  0.3021  0.0095
36054SOL    HW111567   6.272   5.335   1.443  0.6319 -1.6523  1.9159
36054SOL    HW211568   6.323   5.476   1.463  1.1911 -1.4113 -1.0058
36055SOL     OW11569   4.892  10.638   6.034  0.7713  0.3420 -0.0874
36055SOL    HW111570   4.938  10.698   6.094 -0.2410  1.2378 -0.2027
36055SOL    HW211571   4.851  10.695   5.969  0.6926 -0.5470 -0.8383
36056SOL     OW11572   8.407  10.567   1.111 -0.6689  0.0297  0.2152
36056SOL    HW111573   8.427  10.571   1.017 -0.9780  0.2965  0.1609
36056SOL    HW211574   8.448  10.485   1.140  1.2689  0.9856  0.2836
36057SOL     OW11575   1.832   5.169   4.573 -0.4249  0.4093  0.5074
36057SOL    HW111576   1.888   5.181   4.496  0.0537  0.3487  0.8440
36057SOL    HW211577   1.846   5.247   4.626 -1.7149  1.0446 -0.0616
36058SOL     OW11578   0.661   2.915   2.900  0.1587 -0.0064  0.3094
36058SOL    HW111579   0.603   2.859   2.952  0.7087 -1.1795 -0.3182
36058SOL    HW211580   0.602   2.976   2.854 -0.5191 -0.7058  0.2463
36059SOL     OW11581   3.699   2.968   4.938  0.5525  0.2134  0.0548
36059SOL    HW111582   3.672   2.926   5.020  0.5295  0.6805  0.2933
36059SOL    HW211583   3.640   2.933   4.872 -1.6246  2.3281  0.8326
36060SOL     OW11584   1.197   5.805   7.327 -0.0255 -0.9711 -0.3579
36060SOL    HW111585   1.289   5.781   7.317  0.0866 -0.5597 -0.3418
36060SOL    HW211586   1.165   5.749   7.398  0.4314 -0.5319  0.1983
36061SOL     OW11587   5.239   5.174   9.790  0.0319  0.0244  0.3040
36061SOL    HW111588   5.185   5.215   9.857  1.4289  1.6659  0.4577
36061SOL    HW211589   5.327   5.208   9.807  1.0872 -2.4386 -0.0512
36062SOL     OW11590   7.033   9.078   6.804  0.2961  0.1444 -0.2205
36062SOL    HW111591   6.994   9.146   6.858 -0.4312 -0.3860 -0.0632
36062SOL    HW211592   7.041   9.117   6.717  0.3409  0.5888 -0.0181
36063SOL     OW11593   1.960   1.937   0.140  0.4079  0.5300  0.5353
36063SOL    HW111594   1.876   1.963   0.103  0.6901  0.0010 -0.5146
36063SOL    HW211595   1.944   1.926   0.233 -0.8710 -0.3121  0.2278
36064SOL     OW11596   5.634   1.640   4.077 -0.1193  0.4282 -0.3550
36064SOL    HW111597   5.548   1.659   4.042 -0.6403  0.1730  0.7550
36064SOL    HW211598   5.687   1.617   4.001 -1.7502 -2.1496 -0.7762
36065SOL     OW11599   0.924   7.740   4.973 -0.0243  0.5178  0.7989
36065SOL    HW111600   0.991   7.808   4.978 -0.3638  0.8578  0.6872
36065SOL    HW211601   0.905   7.731   4.880  0.2225  0.0735  0.7893
36066SOL     OW11602  10.133   1.085   4.312 -0.5068  0.5295 -0.1899
36066SOL    HW111603  10.126   1.117   4.222 -2.1517  0.9755  0.0825
36066SOL    HW211604  10.044   1.091   4.347  0.0203 -0.1092  1.3121
36067SOL     OW11605   7.793   0.712   0.414 -0.7240 -0.3416 -0.0533
36067SOL    HW111606   7.723   0.653   0.386 -0.6443  0.2862 -1.5892
36067SOL    HW211607   7.776   0.725   0.508 -0.4079 -3.2385  0.4612
36068SOL     OW11608   0.802   2.328   4.479 -0.2351  0.5543  0.3336
36068SOL    HW111609   0.759   2.310   4.563  1.1285 -0.5528  0.8075
36068SOL    HW211610   0.894   2.342   4.502  0.0898  0.5619 -0.9543
36069SOL     OW11611   0.737   6.325   6.685  0.0747 -0.5378  0.1342
36069SOL    HW111612   0.817   6.326   6.737 -1.0178  1.0979  1.8373
36069SOL    HW211613   0.675   6.274   6.736 -1.0757  1.2840  0.6148
36070SOL     OW11614  10.201   9.590   5.832 -0.1524  0.0055  0.2719
36070SOL    HW111615  10.176   9.625   5.918  0.4438  2.1549 -0.3936
36070SOL    HW211616  10.119   9.588   5.783 -0.3038 -0.1175  0.5274
36071SOL     OW11617   3.662   0.590   2.006 -0.4856 -0.0242  0.0509
36071SOL    HW111618   3.712   0.634   2.074  0.1607  0.6438 -0.8527
36071SOL    HW211619   3.728   0.540   1.957 -1.2767 -2.4626  1.4124
36072SOL     OW11620   3.426   4.290   3.988  0.3526  0.4571 -0.3299
36072SOL    HW111621   3.458   4.262   4.074  0.7959 -1.8671 -1.2208
36072SOL    HW211622   3.405   4.383   4.000 -0.2524  0.0223  2.4636
36073SOL     OW11623   7.551   0.694   9.634  0.8999 -0.1143 -0.3821
36073SOL    HW111624   7.533   0.749   9.710  1.7939  0.8145 -0.8319
36073SOL    HW211625   7.465   0.659   9.609  0.6703 -0.8472  1.3505
36074SOL     OW11626   8.348   0.345   6.530  0.1297 -0.7360 -0.0444
36074SOL    HW111627   8.349   0.261   6.484 -0.4438 -1.2842  0.9276
36074SOL    HW211628   8.415   0.337   6.597  0.2979 -0.2910 -0.1553
36075SOL     OW11629   6.133   5.277   9.978  0.1014 -0.0665  0.4197
36075SOL    HW111630   6.227   5.266   9.988 -0.0216 -1.1878  0.4688
36075SOL    HW211631   6.095   5.211  10.037 -0.6945 -0.6495 -0.7205
36076SOL     OW11632   6.671   0.414   6.056  0.2556 -0.2593 -0.1155
36076SOL    HW111633   6.696   0.351   6.124  2.5397  1.4648  0.7317
36076SOL    HW211634   6.728   0.392   5.982 -0.0810 -0.2237 -0.3816
36077SOL     OW11635   5.271   9.025   2.939 -0.0590 -0.3363  0.1553
36077SOL    HW111636   5.355   9.061   2.969 -0.8585  1.0331  0.7999
36077SOL    HW211637   5.257   8.949   2.996  0.2539  0.0355  0.7428
36078SOL     OW11638   4.125   5.991   3.054  0.9881  0.1489 -0.4189
36078SOL    HW111639   4.181   5.931   3.005  0.1410 -1.5462  0.6331
36078SOL    HW211640   4.164   5.994   3.142 -0.2535 -0.6520  0.1787
36079SOL     OW11641   8.904   0.137   2.289 -0.8148 -0.4369 -0.3568
36079SOL    HW111642   8.893   0.084   2.368  1.3084  0.7128  0.7662
36079SOL    HW211643   8.974   0.094   2.241  0.1890  0.7030  0.0449
36080SOL     OW11644   2.242   4.890   9.484  0.0130  0.1858  0.3765
36080SOL    HW111645   2.220   4.797   9.488  1.3213 -0.1292  0.5180
36080SOL    HW211646   2.278   4.902   9.396 -1.2241  0.8097 -0.0513
36081SOL     OW11647  10.117   1.837   3.857  0.7481  0.0356 -0.5087
36081SOL    HW111648  10.168   1.761   3.885  1.2826  0.5490 -0.0707
36081SOL    HW211649  10.052   1.801   3.797  0.5651 -0.8570  0.2146
36082SOL     OW11650   1.853   7.196   1.513  0.8107  0.6558  0.0767
36082SOL    HW111651   1.870   7.107   1.482  0.2169  0.5500  0.0647
36082SOL    HW211652   1.805   7.185   1.594  0.7547  0.9670  0.0868
36083SOL     OW11653   7.685   8.987   8.590 -0.0617 -0.3776  0.8907
36083SOL    HW111654   7.710   8.979   8.498 -0.2069  1.1408  0.7065
36083SOL    HW211655   7.589   8.986   8.588 -0.0734  0.8473  0.9109
36084SOL     OW11656   6.310   0.330   2.163  0.1204 -0.1742 -0.2746
36084SOL    HW111657   6.377   0.275   2.124  0.2190 -0.5380  0.4102
36084SOL    HW211658   6.231   0.311   2.113  0.4737  0.1013 -0.9458
36085SOL     OW11659   9.871   5.292   9.800  0.0873 -0.4837 -0.4226
36085SOL    HW111660   9.854   5.233   9.873  1.9256 -0.3012  0.1951
36085SOL    HW211661   9.920   5.365   9.840  0.3780  0.0213 -1.6769
36086SOL     OW11662   5.567   1.627   1.883 -0.0988 -0.1029  0.4704
36086SOL    HW111663   5.608   1.542   1.870  0.6662  0.4788 -0.9438
36086SOL    HW211664   5.628   1.675   1.939  0.4996  0.2726 -0.4988
36087SOL     OW11665   7.946   9.476  10.172  0.1604 -0.0805 -0.4495
36087SOL    HW111666   8.022   9.533  10.163  0.6114 -0.4997  0.5980
36087SOL    HW211667   7.871   9.532  10.152  0.8077  0.0549 -2.5669
36088SOL     OW11668   1.936   8.950   2.951  0.6980  0.7688 -0.0825
36088SOL    HW111669   1.846   8.966   2.982  0.7982  2.9000 -0.7856
36088SOL    HW211670   1.974   8.895   3.019 -1.5608 -1.3577 -0.4745
36089SOL     OW11671   4.689   6.284   2.574 -0.5178 -0.1899  0.3129
36089SOL    HW111672   4.622   6.327   2.628 -1.4603 -1.4189  0.1419
36089SOL    HW211673   4.659   6.295   2.484 -0.2209 -0.2869  0.2000
36090SOL     OW11674   5.973   9.207  10.553  0.1889 -0.3363 -0.0033
36090SOL    HW111675   6.042   9.235  10.614 -1.2859 -0.1589  1.6014
36090SOL    HW211676   5.966   9.279  10.490  1.3474 -0.2843 -0.0909
36091SOL     OW11677   5.173   1.124   4.017  0.2556 -0.2335 -0.3703
36091SOL    HW111678   5.247   1.183   4.004 -0.3413  0.2863 -1.4891
36091SOL    HW211679   5.211   1.036   4.016  1.2659  0.1281  2.1207
36092SOL     OW11680   7.379  10.641   1.656  0.3867  0.0216  0.0313
36092SOL    HW111681   7.416  10.712   1.605 -0.2464  0.0639 -0.3769
36092SOL    HW211682   7.411  10.656   1.745  1.3902  0.0173 -0.3190
36093SOL     OW11683   6.021  10.120   0.388 -0.3558  0.5211  0.2940
36093SOL    HW111684   6.059  10.133   0.301 -0.6861  0.2335  0.1050
36093SOL    HW211685   5.927  10.112   0.372 -0.4243  0.5439  0.6845
36094SOL     OW11686   8.197   0.888   1.750 -1.1887 -0.4944  0.3557
36094SOL    HW111687   8.112   0.872   1.792 -1.8077 -1.2887 -1.1606
36094SOL    HW211688   8.188   0.974   1.709 -1.6824 -1.0895 -0.8019
36095SOL     OW11689   0.708   0.662   2.312  0.4506 -0.1342  0.0302
36095SOL    HW111690   0.680   0.587   2.260  2.3331 -1.2834  0.6305
36095SOL    HW211691   0.648   0.663   2.387 -0.0315 -0.5933 -0.3447
36096SOL     OW11692   1.204   4.971   1.110  0.3336  0.3913  0.0539
36096SOL    HW111693   1.141   4.968   1.038 -0.4336  0.3898  0.7096
36096SOL    HW211694   1.232   5.063   1.113  0.6209  0.3225 -0.4567
36097SOL     OW11695   7.545   3.793   4.282 -0.2354 -0.1290  0.4776
36097SOL    HW111696   7.625   3.746   4.304 -1.1386 -0.6839  2.7728
36097SOL    HW211697   7.562   3.883   4.310 -0.5756 -0.3591  1.4608
36098SOL     OW11698   8.318   1.132   0.802  0.3089 -0.1182  1.1109
36098SOL    HW111699   8.264   1.194   0.850  0.4249 -0.3835  1.5837
36098SOL    HW211700   8.310   1.159   0.710 -0.2688  0.1136  1.2288
36099SOL     OW11701   0.809   9.286   7.499  0.2646 -0.1633 -0.1602
36099SOL    HW111702   0.875   9.289   7.568 -1.4642  1.1198  1.4991
36099SOL    HW211703   0.802   9.376   7.468  0.3567 -0.5642 -1.3623
36100SOL     OW11704   1.420   9.576   7.016 -0.6367 -1.1082 -0.0543
36100SOL    HW111705   1.407   9.482   7.011 -1.8726 -0.9726  0.5280
36100SOL    HW211706   1.353   9.607   7.077  0.3032  0.0378  0.4198
36101SOL     OW11707   0.399   0.619   5.745 -0.2571  0.3522  0.1054
36101SOL    HW111708   0.455   0.697   5.745  2.6649 -1.6478 -1.0130
36101SOL    HW211709   0.433   0.565   5.674 -3.8680 -0.8612 -0.8346
36102SOL     OW11710   6.876   0.930   6.920 -0.2045 -0.0612 -0.0125
36102SOL    HW111711   6.817   0.987   6.969  0.2151  0.2396  0.1405
36102SOL    HW211712   6.847   0.937   6.829  0.1902  0.8151 -0.0714
36103SOL     OW11713   3.800   3.309   5.491  0.5819  0.0191  0.1047
36103SOL    HW111714   3.849   3.227   5.497  1.0514  0.4078  1.8200
36103SOL    HW211715   3.866   3.376   5.476  0.4199  0.3435  0.8194
36104SOL     OW11716   8.818   0.486   0.702  0.0349  0.0041  0.0991
36104SOL    HW111717   8.903   0.456   0.670  0.0898 -0.1226  0.3578
36104SOL    HW211718   8.756   0.419   0.673  0.0616 -0.0342  0.1305
36105SOL     OW11719   2.164   2.655   9.186 -0.1184 -0.5585 -0.5427
36105SOL    HW111720   2.210   2.573   9.204 -0.0973 -0.4312  0.0038
36105SOL    HW211721   2.213   2.695   9.114 -0.7882 -1.5496 -1.5644
36106SOL     OW11722   1.128   3.253   4.777 -0.0323 -0.5992 -0.1240
36106SOL    HW111723   1.206   3.198   4.788 -0.2479 -1.1148 -1.0727
36106SOL    HW211724   1.133   3.283   4.686 -0.3976  0.2197  0.1161
36107SOL     OW11725   1.885   0.197   3.551 -0.0748 -0.2528  0.0950
36107SOL    HW111726   1.873   0.241   3.635 -0.1477 -0.8135  0.3778
36107SOL    HW211727   1.863   0.106   3.568 -0.3622 -0.3185 -0.5979
36108SOL     OW11728   6.841   3.219   5.613 -0.1419 -0.4085 -0.4003
36108SOL    HW111729   6.833   3.288   5.679  0.8976  0.3550 -1.0560
36108SOL    HW211730   6.752   3.208   5.579 -0.8886 -1.5233  1.8133
36109SOL     OW11731   6.124   6.105   3.399 -0.4017 -0.5622 -0.2936
36109SOL    HW111732   6.128   6.125   3.306  0.8899 -0.5092 -0.2416
36109SOL    HW211733   6.091   6.015   3.404 -1.0054 -0.3655 -0.7693
36110SOL     OW11734   4.479   7.775   1.765  0.6971 -0.1926  0.3060
36110SOL    HW111735   4.391   7.810   1.757  0.9450  0.2995 -0.2366
36110SOL    HW211736   4.533   7.850   1.790  1.5255  0.2044 -2.5252
36111SOL     OW11737   3.670   3.561   0.057 -0.0911  0.6105  0.2309
36111SOL    HW111738   3.592   3.562   0.002 -0.3863  0.9251  0.6519
36111SOL    HW211739   3.706   3.650   0.048  0.1490  0.5041  0.1371
36112SOL     OW11740   8.485   5.922   8.960 -0.4339 -0.4311  0.1691
36112SOL    HW111741   8.524   5.991   8.907  0.8768 -0.7321  0.7388
36112SOL    HW211742   8.443   5.865   8.896 -0.6680  0.3462 -0.3810
36113SOL     OW11743   1.093   6.852   0.268  0.3242 -0.4995 -0.0271
36113SOL    HW111744   1.019   6.802   0.233  1.0997 -2.8331  1.5465
36113SOL    HW211745   1.091   6.935   0.220 -3.0351 -0.6783 -0.3190
36114SOL     OW11746  10.434   6.436   6.051  0.0663  0.1863  0.7771
36114SOL    HW111747  10.454   6.390   6.132  2.5095  0.8903  0.6105
36114SOL    HW211748  10.519   6.466   6.018 -1.0487  1.3295 -1.1920
36115SOL     OW11749   8.919   6.622   8.924 -0.4557  0.1122 -0.4025
36115SOL    HW111750   8.866   6.688   8.967 -1.6167 -1.2217  0.2507
36115SOL    HW211751   8.863   6.586   8.855  0.4284  0.3300 -1.2450
36116SOL     OW11752   3.880   8.707   3.225 -0.0867 -0.5803 -0.4538
36116SOL    HW111753   3.878   8.614   3.203 -1.6658 -0.3989 -1.2056
36116SOL    HW211754   3.911   8.750   3.145  2.3155 -0.5736  0.4408
36117SOL     OW11755   8.877   6.076   5.112  0.4012  0.2865  0.5506
36117SOL    HW111756   8.884   6.162   5.069 -1.8078  0.2913  0.1365
36117SOL    HW211757   8.932   6.019   5.059  0.7787  1.1492 -0.0039
36118SOL     OW11758   4.368   6.179   1.960 -0.6467 -0.0226  0.1984
36118SOL    HW111759   4.285   6.224   1.977  0.0138  1.4131 -0.2922
36118SOL    HW211760   4.389   6.203   1.869  0.8033  0.4329  0.6548
36119SOL     OW11761   7.243   4.978   5.365 -0.6352  0.2788  0.1425
36119SOL    HW111762   7.322   4.951   5.319 -1.2297  1.2158 -1.4922
36119SOL    HW211763   7.240   4.923   5.443  1.3373 -0.1279 -0.0451
36120SOL     OW11764   4.429   8.540   0.371  0.3087 -0.3861 -0.0388
36120SOL    HW111765   4.340   8.533   0.405  0.5720 -0.2547  0.6959
36120SOL    HW211766   4.478   8.585   0.440  1.1168 -1.1323 -0.1013
36121SOL     OW11767   7.021   9.514   2.603  0.3516 -0.0202  0.5019
36121SOL    HW111768   7.043   9.448   2.537 -0.0980 -0.1899  0.5195
36121SOL    HW211769   7.091   9.579   2.596 -0.7349  0.9628 -1.4879
36122SOL     OW11770   7.592   7.928   5.617  0.7382 -0.7196  0.0993
36122SOL    HW111771   7.507   7.888   5.596  0.2318  0.2799  0.2362
36122SOL    HW211772   7.614   7.894   5.703  0.4176 -0.8814  0.1169
36123SOL     OW11773  10.832   6.713   0.281 -0.3374  0.3985  0.0768
36123SOL    HW111774  10.763   6.667   0.233  1.0594 -2.5233  0.8205
36123SOL    HW211775  10.846   6.793   0.231 -2.6777 -0.0321 -1.3440
36124SOL     OW11776   0.443   2.354  10.214 -0.1166  0.0402 -0.1274
36124SOL    HW111777   0.520   2.307  10.181 -0.5180  0.3465 -1.4934
36124SOL    HW211778   0.384   2.285  10.244  0.5351 -0.2070  0.6218
36125SOL     OW11779  10.483   4.891   0.527 -0.1745 -0.0483 -0.0282
36125SOL    HW111780  10.539   4.817   0.505 -0.2519 -0.6037  1.5692
36125SOL    HW211781  10.478   4.943   0.446  1.1177 -0.9689 -0.7130
36126SOL     OW11782   7.722   3.043   1.811 -0.0120 -0.0136 -0.2472
36126SOL    HW111783   7.758   3.131   1.800  0.9204 -0.3608 -0.0539
36126SOL    HW211784   7.798   2.990   1.835 -0.4168 -1.0380 -1.2011
36127SOL     OW11785   2.806   1.596   4.208 -0.2529  0.2570  0.0323
36127SOL    HW111786   2.741   1.531   4.179 -2.1494  1.2966  1.7871
36127SOL    HW211787   2.875   1.544   4.249 -0.2284 -0.8407 -1.3698
36128SOL     OW11788   0.741   9.696   7.191 -0.2963  0.0775  1.0629
36128SOL    HW111789   0.828   9.706   7.152 -0.3851 -0.3896  0.7427
36128SOL    HW211790   0.695   9.776   7.168 -0.9024 -0.9005 -1.2209
36129SOL     OW11791   3.271   6.583   5.164 -0.1635  0.4062 -0.3764
36129SOL    HW111792   3.338   6.651   5.162 -0.4226  0.6565 -0.7959
36129SOL    HW211793   3.188   6.631   5.169 -0.2287  0.0539  2.9040
36130SOL     OW11794   1.888   0.895   2.949  0.7754  0.5701 -0.3359
36130SOL    HW111795   1.972   0.940   2.959  0.3524  1.2264  0.2787
36130SOL    HW211796   1.837   0.951   2.890  0.7287  0.2209 -0.6306
36131SOL     OW11797   0.103   1.535   6.794 -0.6183  0.2896 -0.3434
36131SOL    HW111798   0.132   1.577   6.713 -3.0453 -0.4100 -1.6422
36131SOL    HW211799   0.008   1.530   6.785 -0.8413 -0.5332  2.2107
36132SOL     OW11800   1.113   4.625   5.249  0.1341  0.2447  0.3339
36132SOL    HW111801   1.207   4.638   5.260  0.3726  1.2590 -2.5407
36132SOL    HW211802   1.073   4.673   5.321  1.7238  2.1612 -0.0423
36133SOL     OW11803   3.847   1.087   7.753 -0.0601 -0.6826 -0.2088
36133SOL    HW111804   3.914   1.118   7.815  0.3581  1.3088 -1.6000
36133SOL    HW211805   3.892   1.086   7.668 -1.7721  0.6099 -1.1456
36134SOL     OW11806   0.401   3.119   5.880 -0.1321 -0.4762  0.1001
36134SOL    HW111807   0.306   3.115   5.896 -0.1611 -1.9943 -0.4038
36134SOL    HW211808   0.435   3.170   5.954 -1.4931  1.1991 -0.3871
36135SOL     OW11809   5.737   6.839   6.467  0.3094 -0.0535  0.2607
36135SOL    HW111810   5.705   6.912   6.415  1.1066  0.6729  0.7809
36135SOL    HW211811   5.674   6.768   6.451 -3.6397  2.3684  4.0419
36136SOL     OW11812  10.709   0.443   1.449  0.2293  0.0544 -0.5655
36136SOL    HW111813  10.759   0.365   1.427 -0.1005 -0.7313  1.3742
36136SOL    HW211814  10.626   0.433   1.401 -0.0201 -1.0611  0.0810
36137SOL     OW11815   8.615   9.178   5.784  0.1485  0.4506 -0.0221
36137SOL    HW111816   8.643   9.269   5.781  0.2944  0.4184  0.4023
36137SOL    HW211817   8.551   9.175   5.855  0.7497  0.0512  0.5035
36138SOL     OW11818   4.223  10.326   5.926 -0.2050  0.0435 -0.0151
36138SOL    HW111819   4.301  10.278   5.898  0.0761  0.1763  0.5170
36138SOL    HW211820   4.251  10.417   5.928 -0.5069  0.1399 -0.2683
36139SOL     OW11821   6.363   8.643   4.853 -0.2682  0.2372 -0.3164
36139SOL    HW111822   6.291   8.700   4.880  1.0578  1.9496 -0.3448
36139SOL    HW211823   6.345   8.623   4.761 -2.1323 -1.5745  0.3815
36140SOL     OW11824   6.351   6.152   9.178 -0.3450 -0.6468 -0.2160
36140SOL    HW111825   6.272   6.191   9.141 -0.4925 -0.4402  0.3127
36140SOL    HW211826   6.420   6.171   9.114 -1.1127 -2.5690 -1.6497
36141SOL     OW11827   4.255  10.469   5.607 -0.0202  0.5229  0.3546
36141SOL    HW111828   4.258  10.558   5.641 -0.8188 -0.8761  4.3388
36141SOL    HW211829   4.344  10.453   5.575  0.1872  2.6295 -0.1915
36142SOL     OW11830   6.420   3.213   1.794 -0.1802  0.1455 -0.0936
36142SOL    HW111831   6.470   3.180   1.869  0.6266 -0.1964 -0.7784
36142SOL    HW211832   6.350   3.265   1.833 -0.1027 -0.5019  0.9197
36143SOL     OW11833   4.097   9.776   0.647  0.2869 -0.2359  0.1559
36143SOL    HW111834   4.116   9.869   0.631  0.9317 -0.3531  0.2349
36143SOL    HW211835   4.048   9.748   0.570 -4.9110  1.5943  2.5717
36144SOL     OW11836   8.302   9.055  10.598  0.2304  0.0938 -0.1619
36144SOL    HW111837   8.286   8.998  10.673  1.4228  0.4921  0.4024
36144SOL    HW211838   8.214   9.078  10.566 -0.2969  0.3009  1.4020
36145SOL     OW11839   2.257   8.449   6.581  0.5366 -0.3680 -0.2973
36145SOL    HW111840   2.346   8.437   6.547  0.7843 -1.9787  0.8457
36145SOL    HW211841   2.202   8.456   6.503  1.4933 -0.7464 -1.0180
36146SOL     OW11842   0.362   8.142   7.928 -0.6581 -0.1146  0.0455
36146SOL    HW111843   0.299   8.214   7.933  0.2528  0.6755  0.1490
36146SOL    HW211844   0.372   8.113   8.019 -1.1974 -0.5248 -0.0239
36147SOL     OW11845   7.051  10.672   6.160  0.3586  0.4961  0.0141
36147SOL    HW111846   7.140  10.682   6.124 -0.1336  0.6442 -1.1808
36147SOL    HW211847   7.026  10.583   6.137  0.9519 -0.2401  2.1035
36148SOL     OW11848   3.867  10.508  10.068 -0.3170 -0.6427  0.2018
36148SOL    HW111849   3.949  10.473  10.034 -0.0879  1.5936 -1.6627
36148SOL    HW211850   3.875  10.501  10.164  2.5003  0.5035  0.0904
36149SOL     OW11851   0.282   0.518   5.977 -0.0278 -0.1105 -0.1942
36149SOL    HW111852   0.322   0.550   5.896 -1.1902  0.5447 -0.5190
36149SOL    HW211853   0.199   0.480   5.950  0.5667 -1.9186  0.4182
36150SOL     OW11854   4.315   5.091   5.998  0.2824  0.2096 -0.2123
36150SOL    HW111855   4.389   5.082   5.937 -0.5124  0.1516 -1.1714
36150SOL    HW211856   4.334   5.172   6.046  0.1457  1.0957 -1.6151
36151SOL     OW11857   2.162   2.101   0.755  0.7623 -0.0423 -0.0027
36151SOL    HW111858   2.144   2.150   0.835 -1.4779  0.0515 -0.5170
36151SOL    HW211859   2.250   2.128   0.730  0.4490  2.0164  0.9539
36152SOL     OW11860   5.167   1.623   0.094 -0.3655 -0.0054  0.4929
36152SOL    HW111861   5.239   1.629   0.157  0.4128  0.6109 -0.4363
36152SOL    HW211862   5.147   1.715   0.073 -0.5498 -0.2119 -0.2263
36153SOL     OW11863   6.633   8.376   7.155  0.1533 -0.4065 -0.0243
36153SOL    HW111864   6.640   8.298   7.209 -0.0677 -0.7179 -0.4412
36153SOL    HW211865   6.552   8.419   7.184  0.0934 -0.5152 -0.0311
36154SOL     OW11866   5.028   8.430   3.431  0.3151  0.0658 -0.4073
36154SOL    HW111867   5.100   8.454   3.490  1.2064 -1.0980 -1.0055
36154SOL    HW211868   5.013   8.337   3.449 -2.2148  0.6923  0.9479
36155SOL     OW11869   9.628   0.029   5.510 -0.7849  0.1615  0.0549
36155SOL    HW111870   9.569  -0.018   5.452 -2.0357  1.7710 -0.0179
36155SOL    HW211871   9.604  -0.000   5.598 -0.5485 -0.4436 -0.0807
36156SOL     OW11872   0.206   0.806   2.064 -0.0656 -0.0660  0.0618
36156SOL    HW111873   0.245   0.749   1.997  0.7319 -0.0137  0.4670
36156SOL    HW211874   0.277   0.821   2.126 -0.2259  1.4650 -0.0956
36157SOL     OW11875   4.994   2.972   9.433  0.2048 -0.2705  0.0445
36157SOL    HW111876   4.999   3.007   9.522 -1.5131  1.5010 -0.5389
36157SOL    HW211877   4.912   2.923   9.430 -0.1398  0.3343 -0.7830
36158SOL     OW11878   9.296   1.370  10.155  0.0270 -0.2882  0.5344
36158SOL    HW111879   9.306   1.428  10.230  0.7240 -0.6714  0.7397
36158SOL    HW211880   9.236   1.417  10.096 -0.7598 -0.1181  1.4544
36159SOL     OW11881  10.493   6.321   0.316 -0.2607 -0.5099 -0.0710
36159SOL    HW111882  10.494   6.259   0.388 -1.4027  0.2921  0.6515
36159SOL    HW211883  10.404   6.313   0.280  0.8844 -2.3395 -2.6610
36160SOL     OW11884   7.649   6.724   5.131  0.5503  0.2283  0.2381
36160SOL    HW111885   7.695   6.721   5.047  1.7909  0.2933  0.8974
36160SOL    HW211886   7.612   6.637   5.142 -0.0013  0.3573 -0.5854
36161SOL     OW11887   2.396   9.446   4.871 -0.1331 -0.7448 -0.5311
36161SOL    HW111888   2.393   9.356   4.902 -0.1055 -0.5412  0.0648
36161SOL    HW211889   2.484   9.476   4.890 -0.9245  0.2545  1.6902
36162SOL     OW11890  10.050   8.720   4.178 -0.2836  0.4883  0.0285
36162SOL    HW111891  10.107   8.793   4.203 -0.3775  0.2242  1.0457
36162SOL    HW211892   9.982   8.719   4.245 -0.0623 -0.7879  0.2416
36163SOL     OW11893   1.869   8.076   6.647 -1.0063 -0.5999 -0.6225
36163SOL    HW111894   1.944   8.031   6.608 -0.9716 -1.8461  0.8199
36163SOL    HW211895   1.905   8.158   6.681 -0.4309 -0.8530 -0.6085
36164SOL     OW11896   7.195  10.954   0.313 -0.1415 -0.2229 -0.7065
36164SOL    HW111897   7.153  11.040   0.313  1.5233  0.6165 -0.6752
36164SOL    HW211898   7.123  10.892   0.306 -1.4089  1.1510 -0.0768
36165SOL     OW11899   7.886   0.381   6.486 -0.0712  0.1646 -0.4237
36165SOL    HW111900   7.815   0.317   6.490 -0.8179  1.0411  1.3305
36165SOL    HW211901   7.847   0.461   6.523  0.7103  1.7507 -2.9561
36166SOL     OW11902   2.935   1.357   4.929 -0.3337 -0.3392 -0.1410
36166SOL    HW111903   3.026   1.366   4.957 -0.2895 -2.1201  0.3292
36166SOL    HW211904   2.907   1.447   4.911  1.0195  0.3865  1.2511
36167SOL     OW11905   8.758   2.427   2.231  0.3852 -0.2805  0.0724
36167SOL    HW111906   8.720   2.352   2.278 -3.2150  0.1966 -1.9396
36167SOL    HW211907   8.774   2.492   2.299 -0.9898 -1.0874  1.2014
36168SOL     OW11908   5.389   9.959   5.972  0.0837  0.5949  0.5013
36168SOL    HW111909   5.440  10.039   5.955  0.8786  0.2769  1.3348
36168SOL    HW211910   5.379   9.957   6.067  1.1335 -0.9393  0.5967
36169SOL     OW11911   2.061   6.368   7.785 -0.4379 -0.5601  0.1898
36169SOL    HW111912   2.045   6.291   7.839  0.9869 -0.2401  1.0970
36169SOL    HW211913   1.999   6.360   7.712 -2.2162 -1.1321  1.7200
36170SOL     OW11914   0.356   0.446   6.846  0.4472 -0.4819 -0.3475
36170SOL    HW111915   0.357   0.536   6.878 -0.4445 -0.2265 -0.9942
36170SOL    HW211916   0.446   0.415   6.855  0.1580 -0.5555  2.7263
36171SOL     OW11917   5.189   5.996   0.373 -0.1630 -0.2248 -0.4519
36171SOL    HW111918   5.179   5.982   0.467  1.1693 -0.0403 -0.2828
36171SOL    HW211919   5.198   5.909   0.336 -2.4048 -0.4175 -0.6270
36172SOL     OW11920   6.342   9.022   8.525  0.2296 -0.2517  0.1103
36172SOL    HW111921   6.307   9.060   8.444  1.3821 -0.4169 -0.4697
36172SOL    HW211922   6.287   8.945   8.539 -0.8042  0.4751  0.1902
36173SOL     OW11923  10.772   2.614   8.050 -0.2318  0.1274 -0.5206
36173SOL    HW111924  10.679   2.595   8.063 -0.0237 -0.3194  0.3961
36173SOL    HW211925  10.816   2.532   8.071  0.5056  0.8737  0.9135
36174SOL     OW11926   4.528   7.841   4.656 -0.0312 -0.6385  0.1126
36174SOL    HW111927   4.535   7.929   4.693 -1.2275 -0.4542 -0.0889
36174SOL    HW211928   4.478   7.791   4.721 -1.0270 -0.6511 -0.6407
36175SOL     OW11929   4.745   7.638   5.763  0.3562  0.2865 -0.0249
36175SOL    HW111930   4.826   7.614   5.719  0.2617 -0.0812  0.0039
36175SOL    HW211931   4.772   7.703   5.829  0.5042  0.7893 -0.5740
36176SOL     OW11932   6.483   2.649   1.584  0.0695 -0.1389  0.8222
36176SOL    HW111933   6.545   2.581   1.558  1.3243  0.1988  2.8154
36176SOL    HW211934   6.414   2.602   1.630  0.1570 -0.2295  0.8614
36177SOL     OW11935   6.914   9.238   5.473 -0.0477  0.4265  0.1135
36177SOL    HW111936   6.929   9.181   5.549  0.8833 -1.5512 -1.5141
36177SOL    HW211937   6.964   9.197   5.402 -4.5070 -0.3445 -2.7432
36178SOL     OW11938   1.614   4.977  10.158  0.4569 -0.1204  0.2751
36178SOL    HW111939   1.599   4.916  10.086 -0.0004 -0.9921  1.0873
36178SOL    HW211940   1.526   5.005  10.184  0.7098  2.0188 -1.0127
36179SOL     OW11941   8.282   7.406   2.378  0.7008 -0.1670 -0.1844
36179SOL    HW111942   8.368   7.411   2.337  0.3040  0.0050 -1.0059
36179SOL    HW211943   8.231   7.350   2.319  0.5524 -1.1046  0.8315
36180SOL     OW11944   0.922   9.925   4.340  0.1622 -0.6445  0.3718
36180SOL    HW111945   1.009   9.962   4.322  0.6128 -1.3822  1.0097
36180SOL    HW211946   0.897   9.882   4.258  0.5932 -0.8150  0.3285
36181SOL     OW11947   0.341   5.689   8.529  0.6242  0.6124  0.0495
36181SOL    HW111948   0.274   5.659   8.591  0.7401 -0.6693 -0.4307
36181SOL    HW211949   0.344   5.621   8.462  1.9927  0.9476 -0.2420
36182SOL     OW11950   4.228   3.689   2.819  0.2755  0.4027  0.4159
36182SOL    HW111951   4.229   3.668   2.913  1.2749 -1.8341 -0.0501
36182SOL    HW211952   4.144   3.655   2.788 -0.7492  2.5427  0.7655
36183SOL     OW11953   1.599   8.966   6.348 -0.1307 -0.0037  0.2101
36183SOL    HW111954   1.692   8.944   6.344  0.0633  0.9128 -0.4315
36183SOL    HW211955   1.595   9.059   6.325 -0.9573  0.6095  2.6656
36184SOL     OW11956  10.044   1.379   3.738 -0.5227  0.1135 -0.2581
36184SOL    HW111957   9.953   1.385   3.769 -0.3747 -0.7056  0.3223
36184SOL    HW211958  10.038   1.335   3.653 -0.6032 -0.5586  0.0935
36185SOL     OW11959   0.840   2.137  10.018  0.0543 -0.3960 -0.2298
36185SOL    HW111960   0.895   2.059  10.018  1.2456  0.4176 -1.1349
36185SOL    HW211961   0.876   2.191   9.947 -2.8091 -0.4643 -1.8088
36186SOL     OW11962   7.032   0.135  10.028 -0.3687  0.7246  0.3913
36186SOL    HW111963   6.982   0.138   9.947 -0.5380  1.5187  0.5226
36186SOL    HW211964   7.044   0.042  10.046  0.2719  0.5510 -0.9165
36187SOL     OW11965  10.753  10.342   4.145  0.0895 -0.1632  0.6962
36187SOL    HW111966  10.809  10.381   4.212 -0.5176 -1.7130  2.1483
36187SOL    HW211967  10.668  10.331   4.187 -0.5543 -0.3631 -0.6109
36188SOL     OW11968   7.280   7.068   1.101  0.2269  0.3575  0.1799
36188SOL    HW111969   7.372   7.054   1.125  0.5123 -1.0416 -1.6791
36188SOL    HW211970   7.268   7.163   1.110  2.6919  0.9877 -2.3843
36189SOL     OW11971   0.616   5.711   6.953  0.1438 -0.1367 -0.0127
36189SOL    HW111972   0.624   5.760   6.871 -0.5024  0.4397  0.2663
36189SOL    HW211973   0.529   5.732   6.985  0.7894  0.4833  1.3669
36190SOL     OW11974   3.107   0.022   0.189  0.2285  0.2934  0.1315
36190SOL    HW111975   3.119   0.106   0.232 -0.0031  0.8788 -0.9299
36190SOL    HW211976   3.026  -0.013   0.226  2.0605 -1.0506  3.0886
36191SOL     OW11977   8.847   1.677   2.076 -0.1483  0.0528 -0.0776
36191SOL    HW111978   8.923   1.685   2.133  0.5637 -1.4625 -0.7978
36191SOL    HW211979   8.786   1.621   2.125 -0.0867 -0.1578 -0.2420
36192SOL     OW11980   5.310   0.733   6.291  0.1561  0.2129 -0.1657
36192SOL    HW111981   5.305   0.672   6.217  0.7024  0.8817 -0.7595
36192SOL    HW211982   5.235   0.791   6.279  0.9859  1.1478 -0.9459
36193SOL     OW11983   5.644   1.018   0.981  0.0306  0.2655 -0.2731
36193SOL    HW111984   5.710   0.979   0.924 -0.1710  1.4404 -1.3153
36193SOL    HW211985   5.562   1.011   0.932  0.0844  2.4883 -0.7259
36194SOL     OW11986  10.006   9.463   9.466 -0.6582  0.0150 -0.1395
36194SOL    HW111987  10.054   9.492   9.388 -0.9493  0.3290 -0.2035
36194SOL    HW211988   9.916   9.488   9.450 -0.9145 -0.9070 -0.1726
36195SOL     OW11989   5.047   9.942   8.857 -0.6148  0.4180 -0.7749
36195SOL    HW111990   5.126   9.928   8.805  0.0838  0.8108  0.1801
36195SOL    HW211991   5.061  10.025   8.901 -1.5764  0.5048 -0.6078
36196SOL     OW11992   0.254   3.487   2.145 -0.2487 -0.0485 -0.2298
36196SOL    HW111993   0.316   3.439   2.201  0.9640 -0.1757 -1.6604
36196SOL    HW211994   0.257   3.577   2.177  4.2376  1.0293 -3.1779
36197SOL     OW11995   4.685   6.473   5.768 -0.2407 -0.0794 -0.4006
36197SOL    HW111996   4.714   6.482   5.859  0.4761 -1.5115 -0.4721
36197SOL    HW211997   4.747   6.525   5.717 -0.1526  0.0660 -0.1459
36198SOL     OW11998  10.155   2.443   1.100 -0.5814  0.2115 -1.0655
36198SOL    HW111999  10.234   2.483   1.136 -0.8076 -1.3517  1.2965
36198SOL    HW212000  10.184   2.398   1.021  0.1474  2.7720 -2.3351
36199SOL     OW12001   0.746   3.555   7.328 -0.4380  0.2233  0.5906
36199SOL    HW112002   0.694   3.624   7.369 -2.1318  0.1484 -1.3297
36199SOL    HW212003   0.692   3.476   7.336  0.1584 -0.2354  0.1204
36200SOL     OW12004   6.372   9.253   5.193  0.1374 -0.1946  0.2108
36200SOL    HW112005   6.403   9.208   5.114  3.0984  2.4167 -0.2508
36200SOL    HW212006   6.422   9.214   5.265 -1.1182 -1.2238  0.5264
36201SOL     OW12007  10.079  10.923  10.694 -0.2766  0.1563 -0.1120
36201SOL    HW112008  10.027  10.997  10.664 -1.1007 -0.1864  0.4530
36201SOL    HW212009  10.016  10.865  10.738  0.2167 -1.2160 -1.1564
36202SOL     OW12010   0.848  10.564   9.344 -0.4319 -0.1992 -0.2710
36202SOL    HW112011   0.876  10.518   9.424  1.8941  1.8049  0.1115
36202SOL    HW212012   0.800  10.640   9.376 -2.9332 -1.4663 -0.8891
36203SOL     OW12013   4.545   8.936   1.713  0.8195 -0.3416 -0.1228
36203SOL    HW112014   4.606   8.869   1.681  1.0675  0.2206 -0.8418
36203SOL    HW212015   4.601   9.002   1.754  0.6428 -0.1452 -0.1998
36204SOL     OW12016   4.756   6.210   7.523  0.1820 -0.0732 -0.5501
36204SOL    HW112017   4.792   6.170   7.602 -1.1678  1.4977  0.9043
36204SOL    HW212018   4.799   6.164   7.451  0.7396 -2.1835  1.0787
36205SOL     OW12019   6.102   4.927   9.047  0.4537 -0.2802  0.1028
36205SOL    HW112020   6.124   4.937   8.954  0.2195 -0.4167  0.0332
36205SOL    HW212021   6.013   4.893   9.047  0.8976 -1.4562  0.3604
36206SOL     OW12022   9.152   7.415   1.385 -0.0967  0.3622  0.3208
36206SOL    HW112023   9.192   7.500   1.403 -0.0159  0.0790  1.4953
36206SOL    HW212024   9.064   7.420   1.423  0.8382 -0.9893  2.7750
36207SOL     OW12025   8.394   6.288   2.242 -0.1929  0.1669 -0.3735
36207SOL    HW112026   8.326   6.328   2.189 -1.2086 -0.5134  0.3922
36207SOL    HW212027   8.348   6.254   2.319  1.2655  1.2504  1.0032
36208SOL     OW12028   8.631   8.074  10.080  0.2185 -0.2761 -0.5200
36208SOL    HW112029   8.616   7.987  10.043 -1.7888  0.1481 -0.8099
36208SOL    HW212030   8.545   8.101  10.113  1.4519  0.3466  2.3397
36209SOL     OW12031   9.070  10.958   6.393 -0.0876 -0.2581  0.2719
36209SOL    HW112032   9.150  11.005   6.371  0.8248 -2.0430 -0.3444
36209SOL    HW212033   9.054  10.980   6.485  0.6482  0.7579  0.1682
36210SOL     OW12034   7.979   9.358   4.076 -0.0899  0.2255 -0.7610
36210SOL    HW112035   7.891   9.324   4.064 -0.5374  1.6068 -1.5666
36210SOL    HW212036   7.996   9.409   3.996  0.7360  1.4306  0.1614
36211SOL     OW12037   5.404  10.004   2.167  0.2363 -0.1737 -0.5216
36211SOL    HW112038   5.488  10.046   2.151  0.4622  0.3020  1.6732
36211SOL    HW212039   5.416   9.914   2.139  1.1233  0.1570 -1.2259
36212SOL     OW12040   8.100   9.384   1.302 -0.2301 -0.0907  0.0259
36212SOL    HW112041   8.155   9.373   1.225  0.3718 -3.3459  0.8533
36212SOL    HW212042   8.016   9.346   1.277 -0.5178  0.2554  0.4578
36213SOL     OW12043   8.696   9.117   7.777  0.0839 -0.0010 -0.1965
36213SOL    HW112044   8.648   9.186   7.822  1.3613  0.6365  0.2264
36213SOL    HW212045   8.786   9.127   7.807  0.5702 -0.8915 -1.3015
36214SOL     OW12046   0.291  10.797   0.318 -0.8921 -0.3463 -0.0000
36214SOL    HW112047   0.305  10.710   0.357 -3.5313 -0.4875  0.7893
36214SOL    HW212048   0.302  10.858   0.391 -0.1382 -0.1010 -0.3137
36215SOL     OW12049  10.902   2.866   7.631 -0.2455  0.2481  0.3450
36215SOL    HW112050  10.929   2.958   7.619 -0.0411 -0.1488 -2.4173
36215SOL    HW212051  10.926   2.847   7.722  1.2847  2.4210  0.4518
36216SOL     OW12052   9.630   7.992   8.188 -0.3068 -0.4041  0.2545
36216SOL    HW112053   9.715   8.034   8.191 -0.8908  0.7102  1.8103
36216SOL    HW212054   9.591   8.020   8.106 -0.4056  1.5687  0.9538
36217SOL     OW12055  10.733   9.832   9.001  0.3687  0.0971 -0.4444
36217SOL    HW112056  10.705   9.829   8.910 -2.3735 -1.0266  0.3640
36217SOL    HW212057  10.724   9.742   9.032  1.2957  0.4521  0.9265
36218SOL     OW12058   0.789   8.503   1.300 -0.3694 -0.2016  0.1302
36218SOL    HW112059   0.768   8.555   1.223  0.3568  0.0304  0.0809
36218SOL    HW212060   0.767   8.413   1.275  0.8659 -0.2716 -0.7368
36219SOL     OW12061   3.715   2.746   0.974  0.6581  0.6608 -0.1749
36219SOL    HW112062   3.694   2.821   1.030  2.4132  1.5937 -0.7085
36219SOL    HW212063   3.791   2.706   1.015  0.4637 -0.1221 -0.5622
36220SOL     OW12064   2.997  10.512   2.932  0.9274  0.9313  0.2240
36220SOL    HW112065   2.931  10.443   2.929  1.6071  0.1809  2.2172
36220SOL    HW212066   2.950  10.592   2.908 -0.4344  0.2113  0.4995
36221SOL     OW12067   8.004   6.839   8.700  0.0474  0.2546 -0.1216
36221SOL    HW112068   8.066   6.859   8.629  0.7433 -0.7850  0.1881
36221SOL    HW212069   7.918   6.846   8.659  0.3088  2.4396 -0.3890
36222SOL     OW12070  10.040   5.392   6.251  0.0770  0.4286  0.2651
36222SOL    HW112071  10.058   5.454   6.322 -3.3316  0.2045  1.3941
36222SOL    HW212072   9.983   5.441   6.192  0.1062 -0.5392 -0.5694
36223SOL     OW12073   7.669   8.251   6.445  0.3303  0.5614 -0.2697
36223SOL    HW112074   7.662   8.207   6.361 -0.3595  0.0939  0.0222
36223SOL    HW212075   7.613   8.328   6.436 -2.7925 -1.4593  0.9825
36224SOL     OW12076  10.551   3.982   7.679 -0.0799 -0.0683 -0.8423
36224SOL    HW112077  10.596   3.920   7.622  0.4106 -0.7077  0.2243
36224SOL    HW212078  10.458   3.962   7.668 -0.0902  0.8600 -2.5967
36225SOL     OW12079   9.715   4.304   8.198  0.3176  0.3605  0.0752
36225SOL    HW112080   9.662   4.261   8.131  0.7492 -1.4127  0.8335
36225SOL    HW212081   9.654   4.361   8.245 -0.5956 -0.5356 -0.0079
36226SOL     OW12082   4.586   9.082   4.677 -0.1017  0.5071 -0.2227
36226SOL    HW112083   4.534   9.138   4.734  0.1499 -0.2115  0.7217
36226SOL    HW212084   4.677   9.109   4.693  0.0146 -0.1194  0.1838
36227SOL     OW12085   9.309   6.788   1.061 -0.3570 -0.2955  0.2568
36227SOL    HW112086   9.321   6.860   0.999  1.1715  1.0365  2.0293
36227SOL    HW212087   9.240   6.734   1.023 -0.0253  0.9458 -2.1657
36228SOL     OW12088   7.081   0.920   7.495 -0.0815 -0.1549 -0.3983
36228SOL    HW112089   7.083   0.961   7.409  0.4697 -1.9606 -1.2595
36228SOL    HW212090   7.064   0.993   7.556 -0.2912  1.1519 -1.9925
36229SOL     OW12091   3.860   3.304   8.146  0.3198 -0.0050  0.9053
36229SOL    HW112092   3.891   3.218   8.174  0.6573 -0.7075 -1.5071
36229SOL    HW212093   3.768   3.306   8.174 -1.0533 -3.0334 -2.9087
36230SOL     OW12094   8.356   1.491   1.808  0.7789  0.4766 -0.1612
36230SOL    HW112095   8.324   1.581   1.807 -1.7276 -0.3881 -0.9556
36230SOL    HW212096   8.445   1.498   1.843  0.8407  3.3118 -0.7384
36231SOL     OW12097   8.107   3.425   7.332 -0.3827  0.3716  0.2139
36231SOL    HW112098   8.115   3.386   7.419 -1.3243 -0.5312 -0.0925
36231SOL    HW212099   8.194   3.417   7.294  0.4693  2.2674  1.6704
36232SOL     OW12100   8.681   8.225  10.927  0.0461 -0.1686  0.3521
36232SOL    HW112101   8.693   8.229  11.022 -0.4604  0.9720  0.3767
36232SOL    HW212102   8.632   8.304  10.905  0.7319 -0.0780 -0.9519
36233SOL     OW12103   7.204   0.111   2.630  0.2742 -0.6567  0.0378
36233SOL    HW112104   7.250   0.054   2.569  1.6886  0.0299  0.4334
36233SOL    HW212105   7.262   0.186   2.641 -1.5007  0.8186 -0.3879
36234SOL     OW12106   1.431   2.646   6.939  0.0271  0.1419 -0.0121
36234SOL    HW112107   1.360   2.652   6.876 -0.9900  1.7958  1.2374
36234SOL    HW212108   1.395   2.594   7.011  0.8399 -0.8937 -0.3432
36235SOL     OW12109   7.506   0.257   9.557 -0.0583  0.1188  0.2960
36235SOL    HW112110   7.478   0.293   9.473  0.3201  0.9909  0.5360
36235SOL    HW212111   7.425   0.231   9.600 -0.4259  1.5043  0.4830
36236SOL     OW12112   0.074   3.212   2.920 -0.3468 -0.1234 -0.1363
36236SOL    HW112113   0.036   3.297   2.939  0.4477 -0.3312  2.5856
36236SOL    HW212114   0.168   3.224   2.932  0.0766 -0.6878 -2.5661
36237SOL     OW12115   9.984   1.461   7.529  0.6131  0.2713  0.6622
36237SOL    HW112116   9.999   1.538   7.583 -0.5423  1.8726 -1.2636
36237SOL    HW212117  10.069   1.445   7.488  0.4374  1.5160 -0.2016
36238SOL     OW12118   9.071   1.551   6.012 -0.1048 -0.0910 -0.0484
36238SOL    HW112119   9.087   1.570   6.105 -0.8705  1.8988 -0.3116
36238SOL    HW212120   9.157   1.525   5.979  0.6605  1.4279  0.7020
36239SOL     OW12121   6.097   1.551   0.846  0.4973 -0.2558  0.0941
36239SOL    HW112122   6.155   1.496   0.792 -0.1711  0.0378 -0.9180
36239SOL    HW212123   6.072   1.494   0.919 -0.7038 -1.5321 -1.2789
36240SOL     OW12124   4.101   8.495   0.900 -1.1382  0.0495  0.2902
36240SOL    HW112125   4.051   8.500   0.981 -3.0436  2.0218 -0.9630
36240SOL    HW212126   4.153   8.575   0.898  0.9308 -1.2275  0.8022
36241SOL     OW12127   3.061   8.899   2.799 -0.3627 -0.1003 -0.6393
36241SOL    HW112128   2.997   8.958   2.759 -1.1610  0.1566  0.9645
36241SOL    HW212129   3.114   8.868   2.726 -1.9370  0.1530 -1.9195
36242SOL     OW12130   7.216   4.419   8.070 -0.2403  0.2544 -0.1601
36242SOL    HW112131   7.164   4.499   8.063 -1.5108 -0.4781  0.7165
36242SOL    HW212132   7.186   4.364   7.997 -1.2677 -0.4884  0.8138
36243SOL     OW12133   0.278   3.164  10.517 -0.1193 -0.4512  0.0008
36243SOL    HW112134   0.217   3.156  10.443  1.1245  0.6575 -1.1662
36243SOL    HW212135   0.258   3.088  10.572 -1.9649 -0.5763 -0.7932
36244SOL     OW12136   4.616  10.488   3.940 -0.0978 -0.6885 -0.0604
36244SOL    HW112137   4.522  10.501   3.956 -0.1707 -1.0743 -0.1885
36244SOL    HW212138   4.651  10.577   3.933 -0.4399 -0.5425  0.0744
36245SOL     OW12139   3.247   4.937   1.585 -0.6884  0.0108 -0.3206
36245SOL    HW112140   3.335   4.924   1.550  0.3076  3.1674  0.8234
36245SOL    HW212141   3.195   4.866   1.547  2.1503 -1.4372 -1.6522
36246SOL     OW12142   1.017   5.837   0.938  0.4320 -0.4208 -0.2972
36246SOL    HW112143   0.962   5.900   0.984  2.6071 -0.0429  1.8839
36246SOL    HW212144   1.003   5.754   0.983  1.9995 -0.2140  0.6125
36247SOL     OW12145  10.874  10.359   9.908  0.2162 -0.1182  0.5155
36247SOL    HW112146  10.866  10.265   9.890 -1.0665  0.1850 -0.5602
36247SOL    HW212147  10.792  10.397   9.876  0.9865  1.4609  0.3590
36248SOL     OW12148   5.858   4.780   9.079 -0.0888  0.5031 -0.6239
36248SOL    HW112149   5.894   4.720   9.144 -1.5223 -1.4934 -1.6584
36248SOL    HW212150   5.788   4.826   9.126  0.9362  1.3246  0.1319
36249SOL     OW12151   9.939   8.591   7.707 -0.4895  0.2095  0.4473
36249SOL    HW112152   9.875   8.652   7.743  0.2269  0.1270  1.8892
36249SOL    HW212153   9.932   8.514   7.763  2.4067  1.0132  1.9752
36250SOL     OW12154   0.296   8.712   8.788  0.1361  0.0877  0.5701
36250SOL    HW112155   0.261   8.626   8.762  1.6235 -0.0207 -1.1360
36250SOL    HW212156   0.257   8.773   8.726  0.6438  0.3750  0.5366
36251SOL     OW12157   7.994   6.444   9.367  0.5467  0.3005  0.1931
36251SOL    HW112158   8.073   6.405   9.330  0.1389  0.5023 -0.9323
36251SOL    HW212159   7.943   6.472   9.290 -0.8511 -0.2899  0.8753
36252SOL     OW12160   0.641   1.598   2.836 -0.7171 -0.6727 -0.1301
36252SOL    HW112161   0.603   1.591   2.749 -1.4410  0.4306  0.0928
36252SOL    HW212162   0.593   1.534   2.888 -0.8260 -0.7641 -0.3409
36253SOL     OW12163   9.798   2.873   0.317  0.0565  0.3912 -0.5837
36253SOL    HW112164   9.850   2.910   0.389 -0.6504  2.3030 -1.0142
36253SOL    HW212165   9.859   2.817   0.270  0.2601 -1.7823  2.1211
36254SOL     OW12166  10.434   6.582   4.418 -0.4395 -0.0899  0.3646
36254SOL    HW112167  10.366   6.530   4.459  0.2441 -1.4786 -0.2111
36254SOL    HW212168  10.388   6.655   4.377 -1.3691 -0.0054  1.5560
36255SOL     OW12169   9.109   3.175  10.694  0.4037 -0.1366 -0.4643
36255SOL    HW112170   9.110   3.182  10.598 -2.9893  2.1990 -0.3916
36255SOL    HW212171   9.069   3.090  10.710 -0.3685  0.0928 -1.1226
36256SOL     OW12172   6.290  10.280   3.406 -0.0203 -0.0596 -0.0386
36256SOL    HW112173   6.249  10.198   3.377 -2.8536  1.2626  0.0926
36256SOL    HW212174   6.295  10.333   3.326  2.2899 -0.5143 -0.2299
36257SOL     OW12175   1.507   5.497   8.824 -0.0276  0.3474  0.3832
36257SOL    HW112176   1.446   5.552   8.776 -1.0241 -0.4576  0.6942
36257SOL    HW212177   1.469   5.409   8.819  1.5532 -0.3275 -0.1498
36258SOL     OW12178   1.234   5.284   9.792  0.1354 -0.5481 -0.3118
36258SOL    HW112179   1.179   5.321   9.862  0.1943 -1.3668  0.1672
36258SOL    HW212180   1.289   5.220   9.836 -0.6239 -1.9108 -1.2949
36259SOL     OW12181   6.636   9.515   1.961 -0.5260  0.3113  0.2342
36259SOL    HW112182   6.715   9.512   2.016 -0.1872  0.9772 -0.2123
36259SOL    HW212183   6.670   9.521   1.871 -1.0902  0.7352  0.0523
36260SOL     OW12184   0.504   5.648   0.186  0.7198 -0.1159 -0.1456
36260SOL    HW112185   0.451   5.570   0.169 -0.8075  0.6709  0.9051
36260SOL    HW212186   0.585   5.615   0.224  0.6031 -1.2706 -0.8924
36261SOL     OW12187   1.889   2.205   9.706  0.3642  0.2949 -0.6142
36261SOL    HW112188   1.969   2.153   9.704  0.5141  0.5344 -0.7643
36261SOL    HW212189   1.919   2.296   9.707  0.1608  0.3630  2.0899
36262SOL     OW12190   1.933   7.494   5.810 -0.4409 -0.6216 -0.1748
36262SOL    HW112191   2.003   7.557   5.826  0.5296 -1.9096  0.8179
36262SOL    HW212192   1.928   7.488   5.714  2.1158 -1.8885 -0.2798
36263SOL     OW12193   8.602   9.396   3.827 -0.3025  0.1669  0.0527
36263SOL    HW112194   8.622   9.445   3.907 -0.3705 -0.3500  0.3839
36263SOL    HW212195   8.623   9.457   3.756 -1.9897  1.2803  0.4904
36264SOL     OW12196   5.039   4.336   8.401  0.1553 -0.6592 -0.0588
36264SOL    HW112197   5.079   4.353   8.316  2.0970  1.7113  1.2789
36264SOL    HW212198   5.113   4.320   8.459 -1.0071  0.1798  1.6911
36265SOL     OW12199   5.519   0.566   1.476 -0.1050 -0.3854  0.7681
36265SOL    HW112200   5.568   0.568   1.559 -0.6553 -0.8406  1.1098
36265SOL    HW212201   5.438   0.520   1.497  0.1733 -1.3515 -0.2674
36266SOL     OW12202   0.140   0.103   0.592 -0.2928 -0.5967  0.7339
36266SOL    HW112203   0.050   0.071   0.589  0.0774 -1.5346 -0.5678
36266SOL    HW212204   0.131   0.199   0.590 -1.2915 -0.6568  1.8102
36267SOL     OW12205   4.536  10.641  10.720 -0.3462 -0.3166 -0.4003
36267SOL    HW112206   4.550  10.720  10.771  2.9681 -0.1223 -1.4825
36267SOL    HW212207   4.598  10.578  10.755 -1.9998 -2.0396 -0.4614
36268SOL     OW12208   9.362   8.751   6.678 -0.7575  0.1741 -0.1368
36268SOL    HW112209   9.418   8.792   6.743  0.5885  0.1413 -1.2647
36268SOL    HW212210   9.278   8.796   6.687  0.2882  2.2356 -0.4113
36269SOL     OW12211   8.068   1.665   7.153 -0.0543  0.0503 -0.1409
36269SOL    HW112212   8.067   1.761   7.154 -0.9056  0.0267  0.8916
36269SOL    HW212213   7.989   1.640   7.105  0.9521 -0.1304 -1.7663
36270SOL     OW12214   4.312   3.057   6.916  0.7533 -0.2130 -0.7101
36270SOL    HW112215   4.379   3.027   6.854 -1.3457 -3.8274 -1.3479
36270SOL    HW212216   4.245   3.098   6.862  0.8465  0.4233 -0.3641
36271SOL     OW12217   7.719   8.175   5.781  0.0454  0.3302 -0.0913
36271SOL    HW112218   7.749   8.266   5.776  2.2607 -0.3570 -0.0341
36271SOL    HW212219   7.754   8.134   5.702 -2.3446 -0.1030 -0.9487
36272SOL     OW12220   9.374   1.194   0.511  0.2280  0.3795  0.0846
36272SOL    HW112221   9.331   1.276   0.532  1.7188  0.5552  2.6088
36272SOL    HW212222   9.446   1.218   0.453  0.6963  0.8623  0.8650
36273SOL     OW12223   9.569   8.618  10.585  0.4941  0.4839  0.7315
36273SOL    HW112224   9.484   8.653  10.557 -0.6311 -1.1659  2.0279
36273SOL    HW212225   9.614   8.692  10.625 -0.8648  1.0590  1.2108
36274SOL     OW12226   3.379   3.326   6.634  0.3098  0.3959 -0.1402
36274SOL    HW112227   3.387   3.372   6.717 -2.0666 -1.0161  0.9348
36274SOL    HW212228   3.336   3.388   6.575 -0.9727  0.2936  0.6744
36275SOL     OW12229   9.967   9.077   3.615  0.2252 -0.3380  0.0298
36275SOL    HW112230   9.985   9.169   3.634  0.5643 -0.0297 -1.6944
36275SOL    HW212231   9.878   9.063   3.648 -0.1581  0.8416 -0.4771
36276SOL     OW12232   4.528   1.371   2.491  0.2021  0.0307 -0.1824
36276SOL    HW112233   4.477   1.343   2.568 -0.2548  0.6771 -0.2515
36276SOL    HW212234   4.464   1.413   2.434  0.5284 -0.5241 -0.9593
36277SOL     OW12235   5.129   3.300   0.895  0.5985 -0.4776  0.3578
36277SOL    HW112236   5.107   3.226   0.839 -0.3876  1.1381 -1.4347
36277SOL    HW212237   5.223   3.311   0.884  0.5809 -0.8178 -0.1574
36278SOL     OW12238   2.866   7.671   9.746 -0.1241 -0.1650 -0.4985
36278SOL    HW112239   2.923   7.728   9.694  0.7413 -0.8802 -0.3407
36278SOL    HW212240   2.899   7.680   9.836  0.4027 -1.3795 -0.5643
36279SOL     OW12241   0.465   9.399   1.625 -0.1375  0.2366 -0.2748
36279SOL    HW112242   0.389   9.356   1.588  0.7298 -0.4006 -1.3465
36279SOL    HW212243   0.463   9.488   1.590 -0.6030  0.3445  0.0220
36280SOL     OW12244  10.002   2.898   1.826  0.0205  0.0990  0.2973
36280SOL    HW112245  10.074   2.838   1.844 -0.1459  0.2643  1.5667
36280SOL    HW212246   9.923   2.847   1.845 -0.1286  0.6261  1.0790
36281SOL     OW12247   8.247   6.217   1.999 -0.6057  0.2300 -0.1332
36281SOL    HW112248   8.338   6.197   1.977 -0.6756  1.7466 -1.9123
36281SOL    HW212249   8.196   6.151   1.952 -0.5853  1.5797 -2.1144
36282SOL     OW12250   8.405   5.375   0.755 -0.1442 -0.4330  0.1721
36282SOL    HW112251   8.494   5.365   0.788  0.0054 -0.7221 -0.3194
36282SOL    HW212252   8.369   5.287   0.755 -0.7801 -0.1736  1.3484
36283SOL     OW12253   3.062   8.186   5.883  0.4306 -0.4165 -0.0879
36283SOL    HW112254   3.019   8.214   5.803  0.5922  0.2793  0.0615
36283SOL    HW212255   3.004   8.121   5.921 -0.7411  0.8720  0.3702
36284SOL     OW12256   0.688   5.535   7.547 -0.2596 -0.2419 -0.4528
36284SOL    HW112257   0.699   5.441   7.532  0.9877  0.1397 -1.9696
36284SOL    HW212258   0.757   5.576   7.495 -0.5015  1.4981  0.5763
36285SOL     OW12259   4.329   9.992   1.970  0.1361  0.4402  0.0934
36285SOL    HW112260   4.390  10.051   2.015  0.2685  0.4761 -0.1330
36285SOL    HW212261   4.367   9.905   1.981 -0.2607  0.3467  0.7655
36286SOL     OW12262   0.283   1.811   7.424  0.3317  0.1082  0.5185
36286SOL    HW112263   0.235   1.745   7.474  3.0211 -1.4954  1.0313
36286SOL    HW212264   0.340   1.761   7.366  0.7695  1.9799 -0.7104
36287SOL     OW12265  10.239  10.641   3.870  0.2037 -0.5663  0.2761
36287SOL    HW112266  10.284  10.631   3.787  1.5264 -0.1151  0.9285
36287SOL    HW212267  10.262  10.729   3.900 -0.3273 -0.6879  1.0750
36288SOL     OW12268  10.791   9.207  10.398 -0.0542 -0.0001  0.5298
36288SOL    HW112269  10.700   9.185  10.418 -0.3936 -0.6882 -1.6378
36288SOL    HW212270  10.842   9.157  10.462 -1.1721 -0.0359  1.4115
36289SOL     OW12271   3.423   6.790   2.274  0.1222 -0.0858  0.4379
36289SOL    HW112272   3.423   6.769   2.367 -0.4743  0.1085  0.4878
36289SOL    HW212273   3.393   6.881   2.270  1.7215  0.4475  0.1601
36290SOL     OW12274   5.186   7.097   5.012  0.5229 -0.3714 -0.3464
36290SOL    HW112275   5.261   7.146   4.978  1.0629 -0.0299  1.3004
36290SOL    HW212276   5.186   7.015   4.962  1.7351 -0.1842 -0.6623
36291SOL     OW12277   2.741   3.721   8.291  0.3020 -0.0630  0.7222
36291SOL    HW112278   2.809   3.722   8.359  0.7372  0.1563  0.2856
36291SOL    HW212279   2.729   3.814   8.269  0.1467 -0.1349  0.5095
36292SOL     OW12280   4.471   5.248   2.012 -0.0864  0.2905  0.5862
36292SOL    HW112281   4.452   5.225   1.921 -1.4009  2.0855  0.3633
36292SOL    HW212282   4.563   5.274   2.012  0.0743 -0.2639 -0.1154
36293SOL     OW12283  10.113   0.557   8.044  0.5817  0.0922  0.6355
36293SOL    HW112284  10.048   0.519   7.984  0.3176  0.7313  0.5075
36293SOL    HW212285  10.072   0.555   8.130 -0.1343  1.6678  0.3542
36294SOL     OW12286   5.743   7.811   3.149  0.6289  0.1686  0.4682
36294SOL    HW112287   5.754   7.806   3.055 -1.4090  0.8868  0.1511
36294SOL    HW212288   5.654   7.779   3.164 -0.3961  3.3867  1.7467
36295SOL     OW12289   2.433   9.036   1.565  0.1149 -0.0334  0.0800
36295SOL    HW112290   2.412   8.944   1.580  0.1733  0.0795  0.9180
36295SOL    HW212291   2.407   9.052   1.474 -1.5819 -0.4069  0.4672
36296SOL     OW12292   7.913   0.902   2.068 -0.2607  0.6705 -0.2584
36296SOL    HW112293   7.943   0.824   2.021  0.2722 -0.6301  2.1900
36296SOL    HW212294   7.817   0.895   2.066 -0.2079 -0.3433  0.4283
36297SOL     OW12295   3.374   4.145   1.043  0.5150  0.5407 -0.0497
36297SOL    HW112296   3.329   4.134   0.959 -0.3104  1.6252  0.2355
36297SOL    HW212297   3.462   4.110   1.028 -0.0296 -0.4592 -0.9847
36298SOL     OW12298   6.812   4.436   4.438  0.7571 -0.1850 -0.1922
36298SOL    HW112299   6.884   4.411   4.495 -0.2265 -3.2096 -0.1720
36298SOL    HW212300   6.790   4.355   4.390 -1.2364  1.1911 -1.7012
36299SOL     OW12301   9.886   8.039  10.979 -0.1399  0.5535  0.8062
36299SOL    HW112302   9.977   8.057  10.957 -0.4404  0.4010 -0.6053
36299SOL    HW212303   9.878   8.064  11.071  1.2652  0.7801  0.8737
36300SOL     OW12304   1.295   7.516   0.611  0.3075  0.3706 -0.1930
36300SOL    HW112305   1.380   7.557   0.596 -0.7047  1.5948 -2.9408
36300SOL    HW212306   1.304   7.428   0.572  0.6050  0.1334  0.4008
36301SOL     OW12307   8.419  10.526   4.328 -0.3572  0.2879 -0.3129
36301SOL    HW112308   8.348  10.587   4.307 -0.8510 -0.1913 -0.0380
36301SOL    HW212309   8.412  10.458   4.260 -0.4835 -0.0298  0.0177
36302SOL     OW12310   8.334   3.294   1.344 -0.5079 -0.1805 -0.0687
36302SOL    HW112311   8.400   3.359   1.320 -0.0955 -0.5407  0.0894
36302SOL    HW212312   8.286   3.334   1.416 -0.1892 -0.0917  0.0945
36303SOL     OW12313   1.683   7.356   6.651 -0.0487 -0.2579 -0.2988
36303SOL    HW112314   1.665   7.430   6.593  0.7358 -0.9989 -1.4974
36303SOL    HW212315   1.762   7.316   6.616  1.3212  0.1865  2.2006
36304SOL     OW12316   1.121   9.169   7.448  0.0497 -0.1150  0.2980
36304SOL    HW112317   1.068   9.165   7.528  0.0288 -1.0296  0.2503
36304SOL    HW212318   1.165   9.254   7.451  0.4691 -0.3790  1.5473
36305SOL     OW12319   0.722   1.701  10.208  0.2794  0.0157 -0.5109
36305SOL    HW112320   0.694   1.765  10.143 -0.0704 -0.6442 -1.0103
36305SOL    HW212321   0.647   1.643  10.219  0.2225  0.2902  0.7044
36306SOL     OW12322   7.455   6.840   5.447  0.3649 -0.1000 -0.1546
36306SOL    HW112323   7.452   6.877   5.359  1.9379  0.8715  0.1874
36306SOL    HW212324   7.461   6.916   5.505  1.9175 -0.7980  0.6480
36307SOL     OW12325   4.262  10.687  10.606 -0.1300 -0.2067  0.1048
36307SOL    HW112326   4.350  10.712  10.633 -0.3916 -1.1448  1.9165
36307SOL    HW212327   4.266  10.591  10.597 -1.0579 -0.2936  0.5785
36308SOL     OW12328   4.428   2.503   7.275  0.5462 -0.0748  0.1919
36308SOL    HW112329   4.444   2.423   7.225 -0.3608  0.3269 -0.7563
36308SOL    HW212330   4.482   2.570   7.233  0.5888  0.0263  0.4055
36309SOL     OW12331  10.309   2.945   6.255  0.4916  0.0420 -0.5588
36309SOL    HW112332  10.279   3.033   6.234 -1.1540 -0.2652  0.4379
36309SOL    HW212333  10.404   2.949   6.245  0.7310  2.6793  2.2626
36310SOL     OW12334   1.578  10.086   1.552  0.5341 -0.3658 -0.2669
36310SOL    HW112335   1.522  10.163   1.544 -0.5722 -1.0005  1.1239
36310SOL    HW212336   1.580  10.049   1.464 -1.8911 -0.7494 -0.2079
36311SOL     OW12337  10.130   7.987   5.116 -0.9950  0.6758  0.2771
36311SOL    HW112338  10.131   8.039   5.035 -0.9458  0.9765  0.4697
36311SOL    HW212339  10.191   7.915   5.098 -0.0109  1.4412  0.4948
36312SOL     OW12340   3.451   5.150   3.397 -0.3457 -0.2398 -0.8659
36312SOL    HW112341   3.497   5.068   3.377 -0.2132  0.2296 -2.5851
36312SOL    HW212342   3.413   5.176   3.313  1.1269  2.3938 -0.7529
36313SOL     OW12343   0.935   2.387   7.170 -0.0995 -0.3954 -0.0568
36313SOL    HW112344   0.970   2.443   7.240  0.7934  0.2738 -1.0330
36313SOL    HW212345   1.011   2.337   7.140 -0.9099 -2.1979  0.8635
36314SOL     OW12346   8.652   1.183   6.815 -0.5966 -0.2356  0.3134
36314SOL    HW112347   8.726   1.130   6.844 -0.4820 -0.7298 -0.8589
36314SOL    HW212348   8.681   1.221   6.732 -1.7998 -0.7583 -0.3566
36315SOL     OW12349   7.163   2.764   3.802 -0.3340  0.1373  0.1159
36315SOL    HW112350   7.086   2.764   3.745  0.4621  0.4336 -0.9786
36315SOL    HW212351   7.173   2.855   3.829 -1.4274 -0.1988  1.7477
36316SOL     OW12352   7.191   8.365  10.040  0.3859 -0.3668  0.4791
36316SOL    HW112353   7.206   8.450  10.080 -0.4860  0.4209 -0.8444
36316SOL    HW212354   7.241   8.368   9.958 -0.9320 -0.5285 -0.3335
36317SOL     OW12355   7.450  10.910   5.162 -0.1196  0.4785  0.1033
36317SOL    HW112356   7.396  10.847   5.115 -0.7633  1.8899 -1.0701
36317SOL    HW212357   7.391  10.952   5.223 -0.4948  2.3778 -1.5274
36318SOL     OW12358   4.513   0.574   4.285  0.1564 -0.1859  0.0295
36318SOL    HW112359   4.581   0.583   4.352 -1.1529 -1.1143  1.5354
36318SOL    HW212360   4.453   0.648   4.302 -0.8035 -1.0932  0.6623
36319SOL     OW12361   2.631   7.328   7.882 -0.1465  0.3059  0.5236
36319SOL    HW112362   2.724   7.322   7.905 -0.3576 -0.9737  1.0842
36319SOL    HW212363   2.631   7.345   7.788  0.6780  2.4270  0.8631
36320SOL     OW12364   8.506   4.446  10.585  0.4901  0.2144  0.3009
36320SOL    HW112365   8.561   4.411  10.654  0.6090 -0.6429 -0.2166
36320SOL    HW212366   8.419   4.455  10.625  0.5471 -0.3146  0.5470
36321SOL     OW12367  10.825  10.322   0.118  0.1987 -0.0538  0.7123
36321SOL    HW112368  10.883  10.298   0.046  0.9537 -0.6857  1.5225
36321SOL    HW212369  10.884  10.344   0.190 -0.5523  0.4293  1.1843
36322SOL     OW12370   8.888   9.667   6.366 -0.5067 -0.4732 -0.4706
36322SOL    HW112371   8.821   9.613   6.408 -1.3252 -0.3282 -1.5517
36322SOL    HW212372   8.970   9.643   6.410 -1.3040 -0.4495  1.0517
36323SOL     OW12373  10.059   1.451   8.467 -0.2887  0.5523  0.0537
36323SOL    HW112374  10.091   1.367   8.498 -0.6216  0.1788 -0.5922
36323SOL    HW212375  10.077   1.512   8.538 -0.5543 -0.1772  0.7523
36324SOL     OW12376   0.525   8.139  10.856 -0.0219 -0.0892 -0.4510
36324SOL    HW112377   0.607   8.097  10.881 -0.2535 -0.1317  0.2407
36324SOL    HW212378   0.473   8.069  10.817  0.0467 -0.1879 -0.3658
36325SOL     OW12379   7.254   0.972   1.254  0.3155  0.4653 -0.5381
36325SOL    HW112380   7.236   0.883   1.223 -1.0988  0.0125  1.4637
36325SOL    HW212381   7.347   0.970   1.276  0.1858 -0.6794 -0.0344
36326SOL     OW12382   1.845   4.108   7.961  0.1326  0.1317  0.3103
36326SOL    HW112383   1.782   4.175   7.936 -0.5483  0.0481  1.7474
36326SOL    HW212384   1.797   4.051   8.021  0.6438 -1.7548 -1.0124
36327SOL     OW12385   7.776   0.560   9.587 -0.2346  0.4284  0.6028
36327SOL    HW112386   7.745   0.478   9.624  0.6891 -0.2764 -0.1671
36327SOL    HW212387   7.713   0.626   9.618 -2.4714 -0.9594 -0.8774
36328SOL     OW12388   6.386   8.436   3.638 -0.5454 -0.2953  0.2674
36328SOL    HW112389   6.347   8.471   3.557 -0.8159 -0.5883  0.2719
36328SOL    HW212390   6.437   8.509   3.673  0.6283 -0.5512 -0.8497
36329SOL     OW12391   8.312   9.629   3.232 -0.3335 -0.1652  0.7512
36329SOL    HW112392   8.299   9.598   3.142 -1.1147  1.5152  0.2651
36329SOL    HW212393   8.406   9.641   3.240 -0.4272  1.6226 -0.5225
36330SOL     OW12394   6.256   7.666   5.678 -0.3659 -0.6223 -0.1144
36330SOL    HW112395   6.312   7.626   5.612 -1.0713  0.6787 -1.5151
36330SOL    HW212396   6.300   7.648   5.761  0.9061 -1.6304 -1.0019
36331SOL     OW12397   7.706   8.740   8.220  0.4130  0.2943  0.4197
36331SOL    HW112398   7.708   8.774   8.130 -0.6314 -0.8691 -0.0696
36331SOL    HW212399   7.660   8.656   8.212 -0.1733  0.4349  2.1284
36332SOL     OW12400   2.977   3.146   7.247  0.3085 -0.0889  0.3346
36332SOL    HW112401   2.890   3.184   7.250  0.2737  0.0452 -1.6411
36332SOL    HW212402   2.989   3.120   7.155  2.2250 -0.3523  0.6358
36333SOL     OW12403  10.207   0.008   4.186 -0.6566  0.2639 -0.3961
36333SOL    HW112404  10.129   0.012   4.131 -0.3857 -1.5605 -0.9283
36333SOL    HW212405  10.177  -0.031   4.268 -0.3752 -0.1261 -0.4780
36334SOL     OW12406  10.391   4.615   1.559  0.2317  0.3046 -0.2322
36334SOL    HW112407  10.301   4.625   1.592  1.1586 -0.7425  2.7404
36334SOL    HW212408  10.416   4.704   1.532  0.0176  1.6253  3.5904
36335SOL     OW12409  10.363   2.882   5.076 -0.0280 -0.1581 -0.6203
36335SOL    HW112410  10.371   2.888   5.171 -1.3360 -1.6011 -0.3881
36335SOL    HW212411  10.362   2.788   5.058 -1.8331  0.0776 -1.8591
36336SOL     OW12412   3.312  10.677  10.443  0.4193  0.2814 -0.3505
36336SOL    HW112413   3.326  10.699  10.536 -2.2434 -1.0466  0.4152
36336SOL    HW212414   3.348  10.589  10.434  0.7001  0.4194 -0.6119
36337SOL     OW12415  10.556   8.586   3.691 -0.0018 -0.3074 -0.2498
36337SOL    HW112416  10.651   8.589   3.704 -0.3025 -0.6142  2.3594
36337SOL    HW212417  10.529   8.677   3.698 -0.0764 -0.3938  0.7170
36338SOL     OW12418   9.860   8.692   1.634 -0.3083  0.3503  0.0282
36338SOL    HW112419   9.910   8.703   1.553 -1.5876 -0.0246 -0.8338
36338SOL    HW212420   9.905   8.623   1.681  1.5129  1.8106  0.5038
36339SOL     OW12421   1.852   1.841   4.851 -0.1686  0.0506 -0.4298
36339SOL    HW112422   1.926   1.783   4.867  0.3506  0.9693  0.5228
36339SOL    HW212423   1.775   1.785   4.864  0.3128 -0.1775  1.5085
36340SOL     OW12424   0.992   3.616   0.754  0.4654 -0.4452 -0.3525
36340SOL    HW112425   0.966   3.636   0.664  0.8211  0.2025 -0.3168
36340SOL    HW212426   1.084   3.641   0.759  0.5053 -0.6759  0.1319
36341SOL     OW12427   8.047   3.359   3.778  0.0216 -0.5186  0.2107
36341SOL    HW112428   8.036   3.268   3.749  1.0148 -0.0391 -1.6958
36341SOL    HW212429   8.017   3.412   3.704  0.0758  0.7241  1.0626
36342SOL     OW12430   9.337   3.402   8.176 -0.1844  0.3353 -0.3891
36342SOL    HW112431   9.297   3.315   8.177  0.3790  0.0759 -0.2487
36342SOL    HW212432   9.393   3.403   8.254  0.4683  0.5145 -0.8558
36343SOL     OW12433   8.522   5.872   9.790 -0.0162 -1.0564  0.0043
36343SOL    HW112434   8.492   5.963   9.796 -0.0744 -1.1048  0.4517
36343SOL    HW212435   8.499   5.846   9.700  0.8629 -0.3276 -0.4440
36344SOL     OW12436  10.060   1.739   4.769 -0.2684  0.5075  0.5880
36344SOL    HW112437  10.025   1.781   4.847  1.2571  1.5383  0.7350
36344SOL    HW212438  10.139   1.789   4.748 -0.8016  0.4174 -1.7688
36345SOL     OW12439   4.368   4.777   7.193 -1.0221 -0.0274  0.1741
36345SOL    HW112440   4.413   4.714   7.138 -2.3659 -0.2605 -0.6723
36345SOL    HW212441   4.321   4.834   7.132 -1.4824  0.5113  1.0128
36346SOL     OW12442   1.605   4.708   8.601  0.2278  0.1925 -0.1275
36346SOL    HW112443   1.630   4.801   8.600 -0.0377  0.2661 -0.5899
36346SOL    HW212444   1.512   4.709   8.624 -0.5606  0.2638 -3.0957
36347SOL     OW12445   8.751   8.098   4.988 -0.2632  0.0077  0.4471
36347SOL    HW112446   8.780   8.096   5.079  1.0510 -0.6459  0.0235
36347SOL    HW212447   8.657   8.079   4.993 -0.4136  0.9889  1.7378
36348SOL     OW12448   6.166   0.516  10.956  0.0264 -0.0663 -0.6741
36348SOL    HW112449   6.175   0.559  10.871 -1.8473  0.5729 -0.5786
36348SOL    HW212450   6.226   0.563  11.014 -0.6298  1.2161 -1.0221
36349SOL     OW12451   3.239   6.247   3.672 -0.3159  0.2836 -0.5007
36349SOL    HW112452   3.259   6.153   3.671 -0.7057  0.2158 -2.4139
36349SOL    HW212453   3.291   6.281   3.745  0.7813 -1.2007 -0.5629
36350SOL     OW12454   4.787   1.840   0.556  0.5681  0.5515 -0.5852
36350SOL    HW112455   4.748   1.921   0.523  1.4827  0.8778 -0.8994
36350SOL    HW212456   4.844   1.869   0.627  1.7391  0.3103 -1.4110
36351SOL     OW12457  10.820   7.466   6.872 -0.0266  0.4844 -0.1905
36351SOL    HW112458  10.830   7.372   6.856  0.6257  0.6878 -1.0045
36351SOL    HW212459  10.865   7.481   6.955 -0.3931  0.0272  0.0943
36352SOL     OW12460   3.398  10.973   5.108  0.4717 -0.3200 -0.6116
36352SOL    HW112461   3.461  10.989   5.039  0.0794 -0.0516 -0.9098
36352SOL    HW212462   3.313  10.990   5.068  0.2999  1.0046  0.2504
36353SOL     OW12463   4.837   6.553   7.362 -0.2192  0.6198  0.6041
36353SOL    HW112464   4.787   6.477   7.332 -0.4160  1.0972 -0.2915
36353SOL    HW212465   4.870   6.528   7.448  0.2330 -0.7203  0.0554
36354SOL     OW12466  10.261  10.009   0.425 -0.0507 -0.0450 -0.3371
36354SOL    HW112467  10.271  10.084   0.483 -0.5619  2.2077 -3.0844
36354SOL    HW212468  10.326  10.023   0.356  0.5114 -2.6488 -0.4088
36355SOL     OW12469   3.837   4.710   9.182  0.2557  0.1957  0.2302
36355SOL    HW112470   3.818   4.734   9.272 -1.8175  1.2218 -0.4418
36355SOL    HW212471   3.930   4.730   9.170  0.4855  0.2789  2.0425
36356SOL     OW12472   4.412   6.878   8.373 -0.4293 -0.1441  0.7216
36356SOL    HW112473   4.460   6.834   8.443 -0.8420 -1.8245 -0.0044
36356SOL    HW212474   4.468   6.950   8.346  0.5606 -0.5929  1.5545
36357SOL     OW12475   0.454   4.794   8.769  0.0722 -0.1746 -0.1275
36357SOL    HW112476   0.391   4.731   8.802  1.7952 -1.8616  0.0273
36357SOL    HW212477   0.522   4.741   8.728  1.8022  1.5563  0.4125
36358SOL     OW12478   5.879   4.063   1.052  0.2978  0.3339 -0.3124
36358SOL    HW112479   5.836   4.089   0.971  0.1340 -0.5122 -0.5032
36358SOL    HW212480   5.814   4.009   1.098  1.0102 -0.6600 -0.4393
36359SOL     OW12481   0.172   6.318   0.818  0.0021  0.2534  0.7154
36359SOL    HW112482   0.206   6.397   0.776  0.4821 -0.3881 -0.1059
36359SOL    HW212483   0.209   6.320   0.906 -0.8675  1.5048  1.0716
36360SOL     OW12484   9.886   1.472   5.364 -0.1550 -0.1577 -0.1236
36360SOL    HW112485   9.799   1.472   5.324 -0.1554 -0.7918 -0.1315
36360SOL    HW212486   9.888   1.391   5.415 -0.3062  0.8460  1.4864
36361SOL     OW12487   6.001   9.097  10.022 -0.0417  0.1203 -0.7617
36361SOL    HW112488   5.944   9.124  10.094 -0.1969 -1.2512 -0.3449
36361SOL    HW212489   5.941   9.080   9.950 -0.1827 -1.4332 -0.2889
36362SOL     OW12490   4.002   1.587   2.147 -0.6142 -0.6027 -0.6173
36362SOL    HW112491   3.923   1.569   2.095 -0.0336 -1.0075 -1.3663
36362SOL    HW212492   3.993   1.531   2.224 -1.5207  0.0648 -0.2295
36363SOL     OW12493   5.749   1.483   2.656  0.0901  0.2114 -0.4509
36363SOL    HW112494   5.688   1.412   2.637 -1.0828  1.0197  0.2331
36363SOL    HW212495   5.734   1.504   2.749  0.0845  1.6630 -0.7639
36364SOL     OW12496   2.534   5.331   4.968  0.8293 -0.0505 -0.2059
36364SOL    HW112497   2.464   5.316   5.031  2.1043  1.6308  1.6679
36364SOL    HW212498   2.537   5.426   4.957  1.8935 -0.1992 -1.3106
36365SOL     OW12499   5.934   7.891   9.979  0.1621 -0.1211  0.3755
36365SOL    HW112500   5.917   7.876   9.886 -0.1580  0.8306  0.2693
36365SOL    HW212501   6.008   7.834  10.000  1.2393  0.8025 -0.8394
36366SOL     OW12502   2.037   1.207   8.223  0.1150  0.1995  0.2304
36366SOL    HW112503   2.013   1.293   8.259  2.3713 -0.1172  2.6322
36366SOL    HW212504   2.131   1.200   8.239  0.3154 -1.9643 -1.6564
36367SOL     OW12505   2.361  10.583   6.411 -0.0196  0.3177  0.0623
36367SOL    HW112506   2.427  10.536   6.462 -1.0939 -0.3435  0.8635
36367SOL    HW212507   2.411  10.643   6.357  1.1962  0.4292  1.2789
36368SOL     OW12508   6.960   5.283   6.357 -0.4092  0.1401 -0.1197
36368SOL    HW112509   6.916   5.230   6.424 -2.0592  1.0240 -0.4814
36368SOL    HW212510   6.992   5.220   6.293  0.4602 -0.6555  1.0740
36369SOL     OW12511   3.393   8.555   0.688 -0.3529  0.0329  0.3815
36369SOL    HW112512   3.475   8.555   0.738 -0.4935  0.0626  0.6113
36369SOL    HW212513   3.374   8.462   0.674 -0.1869  0.0294  0.1754
36370SOL     OW12514   4.531   7.690   6.010 -0.2374 -0.1853  0.4265
36370SOL    HW112515   4.607   7.746   6.020 -0.7526  1.0951 -2.2395
36370SOL    HW212516   4.563   7.615   5.960 -0.0387 -1.2059  2.0654
36371SOL     OW12517   2.016   3.787   3.070 -0.4532 -0.5224 -0.6647
36371SOL    HW112518   2.051   3.837   2.996  1.9023 -0.2055  0.6159
36371SOL    HW212519   2.073   3.711   3.077 -0.2592 -0.2172  1.2151
36372SOL     OW12520   6.813   4.808   6.007 -0.4886 -0.5167  0.2738
36372SOL    HW112521   6.807   4.871   6.078  0.5394 -0.6639  0.5041
36372SOL    HW212522   6.724   4.775   5.995 -1.1469  1.3565 -0.1975
36373SOL     OW12523   6.681   3.549   6.748  0.2957  0.3521  0.1104
36373SOL    HW112524   6.764   3.526   6.791  0.1120 -1.2229 -0.3731
36373SOL    HW212525   6.666   3.479   6.685 -1.4677  0.5986  0.2449
36374SOL     OW12526   8.775   0.381   4.659 -0.6388 -0.0865 -0.3876
36374SOL    HW112527   8.783   0.357   4.566 -0.3633  2.2266 -0.9913
36374SOL    HW212528   8.850   0.338   4.701 -0.2106 -0.3511 -1.3993
36375SOL     OW12529   1.105   8.996   4.124 -0.5111  0.1466 -0.2699
36375SOL    HW112530   1.123   9.089   4.109  0.8790  0.0020  0.4342
36375SOL    HW212531   1.086   8.990   4.218 -2.6386  0.0278 -0.6816
36376SOL     OW12532   2.040   7.380   3.589 -0.4151  0.5184  0.3705
36376SOL    HW112533   2.002   7.353   3.672  2.8080 -0.1757  1.6957
36376SOL    HW212534   1.997   7.324   3.524  1.6513 -3.6095  2.3506
36377SOL     OW12535   7.340  10.317  10.150  0.1486 -0.2920  0.4857
36377SOL    HW112536   7.398  10.241  10.143 -0.3507 -0.7053  0.7636
36377SOL    HW212537   7.390  10.389  10.112  0.4495 -0.8574 -0.2207
36378SOL     OW12538   9.221   3.163   1.356  0.1528 -0.3966 -0.0800
36378SOL    HW112539   9.141   3.129   1.316  0.1049 -0.5301  0.1290
36378SOL    HW212540   9.237   3.105   1.430 -0.5179  0.6510  0.9149
36379SOL     OW12541   8.125   1.413   7.515  0.0813 -0.0345 -0.2845
36379SOL    HW112542   8.062   1.412   7.587 -0.4825 -0.8148 -0.7878
36379SOL    HW212543   8.116   1.327   7.474  0.3964  0.4078 -1.2938
36380SOL     OW12544   0.381  10.569   7.469 -1.0581 -0.1803 -0.4748
36380SOL    HW112545   0.291  10.547   7.491 -1.2907  2.0972  0.9487
36380SOL    HW212546   0.430  10.559   7.550 -0.2449 -0.2637 -0.9641
36381SOL     OW12547   8.428   7.158   9.357  0.4198 -0.4814  0.3297
36381SOL    HW112548   8.446   7.248   9.381  0.2961 -0.5647  0.7419
36381SOL    HW212549   8.486   7.140   9.283  0.9320 -0.2782  0.6840
36382SOL     OW12550   7.088   4.795   7.479 -0.2383  0.8224 -0.1760
36382SOL    HW112551   6.994   4.777   7.474 -0.2599  1.1592 -1.1105
36382SOL    HW212552   7.095   4.863   7.546 -0.5814  0.2850  0.4141
36383SOL     OW12553   6.216   0.254   9.792  0.1500  0.2046  0.5734
36383SOL    HW112554   6.153   0.203   9.742 -1.2683  0.7859  1.7288
36383SOL    HW212555   6.209   0.220   9.881  0.2827  1.3821  1.0428
36384SOL     OW12556   0.700   0.599   6.889  0.2922 -0.4347 -0.2787
36384SOL    HW112557   0.724   0.525   6.945  0.0727  0.6617  1.3155
36384SOL    HW212558   0.647   0.655   6.946 -0.1462  0.5959 -1.6779
36385SOL     OW12559   8.090   5.093   1.110  0.4770  0.1758 -0.1560
36385SOL    HW112560   8.032   5.054   1.176  0.3038 -0.4059 -0.6463
36385SOL    HW212561   8.103   5.183   1.140 -0.8266  0.3733 -0.1258
36386SOL     OW12562  10.781   0.566   8.301  0.7465 -0.0242  0.4680
36386SOL    HW112563  10.697   0.528   8.277  0.7051  0.0206  0.5415
36386SOL    HW212564  10.760   0.653   8.335  0.8911  0.2561 -0.1652
36387SOL     OW12565   3.098   8.803   9.641 -0.4001 -0.6036  0.0328
36387SOL    HW112566   3.080   8.839   9.728 -1.6184  1.2715 -0.9696
36387SOL    HW212567   3.056   8.717   9.642 -0.9370 -0.3475  1.0749
36388SOL     OW12568  10.581   4.512  10.296 -0.0994  0.0036  0.3549
36388SOL    HW112569  10.637   4.560  10.234 -1.2332  1.2272  0.2558
36388SOL    HW212570  10.628   4.516  10.379 -0.4287  1.7986  0.4793
36389SOL     OW12571   2.032   1.853   9.638  0.0887  0.3087  0.1014
36389SOL    HW112572   2.033   1.827   9.731  1.0741 -0.1027 -0.0211
36389SOL    HW212573   1.986   1.781   9.594  0.8666 -0.1826  0.0773
36390SOL     OW12574   0.288  10.719   5.139 -0.3163  0.3130 -0.0605
36390SOL    HW112575   0.280  10.796   5.197  0.5888  0.2644  0.1314
36390SOL    HW212576   0.233  10.653   5.181  0.8444  0.0650  1.1108
36391SOL     OW12577   8.285   9.129   6.558 -0.1559  0.0414  0.3053
36391SOL    HW112578   8.218   9.150   6.623  1.2252  2.5189  0.9480
36391SOL    HW212579   8.338   9.061   6.599 -0.9272 -0.3642  0.6522
36392SOL     OW12580   8.159   0.301   6.120  0.0538  0.2514 -0.3123
36392SOL    HW112581   8.183   0.359   6.191 -1.3609 -1.6628  1.8013
36392SOL    HW212582   8.140   0.217   6.162  0.3725 -1.2896 -3.0675
36393SOL     OW12583   8.872   2.147   7.766  0.4140  0.3092  0.2653
36393SOL    HW112584   8.855   2.194   7.848 -2.3942  0.6068 -0.4470
36393SOL    HW212585   8.801   2.084   7.759  1.6223 -0.9260 -1.0948
36394SOL     OW12586   3.294   5.594  10.923  0.4147 -0.3247 -0.0024
36394SOL    HW112587   3.223   5.599  10.987  0.7634 -0.8276  0.4339
36394SOL    HW212588   3.297   5.501  10.899  1.9066 -0.5905  1.1219
36395SOL     OW12589   5.382   3.026   0.985 -0.4049 -0.2624  0.2801
36395SOL    HW112590   5.436   3.026   1.064 -1.6388 -0.8724  1.1426
36395SOL    HW212591   5.416   2.954   0.932  0.4875  0.2120  0.2108
36396SOL     OW12592   8.098   1.623   1.077 -0.1737 -0.5600  0.4528
36396SOL    HW112593   8.168   1.685   1.059 -1.6685  0.7359 -1.0515
36396SOL    HW212594   8.024   1.677   1.105 -1.2551 -1.7196 -0.1302
36397SOL     OW12595   8.595   6.645   3.870 -0.1679 -0.0158 -0.3356
36397SOL    HW112596   8.540   6.645   3.948  1.1981 -0.5113  0.6443
36397SOL    HW212597   8.617   6.737   3.857  0.7774 -0.0746  0.7280
36398SOL     OW12598   2.176   6.032   0.180  0.1160  0.2596 -0.0441
36398SOL    HW112599   2.269   6.053   0.186  0.0392  1.3419 -1.9697
36398SOL    HW212600   2.132   6.110   0.212 -0.1315  0.9280 -1.9556
36399SOL     OW12601   0.584  10.488  10.084 -0.2846  0.8827 -0.5212
36399SOL    HW112602   0.573  10.537  10.002 -0.2346  3.4437  0.9293
36399SOL    HW212603   0.520  10.417  10.078 -2.6230  2.9523 -1.4162
36400SOL     OW12604   4.907   0.167   9.262  0.3019  0.0906  0.2463
36400SOL    HW112605   4.978   0.211   9.214  1.9930 -0.7131  1.9401
36400SOL    HW212606   4.880   0.095   9.205  3.7819 -2.2059  1.2945
36401SOL     OW12607   5.466   0.737  10.862  0.0651 -0.1362 -0.5582
36401SOL    HW112608   5.509   0.817  10.892 -0.5813 -0.0628  0.1821
36401SOL    HW212609   5.386   0.766  10.818  0.3956 -0.3161 -1.2890
36402SOL     OW12610   0.102   1.968   3.727  0.5408 -0.3605  0.5283
36402SOL    HW112611   0.143   1.972   3.641 -1.0561  1.1784 -0.2077
36402SOL    HW212612   0.145   1.895   3.772  1.0780 -1.4613 -1.7306
36403SOL     OW12613   1.851   7.808   2.974 -0.2259 -0.0663  0.8782
36403SOL    HW112614   1.899   7.778   2.897  1.4828  1.2003  1.4110
36403SOL    HW212615   1.777   7.858   2.938  1.2495  1.5611  0.0486
36404SOL     OW12616   3.043  10.495   7.807 -0.5003 -0.0129  0.0263
36404SOL    HW112617   3.128  10.535   7.828 -0.8934  0.0311  1.5898
36404SOL    HW212618   2.979  10.564   7.823 -1.0042 -0.6620  0.8559
36405SOL     OW12619   4.775   0.580   0.518  0.0599 -0.3694  0.2420
36405SOL    HW112620   4.746   0.619   0.435  2.3688  0.2374 -0.3204
36405SOL    HW212621   4.795   0.655   0.574 -0.8690 -0.7806  1.1341
36406SOL     OW12622  10.484   0.134   5.183  0.5542 -0.5776  0.2023
36406SOL    HW112623  10.507   0.099   5.097 -0.6984 -1.6248  0.2937
36406SOL    HW212624  10.567   0.170   5.217  1.3247 -1.2891 -0.8977
36407SOL     OW12625   6.326   5.486   8.700 -0.3040  0.5344  0.4091
36407SOL    HW112626   6.260   5.452   8.640  0.4819  0.2308 -0.2994
36407SOL    HW212627   6.345   5.574   8.668  1.9117 -0.5164 -1.3275
36408SOL     OW12628   4.198   0.492   0.248 -0.1564 -0.4057 -0.2632
36408SOL    HW112629   4.284   0.454   0.227  1.4008  2.4234  0.8068
36408SOL    HW212630   4.175   0.452   0.331  2.0923  1.8576  1.5273
36409SOL     OW12631   5.460   8.376   0.697  0.3357 -0.2173 -0.2794
36409SOL    HW112632   5.392   8.354   0.633  0.9173  1.1231 -1.3688
36409SOL    HW212633   5.516   8.299   0.700  0.3740 -0.2403 -1.4720
36410SOL     OW12634   5.591   6.746   6.958 -0.4122 -0.2024 -0.4656
36410SOL    HW112635   5.654   6.763   6.888  1.6443 -0.5988  1.2425
36410SOL    HW212636   5.626   6.670   7.004 -3.0679 -1.4928 -0.5163
36411SOL     OW12637   0.792   2.158  10.879  0.0394  0.8452 -0.3601
36411SOL    HW112638   0.884   2.182  10.868  0.3714  0.3083  1.1112
36411SOL    HW212639   0.792   2.062  10.871 -0.2130  0.7478  0.7906
36412SOL     OW12640   5.164   7.490   7.594 -0.2235 -0.1508  0.7349
36412SOL    HW112641   5.185   7.581   7.616 -2.4515  0.7129 -0.5561
36412SOL    HW212642   5.179   7.484   7.499 -0.2321 -1.1071  0.7867
36413SOL     OW12643   9.048   8.013   3.637 -0.9372  0.2849 -0.0908
36413SOL    HW112644   9.095   7.936   3.669  0.0396  0.3126 -1.4507
36413SOL    HW212645   8.955   7.991   3.647 -0.6581  0.0155  2.0890
36414SOL     OW12646  10.685   0.186   7.770  0.1046  0.1380 -0.5738
36414SOL    HW112647  10.735   0.108   7.793 -1.4392 -0.8630 -0.5610
36414SOL    HW212648  10.692   0.243   7.847  0.9296 -0.1336 -0.4455
36415SOL     OW12649   4.829   5.803   2.139  0.3348 -0.2746  0.0564
36415SOL    HW112650   4.920   5.806   2.169  0.1859  2.3735  0.3816
36415SOL    HW212651   4.793   5.723   2.178  2.0670 -0.4811  1.2685
36416SOL     OW12652   3.423   2.462   8.678  0.2574  0.2123  0.4029
36416SOL    HW112653   3.515   2.461   8.705 -0.2281 -0.0515  2.1332
36416SOL    HW212654   3.389   2.378   8.710 -1.2602  1.5140  2.2834
36417SOL     OW12655   4.844   5.280   4.821 -0.2610  0.7567  0.3119
36417SOL    HW112656   4.900   5.332   4.878  0.7376  0.0360 -0.0031
36417SOL    HW212657   4.816   5.206   4.875 -0.5038  0.8422  0.3067
36418SOL     OW12658   0.732   9.044   7.362 -0.4109 -0.4389 -0.3119
36418SOL    HW112659   0.777   9.126   7.382  0.4853 -0.7483 -1.0387
36418SOL    HW212660   0.639   9.067   7.361 -0.1687  0.5325 -0.3776
36419SOL     OW12661   6.439   6.271  10.675  0.3440  0.3917  0.7577
36419SOL    HW112662   6.405   6.297  10.760 -0.3139  0.5306  0.4561
36419SOL    HW212663   6.532   6.292  10.679  0.7394 -1.4776  2.1678
36420SOL     OW12664   3.126   7.558   4.720  0.3311 -0.5532  0.7417
36420SOL    HW112665   3.050   7.579   4.667  0.0803 -2.0364  0.4928
36420SOL    HW212666   3.172   7.641   4.730 -1.3838  0.3939  1.0149
36421SOL     OW12667   2.552   0.717   2.551 -0.3562  0.1701 -0.7948
36421SOL    HW112668   2.525   0.685   2.637 -1.0353  0.3841 -0.9211
36421SOL    HW212669   2.575   0.638   2.502  4.2582  0.2846  0.9465
36422SOL     OW12670   3.987   0.055   6.596 -0.4821  0.0447 -0.2360
36422SOL    HW112671   3.976   0.043   6.690 -1.8691  0.2327 -0.3646
36422SOL    HW212672   3.905   0.093   6.567 -0.0120  0.1174 -1.5094
36423SOL     OW12673  10.853   0.612   4.745  0.3347  0.3097 -0.1320
36423SOL    HW112674  10.926   0.607   4.805 -1.2180  0.1309  1.7901
36423SOL    HW212675  10.800   0.685   4.777 -1.0306 -0.4110 -0.6837
36424SOL     OW12676   6.246   9.205   3.287  0.0320  0.1562  0.1257
36424SOL    HW112677   6.303   9.218   3.211  1.5787  1.0666  1.4237
36424SOL    HW212678   6.285   9.258   3.356 -3.3034  2.1152  0.6097
36425SOL     OW12679  10.518   6.574   5.441 -0.2883 -0.0612 -0.1129
36425SOL    HW112680  10.510   6.485   5.409  0.6440 -0.9146  1.9499
36425SOL    HW212681  10.568   6.620   5.374  0.0839 -1.3454 -0.7200
36426SOL     OW12682   0.115   2.700   5.056 -0.0839  0.0951  0.3524
36426SOL    HW112683   0.101   2.696   4.961  3.5747  2.8817 -0.4112
36426SOL    HW212684   0.186   2.637   5.072  0.6228  1.0204  0.9122
36427SOL     OW12685   0.736   0.435   2.167  0.6108 -0.4455 -0.3512
36427SOL    HW112686   0.676   0.361   2.178  1.7198 -1.4694 -1.0888
36427SOL    HW212687   0.751   0.439   2.073  1.2712  0.1430 -0.2202
36428SOL     OW12688   5.938   2.607   9.278  0.0970 -0.4129  0.5842
36428SOL    HW112689   5.853   2.570   9.255 -0.0755 -0.1525  0.7925
36428SOL    HW212690   5.966   2.558   9.355 -1.1518  1.3370  2.2115
36429SOL     OW12691   9.193   9.545   1.651 -0.3230 -0.4111 -0.5589
36429SOL    HW112692   9.276   9.580   1.619 -0.6568 -1.4111 -2.6107
36429SOL    HW212693   9.163   9.608   1.716  2.1192 -0.1155  0.3545
36430SOL     OW12694   3.058   6.233   1.377 -0.4708 -0.4890  0.4809
36430SOL    HW112695   2.998   6.159   1.384 -0.5243 -0.4865  0.0491
36430SOL    HW212696   3.024   6.285   1.304 -0.4489 -0.0243  0.7983
36431SOL     OW12697  10.291   0.284   5.051 -0.1630 -0.0093  0.0709
36431SOL    HW112698  10.297   0.376   5.025  1.3106 -0.2447 -0.4343
36431SOL    HW212699  10.364   0.271   5.111 -1.8034 -0.2381  2.0731
36432SOL     OW12700   0.636   3.902   7.050 -0.1264  0.3494 -0.3968
36432SOL    HW112701   0.645   3.991   7.082 -0.1098  0.5701 -1.0086
36432SOL    HW212702   0.704   3.893   6.984 -0.7359  0.1897 -1.0109
36433SOL     OW12703   9.413   4.272   0.715 -0.3803 -0.7235  0.7534
36433SOL    HW112704   9.503   4.240   0.719  0.5367  1.9019  1.4350
36433SOL    HW212705   9.361   4.201   0.753  1.1755 -2.9558 -1.1444
36434SOL     OW12706   4.089   0.268   9.055  0.9789 -0.1327 -0.1623
36434SOL    HW112707   4.043   0.197   9.099  1.3576 -1.0848 -1.2549
36434SOL    HW212708   4.033   0.345   9.066 -1.8061 -1.6488 -2.9670
36435SOL     OW12709   5.466   0.592   9.542 -0.1613  0.6063  0.6517
36435SOL    HW112710   5.399   0.634   9.488 -2.3292 -2.7778  0.6400
36435SOL    HW212711   5.430   0.593   9.630 -0.0864 -0.9897  0.6969
36436SOL     OW12712   9.263   7.421   9.028  0.2178  0.2255 -0.0826
36436SOL    HW112713   9.227   7.346   9.075 -0.1273 -0.1618 -0.9589
36436SOL    HW212714   9.281   7.389   8.940 -0.6729  1.3793 -0.7003
36437SOL     OW12715   5.663   4.689  10.134 -0.4466  0.2069  0.2000
36437SOL    HW112716   5.666   4.690  10.039  0.4850  2.0706  0.2141
36437SOL    HW212717   5.571   4.676  10.156 -0.5664 -0.9162 -0.9340
36438SOL     OW12718   7.612   2.898   6.477 -0.5812  0.9908 -0.5446
36438SOL    HW112719   7.692   2.882   6.428 -0.5035  1.1665 -0.4759
36438SOL    HW212720   7.640   2.947   6.554 -0.4627 -0.7420  0.5441
36439SOL     OW12721   9.834   2.367   0.958 -0.4022 -0.0252  0.4313
36439SOL    HW112722   9.897   2.298   0.980 -0.0801  0.1050 -0.0887
36439SOL    HW212723   9.810   2.405   1.043  0.8067  0.4428  0.5691
36440SOL     OW12724  10.417   0.482  10.185  0.1553 -0.3246 -0.1808
36440SOL    HW112725  10.432   0.517  10.273  1.6385 -1.6823  0.1136
36440SOL    HW212726  10.409   0.560  10.130  1.4117  0.5237  0.8002
36441SOL     OW12727   4.751   1.476   9.417  0.0982 -0.2928 -0.5592
36441SOL    HW112728   4.830   1.531   9.416  0.8492 -1.3003  0.9783
36441SOL    HW212729   4.683   1.532   9.455  0.7560 -0.2696  0.6075
36442SOL     OW12730   4.977   8.239   4.420  0.1420 -0.2060 -0.5622
36442SOL    HW112731   5.026   8.320   4.436 -0.6997  0.1684  0.1389
36442SOL    HW212732   4.979   8.229   4.325  0.0329  0.7786 -0.6748
36443SOL     OW12733  10.398   7.921   1.903  0.1455 -0.2767  0.3300
36443SOL    HW112734  10.489   7.946   1.887  1.0327 -2.7146  1.4341
36443SOL    HW212735  10.400   7.868   1.982 -2.0965 -1.1696 -0.1498
36444SOL     OW12736   8.510   8.177   7.821 -0.1656 -0.5829  0.1001
36444SOL    HW112737   8.455   8.115   7.772 -0.7619  0.0054  0.0276
36444SOL    HW212738   8.498   8.152   7.913 -0.6482 -0.3763  0.0918
36445SOL     OW12739   1.659   2.749   3.779  0.0223  0.1586 -0.3227
36445SOL    HW112740   1.741   2.775   3.822 -0.3278 -1.6352  1.4989
36445SOL    HW212741   1.687   2.695   3.705  0.5568  1.7154 -1.2944
36446SOL     OW12742   0.077   2.800   8.906 -0.1529 -0.1155 -0.2003
36446SOL    HW112743   0.022   2.858   8.853  0.0106  1.3366  1.1708
36446SOL    HW212744   0.015   2.748   8.956 -0.3225 -1.9951 -2.2891
36447SOL     OW12745   4.709   0.663   0.272 -0.3832 -0.0410  0.3675
36447SOL    HW112746   4.714   0.596   0.205  0.8295 -0.0343  0.4476
36447SOL    HW212747   4.779   0.725   0.250 -1.1645  0.9289  0.5761
36448SOL     OW12748   6.609   0.206   5.292  0.2975  0.7055  0.0737
36448SOL    HW112749   6.592   0.260   5.215  0.5767  1.2415  0.3802
36448SOL    HW212750   6.592   0.264   5.366  0.4005  0.3107  0.4100
36449SOL     OW12751  10.465   1.917   7.971  0.3789 -0.2123  0.0575
36449SOL    HW112752  10.511   1.872   8.041  1.1392 -0.3650 -0.5284
36449SOL    HW212753  10.446   1.849   7.906  0.1337  0.0214 -0.1189
36450SOL     OW12754   2.102   5.116   9.286  0.0887  0.2456  0.9204
36450SOL    HW112755   2.181   5.162   9.259  1.3636 -1.9015  0.8831
36450SOL    HW212756   2.064   5.084   9.204 -0.5435  0.7868  0.9900
36451SOL     OW12757  10.822   4.471   3.547  0.0934 -0.4869  0.1697
36451SOL    HW112758  10.775   4.518   3.479 -0.5779  0.6830  1.4004
36451SOL    HW212759  10.807   4.522   3.627  2.1899 -0.9208  0.8986
36452SOL     OW12760   7.419   6.398   9.385 -0.3323  0.4238  0.5429
36452SOL    HW112761   7.438   6.433   9.472  0.2447 -0.4060  0.7580
36452SOL    HW212762   7.502   6.406   9.337 -0.4551  0.2189  0.2934
36453SOL     OW12763   2.725   3.336   4.125 -0.1529 -0.3187  0.9537
36453SOL    HW112764   2.761   3.407   4.072 -0.8899 -0.3344  0.4231
36453SOL    HW212765   2.745   3.361   4.215 -2.9280  2.0615  1.0132
36454SOL     OW12766   6.011   2.089   6.179 -0.1309  0.2522 -0.4928
36454SOL    HW112767   5.971   2.021   6.233  0.0886  1.1536  0.8096
36454SOL    HW212768   5.939   2.147   6.155  0.0197  0.6755  0.0665
36455SOL     OW12769   4.203  10.024   9.204 -0.6007  0.1850  0.3129
36455SOL    HW112770   4.144  10.087   9.247 -1.0303 -0.1446  0.2113
36455SOL    HW212771   4.144   9.966   9.155 -0.1337  0.3771 -0.4881
36456SOL     OW12772   7.440   7.496   5.665 -0.1758  0.6263 -0.1780
36456SOL    HW112773   7.510   7.518   5.726 -0.1515  0.8957 -0.3064
36456SOL    HW212774   7.458   7.549   5.588  0.3614 -0.4456 -0.8019
36457SOL     OW12775   5.017   5.132   4.578 -0.0311 -0.0388 -0.5765
36457SOL    HW112776   5.043   5.107   4.489  1.1139  0.4354 -0.3795
36457SOL    HW212777   5.081   5.091   4.635 -0.7879 -0.3703  0.0407
36458SOL     OW12778   9.107   3.720   7.137  0.5253  0.5257  0.1106
36458SOL    HW112779   9.138   3.801   7.096  0.4269  0.2617 -0.4896
36458SOL    HW212780   9.118   3.654   7.070 -1.5601  0.4624 -0.1966
36459SOL     OW12781   8.478   8.921   1.932  0.2705 -0.6033  0.0598
36459SOL    HW112782   8.559   8.885   1.967 -0.1848 -0.4395  1.2994
36459SOL    HW212783   8.409   8.881   1.985 -0.4510 -0.6481 -0.9070
36460SOL     OW12784   0.818  10.896   6.245  0.0953 -0.1156  0.0883
36460SOL    HW112785   0.758  10.821   6.249  0.1241 -0.1153  0.5187
36460SOL    HW212786   0.870  10.880   6.166 -0.2031 -0.3174 -0.0706
36461SOL     OW12787  10.967   5.781   0.954 -0.5443 -0.1179 -0.0951
36461SOL    HW112788  10.892   5.726   0.978  0.3195 -1.7065 -0.9799
36461SOL    HW212789  11.005   5.738   0.878  0.7381  1.1818 -0.2017
36462SOL     OW12790   2.021   1.535  10.389  0.0361  0.0154  1.1291
36462SOL    HW112791   1.970   1.460  10.360 -0.6310 -0.1423  2.6827
36462SOL    HW212792   2.089   1.545  10.322 -0.2850 -1.5427  0.5559
36463SOL     OW12793   0.921   6.367   1.907  0.2627 -0.2599  0.0379
36463SOL    HW112794   0.840   6.319   1.898 -0.0909  0.1313  1.0423
36463SOL    HW212795   0.910   6.445   1.852 -0.5100  0.3913  1.1168
36464SOL     OW12796   7.423   2.548   9.932 -0.0835 -0.2148 -0.3625
36464SOL    HW112797   7.398   2.496  10.008 -1.4386  1.0653  0.0858
36464SOL    HW212798   7.500   2.503   9.897  0.0211 -1.3254  1.2300
36465SOL     OW12799   7.623   9.791   9.512  0.8126 -0.6247  0.2564
36465SOL    HW112800   7.601   9.707   9.472 -3.2729  1.0491 -1.3078
36465SOL    HW212801   7.657   9.844   9.440 -0.5101  0.3507  0.3291
36466SOL     OW12802   9.272   5.720   5.239  0.0917  0.3981  0.1938
36466SOL    HW112803   9.253   5.791   5.302  2.3150  0.9445  0.2960
36466SOL    HW212804   9.366   5.704   5.250 -0.3031 -2.2824 -0.1571
36467SOL     OW12805   0.796   6.326   2.877 -0.3115  0.2830 -0.2015
36467SOL    HW112806   0.885   6.291   2.876 -0.7329 -0.7902 -0.1062
36467SOL    HW212807   0.806   6.414   2.913  0.7304  0.2227 -0.3203
36468SOL     OW12808   4.658   1.800   4.526 -0.0228  0.0393 -0.3072
36468SOL    HW112809   4.736   1.854   4.515 -1.0019  1.4454 -0.4110
36468SOL    HW212810   4.680   1.717   4.483  2.1758 -0.3466  1.4609
36469SOL     OW12811   7.889   3.385   3.234 -0.0178 -0.2738 -0.8685
36469SOL    HW112812   7.822   3.425   3.179 -0.2464 -0.6992 -0.9038
36469SOL    HW212813   7.863   3.293   3.241  0.8826 -0.5679 -1.3589
36470SOL     OW12814   7.417   2.921  10.725  0.0360 -0.0124 -0.0454
36470SOL    HW112815   7.414   2.827  10.708 -0.3981  0.1011 -0.6287
36470SOL    HW212816   7.478   2.931  10.798 -1.0954 -0.8901  1.0312
36471SOL     OW12817   8.435   1.690   5.168  0.3638  0.2890  0.0785
36471SOL    HW112818   8.403   1.602   5.185  0.5665  0.0217 -0.9187
36471SOL    HW212819   8.373   1.726   5.104  1.6614 -0.0087 -1.3774
36472SOL     OW12820   8.112   8.688   7.667  0.2275 -0.1821  0.3177
36472SOL    HW112821   8.154   8.772   7.684 -1.8720  0.4053  2.8321
36472SOL    HW212822   8.027   8.694   7.710 -1.3519 -2.3712 -2.2893
36473SOL     OW12823   8.068   1.743   1.452  0.4690  0.4948 -0.2293
36473SOL    HW112824   8.054   1.651   1.473 -0.5665  0.6452 -0.1912
36473SOL    HW212825   7.980   1.775   1.431  0.6019  1.8263  1.1876
36474SOL     OW12826   0.302  10.342  10.691 -0.3800  0.2770  0.5691
36474SOL    HW112827   0.219  10.329  10.645 -0.9126  0.7109  1.3929
36474SOL    HW212828   0.330  10.253  10.714 -0.9297  0.1623  0.8192
36475SOL     OW12829   8.078   1.399   0.136 -0.0841 -0.4180 -0.2897
36475SOL    HW112830   8.039   1.477   0.098 -0.0830 -1.7989 -3.3210
36475SOL    HW212831   8.003   1.344   0.160 -0.0846 -1.6265 -2.9437
36476SOL     OW12832   6.289   0.778   5.131  0.3005 -0.0047 -0.8346
36476SOL    HW112833   6.210   0.815   5.092  0.6736 -0.0695 -1.6839
36476SOL    HW212834   6.357   0.843   5.113  0.4549  0.0200 -0.1727
36477SOL     OW12835   1.676   2.127   6.415 -0.6145 -0.0822 -0.2406
36477SOL    HW112836   1.616   2.080   6.473 -0.1127  0.2890  0.5981
36477SOL    HW212837   1.734   2.175   6.475 -1.1754  1.6715 -1.0638
36478SOL     OW12838   7.972   7.599   3.740 -0.3335 -0.5114  0.0112
36478SOL    HW112839   8.026   7.520   3.736  0.1344 -0.0771 -3.2758
36478SOL    HW212840   8.030   7.670   3.716 -1.5804  0.3618 -0.5103
36479SOL     OW12841   9.611   7.479   9.258 -0.3017 -0.1673 -0.0644
36479SOL    HW112842   9.533   7.531   9.280 -0.2173 -0.0449 -0.0540
36479SOL    HW212843   9.576   7.398   9.222 -0.4248  0.4283 -1.3066
36480SOL     OW12844   1.886  10.963   4.417  0.0611  0.1194  0.6053
36480SOL    HW112845   1.868  10.911   4.496 -0.1451 -0.3053  0.2807
36480SOL    HW212846   1.825  10.929   4.352  1.6186 -0.9222 -0.3349
36481SOL     OW12847   4.506   0.924   0.031  0.4170  0.1311 -0.1708
36481SOL    HW112848   4.573   0.992   0.035  0.8315 -0.3257  0.7454
36481SOL    HW212849   4.545   0.849   0.076 -2.1770  1.1283  3.9591
36482SOL     OW12850  10.578   4.086   4.239  0.1366  0.0170  0.0163
36482SOL    HW112851  10.541   4.066   4.152 -0.2533 -0.4274  0.2792
36482SOL    HW212852  10.611   4.001   4.270 -1.2652 -0.1701  1.0245
36483SOL     OW12853   9.748   2.584   8.240 -0.2043 -0.1937 -0.2826
36483SOL    HW112854   9.675   2.564   8.299 -0.9124 -1.9003 -1.6849
36483SOL    HW212855   9.717   2.555   8.154  2.7510 -2.5231 -0.6323
36484SOL     OW12856   2.337   3.837   1.370  0.1452 -0.0549 -0.1318
36484SOL    HW112857   2.407   3.773   1.386 -2.1614 -2.9875 -1.1116
36484SOL    HW212858   2.292   3.845   1.454  1.9999  2.3785  0.6893
36485SOL     OW12859   4.122   4.844   8.300 -0.0678  0.2637 -0.6800
36485SOL    HW112860   4.188   4.846   8.369  1.4796 -1.0623 -2.0873
36485SOL    HW212861   4.039   4.857   8.346  0.9471 -0.4058  1.4106
36486SOL     OW12862   1.168   8.697   3.770 -0.2712 -0.3572  0.0361
36486SOL    HW112863   1.260   8.670   3.766 -0.4622 -0.7899 -1.9463
36486SOL    HW212864   1.147   8.695   3.864  1.4653 -1.1662  0.4391
36487SOL     OW12865   2.591   9.719   1.845 -0.4287  0.0776  0.0770
36487SOL    HW112866   2.685   9.737   1.853 -0.6040  1.0111  0.1290
36487SOL    HW212867   2.549   9.801   1.871 -1.3021 -0.8590  1.6954
36488SOL     OW12868   2.174   1.865   0.897  0.5513  0.1868 -0.7215
36488SOL    HW112869   2.159   1.931   0.830 -0.6169  2.8788  2.0422
36488SOL    HW212870   2.269   1.852   0.897  0.6738  0.9855 -2.1232
36489SOL     OW12871   3.186   4.452   1.383 -0.0506  0.3049  0.2366
36489SOL    HW112872   3.238   4.505   1.444 -1.0499  1.5977  0.0071
36489SOL    HW212873   3.098   4.488   1.390 -0.0585  0.9131 -2.4409
36490SOL     OW12874   1.119   6.424   7.029  0.3264  0.1857  0.1994
36490SOL    HW112875   1.164   6.370   7.093  1.4534 -1.1532 -1.6733
36490SOL    HW212876   1.131   6.514   7.059 -0.8502 -0.5146  2.8982
36491SOL     OW12877   2.171   9.211   1.510 -0.3764 -0.3679  0.0785
36491SOL    HW112878   2.209   9.230   1.596  2.1550 -0.7074 -0.9229
36491SOL    HW212879   2.103   9.146   1.528 -0.5085  0.2297  1.9301
36492SOL     OW12880   0.082   2.248   2.344 -0.7925 -0.5566  0.2720
36492SOL    HW112881   0.105   2.263   2.435 -1.0305  1.9108 -0.0451
36492SOL    HW212882   0.084   2.335   2.304  1.5990 -1.8603 -2.6109
36493SOL     OW12883   2.471   1.804   1.568 -0.0524 -0.0059  0.0194
36493SOL    HW112884   2.549   1.845   1.604 -0.0189  0.2652 -0.3655
36493SOL    HW212885   2.453   1.852   1.487 -2.3521  1.9126  1.6117
36494SOL     OW12886   6.454   0.259   1.668 -0.3520 -0.2186 -0.3097
36494SOL    HW112887   6.525   0.284   1.609 -0.3776 -0.6320 -0.5171
36494SOL    HW212888   6.489   0.183   1.716 -0.3764  0.0377  0.1216
36495SOL     OW12889   1.598   1.930   3.661  0.4422 -0.3747  1.0768
36495SOL    HW112890   1.535   1.870   3.699 -0.6703 -0.5875 -1.0247
36495SOL    HW212891   1.653   1.875   3.605  0.9949  0.1770  1.0706
36496SOL     OW12892   9.643   0.102   3.379 -0.4136  0.8097  0.1937
36496SOL    HW112893   9.576   0.168   3.392 -0.0752  1.7301 -2.5821
36496SOL    HW212894   9.626   0.066   3.292  1.7625 -0.0349  0.0804
36497SOL     OW12895   0.466   8.653   6.330 -0.0385 -0.6107 -0.0351
36497SOL    HW112896   0.460   8.704   6.249 -2.7785  1.8839  1.6533
36497SOL    HW212897   0.376   8.642   6.358  0.9684  0.4877  3.8515
36498SOL     OW12898   4.795   7.756  10.621 -0.0202 -0.2267 -0.3466
36498SOL    HW112899   4.777   7.671  10.662  0.4025 -0.9497 -1.6070
36498SOL    HW212900   4.796   7.818  10.693 -0.6348 -1.2504  0.5643
36499SOL     OW12901  10.750   3.382   2.042  0.5133  0.5496  0.4271
36499SOL    HW112902  10.781   3.329   1.969 -0.3383  0.2257  0.2993
36499SOL    HW212903  10.663   3.349   2.061  0.6847  0.7038  1.5259
36500SOL     OW12904   8.352   5.585   0.579 -0.2042 -0.1407 -0.1789
36500SOL    HW112905   8.376   5.514   0.639  0.2171  0.2823  0.1593
36500SOL    HW212906   8.344   5.662   0.635  2.2329  0.7079 -0.9235
36501SOL     OW12907   6.432   5.623   6.492  0.3190  0.1061  0.5239
36501SOL    HW112908   6.421   5.545   6.546  2.2293  0.0642  0.8724
36501SOL    HW212909   6.364   5.683   6.524 -0.0458 -0.7684  1.4198
36502SOL     OW12910   2.510   2.024   8.288  0.0569 -0.2690 -0.0672
36502SOL    HW112911   2.532   2.113   8.261 -1.3354  0.3616  0.8502
36502SOL    HW212912   2.588   1.973   8.267  0.4714  0.9459 -1.6206
36503SOL     OW12913   5.236   3.440   0.159 -0.2686  0.4763 -0.4560
36503SOL    HW112914   5.308   3.444   0.222 -0.7519  0.1059  0.1385
36503SOL    HW212915   5.228   3.347   0.138  0.7332  0.7516 -2.0723
36504SOL     OW12916   7.308   5.064   9.429  0.2701 -0.6001  0.3869
36504SOL    HW112917   7.269   5.131   9.485 -1.3638  0.5848 -2.0534
36504SOL    HW212918   7.235   5.008   9.405  1.0413 -1.3991 -0.1106
36505SOL     OW12919   1.148   4.242  10.214 -0.1887 -0.4270  0.2927
36505SOL    HW112920   1.221   4.277  10.265 -0.9279  2.6369 -0.6413
36505SOL    HW212921   1.074   4.245  10.274 -0.6047  1.2219 -0.2721
36506SOL     OW12922   0.652   5.478   9.783 -0.3412 -0.0828 -0.6031
36506SOL    HW112923   0.593   5.550   9.806 -0.6992 -0.1201 -1.3817
36506SOL    HW212924   0.736   5.521   9.763  0.1894 -0.1156  1.4689
36507SOL     OW12925   9.740  10.534   0.063 -0.8836  0.0696  0.1422
36507SOL    HW112926   9.670  10.575   0.114  0.4039  0.3956  1.6917
36507SOL    HW212927   9.777  10.605   0.011 -1.6856 -0.0978 -0.6597
36508SOL     OW12928   8.734   2.451   0.630 -0.1237  0.3776  0.4741
36508SOL    HW112929   8.736   2.477   0.723  1.1692 -0.3881  0.6739
36508SOL    HW212930   8.766   2.361   0.630 -0.9183  0.0852 -0.6383
36509SOL     OW12931   2.603   8.144   1.881 -0.2373 -0.0101  0.4049
36509SOL    HW112932   2.563   8.089   1.947  2.2603  0.0695  2.0360
36509SOL    HW212933   2.692   8.158   1.911  0.1045  2.4255 -1.5127
36510SOL     OW12934   1.734   4.377   1.713 -0.1713 -0.3121 -0.5076
36510SOL    HW112935   1.656   4.351   1.663 -0.6815  0.5358 -0.1709
36510SOL    HW212936   1.760   4.461   1.674 -0.5345  0.3253  0.6029
36511SOL     OW12937   0.108   0.464   9.248  0.2048  0.0659  0.5404
36511SOL    HW112938   0.182   0.517   9.222 -0.0799  0.5197  0.6533
36511SOL    HW212939   0.068   0.511   9.322 -1.3455  0.8389 -0.7559
36512SOL     OW12940   3.303   5.815   1.290 -0.2053  0.3139 -0.2775
36512SOL    HW112941   3.271   5.740   1.240 -0.2063  0.4870 -0.5404
36512SOL    HW212942   3.281   5.891   1.236  1.9440  0.3395 -1.1764
36513SOL     OW12943   9.117   7.728   3.645 -0.0196  0.1933 -0.0150
36513SOL    HW112944   9.121   7.683   3.560  0.5924  0.1428  0.0404
36513SOL    HW212945   9.024   7.745   3.658 -0.1829 -0.3759 -0.3976
36514SOL     OW12946   8.472   4.621   4.576  0.7135 -0.1948  0.3028
36514SOL    HW112947   8.539   4.558   4.601  1.1328 -0.0195 -0.3725
36514SOL    HW212948   8.510   4.706   4.594  0.8514 -0.0804 -0.5067
36515SOL     OW12949   1.400   4.996   6.999  0.1505  0.0810  0.3132
36515SOL    HW112950   1.393   5.009   7.094 -0.2635  1.4043  0.1187
36515SOL    HW212951   1.415   5.084   6.965 -1.1807 -0.1838 -0.9866
36516SOL     OW12952   7.140   1.304  10.560 -0.9448  0.0989 -0.9222
36516SOL    HW112953   7.209   1.268  10.616 -0.5025  2.4712  0.1257
36516SOL    HW212954   7.072   1.236  10.560 -0.3233 -0.5856  1.3297
36517SOL     OW12955   0.360  10.126   3.115 -0.8377  0.6720  0.2189
36517SOL    HW112956   0.329  10.038   3.091  0.2999  0.5937 -1.0555
36517SOL    HW212957   0.377  10.120   3.209 -1.5653 -0.2266  0.3074
36518SOL     OW12958   2.801   6.916   5.562 -0.0176  0.1745  0.7680
36518SOL    HW112959   2.781   6.837   5.612 -1.7456  1.6855  2.5639
36518SOL    HW212960   2.856   6.968   5.621 -1.3408  1.5913  0.7852
36519SOL     OW12961   9.488  10.216   2.307  0.0102 -0.5649  0.2130
36519SOL    HW112962   9.581  10.194   2.297  0.0508 -0.3845  0.1863
36519SOL    HW212963   9.442  10.139   2.273  0.1495 -1.2980  1.6592
36520SOL     OW12964   8.977   3.212   6.096 -0.4378 -0.0134  0.2452
36520SOL    HW112965   8.882   3.206   6.104 -0.4163 -1.7427 -0.6799
36520SOL    HW212966   9.006   3.122   6.086  1.0785  0.6892 -1.9428
36521SOL     OW12967   7.479  10.206   7.899 -0.0099  0.0832  0.3680
36521SOL    HW112968   7.479  10.117   7.935 -0.1922  0.2334  0.7415
36521SOL    HW212969   7.415  10.203   7.828  0.8000 -0.3753 -0.3455
36522SOL     OW12970   8.293   3.771   3.381  0.3058 -0.3907 -0.4517
36522SOL    HW112971   8.355   3.699   3.397  0.6122  0.1717  1.0086
36522SOL    HW212972   8.341   3.834   3.328  0.4913 -0.6402 -0.5780
36523SOL     OW12973   9.835   3.822  10.468  0.4645 -0.3594 -0.4013
36523SOL    HW112974   9.770   3.837  10.400 -0.7676 -0.8948  0.6464
36523SOL    HW212975   9.892   3.899  10.465 -1.1892  0.8804 -0.2204
36524SOL     OW12976   4.186   7.016   1.153  0.3195 -0.4555 -0.2796
36524SOL    HW112977   4.183   6.924   1.176  0.5802 -1.2389 -3.1338
36524SOL    HW212978   4.193   7.062   1.236  1.0764 -3.0470  1.1312
36525SOL     OW12979   7.533   3.974   2.725 -0.0410 -0.1711  0.9537
36525SOL    HW112980   7.619   4.009   2.750 -0.1609  1.0918 -0.3287
36525SOL    HW212981   7.551   3.913   2.654 -0.2117  0.1507  0.6332
36526SOL     OW12982   0.978   0.851   5.345  0.3735  0.2042 -0.1958
36526SOL    HW112983   0.928   0.923   5.308  0.1591 -0.4921 -1.2818
36526SOL    HW212984   1.055   0.843   5.289  0.5908 -0.1622  0.1442
36527SOL     OW12985   0.536   8.801   9.864 -1.0908 -0.3268 -0.0101
36527SOL    HW112986   0.485   8.721   9.848 -1.1962 -0.4802  1.0458
36527SOL    HW212987   0.610   8.795   9.803 -0.8703 -1.4414  0.3513
36528SOL     OW12988   6.256   3.959   3.891  0.0324  0.2031  0.1830
36528SOL    HW112989   6.253   3.955   3.987  1.3489 -0.0398  0.2275
36528SOL    HW212990   6.269   3.868   3.864 -1.7999  0.0714 -0.3025
36529SOL     OW12991   4.560   0.620   8.356 -0.0480 -0.3238  0.2360
36529SOL    HW112992   4.573   0.659   8.270  0.0345  1.6217  1.1031
36529SOL    HW212993   4.582   0.528   8.345  0.0264 -0.0681 -1.7983
36530SOL     OW12994   6.433  10.315   9.911 -0.4278  0.1676 -0.2964
36530SOL    HW112995   6.526  10.318   9.890 -0.6275  1.0069 -1.0745
36530SOL    HW212996   6.391  10.282   9.831 -0.7713 -0.5248  0.1610
36531SOL     OW12997   9.287  10.267   0.151  0.0858 -0.0522  0.6169
36531SOL    HW112998   9.373  10.238   0.181  0.8468  0.1052 -1.3621
36531SOL    HW212999   9.238  10.186   0.136  0.8109 -0.2204 -0.8768
36532SOL     OW13000   2.008  10.124   1.450  0.2714 -0.5788 -0.6790
36532SOL    HW113001   1.939  10.072   1.410  0.7856 -0.0607 -2.3352
36532SOL    HW213002   1.971  10.157   1.531 -1.4269 -0.3002 -1.5522
36533SOL     OW13003   7.121   7.186  10.096 -0.0929  0.6007 -0.1649
36533SOL    HW113004   7.179   7.113  10.118 -2.0305 -1.4994 -1.8820
36533SOL    HW213005   7.058   7.188  10.168 -0.6715 -0.0990 -0.6514
36534SOL     OW13006   0.930   6.221   7.115 -0.5466  0.2770 -0.3747
36534SOL    HW113007   0.924   6.197   7.207 -0.4878  0.0167 -0.4382
36534SOL    HW213008   0.955   6.314   7.115 -0.8029  0.3460 -0.1280
36535SOL     OW13009   0.534   9.223  10.833 -0.0999  0.6589  0.3490
36535SOL    HW113010   0.482   9.221  10.913  1.2959 -0.0650  1.2338
36535SOL    HW213011   0.529   9.134  10.799 -0.3080  0.8537 -0.1434
36536SOL     OW13012   5.268   3.906   8.306 -0.5705 -0.3676  0.3449
36536SOL    HW113013   5.331   3.940   8.369  0.8583 -0.9066 -0.7724
36536SOL    HW213014   5.292   3.814   8.295  0.1172  0.0569 -2.0549
36537SOL     OW13015   4.615   5.691   4.095  0.2136 -0.4674 -0.4021
36537SOL    HW113016   4.538   5.652   4.055 -0.0630  0.4841 -0.8100
36537SOL    HW213017   4.588   5.780   4.117  0.4595 -0.8930  1.6400
36538SOL     OW13018   8.728   8.000   1.432 -0.4664  0.5317  0.1106
36538SOL    HW113019   8.646   8.031   1.471 -1.1484 -1.8734  0.6704
36538SOL    HW213020   8.780   7.969   1.507  0.3956  0.7854 -0.3783
36539SOL     OW13021   7.511   8.673   5.696 -0.4037  0.6370 -0.5098
36539SOL    HW113022   7.550   8.669   5.784  1.3313  1.5621 -1.2141
36539SOL    HW213023   7.528   8.762   5.667  1.4648 -0.4188 -2.8538
36540SOL     OW13024   2.130   7.620   2.264  0.1050  0.6987  0.4319
36540SOL    HW113025   2.149   7.572   2.345  1.4053  0.5289  0.0281
36540SOL    HW213026   2.213   7.661   2.240  0.7302 -2.2971 -2.8806
36541SOL     OW13027   7.341  10.469   9.793 -0.0508 -0.3568  0.5334
36541SOL    HW113028   7.261  10.435   9.753 -0.0785 -0.3278  0.5640
36541SOL    HW213029   7.385  10.391   9.827 -0.6235 -0.2591  1.5320
36542SOL     OW13030   2.763   2.191   1.259  0.1424 -0.7461  0.8138
36542SOL    HW113031   2.817   2.165   1.334 -0.5229 -2.1209  0.8347
36542SOL    HW213032   2.803   2.272   1.227  0.0639  0.2436  3.0656
36543SOL     OW13033   2.551   3.151   2.006 -0.1954 -0.1775 -0.0957
36543SOL    HW113034   2.644   3.151   1.983 -0.2140  1.0683 -0.1994
36543SOL    HW213035   2.519   3.066   1.976  0.5949 -0.0325 -1.3914
36544SOL     OW13036   6.605   4.473   4.637  0.5538  0.0042  0.0323
36544SOL    HW113037   6.535   4.413   4.611 -0.9009  2.7463 -2.7076
36544SOL    HW213038   6.669   4.467   4.567  0.9307  0.8025  0.3013
36545SOL     OW13039   9.370   0.308   8.044 -0.5498  0.2227 -0.2434
36545SOL    HW113040   9.353   0.369   7.972  0.6248  1.1338  0.2371
36545SOL    HW213041   9.444   0.346   8.090  1.1813 -2.3614 -0.8176
36546SOL     OW13042   8.279   7.095   9.017 -0.5054  0.1638  0.0797
36546SOL    HW113043   8.228   7.019   8.992  0.4602  0.2452 -2.2882
36546SOL    HW213044   8.364   7.082   8.974  0.0722  2.0071  0.6082
36547SOL     OW13045   6.182   8.184   9.178 -0.3639  1.1723  0.2551
36547SOL    HW113046   6.259   8.240   9.185 -0.0089  0.6369  0.6860
36547SOL    HW213047   6.187   8.127   9.255 -0.1745 -0.1290 -0.6968
36548SOL     OW13048   9.139   2.433   7.844  0.2824  0.2118  0.3380
36548SOL    HW113049   9.158   2.397   7.930  1.4483 -0.5298 -0.2179
36548SOL    HW213050   9.126   2.527   7.860  2.4296  0.4318  1.0773
36549SOL     OW13051   6.765   4.102   6.070 -1.0935 -0.3790  0.3001
36549SOL    HW113052   6.766   4.187   6.024 -1.8101 -0.3303  0.3679
36549SOL    HW213053   6.839   4.054   6.032 -2.5748 -0.9279 -2.0191
36550SOL     OW13054   2.254   8.933   1.038 -0.3867 -0.0632  0.3180
36550SOL    HW113055   2.195   8.857   1.036 -1.0787  0.5024 -1.6809
36550SOL    HW213056   2.223   8.985   1.112 -2.2650  0.0974 -0.5601
36551SOL     OW13057   1.544   5.889   8.883 -0.3370 -0.5465 -0.7863
36551SOL    HW113058   1.556   5.836   8.962 -0.0096 -0.1398 -0.5554
36551SOL    HW213059   1.632   5.897   8.846 -0.2318  0.6100 -0.3048
36552SOL     OW13060   1.124   6.104   9.811 -0.2600 -0.2275  0.3117
36552SOL    HW113061   1.190   6.043   9.776  0.2637 -0.2941  1.3888
36552SOL    HW213062   1.073   6.131   9.735  1.5232  0.4412 -0.6823
36553SOL     OW13063   5.005   6.669   9.558 -0.3409  0.3235 -0.3114
36553SOL    HW113064   4.911   6.675   9.545 -0.1909  0.8058 -1.1514
36553SOL    HW213065   5.015   6.615   9.637 -1.3269  0.8564  0.1740
36554SOL     OW13066   7.562   6.066   3.681  0.9396  0.4128 -0.7183
36554SOL    HW113067   7.551   5.993   3.619  1.0738 -0.8423  0.7061
36554SOL    HW213068   7.513   6.039   3.759  0.1749  2.2959 -0.5124
36555SOL     OW13069   5.158   3.401   8.625  0.1669  0.0680 -0.0554
36555SOL    HW113070   5.082   3.352   8.656  0.6823 -0.4089  0.4422
36555SOL    HW213071   5.186   3.453   8.700  1.0605 -0.6556  0.1139
36556SOL     OW13072   0.482   2.926   7.297  0.0754 -0.4725 -0.0960
36556SOL    HW113073   0.394   2.937   7.334 -0.0123 -0.8991 -0.1789
36556SOL    HW213074   0.474   2.852   7.237 -0.3578  1.7078 -2.8267
36557SOL     OW13075   0.543   4.934   1.934 -0.1038 -0.5426 -0.2637
36557SOL    HW113076   0.554   4.855   1.988  0.5340 -0.4623 -0.2745
36557SOL    HW213077   0.622   4.937   1.880 -0.7481 -0.6222 -1.2135
36558SOL     OW13078   7.502   5.827   1.279 -0.6045  0.4865 -0.5697
36558SOL    HW113079   7.580   5.858   1.326 -0.8241 -0.3012  0.3417
36558SOL    HW213080   7.500   5.879   1.199  1.2468  0.0396 -0.9263
36559SOL     OW13081   8.512   7.825  10.081  0.3901  0.1020 -0.5971
36559SOL    HW113082   8.527   7.767  10.155  0.3736  1.2539  0.3262
36559SOL    HW213083   8.418   7.820  10.065  0.4626 -0.5002 -0.8411
36560SOL     OW13084   2.775   8.890   2.268 -0.9047 -0.0746 -0.3054
36560SOL    HW113085   2.734   8.872   2.353 -0.3153 -1.2219 -0.2482
36560SOL    HW213086   2.734   8.971   2.237 -1.8671 -0.2164  0.5990
36561SOL     OW13087   1.895   1.508   6.572 -0.2618 -0.3105 -0.0640
36561SOL    HW113088   1.975   1.456   6.563 -0.2462 -0.2491 -0.2743
36561SOL    HW213089   1.925   1.593   6.606 -0.2183 -0.2337 -0.2909
36562SOL     OW13090   9.315   4.312   1.427 -0.1080 -0.3236 -0.6369
36562SOL    HW113091   9.306   4.242   1.492  0.1091  0.9749  0.8233
36562SOL    HW213092   9.396   4.291   1.380  0.4177 -0.6034  0.3726
36563SOL     OW13093   9.638   6.259   7.582 -0.1185 -0.1223 -0.1506
36563SOL    HW113094   9.546   6.257   7.555 -0.2981 -0.6414  0.4845
36563SOL    HW213095   9.645   6.191   7.649  1.0325 -0.9323 -1.0916
36564SOL     OW13096   7.872   9.320   7.968  0.6232 -0.4209 -0.2766
36564SOL    HW113097   7.875   9.376   8.045  1.0911  0.1534 -0.7030
36564SOL    HW213098   7.878   9.231   8.002 -1.4489 -0.2745  0.4920
36565SOL     OW13099   6.903   0.295   8.567  0.3692  0.8166  0.7923
36565SOL    HW113100   6.943   0.354   8.630  0.6282  0.9856  0.4747
36565SOL    HW213101   6.867   0.223   8.619  0.7709  0.8485  1.1086
36566SOL     OW13102   2.559   6.445   2.755  0.2211 -0.0079  0.4145
36566SOL    HW113103   2.503   6.487   2.690  0.7602 -0.4304 -0.3231
36566SOL    HW213104   2.593   6.367   2.711  0.6164 -0.2760  1.1870
36567SOL     OW13105   0.239   6.019   6.252 -0.1878 -0.0634 -0.1762
36567SOL    HW113106   0.218   6.106   6.219  0.2651 -0.1393 -0.6722
36567SOL    HW213107   0.224   6.025   6.347 -0.1997  0.5390 -0.2163
36568SOL     OW13108  10.815   7.938   6.228 -0.3346  0.1602  0.0286
36568SOL    HW113109  10.861   7.904   6.151  0.3578  0.3553  0.3484
36568SOL    HW213110  10.764   8.012   6.194 -1.0725 -0.5729 -0.4821
36569SOL     OW13111   3.148   9.485   2.468  0.7712  0.0105  0.1656
36569SOL    HW113112   3.242   9.491   2.488  0.5965 -0.4306  1.1410
36569SOL    HW213113   3.120   9.576   2.459  1.2033  0.1627  0.3178
36570SOL     OW13114   2.844   5.296  10.222  0.3021 -0.2831 -0.1396
36570SOL    HW113115   2.811   5.220  10.270  0.1089 -0.1104  0.0053
36570SOL    HW213116   2.894   5.260  10.149 -0.4066 -0.5545 -0.4997
36571SOL     OW13117   5.507   2.771   3.916  0.0666 -0.1198 -0.0257
36571SOL    HW113118   5.551   2.690   3.938 -0.2892 -0.2905  0.0661
36571SOL    HW213119   5.577   2.834   3.901  0.3465 -0.5019 -0.3126
36572SOL     OW13120   8.829   7.658   6.473 -0.1409 -0.1759 -0.0703
36572SOL    HW113121   8.917   7.683   6.443 -0.5026  0.4644 -0.5917
36572SOL    HW213122   8.846   7.598   6.547  0.7889 -2.6192 -2.1653
36573SOL     OW13123   1.805   8.916   5.063  0.0222  0.1095 -0.0647
36573SOL    HW113124   1.791   8.998   5.111  0.0832  0.3268 -0.4177
36573SOL    HW213125   1.812   8.849   5.131  0.4552  0.4684  0.2422
36574SOL     OW13126   1.769   6.643   1.578 -0.0694 -0.2640 -0.2426
36574SOL    HW113127   1.751   6.678   1.491 -0.2667  0.3870  0.0567
36574SOL    HW213128   1.862   6.664   1.594 -0.0396 -0.3623 -0.2870
36575SOL     OW13129   3.399   5.300   8.508  0.1379 -0.5190  0.1996
36575SOL    HW113130   3.427   5.342   8.589  1.5760  0.3812 -0.7593
36575SOL    HW213131   3.328   5.355   8.476 -0.4140 -0.8586  0.8090
36576SOL     OW13132   0.065   3.245   0.617  0.2126 -0.0818 -0.4337
36576SOL    HW113133   0.081   3.242   0.711 -0.6221  1.4582 -0.2275
36576SOL    HW213134   0.087   3.335   0.592  0.7619 -0.5734 -1.7754
36577SOL     OW13135   2.511   8.146   1.511  0.0179 -0.4196  0.1815
36577SOL    HW113136   2.423   8.143   1.473 -0.5068 -0.1533  1.3472
36577SOL    HW213137   2.500   8.192   1.594  1.5687  1.1573 -0.4634
36578SOL     OW13138   3.428  10.740   4.948  0.0029  0.2231  0.1718
36578SOL    HW113139   3.406  10.822   4.993  1.6081  1.4032 -1.1695
36578SOL    HW213140   3.472  10.767   4.868 -0.0131 -1.9479 -0.5974
36579SOL     OW13141   7.396   4.842   5.600  0.1219 -0.1811  0.2379
36579SOL    HW113142   7.301   4.850   5.612 -0.0281  2.2982 -2.1808
36579SOL    HW213143   7.430   4.929   5.619  2.2214 -1.4852  2.9461
36580SOL     OW13144   1.513   0.414  10.733  0.4196 -0.4672  0.1374
36580SOL    HW113145   1.603   0.428  10.702 -0.4000  1.6057 -1.4374
36580SOL    HW213146   1.471   0.367  10.661  0.2543 -1.5084  0.9104
36581SOL     OW13147   9.315   4.240   4.593 -0.0548 -0.0755  0.5195
36581SOL    HW113148   9.291   4.195   4.674  0.3965  1.5364  1.5598
36581SOL    HW213149   9.252   4.311   4.585  2.8134  2.8278  2.1084
36582SOL     OW13150   3.497   0.246   4.686  0.2786 -0.5536  0.4192
36582SOL    HW113151   3.555   0.243   4.610  0.2991 -2.8305  0.4778
36582SOL    HW213152   3.409   0.242   4.650  0.2860 -1.5344  0.4890
36583SOL     OW13153   8.766   0.284  10.844  0.3500  0.2545  0.9738
36583SOL    HW113154   8.727   0.333  10.917 -0.8859  1.8583 -0.7128
36583SOL    HW213155   8.860   0.301  10.851  0.3108 -0.1042  2.5460
36584SOL     OW13156   2.026   6.955   3.176 -0.4599  0.1501 -0.2541
36584SOL    HW113157   2.054   7.036   3.217  0.5697 -0.4746  0.3129
36584SOL    HW213158   2.017   6.893   3.249 -1.4526 -0.1846 -0.6551
36585SOL     OW13159   2.206   6.010   3.373 -0.2520  0.2679 -0.7408
36585SOL    HW113160   2.186   6.096   3.410  0.0048  0.3510 -0.7915
36585SOL    HW213161   2.171   6.014   3.284 -1.8068 -0.3027 -0.1631
36586SOL     OW13162   6.716   9.198   7.022  0.3974 -0.3219  0.1677
36586SOL    HW113163   6.658   9.237   6.956  0.9056  0.3845  0.1352
36586SOL    HW213164   6.668   9.208   7.104  0.4155  0.1416  0.1226
36587SOL     OW13165   9.641   4.703   7.666  0.1392  0.2052  0.2333
36587SOL    HW113166   9.621   4.712   7.572  2.0563 -0.1811 -0.2374
36587SOL    HW213167   9.736   4.713   7.671  0.0084  0.7239  2.2177
36588SOL     OW13168   9.222   6.474   1.981  0.4683 -0.5839  0.2211
36588SOL    HW113169   9.211   6.565   1.954 -1.3716 -0.0275  2.6354
36588SOL    HW213170   9.316   6.463   1.993  0.8007  0.6606 -1.2294
36589SOL     OW13171   3.392   3.408   6.097 -0.0523  0.3719 -0.0990
36589SOL    HW113172   3.332   3.454   6.039 -0.9567 -0.5454  0.0988
36589SOL    HW213173   3.340   3.337   6.135  1.4084 -1.0791 -0.7097
36590SOL     OW13174   0.139   6.051   7.247 -0.2860 -0.2801 -0.0756
36590SOL    HW113175   0.084   6.020   7.176 -2.1814  0.5872  0.9783
36590SOL    HW213176   0.087   6.039   7.326 -0.0735  3.0410  0.6602
36591SOL     OW13177   3.409   4.924  10.684 -0.4423  0.0849  0.2481
36591SOL    HW113178   3.444   4.839  10.711 -2.2571 -0.2365  1.6548
36591SOL    HW213179   3.429   4.983  10.757 -0.2416  0.5944 -0.2118
36592SOL     OW13180   8.789   5.711   2.590  0.0001  0.2256  0.6399
36592SOL    HW113181   8.737   5.789   2.609 -0.3129  1.0224 -3.2700
36592SOL    HW213182   8.725   5.642   2.574  0.1170  0.7949 -2.4769
36593SOL     OW13183   3.295   6.393   1.454 -0.0057  0.0047 -0.5220
36593SOL    HW113184   3.267   6.477   1.490  0.2812  0.5673 -1.5796
36593SOL    HW213185   3.215   6.343   1.442 -0.3853  0.8628 -1.6874
36594SOL     OW13186   3.467  10.508   4.819 -0.0575  0.1933  0.0063
36594SOL    HW113187   3.399  10.550   4.872  0.6053 -0.8800  1.7792
36594SOL    HW213188   3.545  10.563   4.833 -0.2022  0.6431 -0.9216
36595SOL     OW13189   7.187  10.565   5.742  0.3727  0.5523  0.0466
36595SOL    HW113190   7.093  10.585   5.745  0.1862  0.1405 -2.0708
36595SOL    HW213191   7.207  10.531   5.829 -1.3419  1.0980  0.6781
36596SOL     OW13192   0.913   1.129   9.184 -0.8784 -0.1468  0.4426
36596SOL    HW113193   0.927   1.130   9.279  1.3205 -0.0476  0.1438
36596SOL    HW213194   0.912   1.036   9.161  2.1130 -0.1499  0.1227
36597SOL     OW13195   5.950   7.017   9.547 -0.4470 -0.3144  0.1135
36597SOL    HW113196   5.915   7.106   9.553 -2.8784 -1.3041  1.5533
36597SOL    HW213197   6.008   7.019   9.471  0.2453  2.7119  0.6521
36598SOL     OW13198   6.246   1.620   5.396  0.0508  0.2557 -0.0077
36598SOL    HW113199   6.169   1.583   5.352  0.6482 -1.7152  0.5311
36598SOL    HW213200   6.286   1.677   5.330 -1.8739  1.3528 -0.2815
36599SOL     OW13201   0.135   1.398   4.463  0.3285 -0.7129 -0.2153
36599SOL    HW113202   0.227   1.402   4.489  0.1663  0.4928  0.2077
36599SOL    HW213203   0.138   1.387   4.368  0.9210  0.6260 -0.3711
36600SOL     OW13204   3.235   6.389   6.830 -0.3810  0.2093 -0.5496
36600SOL    HW113205   3.189   6.400   6.747 -2.3670 -3.1837 -0.0045
36600SOL    HW213206   3.268   6.299   6.828  1.0041  0.6119  1.6350
36601SOL     OW13207   9.065  10.890   8.965  0.2049  0.1434 -0.0074
36601SOL    HW113208   9.120  10.891   9.043  1.4718  1.1400 -0.8830
36601SOL    HW213209   8.991  10.945   8.986  0.6430  0.5698  0.4213
36602SOL     OW13210   3.880   0.834   5.733 -0.3579  0.0702 -0.1903
36602SOL    HW113211   3.970   0.836   5.701 -0.5976 -1.4655 -0.9855
36602SOL    HW213212   3.841   0.914   5.699  0.4589  0.3110 -0.5721
36603SOL     OW13213   6.179   6.132   0.027  0.5552  0.1472  0.6160
36603SOL    HW113214   6.271   6.158   0.028 -0.1160  2.7242  1.1480
36603SOL    HW213215   6.138   6.193  -0.035 -1.0712  0.1448  1.6620
36604SOL     OW13216   1.982   4.369   2.904  0.1333  0.1467  0.0293
36604SOL    HW113217   2.058   4.345   2.852 -0.3060 -0.1086 -0.5050
36604SOL    HW213218   1.921   4.408   2.841 -0.8021 -1.0476  0.1753
36605SOL     OW13219   4.178   1.117   1.133 -0.4100  0.2769 -0.0608
36605SOL    HW113220   4.150   1.027   1.119 -0.8093  0.4664 -0.4872
36605SOL    HW213221   4.212   1.118   1.222  0.7735 -0.5941 -0.4932
36606SOL     OW13222   5.487   9.843  10.378  0.2647  0.0320  0.0757
36606SOL    HW113223   5.504   9.934  10.403 -0.1405 -0.1451  1.0158
36606SOL    HW213224   5.392   9.834  10.384  0.0902  0.1426 -2.1120
36607SOL     OW13225   3.603  10.962   4.186  0.8489  0.1030  0.2370
36607SOL    HW113226   3.616  11.055   4.169 -1.1121  0.4550  0.4869
36607SOL    HW213227   3.567  10.928   4.105 -0.5657  0.0484  0.8698
36608SOL     OW13228   6.547   9.672   6.161 -0.0189  0.6334 -0.6285
36608SOL    HW113229   6.525   9.580   6.172  0.9011  0.5215  0.3434
36608SOL    HW213230   6.570   9.681   6.068  1.8929 -0.5507 -0.2838
36609SOL     OW13231   9.756   7.495   9.762  0.3992 -0.2000  0.0329
36609SOL    HW113232   9.823   7.515   9.697 -0.2529 -1.8972 -1.1900
36609SOL    HW213233   9.790   7.420   9.810 -0.0238 -0.2101  0.3195
36610SOL     OW13234   7.994   0.908   4.167 -0.0823 -0.2820  0.2866
36610SOL    HW113235   7.996   0.932   4.259 -0.2215 -0.6339  0.3830
36610SOL    HW213236   7.908   0.868   4.154  0.2155 -0.8944  0.1730
36611SOL     OW13237   8.244   5.919   9.106  0.4432  0.1985  0.2807
36611SOL    HW113238   8.325   5.948   9.065 -0.5544  3.4933  0.4862
36611SOL    HW213239   8.271   5.889   9.193  1.6362 -0.3387 -0.2587
36612SOL     OW13240   7.758   9.086   9.416 -0.2186 -0.3958  0.4247
36612SOL    HW113241   7.720   9.000   9.396 -2.0767  0.7527 -1.0142
36612SOL    HW213242   7.851   9.076   9.392 -0.4808 -1.8937 -0.0481
36613SOL     OW13243   6.582   7.010   8.992  0.2718  0.5455  0.3235
36613SOL    HW113244   6.677   7.015   8.992  0.3987 -1.6111 -0.2046
36613SOL    HW213245   6.557   7.036   9.080  1.3659  0.7913  0.5716
36614SOL     OW13246   2.092   6.969   9.421  0.4644 -0.0936  0.1505
36614SOL    HW113247   2.032   6.923   9.363  0.7133  1.2352 -1.1822
36614SOL    HW213248   2.175   6.972   9.373  1.1856 -0.5696  1.3359
36615SOL     OW13249   2.001   5.146  10.568  0.1747 -0.6092  0.6050
36615SOL    HW113250   2.085   5.168  10.528 -1.5977  1.2070 -2.3103
36615SOL    HW213251   1.975   5.064  10.527 -0.5516  0.0473 -0.2675
36616SOL     OW13252   8.769   7.651   2.800 -0.3024 -0.0125  0.4847
36616SOL    HW113253   8.728   7.692   2.876 -1.5099 -4.2513  2.2526
36616SOL    HW213254   8.721   7.688   2.725 -1.3525  1.7359  1.9726
36617SOL     OW13255   2.836   5.947   5.142  0.4811 -0.0436  0.6937
36617SOL    HW113256   2.788   5.907   5.214 -0.6249 -0.8387 -0.4614
36617SOL    HW213257   2.771   6.001   5.097  1.1736  0.5029  0.3374
36618SOL     OW13258   8.790  10.371   6.778  0.0422  0.1585  0.3484
36618SOL    HW113259   8.767  10.278   6.779 -0.4243  0.2756  1.2482
36618SOL    HW213260   8.757  10.403   6.694 -0.7849 -0.2516  0.5086
36619SOL     OW13261   5.326   4.292   7.127 -0.5444  0.3542  0.3405
36619SOL    HW113262   5.242   4.325   7.158 -0.0591  1.1562  0.7987
36619SOL    HW213263   5.384   4.297   7.203  0.4593  1.6907 -0.4965
36620SOL     OW13264   1.550   2.251   5.404  0.1809  0.1214  0.0364
36620SOL    HW113265   1.579   2.210   5.322  0.4261  0.2745  0.0451
36620SOL    HW213266   1.618   2.316   5.423 -0.0566  0.3285  0.1773
36621SOL     OW13267  10.668   7.676   4.253  0.8298 -0.5058  0.3408
36621SOL    HW113268  10.647   7.615   4.182  1.3587  0.1408 -0.3784
36621SOL    HW213269  10.753   7.713   4.229  1.7300 -1.3942  2.0664
36622SOL     OW13270   9.397   8.644   8.527 -0.2988 -0.3405 -0.1340
36622SOL    HW113271   9.440   8.691   8.598 -1.4340  1.0324 -0.3288
36622SOL    HW213272   9.429   8.554   8.535 -0.0077 -0.0885  1.7849
36623SOL     OW13273   5.928   5.833  10.422  0.0879 -0.2272  0.0764
36623SOL    HW113274   5.841   5.792  10.423 -0.4645  0.9211  0.9115
36623SOL    HW213275   5.922   5.898  10.351  0.0113  0.3656  0.6195
36624SOL     OW13276   1.924  10.563  10.863 -0.9192  0.0032 -0.1613
36624SOL    HW113277   1.988  10.518  10.807  1.1807  1.8752  0.6753
36624SOL    HW213278   1.898  10.640  10.812 -0.3690  0.7459  0.6815
36625SOL     OW13279   9.731   1.053  10.893 -0.5340 -0.0612  0.2777
36625SOL    HW113280   9.749   1.065  10.986  1.1855 -0.0215 -0.0360
36625SOL    HW213281   9.759   0.963  10.874 -2.6549 -0.7232  0.1926
36626SOL     OW13282  10.245   8.995   7.028 -0.6189  0.0070 -0.6585
36626SOL    HW113283  10.310   8.934   6.992 -0.0687  0.6805 -0.8306
36626SOL    HW213284  10.162   8.966   6.991 -0.3011 -0.3643 -1.0922
36627SOL     OW13285   4.890   7.956  10.798  0.0324 -0.0502 -0.7484
36627SOL    HW113286   4.919   8.043  10.826  1.6991 -0.1677 -2.0445
36627SOL    HW213287   4.944   7.936  10.722 -1.2066 -1.6980 -1.2252
36628SOL     OW13288  10.812   5.333   7.907  0.4826  0.2164  0.6210
36628SOL    HW113289  10.767   5.299   7.984 -0.1797  0.0917  0.1913
36628SOL    HW213290  10.866   5.261   7.876  1.3792  0.5353  1.4432
36629SOL     OW13291   8.955   8.335   2.055 -0.1886  0.4669  0.3688
36629SOL    HW113292   9.021   8.386   2.102  0.5977 -1.8169  1.8374
36629SOL    HW213293   8.884   8.325   2.117 -0.7239  0.4979 -0.2292
36630SOL     OW13294   2.095   4.192   3.261  0.0566 -0.1294 -0.1101
36630SOL    HW113295   2.021   4.206   3.202  0.6204 -1.7877 -1.2353
36630SOL    HW213296   2.091   4.099   3.282  1.7352 -0.1991 -0.0761
36631SOL     OW13297   2.105   8.370   0.179 -0.0630 -1.0045  0.0215
36631SOL    HW113298   2.132   8.383   0.088 -1.7571  1.1586 -0.2002
36631SOL    HW213299   2.156   8.433   0.229  0.0516 -1.4262  0.4413
36632SOL     OW13300  10.612   8.398   2.178 -0.3754  0.4166 -0.5984
36632SOL    HW113301  10.695   8.370   2.218 -0.1824  0.2829 -1.0912
36632SOL    HW213302  10.631   8.484   2.141 -0.6419  0.6751 -0.1415
36633SOL     OW13303   9.576   5.087   7.098  0.0666  0.3145 -0.4436
36633SOL    HW113304   9.493   5.055   7.062 -0.6795 -0.5698  1.9656
36633SOL    HW213305   9.555   5.173   7.134  0.7932  1.1647 -2.0005
36634SOL     OW13306   7.512  10.212   2.423  0.3782 -0.0454  0.3418
36634SOL    HW113307   7.605  10.234   2.422  0.6776 -1.2285  0.9345
36634SOL    HW213308   7.492  10.189   2.332  0.5221  0.8078  0.0985
36635SOL     OW13309   8.928   3.776   9.976 -0.2793 -0.0013 -0.5460
36635SOL    HW113310   8.948   3.780   9.883 -2.1410  0.4176 -0.9444
36635SOL    HW213311   8.979   3.702  10.008  0.8552  0.2303 -1.7632
36636SOL     OW13312   6.533   7.617   4.194  0.3607 -0.2140  1.0439
36636SOL    HW113313   6.470   7.612   4.123 -0.8763 -1.1217  2.1959
36636SOL    HW213314   6.531   7.531   4.235 -0.8262  1.0531  3.7695
36637SOL     OW13315   3.365   7.350   5.691  0.0208  0.0315 -0.1657
36637SOL    HW113316   3.386   7.273   5.637 -0.2283 -1.3469  1.6514
36637SOL    HW213317   3.430   7.347   5.761 -1.2750  0.2978  1.0610
36638SOL     OW13318   5.257   2.976   8.984 -0.1770 -0.4867  0.7108
36638SOL    HW113319   5.233   2.938   9.069 -0.3939 -1.1646  0.3525
36638SOL    HW213320   5.308   2.907   8.942 -1.8955 -1.0060 -0.5858
36639SOL     OW13321   1.507   8.894   0.083  0.4552 -0.2985  0.3274
36639SOL    HW113322   1.593   8.913   0.122  0.4623 -0.9549  0.6285
36639SOL    HW213323   1.509   8.939  -0.002  1.5817 -1.3608 -0.2223
36640SOL     OW13324   4.118   6.777  10.956  0.2497 -0.2147 -0.5276
36640SOL    HW113325   4.158   6.691  10.966  0.2345 -0.1239  0.3272
36640SOL    HW213326   4.132   6.821  11.040 -2.6501 -0.6080  0.2382
36641SOL     OW13327   9.210   3.393   2.773  0.6097  0.3011  0.1968
36641SOL    HW113328   9.171   3.306   2.785  0.2060  0.8552  3.2113
36641SOL    HW213329   9.139   3.446   2.735  0.2985 -0.2175  0.0551
36642SOL     OW13330   3.014   0.906   6.116  0.2580 -0.3479 -0.3973
36642SOL    HW113331   3.098   0.882   6.076  0.3591 -1.5021  0.4829
36642SOL    HW213332   2.973   0.822   6.138 -0.1985  0.2481  1.0750
36643SOL     OW13333   2.585   1.000   3.970 -0.0488  0.4304 -0.8153
36643SOL    HW113334   2.592   0.938   4.042 -0.1011 -0.9093 -1.9256
36643SOL    HW213335   2.564   1.084   4.011  0.7939 -0.1187  0.7746
36644SOL     OW13336  10.842  10.018   4.113 -0.1419 -0.1768 -0.6496
36644SOL    HW113337  10.844  10.113   4.102 -2.1907 -0.0832 -0.3900
36644SOL    HW213338  10.829  10.004   4.207 -0.3453 -0.6971 -0.7501
36645SOL     OW13339   7.576   1.205   0.690  0.2002  0.3914 -0.3858
36645SOL    HW113340   7.666   1.202   0.723  0.3197  0.7991 -0.6650
36645SOL    HW213341   7.544   1.291   0.717 -0.3319 -0.0183  0.2974
36646SOL     OW13342   1.263  10.932   7.566 -0.0415 -0.2227  0.2766
36646SOL    HW113343   1.336  10.874   7.544 -2.6558 -3.8312  0.5983
36646SOL    HW213344   1.224  10.894   7.645 -2.5866  1.2413 -0.1921
36647SOL     OW13345   7.345   2.242   9.581 -0.0704 -0.5140 -0.5459
36647SOL    HW113346   7.420   2.287   9.621  1.5818 -2.3608 -1.5246
36647SOL    HW213347   7.274   2.257   9.643  1.6844 -0.6971  1.5842
36648SOL     OW13348  10.179  10.531   1.567  0.0816 -0.0462  0.0406
36648SOL    HW113349  10.265  10.565   1.590 -0.2003  0.2861  0.6353
36648SOL    HW213350  10.196  10.453   1.514  0.7403  0.0820  0.0668
36649SOL     OW13351  10.667   8.459   9.334 -0.0241 -0.1574  0.2902
36649SOL    HW113352  10.693   8.397   9.266 -1.5662 -2.4238  1.7115
36649SOL    HW213353  10.651   8.405   9.411  0.7388  2.2631  2.2139
36650SOL     OW13354   1.107   1.422   9.817 -0.2439 -0.2999  0.7713
36650SOL    HW113355   1.184   1.416   9.760 -0.5569 -2.3457  0.5288
36650SOL    HW213356   1.141   1.406   9.905 -0.2125 -0.0526  0.8034
36651SOL     OW13357   3.988   6.758   9.052 -0.4932  0.1974  0.1641
36651SOL    HW113358   3.995   6.662   9.051  2.1460  0.3201 -1.3461
36651SOL    HW213359   4.045   6.786   8.979 -1.1017  2.9148  0.6804
36652SOL     OW13360   0.130   3.927   2.533 -0.0787 -0.2575  0.7774
36652SOL    HW113361   0.151   3.859   2.469  2.1804 -0.2286  1.4532
36652SOL    HW213362   0.036   3.939   2.525  0.2844  0.4113 -3.2014
36653SOL     OW13363   3.391   8.323   0.841  0.2733 -0.1767 -0.1360
36653SOL    HW113364   3.460   8.263   0.813  0.4632  0.2951 -0.6940
36653SOL    HW213365   3.314   8.267   0.851  0.7774 -0.7384  0.6946
36654SOL     OW13366   5.941   1.277   7.626 -0.4534  0.1209 -0.0176
36654SOL    HW113367   5.893   1.194   7.625 -0.6096  0.2183 -1.5427
36654SOL    HW213368   6.032   1.253   7.642 -0.6198 -0.2651  0.3669
36655SOL     OW13369   8.061  10.736   9.175  0.3632  0.4381 -0.3201
36655SOL    HW113370   8.070  10.771   9.086 -1.1753  0.9607 -0.2898
36655SOL    HW213371   8.019  10.652   9.164  0.7298  0.2266 -0.1201
36656SOL     OW13372   3.282   5.469   3.196  0.5340 -0.0420 -0.8427
36656SOL    HW113373   3.286   5.378   3.166 -1.7279  0.1515 -1.8285
36656SOL    HW213374   3.221   5.467   3.269  0.6155  0.6550 -0.7603
36657SOL     OW13375   4.855   0.378   0.680  0.7475 -0.0383  0.0190
36657SOL    HW113376   4.848   0.450   0.616  1.5303 -0.7298 -0.8527
36657SOL    HW213377   4.905   0.415   0.752 -2.1614  1.5045  1.3503
36658SOL     OW13378   1.219  10.029   8.335  0.0454 -0.0007 -0.2543
36658SOL    HW113379   1.238   9.941   8.303  0.7178  1.0366 -2.7678
36658SOL    HW213380   1.203  10.080   8.256  0.7994  2.4080  1.1216
36659SOL     OW13381   3.949   8.268  10.698 -0.1150 -0.2177 -0.2797
36659SOL    HW113382   4.023   8.297  10.751 -0.2183  0.3268 -0.4330
36659SOL    HW213383   3.919   8.188  10.741 -0.3519  0.3510  0.6237
36660SOL     OW13384   5.733   3.757   6.056 -0.5430 -0.4118  0.3475
36660SOL    HW113385   5.675   3.682   6.038  0.0570 -0.8433  0.2004
36660SOL    HW213386   5.820   3.718   6.064 -0.1619  0.3322 -0.1863
36661SOL     OW13387   3.184  10.623   6.938  0.0455  0.0632  0.2116
36661SOL    HW113388   3.226  10.604   7.022 -0.8737 -2.6065  0.1332
36661SOL    HW213389   3.090  10.626   6.959 -0.1973 -0.7614 -0.7197
36662SOL     OW13390   2.164  10.042   0.401  0.6367 -0.3158  0.3110
36662SOL    HW113391   2.100  10.052   0.471  0.4395 -1.1027  0.2441
36662SOL    HW213392   2.207  10.128   0.395 -0.7723  0.3860  0.0041
36663SOL     OW13393   2.614   7.669   9.299  0.3395 -0.4356 -0.0190
36663SOL    HW113394   2.693   7.712   9.268  0.6801 -0.6882  0.5096
36663SOL    HW213395   2.549   7.688   9.231  1.3647 -1.8660 -1.4195
36664SOL     OW13396   6.000   0.852   0.467 -0.7726  0.6331  0.1623
36664SOL    HW113397   5.946   0.868   0.545  0.1894 -0.7466  1.1347
36664SOL    HW213398   6.086   0.887   0.490 -0.3596 -0.1996 -0.1080
36665SOL     OW13399   1.147   3.540   2.066  0.1854 -0.3635  0.4574
36665SOL    HW113400   1.125   3.486   1.990  0.7429 -1.5818  1.1494
36665SOL    HW213401   1.098   3.621   2.053 -1.7051 -1.5391  0.0452
36666SOL     OW13402   2.299   9.769   1.996  0.1876  0.0528 -0.2709
36666SOL    HW113403   2.217   9.806   1.963 -1.3698 -0.9772  2.2503
36666SOL    HW213404   2.291   9.675   1.979 -0.7136 -0.5305  2.8964
36667SOL     OW13405   2.111  10.142   2.623 -0.2893  0.0676 -0.1890
36667SOL    HW113406   2.197  10.116   2.590  0.2374  0.1407  1.0941
36667SOL    HW213407   2.106  10.103   2.711  0.0817  3.3847  1.3637
36668SOL     OW13408   7.771   5.841   1.942 -0.3227  0.3743  0.1425
36668SOL    HW113409   7.841   5.790   1.982 -0.6020 -0.9074 -0.9858
36668SOL    HW213410   7.733   5.891   2.015  0.4258 -0.4794  1.1187
36669SOL     OW13411   1.728   8.671   0.880  0.1057 -0.1457 -0.1106
36669SOL    HW113412   1.759   8.595   0.830  0.0279 -0.6966  0.6622
36669SOL    HW213413   1.642   8.644   0.914  0.6141 -0.1938  1.1955
36670SOL     OW13414   2.711   2.133   6.008 -0.4012 -0.0968  0.2638
36670SOL    HW113415   2.702   2.057   6.066  2.6576  0.1465  1.1540
36670SOL    HW213416   2.734   2.095   5.923  0.5633 -0.2426  0.5738
36671SOL     OW13417   2.269   0.721   0.283  0.0874  0.4904 -0.1597
36671SOL    HW113418   2.252   0.806   0.324 -0.7721  0.1374  0.2251
36671SOL    HW213419   2.230   0.727   0.196  1.1149  0.9233 -0.5894
36672SOL     OW13420   5.656   4.672   5.230  1.0066  0.0399 -0.1195
36672SOL    HW113421   5.699   4.716   5.156  0.4117 -0.4557 -0.7624
36672SOL    HW213422   5.572   4.643   5.195  1.2909 -1.3856  0.3802
36673SOL     OW13423  10.727   3.269   4.288 -0.1083  0.3124  0.0266
36673SOL    HW113424  10.650   3.286   4.233 -0.4795 -2.2286 -0.3203
36673SOL    HW213425  10.729   3.343   4.349 -1.9457  1.2012 -0.9109
36674SOL     OW13426   7.122   8.876   1.635 -0.3283  0.4239 -0.1364
36674SOL    HW113427   7.197   8.934   1.650  0.8345 -1.2677  0.8007
36674SOL    HW213428   7.050   8.918   1.682 -0.0009  2.1294 -1.1344
36675SOL     OW13429   8.400   1.860   0.320  0.2070 -0.7007  0.0531
36675SOL    HW113430   8.361   1.777   0.347  1.1001 -1.0888  0.1694
36675SOL    HW213431   8.435   1.843   0.233  1.1241 -0.6891  0.4162
36676SOL     OW13432   6.904   2.043  10.630 -0.4099  0.0808  0.2933
36676SOL    HW113433   6.962   1.970  10.607  1.2246  1.8207 -1.2859
36676SOL    HW213434   6.916   2.053  10.725  1.2372 -0.1247  0.1286
36677SOL     OW13435  10.315   4.241   3.161  0.5072 -1.0781  0.1130
36677SOL    HW113436  10.396   4.219   3.114  0.5993 -1.0618  0.2622
36677SOL    HW213437  10.341   4.239   3.253  0.4955 -0.4358  0.1324
36678SOL     OW13438   8.821   1.733   2.929 -0.3751  0.6779  0.6559
36678SOL    HW113439   8.878   1.676   2.981  0.3928  0.9507  0.1246
36678SOL    HW213440   8.773   1.784   2.995 -0.0936  0.3571  1.1142
36679SOL     OW13441   9.152   3.858   1.761  0.2831 -0.4053 -0.5063
36679SOL    HW113442   9.091   3.789   1.735  0.2662 -0.5487 -0.0834
36679SOL    HW213443   9.108   3.902   1.835  0.1575  0.2461 -0.9585
36680SOL     OW13444   0.854   9.310   0.084  0.0700 -0.2393 -0.5172
36680SOL    HW113445   0.840   9.284  -0.007 -0.4258 -1.2444 -0.1593
36680SOL    HW213446   0.921   9.378   0.080 -1.0224  0.7859 -1.7701
36681SOL     OW13447   6.695   9.616   6.614  0.2627  0.0140  0.5311
36681SOL    HW113448   6.615   9.593   6.568 -0.2259 -0.0264  1.3908
36681SOL    HW213449   6.758   9.549   6.590 -0.3851 -0.7574  0.9813
36682SOL     OW13450   4.004   3.348   5.152 -0.2811 -0.2120  0.1544
36682SOL    HW113451   3.944   3.367   5.225  0.0160 -0.6032  0.5032
36682SOL    HW213452   3.947   3.325   5.079 -0.6323  1.2410 -0.0621
36683SOL     OW13453   1.597   8.737   2.415  0.1309  0.2839 -0.2252
36683SOL    HW113454   1.629   8.725   2.505  0.8918 -0.0287 -0.5347
36683SOL    HW213455   1.591   8.832   2.404  1.9239  0.3811 -0.4944
36684SOL     OW13456  10.003   4.774   9.022 -0.4145  0.3207  0.6325
36684SOL    HW113457  10.042   4.855   9.055  1.5514 -0.7321  0.9756
36684SOL    HW213458  10.001   4.716   9.099  0.0537 -0.6335 -0.0678
36685SOL     OW13459   9.350   3.912   7.132  0.4888  0.0554  0.1050
36685SOL    HW113460   9.419   3.850   7.154  0.2794  0.2034  1.2186
36685SOL    HW213461   9.366   3.987   7.189 -0.1117  0.4173 -0.1999
36686SOL     OW13462   5.678   5.283   8.664 -0.5359 -0.0187 -0.1039
36686SOL    HW113463   5.707   5.270   8.754 -1.5839  0.4888  0.3136
36686SOL    HW213464   5.707   5.371   8.642 -1.4257  0.3451  0.1823
36687SOL     OW13465   3.890   6.383   2.336  1.1237  0.0069 -0.0066
36687SOL    HW113466   3.965   6.353   2.387  1.0006 -0.2330  0.0358
36687SOL    HW213467   3.828   6.415   2.401  1.7155  1.4287 -0.1124
36688SOL     OW13468   1.709   6.130   2.399  0.6022  0.0948 -0.0341
36688SOL    HW113469   1.648   6.058   2.391 -0.8705  1.2793  0.3592
36688SOL    HW213470   1.712   6.170   2.313 -0.4725  1.0656  0.3765
36689SOL     OW13471   0.632  10.609   5.671 -0.7013 -0.0912 -0.3622
36689SOL    HW113472   0.634  10.676   5.740 -0.2298  1.9605 -2.3267
36689SOL    HW213473   0.714  10.561   5.682 -1.5859 -1.1987  1.8292
36690SOL     OW13474   1.068   8.547   9.580  0.0290  0.2199 -0.1345
36690SOL    HW113475   1.024   8.625   9.548  1.9231  1.7047  0.8180
36690SOL    HW213476   1.085   8.495   9.501 -2.1256  0.2664 -0.6679
36691SOL     OW13477   9.152   2.889   0.168  0.5225  0.0603  0.7104
36691SOL    HW113478   9.069   2.843   0.161 -0.1033  0.9925  1.7678
36691SOL    HW213479   9.154   2.947   0.092  0.2437 -0.0312  0.6325
36692SOL     OW13480   7.463   4.722   3.436 -0.0652  0.1586  0.5570
36692SOL    HW113481   7.544   4.762   3.405  0.0368 -1.0218 -0.7254
36692SOL    HW213482   7.395   4.784   3.411  0.0601 -0.5661 -1.6993
36693SOL     OW13483   8.451   4.051   1.251  0.1115  0.3294  0.0382
36693SOL    HW113484   8.382   4.043   1.185  0.7496  3.4139 -1.0672
36693SOL    HW213485   8.530   4.019   1.208  0.3054  1.2919 -0.3308
36694SOL     OW13486   7.355   4.537   9.001 -0.1563  0.1603 -0.2225
36694SOL    HW113487   7.299   4.539   8.924  0.3679 -0.2470 -0.6235
36694SOL    HW213488   7.322   4.465   9.054  0.7387 -0.8790 -1.0484
36695SOL     OW13489   9.747   8.679  10.943  0.1866 -0.7275 -0.2426
36695SOL    HW113490   9.787   8.592  10.952  0.6743 -0.4727  0.0456
36695SOL    HW213491   9.653   8.662  10.950  0.0665 -1.6702 -3.6235
36696SOL     OW13492   2.218   6.767  10.231 -0.4841 -0.1592 -0.0800
36696SOL    HW113493   2.275   6.805  10.298  0.7065  0.6044 -1.5007
36696SOL    HW213494   2.157   6.838  10.209 -0.6672 -0.3072 -0.0542
36697SOL     OW13495   5.679  10.693   8.348  0.3013 -0.4445  0.0511
36697SOL    HW113496   5.599  10.642   8.363 -0.1318  0.1956 -0.0428
36697SOL    HW213497   5.702  10.728   8.434 -0.1573  0.2895 -0.1186
36698SOL     OW13498   6.415   5.583   7.109  0.0970  0.2056  0.6135
36698SOL    HW113499   6.479   5.557   7.043  0.6007 -1.6855  1.7854
36698SOL    HW213500   6.465   5.586   7.191 -0.9079  0.6264  1.2210
36699SOL     OW13501  10.211   6.293   9.032  0.3665 -0.0668 -0.3089
36699SOL    HW113502  10.159   6.367   9.065 -0.7132 -0.6076 -0.7822
36699SOL    HW213503  10.149   6.242   8.980  1.3422 -0.8131 -0.7378
36700SOL     OW13504   2.409   3.571   7.002  0.1286 -1.0715 -0.2746
36700SOL    HW113505   2.389   3.490   6.954  1.5512 -1.1256 -0.8138
36700SOL    HW213506   2.480   3.546   7.061  0.3131 -0.3131 -0.1722
36701SOL     OW13507   5.843   2.661   2.965  0.5057  0.0893  0.3414
36701SOL    HW113508   5.769   2.624   2.916  0.1050  1.0411  0.1902
36701SOL    HW213509   5.850   2.607   3.043  0.5400 -0.8674 -0.3228
36702SOL     OW13510   8.251   2.186   4.862  0.1277  0.1658 -0.0112
36702SOL    HW113511   8.324   2.173   4.922  0.6800  0.7583 -0.5414
36702SOL    HW213512   8.243   2.281   4.854 -0.7602  0.1063  0.1095
36703SOL     OW13513   8.365   9.603  10.691  0.0046  0.0150  0.2512
36703SOL    HW113514   8.342   9.545  10.618  0.7841 -3.5251  2.7277
36703SOL    HW213515   8.460   9.609  10.688  0.1678 -1.3831  1.8246
36704SOL     OW13516  10.874   9.947  10.198  0.5304 -0.7252  0.1165
36704SOL    HW113517  10.954   9.896  10.193  0.2518 -1.0860 -0.8591
36704SOL    HW213518  10.901  10.032  10.234  1.4116 -0.7095 -0.5706
36705SOL     OW13519   6.005   0.709   3.511 -0.1779 -0.3696 -0.1408
36705SOL    HW113520   6.025   0.669   3.426 -1.0366  3.5506 -2.3317
36705SOL    HW213521   6.066   0.783   3.518 -1.5516  0.6434  1.6339
36706SOL     OW13522   9.008   7.289   2.613 -0.1917 -0.0803  0.1439
36706SOL    HW113523   8.959   7.208   2.627  0.3202 -0.4743 -0.3239
36706SOL    HW213524   8.959   7.356   2.662 -0.5563 -0.6911  0.6183
36707SOL     OW13525   6.041   0.820   0.206 -0.8603  0.5221 -0.6204
36707SOL    HW113526   5.951   0.822   0.173 -0.6629  2.2996 -1.0490
36707SOL    HW213527   6.030   0.823   0.302 -1.2761 -0.2566 -0.6349
36708SOL     OW13528   7.389   0.265   0.363 -0.6969 -0.4550  0.2869
36708SOL    HW113529   7.352   0.294   0.447 -2.7671 -0.0041 -0.7442
36708SOL    HW213530   7.314   0.262   0.304  1.0748  1.3657 -2.1473
36709SOL     OW13531   7.985   8.010   3.467 -0.2942 -0.4107 -0.9007
36709SOL    HW113532   7.902   8.040   3.504 -0.1914 -0.3202 -0.7399
36709SOL    HW213533   8.047   8.079   3.488 -0.1256 -0.5884 -0.8067
36710SOL     OW13534   6.954   6.555   9.990  0.2382  0.3311 -0.0314
36710SOL    HW113535   6.906   6.567   9.908 -1.9314 -1.4223  0.9609
36710SOL    HW213536   7.020   6.625   9.988 -0.7633  1.2865 -2.5394
36711SOL     OW13537   9.418   3.708   5.732 -0.7431 -0.1666 -0.0433
36711SOL    HW113538   9.449   3.792   5.699  0.7305 -0.1187  1.3883
36711SOL    HW213539   9.485   3.645   5.704 -0.8961 -0.5601  0.4491
36712SOL     OW13540   6.181   6.338   7.205  0.5150  0.4586 -0.1826
36712SOL    HW113541   6.207   6.355   7.295  0.6494  2.3644 -0.5517
36712SOL    HW213542   6.105   6.394   7.191  1.8340  1.8886 -1.9051
36713SOL     OW13543  10.302  10.934  10.204 -0.0505 -0.5446 -0.1955
36713SOL    HW113544  10.327  10.842  10.216 -0.9748 -0.7032  0.6182
36713SOL    HW213545  10.219  10.930  10.156 -0.5250 -0.1724  0.5835
36714SOL     OW13546   7.356  10.398   6.154 -0.0992 -0.2539 -0.8037
36714SOL    HW113547   7.367  10.404   6.248 -0.1232  0.6064 -0.8534
36714SOL    HW213548   7.417  10.329   6.127  0.9262  0.4645 -0.3411
36715SOL     OW13549   8.324   0.510   4.919 -0.1315 -0.1903  0.1015
36715SOL    HW113550   8.269   0.541   4.846 -2.0804 -0.6551  1.3581
36715SOL    HW213551   8.398   0.466   4.876 -0.5326  0.7531 -1.6073
36716SOL     OW13552   1.999   7.230   8.870  0.1215  0.0669  0.2277
36716SOL    HW113553   1.913   7.213   8.908  0.2453 -0.7386  0.1392
36716SOL    HW213554   2.051   7.153   8.892 -0.3276 -1.2552 -3.1007
36717SOL     OW13555   9.646   6.887   1.171  0.4489 -0.1309  0.1897
36717SOL    HW113556   9.619   6.798   1.149  0.5651 -0.1211  0.0085
36717SOL    HW213557   9.639   6.935   1.089  0.1843  0.0775  0.3364
36718SOL     OW13558   2.714   3.843   6.171 -0.6839 -0.2205  0.0805
36718SOL    HW113559   2.691   3.921   6.220 -1.0790  0.8266 -1.7275
36718SOL    HW213560   2.809   3.848   6.160 -1.0370  1.6699 -2.6868
36719SOL     OW13561   8.458   0.939   0.003 -0.4145  0.1926  0.2846
36719SOL    HW113562   8.376   0.988   0.009  0.3098  1.4374  0.2152
36719SOL    HW213563   8.493   0.941   0.092 -0.0504  0.3863  0.1369
36720SOL     OW13564   4.290   7.842   8.987  0.2797 -0.0450 -0.2945
36720SOL    HW113565   4.311   7.918   9.040  1.7964 -0.5342 -0.1928
36720SOL    HW213566   4.194   7.844   8.980  0.3185  1.9986 -0.5081
36721SOL     OW13567   9.033   3.857   8.161  0.1322 -0.3131  0.0346
36721SOL    HW113568   9.124   3.865   8.134  0.6088  0.6463  1.8351
36721SOL    HW213569   8.986   3.921   8.108  0.5092 -0.7654 -0.8476
36722SOL     OW13570   3.231   0.418   9.308  0.1411 -0.5586 -0.0126
36722SOL    HW113571   3.198   0.338   9.349 -0.5274  0.3562  1.2529
36722SOL    HW213572   3.321   0.426   9.338  0.0874 -0.6420  0.1709
36723SOL     OW13573   0.971   1.740   4.251  0.1507 -0.1885 -0.2800
36723SOL    HW113574   1.050   1.693   4.277 -0.0437  0.0003  0.6983
36723SOL    HW213575   0.988   1.831   4.277 -0.4729 -0.1935  0.1604
36724SOL     OW13576   1.438   3.675   2.691 -0.1441  0.0495  0.4326
36724SOL    HW113577   1.464   3.695   2.781  1.1338  1.2276 -0.1937
36724SOL    HW213578   1.487   3.596   2.669  0.9124  0.7760  0.1602
36725SOL     OW13579  10.157   9.336   5.524  0.2445 -0.0580  0.2915
36725SOL    HW113580  10.135   9.296   5.608 -0.8435 -0.0374  0.0139
36725SOL    HW213581  10.203   9.266   5.476  0.1612 -0.3187  0.5905
36726SOL     OW13582   5.961   0.117   1.821  0.2710 -0.9825 -0.1532
36726SOL    HW113583   5.878   0.097   1.865 -0.7190 -0.5634 -1.8008
36726SOL    HW213584   5.955   0.071   1.737  1.5529 -0.6450 -0.4397
36727SOL     OW13585   7.041   9.154   6.532  0.3492  0.8338 -0.4037
36727SOL    HW113586   7.007   9.068   6.507  0.6574  0.0147  1.8530
36727SOL    HW213587   7.136   9.146   6.521  0.3158  1.1003 -0.8572
36728SOL     OW13588   9.207   5.759   2.615 -0.4345  0.6367  0.2208
36728SOL    HW113589   9.289   5.718   2.589 -2.6795 -2.7104 -2.0194
36728SOL    HW213590   9.144   5.730   2.549 -3.4928  2.8506  2.0359
36729SOL     OW13591   5.353   5.459   7.315 -0.4555 -0.2274  0.3660
36729SOL    HW113592   5.382   5.453   7.406 -0.3500 -0.4998  0.3158
36729SOL    HW213593   5.414   5.519   7.273  1.0551 -2.0391 -0.1394
36730SOL     OW13594   7.642   2.695   7.234  0.0697  0.1803 -0.1006
36730SOL    HW113595   7.635   2.722   7.142  1.7135 -0.8375 -0.5434
36730SOL    HW213596   7.562   2.645   7.250  0.0273 -0.0853 -1.1267
36731SOL     OW13597   1.448   7.034   2.248 -0.2248  0.8415 -0.2117
36731SOL    HW113598   1.440   7.085   2.329 -0.9784 -0.5719  0.6055
36731SOL    HW213599   1.375   7.065   2.194 -0.4990  0.8628  0.1636
36732SOL     OW13600   7.768   4.659   3.153  0.3638  0.3225  0.5302
36732SOL    HW113601   7.818   4.710   3.089 -0.0823  1.6875  1.2436
36732SOL    HW213602   7.677   4.677   3.132  0.2163  2.3161  2.7196
36733SOL     OW13603   9.874   3.551   7.420  0.4189 -0.1146 -0.3375
36733SOL    HW113604   9.845   3.559   7.330  0.6615  2.3438 -0.2343
36733SOL    HW213605   9.795   3.533   7.470  0.2817 -1.4412 -1.0344
36734SOL     OW13606   9.716   9.516   9.464  1.0647 -0.2331 -0.1632
36734SOL    HW113607   9.681   9.429   9.479  1.2793 -0.4633 -0.9777
36734SOL    HW213608   9.677   9.570   9.533 -0.4647 -0.5937 -0.7318
36735SOL     OW13609   0.815   7.401   5.763 -0.6391  0.0464  0.8791
36735SOL    HW113610   0.805   7.375   5.672 -0.2254 -0.2099  0.9039
36735SOL    HW213611   0.872   7.334   5.801  1.7556  1.8548  0.5649
36736SOL     OW13612   7.224   1.867   9.070  0.0349  0.2257  0.3494
36736SOL    HW113613   7.234   1.904   8.982 -0.5192 -1.1868 -0.3123
36736SOL    HW213614   7.268   1.782   9.066 -1.3641 -0.5464  0.9796
36737SOL     OW13615   9.957   9.738   0.719  0.0019 -0.5107 -0.2065
36737SOL    HW113616  10.000   9.660   0.682 -0.5834 -0.0263 -1.9253
36737SOL    HW213617   9.884   9.755   0.661  0.3861  1.6138 -0.0990
36738SOL     OW13618   4.037  10.098  10.858  0.1614 -0.3506  0.7627
36738SOL    HW113619   4.089  10.141  10.926 -1.0835  0.7097  1.0680
36738SOL    HW213620   3.995  10.170  10.811 -1.7279 -1.2014  1.0931
36739SOL     OW13621  10.425   4.789   3.696 -0.5134 -0.2702 -0.2676
36739SOL    HW113622  10.411   4.809   3.789  0.6266  0.0269 -0.1595
36739SOL    HW213623  10.449   4.873   3.657 -3.0747  0.0607 -1.2707
36740SOL     OW13624   5.289   0.843   2.471 -0.3639  0.0203 -0.4884
36740SOL    HW113625   5.322   0.902   2.403 -0.1459  1.2708  0.6937
36740SOL    HW213626   5.367   0.817   2.520 -0.6489 -0.0597 -0.0711
36741SOL     OW13627   0.254   3.806   0.729 -0.3959 -0.7047 -0.4106
36741SOL    HW113628   0.262   3.847   0.642  1.8677  0.1883  0.1621
36741SOL    HW213629   0.252   3.881   0.789  0.1196 -1.3727  0.4324
36742SOL     OW13630  10.108   2.885   2.724 -0.1665  0.6189  0.0841
36742SOL    HW113631  10.185   2.840   2.757  0.8794  1.5761 -1.0250
36742SOL    HW213632  10.140   2.937   2.650 -1.7274  1.6010  0.0782
36743SOL     OW13633   9.754   3.009   0.833 -0.3710  0.7825 -0.3214
36743SOL    HW113634   9.779   2.925   0.870 -2.6223  0.8451  1.4723
36743SOL    HW213635   9.743   2.992   0.740  2.0313 -0.1936 -0.4525
36744SOL     OW13636   9.190   0.179   9.418 -0.6895 -0.0103 -0.0951
36744SOL    HW113637   9.101   0.144   9.410 -0.5576 -1.1254  2.6444
36744SOL    HW213638   9.236   0.115   9.472  1.3126  1.3919 -0.0887
36745SOL     OW13639   0.112   0.380   1.453  0.3146  0.1111  0.8359
36745SOL    HW113640   0.090   0.292   1.422  1.8276 -0.4940  1.4430
36745SOL    HW213641   0.115   0.433   1.374  1.4862 -0.8473  0.2180
36746SOL     OW13642   6.275   1.248   4.457 -0.5581 -0.5530  0.0357
36746SOL    HW113643   6.354   1.193   4.449 -0.3273 -0.2287  0.0847
36746SOL    HW213644   6.308   1.337   4.459 -0.9871 -0.3634 -0.8478
36747SOL     OW13645   7.778   5.359   3.596 -0.0623 -0.3585 -0.3060
36747SOL    HW113646   7.732   5.429   3.550  0.5864 -0.3639 -0.9685
36747SOL    HW213647   7.850   5.403   3.641  1.4704 -0.8148 -2.2231
36748SOL     OW13648   2.663  10.584   2.047  0.4681  0.0349 -0.4441
36748SOL    HW113649   2.708  10.618   1.970 -0.9036  1.8211 -0.4958
36748SOL    HW213650   2.682  10.648   2.116 -0.9991  0.1816 -0.1675
36749SOL     OW13651   6.491   1.645  10.168 -0.6060 -0.0389 -0.1926
36749SOL    HW113652   6.442   1.691  10.099  0.9399  0.7682 -0.7860
36749SOL    HW213653   6.500   1.710  10.238  0.7676  0.2812 -0.6455
36750SOL     OW13654   0.316   1.351   9.307  0.3719  0.5967  0.0025
36750SOL    HW113655   0.282   1.302   9.382  0.4754 -0.4139 -0.5994
36750SOL    HW213656   0.316   1.442   9.336  4.8286 -0.1751  2.9445
36751SOL     OW13657   7.258  10.856   6.387  0.0416 -0.0631  0.3204
36751SOL    HW113658   7.178  10.815   6.421  0.3117 -0.4759  0.4566
36751SOL    HW213659   7.227  10.917   6.320 -0.3207 -0.9024 -0.2811
36752SOL     OW13660  10.174   6.397   0.755  0.4062 -0.0415 -0.1140
36752SOL    HW113661  10.201   6.318   0.709 -0.7814  0.4246 -1.6259
36752SOL    HW213662  10.130   6.365   0.834  0.9652 -0.8632 -0.1296
36753SOL     OW13663   2.548   5.015   2.544 -0.2679  0.1364  0.0592
36753SOL    HW113664   2.511   5.020   2.632  1.2358 -0.3120  0.7415
36753SOL    HW213665   2.542   4.922   2.521  1.1424 -0.0837  0.5131
36754SOL     OW13666  10.978   4.091   8.119 -1.0016 -0.1265 -0.5974
36754SOL    HW113667  10.939   4.097   8.032 -0.4222 -1.8803 -1.0207
36754SOL    HW213668  10.910   4.053   8.174 -0.4343 -1.7757 -0.9911
36755SOL     OW13669   8.468   1.167   1.055  0.1635 -0.2171 -0.4752
36755SOL    HW113670   8.462   1.121   0.971 -0.6420  0.5548 -0.8406
36755SOL    HW213671   8.411   1.243   1.045  1.4048  0.8020  0.1725
36756SOL     OW13672   6.462  10.419   9.627 -0.4437 -0.5325  1.0690
36756SOL    HW113673   6.517  10.435   9.703 -0.9962  3.2179  0.7441
36756SOL    HW213674   6.521  10.375   9.564  1.3446  0.7149  1.8332
36757SOL     OW13675   0.363   5.887   6.036  0.1739  0.1432 -0.1745
36757SOL    HW113676   0.281   5.848   6.005  0.6462  0.6273 -2.1422
36757SOL    HW213677   0.338   5.940   6.111 -1.2371 -0.1352 -0.4394
36758SOL     OW13678   9.677   3.332   5.779  0.1481  0.4205 -0.0947
36758SOL    HW113679   9.700   3.242   5.757 -3.2213 -0.5280 -0.0574
36758SOL    HW213680   9.727   3.351   5.859 -0.5979 -2.1446  1.0366
36759SOL     OW13681   5.666   2.482   4.971 -0.6501  0.1289 -0.3782
36759SOL    HW113682   5.758   2.478   4.946 -0.7254 -0.7542 -0.5348
36759SOL    HW213683   5.620   2.504   4.890 -0.6593 -0.3252 -0.4989
36760SOL     OW13684   1.916   3.201   4.742 -0.1091  0.2854 -0.6139
36760SOL    HW113685   1.996   3.219   4.693  0.8050 -2.1735 -0.0664
36760SOL    HW213686   1.945   3.196   4.833 -1.1566  0.9483 -0.2406
36761SOL     OW13687   3.839  10.974  10.764  0.7880  0.2157 -0.3859
36761SOL    HW113688   3.846  10.972  10.859  0.8016  0.4645 -0.3822
36761SOL    HW213689   3.927  10.954  10.732  1.1513  1.6755 -0.3412
36762SOL     OW13690   5.357   5.607   1.881 -0.0401  1.0160 -0.4616
36762SOL    HW113691   5.451   5.591   1.888  0.0713  1.0100 -1.8953
36762SOL    HW213692   5.345   5.694   1.920  0.3112  0.3431  1.1984
36763SOL     OW13693   4.225   9.767  10.418 -0.2322  0.4540 -0.2070
36763SOL    HW113694   4.133   9.751  10.402 -0.0501 -0.0642 -0.7446
36763SOL    HW213695   4.248   9.709  10.490  0.0466 -0.5711 -1.1095
36764SOL     OW13696   5.530   3.602   5.586  0.6484 -0.2995  0.3344
36764SOL    HW113697   5.450   3.610   5.535  0.4002 -0.1335  0.7436
36764SOL    HW213698   5.499   3.593   5.677  1.1215  0.8285  0.6124
36765SOL     OW13699   1.424   3.120   8.752  0.2927 -0.8803  0.0455
36765SOL    HW113700   1.448   3.091   8.840 -3.5028  0.0459  1.5108
36765SOL    HW213701   1.428   3.216   8.757  1.1418 -0.8497 -1.1256
36766SOL     OW13702   6.472  10.940   9.302 -0.3441 -0.8207 -0.6915
36766SOL    HW113703   6.496  10.892   9.223  0.1083  0.2241 -1.2096
36766SOL    HW213704   6.530  11.017   9.302 -0.7162 -0.5219  0.3648
36767SOL     OW13705   5.827   9.962   5.600  0.2919 -1.0441  0.2744
36767SOL    HW113706   5.819   9.890   5.662 -1.6407 -0.6693  0.5048
36767SOL    HW213707   5.808  10.040   5.652  0.7820 -0.5211 -0.3232
36768SOL     OW13708   9.997   7.200   4.209  0.1144  0.8373 -0.1531
36768SOL    HW113709   9.930   7.226   4.273 -0.1153  2.3292 -0.9679
36768SOL    HW213710  10.077   7.243   4.239  0.1900  0.8681 -0.3961
36769SOL     OW13711   1.558   4.915   1.119 -0.5260 -0.2331 -0.0775
36769SOL    HW113712   1.526   4.889   1.033  1.5391  1.5200 -1.4482
36769SOL    HW213713   1.608   4.840   1.150 -1.1970 -0.8371 -0.4576
36770SOL     OW13714   8.657   2.668   7.612 -0.0270 -0.4604 -0.5764
36770SOL    HW113715   8.692   2.694   7.527  1.4587 -0.4099  0.0211
36770SOL    HW213716   8.727   2.689   7.674 -0.7390 -1.3011  0.5474
36771SOL     OW13717   8.406   2.614   4.445  0.0635 -0.7016  0.0468
36771SOL    HW113718   8.457   2.569   4.377  1.9132 -0.5748  1.3112
36771SOL    HW213719   8.371   2.543   4.499 -0.3763 -0.7591 -0.3122
36772SOL     OW13720   4.538   5.432   9.671  0.3031  0.2212  0.1972
36772SOL    HW113721   4.561   5.377   9.595 -1.2872  1.5098 -1.2707
36772SOL    HW213722   4.622   5.450   9.713  0.9879 -2.3737  0.0618
36773SOL     OW13723   9.125   0.013   5.108 -0.1523 -0.3810 -0.5644
36773SOL    HW113724   9.073  -0.005   5.030 -1.9238 -0.3861  0.6018
36773SOL    HW213725   9.133   0.108   5.110 -4.1388  0.0285  1.7401
36774SOL     OW13726   9.518   6.013   4.791  0.1679 -0.9058  0.4086
36774SOL    HW113727   9.507   5.941   4.854 -0.2351 -1.3167 -0.1261
36774SOL    HW213728   9.464   6.083   4.826  0.0430 -1.0920  0.5929
36775SOL     OW13729   5.957  10.704   7.929 -0.6300  0.0798  0.4473
36775SOL    HW113730   5.987  10.705   7.838  0.6660 -0.7180  0.8491
36775SOL    HW213731   5.867  10.735   7.925 -0.4047  0.5735 -1.0467
36776SOL     OW13732   1.701   4.371   9.544  0.0887  0.9117 -0.0043
36776SOL    HW113733   1.722   4.302   9.481  0.9327  0.7199  0.4856
36776SOL    HW213734   1.612   4.351   9.573  0.0580  0.4556 -0.4145
36777SOL     OW13735   7.698  10.142  10.669  0.4201  0.2946  0.9716
36777SOL    HW113736   7.631  10.137  10.737  0.6110 -0.7119  1.0935
36777SOL    HW213737   7.779  10.116  10.712  0.3355 -1.4789  0.1056
36778SOL     OW13738   5.773   9.527  10.475 -0.1048  0.8866  0.1477
36778SOL    HW113739   5.804   9.500  10.389  0.9874 -1.3877  1.1952
36778SOL    HW213740   5.685   9.488  10.482  1.1989 -2.0146  1.3860
36779SOL     OW13741   1.577   9.025   1.944  0.3292  0.5912  0.3356
36779SOL    HW113742   1.609   9.084   2.012 -2.2389  0.3773  1.7804
36779SOL    HW213743   1.521   9.080   1.888  0.5567  0.2410 -0.2452
36780SOL     OW13744   4.471   5.695   1.935 -0.5390  0.2011 -0.4065
36780SOL    HW113745   4.485   5.789   1.923 -1.0332  0.0592 -2.1730
36780SOL    HW213746   4.515   5.655   1.860 -0.0189 -1.0131  0.5281
36781SOL     OW13747   5.621   1.865   5.433 -0.4441 -0.5186  0.6535
36781SOL    HW113748   5.570   1.941   5.462 -1.2873 -0.4102 -1.0478
36781SOL    HW213749   5.703   1.871   5.482  0.4179  2.7484 -1.0340
36782SOL     OW13750   9.663   0.720   8.997  0.2913 -0.2190  0.3795
36782SOL    HW113751   9.627   0.781   8.933  0.9398 -0.7119 -0.4652
36782SOL    HW213752   9.705   0.776   9.062  1.5436  0.2434 -0.7853
36783SOL     OW13753   0.395   6.182   2.752  0.0514 -0.1904 -0.0148
36783SOL    HW113754   0.467   6.179   2.815  0.1260  2.0452  0.0617
36783SOL    HW213755   0.359   6.094   2.753  2.7736 -1.3646 -0.0461
36784SOL     OW13756   9.010   3.144   7.484 -0.5352 -0.2650 -0.0554
36784SOL    HW113757   9.025   3.157   7.578 -1.6121 -1.5047  0.3126
36784SOL    HW213758   9.086   3.094   7.454 -2.4222 -4.1098  1.2130
36785SOL     OW13759  10.111   0.575   9.855  0.6145  0.0821 -0.2301
36785SOL    HW113760  10.101   0.643   9.789 -0.1886  0.6414  0.4510
36785SOL    HW213761  10.037   0.516   9.838  0.1474  0.4675  0.4406
36786SOL     OW13762   0.459   6.591   6.905 -0.3961  0.1077  0.1678
36786SOL    HW113763   0.516   6.536   6.959  1.1174  0.1511 -1.3182
36786SOL    HW213764   0.396   6.628   6.966  1.7211  0.7488  2.0546
36787SOL     OW13765   7.164  10.437   6.508  0.0460  0.2733 -0.2137
36787SOL    HW113766   7.105  10.400   6.442  0.0467 -0.1533  0.0194
36787SOL    HW213767   7.132  10.526   6.522  0.4201  0.5784 -1.2385
36788SOL     OW13768   5.100   5.547   8.342 -0.5483 -0.3873  0.3625
36788SOL    HW113769   5.010   5.517   8.357 -0.7021 -0.7177 -1.1047
36788SOL    HW213770   5.107   5.552   8.247  1.0191 -0.4594  0.4706
36789SOL     OW13771   2.509  10.758   7.950  0.5140  0.3653  0.1627
36789SOL    HW113772   2.466  10.813   8.016  0.4355  1.8223 -1.0494
36789SOL    HW213773   2.447  10.757   7.877  1.2350 -0.0171 -0.4482
36790SOL     OW13774   0.760   0.021  10.322 -0.2353  0.1249  0.3080
36790SOL    HW113775   0.728  -0.051  10.268  0.9569 -0.3578  0.2519
36790SOL    HW213776   0.690   0.035  10.386  0.1159 -1.9943  1.1835
36791SOL     OW13777   6.283   3.276   7.596 -0.3902 -0.7502  0.3423
36791SOL    HW113778   6.261   3.369   7.598  1.6835 -0.1723 -1.8579
36791SOL    HW213779   6.198   3.231   7.597 -1.4042  1.1465  1.3331
36792SOL     OW13780   4.657   3.427   9.423 -0.7797  0.1068  0.0194
36792SOL    HW113781   4.640   3.496   9.488  1.3997  1.2082 -0.5457
36792SOL    HW213782   4.571   3.389   9.407 -1.4974  0.3213  2.9859
36793SOL     OW13783   1.171   8.028   8.766  0.2052 -0.5783 -0.0120
36793SOL    HW113784   1.215   8.025   8.851  0.0958  3.5433  0.2943
36793SOL    HW213785   1.243   8.021   8.702  0.6252 -0.5950  0.4591
36794SOL     OW13786   0.170   9.841   0.153  0.1186  0.9374  0.4014
36794SOL    HW113787   0.176   9.756   0.109 -1.4883  0.8610  0.2797
36794SOL    HW213788   0.222   9.832   0.233  0.0426 -0.1197  0.3303
36795SOL     OW13789   8.067   7.653   5.754  0.3690 -0.1360 -0.2725
36795SOL    HW113790   8.074   7.720   5.822  2.5247 -2.2503  1.6720
36795SOL    HW213791   7.975   7.629   5.753  0.1777  0.4437  1.4158
36796SOL     OW13792   0.222   1.457   6.525  0.1895  0.3829  0.0383
36796SOL    HW113793   0.296   1.432   6.470  0.2363  0.0373  0.2528
36796SOL    HW213794   0.212   1.551   6.512  0.6146  0.4155 -0.0512
36797SOL     OW13795   4.744   6.600   5.292  0.4538  0.0742 -0.3337
36797SOL    HW113796   4.793   6.633   5.216 -0.9693  0.9554 -0.9042
36797SOL    HW213797   4.738   6.675   5.351  2.6700 -0.9565  1.2883
36798SOL     OW13798   3.929   4.881  10.179  0.3331  0.2134 -0.0512
36798SOL    HW113799   3.842   4.919  10.173  0.4813  0.5186 -0.3271
36798SOL    HW213800   3.951   4.885  10.272  1.0923  2.5219 -0.2855
36799SOL     OW13801   5.319   8.433   0.338  0.0841  0.3126  0.6757
36799SOL    HW113802   5.329   8.513   0.285  0.0776  0.1283  0.3916
36799SOL    HW213803   5.327   8.362   0.274  0.2832  0.0825  0.9612
36800SOL     OW13804   3.021  10.828   1.936 -0.0644 -0.3399  1.3023
36800SOL    HW113805   2.955  10.896   1.950 -0.6182 -1.4961  4.8258
36800SOL    HW213806   2.982  10.749   1.974  2.0426 -1.8190  0.4717
36801SOL     OW13807   3.291   3.483   9.903  0.4212  0.3490  0.1599
36801SOL    HW113808   3.323   3.441   9.983 -0.1458 -1.2260 -0.4173
36801SOL    HW213809   3.266   3.571   9.931  0.5874 -0.0531  1.6474
36802SOL     OW13810   6.068   6.573   3.367 -0.0976  0.6212 -0.4684
36802SOL    HW113811   6.091   6.486   3.332  3.1336  0.7066  1.2113
36802SOL    HW213812   6.112   6.635   3.308 -1.3045  1.0816 -0.8923
36803SOL     OW13813   2.025   2.082   6.765 -0.8032  0.2337 -0.1136
36803SOL    HW113814   2.068   2.020   6.824  1.1435 -0.6643 -2.3749
36803SOL    HW213815   1.989   2.028   6.695 -0.5533  1.4850 -1.2462
36804SOL     OW13816   0.170   7.748   3.453  0.1452  0.1410  0.0493
36804SOL    HW113817   0.256   7.708   3.446  1.0319  2.2418 -1.5922
36804SOL    HW213818   0.175   7.827   3.399 -2.1919  1.3362  1.4654
36805SOL     OW13819   6.053   2.391   1.152 -0.2333  0.3683  0.4692
36805SOL    HW113820   6.055   2.476   1.196  0.0919  0.3537  0.4855
36805SOL    HW213821   6.142   2.380   1.119 -0.4612  0.3542 -0.1397
36806SOL     OW13822   3.105   9.402   5.032 -0.4494  0.3643  0.8666
36806SOL    HW113823   3.161   9.344   4.981 -2.5116 -1.3065  0.4351
36806SOL    HW213824   3.131   9.491   5.007  0.0518 -0.4261 -1.4314
36807SOL     OW13825   9.226   3.007   6.334  0.1878  0.2537 -0.4591
36807SOL    HW113826   9.166   3.073   6.368  0.0794 -0.4704  0.7714
36807SOL    HW213827   9.195   2.991   6.245 -1.3427  0.0334  0.1003
36808SOL     OW13828   7.143   7.184   4.560  0.1387  0.3401 -0.1356
36808SOL    HW113829   7.056   7.197   4.598  0.2679  1.3779 -0.1978
36808SOL    HW213830   7.173   7.101   4.598  0.1963  1.2750  1.9530
36809SOL     OW13831   6.112   7.604   1.808 -0.1524  0.7182 -0.4242
36809SOL    HW113832   6.106   7.522   1.759  2.2319 -0.9340  1.8938
36809SOL    HW213833   6.162   7.662   1.751 -1.2799  0.3622 -1.8074
36810SOL     OW13834   0.228   6.754   7.827 -0.1773 -0.0328  0.0292
36810SOL    HW113835   0.173   6.694   7.877 -0.0470  1.2223  1.7067
36810SOL    HW213836   0.295   6.783   7.888  0.1343  1.3508 -0.9296
36811SOL     OW13837   0.681  10.450  10.904  0.4524  0.4468  0.1511
36811SOL    HW113838   0.725  10.387  10.848 -1.6737 -0.2823 -0.7803
36811SOL    HW213839   0.738  10.460  10.980  0.9182 -2.4816  0.2451
36812SOL     OW13840   8.463   5.968   3.551 -0.3936 -0.1005  0.2611
36812SOL    HW113841   8.530   6.034   3.533  0.0027 -0.5705 -0.0274
36812SOL    HW213842   8.465   5.910   3.474 -0.6314 -0.5290  0.5735
36813SOL     OW13843   8.412   2.210   5.672  0.4125  0.2326 -0.1066
36813SOL    HW113844   8.450   2.209   5.583  1.6077  1.3151  0.3757
36813SOL    HW213845   8.400   2.117   5.693  3.2675 -0.1867 -0.1124
36814SOL     OW13846   4.298   8.066   6.350 -0.4825 -0.0131 -0.6809
36814SOL    HW113847   4.284   7.994   6.412  1.0538  0.5430  0.3621
36814SOL    HW213848   4.303   8.024   6.265 -1.9191 -0.8777 -0.3546
36815SOL     OW13849   7.690   6.344   1.377  0.3657  0.1855 -0.1763
36815SOL    HW113850   7.779   6.319   1.399  0.0329 -0.2026  0.7391
36815SOL    HW213851   7.671   6.294   1.297  0.4412 -0.8976  0.4712
36816SOL     OW13852   7.400   1.610   7.568 -0.3245  0.1801  0.8662
36816SOL    HW113853   7.453   1.647   7.498 -0.3272 -1.0787  0.1705
36816SOL    HW213854   7.463   1.585   7.636 -0.0017 -1.2426  0.0732
36817SOL     OW13855   0.983   7.000   5.528  0.0235  0.1123 -0.2284
36817SOL    HW113856   1.042   6.958   5.592 -0.9025 -1.7930 -0.5967
36817SOL    HW213857   1.029   7.080   5.503  2.2902 -1.1356 -0.2175
36818SOL     OW13858   0.773   9.976   3.734 -0.4182  0.7526 -0.1502
36818SOL    HW113859   0.677   9.975   3.731 -0.5473  5.0300  0.0411
36818SOL    HW213860   0.794   9.996   3.825  0.8198 -2.9502  0.4796
36819SOL     OW13861   9.910   8.335   4.619  0.1245 -0.3685  0.0618
36819SOL    HW113862   9.885   8.252   4.659 -0.1379 -0.1380  0.3809
36819SOL    HW213863   9.827   8.380   4.601  0.2939  1.0770  2.5647
36820SOL     OW13864   5.304   3.713   7.061  0.1190 -0.2439 -0.5287
36820SOL    HW113865   5.357   3.750   6.990  0.8297 -0.7937 -0.2887
36820SOL    HW213866   5.266   3.789   7.104  1.6720  0.2307  0.0477
36821SOL     OW13867   5.980   2.090   3.294 -0.4114 -0.3070  0.0628
36821SOL    HW113868   5.911   2.134   3.344 -1.0805 -0.7086 -0.4994
36821SOL    HW213869   6.054   2.086   3.354 -0.9405 -0.0432  0.7377
36822SOL     OW13870   8.760   5.207   0.902  0.3892 -0.2307  0.1750
36822SOL    HW113871   8.839   5.160   0.875  0.7748  0.0050  0.8764
36822SOL    HW213872   8.691   5.141   0.903  0.6839 -0.5426  0.0324
36823SOL     OW13873   4.816   1.959  10.505  0.3075  0.4151 -0.1592
36823SOL    HW113874   4.870   1.999  10.573  0.5038 -3.3364  2.0449
36823SOL    HW213875   4.727   1.961  10.541  0.4682 -1.9175  0.4208
36824SOL     OW13876   1.178   1.141   8.356 -0.2920  0.1085 -0.3308
36824SOL    HW113877   1.206   1.050   8.347  0.5326  0.2558  0.6496
36824SOL    HW213878   1.143   1.164   8.270 -1.8388 -1.5813 -0.1812
36825SOL     OW13879   4.467   9.657   0.148 -0.2620  0.5471 -0.6018
36825SOL    HW113880   4.562   9.664   0.142 -0.0728 -1.4645 -0.5925
36825SOL    HW213881   4.445   9.580   0.096 -1.5916 -0.4835  1.3864
36826SOL     OW13882   7.927   4.157   7.234 -0.4256  0.0049 -0.2114
36826SOL    HW113883   7.877   4.222   7.283 -0.8585 -2.2170  2.4672
36826SOL    HW213884   8.018   4.171   7.261 -0.1678  1.1308 -1.6175
36827SOL     OW13885   8.010   2.492   3.847 -0.7196  0.0898 -0.4957
36827SOL    HW113886   8.090   2.439   3.848  0.5692  1.9924  0.1453
36827SOL    HW213887   7.939   2.428   3.850  0.7675 -1.6482 -1.3678
36828SOL     OW13888   7.227   6.034   3.562  0.3841  0.5396  0.6342
36828SOL    HW113889   7.133   6.020   3.555  0.8993 -2.3843 -1.1846
36828SOL    HW213890   7.262   5.950   3.592  2.6766  0.6348 -1.5715
36829SOL     OW13891   6.421   8.732   0.913 -0.1823  0.1220  1.1496
36829SOL    HW113892   6.391   8.820   0.890 -0.0892 -0.0364  0.4051
36829SOL    HW213893   6.414   8.682   0.832 -0.0164 -0.4991  1.5119
36830SOL     OW13894   6.312  10.353   2.294 -0.0110 -0.2100  0.2049
36830SOL    HW113895   6.347  10.280   2.241  1.7138  0.5992  0.1827
36830SOL    HW213896   6.297  10.314   2.381 -0.3015 -0.8984 -0.1523
36831SOL     OW13897   1.482   3.200   3.807  0.0951 -0.4350 -0.3615
36831SOL    HW113898   1.562   3.231   3.849 -1.3109 -1.1486  3.0697
36831SOL    HW213899   1.418   3.270   3.823  0.1129  0.3372 -3.4622
36832SOL     OW13900   8.443   8.883   1.109  0.5720 -0.4150 -0.1104
36832SOL    HW113901   8.451   8.910   1.200  0.3686  1.5764 -0.6792
36832SOL    HW213902   8.351   8.860   1.098  0.1000  1.5431 -0.4018
36833SOL     OW13903   4.796   4.151   6.119 -0.0285  0.2386 -0.8219
36833SOL    HW113904   4.755   4.116   6.198  1.2726  1.1029  0.2595
36833SOL    HW213905   4.767   4.092   6.049 -0.2840 -1.2161  0.4731
36834SOL     OW13906   0.604   3.242   5.080 -0.4069 -0.1978 -0.0726
36834SOL    HW113907   0.655   3.310   5.035  0.4232 -1.0644 -0.4553
36834SOL    HW213908   0.559   3.196   5.010  2.2768 -2.7001 -0.2305
36835SOL     OW13909   4.249   9.994   3.738 -0.7602  0.3677 -0.6152
36835SOL    HW113910   4.282  10.053   3.806 -1.5388  1.7712 -1.4509
36835SOL    HW213911   4.308   9.918   3.742  0.4004  1.2966  0.3014
36836SOL     OW13912   7.159   5.720   8.921  0.1649  0.3866 -0.4628
36836SOL    HW113913   7.163   5.628   8.897  2.3492  0.5777 -0.9371
36836SOL    HW213914   7.246   5.754   8.900 -0.0037  2.1154  1.4824
36837SOL     OW13915   3.310   5.662   5.961  0.5968  0.3185  0.2001
36837SOL    HW113916   3.315   5.694   5.871  2.4129 -0.6588 -0.0729
36837SOL    HW213917   3.400   5.635   5.982 -0.2495 -1.6388  1.4977
36838SOL     OW13918   5.456   3.672   6.275  0.4700  0.1532  0.6308
36838SOL    HW113919   5.538   3.686   6.323  1.0481  0.2460 -0.3605
36838SOL    HW213920   5.412   3.757   6.276  0.2210  0.0178  1.4598
36839SOL     OW13921   1.163   0.214   3.370 -0.1578 -0.5038 -0.0700
36839SOL    HW113922   1.172   0.269   3.292 -0.6891 -0.1253  0.1374
36839SOL    HW213923   1.196   0.269   3.441 -1.1402 -0.2716  0.2127
36840SOL     OW13924   8.507   5.429   5.608  0.3886  0.1892  0.2024
36840SOL    HW113925   8.572   5.428   5.678  2.0337 -1.0428 -1.2668
36840SOL    HW213926   8.558   5.447   5.529 -1.0019 -1.2070 -1.0458
36841SOL     OW13927  10.048   5.946   5.373 -0.5887  0.3047 -0.0512
36841SOL    HW113928   9.987   6.014   5.346 -1.0592 -0.6526 -1.4311
36841SOL    HW213929  10.000   5.894   5.437 -0.5037  0.7675  0.3960
36842SOL     OW13930   3.444   4.019  10.890 -0.1032 -0.0222 -0.3217
36842SOL    HW113931   3.503   4.030  10.815 -0.1913  0.5271 -0.3180
36842SOL    HW213932   3.418   4.109  10.912 -1.8754 -0.3192 -1.0938
36843SOL     OW13933   8.921   0.097   1.104 -0.3168  0.3140 -0.6389
36843SOL    HW113934   8.899   0.093   1.011  1.5713  2.1332 -1.2066
36843SOL    HW213935   8.992   0.034   1.115 -1.6110 -1.0827 -0.0659
36844SOL     OW13936  10.608   1.474   3.825 -0.3910 -0.5528 -0.0583
36844SOL    HW113937  10.637   1.565   3.820  0.6382 -0.8171  0.7857
36844SOL    HW213938  10.585   1.461   3.917 -0.4678 -1.1629 -0.1553
36845SOL     OW13939   8.798  10.800   2.081  0.7282  0.0296 -0.1459
36845SOL    HW113940   8.761  10.712   2.087  1.3150 -0.1844  0.3976
36845SOL    HW213941   8.880  10.795   2.130  0.5710  0.9782  0.2307
36846SOL     OW13942   9.915  10.099   6.717 -0.3047 -0.2222 -0.2180
36846SOL    HW113943   9.847  10.032   6.725  1.6311 -2.4743 -1.9291
36846SOL    HW213944   9.992  10.061   6.760  0.2084  1.8598  0.7893
36847SOL     OW13945   7.877   5.954   4.978 -0.2731 -0.3640 -0.7849
36847SOL    HW113946   7.790   5.973   4.945 -0.0468  1.1017 -0.5693
36847SOL    HW213947   7.933   5.954   4.900 -0.2975 -0.2969 -0.8025
36848SOL     OW13948   8.625   2.763   5.621  0.6885 -0.2193  0.0090
36848SOL    HW113949   8.559   2.742   5.687  1.2682 -0.6115  0.4778
36848SOL    HW213950   8.654   2.852   5.643 -0.1020  0.1851 -0.5599
36849SOL     OW13951   3.950   9.723   8.022  0.1340  0.2722  0.1787
36849SOL    HW113952   3.857   9.739   8.042  0.0834  0.0014  0.1621
36849SOL    HW213953   3.995   9.798   8.060 -0.1042  0.4592  0.0935
36850SOL     OW13954   8.183   5.998   5.078 -0.5317  0.2614  0.0406
36850SOL    HW113955   8.253   6.063   5.088  0.8390 -0.7798 -2.2491
36850SOL    HW213956   8.126   6.035   5.010  0.1815 -0.8453 -1.1766
36851SOL     OW13957   1.881   1.592   1.775 -0.0277 -0.2226  0.2912
36851SOL    HW113958   1.899   1.578   1.868  0.7473  0.8147  0.3033
36851SOL    HW213959   1.786   1.585   1.767 -0.0300 -1.1157  1.0211
36852SOL     OW13960   1.528   8.373   5.655  0.1182  0.5888  0.0918
36852SOL    HW113961   1.470   8.423   5.712  2.3020  1.8257  1.3170
36852SOL    HW213962   1.500   8.283   5.665 -0.3100  0.9224  2.2311
36853SOL     OW13963   5.172   4.344   2.691  0.8988  0.3589  0.1922
36853SOL    HW113964   5.154   4.250   2.680  0.2636  0.6826 -1.7957
36853SOL    HW213965   5.245   4.361   2.631 -0.3839  1.5398 -1.0626
36854SOL     OW13966  10.959   7.417   0.476  0.5115 -0.6420 -0.2080
36854SOL    HW113967  11.051   7.413   0.499  0.4987 -1.5530 -0.2695
36854SOL    HW213968  10.913   7.390   0.555  0.1747  2.0985  0.5541
36855SOL     OW13969  10.064   9.962   8.205 -0.1401 -0.2521  0.2412
36855SOL    HW113970  10.159   9.975   8.199 -0.2352  0.3241  0.0028
36855SOL    HW213971  10.046   9.892   8.143  0.0920 -0.1810  0.0924
36856SOL     OW13972  10.480   2.306   3.238 -0.1377  0.0160  0.7087
36856SOL    HW113973  10.539   2.356   3.182  0.2161  1.2726  2.1811
36856SOL    HW213974  10.453   2.231   3.184  0.6636  0.8783 -0.9120
36857SOL     OW13975   2.646  10.096   2.245 -0.6507  0.4202 -0.1094
36857SOL    HW113976   2.675  10.178   2.206 -1.4233  1.5847  1.7099
36857SOL    HW213977   2.551  10.101   2.244 -0.7070 -0.4575  0.0394
36858SOL     OW13978   9.511   5.864   4.222 -0.4638 -0.4539 -0.4726
36858SOL    HW113979   9.472   5.853   4.309 -0.3139 -0.9667 -0.4714
36858SOL    HW213980   9.501   5.957   4.204  0.7264 -0.0935  0.6686
36859SOL     OW13981   3.469   2.694   9.868 -0.7712  0.3637 -0.1029
36859SOL    HW113982   3.558   2.668   9.889 -1.0298 -0.7550 -0.3782
36859SOL    HW213983   3.432   2.620   9.820 -0.4899  2.4636 -3.7927
36860SOL     OW13984   6.380   3.441   6.430  0.5760 -0.4653 -0.7873
36860SOL    HW113985   6.359   3.471   6.518  1.3102 -0.1315 -0.7199
36860SOL    HW213986   6.348   3.509   6.371  0.2824 -0.5845 -0.7637
36861SOL     OW13987   9.954  10.410   7.026  0.0002  0.8975  0.5626
36861SOL    HW113988  10.015  10.361   6.971 -0.6852  1.4450 -0.6935
36861SOL    HW213989  10.008  10.443   7.098  0.5237 -1.4760  1.3160
36862SOL     OW13990   3.255   1.493   2.165  0.1717  0.2658  0.1892
36862SOL    HW113991   3.259   1.579   2.208  1.6841  1.2013 -1.7441
36862SOL    HW213992   3.335   1.449   2.192 -0.9713 -0.8803  1.7971
36863SOL     OW13993   0.979   3.704  10.219  0.0568  0.4602 -0.4441
36863SOL    HW113994   1.021   3.638  10.163  0.0066  0.0421  0.0068
36863SOL    HW213995   0.904   3.735  10.168  0.5789  0.7986 -1.0200
36864SOL     OW13996   4.236   2.647   1.281 -0.6999  0.8151  0.1086
36864SOL    HW113997   4.191   2.609   1.356 -2.3155 -2.1849 -2.2904
36864SOL    HW213998   4.268   2.572   1.231  0.5972  2.7484 -2.0831
36865SOL     OW13999   5.876   8.367   3.236  0.5581 -0.0525 -0.1834
36865SOL    HW114000   5.921   8.283   3.231  0.3076 -0.1555 -0.7560
36865SOL    HW214001   5.821   8.370   3.158 -1.9997 -0.7895  1.5518
36866SOL     OW14002   6.408  10.393   1.795 -0.0414 -0.7384  0.4571
36866SOL    HW114003   6.493  10.351   1.803  0.0545 -0.7667 -0.6927
36866SOL    HW214004   6.404  10.453   1.870  0.6798 -1.2652  0.9219
36867SOL     OW14005  10.943   8.409   3.960  0.0039  0.1779  0.3776
36867SOL    HW114006  10.896   8.331   3.991  0.4131 -0.0349  0.4657
36867SOL    HW214007  10.921   8.414   3.867 -1.3000  0.8739  0.7217
36868SOL     OW14008   1.855   5.712  10.756 -0.4316 -0.3200  0.1624
36868SOL    HW114009   1.859   5.626  10.713 -2.2737 -0.2439 -0.2084
36868SOL    HW214010   1.896   5.772  10.695 -1.6292 -0.4848 -0.8213
36869SOL     OW14011   7.181   5.133  10.410 -0.6160  0.2981 -0.4320
36869SOL    HW114012   7.135   5.190  10.471  2.9925  1.9661  0.9145
36869SOL    HW214013   7.135   5.145  10.327 -0.9698  3.9921  0.1914
36870SOL     OW14014  10.932   7.518   0.960  0.1010 -0.1205  0.5081
36870SOL    HW114015  10.907   7.585   1.023  1.1203  1.2047 -0.4588
36870SOL    HW214016  10.998   7.561   0.905 -2.3319 -0.5066 -2.8662
36871SOL     OW14017  10.810   8.243   7.384  0.4849  0.2216  0.3232
36871SOL    HW114018  10.807   8.238   7.480 -0.5276  1.6574  0.3887
36871SOL    HW214019  10.871   8.175   7.358  0.7347 -0.2129  1.9988
36872SOL     OW14020   3.694   3.808   0.416  0.1212  0.1825 -0.2494
36872SOL    HW114021   3.682   3.814   0.321  1.3457  1.7315 -0.3165
36872SOL    HW214022   3.608   3.827   0.452  0.0973  1.5365 -1.0029
36873SOL     OW14023   5.701   6.065  10.714  0.0794 -0.2816  0.0887
36873SOL    HW114024   5.654   5.982  10.720  0.3849 -0.5426 -1.0148
36873SOL    HW214025   5.713   6.079  10.620 -0.7180  1.4381  0.2196
36874SOL     OW14026   0.353   3.546  10.330  0.4566  0.6525  0.9002
36874SOL    HW114027   0.273   3.507  10.367  0.5838 -0.1765  0.3256
36874SOL    HW214028   0.389   3.477  10.274  0.4249  1.7888 -0.5376
36875SOL     OW14029   2.394   2.071   9.686  0.4974 -0.4469 -0.1272
36875SOL    HW114030   2.468   2.075   9.624  1.3746  0.1604  0.9270
36875SOL    HW214031   2.429   2.022   9.761  0.1468  0.6692  0.7800
36876SOL     OW14032   3.066   9.678   6.087  0.1822  0.0397 -0.2963
36876SOL    HW114033   3.044   9.652   5.997 -1.5522  3.1577 -0.8199
36876SOL    HW214034   3.153   9.716   6.080  1.4345 -2.6028 -0.0321
36877SOL     OW14035   1.162   9.642  10.889 -0.3502 -0.1663 -0.0688
36877SOL    HW114036   1.137   9.615  10.801 -0.7147  0.7037 -0.2366
36877SOL    HW214037   1.225   9.713  10.876  0.7790 -1.0619  0.3675
36878SOL     OW14038   7.931   5.496   6.196  0.0895 -0.2787 -0.7446
36878SOL    HW114039   7.862   5.435   6.225  0.2169  0.1618  0.5252
36878SOL    HW214040   7.885   5.577   6.177 -0.0735 -0.7371 -2.3936
36879SOL     OW14041   8.196   8.400   8.183 -0.7598  0.0324 -0.2501
36879SOL    HW114042   8.186   8.325   8.125 -1.9836 -2.0888  2.5724
36879SOL    HW214043   8.279   8.385   8.228 -0.8424  0.5606  0.0907
36880SOL     OW14044   0.666   4.808   6.802 -0.5129  0.4168 -0.0930
36880SOL    HW114045   0.674   4.865   6.725  0.2082  1.2037  0.5583
36880SOL    HW214046   0.620   4.730   6.769  1.9794 -0.3754 -1.9487
36881SOL     OW14047   0.644   7.390   8.133 -0.0464 -0.5249  0.1434
36881SOL    HW114048   0.668   7.470   8.179 -1.4488 -0.1125  0.1967
36881SOL    HW214049   0.650   7.321   8.199  0.5672 -0.3612  0.2553
36882SOL     OW14050   2.363   7.069   2.857 -0.4114 -0.0758  0.2825
36882SOL    HW114051   2.274   7.038   2.873 -0.1638 -0.9697 -0.0476
36882SOL    HW214052   2.364   7.159   2.892 -1.6878  0.2550 -0.5014
36883SOL     OW14053   0.248   3.119   7.010  0.0044  0.3010  0.3818
36883SOL    HW114054   0.265   3.026   7.023  1.9999  0.5448 -0.3330
36883SOL    HW214055   0.268   3.135   6.918 -1.2077  1.2542  0.2696
36884SOL     OW14056   9.316   3.135   0.144  0.0273 -0.1524 -0.2588
36884SOL    HW114057   9.336   3.052   0.188 -1.3240 -0.2074  0.2882
36884SOL    HW214058   9.399   3.183   0.145  0.5085 -0.9717  0.5797
36885SOL     OW14059   8.284   9.890   2.744 -0.6738 -0.4180 -0.0172
36885SOL    HW114060   8.327   9.963   2.699 -0.0616 -1.3553 -0.9856
36885SOL    HW214061   8.191   9.902   2.724 -0.6695  0.5478  0.5035
36886SOL     OW14062   4.182   3.409   0.168  0.1677  0.3849  0.6084
36886SOL    HW114063   4.234   3.394   0.247  1.5143  2.3224  0.1171
36886SOL    HW214064   4.202   3.333   0.112 -1.1116 -1.2038  2.2337
36887SOL     OW14065   8.451   8.537   1.952 -0.8258 -0.5332 -0.2875
36887SOL    HW114066   8.511   8.469   1.983  2.2129  1.0900 -2.3684
36887SOL    HW214067   8.411   8.572   2.031  0.5964 -2.0087  1.1111
36888SOL     OW14068   0.240   7.343   5.153 -0.4389  0.2743 -0.2454
36888SOL    HW114069   0.261   7.256   5.120 -3.0767 -0.4495 -0.1682
36888SOL    HW214070   0.231   7.331   5.248 -1.5728  0.4295 -0.3202
36889SOL     OW14071  10.221   4.951   5.198  0.0952 -0.6336  0.7200
36889SOL    HW114072  10.256   4.996   5.121 -1.7917 -0.5935 -0.1440
36889SOL    HW214073  10.169   5.017   5.243  0.4137 -0.9235  1.5160
36890SOL     OW14074   7.432   6.346   0.382  0.1720  0.6219  0.0669
36890SOL    HW114075   7.439   6.424   0.327  0.6726 -0.4742 -1.4535
36890SOL    HW214076   7.357   6.363   0.439  0.3657  2.2631 -0.1448
36891SOL     OW14077   8.320   0.873   1.259 -0.0178 -0.2586  0.5427
36891SOL    HW114078   8.250   0.867   1.194  0.3757 -0.1470  0.1036
36891SOL    HW214079   8.322   0.966   1.284 -0.0596 -0.2709  0.5919
36892SOL     OW14080   9.991   1.323   9.356 -0.2402 -0.1042  0.1787
36892SOL    HW114081  10.063   1.261   9.372 -0.6529 -0.2666  1.5079
36892SOL    HW214082  10.034   1.407   9.342  0.1893 -0.0217  1.8964
36893SOL     OW14083   1.010   3.395   3.329 -0.0272  0.0910  0.5083
36893SOL    HW114084   0.946   3.323   3.336 -1.5848  1.1641 -1.9428
36893SOL    HW214085   1.089   3.354   3.294 -0.7283 -0.5263 -0.3647
36894SOL     OW14086   8.066   8.725   0.444  0.2493 -0.0583 -0.3915
36894SOL    HW114087   8.110   8.753   0.525 -0.7241  0.3651 -0.0016
36894SOL    HW214088   8.085   8.631   0.438 -0.1567 -0.2116  0.6305
36895SOL     OW14089  10.722   6.850   8.358  0.0378 -0.2313  0.1307
36895SOL    HW114090  10.726   6.790   8.283 -0.4828  1.8801 -1.6308
36895SOL    HW214091  10.796   6.909   8.345 -1.5388  1.7261 -0.1147
36896SOL     OW14092   3.281   0.311   9.999 -0.1619 -0.0751 -0.2052
36896SOL    HW114093   3.345   0.373  10.035 -0.1344  0.4914 -1.1939
36896SOL    HW214094   3.321   0.281   9.918 -1.0544  0.1245 -0.7269
36897SOL     OW14095   8.007   7.707  10.140  0.3032  0.0711 -0.0531
36897SOL    HW114096   8.092   7.668  10.159 -1.4334 -2.6775  2.4051
36897SOL    HW214097   7.971   7.651  10.071 -0.3327  0.0047  0.3327
36898SOL     OW14098   9.622  10.213   6.071  0.7222  0.1241  0.3356
36898SOL    HW114099   9.583  10.181   6.153 -0.3489  1.4560  0.3806
36898SOL    HW214100   9.608  10.308   6.074 -1.4479 -0.0504 -2.4845
36899SOL     OW14101   4.452   9.865   5.090  1.1132 -0.1235  0.5027
36899SOL    HW114102   4.461   9.934   5.156 -1.8119  1.7669 -0.9577
36899SOL    HW214103   4.374   9.817   5.116  0.7755 -0.2770 -0.7497
36900SOL     OW14104   9.775   6.577   9.021  0.4979  0.1193 -0.3476
36900SOL    HW114105   9.808   6.552   8.935  0.7176 -2.2109  0.3825
36900SOL    HW214106   9.754   6.494   9.064  0.3276  1.2402  1.8254
36901SOL     OW14107  10.454   2.166   4.040 -0.2263 -0.3645 -0.1310
36901SOL    HW114108  10.458   2.071   4.049  0.0697 -0.7147 -3.2252
36901SOL    HW214109  10.545   2.196   4.044 -0.1114 -0.4993 -1.5011
36902SOL     OW14110   5.337   5.730   6.007 -0.3901 -0.4115 -0.1332
36902SOL    HW114111   5.358   5.750   6.098 -1.0371  0.2130 -0.1148
36902SOL    HW214112   5.253   5.774   5.992  0.7556  1.3260 -1.6879
36903SOL     OW14113  10.224   8.378   3.648 -0.5156 -0.2736  0.2034
36903SOL    HW114114  10.195   8.455   3.599 -1.8825 -0.3664  0.8328
36903SOL    HW214115  10.267   8.415   3.726  0.0198 -0.1411 -0.1524
36904SOL     OW14116   4.797   7.507   2.461 -0.1410  0.4859 -0.5641
36904SOL    HW114117   4.822   7.466   2.379 -2.9412 -1.3604 -0.5652
36904SOL    HW214118   4.792   7.435   2.524 -0.8635  1.4513  0.5091
36905SOL     OW14119   8.517   7.053   8.890 -0.1844 -0.5629  0.3748
36905SOL    HW114120   8.538   7.084   8.802  0.0222  0.0293  0.6263
36905SOL    HW214121   8.549   6.963   8.892  0.6726 -0.2751  0.1470
36906SOL     OW14122   3.955   3.040   4.839  0.1766  0.5334  0.4404
36906SOL    HW114123   3.950   3.042   4.744 -0.0224  1.5986  0.4684
36906SOL    HW214124   3.868   3.015   4.868  0.0086  1.0037  0.3570
36907SOL     OW14125   1.932   9.476   7.205  0.1411 -0.0202  0.2336
36907SOL    HW114126   1.838   9.469   7.185 -0.0213 -0.4139  1.1129
36907SOL    HW214127   1.950   9.570   7.201 -0.4984  0.1447  0.9289
36908SOL     OW14128   0.512   6.485   9.258 -0.5207  0.2087 -0.0280
36908SOL    HW114129   0.528   6.561   9.314  0.7029  1.1591 -1.6602
36908SOL    HW214130   0.459   6.427   9.313  0.5528  1.1642  2.0934
36909SOL     OW14131  10.930   8.289   8.064  0.1016 -0.1586 -0.2201
36909SOL    HW114132  10.857   8.351   8.070 -3.1405 -3.7798 -0.4293
36909SOL    HW214133  10.959   8.277   8.154 -1.0540 -0.3227  0.1420
36910SOL     OW14134   9.874   7.644   2.560 -0.3478  0.1941 -0.0317
36910SOL    HW114135   9.864   7.673   2.651  2.1979  1.3200 -0.0696
36910SOL    HW214136   9.823   7.706   2.509 -1.6590 -0.3420  0.5892
36911SOL     OW14137   1.791   9.882   7.124  0.4119 -0.3676 -0.2175
36911SOL    HW114138   1.748   9.829   7.057 -2.0769 -0.1981  1.1940
36911SOL    HW214139   1.736   9.872   7.202  1.2837  2.2668  0.7918
36912SOL     OW14140   4.240   5.158   3.989 -0.2102  0.3969 -0.1758
36912SOL    HW114141   4.172   5.094   3.971  0.8866 -0.8735  0.1037
36912SOL    HW214142   4.290   5.121   4.062  1.7464  0.5171 -1.3991
36913SOL     OW14143   3.128   7.413   8.970  0.2090 -0.7473 -0.3243
36913SOL    HW114144   3.213   7.433   8.931 -0.3896 -0.7279 -1.6571
36913SOL    HW214145   3.094   7.341   8.917 -0.0323 -1.6424  1.0376
36914SOL     OW14146   5.053   7.646   4.954 -0.1493 -0.0402  0.5643
36914SOL    HW114147   5.062   7.553   4.934  1.1534  0.0282  0.8028
36914SOL    HW214148   4.979   7.650   5.015 -2.3065 -0.5589 -1.9322
36915SOL     OW14149   5.043   1.659   2.947  0.0554 -0.2879  0.4178
36915SOL    HW114150   4.998   1.615   2.875 -2.4831  0.5365  1.4620
36915SOL    HW214151   5.123   1.693   2.907 -0.9905 -0.4227 -1.8684
36916SOL     OW14152   6.522   6.490   9.574  0.0907  0.1691  0.9451
36916SOL    HW114153   6.459   6.460   9.509 -1.5965  0.9791  2.1618
36916SOL    HW214154   6.593   6.529   9.522  0.0545 -1.5851 -0.4637
36917SOL     OW14155   4.988  10.739   5.000  0.2063 -0.1321 -0.2704
36917SOL    HW114156   4.976  10.731   4.906 -0.8581  0.0904 -0.1517
36917SOL    HW214157   5.066  10.794   5.010  0.2993 -0.1315 -1.0119
36918SOL     OW14158   9.212   2.726   4.399  0.7435  0.1859  0.2086
36918SOL    HW114159   9.279   2.769   4.345  0.5968  0.8200  0.5261
36918SOL    HW214160   9.145   2.699   4.337  1.9246 -1.6913 -0.2976
36919SOL     OW14161   1.211   9.694   6.379 -0.1921  0.4109  0.1994
36919SOL    HW114162   1.178   9.784   6.380  0.9047  0.8186  0.3016
36919SOL    HW214163   1.133   9.640   6.382 -0.8760  1.3656 -0.1615
36920SOL     OW14164   1.967   0.738   8.901  0.3758  0.4400  0.1832
36920SOL    HW114165   1.925   0.822   8.883 -0.2486 -0.1133 -0.9948
36920SOL    HW214166   1.956   0.687   8.820 -0.4465 -1.2733  1.3297
36921SOL     OW14167   5.036   9.963   4.690 -0.2415  0.2789  0.0121
36921SOL    HW114168   5.086   9.946   4.770  2.6740  3.4041 -0.9835
36921SOL    HW214169   5.084   9.918   4.621  0.0842  1.6214 -0.6611
36922SOL     OW14170   1.007   5.429   3.491 -0.3622  0.4060  0.1791
36922SOL    HW114171   0.956   5.445   3.571  0.3925  0.4014  0.6705
36922SOL    HW214172   1.015   5.333   3.487 -0.2705  0.4124  0.1883
36923SOL     OW14173   8.644   9.377   2.468  0.0694 -0.4231  0.0023
36923SOL    HW114174   8.583   9.333   2.408 -0.2406  1.5453 -1.1657
36923SOL    HW214175   8.731   9.353   2.435 -0.0700 -1.2381  0.1943
36924SOL     OW14176   6.616   8.998   8.590  0.2352 -0.6736 -0.3465
36924SOL    HW114177   6.530   9.037   8.577  1.1818  1.4222 -0.5542
36924SOL    HW214178   6.599   8.914   8.632 -1.8758 -0.0955 -0.0280
36925SOL     OW14179   4.955   8.580  10.169 -0.2378 -0.2061 -0.1494
36925SOL    HW114180   4.908   8.498  10.188 -0.6170  0.2100  0.7350
36925SOL    HW214181   5.032   8.576  10.226 -0.5411  0.3080  0.2940
36926SOL     OW14182   9.845   1.516   1.010 -0.0851 -0.9503 -0.6532
36926SOL    HW114183   9.922   1.531   1.065  0.6165 -0.3526 -1.7844
36926SOL    HW214184   9.835   1.421   1.007  1.2984 -1.0818 -1.4293
36927SOL     OW14185   9.224   1.060   1.139  0.2108  0.1747 -0.0040
36927SOL    HW114186   9.139   1.020   1.159  0.0036  0.8390  0.4563
36927SOL    HW214187   9.216   1.087   1.047 -0.7557  1.8930  0.5565
36928SOL     OW14188   8.456  10.861   8.832 -0.0561 -0.8997  0.1603
36928SOL    HW114189   8.503  10.779   8.815  0.3915 -0.5961 -0.0808
36928SOL    HW214190   8.380  10.858   8.775  0.3442 -0.8228 -0.3773
36929SOL     OW14191   1.187   7.359   6.949 -0.1989  0.6027  0.3939
36929SOL    HW114192   1.115   7.330   6.893 -0.1370  0.2769  0.4852
36929SOL    HW214193   1.144   7.395   7.027 -0.2454 -0.5498  0.9197
36930SOL     OW14194   2.090  10.388   1.683  0.4875 -0.0004  0.7132
36930SOL    HW114195   2.053  10.364   1.598  0.2513  1.4820  0.3829
36930SOL    HW214196   2.023  10.362   1.746  0.4846 -0.7262  0.4197
36931SOL     OW14197   8.997   6.190   7.620 -0.2011 -0.0740  0.0683
36931SOL    HW114198   9.040   6.247   7.685  0.9252 -1.5851  0.6696
36931SOL    HW214199   9.045   6.206   7.539  0.7283 -0.8546  0.4565
36932SOL     OW14200   5.879   5.462   2.648  0.0648 -0.2446 -0.2947
36932SOL    HW114201   5.943   5.436   2.715  0.6584 -0.9790 -1.1375
36932SOL    HW214202   5.930   5.471   2.568 -0.4415  1.7841 -0.4196
36933SOL     OW14203   9.708   5.397  10.687 -0.9128 -0.3855 -0.6674
36933SOL    HW114204   9.781   5.452  10.715 -1.2276 -0.6154  0.6176
36933SOL    HW214205   9.682   5.350  10.766 -1.3266 -1.6071 -1.5217
36934SOL     OW14206   9.664   4.392  10.668 -0.5184 -0.1917 -0.3389
36934SOL    HW114207   9.661   4.297  10.658  2.3492 -0.5031  1.3230
36934SOL    HW214208   9.684   4.425  10.581  0.0106 -1.2261 -0.6148
36935SOL     OW14209   3.108   2.882   5.688  0.3452  0.3954  0.2211
36935SOL    HW114210   3.139   2.967   5.721  0.5736  0.1344  0.6824
36935SOL    HW214211   3.045   2.905   5.620  0.6953  0.9361  0.0714
36936SOL     OW14212   6.160   4.781   8.015 -0.1204  0.3082  0.2069
36936SOL    HW114213   6.106   4.841   7.963 -1.1853  0.6512  1.6591
36936SOL    HW214214   6.231   4.836   8.047  0.2196  0.2311 -0.4118
36937SOL     OW14215  10.898   2.406   0.028  0.1425 -0.2712  0.3682
36937SOL    HW114216  10.957   2.348   0.077 -0.0526 -1.6924 -1.0224
36937SOL    HW214217  10.814   2.360   0.027 -0.4815  0.8429  0.6888
36938SOL     OW14218   8.866   3.122   0.798 -0.6509 -0.0073  0.1665
36938SOL    HW114219   8.958   3.126   0.823 -1.4318  0.0806  3.2937
36938SOL    HW214220   8.864   3.067   0.720  1.8637 -1.5746  1.1351
36939SOL     OW14221   0.536   4.188   9.262 -0.4038 -0.0771 -0.0168
36939SOL    HW114222   0.462   4.128   9.256  0.0043 -0.6773  0.9419
36939SOL    HW214223   0.613   4.132   9.253 -0.0568  0.5310 -0.9011
36940SOL     OW14224   4.559   7.497   5.288  0.0819  0.3979  0.1255
36940SOL    HW114225   4.485   7.531   5.237  1.0363  1.9738 -0.2323
36940SOL    HW214226   4.549   7.402   5.284 -0.4991  0.5171 -2.0659
36941SOL     OW14227   0.144  10.053   7.517 -0.0652 -0.1283 -0.3026
36941SOL    HW114228   0.066  10.108   7.509 -0.4621 -0.5476  0.7531
36941SOL    HW214229   0.134   9.986   7.449 -1.3252 -1.0545  0.7954
36942SOL     OW14230   7.099   0.276   4.323 -0.2321  0.4511 -0.3699
36942SOL    HW114231   7.030   0.336   4.294 -1.1784 -0.6527 -0.4492
36942SOL    HW214232   7.064   0.189   4.305  2.3887 -0.1266 -3.2341
36943SOL     OW14233   2.683   4.996   6.567  0.1242  0.7670 -0.3412
36943SOL    HW114234   2.744   5.017   6.638  0.8447  0.4350 -0.8632
36943SOL    HW214235   2.643   5.080   6.544  1.2338  1.1779 -0.7892
36944SOL     OW14236   1.855  10.787   6.425  0.2835  0.4045 -0.1403
36944SOL    HW114237   1.912  10.852   6.384  1.5952  0.8677  2.3593
36944SOL    HW214238   1.777  10.836   6.451  0.5180  0.6189  0.1580
36945SOL     OW14239  10.975  10.103   0.388  0.2104 -0.3273 -0.3616
36945SOL    HW114240  10.974  10.084   0.482  2.5175 -1.1163 -0.4821
36945SOL    HW214241  10.973  10.199   0.384  0.4269 -0.2795  0.5177
36946SOL     OW14242   2.915   6.009   1.417  0.1807 -0.1367  0.3941
36946SOL    HW114243   2.824   5.980   1.412  0.5386 -1.0533 -1.0863
36946SOL    HW214244   2.944   5.981   1.504 -0.7612 -0.3789  0.6454
36947SOL     OW14245   7.374   4.325   7.371  0.2318  0.1907 -0.7760
36947SOL    HW114246   7.429   4.360   7.441  0.5184  1.2135 -1.5015
36947SOL    HW214247   7.429   4.330   7.293 -0.5153  0.2176 -1.3010
36948SOL     OW14248   0.578   5.261   8.387  0.2061  0.1016  0.6385
36948SOL    HW114249   0.662   5.300   8.412  0.4827  0.2613 -0.4921
36948SOL    HW214250   0.579   5.263   8.291 -0.5097 -1.1145  0.5922
36949SOL     OW14251   5.560   7.824   1.172  0.1018 -0.3812  0.4941
36949SOL    HW114252   5.595   7.894   1.227  1.0096  0.4875 -1.1279
36949SOL    HW214253   5.596   7.743   1.209  2.0502  0.3228  0.2117
36950SOL     OW14254   4.805   9.238   9.586 -0.4089  0.3044 -0.1271
36950SOL    HW114255   4.754   9.251   9.667 -0.8173  1.5640 -0.5715
36950SOL    HW214256   4.774   9.154   9.552 -1.5874  0.6531  0.0610
36951SOL     OW14257   4.839   5.453   1.672 -0.0882 -0.4036  0.3480
36951SOL    HW114258   4.902   5.525   1.673  0.1268 -0.5514 -1.4623
36951SOL    HW214259   4.869   5.393   1.740  1.2429 -0.0698  0.0533
36952SOL     OW14260   8.208   6.311   8.144 -0.4457  0.8479  1.0947
36952SOL    HW114261   8.160   6.229   8.132 -0.0967  0.7198  0.5639
36952SOL    HW214262   8.146   6.379   8.116 -1.1206  0.8527  2.5677
36953SOL     OW14263   1.386   9.554   0.314 -0.0798 -0.1623 -0.4658
36953SOL    HW114264   1.380   9.474   0.366  2.1509  0.2953  0.5631
36953SOL    HW214265   1.408   9.622   0.378  0.6985  0.7814 -1.7164
36954SOL     OW14266   3.812   1.282   6.131  0.3834  0.3065  0.6914
36954SOL    HW114267   3.743   1.269   6.066 -0.1911  0.1085  1.3313
36954SOL    HW214268   3.890   1.245   6.091 -0.2264 -0.9014  0.5874
36955SOL     OW14269   4.373   6.287   7.850 -0.3653  0.7216 -0.6334
36955SOL    HW114270   4.394   6.336   7.771 -1.5163  0.8821 -0.8508
36955SOL    HW214271   4.289   6.244   7.830  0.2751 -0.7723 -0.1992
36956SOL     OW14272   7.510   9.991   9.688  0.4471 -0.1361 -0.0354
36956SOL    HW114273   7.560   9.926   9.639  0.1366 -0.1253 -0.3694
36956SOL    HW214274   7.419   9.965   9.676  0.2458  0.9620 -1.0604
36957SOL     OW14275   4.708   1.279   4.890  0.5285 -0.3785  0.0533
36957SOL    HW114276   4.674   1.242   4.808  0.6564 -0.8407  0.2060
36957SOL    HW214277   4.765   1.351   4.862  0.0973 -0.1447 -0.2378
36958SOL     OW14278   6.884   2.581   5.952  0.2402 -0.1336 -0.6729
36958SOL    HW114279   6.812   2.538   5.997 -1.1638  2.4652 -0.3349
36958SOL    HW214280   6.962   2.531   5.977 -0.6563  0.4569  3.7102
36959SOL     OW14281   1.148   1.851   4.879 -0.4826  0.0512  0.5279
36959SOL    HW114282   1.169   1.763   4.909  0.6840  0.2747  0.3742
36959SOL    HW214283   1.177   1.853   4.787 -1.7715  0.1586  0.1110
36960SOL     OW14284   7.601   9.332   6.655 -0.0026  0.4475 -0.1187
36960SOL    HW114285   7.670   9.277   6.619  1.7780  1.2851  1.9092
36960SOL    HW214286   7.558   9.276   6.721 -0.7648  0.1986 -0.8130
36961SOL     OW14287   0.145   6.421   3.237 -0.0657  0.2408 -0.0752
36961SOL    HW114288   0.232   6.386   3.258  0.1360 -1.0001 -2.7127
36961SOL    HW214289   0.090   6.397   3.311  1.5884  0.0733  1.1215
36962SOL     OW14290   5.777  10.462   9.521 -0.4024  0.2254 -0.2532
36962SOL    HW114291   5.727  10.417   9.453 -1.3181 -1.3502  1.3991
36962SOL    HW214292   5.712  10.516   9.566 -0.7208 -1.9267  1.9876
36963SOL     OW14293   4.054   3.273  10.746 -0.0658  0.2902  0.4241
36963SOL    HW114294   4.073   3.347  10.688 -0.5749  0.4228  0.4182
36963SOL    HW214295   3.993   3.308  10.811  1.9806  0.6443  2.2124
36964SOL     OW14296   9.155   5.846   1.175  0.1815  0.0201 -0.6365
36964SOL    HW114297   9.093   5.792   1.125  0.4120  0.7807 -1.7382
36964SOL    HW214298   9.163   5.927   1.125 -0.1886  1.1169  1.0299
36965SOL     OW14299   0.141   3.915   3.938  0.2173 -0.2436  0.3946
36965SOL    HW114300   0.213   3.976   3.952 -0.4535  0.5014  0.6343
36965SOL    HW214301   0.067   3.970   3.914  0.0192 -1.1023 -0.9772
36966SOL     OW14302   6.151   1.428  10.199  0.4054  0.4158 -0.4330
36966SOL    HW114303   6.242   1.456  10.193  0.5221  0.2460  0.3840
36966SOL    HW214304   6.115   1.439  10.111  1.3836 -0.0797 -0.8941
36967SOL     OW14305   0.426   8.741   8.041 -0.2656 -0.3904  0.6393
36967SOL    HW114306   0.431   8.836   8.041  1.1419 -0.4403 -0.1832
36967SOL    HW214307   0.463   8.715   8.125  2.4649 -0.2941 -0.4724
36968SOL     OW14308   4.222   4.082   3.128 -0.0339 -0.2585  0.1142
36968SOL    HW114309   4.153   4.111   3.188 -0.3263  2.2975 -1.3796
36968SOL    HW214310   4.177   4.026   3.065 -0.5578  0.5941 -0.2723
36969SOL     OW14311   6.162   5.208   3.454  0.4259 -0.0875  0.2706
36969SOL    HW114312   6.144   5.148   3.526 -1.1513  0.6586  0.5140
36969SOL    HW214313   6.128   5.293   3.483 -0.0192  0.2743 -1.2206
36970SOL     OW14314   7.020   7.502   1.216 -0.3623 -0.7240 -0.2874
36970SOL    HW114315   6.962   7.576   1.229 -0.4699 -0.9928  0.8276
36970SOL    HW214316   6.964   7.433   1.181 -1.1614 -1.6013  2.5632
36971SOL     OW14317  10.801   3.322   6.014 -0.2281 -0.3493  0.4215
36971SOL    HW114318  10.752   3.387   5.963 -1.6983  0.0832  2.3047
36971SOL    HW214319  10.888   3.361   6.025 -0.9804  1.1492  1.2070
36972SOL     OW14320   0.258   5.390   6.917 -0.4011  0.4729 -0.0825
36972SOL    HW114321   0.253   5.464   6.857  3.3819  0.7527 -0.1551
36972SOL    HW214322   0.298   5.320   6.866  0.6871 -0.0324  1.4250
36973SOL     OW14323   0.174   8.731   1.939  0.5621 -0.0825  0.6545
36973SOL    HW114324   0.207   8.786   2.010  1.3766 -1.0509  1.0493
36973SOL    HW214325   0.103   8.680   1.979  0.3574  0.0834  0.5056
36974SOL     OW14326   4.963   9.928   2.498 -0.0081  0.0889 -0.0700
36974SOL    HW114327   4.943   9.875   2.420 -0.3318 -0.0154  0.0856
36974SOL    HW214328   4.893   9.993   2.502  0.1407  0.2465 -0.0003
36975SOL     OW14329   4.799   9.453   2.429 -0.3250  0.6754 -0.2991
36975SOL    HW114330   4.725   9.442   2.371  0.6828 -1.2542 -1.2921
36975SOL    HW214331   4.835   9.364   2.439  1.5548  1.4942  0.5294
36976SOL     OW14332   9.368   8.517   1.465  0.2961 -0.0131 -0.0074
36976SOL    HW114333   9.387   8.551   1.553 -1.0397  2.1291 -0.5206
36976SOL    HW214334   9.295   8.456   1.478 -0.2587  0.7128  0.2968
36977SOL     OW14335   3.858   6.181   4.842  0.0773  0.1233  0.5093
36977SOL    HW114336   3.866   6.090   4.869 -0.4400 -0.3696 -0.9443
36977SOL    HW214337   3.932   6.194   4.783 -0.4979  0.3139 -0.1704
36978SOL     OW14338   1.091   2.039   3.882 -0.4951  0.2734  0.1735
36978SOL    HW114339   1.118   2.116   3.830 -0.4230  0.2142  0.1211
36978SOL    HW214340   1.171   1.986   3.889 -0.2459  0.7780  1.2231
36979SOL     OW14341   1.909   1.733   9.013 -0.0304 -0.0061  0.0878
36979SOL    HW114342   1.905   1.682   9.095 -1.1901  0.1593  0.1483
36979SOL    HW214343   1.861   1.813   9.033  2.0754  1.2782  0.0944
36980SOL     OW14344   7.863   9.042   6.992  0.2935 -0.0168 -0.1186
36980SOL    HW114345   7.933   8.980   7.011 -0.2024 -0.7296 -0.6021
36980SOL    HW214346   7.873   9.062   6.899  0.5463  0.7444  0.0710
36981SOL     OW14347   5.232   8.716   4.614  0.4205  0.1271  0.4178
36981SOL    HW114348   5.281   8.714   4.532  1.9176 -1.3826  1.3149
36981SOL    HW214349   5.165   8.783   4.601 -0.1541 -0.9852 -2.4815
36982SOL     OW14350   1.872   6.419   5.138  0.3653  0.6630  0.0202
36982SOL    HW114351   1.940   6.469   5.184  0.0573  1.4727 -0.3986
36982SOL    HW214352   1.811   6.486   5.105 -0.5342 -0.0423  0.2321
36983SOL     OW14353   4.948   9.024   1.020 -0.0756  0.0007  0.3145
36983SOL    HW114354   4.902   9.018   1.104  0.0383  2.7953  0.6139
36983SOL    HW214355   4.954   8.933   0.990  0.8307 -1.1583  3.8057
36984SOL     OW14356   1.292   8.024   2.281  0.3457 -0.0573 -0.2287
36984SOL    HW114357   1.223   8.044   2.217  0.6416  0.3031 -0.4370
36984SOL    HW214358   1.302   8.105   2.331 -0.0636 -0.4194  0.4463
36985SOL     OW14359   3.460   6.827   0.354  0.3744 -0.2312  0.1715
36985SOL    HW114360   3.426   6.741   0.378  1.2818 -0.9981 -1.2542
36985SOL    HW214361   3.389   6.868   0.305 -0.6603  0.4842  2.1968
36986SOL     OW14362   7.504   4.394   5.750 -0.6755  0.4477 -0.3799
36986SOL    HW114363   7.469   4.455   5.686 -0.8204 -0.3553 -1.0757
36986SOL    HW214364   7.521   4.314   5.700  1.3371  0.5473  0.1129
36987SOL     OW14365   6.687   1.963   0.535  0.2412  0.2260  0.1434
36987SOL    HW114366   6.700   2.000   0.448  0.3154 -0.9292 -0.3379
36987SOL    HW214367   6.772   1.972   0.578  0.0035  1.4974  0.3825
36988SOL     OW14368   0.382   4.193   4.902  0.4939 -0.4097 -0.3269
36988SOL    HW114369   0.299   4.185   4.948  0.8455  0.4477  0.4816
36988SOL    HW214370   0.423   4.272   4.939  1.4100 -0.4987 -1.1128
36989SOL     OW14371   2.881   1.351   6.193 -0.2841  0.1074 -0.8352
36989SOL    HW114372   2.852   1.261   6.177 -0.0502 -0.4585  1.6716
36989SOL    HW214373   2.922   1.348   6.279  4.3246  1.5478 -2.7917
36990SOL     OW14374   9.068   9.491  10.593  0.4881 -0.4779  0.4350
36990SOL    HW114375   9.101   9.563  10.539 -1.4801  1.1407  1.3315
36990SOL    HW214376   8.975   9.486  10.572  0.6408 -2.8801  0.2668
36991SOL     OW14377   0.351   3.340   3.522 -0.2249  0.1202  0.0838
36991SOL    HW114378   0.337   3.246   3.537 -1.0226  0.2162 -0.0211
36991SOL    HW214379   0.384   3.373   3.606  2.5575 -0.7238 -0.6507
36992SOL     OW14380   2.162   0.803   1.197 -0.2222  0.5375  0.0383
36992SOL    HW114381   2.078   0.757   1.193 -0.4686  0.9521  0.3574
36992SOL    HW214382   2.173   0.824   1.290  1.2336 -1.3400  0.3125
36993SOL     OW14383   1.200  10.493   0.473  0.7500 -0.1509  0.3468
36993SOL    HW114384   1.260  10.521   0.404  1.4407 -0.3261  0.8598
36993SOL    HW214385   1.156  10.416   0.438 -1.0520  1.4537 -1.0189
36994SOL     OW14386  10.907   2.178   7.086  0.0995 -0.2794 -0.1789
36994SOL    HW114387  10.961   2.222   7.152  2.0052 -1.5743 -0.8450
36994SOL    HW214388  10.858   2.249   7.045  1.2601  0.9163  0.4583
36995SOL     OW14389   7.849   1.483   6.689 -0.1280  0.4529  0.0471
36995SOL    HW114390   7.841   1.578   6.678 -1.5272  0.2873 -0.4990
36995SOL    HW214391   7.912   1.456   6.622 -2.2697  0.5732 -2.0763
36996SOL     OW14392   2.379  10.095   2.541  0.1658 -0.2508  0.9880
36996SOL    HW114393   2.395  10.122   2.451 -0.2472 -0.7230  0.7692
36996SOL    HW214394   2.454  10.128   2.590  0.1932  0.3512  0.5411
36997SOL     OW14395   0.037   5.223   1.913  0.6053 -0.0590 -0.2750
36997SOL    HW114396   0.078   5.143   1.944  0.5220  0.2245  0.5717
36997SOL    HW214397   0.021   5.275   1.992 -2.5305 -0.7050 -0.4192
36998SOL     OW14398   8.030   9.983   6.703  0.6811  0.1625  0.3492
36998SOL    HW114399   8.037  10.047   6.774 -0.0197  0.9613 -0.2925
36998SOL    HW214400   7.970  10.023   6.641 -0.6149 -1.5866  0.4289
36999SOL     OW14401   3.894   9.343   9.570 -0.2634  0.2444  0.2259
36999SOL    HW114402   3.946   9.283   9.623 -0.7738 -0.6159 -0.2394
36999SOL    HW214403   3.913   9.318   9.479 -1.8562 -0.4105  0.0543
37000SOL     OW14404   3.336   3.357   8.312  0.0361 -0.2905 -0.2671
37000SOL    HW114405   3.277   3.296   8.268  0.5503 -0.2334 -1.0402
37000SOL    HW214406   3.287   3.387   8.389 -0.8007 -0.5217 -0.7091
37001SOL     OW14407   7.913   0.095   4.913 -0.1637  0.0745  0.5667
37001SOL    HW114408   7.831   0.144   4.915 -0.1572  0.1686 -1.1440
37001SOL    HW214409   7.973   0.147   4.968 -0.4440  1.4637 -0.4170
37002SOL     OW14410   2.062   8.915   5.411  0.4493  0.2307  0.0050
37002SOL    HW114411   2.084   8.887   5.500 -4.1776 -1.4523  0.7610
37002SOL    HW214412   2.031   9.005   5.422 -2.2885 -0.7188  0.5694
37003SOL     OW14413   3.354   3.499   1.632  0.2788 -0.5109  0.2577
37003SOL    HW114414   3.280   3.444   1.660 -1.5181  2.3203  1.2501
37003SOL    HW214415   3.422   3.483   1.697 -1.0228  0.0444  1.7802
37004SOL     OW14416   4.492  10.447   5.455  0.2033  0.5168 -0.2379
37004SOL    HW114417   4.564  10.508   5.442 -1.4798  2.5194 -0.3032
37004SOL    HW214418   4.435  10.460   5.379 -0.2792 -1.0131 -0.1668
37005SOL     OW14419   6.299   2.207   4.198  1.3381 -0.8571  0.4288
37005SOL    HW114420   6.311   2.301   4.210  0.7283 -1.0166  2.4287
37005SOL    HW214421   6.382   2.168   4.226  1.3856 -0.9673  0.1429
37006SOL     OW14422   0.523   6.746   7.410 -0.1331 -0.5379 -0.1351
37006SOL    HW114423   0.606   6.743   7.456 -0.3076 -0.6487  0.1681
37006SOL    HW214424   0.547   6.769   7.320  0.0518  1.4927  0.3999
37007SOL     OW14425   8.023   8.619   0.925  0.1090 -0.5048 -0.4033
37007SOL    HW114426   7.929   8.612   0.913  0.2030 -1.8866 -0.4181
37007SOL    HW214427   8.061   8.579   0.846  0.7149  1.2344 -1.0199
37008SOL     OW14428   7.417   5.808   3.601  0.0016 -0.1424  0.6961
37008SOL    HW114429   7.355   5.743   3.633 -1.4786  0.7234 -0.3897
37008SOL    HW214430   7.432   5.785   3.510  1.1776 -0.2543  0.9018
37009SOL     OW14431   5.241   4.211  10.553  0.0484  0.1105 -0.3095
37009SOL    HW114432   5.249   4.224  10.459  0.0815  1.3410 -0.1495
37009SOL    HW214433   5.248   4.116  10.566 -1.6333 -0.2234 -1.7027
37010SOL     OW14434   0.019   6.072   1.280 -0.0997  0.1483 -0.2322
37010SOL    HW114435   0.072   6.149   1.297 -0.9906  0.6316  0.4564
37010SOL    HW214436   0.071   6.018   1.221  1.4258  0.3049  0.9357
37011SOL     OW14437   5.091   0.727   2.297 -0.0277  0.1768 -0.2651
37011SOL    HW114438   5.123   0.769   2.376  0.0060 -2.3099  1.0582
37011SOL    HW214439   5.165   0.677   2.263 -1.1220 -1.8726  0.2825
37012SOL     OW14440   7.907   9.324   6.066 -0.1550  0.1124  0.4006
37012SOL    HW114441   7.855   9.253   6.027 -0.3718  0.4977 -0.0143
37012SOL    HW214442   7.844   9.394   6.079 -0.1967 -0.1818  1.9023
37013SOL     OW14443   5.994   0.605   1.294 -0.0413 -0.0870  0.1938
37013SOL    HW114444   5.953   0.689   1.273 -1.3999 -0.9355 -0.6059
37013SOL    HW214445   5.936   0.566   1.360 -0.5432 -1.3118 -0.9646
37014SOL     OW14446   3.866   8.323   6.100 -0.0256 -0.5981 -0.2840
37014SOL    HW114447   3.931   8.253   6.095  1.1783  0.4774 -0.1953
37014SOL    HW214448   3.783   8.278   6.118  0.9364 -1.9029  1.0615
37015SOL     OW14449   2.795   2.046   7.111 -0.3231  0.4789  0.1296
37015SOL    HW114450   2.842   1.963   7.121 -1.0324  0.1357  0.6670
37015SOL    HW214451   2.851   2.098   7.053  0.6495  0.0300  0.6401
37016SOL     OW14452   4.674   1.413  10.122  0.1990 -0.2014 -0.0016
37016SOL    HW114453   4.693   1.419  10.215  1.1887  0.9160 -0.2720
37016SOL    HW214454   4.663   1.503  10.093 -1.1443 -0.5802 -0.7714
37017SOL     OW14455   9.206   7.290   7.389 -0.0007  0.2510 -0.9043
37017SOL    HW114456   9.117   7.311   7.359  0.7762  1.1891 -2.6018
37017SOL    HW214457   9.250   7.375   7.394  0.1520  0.0541  2.1771
37018SOL     OW14458   5.602   4.199   8.424  0.3423 -0.0784 -0.1313
37018SOL    HW114459   5.613   4.271   8.486  0.2231 -0.3237  0.1696
37018SOL    HW214460   5.688   4.158   8.419 -0.0525 -1.0711  1.1048
37019SOL     OW14461   3.992   7.783   4.736 -0.5112  0.2286 -0.1766
37019SOL    HW114462   4.049   7.860   4.726  1.3659 -1.0867  0.0772
37019SOL    HW214463   3.907   7.819   4.760  0.0395  2.2992 -1.1913
37020SOL     OW14464   4.119   6.567   2.240  0.8786  0.2346  0.2329
37020SOL    HW114465   4.155   6.501   2.180  3.5722  1.5122  0.3793
37020SOL    HW214466   4.036   6.592   2.201 -0.1920 -3.2070  0.1432
37021SOL     OW14467   5.128   3.277   2.096  0.3932 -0.1797 -0.0066
37021SOL    HW114468   5.215   3.287   2.058  1.0607 -2.5602  0.7865
37021SOL    HW214469   5.084   3.214   2.039 -0.2160 -0.2471  0.5338
37022SOL     OW14470   9.300  10.254  10.784 -0.4449 -0.1791 -0.5792
37022SOL    HW114471   9.294  10.294  10.697 -0.4885 -1.0687 -0.9893
37022SOL    HW214472   9.392  10.260  10.807 -0.8040  2.3163  0.4037
37023SOL     OW14473   3.034   1.418   4.313  0.1584 -0.3630  0.4676
37023SOL    HW114474   3.074   1.331   4.318 -2.7032 -1.9090 -1.7970
37023SOL    HW214475   3.064   1.454   4.230  0.2341  0.2624  0.7607
37024SOL     OW14476   0.507   6.698   1.836  0.6894  0.2334 -0.7323
37024SOL    HW114477   0.508   6.613   1.882  0.2542  0.7973  0.3528
37024SOL    HW214478   0.551   6.758   1.896 -0.7947  1.2043 -0.5927
37025SOL     OW14479   6.512  10.468   6.628  0.1098 -0.0045 -0.2658
37025SOL    HW114480   6.487  10.550   6.670  0.4898  1.5461 -2.9486
37025SOL    HW214481   6.599  10.448   6.664  0.3745  1.2137 -0.2202
37026SOL     OW14482   2.845   6.058   7.537 -0.2751 -0.5195 -0.5712
37026SOL    HW114483   2.845   5.983   7.477  0.0497  0.7402 -2.1714
37026SOL    HW214484   2.872   6.132   7.483 -0.7057  0.7829  0.9666
37027SOL     OW14485   9.695   7.781   8.688  0.5471 -0.0773 -0.0729
37027SOL    HW114486   9.696   7.786   8.593  2.2843  0.4168 -0.0382
37027SOL    HW214487   9.787   7.771   8.713 -0.0726 -2.4080  1.4496
37028SOL     OW14488   7.037   9.156   1.380 -0.1680  0.0374  0.0558
37028SOL    HW114489   6.972   9.177   1.313 -0.4783  0.4471  0.4833
37028SOL    HW214490   7.000   9.191   1.461  0.1039 -0.6504  0.4832
37029SOL     OW14491   7.198   0.289   4.615  0.4782  0.5439  0.1822
37029SOL    HW114492   7.165   0.358   4.672 -0.4921  0.8636 -0.7352
37029SOL    HW214493   7.120   0.237   4.593  0.9895 -0.0993 -0.1336
37030SOL     OW14494   1.360   5.648   5.040 -0.0131 -0.0004  0.5528
37030SOL    HW114495   1.409   5.676   5.117  1.5712  1.2979 -0.9028
37030SOL    HW214496   1.407   5.686   4.966 -2.0862 -0.3854 -1.0083
37031SOL     OW14497   8.032   1.049   4.419  0.3009  0.0279  0.1082
37031SOL    HW114498   8.012   1.129   4.370  0.7459  0.9319  1.3966
37031SOL    HW214499   8.126   1.035   4.406  0.2854 -0.1098  0.1363
37032SOL     OW14500   3.638   6.696   2.697 -0.5867 -0.7065  0.2215
37032SOL    HW114501   3.579   6.650   2.757 -1.5943  1.2194  0.7484
37032SOL    HW214502   3.580   6.753   2.645  0.5506 -0.5238 -0.8717
37033SOL     OW14503   8.965   4.940   7.007 -0.1012  0.1467  0.1130
37033SOL    HW114504   8.958   5.035   6.996 -0.0504  0.1872  0.4095
37033SOL    HW214505   8.930   4.924   7.095  3.3854  0.3461  1.6075
37034SOL     OW14506  10.871   1.734   2.729 -0.6798 -0.1634 -0.3834
37034SOL    HW114507  10.925   1.663   2.697 -1.4501 -0.2986 -1.3792
37034SOL    HW214508  10.784   1.718   2.692 -0.9093  1.1733 -0.4598
37035SOL     OW14509   4.582   8.003   0.701 -0.0942  0.3410  0.0528
37035SOL    HW114510   4.676   7.993   0.687 -0.1474  0.9905 -0.8308
37035SOL    HW214511   4.548   7.913   0.704  0.6554  0.0811  1.1960
37036SOL     OW14512   3.815   6.695   4.539 -0.7421 -0.2880 -0.0777
37036SOL    HW114513   3.747   6.762   4.540 -0.2921  0.1789 -0.2621
37036SOL    HW214514   3.770   6.614   4.516 -1.1235  0.1397 -0.8134
37037SOL     OW14515   4.593   6.564  10.605 -0.5964  0.0301 -0.4059
37037SOL    HW114516   4.582   6.616  10.525 -0.1650 -1.7263 -1.6389
37037SOL    HW214517   4.504   6.544  10.633 -0.7495  0.2581 -0.7140
37038SOL     OW14518   7.810   8.330   8.441  0.4083  0.1013  0.0152
37038SOL    HW114519   7.794   8.240   8.471  0.7561  0.2246  0.5802
37038SOL    HW214520   7.906   8.338   8.441  0.3354  1.0905  1.8230
37039SOL     OW14521   0.356   9.079   3.686  0.5527 -0.2870 -0.0798
37039SOL    HW114522   0.408   9.022   3.743 -3.2518 -0.5129  3.3465
37039SOL    HW214523   0.302   9.020   3.635 -1.2805  0.1043  1.3653
37040SOL     OW14524   4.112   7.655   0.357  0.4535 -0.5036  0.7291
37040SOL    HW114525   4.129   7.686   0.446 -0.4042 -2.4104  1.5981
37040SOL    HW214526   4.198   7.628   0.325  0.5782 -0.9828  1.4561
37041SOL     OW14527  10.272   4.934   1.606  0.1173 -0.5343 -0.1264
37041SOL    HW114528  10.307   4.968   1.688  1.3589 -0.0969 -0.8239
37041SOL    HW214529  10.207   4.999   1.579 -1.2426 -1.3349  1.1590
37042SOL     OW14530   3.422   6.282   3.894 -0.3201  0.4203 -0.5053
37042SOL    HW114531   3.493   6.314   3.839  1.3359 -1.6633  0.3802
37042SOL    HW214532   3.442   6.315   3.982 -0.8042  0.3651 -0.3710
37043SOL     OW14533   6.660   9.094   9.130 -0.8268  0.0947  0.0196
37043SOL    HW114534   6.607   9.174   9.126 -0.4986  0.3367  0.4645
37043SOL    HW214535   6.742   9.122   9.172 -0.2160 -0.1966 -0.9486
37044SOL     OW14536  10.462   7.063   1.578 -0.5318  0.0022 -0.1354
37044SOL    HW114537  10.419   7.116   1.510 -0.0154  0.2075 -0.3072
37044SOL    HW214538  10.457   6.974   1.545 -0.0231  0.1364 -0.5905
37045SOL     OW14539   4.803   5.019   3.917 -0.1068  0.1052  0.1041
37045SOL    HW114540   4.827   5.015   3.825  0.3484  0.2835  0.2115
37045SOL    HW214541   4.796   4.928   3.944 -1.5317  0.0416 -0.4308
37046SOL     OW14542   8.050   8.939   0.256 -0.0836  0.1057 -0.1029
37046SOL    HW114543   8.054   8.891   0.339 -0.4075  0.8366  0.3427
37046SOL    HW214544   8.132   8.918   0.212 -0.7144 -1.7886 -0.4375
37047SOL     OW14545   8.449   0.068   7.472  0.1870  0.2716 -0.3655
37047SOL    HW114546   8.472   0.160   7.456  0.4868  0.3805  0.6429
37047SOL    HW214547   8.404   0.069   7.557 -0.5682 -0.4025 -0.7476
37048SOL     OW14548   3.420   4.413  10.162 -0.0746  0.0632 -0.1185
37048SOL    HW114549   3.393   4.480  10.099 -3.6644 -1.4464 -0.3409
37048SOL    HW214550   3.458   4.343  10.108  0.0247  0.2412 -0.2798
37049SOL     OW14551   9.659   9.214   2.540  0.4351  0.4764 -0.2182
37049SOL    HW114552   9.715   9.152   2.586  1.5833  2.2130  0.7784
37049SOL    HW214553   9.678   9.200   2.447  1.3125 -0.0726  0.0398
37050SOL     OW14554   2.267   6.677   1.144  0.1020 -0.3581  0.1446
37050SOL    HW114555   2.307   6.617   1.081  0.7194 -0.3564  0.5373
37050SOL    HW214556   2.219   6.740   1.090  1.0956 -0.0197 -0.3438
37051SOL     OW14557   1.441   0.503   2.141 -0.6683  0.0966  0.2899
37051SOL    HW114558   1.360   0.475   2.185 -0.5584  0.2733  0.6012
37051SOL    HW214559   1.419   0.501   2.048 -1.3883  1.2679  0.4218
37052SOL     OW14560   6.755   6.885  10.718 -0.0381  0.4176 -0.1775
37052SOL    HW114561   6.684   6.852  10.773  1.8632 -2.1306  0.8524
37052SOL    HW214562   6.763   6.820  10.648  0.8755  0.9990 -0.6229
37053SOL     OW14563   4.338   2.779   5.098 -0.2726 -0.0552 -0.2732
37053SOL    HW114564   4.248   2.808   5.081  0.0581  1.7817  0.9777
37053SOL    HW214565   4.328   2.704   5.156 -1.0030  0.1397 -0.1385
37054SOL     OW14566   3.009   6.683   3.279  0.3784  0.1330 -0.1658
37054SOL    HW114567   2.973   6.630   3.350  0.4576  0.1034 -0.1475
37054SOL    HW214568   2.932   6.721   3.236  0.2100 -1.5806 -1.4273
37055SOL     OW14569   7.115   7.351   7.113  0.2038  0.0709 -0.2035
37055SOL    HW114570   7.132   7.260   7.090 -0.1093  0.0298 -0.2671
37055SOL    HW214571   7.156   7.362   7.199  0.9970  0.1053 -0.5791
37056SOL     OW14572   0.078  10.160   5.943 -0.1286 -0.0281  0.3778
37056SOL    HW114573   0.067  10.065   5.951  0.1466 -0.1109 -0.1699
37056SOL    HW214574   0.023  10.184   5.869  0.1018  0.1800  0.2738
37057SOL     OW14575   0.138   0.113   9.781  0.2094 -0.7068 -0.0065
37057SOL    HW114576   0.154   0.079   9.869  0.6488 -2.4928 -0.7625
37057SOL    HW214577   0.222   0.150   9.754  0.5333 -1.6696 -0.3272
37058SOL     OW14578   7.329   4.125   2.798 -0.4348 -0.1826  0.0107
37058SOL    HW114579   7.349   4.195   2.735 -0.5377 -0.4562 -0.3308
37058SOL    HW214580   7.398   4.060   2.783 -1.0980 -0.7553 -0.5989
37059SOL     OW14581   2.101   1.258   7.521  0.3161 -0.7846 -0.2610
37059SOL    HW114582   2.113   1.338   7.572  1.1279 -2.2392  1.9101
37059SOL    HW214583   2.161   1.268   7.447 -0.9055  1.3820 -1.0012
37060SOL     OW14584  10.124   1.945   7.046  0.2292  0.3139  0.3911
37060SOL    HW114585  10.181   1.908   6.979  1.6316  0.9271  1.2139
37060SOL    HW214586  10.153   2.036   7.054 -1.3436  0.8395  0.3273
37061SOL     OW14587   9.923   5.148   1.700  0.0740  0.0061  0.0955
37061SOL    HW114588   9.874   5.197   1.634  0.2993  1.1972  0.7966
37061SOL    HW214589   9.988   5.210   1.733  0.9960 -1.0664  0.3223
37062SOL     OW14590   6.866  10.531   1.446  0.1826  0.2959  0.0598
37062SOL    HW114591   6.914  10.451   1.426  0.7477  0.0949  2.1338
37062SOL    HW214592   6.929  10.587   1.492 -1.0218  0.7648  1.1838
37063SOL     OW14593   1.075   6.549   3.380 -0.1697  0.7408  0.3216
37063SOL    HW114594   1.110   6.509   3.460  2.1791  0.2497 -0.9076
37063SOL    HW214595   1.098   6.642   3.388  2.3300  0.2881 -0.8630
37064SOL     OW14596   7.711   4.133   1.240 -0.1182 -0.0506 -0.1090
37064SOL    HW114597   7.778   4.187   1.282  1.0621 -0.4798 -1.3916
37064SOL    HW214598   7.677   4.187   1.169 -0.5313 -0.1431  0.0180
37065SOL     OW14599   4.689  10.937   0.369  0.0130 -0.3683 -0.3673
37065SOL    HW114600   4.736  11.011   0.331  0.3909  0.2229  1.2460
37065SOL    HW214601   4.708  10.941   0.463 -1.9189 -1.0969  0.0731
37066SOL     OW14602   5.750   0.500   8.319 -0.5498  0.0092  0.1814
37066SOL    HW114603   5.725   0.518   8.229  0.9612 -0.0848 -0.2718
37066SOL    HW214604   5.668   0.476   8.363 -1.3137  0.2289 -1.1147
37067SOL     OW14605   8.413   9.444   3.073  0.6766  0.6581  0.0219
37067SOL    HW114606   8.355   9.370   3.057  0.2121  1.3541 -1.5917
37067SOL    HW214607   8.501   9.409   3.057  0.3296  0.9370 -2.7855
37068SOL     OW14608   3.563   4.810   0.814 -0.0805 -0.3595 -0.1459
37068SOL    HW114609   3.556   4.805   0.909  0.6752 -1.8599 -0.1534
37068SOL    HW214610   3.489   4.759   0.781 -0.8225  0.8387 -0.3924
37069SOL     OW14611   0.840   4.037   7.946 -0.1019  0.0644  0.0443
37069SOL    HW114612   0.789   4.065   7.870  0.0738 -0.8597 -0.4205
37069SOL    HW214613   0.881   3.955   7.919  2.2359  1.1490  0.1642
37070SOL     OW14614   9.691   2.102   7.927  0.3153  0.4107  0.0761
37070SOL    HW114615   9.697   2.119   8.021  0.4106 -0.1930  0.1780
37070SOL    HW214616   9.597   2.098   7.910  0.3142 -1.0419  0.4237
37071SOL     OW14617   4.496   5.737   3.368 -0.4962 -0.3254 -0.0289
37071SOL    HW114618   4.432   5.666   3.371 -2.1212  1.1185  0.3902
37071SOL    HW214619   4.544   5.722   3.287  0.2129 -2.7373  0.7735
37072SOL     OW14620   9.293   9.915   1.151 -0.1869  0.0137 -0.6322
37072SOL    HW114621   9.217   9.878   1.108  0.0654  1.0784 -2.0389
37072SOL    HW214622   9.263   9.935   1.240 -0.5170 -2.8098 -0.0655
37073SOL     OW14623   1.307   2.035  10.052 -0.3608 -0.4604  0.4954
37073SOL    HW114624   1.272   1.952  10.084 -2.3438 -0.6183 -1.9731
37073SOL    HW214625   1.308   2.027   9.957 -0.3008  2.2427  0.2193
37074SOL     OW14626   2.030   3.606   2.395  0.0669 -0.3722 -0.5004
37074SOL    HW114627   1.986   3.534   2.440  0.4015 -0.8217 -0.8958
37074SOL    HW214628   2.106   3.566   2.354  1.4659  0.5768  1.0790
37075SOL     OW14629   9.294   6.864  10.024  0.0822 -0.2956 -0.3310
37075SOL    HW114630   9.334   6.785   9.988 -0.9282 -0.2042 -1.6736
37075SOL    HW214631   9.326   6.936   9.969 -0.3461  0.0200 -0.1753
37076SOL     OW14632  10.226   9.794   1.070  0.1231 -0.0213  0.2377
37076SOL    HW114633  10.214   9.868   1.130 -2.6522  0.1275 -0.4284
37076SOL    HW214634  10.246   9.834   0.986 -0.0112 -0.0624  0.1850
37077SOL     OW14635   0.136   0.975  10.977 -0.0467 -0.1601  0.0985
37077SOL    HW114636   0.067   1.008  11.034  1.1065  1.0430  0.8416
37077SOL    HW214637   0.113   0.884  10.961 -0.3872 -0.5379  2.5135
37078SOL     OW14638   8.185   5.800   1.478  0.1188 -0.5589  0.4640
37078SOL    HW114639   8.217   5.740   1.546  0.4420  0.1195  0.9149
37078SOL    HW214640   8.263   5.845   1.446 -0.2202  0.2447  0.7333
37079SOL     OW14641   3.780   2.277   7.632  0.0792  0.2320  0.1436
37079SOL    HW114642   3.694   2.237   7.628 -0.6534  1.2946  3.5473
37079SOL    HW214643   3.836   2.211   7.672  0.5684 -0.0087 -0.9239
37080SOL     OW14644   0.021   2.955   1.944 -0.1883 -0.4095  0.1218
37080SOL    HW114645   0.077   2.907   1.883 -0.5770  0.0533 -0.6144
37080SOL    HW214646   0.037   2.914   2.029  1.4155 -0.1408 -0.0383
37081SOL     OW14647   6.480   7.443  10.899  0.0425 -0.2230 -0.8229
37081SOL    HW114648   6.543   7.372  10.911 -0.3486 -0.8609 -2.4372
37081SOL    HW214649   6.531   7.513  10.857  0.9394  1.2793  2.6103
37082SOL     OW14650   5.706   3.803   5.775  0.1690  0.0154 -0.0918
37082SOL    HW114651   5.782   3.745   5.773  0.0040 -0.2078  0.1299
37082SOL    HW214652   5.698   3.828   5.867 -0.5562 -0.6643  0.0345
37083SOL     OW14653   8.436   1.765   1.396  0.1595  0.2306 -0.0013
37083SOL    HW114654   8.436   1.840   1.455 -1.1364 -0.5840  1.0566
37083SOL    HW214655   8.372   1.789   1.328 -1.7977 -0.7366  1.4476
37084SOL     OW14656   7.627   9.721   1.820  0.5126 -0.7385 -0.0473
37084SOL    HW114657   7.533   9.727   1.839  0.2544  1.3670 -1.7355
37084SOL    HW214658   7.649   9.630   1.839 -1.8994 -1.3022  0.3108
37085SOL     OW14659   9.444   9.107   2.747 -0.1000  0.2976  0.5745
37085SOL    HW114660   9.353   9.076   2.743  0.0322  0.1535 -2.2761
37085SOL    HW214661   9.441   9.193   2.706  0.8138  0.9990  1.9326
37086SOL     OW14662   5.188   3.650   8.793 -0.0778 -0.1032  0.1109
37086SOL    HW114663   5.276   3.688   8.794 -0.6542  1.2112  1.2766
37086SOL    HW214664   5.163   3.651   8.700  1.3158 -0.9219 -0.2837
37087SOL     OW14665   2.290   2.889   9.724 -0.1265 -0.5697  0.3176
37087SOL    HW114666   2.224   2.819   9.730 -0.5296 -0.3728 -1.6262
37087SOL    HW214667   2.361   2.850   9.673 -0.5631  0.5876 -1.2059
37088SOL     OW14668   7.585   7.261   4.076  0.1695  0.0000 -0.1084
37088SOL    HW114669   7.591   7.185   4.134 -0.1029 -0.3519 -0.5457
37088SOL    HW214670   7.522   7.235   4.009  0.2266  0.5389 -0.3680
37089SOL     OW14671   9.881   9.756   9.402  0.3100  0.2276 -0.0592
37089SOL    HW114672   9.856   9.817   9.471  1.3305  0.2160  0.3260
37089SOL    HW214673   9.831   9.677   9.421 -0.9085  0.8769 -0.4808
37090SOL     OW14674   9.338   8.247   5.985 -0.2887  0.1668 -0.4114
37090SOL    HW114675   9.250   8.250   5.947 -1.7159 -1.9063  2.5350
37090SOL    HW214676   9.356   8.154   5.995  0.0954  0.5895  3.6748
37091SOL     OW14677   4.855   8.940  10.918 -0.4106 -0.5617  0.2581
37091SOL    HW114678   4.845   9.008  10.985 -1.0329  1.2185 -1.5691
37091SOL    HW214679   4.905   8.871  10.961 -0.5194  0.6803  2.4505
37092SOL     OW14680   4.292   4.916   6.967  0.4037  0.2008 -0.1931
37092SOL    HW114681   4.226   4.984   6.977  1.7595  1.8310 -1.9616
37092SOL    HW214682   4.256   4.858   6.900  0.0606  0.1625  0.0192
37093SOL     OW14683   3.853  10.551   4.656 -0.0733 -0.6218 -0.2485
37093SOL    HW114684   3.881  10.614   4.722 -0.1031  0.0585 -0.8776
37093SOL    HW214685   3.859  10.599   4.573  0.0607 -1.4919 -0.7502
37094SOL     OW14686   4.269   3.797   9.767 -0.2732  0.1284 -0.0567
37094SOL    HW114687   4.311   3.711   9.762 -0.8016 -0.1720  0.6036
37094SOL    HW214688   4.209   3.798   9.692  2.1157  1.2336 -2.0274
37095SOL     OW14689   4.943   1.455   3.550 -0.2894  0.0398 -0.6427
37095SOL    HW114690   4.871   1.509   3.517 -0.3546  0.9975  1.0384
37095SOL    HW214691   5.016   1.472   3.491 -0.6665  1.0540 -0.8124
37096SOL     OW14692  10.346   5.234   2.255 -0.1549 -0.8107 -0.0079
37096SOL    HW114693  10.433   5.244   2.293 -0.3505  2.0736 -0.2188
37096SOL    HW214694  10.330   5.317   2.209 -3.1943 -1.1097  0.4144
37097SOL     OW14695   6.309   9.241   2.638  0.3390  0.0289  0.5744
37097SOL    HW114696   6.368   9.215   2.567  0.4957 -1.2838  1.1692
37097SOL    HW214697   6.222   9.239   2.599  0.5788  0.9408 -0.0238
37098SOL     OW14698   8.056   0.482   4.063  0.2000 -0.5808  0.0510
37098SOL    HW114699   8.107   0.472   3.982  2.5357  1.0493  1.2604
37098SOL    HW214700   8.090   0.562   4.102 -2.5493 -0.1097  1.5095
37099SOL     OW14701   4.156   7.833   1.265 -0.6747  0.1757 -0.3399
37099SOL    HW114702   4.241   7.801   1.297 -1.2895 -1.8707 -0.6364
37099SOL    HW214703   4.139   7.779   1.187 -2.3396  0.4068 -0.1503
37100SOL     OW14704   3.475   5.997   2.426 -0.6295  0.2176  0.6883
37100SOL    HW114705   3.406   5.936   2.401 -0.6363  0.2356  0.6619
37100SOL    HW214706   3.431   6.060   2.484 -1.1260  1.4804 -1.0161
37101SOL     OW14707   1.007   8.858   3.497 -0.1653 -0.4898  0.0705
37101SOL    HW114708   1.005   8.933   3.557 -0.4312 -0.2914 -0.1887
37101SOL    HW214709   0.992   8.896   3.411  0.2633 -0.7730 -0.1311
37102SOL     OW14710   8.252   1.752   6.513  0.1235 -0.4725  0.2328
37102SOL    HW114711   8.318   1.707   6.461 -0.5671  0.2209 -1.2533
37102SOL    HW214712   8.169   1.733   6.469 -0.3384  1.0619  0.4047
37103SOL     OW14713   4.919   8.209   8.267  0.1716 -0.4104 -0.0967
37103SOL    HW114714   4.922   8.121   8.228  0.2565 -0.6926  0.5453
37103SOL    HW214715   4.832   8.241   8.246 -0.7365 -1.6075  1.7505
37104SOL     OW14716   5.886   3.817   7.413  0.2075 -0.5185 -0.4436
37104SOL    HW114717   5.905   3.886   7.349  1.7788 -1.0408 -0.5440
37104SOL    HW214718   5.888   3.861   7.498  0.3689 -0.2823 -0.5697
37105SOL     OW14719   0.994   3.350   8.234  0.0857 -0.3848 -1.1303
37105SOL    HW114720   0.943   3.430   8.244  0.1037 -0.4494 -0.5128
37105SOL    HW214721   0.969   3.317   8.147 -0.6086 -0.1976 -1.0088
37106SOL     OW14722   7.116   8.113   1.060 -0.1122 -0.1657  0.4902
37106SOL    HW114723   7.150   8.155   0.981 -0.8684  0.8652  0.7113
37106SOL    HW214724   7.072   8.183   1.108 -1.6457 -1.2628  0.7109
37107SOL     OW14725   4.600  10.136   4.978  0.1030  0.2674  0.1208
37107SOL    HW114726   4.557  10.078   5.040  0.8716 -2.0236 -1.3844
37107SOL    HW214727   4.533  10.156   4.913 -0.5234  2.1395  1.3408
37108SOL     OW14728   1.146   7.527   1.450 -0.8552  0.1651 -0.7339
37108SOL    HW114729   1.182   7.445   1.483 -1.2886  0.8464  1.5581
37108SOL    HW214730   1.219   7.567   1.403  0.3175 -0.1610  0.7402
37109SOL     OW14731   2.277  10.401   9.417 -0.1549  0.1600  0.6671
37109SOL    HW114732   2.206  10.462   9.397 -0.7153 -0.8146 -0.3642
37109SOL    HW214733   2.233  10.330   9.466  0.1285 -0.3877  0.1244
37110SOL     OW14734  10.527   0.503   2.953 -0.4099 -0.5173  0.2657
37110SOL    HW114735  10.536   0.481   3.045  2.0560 -2.1278 -0.3253
37110SOL    HW214736  10.616   0.521   2.923 -1.2638  0.7732 -1.6219
37111SOL     OW14737   7.853   3.425   1.958  0.3752  0.2524  0.3175
37111SOL    HW114738   7.857   3.469   2.043 -0.9027 -1.3383  1.2369
37111SOL    HW214739   7.783   3.360   1.968 -0.7677  0.9955 -2.4142
37112SOL     OW14740   8.961   8.237   3.517  0.1398 -0.1286  0.6386
37112SOL    HW114741   9.001   8.176   3.579 -0.6539  0.2456  1.5338
37112SOL    HW214742   8.884   8.190   3.483  0.1326 -0.0355  0.5268
37113SOL     OW14743  10.832   5.671  10.530 -0.5711  0.8881 -0.0550
37113SOL    HW114744  10.919   5.653  10.496 -1.3055 -2.7164 -0.2383
37113SOL    HW214745  10.841   5.662  10.625 -0.7306  0.4552 -0.0779
37114SOL     OW14746   6.826   9.755   8.162 -0.1140  0.5670  0.2762
37114SOL    HW114747   6.910   9.721   8.194 -0.2202 -0.3381 -0.3988
37114SOL    HW214748   6.835   9.850   8.170  1.1645  0.5048 -0.2531
37115SOL     OW14749   4.042  10.777   8.833  0.0563 -0.4101  0.3294
37115SOL    HW114750   3.970  10.828   8.797 -0.9235 -1.3301  0.9210
37115SOL    HW214751   4.082  10.735   8.757 -0.1849 -0.0709  0.0123
37116SOL     OW14752   5.384   7.259   4.847  0.3329 -0.3957 -0.8796
37116SOL    HW114753   5.304   7.310   4.859  0.3059 -0.7468  0.5215
37116SOL    HW214754   5.449   7.323   4.819  0.4226  0.5418  1.3344
37117SOL     OW14755   8.163   6.079   8.734  0.2806 -0.4649 -0.0354
37117SOL    HW114756   8.190   6.034   8.655  0.5976  0.1739 -0.2858
37117SOL    HW214757   8.121   6.010   8.787 -0.9739 -0.6597 -1.2387
37118SOL     OW14758   6.932   7.715   6.435  0.4362 -0.0725 -0.4249
37118SOL    HW114759   6.961   7.658   6.506  0.7256  0.1269 -0.3817
37118SOL    HW214760   6.907   7.797   6.479  1.9945  0.5702 -0.6926
37119SOL     OW14761   3.946   5.978   9.821 -0.5515 -0.0450 -0.6641
37119SOL    HW114762   3.944   5.959   9.914 -3.0153  0.5716 -0.5633
37119SOL    HW214763   3.865   5.940   9.787  0.2859 -0.2053 -2.5414
37120SOL     OW14764   5.245   1.924   2.528  0.1139  0.2581  0.1802
37120SOL    HW114765   5.236   1.831   2.550  1.0805  0.3837  1.1871
37120SOL    HW214766   5.164   1.947   2.483  0.0028 -1.1509 -0.3514
37121SOL     OW14767   4.567   5.683   6.335 -0.4412 -0.4980 -0.0592
37121SOL    HW114768   4.615   5.653   6.412 -0.9860 -1.9982 -0.2841
37121SOL    HW214769   4.534   5.770   6.359  1.6149  0.1618  0.4087
37122SOL     OW14770   1.482   1.087   3.407 -0.4210  0.2219 -0.0471
37122SOL    HW114771   1.578   1.091   3.416  0.0361 -1.4335 -3.4083
37122SOL    HW214772   1.457   1.005   3.450 -0.3451  0.5460  0.6340
37123SOL     OW14773   9.610   7.531   5.363 -0.9590 -0.4565  0.5359
37123SOL    HW114774   9.640   7.616   5.333  0.1526 -1.0439 -0.0510
37123SOL    HW214775   9.591   7.544   5.456 -1.8387  0.6884  0.2074
37124SOL     OW14776   1.783  10.603   8.627  0.4829  0.5310 -0.4460
37124SOL    HW114777   1.784  10.699   8.634 -1.9746  0.5591 -0.1197
37124SOL    HW214778   1.710  10.584   8.569  0.5226 -1.1862  0.0423
37125SOL     OW14779   2.324   7.827   1.398 -0.2262 -0.0906 -0.6168
37125SOL    HW114780   2.349   7.808   1.489 -0.4338  1.1220 -0.3048
37125SOL    HW214781   2.271   7.751   1.372  0.2409 -0.6795  0.1031
37126SOL     OW14782   6.200   2.837   5.486  0.4890 -0.4674  0.4452
37126SOL    HW114783   6.285   2.839   5.443  0.3105 -1.7550  0.0457
37126SOL    HW214784   6.189   2.747   5.515 -1.2000 -0.5554 -0.4088
37127SOL     OW14785   6.466  10.589   9.871  0.1515 -0.0326  0.1545
37127SOL    HW114786   6.409  10.657   9.907 -0.8593  0.0139 -1.4935
37127SOL    HW214787   6.424  10.507   9.896 -1.4057  0.0005 -2.1417
37128SOL     OW14788   4.047   2.476   2.295  0.4491 -0.2681  0.0652
37128SOL    HW114789   3.971   2.534   2.298  0.6478 -0.0297  0.4872
37128SOL    HW214790   4.052   2.438   2.383 -0.4719 -1.9366 -0.5727
37129SOL     OW14791   1.889   0.009   9.845 -0.5918 -0.2432 -0.3052
37129SOL    HW114792   1.860  -0.034   9.764  2.0916 -1.4418 -0.6838
37129SOL    HW214793   1.905  -0.064   9.906  0.0579  0.4857  0.4066
37130SOL     OW14794  10.126   7.557   8.092 -0.7282  0.0404 -0.4528
37130SOL    HW114795  10.175   7.477   8.076  1.0490  0.9011  0.5723
37130SOL    HW214796  10.042   7.528   8.127 -0.0445 -1.3666  0.0252
37131SOL     OW14797   5.032   6.874   0.981 -0.2521 -0.4416  0.0936
37131SOL    HW114798   4.950   6.839   1.017  0.3561 -0.0576  1.9174
37131SOL    HW214799   5.094   6.870   1.054  0.6115  1.7962 -0.4889
37132SOL     OW14800   9.209   8.262   6.249 -0.0777  0.3932 -0.4692
37132SOL    HW114801   9.243   8.209   6.177  2.4909  0.5217  0.5949
37132SOL    HW214802   9.124   8.294   6.218 -1.9424 -4.6421 -0.9789
37133SOL     OW14803   7.372   6.043   0.498  0.0589 -0.2004  0.7596
37133SOL    HW114804   7.362   6.065   0.590  0.1760 -1.2470  1.0316
37133SOL    HW214805   7.450   6.091   0.469  0.3699 -0.3366  1.3653
37134SOL     OW14806   5.307   6.141   5.575  0.1658 -0.5012 -0.0681
37134SOL    HW114807   5.291   6.133   5.481 -1.7610 -0.8025  0.2671
37134SOL    HW214808   5.308   6.051   5.607  4.0826 -0.6141 -0.2655
37135SOL     OW14809   8.985   4.417   2.787  0.4513 -0.5917 -0.4682
37135SOL    HW114810   9.014   4.422   2.696  1.4861  0.0308 -0.1019
37135SOL    HW214811   9.038   4.482   2.834 -2.9319  2.0959 -0.1637
37136SOL     OW14812   0.513   6.006   0.289 -0.3842 -0.3286  0.2817
37136SOL    HW114813   0.565   5.973   0.362  3.5078 -0.3192 -2.3765
37136SOL    HW214814   0.505   6.100   0.305  0.5096 -0.3137  0.6653
37137SOL     OW14815   8.199  10.201   9.159 -0.5707 -0.2554  0.5209
37137SOL    HW114816   8.183  10.191   9.253 -0.3785 -1.2594  0.4464
37137SOL    HW214817   8.163  10.122   9.119 -0.3546  0.0107 -0.2146
37138SOL     OW14818   5.164   5.420   1.286 -0.3926 -0.1447  0.6182
37138SOL    HW114819   5.074   5.413   1.318 -0.7609  0.0179 -0.3528
37138SOL    HW214820   5.166   5.503   1.239  0.1434 -0.3440  0.2831
37139SOL     OW14821   1.439   6.689   9.258 -0.1146 -0.4358  0.8368
37139SOL    HW114822   1.496   6.679   9.181  1.6241  0.4251  1.9829
37139SOL    HW214823   1.390   6.607   9.261  0.4107 -0.8325 -0.7010
37140SOL     OW14824  10.377   1.781  10.883  0.5359  0.0321  0.2908
37140SOL    HW114825  10.354   1.720  10.813 -0.0340  1.3055 -0.6413
37140SOL    HW214826  10.460   1.747  10.917 -0.1738 -1.7162  0.3259
37141SOL     OW14827   0.822  10.232   2.190  0.5130 -0.6326  0.2389
37141SOL    HW114828   0.858  10.266   2.272 -1.1522  3.2080 -0.5495
37141SOL    HW214829   0.805  10.140   2.209  1.8580 -0.2812  3.6095
37142SOL     OW14830  10.551   0.297   8.013 -0.0819  0.2326 -0.0606
37142SOL    HW114831  10.494   0.225   7.988 -0.6577  0.6244  0.1110
37142SOL    HW214832  10.498   0.376   7.998 -1.1768  0.4109  4.3183
37143SOL     OW14833   4.434   6.044   7.597  0.2766  0.1796  0.0901
37143SOL    HW114834   4.388   6.016   7.517 -1.1609  1.5919  0.3882
37143SOL    HW214835   4.455   6.136   7.581  1.5989 -0.0227  0.6291
37144SOL     OW14836   7.679   9.928  10.517 -0.3366 -0.5236  0.0532
37144SOL    HW114837   7.775   9.922  10.513 -0.3276 -0.4322  0.1255
37144SOL    HW214838   7.663  10.009  10.566 -0.4528 -0.1046 -0.6692
37145SOL     OW14839   6.079  10.404   8.288  0.4367  0.4250  0.3388
37145SOL    HW114840   6.154  10.437   8.337 -0.6877 -0.5567  2.8121
37145SOL    HW214841   6.033  10.482   8.257  1.1577  1.0795  0.9149
37146SOL     OW14842   1.323   7.259   0.519 -0.0814  0.0510 -0.0274
37146SOL    HW114843   1.365   7.218   0.444  1.6405  1.3888  0.1933
37146SOL    HW214844   1.326   7.192   0.588 -0.6933 -0.7856 -0.7942
37147SOL     OW14845   7.931   5.466   7.377 -0.4371 -0.1075  0.2651
37147SOL    HW114846   8.010   5.415   7.358 -0.8253 -0.1954 -1.1632
37147SOL    HW214847   7.907   5.439   7.466  1.5949  0.5462  1.0497
37148SOL     OW14848  10.516   5.696   8.250  0.2054  0.3577 -0.4781
37148SOL    HW114849  10.521   5.791   8.242  0.5646  0.3990  0.2173
37148SOL    HW214850  10.488   5.680   8.340  0.9815 -0.2052 -0.3241
37149SOL     OW14851   8.789  10.192   6.470  0.1396 -0.3802  0.1011
37149SOL    HW114852   8.812  10.102   6.492  0.1717 -0.4237 -0.1075
37149SOL    HW214853   8.871  10.241   6.481  0.5912 -0.7134 -1.6085
37150SOL     OW14854   1.749   2.612   6.992 -0.3222 -0.0994  0.0259
37150SOL    HW114855   1.660   2.613   6.956 -0.2788  1.5321 -0.1013
37150SOL    HW214856   1.743   2.558   7.070 -1.6784  0.8526  0.5947
37151SOL     OW14857   6.244   5.195   4.233 -0.6462  0.4106 -0.1824
37151SOL    HW114858   6.290   5.220   4.153 -0.9947 -1.0441 -0.8580
37151SOL    HW214859   6.312   5.156   4.288 -0.8920 -1.0123 -0.8598
37152SOL     OW14860   7.483   4.986   8.848  0.0728 -0.0285  0.4486
37152SOL    HW114861   7.488   5.053   8.780  0.3460  0.2030  0.6957
37152SOL    HW214862   7.419   5.021   8.910 -0.0818 -0.1811  0.3758
37153SOL     OW14863   2.955  10.318  10.555 -0.4209  0.2699  0.2883
37153SOL    HW114864   2.998  10.235  10.573  1.0526  0.7387 -0.9186
37153SOL    HW214865   2.999  10.351  10.476 -0.4976  2.5237  1.1492
37154SOL     OW14866   2.291   2.667   6.719 -0.1378 -0.2425 -0.1071
37154SOL    HW114867   2.351   2.666   6.645  0.2263  1.2096  0.1433
37154SOL    HW214868   2.210   2.630   6.686  0.3025 -0.4132 -0.9883
37155SOL     OW14869   1.544  10.339   6.401 -0.2772 -0.4855 -0.2826
37155SOL    HW114870   1.453  10.322   6.426 -0.4341 -1.5939 -1.5567
37155SOL    HW214871   1.563  10.425   6.438 -2.4854  0.6531 -1.6674
37156SOL     OW14872   3.057   4.930   3.216 -0.0650  0.4491  0.2876
37156SOL    HW114873   3.111   4.906   3.141 -1.5377  1.4262 -1.1181
37156SOL    HW214874   3.049   5.025   3.210 -2.5857  0.2526 -0.0072
37157SOL     OW14875   4.742   6.457   2.282 -0.2513 -0.5963 -0.9471
37157SOL    HW114876   4.836   6.440   2.274  0.2998  1.4793  0.7547
37157SOL    HW214877   4.735   6.552   2.290 -2.3521 -0.8322  0.6090
37158SOL     OW14878   5.423   3.551   7.299  0.8157 -0.0043  0.4789
37158SOL    HW114879   5.449   3.524   7.210 -0.0142 -0.2252  0.2981
37158SOL    HW214880   5.496   3.604   7.330  0.6487  0.9715 -0.7466
37159SOL     OW14881   6.145   8.477   7.039  0.0163 -0.0030 -0.1765
37159SOL    HW114882   6.137   8.459   7.132  0.6328 -1.8747 -0.4680
37159SOL    HW214883   6.154   8.391   6.998 -0.3869  0.7785 -1.9775
37160SOL     OW14884   9.627   1.652   4.706  0.1534 -0.1036  0.3871
37160SOL    HW114885   9.691   1.587   4.675  3.2074  2.8402  0.1916
37160SOL    HW214886   9.630   1.646   4.801  1.6930  0.8312  0.4215
37161SOL     OW14887   0.433   3.273   6.469 -0.2216  0.1511 -0.3184
37161SOL    HW114888   0.380   3.343   6.431 -1.1959 -0.5998 -0.3581
37161SOL    HW214889   0.390   3.192   6.440 -0.1138 -0.4409  1.1716
37162SOL     OW14890   3.995   1.176   7.540 -0.1227 -0.2393  0.1371
37162SOL    HW114891   4.046   1.160   7.462  0.1626 -1.0763  0.4862
37162SOL    HW214892   4.011   1.268   7.562  0.6902 -0.3213 -0.1293
37163SOL     OW14893   9.356   2.572   7.212  0.0040 -0.0764 -0.2203
37163SOL    HW114894   9.303   2.500   7.178 -0.6105  0.0904  0.3934
37163SOL    HW214895   9.417   2.530   7.273 -0.3945 -0.0679  0.1829
37164SOL     OW14896   3.427  10.710  10.703 -0.2121  0.5194 -0.0525
37164SOL    HW114897   3.512  10.751  10.689  0.0971  0.4567  1.6449
37164SOL    HW214898   3.446  10.618  10.717 -0.5880  0.4703  0.1527
37165SOL     OW14899   6.552   3.221   9.980  0.2580  0.0514  0.0388
37165SOL    HW114900   6.483   3.238  10.044  0.1724  0.6071 -0.1998
37165SOL    HW214901   6.560   3.126   9.978 -0.1446  0.0093  0.4487
37166SOL     OW14902   8.390   9.359   0.328 -0.1774  0.0518  0.3980
37166SOL    HW114903   8.383   9.426   0.260  1.4410 -0.3724 -0.2101
37166SOL    HW214904   8.314   9.302   0.314  0.5932 -0.5083 -1.5884
37167SOL     OW14905   1.825   9.691   2.146  0.0275  0.2469  0.3033
37167SOL    HW114906   1.803   9.624   2.081 -0.7104  0.6619  0.1166
37167SOL    HW214907   1.848   9.642   2.225  0.4627 -0.2475 -0.1312
37168SOL     OW14908   1.223   0.172  10.913 -0.2946 -0.0200  0.1464
37168SOL    HW114909   1.272   0.151  10.833  1.0602 -0.4020  1.0473
37168SOL    HW214910   1.140   0.125  10.904 -0.3778  0.3985 -1.2874
37169SOL     OW14911   6.280   9.145   1.165  0.0130  0.0995  0.0573
37169SOL    HW114912   6.213   9.207   1.194  0.0463  0.3673 -0.4340
37169SOL    HW214913   6.258   9.063   1.209 -1.0513 -0.0012 -0.6531
37170SOL     OW14914   6.537   7.083   5.699  0.0139  0.5135 -0.3775
37170SOL    HW114915   6.454   7.113   5.661  0.9642  0.9483 -2.1538
37170SOL    HW214916   6.574   7.162   5.739  0.0955  0.5553 -0.5387
37171SOL     OW14917   5.909   8.013   4.603  0.1520 -0.5739 -0.1670
37171SOL    HW114918   5.945   8.071   4.536 -1.2099  0.0123 -0.4042
37171SOL    HW214919   5.820   8.045   4.618  0.2130 -1.0895  1.4620
37172SOL     OW14920   6.475   2.349  10.664 -0.1111  0.3042 -0.8818
37172SOL    HW114921   6.525   2.283  10.618  0.1879 -0.1012  0.0084
37172SOL    HW214922   6.537   2.420  10.680 -0.2585  0.5191 -1.2482
37173SOL     OW14923   8.880   1.614   4.886 -0.2245 -0.0286 -0.0610
37173SOL    HW114924   8.798   1.574   4.916  0.8340 -0.4779  2.3804
37173SOL    HW214925   8.910   1.559   4.814 -1.3295 -0.7100 -0.0030
37174SOL     OW14926   4.702   6.307   9.640  0.1001  0.1686 -0.1276
37174SOL    HW114927   4.780   6.343   9.598 -0.7609  0.9081 -1.1176
37174SOL    HW214928   4.699   6.216   9.612 -0.1812  0.5190 -1.2794
37175SOL     OW14929   3.705   2.268  10.011  0.0395 -0.2692 -0.3077
37175SOL    HW114930   3.770   2.297  10.075 -0.8491  2.2464 -0.4789
37175SOL    HW214931   3.622   2.267  10.060 -0.2938 -0.4064 -0.8712
37176SOL     OW14932   6.065   5.584   3.165 -0.3138  0.1756 -0.1285
37176SOL    HW114933   6.134   5.621   3.221  1.1094 -1.1137 -0.9939
37176SOL    HW214934   6.034   5.507   3.212 -1.3228  0.8706  0.3568
37177SOL     OW14935   2.640   2.637   8.061  0.7152 -0.2193 -0.3159
37177SOL    HW114936   2.637   2.730   8.080  0.2100 -0.3614  0.3316
37177SOL    HW214937   2.733   2.616   8.058  0.8331 -0.2750  2.5342
37178SOL     OW14938   3.558   5.364   0.093  0.2729 -0.2239  0.4283
37178SOL    HW114939   3.500   5.291   0.071 -0.7529  0.5229  0.6463
37178SOL    HW214940   3.629   5.359   0.029 -0.2913 -0.8350 -0.1495
37179SOL     OW14941   2.615   9.997   1.858 -0.2523  0.0427  0.5711
37179SOL    HW114942   2.705  10.030   1.857 -0.5049  0.7165 -0.9518
37179SOL    HW214943   2.571  10.050   1.924 -0.4787  2.3248 -1.3705
37180SOL     OW14944   4.616   7.014   6.714 -0.4883 -0.1932 -0.0312
37180SOL    HW114945   4.704   7.039   6.743 -1.1093  0.1678  1.5736
37180SOL    HW214946   4.614   6.919   6.727 -0.6217 -0.0890  0.6974
37181SOL     OW14947   0.673   6.641   9.744  0.2131 -0.2398  0.8963
37181SOL    HW114948   0.688   6.673   9.833 -2.9194  0.9001  1.0599
37181SOL    HW214949   0.708   6.710   9.688 -1.7754  1.0924  1.2593
37182SOL     OW14950  10.610   3.212   2.659 -0.6342 -0.3606 -0.6031
37182SOL    HW114951  10.689   3.164   2.682  0.3104  1.2287 -0.5002
37182SOL    HW214952  10.618   3.228   2.565 -0.6540  0.0932 -0.5308
37183SOL     OW14953   6.873   8.873   2.310 -0.2252  0.0556 -0.0662
37183SOL    HW114954   6.817   8.914   2.244  0.7776 -1.1441 -1.6987
37183SOL    HW214955   6.828   8.791   2.331  0.5810 -0.6175 -0.9272
37184SOL     OW14956   0.135   7.281   1.748 -0.1009  0.3432 -0.1432
37184SOL    HW114957   0.197   7.216   1.781 -0.5245  0.9105  1.8330
37184SOL    HW214958   0.050   7.251   1.780 -0.7053  0.2808 -1.7397
37185SOL     OW14959   3.657   3.011   2.089 -0.3994  0.1890  0.3531
37185SOL    HW114960   3.689   2.936   2.139  1.7621  1.7533  1.3991
37185SOL    HW214961   3.722   3.023   2.019 -1.2820  0.4777 -0.4358
37186SOL     OW14962   1.426   2.691   8.235  1.1689  0.4218  1.0216
37186SOL    HW114963   1.361   2.627   8.265  0.0953  0.6454 -0.7393
37186SOL    HW214964   1.465   2.726   8.315  0.9530 -1.6047  2.0236
37187SOL     OW14965   3.668   0.961   5.610 -0.1506 -0.0174 -0.3710
37187SOL    HW114966   3.638   1.051   5.600 -0.4316 -0.0823 -0.1294
37187SOL    HW214967   3.590   0.908   5.597 -0.1273 -0.1920  0.1674
37188SOL     OW14968  10.093   5.861   9.729 -0.4834  0.0241  0.0023
37188SOL    HW114969  10.117   5.783   9.780  0.0793 -0.2975 -0.7427
37188SOL    HW214970  10.177   5.901   9.707 -0.7591  0.5926 -0.0080
37189SOL     OW14971   1.380   1.544   2.785 -0.1424  0.2002 -0.2636
37189SOL    HW114972   1.420   1.488   2.851  0.9113  1.4561  0.1826
37189SOL    HW214973   1.453   1.575   2.732 -0.5111  2.4225  0.4890
37190SOL     OW14974  10.114   7.000   3.231 -0.1770 -0.5070 -0.5012
37190SOL    HW114975  10.156   7.084   3.251  2.3391 -1.5785 -0.9872
37190SOL    HW214976  10.031   7.024   3.191  0.2514  1.7575 -0.1298
37191SOL     OW14977   9.411   6.537   6.643 -0.7965  0.4322 -0.0209
37191SOL    HW114978   9.388   6.629   6.653 -0.0309  0.9096 -2.4352
37191SOL    HW214979   9.485   6.524   6.704 -2.3293  0.8032  1.9864
37192SOL     OW14980   2.007   9.610  10.192  0.1568  0.2757  0.5456
37192SOL    HW114981   2.089   9.637  10.234  0.1679  0.4063  0.4424
37192SOL    HW214982   1.969   9.692  10.161  1.5904 -0.0794 -2.3220
37193SOL     OW14983   8.504   7.722   0.720 -0.5964 -0.4290  0.5421
37193SOL    HW114984   8.535   7.643   0.676 -1.0963 -0.5517  0.4128
37193SOL    HW214985   8.423   7.744   0.676  0.5110  1.2735 -0.7179
37194SOL     OW14986   4.835   4.680  10.856  0.2803  0.0761  0.2765
37194SOL    HW114987   4.924   4.708  10.879  0.2053  0.1609  0.4631
37194SOL    HW214988   4.783   4.760  10.861 -0.0412 -0.2001  1.3383
37195SOL     OW14989   7.093   8.112   9.268  0.1016 -0.3221 -0.3133
37195SOL    HW114990   7.010   8.140   9.227 -1.3637  0.5363  3.0496
37195SOL    HW214991   7.131   8.193   9.303  1.8629 -0.8724 -0.9072
37196SOL     OW14992   6.119   3.024   3.610 -0.0091  0.5694  0.4757
37196SOL    HW114993   6.092   3.006   3.520  3.6192  0.7834 -0.7113
37196SOL    HW214994   6.179   2.953   3.632  0.3321  1.3725  2.1741
37197SOL     OW14995   7.256   0.269   2.175 -0.2400 -0.1162  0.0877
37197SOL    HW114996   7.187   0.323   2.214 -1.0783 -0.0947 -1.3629
37197SOL    HW214997   7.324   0.332   2.149 -0.7984  0.1388 -0.7585
37198SOL     OW14998   4.419   7.140   2.162  0.3870 -0.0690  0.4641
37198SOL    HW114999   4.403   7.222   2.209  0.2670  0.0000  0.3035
37198SOL    HW215000   4.369   7.149   2.081  1.7157  0.3926 -0.3267
37199SOL     OW15001   4.126   6.680   1.636 -0.0861  0.0111 -0.5712
37199SOL    HW115002   4.041   6.663   1.677  0.0616 -2.4153 -1.1845
37199SOL    HW215003   4.110   6.669   1.542  1.0318 -1.1392 -0.6412
37200SOL     OW15004  10.670   7.989   9.076  0.4673 -0.1572 -0.6299
37200SOL    HW115005  10.745   7.961   9.024  0.0244  1.3449 -2.1379
37200SOL    HW215006  10.596   7.988   9.015  0.0439  2.2179 -0.2248
37201SOL     OW15007   6.486   1.972   8.965  0.2457 -0.3107 -0.1095
37201SOL    HW115008   6.395   1.942   8.968  0.6285 -1.3757  4.4493
37201SOL    HW215009   6.486   2.054   9.015  1.7131 -0.0447 -0.5233
37202SOL     OW15010   7.343   7.028   2.403 -0.7061 -0.2259  0.1739
37202SOL    HW115011   7.411   6.992   2.346 -1.8361 -0.1777 -1.2076
37202SOL    HW215012   7.383   7.106   2.441  0.1731 -0.4560 -0.2603
37203SOL     OW15013   5.426   0.194  10.326 -0.1519  0.0847  0.0657
37203SOL    HW115014   5.474   0.215  10.247  1.0051  1.7791  1.1872
37203SOL    HW215015   5.460   0.254  10.392 -0.5381 -1.7762  2.0477
37204SOL     OW15016  10.644   6.796   4.746  0.2693 -0.4402 -0.2029
37204SOL    HW115017  10.695   6.721   4.775 -0.6149 -0.3274  1.6723
37204SOL    HW215018  10.667   6.806   4.653  0.0003 -3.3309 -0.6214
37205SOL     OW15019   3.391   1.525   4.153 -0.2745 -0.2827 -0.2714
37205SOL    HW115020   3.363   1.534   4.062 -0.8656 -0.5317 -0.1198
37205SOL    HW215021   3.373   1.433   4.175  1.0225 -0.5377 -0.2843
37206SOL     OW15022   6.694   7.754   1.963 -0.2466 -0.3006 -0.5035
37206SOL    HW115023   6.637   7.782   1.891 -1.7133 -0.0451  0.7191
37206SOL    HW215024   6.722   7.835   2.004 -0.6793 -0.4883  0.1649
37207SOL     OW15025   2.453   9.224   4.309  0.3197 -0.2870 -0.1191
37207SOL    HW115026   2.434   9.281   4.384 -0.3383 -1.6897  0.7924
37207SOL    HW215027   2.433   9.136   4.340  2.2186 -1.1297 -1.2306
37208SOL     OW15028   0.049   6.809   3.905  0.2895 -0.4202 -0.1552
37208SOL    HW115029   0.078   6.733   3.855 -0.4024 -1.2238  0.6422
37208SOL    HW215030   0.121   6.828   3.965 -0.3961 -1.8175  1.1539
37209SOL     OW15031   4.840   7.141   5.472 -0.2636 -0.3667  0.2470
37209SOL    HW115032   4.873   7.200   5.404 -0.5535 -0.7715 -0.2479
37209SOL    HW215033   4.916   7.125   5.528  0.2738 -0.8873 -0.6022
37210SOL     OW15034   2.873  10.641   4.237 -0.0760 -0.2465  0.1387
37210SOL    HW115035   2.929  10.705   4.281  0.1749 -0.4761  0.1563
37210SOL    HW215036   2.843  10.584   4.307 -2.2565  1.2887  0.5001
37211SOL     OW15037   8.681   7.587   3.966 -0.2678 -0.5148 -0.2732
37211SOL    HW115038   8.739   7.511   3.977  0.9607  0.4202 -0.1012
37211SOL    HW215039   8.741   7.660   3.949 -1.4666  0.3000 -1.0964
37212SOL     OW15040   6.329   2.915   6.800  0.3526 -0.4197 -0.1222
37212SOL    HW115041   6.382   2.872   6.868 -1.3310 -0.7130  1.0134
37212SOL    HW215042   6.357   3.007   6.803  0.3131 -0.4345  0.9419
37213SOL     OW15043   0.371   8.363   3.420 -0.6471  0.1799 -0.0315
37213SOL    HW115044   0.426   8.428   3.378 -0.4072 -0.5148 -0.8060
37213SOL    HW215045   0.334   8.408   3.496 -1.1974  1.4951 -1.0584
37214SOL     OW15046   8.125  10.492   5.070 -0.5261  0.9634 -0.3209
37214SOL    HW115047   8.030  10.495   5.064 -0.6854 -1.5037  0.3596
37214SOL    HW215048   8.148  10.567   5.125 -2.0175  1.9134 -0.9771
37215SOL     OW15049   1.165   3.063   6.680 -0.0239  0.0003  0.1102
37215SOL    HW115050   1.090   3.022   6.724 -1.3273  1.6373 -0.5207
37215SOL    HW215051   1.129   3.096   6.598  1.1092  1.8221  0.3146
37216SOL     OW15052   4.531   1.109   1.895 -0.6739 -0.1555  0.3854
37216SOL    HW115053   4.505   1.025   1.934  0.4614 -0.4360  0.5424
37216SOL    HW215054   4.624   1.116   1.913 -0.1510 -0.1767 -2.0730
37217SOL     OW15055   9.480   6.066   8.037  0.0371  0.2346 -0.0662
37217SOL    HW115056   9.548   6.009   8.002  0.0576 -0.2344  0.7240
37217SOL    HW215057   9.500   6.073   8.130 -0.6025  0.6441  0.0444
37218SOL     OW15058  10.767   1.526   3.467  0.1349  0.1575 -0.6409
37218SOL    HW115059  10.817   1.565   3.538  1.0202 -0.4394 -0.9276
37218SOL    HW215060  10.766   1.432   3.488  0.2069  0.0115 -1.2994
37219SOL     OW15061   6.012   0.087   8.657 -0.1688 -0.1590 -0.4683
37219SOL    HW115062   6.069   0.080   8.734 -0.8873 -0.3318  0.0533
37219SOL    HW215063   5.984   0.179   8.657  0.2656 -0.0235 -0.8425
37220SOL     OW15064   6.437   7.054   2.409 -0.4036 -0.5112  0.3314
37220SOL    HW115065   6.445   7.068   2.315  1.1696 -0.8313  0.4100
37220SOL    HW215066   6.385   6.974   2.416  1.3681 -1.7723 -0.3340
37221SOL     OW15067   4.806   7.345   6.202  0.3566 -0.4068 -0.1881
37221SOL    HW115068   4.738   7.397   6.159  0.8044  1.0820  0.8806
37221SOL    HW215069   4.760   7.269   6.236 -0.4121 -0.4176 -1.2201
37222SOL     OW15070   0.553   3.654   2.538 -0.1838 -0.4068  0.1219
37222SOL    HW115071   0.589   3.661   2.449 -1.0646  0.5706 -0.1693
37222SOL    HW215072   0.604   3.718   2.589  1.0486 -1.7252  0.5770
37223SOL     OW15073   0.071   5.013   6.403 -0.0056 -0.6817  0.3102
37223SOL    HW115074   0.077   5.034   6.497 -0.1209 -0.5468  0.2878
37223SOL    HW215075   0.008   5.076   6.369 -0.6011 -1.2766  0.3043
37224SOL     OW15076   5.653   3.483   5.979  0.0149 -0.0148  0.2546
37224SOL    HW115077   5.683   3.458   6.066 -2.0282 -0.5823  0.8220
37224SOL    HW215078   5.648   3.400   5.931 -0.7937  0.0459  0.2247
37225SOL     OW15079   1.426   4.959   1.870 -0.2140 -0.2887  0.4186
37225SOL    HW115080   1.501   4.900   1.885 -1.1993 -1.7039 -0.1380
37225SOL    HW215081   1.467   5.043   1.846  1.2264 -1.5551 -1.8411
37226SOL     OW15082   5.662   1.966   1.200  0.1365  0.1280 -0.2995
37226SOL    HW115083   5.625   1.976   1.113  0.5869 -0.9150 -0.6226
37226SOL    HW215084   5.757   1.971   1.187  0.2208 -0.3604  0.0794
37227SOL     OW15085   1.658   2.834   2.811 -0.0947 -0.0121 -0.4331
37227SOL    HW115086   1.610   2.798   2.885  0.2514  1.3290  0.4620
37227SOL    HW215087   1.595   2.891   2.767 -0.0084 -0.0457 -0.6022
37228SOL     OW15088  10.774   8.811   9.127  0.0921  0.2722  0.2048
37228SOL    HW115089  10.712   8.854   9.185  1.5426 -0.2814  2.2353
37228SOL    HW215090  10.825   8.883   9.089  0.4952  0.5406  1.2306
37229SOL     OW15091   2.213   6.718   2.284 -0.6091 -0.6044  0.3215
37229SOL    HW115092   2.139   6.675   2.327 -0.9470  0.4807  0.8350
37229SOL    HW215093   2.214   6.806   2.321  0.8028 -0.5437  0.1452
37230SOL     OW15094   6.384   5.271   9.387 -0.0105  0.1575  0.5944
37230SOL    HW115095   6.454   5.265   9.322  0.2485 -0.2970  0.9069
37230SOL    HW215096   6.313   5.217   9.351 -0.1920  0.5944  0.2922
37231SOL     OW15097   8.434   2.329  10.137  0.4233  0.0631  0.1129
37231SOL    HW115098   8.415   2.380  10.058 -0.2158 -0.4620 -0.0739
37231SOL    HW215099   8.430   2.238  10.108 -1.0855 -0.1641  1.0288
37232SOL     OW15100   9.846   2.768   8.882  0.1782 -0.8567  0.2595
37232SOL    HW115101   9.822   2.694   8.939  0.9390 -0.6913  0.8028
37232SOL    HW215102   9.816   2.845   8.931  2.2326 -0.6148  1.1804
37233SOL     OW15103   9.165   2.358   1.364 -0.1267 -1.1045  0.6790
37233SOL    HW115104   9.074   2.368   1.391  0.0853 -0.6902  1.2439
37233SOL    HW215105   9.171   2.268   1.334 -1.1474 -0.6463 -0.9902
37234SOL     OW15106   3.400   2.418   5.152 -0.5314  0.2416 -0.4325
37234SOL    HW115107   3.427   2.374   5.071 -2.2148 -2.0336  0.1803
37234SOL    HW215108   3.360   2.499   5.122 -0.7279 -0.3679 -1.8820
37235SOL     OW15109   1.762   8.731   3.869  0.7525 -0.0648  0.2471
37235SOL    HW115110   1.829   8.667   3.895  0.3627 -0.4973  0.1993
37235SOL    HW215111   1.700   8.731   3.941  1.0397  0.6778  0.5000
37236SOL     OW15112   4.104   2.204   9.573  0.2117  0.4946 -0.5969
37236SOL    HW115113   4.150   2.134   9.527 -1.4017 -1.5490  0.8199
37236SOL    HW215114   4.100   2.276   9.510 -0.6537 -1.7183 -3.1608
37237SOL     OW15115   6.237   8.339   7.284 -0.0199 -0.0750 -0.3471
37237SOL    HW115116   6.318   8.292   7.303 -1.0588 -1.6685  0.2667
37237SOL    HW215117   6.175   8.307   7.350 -0.5323  2.7612  0.5977
37238SOL     OW15118   5.281   6.409   3.712 -0.0338  0.2632 -0.1332
37238SOL    HW115119   5.277   6.371   3.800  3.1190 -0.2728 -0.1431
37238SOL    HW215120   5.312   6.337   3.656 -2.4156  0.4629 -1.8272
37239SOL     OW15121   1.957   2.223   4.588  0.2102  0.0503  0.5599
37239SOL    HW115122   1.904   2.221   4.667 -1.2169  0.2137 -0.3744
37239SOL    HW215123   1.939   2.140   4.544  0.6760  0.1351  0.2024
37240SOL     OW15124   3.003   7.639   0.521  0.0786 -0.0637  0.4036
37240SOL    HW115125   2.931   7.655   0.582  1.9780  0.3885  2.6142
37240SOL    HW215126   3.003   7.545   0.507 -1.1179 -0.0321  0.1268
37241SOL     OW15127   1.817   6.422   4.460 -0.2084 -0.0879  0.4009
37241SOL    HW115128   1.856   6.472   4.388 -0.7028 -0.4442 -0.1161
37241SOL    HW215129   1.843   6.332   4.444  1.2240  0.0773  1.6939
37242SOL     OW15130   5.645   4.471   8.265  0.7833 -0.3553  0.1831
37242SOL    HW115131   5.633   4.419   8.185 -1.6585  3.1690 -1.8877
37242SOL    HW215132   5.561   4.463   8.310  0.8475  0.6615  0.4925
37243SOL     OW15133  10.208   1.519   1.577 -0.2736  0.0527 -0.2323
37243SOL    HW115134  10.212   1.522   1.673  2.6694 -0.0117 -0.2993
37243SOL    HW215135  10.190   1.427   1.557  0.6248 -0.2316  0.2494
37244SOL     OW15136  10.185   7.521   9.719 -0.4260 -0.5281 -0.3746
37244SOL    HW115137  10.102   7.534   9.672  0.2173 -0.4650 -1.5078
37244SOL    HW215138  10.193   7.598   9.775 -0.7775 -0.1822 -0.7939
37245SOL     OW15139   2.136  10.684   0.218  0.0117 -0.3358  0.5647
37245SOL    HW115140   2.046  10.668   0.190  0.2844  2.0446 -1.8412
37245SOL    HW215141   2.179  10.719   0.141  2.2952  1.2581  2.4968
37246SOL     OW15142   1.702   4.070   5.517  1.4214 -0.0027  0.1541
37246SOL    HW115143   1.669   3.980   5.524  0.8520 -0.0806 -2.8437
37246SOL    HW215144   1.628   4.120   5.482  1.6615  1.7135  2.0114
37247SOL     OW15145   7.649   6.130   0.394 -0.1438  0.5196 -0.2073
37247SOL    HW115146   7.735   6.160   0.364  0.4317  0.5676  1.4157
37247SOL    HW215147   7.596   6.209   0.400  0.2237  0.7251  0.4110
37248SOL     OW15148   5.023   6.920   0.714  0.1421 -0.1344 -0.0710
37248SOL    HW115149   5.026   6.897   0.807 -1.7936 -1.3254 -0.2856
37248SOL    HW215150   4.930   6.932   0.695  0.4070 -1.1884 -2.1615
37249SOL     OW15151   8.352   4.298   4.606 -0.0958 -0.0041  0.3135
37249SOL    HW115152   8.306   4.364   4.658 -0.0575  0.4829 -0.2655
37249SOL    HW215153   8.356   4.335   4.518  1.6871  0.1193  0.4162
37250SOL     OW15154   9.297   2.188   4.445  0.2630  0.2437 -0.4730
37250SOL    HW115155   9.257   2.256   4.391  0.0905 -2.0176 -3.2799
37250SOL    HW215156   9.391   2.202   4.434  0.2780  2.0265  1.6002
37251SOL     OW15157   1.998  10.606   4.636  0.2430 -0.2072  0.3356
37251SOL    HW115158   2.034  10.614   4.547 -0.8918  0.1966 -0.1010
37251SOL    HW215159   2.075  10.600   4.692  0.9790 -0.5181 -0.6819
37252SOL     OW15160  10.001   4.775   3.789  0.2674 -0.3537 -0.6732
37252SOL    HW115161   9.979   4.743   3.701 -0.6451 -0.3934 -0.4342
37252SOL    HW215162  10.044   4.859   3.774  0.8734 -0.7471 -1.1980
37253SOL     OW15163   0.930   1.319  10.079 -0.1852  0.3396 -0.3962
37253SOL    HW115164   0.885   1.390  10.033 -1.4080  1.3050  2.1880
37253SOL    HW215165   1.015   1.356  10.103 -0.8820  1.0396  1.0863
37254SOL     OW15166   8.839   9.213   1.996  0.0253 -0.2464 -0.2184
37254SOL    HW115167   8.904   9.164   1.946  0.8844 -0.3315  0.9713
37254SOL    HW215168   8.836   9.169   2.081  0.3392  1.3693  0.6474
37255SOL     OW15169   3.998   6.312   8.086  0.2128  0.2813 -0.0627
37255SOL    HW115170   4.059   6.240   8.102  0.0471 -0.1402 -1.2538
37255SOL    HW215171   3.944   6.281   8.014  0.4917  1.8240 -0.9455
37256SOL     OW15172   4.805   7.575   5.302 -0.2488  0.1577 -0.0067
37256SOL    HW115173   4.840   7.499   5.255 -1.0932 -0.4045  0.2673
37256SOL    HW215174   4.710   7.566   5.296 -0.3591  0.9134  0.4792
37257SOL     OW15175   8.981   5.114   1.256  0.0769 -0.2155 -0.0266
37257SOL    HW115176   8.941   5.087   1.338  1.9511  1.2119  1.4038
37257SOL    HW215177   9.057   5.056   1.246  0.2433  0.0671 -0.4229
37258SOL     OW15178   9.945   7.154   1.520  0.1884  0.1344  0.1269
37258SOL    HW115179   9.927   7.109   1.438  1.6701 -1.4672  0.6476
37258SOL    HW215180   9.888   7.111   1.584 -0.5952  1.0420  0.0480
37259SOL     OW15181   0.839   1.488   3.062  0.6218 -0.0890  0.0053
37259SOL    HW115182   0.796   1.506   2.979  0.4538 -1.0442 -0.1187
37259SOL    HW215183   0.908   1.426   3.041  0.1223 -0.8867  0.6903
37260SOL     OW15184   0.445   4.810   2.363 -0.4482  0.5777 -0.4435
37260SOL    HW115185   0.500   4.786   2.288 -1.5423  2.3399 -1.8245
37260SOL    HW215186   0.507   4.818   2.436  0.8109  0.2319 -1.4502
37261SOL     OW15187   5.658   0.732   2.062 -0.1989 -0.2944 -0.4773
37261SOL    HW115188   5.655   0.641   2.030 -1.7593 -0.4460  0.0557
37261SOL    HW215189   5.679   0.724   2.155  0.0714 -0.0787 -0.5193
37262SOL     OW15190   0.067   2.565   1.948  0.5700  0.3796 -0.3184
37262SOL    HW115191   0.082   2.608   2.032 -0.0165  1.7195 -0.8875
37262SOL    HW215192   0.142   2.590   1.894  1.0469 -0.6419 -0.1387
37263SOL     OW15193   6.088   7.752   9.128  0.0673 -0.5391  0.2481
37263SOL    HW115194   6.051   7.742   9.040  1.4579 -1.8094 -0.2182
37263SOL    HW215195   6.120   7.842   9.131 -1.0437 -0.1170 -0.1094
37264SOL     OW15196   9.483   7.576   7.535  0.7121 -0.0456 -1.1951
37264SOL    HW115197   9.411   7.596   7.476 -0.6036 -1.1390  0.0083
37264SOL    HW215198   9.555   7.633   7.506 -0.5660  0.9221 -2.5107
37265SOL     OW15199   6.402   6.404   1.857 -0.0120 -0.6057 -0.3848
37265SOL    HW115200   6.490   6.371   1.875  0.1103  0.0961  0.3405
37265SOL    HW215201   6.372   6.354   1.781  1.2725 -0.3690 -1.0577
37266SOL     OW15202   2.956   7.117   5.031 -0.4788  0.5821  0.4731
37266SOL    HW115203   3.023   7.167   4.986  0.6954  1.2344  2.9147
37266SOL    HW215204   2.932   7.048   4.969  1.2383  1.3432 -1.0579
37267SOL     OW15205   4.159   2.833   5.929 -0.4775  0.1158  0.1316
37267SOL    HW115206   4.105   2.758   5.904  2.7856 -2.4307  0.4679
37267SOL    HW215207   4.197   2.864   5.846  1.2946 -1.1478  0.4381
37268SOL     OW15208  10.088   8.436   4.778 -0.1018  0.0760 -0.1489
37268SOL    HW115209  10.023   8.380   4.735 -0.2054  1.0598 -1.2850
37268SOL    HW215210  10.103   8.507   4.716  0.5840  0.9161  0.9679
37269SOL     OW15211   5.101   1.890   9.083  0.3246  0.0887 -0.4505
37269SOL    HW115212   5.178   1.942   9.105  0.2958  0.1287 -0.4464
37269SOL    HW215213   5.136   1.805   9.057  0.3269 -0.1576  0.3487
37270SOL     OW15214  10.705   7.649   8.512 -0.6260  0.2431 -0.2043
37270SOL    HW115215  10.686   7.671   8.421 -1.8384  1.2312  0.2966
37270SOL    HW215216  10.713   7.553   8.511 -0.8520  0.2239 -1.3037
37271SOL     OW15217  10.894  10.729   2.146  0.6038 -0.4897  0.2813
37271SOL    HW115218  10.852  10.704   2.063  0.8099  2.7495 -0.8645
37271SOL    HW215219  10.933  10.648   2.178 -0.0709 -1.9605 -2.4440
37272SOL     OW15220   7.256   8.720   4.311 -0.1429 -0.0015 -0.0659
37272SOL    HW115221   7.323   8.704   4.244 -0.4156  1.1974 -0.6401
37272SOL    HW215222   7.301   8.773   4.376 -0.6866  1.3223 -0.7489
37273SOL     OW15223   1.121   1.732   7.029 -0.1674 -0.1990  0.2929
37273SOL    HW115224   1.078   1.656   7.068 -0.0822 -0.1290  0.5234
37273SOL    HW215225   1.053   1.798   7.022 -0.5593 -0.7190 -1.0874
37274SOL     OW15226   3.805   1.142   6.748 -0.5128 -0.2204 -0.0414
37274SOL    HW115227   3.785   1.106   6.834 -1.3493 -1.3591 -0.6926
37274SOL    HW215228   3.900   1.131   6.738 -0.7137 -1.9614 -0.0933
37275SOL     OW15229   5.493   8.478   3.626  0.5719 -0.1030 -0.1113
37275SOL    HW115230   5.506   8.555   3.682  0.5029  1.1154 -1.7266
37275SOL    HW215231   5.531   8.503   3.542  1.2572 -2.1469 -0.4291
37276SOL     OW15232   7.716   5.915   1.425  0.2857 -0.0388 -0.5876
37276SOL    HW115233   7.796   5.866   1.404 -0.2042 -0.8490 -0.6006
37276SOL    HW215234   7.719   5.924   1.520 -0.3958 -1.4785 -0.4125
37277SOL     OW15235   2.651   8.394   9.939  0.6125  0.3570 -0.1764
37277SOL    HW115236   2.718   8.351   9.992  1.8039  1.9483 -0.3566
37277SOL    HW215237   2.682   8.484   9.929 -0.4651  0.5427 -2.1157
37278SOL     OW15238   8.258   8.497  10.813  0.0036 -0.1322 -0.1426
37278SOL    HW115239   8.273   8.437  10.741  0.4309 -0.8436  0.5314
37278SOL    HW215240   8.317   8.466  10.883 -1.6159 -0.4760  1.0939
37279SOL     OW15241   6.766   6.393  10.452  0.1021  0.1403  0.1987
37279SOL    HW115242   6.829   6.464  10.454 -1.3059  1.4336 -0.2835
37279SOL    HW215243   6.685   6.434  10.421 -0.1824 -2.0682 -2.2009
37280SOL     OW15244   5.346   6.530   5.691  0.0447  0.4842 -0.0036
37280SOL    HW115245   5.314   6.444   5.720  0.1200 -0.0801 -1.5688
37280SOL    HW215246   5.273   6.590   5.710 -0.6849 -0.2295 -0.5137
37281SOL     OW15247   6.554   9.134   1.783 -0.5783 -0.5054 -0.1386
37281SOL    HW115248   6.479   9.133   1.723 -0.0796  1.5055 -0.8365
37281SOL    HW215249   6.520   9.177   1.862 -0.1945  0.3629 -0.4377
37282SOL     OW15250   9.677   9.394   5.364  0.1823 -0.4434  0.1530
37282SOL    HW115251   9.744   9.326   5.368  0.5370 -0.3681 -3.0571
37282SOL    HW215252   9.716   9.463   5.309 -1.4620  0.8525  0.5570
37283SOL     OW15253   5.978   6.511   7.156 -0.6011  0.3380  0.9503
37283SOL    HW115254   5.968   6.598   7.117  0.5958  0.4363  0.8301
37283SOL    HW215255   5.901   6.500   7.212 -0.7137  1.5229  1.0412
37284SOL     OW15256   9.670  10.562   1.050 -0.0458 -0.3967 -0.2894
37284SOL    HW115257   9.676  10.611   1.132  1.2086 -2.3649  0.8343
37284SOL    HW215258   9.646  10.473   1.078  0.7033 -1.1580 -2.0276
37285SOL     OW15259   5.197   5.619   0.531  0.0441 -0.0705 -0.1328
37285SOL    HW115260   5.215   5.568   0.610 -0.1899 -0.0244 -0.0486
37285SOL    HW215261   5.213   5.558   0.459  0.0547 -0.1742 -0.0427
37286SOL     OW15262   7.758   1.354   9.846 -0.7129 -0.0663 -0.3784
37286SOL    HW115263   7.776   1.295   9.773 -0.4036  1.1823 -1.3109
37286SOL    HW215264   7.746   1.440   9.806 -2.0323  0.3626  0.8855
37287SOL     OW15265   4.124   4.398   6.097  1.0846 -0.3626 -0.5635
37287SOL    HW115266   4.130   4.351   6.014 -2.2333 -1.4435 -0.2629
37287SOL    HW215267   4.081   4.337   6.156  0.5599  1.5415  1.0705
37288SOL     OW15268   1.376   5.137   7.763 -0.3619 -0.1022 -0.0394
37288SOL    HW115269   1.328   5.173   7.689  3.1250  0.8911 -1.9448
37288SOL    HW215270   1.403   5.214   7.814  1.0105 -0.4555 -0.2058
37289SOL     OW15271   2.785   6.227   6.594  0.5789 -0.2244  0.5831
37289SOL    HW115272   2.837   6.212   6.515 -1.1962 -0.5544 -0.5433
37289SOL    HW215273   2.759   6.140   6.623  1.5796 -0.1389  1.8087
37290SOL     OW15274   0.606   0.340   4.102  0.1143  0.0146 -0.5688
37290SOL    HW115275   0.590   0.263   4.157  0.9368 -1.1831 -1.9415
37290SOL    HW215276   0.533   0.399   4.120 -0.0987 -0.7467  1.1113
37291SOL     OW15277   2.389   3.158   5.569  0.1588 -0.4722 -0.1881
37291SOL    HW115278   2.377   3.068   5.599 -1.0949 -0.5618 -0.9686
37291SOL    HW215279   2.466   3.154   5.513 -0.9403 -1.4037 -1.6587
37292SOL     OW15280   3.372   9.701   0.546 -0.1358  0.2509  0.3478
37292SOL    HW115281   3.293   9.755   0.544 -0.6915 -0.5592  0.4426
37292SOL    HW215282   3.434   9.748   0.490 -0.2013  1.6136  1.3950
37293SOL     OW15283   1.536  10.447   6.101  0.3348 -0.6297  0.4891
37293SOL    HW115284   1.457  10.397   6.123  0.0795 -0.0605  0.8815
37293SOL    HW215285   1.609  10.387   6.121  0.0127 -1.0741  0.3440
37294SOL     OW15286  10.724   1.591   4.980  0.2019 -0.2014  0.4470
37294SOL    HW115287  10.808   1.552   4.953  0.3222 -0.1790  0.7908
37294SOL    HW215288  10.660   1.521   4.966 -0.0130  0.3698 -1.5681
37295SOL     OW15289   1.513   3.056   4.228 -0.0441 -0.5039  0.3893
37295SOL    HW115290   1.490   3.148   4.215 -0.3126 -0.3051  2.1147
37295SOL    HW215291   1.575   3.036   4.158 -0.9613  0.6280 -0.7502
37296SOL     OW15292   3.890   8.052  10.843 -0.7794  0.3121 -0.3349
37296SOL    HW115293   3.838   7.999  10.903  0.0141 -1.9025 -1.5385
37296SOL    HW215294   3.980   8.039  10.873 -0.6342  1.5893 -0.1956
37297SOL     OW15295   2.395   5.810   1.423 -0.2561 -0.3120 -0.0535
37297SOL    HW115296   2.343   5.797   1.502 -0.4803  0.9549  0.0218
37297SOL    HW215297   2.349   5.878   1.375  0.4573 -0.3276 -0.7726
37298SOL     OW15298   1.639   9.237   2.132 -0.6413 -0.3985 -0.5286
37298SOL    HW115299   1.693   9.316   2.123 -0.4209 -0.7256 -2.3004
37298SOL    HW215300   1.587   9.252   2.210 -0.3025  1.3304 -0.6160
37299SOL     OW15301   7.032   9.222   0.309  0.3340 -0.0549  0.0704
37299SOL    HW115302   7.126   9.207   0.307  0.1463 -1.2760 -0.2892
37299SOL    HW215303   7.014   9.274   0.231  0.7060  0.1925  0.1467
37300SOL     OW15304   4.799   7.489   1.868 -0.5670  0.1692  0.0294
37300SOL    HW115305   4.845   7.526   1.793  0.7339 -2.6621 -0.6573
37300SOL    HW215306   4.706   7.499   1.847 -0.2166  0.4559 -1.4364
37301SOL     OW15307   4.862   6.173   9.242 -0.2734 -0.4533 -0.3573
37301SOL    HW115308   4.842   6.105   9.177  0.8111 -1.4755  0.3630
37301SOL    HW215309   4.817   6.145   9.321  2.2642 -1.7041  0.6899
37302SOL     OW15310   1.391   1.614   1.368  0.2434  0.0402  0.0474
37302SOL    HW115311   1.313   1.655   1.406  0.2199 -0.2709  0.3347
37302SOL    HW215312   1.421   1.553   1.435  0.4279 -0.2278 -0.2804
37303SOL     OW15313   2.171   3.742   0.664  0.2224  0.0582 -0.0627
37303SOL    HW115314   2.099   3.791   0.705 -1.8431 -2.5821 -0.3446
37303SOL    HW215315   2.204   3.686   0.734  0.9005  0.0824 -0.3681
37304SOL     OW15316   2.405   9.528   4.397  0.5696 -0.1136 -0.1981
37304SOL    HW115317   2.421   9.581   4.319  0.7882  1.0052  0.5910
37304SOL    HW215318   2.492   9.497   4.423  0.5415 -0.1846 -0.1871
37305SOL     OW15319   6.395   7.972   8.997  0.1172 -0.3114  0.0270
37305SOL    HW115320   6.451   8.045   9.025  0.7385 -0.8773  0.2463
37305SOL    HW215321   6.375   7.925   9.078 -1.0451  0.1424  0.0167
37306SOL     OW15322   1.725   8.728   2.662  0.8645  0.2297  0.7539
37306SOL    HW115323   1.802   8.780   2.685  0.9609  1.0906 -1.4297
37306SOL    HW215324   1.747   8.639   2.689  0.8523  1.1846  4.1903
37307SOL     OW15325  10.539   1.706   0.948  0.3415 -0.6302 -0.3537
37307SOL    HW115326  10.580   1.629   0.908  0.8785  0.1636 -1.3547
37307SOL    HW215327  10.590   1.722   1.027  0.4130 -1.1177 -0.2985
37308SOL     OW15328   5.051   4.340   7.284  0.2340  0.3677  0.0001
37308SOL    HW115329   5.030   4.251   7.257  1.1722  0.6979 -1.9074
37308SOL    HW215330   5.045   4.338   7.379 -1.2463 -1.3400 -0.0941
37309SOL     OW15331   7.861   6.136   5.860 -0.4879 -0.9065  0.0219
37309SOL    HW115332   7.938   6.162   5.911 -1.3111 -0.8216  1.2583
37309SOL    HW215333   7.817   6.218   5.839 -1.4879 -1.0877  1.3478
37310SOL     OW15334   5.014   5.893   8.772  0.5974  0.5218 -0.0345
37310SOL    HW115335   5.001   5.925   8.683  0.0291  0.8951  0.1791
37310SOL    HW215336   5.077   5.822   8.763 -0.5909 -0.4569 -0.9374
37311SOL     OW15337  10.622   8.685  10.170 -0.3043 -0.3386  0.4629
37311SOL    HW115338  10.713   8.682  10.140 -0.2803 -0.0416  0.5032
37311SOL    HW215339  10.621   8.628  10.247 -0.0050  0.1497  0.8376
37312SOL     OW15340  10.962   1.690   5.144  0.5824  0.1382  0.1900
37312SOL    HW115341  10.896   1.729   5.087  0.2930 -2.8160 -1.6522
37312SOL    HW215342  11.029   1.657   5.084  2.2413  0.4440  1.8422
37313SOL     OW15343   4.787  10.114   0.309  0.0049 -0.4834 -0.1842
37313SOL    HW115344   4.716  10.129   0.371  1.9417 -0.1107  1.9989
37313SOL    HW215345   4.760  10.161   0.230 -1.9984 -0.0522  0.7314
37314SOL     OW15346   6.798   8.852  10.499 -0.1959 -0.2571  0.2138
37314SOL    HW115347   6.851   8.926  10.528 -0.7343  0.2565 -0.0959
37314SOL    HW215348   6.748   8.826  10.576  0.2611 -0.5259  0.4164
37315SOL     OW15349   3.848  10.066   0.101  0.5344  0.3462  0.0982
37315SOL    HW115350   3.866   9.973   0.113  0.8074  0.2638 -0.8900
37315SOL    HW215351   3.905  10.092   0.029 -0.2302  1.0657 -0.2552
37316SOL     OW15352   4.774   0.926   0.614 -0.3739  0.3984 -0.3557
37316SOL    HW115353   4.870   0.925   0.612 -0.2490  1.3113  2.5317
37316SOL    HW215354   4.750   0.850   0.667 -1.1753  0.8850 -0.0128
37317SOL     OW15355   7.725   4.795   9.922 -0.5692 -0.3968  0.6285
37317SOL    HW115356   7.731   4.878   9.876 -0.4815  1.2523  3.5008
37317SOL    HW215357   7.638   4.795   9.962 -0.5060 -1.5999  0.8097
37318SOL     OW15358   5.237   5.877   4.908 -0.4377  0.1113  0.5348
37318SOL    HW115359   5.142   5.874   4.919 -0.2398  0.6476  2.7297
37318SOL    HW215360   5.264   5.786   4.907 -1.0956 -0.0737 -1.4008
37319SOL     OW15361   3.011   4.862   4.257 -0.0981 -0.1433  0.2590
37319SOL    HW115362   3.042   4.891   4.342 -0.2406  0.8837 -0.0370
37319SOL    HW215363   2.923   4.828   4.274  0.3751 -1.1505  0.7388
37320SOL     OW15364  10.386   8.616  10.037  0.5007  0.2419 -0.2289
37320SOL    HW115365  10.478   8.639  10.052 -0.2451  2.9390  0.5053
37320SOL    HW215366  10.355   8.681   9.975 -0.1423 -2.5605 -2.9577
37321SOL     OW15367   6.487   6.618   2.071 -0.3927 -0.2312 -0.2461
37321SOL    HW115368   6.465   6.649   2.158  0.4219  0.8496 -0.4159
37321SOL    HW215369   6.453   6.528   2.068 -2.1862  0.4025  0.4781
37322SOL     OW15370   4.861   5.376   0.369  0.0707  0.3562  0.3525
37322SOL    HW115371   4.776   5.346   0.337  0.8001 -2.3047  0.8201
37322SOL    HW215372   4.869   5.335   0.456  1.7067  0.8269  0.4315
37323SOL     OW15373   5.158   7.795   6.763  0.5258 -0.1223 -0.7171
37323SOL    HW115374   5.113   7.755   6.837 -0.5309  0.1336 -1.2067
37323SOL    HW215375   5.144   7.733   6.691  0.7661  0.0653 -0.9268
37324SOL     OW15376   4.497   2.424   2.055 -0.1260  0.0042  0.0260
37324SOL    HW115377   4.464   2.365   1.988 -0.0731 -0.5043  0.4430
37324SOL    HW215378   4.424   2.433   2.116 -0.6121  1.4762 -0.7618
37325SOL     OW15379   9.679   6.288   5.894  0.0180  0.2257  0.2906
37325SOL    HW115380   9.643   6.329   5.973  0.1257  1.3831 -0.2511
37325SOL    HW215381   9.738   6.221   5.927 -0.4023  0.2979  1.1973
37326SOL     OW15382   0.276   5.228   5.419 -0.1848 -0.5741  0.6698
37326SOL    HW115383   0.360   5.184   5.432  0.7859  1.4563  1.5455
37326SOL    HW215384   0.298   5.306   5.367 -1.3728  0.4794  1.7203
37327SOL     OW15385   0.878   1.901   6.723 -0.3845  0.0042 -0.2174
37327SOL    HW115386   0.806   1.838   6.720 -0.7251  0.3174  1.1374
37327SOL    HW215387   0.893   1.916   6.816  0.0030  1.5701 -0.5169
37328SOL     OW15388   7.928  10.666   4.005 -0.0753  0.3422  0.6949
37328SOL    HW115389   7.845  10.714   4.002  0.1645  0.7646  0.6968
37328SOL    HW215390   7.928  10.612   3.927 -0.2090  0.5869  0.5240
37329SOL     OW15391   3.224   7.621   0.329 -0.1972  0.7717  0.2905
37329SOL    HW115392   3.151   7.612   0.390  0.1920 -0.4504  0.5882
37329SOL    HW215393   3.279   7.690   0.368 -0.0124  0.0808  1.2573
37330SOL     OW15394   0.566   3.641   9.783 -0.1772  0.0104 -0.3689
37330SOL    HW115395   0.580   3.730   9.750  2.7764  0.2432  1.3627
37330SOL    HW215396   0.499   3.652   9.852  1.0119  1.1062  0.6453
37331SOL     OW15397   1.418   8.046   8.600  0.2648  0.5400  0.4721
37331SOL    HW115398   1.468   7.995   8.536  0.4741  0.8130  0.4166
37331SOL    HW215399   1.467   8.037   8.681  0.6461  1.1842  0.3095
37332SOL     OW15400   2.943   5.919   8.021  1.1099  0.0973  0.0784
37332SOL    HW115401   3.009   5.858   8.053 -0.2283 -2.6302 -2.1380
37332SOL    HW215402   2.975   5.946   7.935 -0.3034 -0.7650 -0.7422
37333SOL     OW15403   7.349  10.063   5.287 -0.4811  0.1863  0.5295
37333SOL    HW115404   7.319   9.998   5.224 -1.0466  0.6511  0.3034
37333SOL    HW215405   7.354  10.016   5.370 -1.4387 -0.0124  0.4844
37334SOL     OW15406   3.007  10.759   5.242 -0.3203  0.2207 -0.0286
37334SOL    HW115407   3.083  10.810   5.272 -2.0400  1.5582  2.2519
37334SOL    HW215408   3.042  10.672   5.223  2.1924  1.4837 -1.3420
37335SOL     OW15409  10.073   1.104   1.096  0.4763  0.2671 -0.6059
37335SOL    HW115410  10.082   1.016   1.060  1.5228 -0.0007  0.2602
37335SOL    HW215411  10.127   1.159   1.040  0.6157  0.1781 -0.5589
37336SOL     OW15412   9.685   6.130   2.803  0.0146 -0.8797 -0.3599
37336SOL    HW115413   9.759   6.070   2.799 -0.4477 -1.4436 -0.4724
37336SOL    HW215414   9.608   6.075   2.788 -0.4314 -0.3054 -0.2110
37337SOL     OW15415   1.820   1.494   4.714  0.6641 -0.1088 -0.5571
37337SOL    HW115416   1.790   1.445   4.637  1.8161 -1.9952  0.1593
37337SOL    HW215417   1.742   1.504   4.768  0.5515 -1.7480 -0.4053
37338SOL     OW15418   1.264   0.935   9.187 -0.1830  0.7256  0.2209
37338SOL    HW115419   1.172   0.911   9.176 -0.4272  0.7509  2.0716
37338SOL    HW215420   1.311   0.851   9.190 -0.0029  0.7445 -1.8500
37339SOL     OW15421   9.681  10.811  10.493 -0.4797  0.1106 -0.6432
37339SOL    HW115422   9.626  10.733  10.485  0.4171 -0.3480 -2.7241
37339SOL    HW215423   9.655  10.867  10.420  0.9039  0.4399 -0.9017
37340SOL     OW15424   9.327  10.188   9.294  0.5600 -0.2032 -0.2749
37340SOL    HW115425   9.251  10.243   9.280  0.4206 -0.4084 -0.3359
37340SOL    HW215426   9.399  10.249   9.308  0.2994 -0.0129  0.2519
37341SOL     OW15427   7.312   2.230   0.908  0.2997  0.1395 -0.2098
37341SOL    HW115428   7.266   2.314   0.910  0.3736  0.1880 -0.4928
37341SOL    HW215429   7.386   2.242   0.967 -1.3292 -0.6867  2.0485
37342SOL     OW15430   0.929   0.983   0.302  0.0235 -0.2863 -0.0102
37342SOL    HW115431   0.971   1.015   0.382 -0.0376  2.6845 -1.0996
37342SOL    HW215432   0.839   0.964   0.328  0.0230  0.5963  0.6553
37343SOL     OW15433  10.350   7.999   6.255 -0.0264 -0.3002  0.1657
37343SOL    HW115434  10.319   7.913   6.227  1.1737 -0.0644 -2.0024
37343SOL    HW215435  10.382   7.984   6.344 -1.2236 -1.7532  0.3824
37344SOL     OW15436   0.930   4.295   1.744  0.1412 -0.2543  0.0402
37344SOL    HW115437   0.927   4.325   1.835 -2.3157  0.3914 -0.2108
37344SOL    HW215438   0.939   4.200   1.750 -1.9391 -0.4023  0.9893
37345SOL     OW15439   9.495   2.058   0.037  0.0968 -0.2151 -0.1538
37345SOL    HW115440   9.506   1.977   0.088  2.2393  0.0395 -0.1922
37345SOL    HW215441   9.420   2.101   0.078  0.4845 -1.0352  1.4591
37346SOL     OW15442   0.125  10.437   4.240 -0.0931  0.4270 -0.3105
37346SOL    HW115443   0.116  10.352   4.198 -1.6935  0.4295  0.0014
37346SOL    HW215444   0.095  10.423   4.330 -1.5395  1.5945 -0.5880
37347SOL     OW15445   5.600  10.322   9.355  0.0230  0.4356  0.4952
37347SOL    HW115446   5.544  10.365   9.290 -0.7174 -0.1198  0.7659
37347SOL    HW215447   5.540  10.287   9.420  0.7454  0.8054  1.3893
37348SOL     OW15448   0.839   6.509   0.616  0.2385 -0.4691 -0.4741
37348SOL    HW115449   0.775   6.578   0.601 -1.6498 -1.7302  1.4617
37348SOL    HW215450   0.876   6.528   0.702  1.9616 -0.1748 -1.2506
37349SOL     OW15451  10.455   7.313   5.361  0.3475  0.0296 -0.3977
37349SOL    HW115452  10.389   7.324   5.292 -1.7033  2.2741  1.7840
37349SOL    HW215453  10.419   7.362   5.435  3.7348 -0.0996  1.4051
37350SOL     OW15454   3.323   5.618   8.841  0.0325  0.4643  0.1690
37350SOL    HW115455   3.406   5.584   8.875  0.1885  2.6868  2.1309
37350SOL    HW215456   3.261   5.546   8.851  1.2139 -0.4972  0.6726
37351SOL     OW15457   3.809   5.767   3.416  0.4097  0.7678  0.5340
37351SOL    HW115458   3.817   5.758   3.511 -1.4106 -0.8944  0.5755
37351SOL    HW215459   3.740   5.832   3.404 -1.6324 -1.3455  0.4225
37352SOL     OW15460   9.161   7.025   1.599  0.4003 -0.1533 -0.4659
37352SOL    HW115461   9.217   7.095   1.632  0.4757 -0.4341  0.0092
37352SOL    HW215462   9.073   7.063   1.599  0.5280  0.1431 -0.7944
37353SOL     OW15463   5.691   2.580   5.261 -0.5242 -0.0644 -0.4074
37353SOL    HW115464   5.663   2.555   5.173 -2.0121  0.5819 -0.1223
37353SOL    HW215465   5.651   2.665   5.277 -0.2891 -0.1867  0.9156
37354SOL     OW15466   0.264   6.027   8.293  0.0818  0.6183  0.2195
37354SOL    HW115467   0.231   5.939   8.274 -0.2223  0.8551 -0.3749
37354SOL    HW215468   0.328   6.014   8.363 -0.9140  0.0886  1.0473
37355SOL     OW15469   0.009   7.113   4.737  0.1060  0.3952  0.2596
37355SOL    HW115470   0.014   7.029   4.782  0.6736 -0.2034 -0.9092
37355SOL    HW215471  -0.082   7.140   4.748  0.1292  0.0543  1.3845
37356SOL     OW15472   4.375   7.546   9.539 -0.5993 -0.2123  0.1367
37356SOL    HW115473   4.387   7.551   9.444 -1.7200  1.0174  0.0449
37356SOL    HW215474   4.393   7.454   9.560 -0.4710 -0.5332 -1.2808
37357SOL     OW15475   7.864   8.678   2.979 -0.3757  0.5069 -0.1740
37357SOL    HW115476   7.795   8.657   2.916 -1.4145  1.1018  0.7420
37357SOL    HW215477   7.866   8.774   2.980 -0.8690  0.5072  1.2346
37358SOL     OW15478   5.524   1.608   5.638 -0.3090 -0.2578  0.6710
37358SOL    HW115479   5.477   1.626   5.557  1.3666  0.3605 -0.1820
37358SOL    HW215480   5.616   1.608   5.613  0.2435  0.1539  2.6167
37359SOL     OW15481   4.086   5.731   6.344  0.3477  0.0426 -0.5426
37359SOL    HW115482   4.080   5.641   6.373 -2.0289  0.8432  1.6038
37359SOL    HW215483   4.155   5.770   6.398  1.6475 -0.5489 -1.7414
37360SOL     OW15484   7.617   3.086   1.434  0.2033  0.1721  0.4035
37360SOL    HW115485   7.694   3.140   1.415 -0.9648  1.7264 -0.0198
37360SOL    HW215486   7.581   3.123   1.514 -0.6428  0.0389  0.0868
37361SOL     OW15487  10.260   6.927   2.449 -0.2210  0.4904  0.3420
37361SOL    HW115488  10.316   6.992   2.491  0.6125  0.1015 -0.1520
37361SOL    HW215489  10.298   6.915   2.362 -0.8987  0.0000  0.1059
37362SOL     OW15490   9.426   9.279   3.978 -0.4675  1.0428  0.7696
37362SOL    HW115491   9.418   9.282   3.882  0.5597 -2.6307  0.5214
37362SOL    HW215492   9.346   9.236   4.007  0.5926 -0.5990  1.3031
37363SOL     OW15493   6.010   8.573   1.642  0.0847 -0.1092 -0.0846
37363SOL    HW115494   5.950   8.521   1.696  1.7233 -2.8346 -0.8162
37363SOL    HW215495   6.061   8.624   1.705 -0.0386 -1.0621  0.8022
37364SOL     OW15496   7.330   6.273  10.246  0.3125 -0.2224 -0.0530
37364SOL    HW115497   7.251   6.327  10.250 -1.4620 -2.5522 -1.9453
37364SOL    HW215498   7.367   6.292  10.159  0.9797 -0.2951  0.2146
37365SOL     OW15499  10.710   9.753  10.353  0.0142  0.2507  0.2149
37365SOL    HW115500  10.627   9.732  10.309  0.3443  0.3189 -0.4491
37365SOL    HW215501  10.749   9.822  10.299  0.6459  0.0070  0.3561
37366SOL     OW15502  10.591   6.420   4.188 -0.0205 -0.2980 -0.2514
37366SOL    HW115503  10.644   6.486   4.234  0.3073  0.6984 -2.0350
37366SOL    HW215504  10.502   6.436   4.218  0.1469  0.5658 -0.1994
37367SOL     OW15505   9.910   3.673   5.163 -0.2274 -0.1978 -0.3051
37367SOL    HW115506   9.921   3.767   5.148 -2.3388  0.4064  1.6742
37367SOL    HW215507   9.925   3.633   5.077  0.3186  1.9573 -1.2466
37368SOL     OW15508   0.856  10.959   1.625  0.0169  0.4790 -0.2789
37368SOL    HW115509   0.905  10.891   1.671 -1.1703  0.0054  0.2974
37368SOL    HW215510   0.776  10.915   1.595 -0.2846  1.3632 -0.7943
37369SOL     OW15511   7.366   7.348   5.084 -0.0216  0.7091 -0.5060
37369SOL    HW115512   7.450   7.328   5.042 -0.1441 -1.4198  0.2258
37369SOL    HW215513   7.387   7.415   5.149  1.0692  0.3371 -0.4712
37370SOL     OW15514   8.559   4.660   3.523  0.0383 -0.5797 -0.0884
37370SOL    HW115515   8.485   4.685   3.467 -0.6421 -1.3137  0.4618
37370SOL    HW215516   8.576   4.737   3.577  0.2923 -0.0821 -0.8712
37371SOL     OW15517   5.619   5.681   9.742 -0.3998 -0.1264 -0.0583
37371SOL    HW115518   5.554   5.750   9.729 -0.3771 -0.2664 -0.9757
37371SOL    HW215519   5.703   5.728   9.746 -0.3334 -0.1257 -1.1690
37372SOL     OW15520   1.075   7.298   1.914  0.2981 -0.4855  0.6215
37372SOL    HW115521   1.008   7.312   1.981  0.1491 -0.3731  0.4506
37372SOL    HW215522   1.032   7.320   1.831  0.6757  0.0071  0.5519
37373SOL     OW15523   7.352  10.969   7.615  0.3710  0.1575 -0.2126
37373SOL    HW115524   7.407  10.943   7.541 -0.7360 -0.3227 -0.8693
37373SOL    HW215525   7.368  10.900   7.681  1.9954  1.0304  0.3428
37374SOL     OW15526   1.005   6.567   0.846  0.0494 -0.6550 -0.0463
37374SOL    HW115527   1.055   6.543   0.923  0.1940 -0.0023  0.0720
37374SOL    HW215528   0.971   6.655   0.866  0.4764 -0.2886 -0.9092
37375SOL     OW15529   0.479   3.769   3.664  0.3678  0.1545  0.3115
37375SOL    HW115530   0.403   3.712   3.672  1.8760 -2.0924 -0.6379
37375SOL    HW215531   0.533   3.727   3.597  1.0292  3.3447 -1.2236
37376SOL     OW15532   9.099   3.480   4.277  0.3124 -0.7132  0.1234
37376SOL    HW115533   9.048   3.504   4.200 -0.2501  1.0054  0.9985
37376SOL    HW215534   9.052   3.521   4.350  1.1788 -1.7873  1.3106
37377SOL     OW15535   9.921  10.523   4.296  0.7925 -0.3655  0.3285
37377SOL    HW115536   9.906  10.494   4.386 -0.3680 -1.1899 -0.1153
37377SOL    HW215537  10.004  10.484   4.271 -0.3223 -2.6061  0.0441
37378SOL     OW15538   2.958   8.472   9.406  0.2297  0.0736  0.0029
37378SOL    HW115539   2.931   8.534   9.338  0.1608  0.4971  0.4168
37378SOL    HW215540   2.929   8.387   9.374 -1.7059  0.5334  0.4974
37379SOL     OW15541   0.250   0.545   2.598  0.3148  0.3501 -0.0143
37379SOL    HW115542   0.325   0.535   2.656 -0.1705 -2.4633  0.2032
37379SOL    HW215543   0.229   0.638   2.601  1.8455  0.6455  2.3744
37380SOL     OW15544   1.354   2.652   0.825  0.3087  0.5214 -0.8477
37380SOL    HW115545   1.286   2.600   0.782  0.8913 -0.9845 -0.0035
37380SOL    HW215546   1.305   2.719   0.873 -0.5060  0.3042 -1.3507
37381SOL     OW15547   5.159   3.357   6.867 -0.7158 -0.2593 -0.7464
37381SOL    HW115548   5.132   3.435   6.916 -1.0679 -1.4613  1.0524
37381SOL    HW215549   5.221   3.390   6.802 -0.6848  1.4935  0.1181
37382SOL     OW15550   4.500   0.455   4.734  0.8421 -0.1606 -0.0763
37382SOL    HW115551   4.510   0.473   4.641  1.0214 -0.5346 -0.1313
37382SOL    HW215552   4.587   0.431   4.764  0.3022 -2.7985 -0.4284
37383SOL     OW15553   1.709   5.545   5.367 -0.3288  0.2263  0.1561
37383SOL    HW115554   1.734   5.629   5.328  0.4329 -0.1072 -0.0827
37383SOL    HW215555   1.744   5.479   5.306  1.2931 -0.3230  1.6473
37384SOL     OW15556   3.305   5.704   7.235  0.1971  0.0780 -0.7383
37384SOL    HW115557   3.246   5.732   7.164 -0.5849 -2.3713 -1.1132
37384SOL    HW215558   3.369   5.647   7.192 -0.6346 -1.9052  0.5678
37385SOL     OW15559  10.834   5.165   0.958  0.1456 -0.0615  0.0633
37385SOL    HW115560  10.820   5.230   1.027  0.4527  0.2566 -0.1716
37385SOL    HW215561  10.925   5.176   0.932  0.7197 -1.7880  1.2237
37386SOL     OW15562   7.904   2.327   8.596 -0.2419 -0.0511  0.1308
37386SOL    HW115563   7.985   2.296   8.556  0.0074  1.4712 -0.5757
37386SOL    HW215564   7.932   2.372   8.676 -0.4107  0.2238  0.0360
37387SOL     OW15565   3.208   2.700   7.273  0.1985 -0.0846  0.0267
37387SOL    HW115566   3.231   2.619   7.317 -1.0428  0.4745  1.7296
37387SOL    HW215567   3.121   2.722   7.305  0.3010  1.6507 -0.8121
37388SOL     OW15568   4.659   6.964   6.054  0.1572  0.0205 -0.6023
37388SOL    HW115569   4.706   7.013   5.987  0.2838  0.4073 -0.2310
37388SOL    HW215570   4.645   7.027   6.125  0.8997 -0.6538  0.1496
37389SOL     OW15571   7.085   9.810  10.446  0.3506  0.1966  0.0070
37389SOL    HW115572   7.124   9.801  10.533 -0.5863 -4.6028  0.1029
37389SOL    HW215573   7.161   9.813  10.387  0.9630  1.7481  0.8445
37390SOL     OW15574   9.434   3.851   9.025 -0.1627  0.4007 -0.7432
37390SOL    HW115575   9.510   3.853   9.083  1.1095  0.8614 -2.3617
37390SOL    HW215576   9.401   3.941   9.026  0.1532  0.5248 -1.0785
37391SOL     OW15577   6.791  10.706   8.275  0.7155 -0.0421 -0.3534
37391SOL    HW115578   6.796  10.617   8.239 -0.8571 -0.3602  0.1671
37391SOL    HW215579   6.724  10.749   8.223 -0.9969 -0.2554  1.6200
37392SOL     OW15580   6.862   4.950   0.402  0.2734 -0.0921  0.1214
37392SOL    HW115581   6.851   4.862   0.439  1.3288  0.1428  1.0246
37392SOL    HW215582   6.894   5.003   0.475  1.2613  0.6626 -0.8390
37393SOL     OW15583   6.643   1.072  10.050 -0.7152 -0.2822  0.7099
37393SOL    HW115584   6.623   1.165  10.060 -0.0182 -0.0124 -0.3773
37393SOL    HW215585   6.564   1.035  10.008 -1.2117 -0.2966  1.6393
37394SOL     OW15586   3.895   0.356   1.392  0.1229 -0.6986  0.2238
37394SOL    HW115587   3.884   0.360   1.297  1.7303 -1.0742 -0.0025
37394SOL    HW215588   3.968   0.415   1.410  1.5642 -2.6507  0.8989
37395SOL     OW15589   8.046   3.388   9.748 -0.4014 -0.2546  0.4599
37395SOL    HW115590   8.093   3.384   9.665 -0.9498  0.5298  0.0989
37395SOL    HW215591   8.030   3.482   9.762 -1.3457 -0.4629  0.8462
37396SOL     OW15592   6.552   8.220   6.024 -0.1877  0.0544  0.0206
37396SOL    HW115593   6.590   8.305   6.046  0.0267  0.4440 -1.7673
37396SOL    HW215594   6.481   8.209   6.087  1.6474  0.1905  2.1839
37397SOL     OW15595   8.315   9.202   2.059 -0.2925  0.0594  0.1560
37397SOL    HW115596   8.288   9.176   1.971  1.1027 -1.4537  0.1378
37397SOL    HW215597   8.233   9.213   2.107 -1.0188 -2.2888 -0.4699
37398SOL     OW15598   9.357   2.251   0.509 -1.1190 -0.1698  0.4293
37398SOL    HW115599   9.394   2.229   0.594 -1.5261  0.6980  0.8405
37398SOL    HW215600   9.426   2.300   0.464 -0.1927 -2.2680 -0.5063
37399SOL     OW15601  10.594   5.040   2.706 -0.1953  0.0426 -0.4539
37399SOL    HW115602  10.689   5.039   2.699 -0.2228 -1.1390 -0.6648
37399SOL    HW215603  10.562   5.018   2.619 -0.6418 -0.9075 -0.0610
37400SOL     OW15604   8.115   0.568   8.772  0.7932  0.3101  0.3090
37400SOL    HW115605   8.192   0.589   8.825  0.6646  1.2764  0.1318
37400SOL    HW215606   8.073   0.653   8.758 -0.6752 -0.3032  0.9730
37401SOL     OW15607   5.275   7.377   0.740  0.5315 -0.2344 -0.1464
37401SOL    HW115608   5.311   7.369   0.652  0.6808  1.5666 -0.2674
37401SOL    HW215609   5.192   7.329   0.736 -0.0302  0.8100 -1.6136
37402SOL     OW15610   6.428   3.140   5.718 -0.2082  0.5336 -0.1050
37402SOL    HW115611   6.385   3.054   5.712 -1.7787  1.3420 -0.4936
37402SOL    HW215612   6.467   3.153   5.632  0.1619  0.1482  0.0013
37403SOL     OW15613   0.149   1.952   9.400  0.2469 -0.1302  0.1738
37403SOL    HW115614   0.093   2.022   9.433  0.3803  0.0027  0.1173
37403SOL    HW215615   0.108   1.872   9.432 -0.1551 -0.0486 -0.1334
37404SOL     OW15616   3.380   0.791   0.696 -0.0418  0.1751 -0.2381
37404SOL    HW115617   3.314   0.726   0.721  0.2364 -0.5535 -1.3539
37404SOL    HW215618   3.332   0.874   0.692 -0.4958 -0.0294  0.7681
37405SOL     OW15619   6.344   0.818  10.276  0.9550  0.2481 -0.0808
37405SOL    HW115620   6.317   0.886  10.214 -1.4820 -0.9216 -0.3717
37405SOL    HW215621   6.357   0.864  10.358 -0.6616  1.1102 -0.2786
37406SOL     OW15622   0.523   3.578   5.659 -0.4075 -0.4560  0.2665
37406SOL    HW115623   0.554   3.500   5.613 -0.6011 -0.0675 -0.5458
37406SOL    HW215624   0.474   3.544   5.734  0.1095 -1.1009  0.3165
37407SOL     OW15625   6.144   3.753   1.579 -0.2874 -0.5937  0.4345
37407SOL    HW115626   6.173   3.799   1.658  1.8293  0.1311 -0.7109
37407SOL    HW215627   6.148   3.660   1.602 -2.7090 -0.3365  2.1424
37408SOL     OW15628   7.501   4.937   9.675 -0.4748 -0.4193 -0.3124
37408SOL    HW115629   7.582   4.981   9.702 -0.2381 -0.9086 -0.2200
37408SOL    HW215630   7.449   5.006   9.634 -1.3686  0.6563  2.4785
37409SOL     OW15631  10.442   3.500   7.355 -0.2100  0.0507  0.4409
37409SOL    HW115632  10.449   3.511   7.450 -1.8996  2.6116  0.3250
37409SOL    HW215633  10.349   3.484   7.339 -0.3740  2.2633 -0.9784
37410SOL     OW15634   7.636   6.108   2.260 -0.0580  0.6546  0.2295
37410SOL    HW115635   7.584   6.133   2.185 -0.0714 -0.4851 -0.1590
37410SOL    HW215636   7.663   6.018   2.242 -0.9042 -0.0010  2.0489
37411SOL     OW15637   7.486   5.680   3.037 -0.0662  0.2897 -0.0264
37411SOL    HW115638   7.446   5.735   2.969  2.4769 -0.6015 -2.3060
37411SOL    HW215639   7.514   5.742   3.105  1.1456  1.6516 -1.7326
37412SOL     OW15640  10.573   5.053   1.198 -0.2550 -0.6645  0.3730
37412SOL    HW115641  10.667   5.049   1.185 -0.3226 -1.7842  0.1903
37412SOL    HW215642  10.557   4.994   1.271 -0.8156 -0.4438  0.4321
37413SOL     OW15643   7.965   4.917   1.306  0.5527 -0.5883 -0.5646
37413SOL    HW115644   8.015   4.849   1.350  1.8417  0.1893 -0.8169
37413SOL    HW215645   7.949   4.882   1.218  1.1574 -0.6002 -0.6722
37414SOL     OW15646   5.414   7.089   4.173  0.0764 -0.0205  0.1473
37414SOL    HW115647   5.464   7.011   4.153  0.3566 -0.0263  0.8631
37414SOL    HW215648   5.328   7.056   4.200  0.4291 -0.1233  1.1696
37415SOL     OW15649   5.878   9.306   5.491 -0.4057 -0.3055  0.5908
37415SOL    HW115650   5.896   9.290   5.583  0.5296 -3.4854 -0.0834
37415SOL    HW215651   5.805   9.248   5.470  1.3047 -1.8609 -1.3205
37416SOL     OW15652   9.600   5.254   0.210 -0.5714  0.5389 -0.4290
37416SOL    HW115653   9.514   5.232   0.174 -0.6940  0.9158 -0.3680
37416SOL    HW215654   9.615   5.190   0.279 -0.3010 -0.2428 -1.1959
37417SOL     OW15655   6.208   5.668   7.796  0.4413 -0.2113 -0.0509
37417SOL    HW115656   6.251   5.753   7.802 -1.0070  0.4863  0.7959
37417SOL    HW215657   6.174   5.665   7.706 -0.1522  0.4344  0.1472
37418SOL     OW15658   4.960   3.182   4.581 -0.0145 -0.8061  0.3456
37418SOL    HW115659   4.918   3.100   4.555 -0.2955 -0.8415  0.9150
37418SOL    HW215660   5.054   3.161   4.586 -0.0124 -0.9205 -0.1691
37419SOL     OW15661   7.959   6.794   9.978  0.2400  0.5808  0.6826
37419SOL    HW115662   7.997   6.730  10.039 -0.4560  0.1700  0.6900
37419SOL    HW215663   7.974   6.879  10.019  0.4921  0.3631  1.0413
37420SOL     OW15664   1.114   4.747   2.401  0.1258  0.4534  0.4798
37420SOL    HW115665   1.169   4.750   2.479  1.1722  1.4854 -0.2755
37420SOL    HW215666   1.028   4.776   2.430  0.1317 -0.5861  1.5529
37421SOL     OW15667   5.155   9.445   2.528 -0.5789 -0.0390 -0.2850
37421SOL    HW115668   5.121   9.376   2.584  0.3645 -0.2125  0.0769
37421SOL    HW215669   5.096   9.519   2.543 -0.9699 -0.4277  0.1036
37422SOL     OW15670   6.777   0.874   0.868  0.3029  0.9435  0.3633
37422SOL    HW115671   6.700   0.826   0.838  0.9574  1.0994 -1.5718
37422SOL    HW215672   6.748   0.965   0.875 -0.2213  0.6983  1.5669
37423SOL     OW15673   8.213   4.287   0.806  0.2000 -0.2608  0.6441
37423SOL    HW115674   8.191   4.228   0.733 -1.0411 -0.1693  0.9251
37423SOL    HW215675   8.296   4.255   0.839 -0.1425 -1.4596  0.3700
37424SOL     OW15676  10.351   7.156   9.109 -0.0336  0.0343  0.0250
37424SOL    HW115677  10.274   7.170   9.054 -0.5241  0.8956  0.9248
37424SOL    HW215678  10.354   7.062   9.123 -1.0264  0.0205  0.1405
37425SOL     OW15679   3.084   2.057  10.967  0.0483 -0.5443  0.7113
37425SOL    HW115680   3.172   2.070  11.003  0.5713 -0.1974 -0.6711
37425SOL    HW215681   3.046   2.144  10.962  0.1644 -0.5296 -0.0202
37426SOL     OW15682   1.014   1.778   9.471  0.7483  0.6581 -0.0861
37426SOL    HW115683   0.980   1.842   9.409  3.4704  1.6401 -0.6341
37426SOL    HW215684   1.047   1.707   9.416 -1.5189 -0.8985  0.4902
37427SOL     OW15685   1.760   6.157   7.211  0.1517  0.2580 -0.9034
37427SOL    HW115686   1.703   6.130   7.283  1.8880  0.9670  0.7760
37427SOL    HW215687   1.717   6.124   7.133 -0.9344 -1.9642  0.5937
37428SOL     OW15688   2.661   1.761   0.019 -1.0023  0.6183 -0.6359
37428SOL    HW115689   2.586   1.813  -0.012 -0.1338  1.6102 -1.1335
37428SOL    HW215690   2.732   1.825   0.028 -0.5602 -0.0917  1.0727
37429SOL     OW15691   0.636   7.914  10.575 -0.0677  0.3972 -0.1099
37429SOL    HW115692   0.641   8.009  10.567  0.1598  0.2445 -1.9385
37429SOL    HW215693   0.727   7.886  10.581 -0.1644  0.3495  1.2749
37430SOL     OW15694   6.721   7.324   4.234  0.9334 -0.0539 -0.1130
37430SOL    HW115695   6.797   7.272   4.263  1.1491  0.4298  0.1833
37430SOL    HW215696   6.729   7.325   4.138  0.8986 -0.6149 -0.1224
37431SOL     OW15697   9.054   5.852   8.740 -0.4764  0.1484 -0.4046
37431SOL    HW115698   9.141   5.812   8.741 -1.1757 -1.4180  0.4814
37431SOL    HW215699   9.046   5.893   8.826 -0.6877  0.1093 -0.4049
37432SOL     OW15700   8.180   2.460   0.231 -0.4894 -0.1500  0.1395
37432SOL    HW115701   8.255   2.447   0.172  0.2323 -1.1466  1.2415
37432SOL    HW215702   8.112   2.497   0.175  0.7876  0.6935 -0.9112
37433SOL     OW15703   0.595   5.597   3.690 -0.1989  0.2422  0.4219
37433SOL    HW115704   0.510   5.636   3.668 -0.6063 -0.4182  0.8090
37433SOL    HW215705   0.578   5.503   3.692  0.5556  0.1067  0.4594
37434SOL     OW15706   8.236   3.884   3.687 -0.1143 -0.4391 -0.3772
37434SOL    HW115707   8.228   3.792   3.660  0.6649 -0.9823  1.1818
37434SOL    HW215708   8.170   3.929   3.636 -1.3186 -2.0714 -0.3283
37435SOL     OW15709   2.244   3.682   6.492  0.1882  0.2336  0.4512
37435SOL    HW115710   2.234   3.721   6.405 -0.7222  0.5091  0.6687
37435SOL    HW215711   2.167   3.626   6.502  1.0943 -1.0108  0.4579
37436SOL     OW15712   2.023   3.541   8.705 -0.2201 -0.1282  0.6652
37436SOL    HW115713   2.091   3.482   8.739 -0.9904 -1.5571 -0.2256
37436SOL    HW215714   1.956   3.482   8.670 -0.4199  1.2901 -1.4136
37437SOL     OW15715   9.371   2.579   9.577 -0.4096  0.1189 -0.0466
37437SOL    HW115716   9.437   2.647   9.585  0.1285 -0.4854  0.6856
37437SOL    HW215717   9.375   2.551   9.485  1.6280 -1.1990  0.4237
37438SOL     OW15718   6.071   5.582   8.871  0.2833  0.0063  0.4619
37438SOL    HW115719   6.155   5.583   8.826  0.2186 -1.0431  0.3030
37438SOL    HW215720   6.051   5.489   8.882 -0.3141  0.2520  1.5112
37439SOL     OW15721   5.497   0.396   3.997 -0.0995 -0.0007  0.0296
37439SOL    HW115722   5.427   0.342   4.035  0.1698  0.2203  0.8359
37439SOL    HW215723   5.451   0.464   3.948 -0.4425 -0.1618  0.1249
37440SOL     OW15724   3.752   1.190  10.615  0.1760  0.7059  0.0851
37440SOL    HW115725   3.772   1.101  10.585 -0.0932  0.0448  1.8251
37440SOL    HW215726   3.695   1.225  10.547  2.2644  0.4641 -1.8881
37441SOL     OW15727   0.449   5.840   2.452  0.4276 -0.6098 -0.2671
37441SOL    HW115728   0.392   5.822   2.527 -1.5817  0.7375 -1.4312
37441SOL    HW215729   0.438   5.764   2.394 -0.1697 -0.3433 -0.4957
37442SOL     OW15730   6.806   7.405  10.138  0.8458  0.0472 -0.1186
37442SOL    HW115731   6.760   7.322  10.122  0.6050  0.3924 -1.1868
37442SOL    HW215732   6.739   7.472  10.126  0.4770  0.3025  2.9455
37443SOL     OW15733   1.500   6.786   2.471  0.4047 -0.9365 -0.0776
37443SOL    HW115734   1.558   6.826   2.406 -0.7005 -0.9876 -1.1174
37443SOL    HW215735   1.419   6.768   2.422 -1.3277  1.2657  1.8758
37444SOL     OW15736  10.659   4.854   6.840 -0.6405 -0.2234  0.1789
37444SOL    HW115737  10.617   4.905   6.909  0.3175  2.8581 -1.4273
37444SOL    HW215738  10.740   4.822   6.879  0.5352  2.6065  0.1369
37445SOL     OW15739   0.372   7.375   0.196  0.0397 -0.1404 -0.0820
37445SOL    HW115740   0.309   7.371   0.124 -0.0885 -0.1230  0.0281
37445SOL    HW215741   0.414   7.461   0.186  1.2366 -0.8323 -1.1490
37446SOL     OW15742   0.450   1.352   7.078 -0.0686 -0.5029 -0.1165
37446SOL    HW115743   0.378   1.386   7.025  0.0484  0.2498  0.2099
37446SOL    HW215744   0.433   1.384   7.166  0.3375 -0.8350  0.0838
37447SOL     OW15745   7.964   9.373   9.916 -0.3260  0.4202 -0.2460
37447SOL    HW115746   7.979   9.407  10.004  2.2398 -0.0329 -0.4625
37447SOL    HW215747   7.891   9.424   9.883  0.3186  2.3700  1.2159
37448SOL     OW15748   7.089   6.594   3.735 -0.0215  0.1934  0.4201
37448SOL    HW115749   7.077   6.523   3.672 -0.1815  0.0567  0.6013
37448SOL    HW215750   7.032   6.664   3.703  0.4741  0.4070 -0.0045
37449SOL     OW15751   3.657   3.916   2.061  0.0833 -0.2419 -0.3484
37449SOL    HW115752   3.577   3.969   2.055 -0.6045 -1.2612 -0.3028
37449SOL    HW215753   3.693   3.917   1.973 -0.0302  0.1232 -0.3939
37450SOL     OW15754   2.614   8.159   0.919 -0.3942 -0.4560  0.1487
37450SOL    HW115755   2.584   8.241   0.958 -0.5010 -0.8204  0.8327
37450SOL    HW215756   2.535   8.107   0.909 -0.2902 -0.5771 -0.0395
37451SOL     OW15757   8.640   8.516   9.585 -0.3735 -0.1292 -0.0994
37451SOL    HW115758   8.568   8.478   9.636  0.5233 -1.8510 -0.0635
37451SOL    HW215759   8.600   8.537   9.501 -1.4095  0.9120  0.6356
37452SOL     OW15760   9.602   0.203  10.356 -0.0481  0.2354 -0.8702
37452SOL    HW115761   9.561   0.285  10.329 -0.1850  0.1298 -0.9787
37452SOL    HW215762   9.694   0.226  10.368 -0.4751  0.9323  1.2906
37453SOL     OW15763  10.767   1.514   4.671  0.9878 -0.0068 -0.0552
37453SOL    HW115764  10.851   1.559   4.680 -0.6109  2.9347  0.6951
37453SOL    HW215765  10.755   1.468   4.754  2.9715 -2.5469 -1.0973
37454SOL     OW15766   3.108   3.158   1.905  0.4982  0.1843  0.6526
37454SOL    HW115767   3.121   3.097   1.977  0.7098  0.4632  0.8548
37454SOL    HW215768   3.155   3.237   1.932  3.5366 -0.8660 -1.3216
37455SOL     OW15769   9.674   9.810   5.894  0.0660 -0.6282  0.7088
37455SOL    HW115770   9.698   9.728   5.851  0.8826 -0.4313  0.7957
37455SOL    HW215771   9.739   9.821   5.963  0.2484  0.3528  0.3760
37456SOL     OW15772   5.225   8.657  10.650  0.1649  0.0504  0.6708
37456SOL    HW115773   5.310   8.691  10.624  0.0006 -1.4242 -2.0175
37456SOL    HW215774   5.173   8.735  10.671  1.7452  1.0247  1.0649
37457SOL     OW15775   2.828   9.641   0.805 -0.0788 -0.0644 -0.1748
37457SOL    HW115776   2.846   9.636   0.711 -2.3076  0.9185 -0.6834
37457SOL    HW215777   2.739   9.674   0.811 -0.5457 -1.6232  2.2909
37458SOL     OW15778   2.580  10.715   9.675  0.1670  0.3078  0.4769
37458SOL    HW115779   2.593  10.643   9.613  0.4726 -0.5766  1.5381
37458SOL    HW215780   2.501  10.759   9.645  0.3323 -0.0773 -0.5628
37459SOL     OW15781   9.499  10.500   1.554  0.1558  0.3270 -0.3582
37459SOL    HW115782   9.533  10.464   1.635  0.9261  1.8320  0.0005
37459SOL    HW215783   9.489  10.424   1.496  0.0844 -0.6835  0.9495
37460SOL     OW15784   4.380   8.198   4.934  0.4525  0.1982 -0.5848
37460SOL    HW115785   4.307   8.241   4.978  1.0072 -0.6063  1.1548
37460SOL    HW215786   4.376   8.107   4.964  0.8504 -0.3756 -2.2071
37461SOL     OW15787   7.947   4.332   9.246 -0.1997  0.3083  0.0144
37461SOL    HW115788   7.983   4.246   9.222  0.4440  0.4635  0.4212
37461SOL    HW215789   7.995   4.357   9.325  0.6709  1.7406 -0.9610
37462SOL     OW15790   1.647   4.744  10.007 -0.4948  0.3012 -0.1203
37462SOL    HW115791   1.633   4.678   9.939  3.2720 -0.9841  0.2636
37462SOL    HW215792   1.667   4.693  10.086  1.9664  1.8523  0.2910
37463SOL     OW15793   0.582   9.337  10.497  0.1443  0.4558 -0.2018
37463SOL    HW115794   0.654   9.375  10.547  0.5791 -1.3983  0.6223
37463SOL    HW215795   0.503   9.362  10.546  0.5079 -0.5972  0.9537
37464SOL     OW15796   5.652   0.907   2.877 -0.2940  0.2100  0.1311
37464SOL    HW115797   5.627   0.815   2.867 -1.6502  0.5832 -0.0668
37464SOL    HW215798   5.573   0.956   2.851  0.6914  1.4402 -0.6167
37465SOL     OW15799   0.689   2.024   8.215  0.3913  0.1452  0.0794
37465SOL    HW115800   0.699   1.987   8.127 -0.8105  3.1025 -1.3855
37465SOL    HW215801   0.697   1.949   8.274  0.9433 -1.9499 -2.5596
37466SOL     OW15802   9.468   5.227   0.897 -0.5971 -0.3566  0.4367
37466SOL    HW115803   9.378   5.203   0.875 -0.3766 -0.1107 -0.7457
37466SOL    HW215804   9.493   5.164   0.965 -1.5229 -0.6716  0.4985
37467SOL     OW15805   6.284   2.971   2.100 -0.3743  1.0060  0.4017
37467SOL    HW115806   6.189   2.961   2.089 -0.3229  1.2196 -0.2710
37467SOL    HW215807   6.302   2.936   2.187 -0.8879 -0.2501  0.0110
37468SOL     OW15808   8.771   4.257   9.222 -0.3503  0.0962 -0.8779
37468SOL    HW115809   8.683   4.221   9.233  0.0954 -1.1939 -1.4655
37468SOL    HW215810   8.759   4.332   9.164 -1.0181 -0.2357 -1.1708
37469SOL     OW15811   8.263   6.884   7.130  0.4685 -0.1672  0.1582
37469SOL    HW115812   8.180   6.849   7.162  0.7304  0.6220  1.7710
37469SOL    HW215813   8.322   6.809   7.129  0.5815 -0.1429  2.0374
37470SOL     OW15814   3.824   3.701   5.378  0.2776  0.0460 -0.3455
37470SOL    HW115815   3.742   3.651   5.379 -0.0216  0.4778 -1.9294
37470SOL    HW215816   3.803   3.782   5.425 -0.4435  0.4991 -1.4300
37471SOL     OW15817   2.084   4.122   8.870  0.2038  0.0840 -0.5851
37471SOL    HW115818   2.121   4.079   8.947  0.8663  0.8293 -0.4844
37471SOL    HW215819   2.123   4.076   8.795  1.9165  1.3301 -0.4876
37472SOL     OW15820   7.129   0.011   1.561 -0.3874 -0.0948 -0.3280
37472SOL    HW115821   7.117  -0.083   1.570  0.7420 -0.2483 -0.3293
37472SOL    HW215822   7.193   0.020   1.491 -1.2783  0.7192 -1.0478
37473SOL     OW15823   6.598   1.312   8.885  0.3956  0.1831 -0.1689
37473SOL    HW115824   6.562   1.284   8.969  0.9926  0.9127  0.3353
37473SOL    HW215825   6.555   1.395   8.867  1.6088  0.9212  0.3016
37474SOL     OW15826   6.604  10.919   2.125 -0.3295  0.0163 -0.0343
37474SOL    HW115827   6.601  11.009   2.157 -1.8189  0.4859 -1.4363
37474SOL    HW215828   6.572  10.925   2.035  0.7863 -1.7339 -0.5622
37475SOL     OW15829   9.407   8.848   4.172  0.2975  0.4849  0.6452
37475SOL    HW115830   9.409   8.902   4.251  0.5828 -0.2560  1.1526
37475SOL    HW215831   9.314   8.834   4.155  0.2442 -1.1185  2.0871
37476SOL     OW15832   8.570   6.024   6.605 -0.4744  0.1476  0.2024
37476SOL    HW115833   8.553   5.938   6.644 -1.0092  0.4850  0.7167
37476SOL    HW215834   8.520   6.025   6.524 -3.8874  1.5542  2.2290
37477SOL     OW15835   1.958   0.517  10.402 -0.0757 -0.5463  0.3198
37477SOL    HW115836   1.901   0.589  10.377  0.8688 -0.3629 -1.3747
37477SOL    HW215837   1.956   0.457  10.327  1.7489 -0.6411  0.3205
37478SOL     OW15838  10.050   1.571   6.874  0.6831 -0.6431  0.2466
37478SOL    HW115839  10.002   1.640   6.920  0.6051 -0.5150 -0.0300
37478SOL    HW215840   9.983   1.519   6.831  0.7971 -0.4248 -0.1936
37479SOL     OW15841   2.689   9.170   4.096  0.3551 -0.0011  0.0245
37479SOL    HW115842   2.602   9.186   4.132  0.1218 -0.7098 -0.2144
37479SOL    HW215843   2.737   9.129   4.168  0.6381  0.8283  0.3089
37480SOL     OW15844   7.051   1.091   5.595 -0.4615  0.2392 -0.0078
37480SOL    HW115845   7.036   1.145   5.673 -0.4671 -0.8450  0.7686
37480SOL    HW215846   7.127   1.037   5.618 -1.4026 -1.1783 -0.1391
37481SOL     OW15847   3.757   4.363   7.089 -0.0892  0.0858  0.0881
37481SOL    HW115848   3.714   4.400   7.012 -0.1946 -0.1862  0.0174
37481SOL    HW215849   3.846   4.399   7.086 -0.0140 -0.1268 -0.3040
37482SOL     OW15850  10.323   3.954   6.356  0.2008  0.1497 -0.5515
37482SOL    HW115851  10.362   3.993   6.434 -1.0228  1.4735 -0.5878
37482SOL    HW215852  10.282   3.873   6.387  2.2828 -0.8766 -0.3840
37483SOL     OW15853   9.647   9.800   3.688 -0.4850  0.2059  1.2346
37483SOL    HW115854   9.580   9.868   3.678 -1.3354 -0.4614  2.1726
37483SOL    HW215855   9.650   9.756   3.604 -0.7930  0.6403  0.9959
37484SOL     OW15856   2.548   1.900   3.734 -0.2914  0.0044 -0.0397
37484SOL    HW115857   2.458   1.911   3.764 -1.0560  0.5620 -2.4025
37484SOL    HW215858   2.540   1.852   3.651  1.6645 -0.9212  0.2631
37485SOL     OW15859   1.102   2.707   5.552  0.0878 -0.1521  0.3976
37485SOL    HW115860   1.060   2.621   5.558 -1.0199  0.5242  3.0386
37485SOL    HW215861   1.066   2.746   5.472 -0.4957 -1.5679 -0.0479
37486SOL     OW15862   6.174   3.696  10.446 -0.6863 -0.1593 -0.2940
37486SOL    HW115863   6.167   3.656  10.532  0.4875 -1.8584 -0.9565
37486SOL    HW215864   6.263   3.731  10.443 -0.1535 -1.5772 -1.4198
37487SOL     OW15865   7.922   6.303   6.247  0.4879 -0.7547 -0.4416
37487SOL    HW115866   7.962   6.283   6.162  0.4003 -0.2377 -0.6072
37487SOL    HW215867   7.854   6.367   6.226 -0.3270 -1.5123 -0.1395
37488SOL     OW15868   8.665   9.042   0.769  0.1406  0.2874  0.0646
37488SOL    HW115869   8.579   9.000   0.761  0.2044  0.1822 -0.0692
37488SOL    HW215870   8.673   9.062   0.862  0.5182 -0.8716  0.2941
37489SOL     OW15871   0.490   7.822   0.448  0.0048  0.2213  0.5853
37489SOL    HW115872   0.532   7.752   0.497 -2.2526 -1.3258  0.3552
37489SOL    HW215873   0.527   7.903   0.485  2.1647 -1.0388  1.2511
37490SOL     OW15874   7.379   6.076   0.208 -0.1304 -0.2729  0.1168
37490SOL    HW115875   7.464   6.119   0.215 -0.3176  0.5526 -2.1125
37490SOL    HW215876   7.349   6.067   0.298  0.7961  2.5527  0.7644
37491SOL     OW15877   1.490   5.080   4.144  0.3119  0.3642 -0.0825
37491SOL    HW115878   1.576   5.103   4.181 -0.1834  0.2787  1.1417
37491SOL    HW215879   1.502   5.089   4.050  2.0611 -0.9320 -0.0225
37492SOL     OW15880   5.407   2.853   2.233 -0.2212 -0.1152  0.0701
37492SOL    HW115881   5.400   2.935   2.282 -0.8671  0.0453 -0.2723
37492SOL    HW215882   5.316   2.832   2.211 -0.0951 -1.1644  0.5534
37493SOL     OW15883   1.710   0.129   6.888 -0.1899 -0.2936  0.1930
37493SOL    HW115884   1.798   0.114   6.852 -0.8761 -0.8458 -1.2839
37493SOL    HW215885   1.720   0.112   6.982  1.0031 -1.6676 -0.1563
37494SOL     OW15886   3.043  10.308   9.422  0.2105  0.2155 -0.7164
37494SOL    HW115887   2.959  10.353   9.437  0.2233  0.3550 -1.0606
37494SOL    HW215888   3.109  10.370   9.452  0.1953  0.1533 -0.5536
37495SOL     OW15889   6.278   4.857   5.471 -0.0558  0.1831 -0.1716
37495SOL    HW115890   6.193   4.835   5.509 -0.2871  0.0456 -0.7694
37495SOL    HW215891   6.278   4.953   5.467 -0.8765  0.1298 -1.7433
37496SOL     OW15892   1.012   2.314  10.817  0.1789  0.0479  0.6741
37496SOL    HW115893   1.054   2.382  10.765 -0.0168  1.4744  2.3150
37496SOL    HW215894   1.025   2.233  10.767  2.0333  0.9900 -0.4105
37497SOL     OW15895   6.655  10.674   8.653  0.1562 -0.0200 -0.1564
37497SOL    HW115896   6.693  10.590   8.680  1.7282  0.9809  0.7960
37497SOL    HW215897   6.578  10.649   8.601  1.5870 -2.1013 -1.3800
37498SOL     OW15898   4.762   0.814   9.293  0.1687 -0.0744  0.1975
37498SOL    HW115899   4.708   0.815   9.372  2.1530  1.0010  1.5879
37498SOL    HW215900   4.831   0.750   9.311 -0.3569 -1.0920 -1.3658
37499SOL     OW15901   0.012   3.630   3.215  0.1790 -0.8691 -0.2783
37499SOL    HW115902  -0.068   3.670   3.250  1.7435  1.5697  0.5874
37499SOL    HW215903   0.050   3.584   3.289  0.4961 -0.5715 -0.2592
37500SOL     OW15904   9.182  10.171   4.465  0.0471  0.3150 -0.1903
37500SOL    HW115905   9.275  10.152   4.471  0.0037 -0.3433 -1.5323
37500SOL    HW215906   9.163  10.172   4.371 -1.4679 -0.4387  0.0902
37501SOL     OW15907   4.375   2.758   0.717 -0.0011  0.8771 -0.9317
37501SOL    HW115908   4.393   2.751   0.811 -0.8498 -0.1728 -0.8439
37501SOL    HW215909   4.304   2.697   0.701  0.5830  0.5561 -2.3937
37502SOL     OW15910   3.004   9.080  10.010  0.3197  0.5218  0.6143
37502SOL    HW115911   3.017   9.099  10.102 -1.6077  0.6800  0.8520
37502SOL    HW215912   3.091   9.093   9.971  0.9656  1.2218  2.2469
37503SOL     OW15913   6.909   8.561   1.270 -0.2841  0.3557 -0.7327
37503SOL    HW115914   6.813   8.560   1.277 -0.1591  0.7301  1.6944
37503SOL    HW215915   6.934   8.649   1.298  0.8863 -0.5943  1.3136
37504SOL     OW15916   9.610   7.635   7.935 -0.5918 -0.1793 -0.0417
37504SOL    HW115917   9.668   7.640   8.011 -0.7159 -2.1813  0.2179
37504SOL    HW215918   9.596   7.726   7.909  0.1231  0.4861  1.8185
37505SOL     OW15919   7.529   5.987  10.037  0.2816  0.8852  0.3137
37505SOL    HW115920   7.443   5.988   9.996  1.6599 -1.4958 -2.8507
37505SOL    HW215921   7.576   6.059   9.996  1.1085 -0.4557 -1.1910
37506SOL     OW15922   1.627   7.281   9.823 -0.0502  0.3509 -0.0580
37506SOL    HW115923   1.568   7.296   9.749  0.0936  0.9009 -0.0693
37506SOL    HW215924   1.711   7.262   9.782 -0.7477 -2.8997 -0.0721
37507SOL     OW15925   0.162  10.733   8.573  0.1971  0.5880 -0.0940
37507SOL    HW115926   0.109  10.810   8.556  0.1503  0.5547 -0.0959
37507SOL    HW215927   0.106  10.676   8.626  0.0129  0.2894 -0.6088
37508SOL     OW15928   1.517   5.372   7.877 -0.0928 -0.1597 -0.4029
37508SOL    HW115929   1.597   5.380   7.928 -1.2090  2.1008  1.0593
37508SOL    HW215930   1.547   5.366   7.786  1.6992  1.1220  0.0823
37509SOL     OW15931   1.210   4.957  10.683  0.3606 -0.6370  0.6714
37509SOL    HW115932   1.284   5.009  10.654  0.0730  1.1357  2.9767
37509SOL    HW215933   1.145   4.966  10.613  1.6238 -0.7373 -0.5228
37510SOL     OW15934   4.056   7.306   2.453 -0.1391 -0.1384  0.3398
37510SOL    HW115935   4.085   7.394   2.427  0.2352  0.0417  1.3195
37510SOL    HW215936   4.060   7.308   2.549  0.1757 -1.3230  0.3525
37511SOL     OW15937   0.391   7.728   9.143  0.5940  0.3946 -0.2911
37511SOL    HW115938   0.431   7.769   9.067 -1.0271 -0.6254 -1.7470
37511SOL    HW215939   0.317   7.679   9.107  0.0402 -0.4308  1.8988
37512SOL     OW15940   5.864   4.308   1.206  0.0932  0.1503  0.2382
37512SOL    HW115941   5.951   4.348   1.200 -0.3724  1.5062  1.9706
37512SOL    HW215942   5.868   4.233   1.147  2.1230  0.7588 -0.4474
37513SOL     OW15943   0.821  10.364   4.720 -0.1221 -0.3351 -0.0285
37513SOL    HW115944   0.827  10.376   4.625 -0.3607  2.6696  0.2737
37513SOL    HW215945   0.877  10.433   4.756  1.8872 -2.9450  2.0285
37514SOL     OW15946   9.277   5.184   5.590 -0.0524 -0.4096  0.2992
37514SOL    HW115947   9.349   5.135   5.628  0.1237  1.3719  2.4016
37514SOL    HW215948   9.269   5.261   5.647 -1.0967  1.3461 -2.1698
37515SOL     OW15949   9.735   6.434   9.726 -0.4308 -0.1162 -0.4992
37515SOL    HW115950   9.742   6.529   9.726 -2.5760  0.0667 -0.4339
37515SOL    HW215951   9.807   6.404   9.781  0.5359  1.4364 -0.9014
37516SOL     OW15952   5.985   5.084   5.193  0.1842 -0.1190 -0.1417
37516SOL    HW115953   5.971   5.065   5.100  0.5280 -0.6847 -0.0812
37516SOL    HW215954   5.897   5.087   5.230  0.0866 -1.0031 -0.2780
37517SOL     OW15955   9.856   1.664   6.194  0.1407  0.0710  0.8514
37517SOL    HW115956   9.873   1.739   6.137 -2.6950  2.2851  2.7897
37517SOL    HW215957   9.907   1.683   6.273  1.8674 -1.6309  0.1894
37518SOL     OW15958   9.787   6.469   1.179 -0.0345 -0.0969  0.6777
37518SOL    HW115959   9.695   6.496   1.185  0.5727  1.5619  2.8510
37518SOL    HW215960   9.796   6.403   1.247  0.2721 -0.6659  0.0928
37519SOL     OW15961   5.723   3.352   7.868 -0.3126 -0.1635 -0.2739
37519SOL    HW115962   5.684   3.264   7.869 -1.1077  0.1877  1.5645
37519SOL    HW215963   5.657   3.407   7.825  0.0308 -0.3812 -1.0963
37520SOL     OW15964   9.821   2.024   6.153 -0.3762 -0.5924 -0.4691
37520SOL    HW115965   9.740   2.068   6.180 -0.3443 -0.0623 -1.2337
37520SOL    HW215966   9.886   2.053   6.217 -0.4422  0.1836 -0.7548
37521SOL     OW15967   2.004   9.282   8.768  0.3482 -0.3693  0.4134
37521SOL    HW115968   2.059   9.349   8.808  1.1636 -0.2881 -0.7971
37521SOL    HW215969   2.041   9.270   8.680 -1.6469 -0.2107 -0.4864
37522SOL     OW15970   7.552   6.990   6.812  1.0029  0.3759 -0.5349
37522SOL    HW115971   7.596   6.960   6.892  1.3062  0.0955 -0.8020
37522SOL    HW215972   7.544   7.084   6.823 -0.6260  0.1171  0.6583
37523SOL     OW15973  10.355   5.968   3.987 -0.6175  0.2872 -0.1319
37523SOL    HW115974  10.344   5.956   4.081  0.3497  2.3578  0.2886
37523SOL    HW215975  10.268   5.991   3.955 -0.8582  0.0332  0.3418
37524SOL     OW15976   7.394   2.655   7.038 -0.6591 -0.1860 -0.1472
37524SOL    HW115977   7.475   2.706   7.037 -0.6497 -0.1803  0.4986
37524SOL    HW215978   7.386   2.621   6.949  1.7191 -2.7841  0.5696
37525SOL     OW15979   8.716   4.187   6.633  0.1172  0.1451  0.2468
37525SOL    HW115980   8.737   4.120   6.569  0.0713  0.7379 -0.3971
37525SOL    HW215981   8.624   4.171   6.656  0.0024  0.2109 -0.1698
37526SOL     OW15982   4.226   1.780   0.222  0.4609 -0.6400 -0.2210
37526SOL    HW115983   4.258   1.721   0.290  1.1406 -1.3986 -1.1819
37526SOL    HW215984   4.149   1.735   0.185 -0.9473  0.5736  1.2037
37527SOL     OW15985   6.150   9.581   0.910 -0.5938 -0.1632 -0.0190
37527SOL    HW115986   6.138   9.489   0.934 -0.0953 -0.3458 -0.4655
37527SOL    HW215987   6.137   9.584   0.816 -0.5265  0.2072 -0.0186
37528SOL     OW15988   2.457   3.232   7.811  0.0959  0.0405 -0.3480
37528SOL    HW115989   2.433   3.324   7.803  1.0652  0.2389 -1.0616
37528SOL    HW215990   2.535   3.222   7.757 -0.6286 -1.4478 -1.1855
37529SOL     OW15991   7.325   3.096   3.844  0.2660 -0.8159  0.1746
37529SOL    HW115992   7.289   3.028   3.900 -2.3316 -0.9067 -1.5560
37529SOL    HW215993   7.292   3.178   3.881 -0.9523 -0.8374 -0.8653
37530SOL     OW15994   1.252   4.882   5.832  0.1538  0.1457 -0.3147
37530SOL    HW115995   1.246   4.799   5.881 -0.2921  0.7624  0.6898
37530SOL    HW215996   1.325   4.928   5.873  2.5849 -1.1252 -3.0303
37531SOL     OW15997   5.118   2.668   7.533 -0.1442 -0.3299  0.6504
37531SOL    HW115998   5.140   2.731   7.601 -0.6178  1.5926 -0.9464
37531SOL    HW215999   5.149   2.708   7.451 -0.5389 -2.1118 -0.4058
37532SOL     OW16000   7.322   2.651   2.912 -0.2422  0.5812  0.2339
37532SOL    HW116001   7.294   2.633   2.822  0.2813 -1.2064  0.4210
37532SOL    HW216002   7.255   2.610   2.967  0.1736  0.4717  0.6594
37533SOL     OW16003   4.873  10.681   3.417  0.2835 -0.6065 -0.1119
37533SOL    HW116004   4.964  10.652   3.423  0.6432 -0.1299 -2.9555
37533SOL    HW216005   4.824  10.603   3.391  0.4152 -0.0436 -2.0985
37534SOL     OW16006  10.148  10.172   4.109  0.3442 -0.0134 -0.1772
37534SOL    HW116007  10.163  10.124   4.027  1.0247  0.6922 -0.4640
37534SOL    HW216008  10.053  10.174   4.118  0.2042  1.2321 -1.7508
37535SOL     OW16009   8.414   9.600   6.462  0.3302 -1.0238 -0.9646
37535SOL    HW116010   8.429   9.519   6.510 -1.1487 -1.8836 -1.9091
37535SOL    HW216011   8.398   9.573   6.372 -2.9008  0.0545 -0.7871
37536SOL     OW16012   7.848   7.287  10.812  0.3217  0.0107 -0.2382
37536SOL    HW116013   7.921   7.228  10.798 -0.6726 -1.7490  1.8457
37536SOL    HW216014   7.870   7.335  10.892 -0.3836  0.1513 -0.1234
37537SOL     OW16015   4.660   6.604   4.781 -0.1643 -0.4000 -0.5956
37537SOL    HW116016   4.602   6.589   4.706 -0.9832  0.2207 -0.0993
37537SOL    HW216017   4.601   6.634   4.850  1.0846  2.7503 -0.8452
37538SOL     OW16018   1.295   7.689   2.345 -0.2145  0.2437 -0.0287
37538SOL    HW116019   1.213   7.734   2.327  1.0711  1.9998 -1.6821
37538SOL    HW216020   1.340   7.686   2.261  1.0551 -1.4412  0.6844
37539SOL     OW16021   6.148   5.998   1.859  0.0546  0.1980 -0.1916
37539SOL    HW116022   6.067   5.950   1.844 -0.4274  1.1236 -0.5715
37539SOL    HW216023   6.216   5.940   1.825 -0.4539 -0.5023 -0.0392
37540SOL     OW16024   2.290   1.876   7.232 -0.6552  0.9410  0.3919
37540SOL    HW116025   2.374   1.921   7.224 -0.3155  0.1823 -0.3549
37540SOL    HW216026   2.291   1.810   7.162 -2.3201  1.6440 -0.3054
37541SOL     OW16027  10.415   6.105   6.747 -0.3907  0.2833 -0.3813
37541SOL    HW116028  10.359   6.144   6.813  0.1582 -0.1213  0.3255
37541SOL    HW216029  10.442   6.021   6.784 -0.4797 -0.1698 -1.3196
37542SOL     OW16030   0.052   6.794   0.719  0.2544  0.5015 -0.0350
37542SOL    HW116031   0.009   6.829   0.641 -2.2333 -3.0330 -0.3537
37542SOL    HW216032  -0.014   6.799   0.787  1.3170  0.4952  1.0133
37543SOL     OW16033   5.796   4.374   0.000 -0.5061  0.5636  0.2204
37543SOL    HW116034   5.861   4.304  -0.008 -1.4664 -0.4854  1.2436
37543SOL    HW216035   5.826   4.427   0.074 -0.6041  0.3159  0.4377
37544SOL     OW16036   1.629   7.216   2.566  0.6742 -0.2551 -0.4411
37544SOL    HW116037   1.610   7.293   2.512 -0.4641 -1.1270 -1.2919
37544SOL    HW216038   1.698   7.170   2.518  0.4557 -0.4402 -0.5753
37545SOL     OW16039   5.541   1.595   8.100  0.3257 -0.7977  0.0176
37545SOL    HW116040   5.458   1.548   8.095  0.1012 -0.4394  0.3793
37545SOL    HW216041   5.600   1.533   8.144  1.1248 -2.2689 -2.9852
37546SOL     OW16042   2.763   4.827   8.235  0.2572  0.2130 -0.1814
37546SOL    HW116043   2.852   4.805   8.265 -0.7214 -2.0512  1.1887
37546SOL    HW216044   2.707   4.806   8.310 -1.3886  2.2396 -0.8114
37547SOL     OW16045  10.692   9.221   2.947 -0.2704 -0.4973  0.0065
37547SOL    HW116046  10.675   9.279   3.021  0.2434 -0.3133 -0.0165
37547SOL    HW216047  10.667   9.273   2.870  1.8254  0.3436 -0.1304
37548SOL     OW16048   8.172   3.491  10.638  0.2974 -0.2991 -0.0907
37548SOL    HW116049   8.222   3.505  10.557 -0.6729 -0.4684 -0.7280
37548SOL    HW216050   8.090   3.538  10.624 -0.7690 -2.1310 -0.0719
37549SOL     OW16051   1.776  10.507   4.757  0.1195 -0.3585 -0.2843
37549SOL    HW116052   1.846  10.557   4.714  1.1464 -0.4221  1.2976
37549SOL    HW216053   1.801  10.504   4.849 -1.8631 -0.5828  0.2669
37550SOL     OW16054   1.485   1.833   0.016  0.1938 -0.0591 -0.6716
37550SOL    HW116055   1.533   1.781   0.080  0.8641  0.0093 -1.1183
37550SOL    HW216056   1.423   1.884   0.068 -0.5907 -1.4266 -0.2460
37551SOL     OW16057   8.990   0.709   2.302  0.0475 -0.3627  0.2231
37551SOL    HW116058   8.926   0.747   2.363 -0.9538 -1.9042  0.1711
37551SOL    HW216059   8.937   0.664   2.237  1.1751 -0.7401 -0.4442
37552SOL     OW16060   4.269   0.810   4.662  0.3606  0.1071 -0.2432
37552SOL    HW116061   4.251   0.724   4.700  0.4590  0.1164 -0.1745
37552SOL    HW216062   4.191   0.862   4.682 -0.0668 -0.2198 -1.0375
37553SOL     OW16063   0.415   5.019   4.763 -0.1117 -0.3425  0.4906
37553SOL    HW116064   0.392   5.058   4.679  3.8718 -1.0840 -1.0867
37553SOL    HW216065   0.438   5.094   4.819  3.2133 -0.0409 -1.1321
37554SOL     OW16066  10.974   5.152   7.764  0.6361  0.4688  0.0713
37554SOL    HW116067  11.063   5.137   7.796 -0.0115 -2.2027  0.7120
37554SOL    HW216068  10.965   5.092   7.690 -1.3490 -0.9104  1.3862
37555SOL     OW16069   6.761   7.862   4.651  0.3124  0.2340  0.4533
37555SOL    HW116070   6.733   7.916   4.577  1.0298 -0.9559 -0.7123
37555SOL    HW216071   6.728   7.907   4.728 -0.5070  1.4584 -0.6042
37556SOL     OW16072   5.223   4.803   6.509 -0.6230  0.4674  0.3816
37556SOL    HW116073   5.188   4.727   6.555  0.5276 -1.0588 -1.1874
37556SOL    HW216074   5.288   4.840   6.569  0.9738 -1.5867  0.0012
37557SOL     OW16075   1.312   0.852  10.625 -0.2241  0.5847  0.5600
37557SOL    HW116076   1.276   0.873  10.539  3.2790 -0.6662 -1.3036
37557SOL    HW216077   1.345   0.936  10.658  0.3579  0.7042 -0.3025
37558SOL     OW16078   6.127   2.087   6.870 -0.2177  0.5872  0.4084
37558SOL    HW116079   6.158   2.091   6.779 -1.5268  1.9154 -0.0003
37558SOL    HW216080   6.142   2.176   6.903 -0.4829  0.3155  1.2484
37559SOL     OW16081   8.660   9.724   9.200  0.3120  0.3429  0.3503
37559SOL    HW116082   8.667   9.660   9.129  0.5088  1.0755 -0.3082
37559SOL    HW216083   8.721   9.693   9.267  0.6037 -0.0094 -0.0744
37560SOL     OW16084   6.704   4.192   8.748 -0.0200  0.2633  0.2621
37560SOL    HW116085   6.640   4.160   8.811 -0.7488 -1.1605 -1.1701
37560SOL    HW216086   6.651   4.231   8.678  0.6172 -1.4101 -1.1973
37561SOL     OW16087  10.605   6.246   7.131 -0.1868 -0.0883 -0.4368
37561SOL    HW116088  10.583   6.154   7.142  0.7360 -0.1142  1.3157
37561SOL    HW216089  10.567   6.289   7.208  1.1014  0.6811 -0.2210
37562SOL     OW16090   3.543   8.494   0.327 -0.2964  0.3102  0.4297
37562SOL    HW116091   3.572   8.538   0.407 -1.0093 -0.5147  1.1605
37562SOL    HW216092   3.622   8.482   0.275  0.0471  1.5919  0.6428
37563SOL     OW16093   9.170   8.946  10.652  0.1619 -0.3051 -0.3892
37563SOL    HW116094   9.079   8.941  10.683  0.4966 -0.3844  0.6032
37563SOL    HW216095   9.170   8.898  10.569 -0.5706 -0.8221 -0.0909
37564SOL     OW16096   0.731  10.360   3.708 -0.0170 -0.1932 -0.8075
37564SOL    HW116097   0.796  10.292   3.691  1.1684  0.8417 -0.4916
37564SOL    HW216098   0.693  10.336   3.793  0.3054 -0.5322 -0.7588
37565SOL     OW16099   5.838   9.173   0.836 -0.6092  0.0538  0.7072
37565SOL    HW116100   5.810   9.262   0.814 -0.0360  0.0218 -0.1727
37565SOL    HW216101   5.757   9.122   0.836 -0.8553  0.4394  0.5296
37566SOL     OW16102   8.600   8.124   3.561 -0.4860  0.0375  1.3741
37566SOL    HW116103   8.569   8.053   3.505 -2.0981  1.3645  0.5377
37566SOL    HW216104   8.613   8.083   3.646 -2.4164 -1.0793  1.1734
37567SOL     OW16105   1.731   4.316   5.174  0.1678 -0.0567  0.1006
37567SOL    HW116106   1.763   4.390   5.123 -1.4853  0.0729 -0.7704
37567SOL    HW216107   1.763   4.333   5.263 -0.3306  1.7978 -0.0430
37568SOL     OW16108   9.045   7.305   7.023 -0.2198  0.2073 -0.5549
37568SOL    HW116109   9.044   7.329   7.115 -2.3526 -1.4764 -0.1121
37568SOL    HW216110   8.995   7.375   6.979 -2.3551 -0.8731  0.0883
37569SOL     OW16111   4.958   3.259   2.973  0.2331 -0.0089  0.0987
37569SOL    HW116112   4.932   3.212   3.052  0.3339  0.5375  0.4582
37569SOL    HW216113   5.044   3.224   2.951 -0.0851 -0.6362 -0.1492
37570SOL     OW16114   4.517   5.441   5.784 -0.1050 -0.1880 -0.4234
37570SOL    HW116115   4.456   5.485   5.843  0.2614  0.7621 -0.7544
37570SOL    HW216116   4.470   5.362   5.757 -0.6149 -0.1950  0.4589
37571SOL     OW16117   6.500   6.698   6.930  0.5010 -0.2148 -0.0697
37571SOL    HW116118   6.480   6.631   6.865  0.4462  0.6306 -0.9488
37571SOL    HW216119   6.594   6.691   6.943  0.4916 -0.4823 -0.1510
37572SOL     OW16120  10.794   7.179   1.341 -0.3127 -0.3749 -0.4057
37572SOL    HW116121  10.763   7.230   1.266  0.2823  0.6560  0.0381
37572SOL    HW216122  10.715   7.140   1.378 -0.7679  0.2125 -0.7637
37573SOL     OW16123   7.138   0.335   2.914 -0.4856  0.4403 -1.0075
37573SOL    HW116124   7.169   0.421   2.885 -1.6931  0.8706 -1.0733
37573SOL    HW216125   7.051   0.326   2.874 -0.8174 -0.3539 -0.1388
37574SOL     OW16126   0.243  10.030  10.039 -0.0704  0.5445  0.4139
37574SOL    HW116127   0.215   9.970  10.109 -1.3206  0.8511  0.1923
37574SOL    HW216128   0.180  10.015   9.968  0.3344  1.2575 -0.1046
37575SOL     OW16129   7.292   0.545   4.485 -0.4489  0.2725  0.1426
37575SOL    HW116130   7.254   0.487   4.418  0.7483  1.0165 -1.2125
37575SOL    HW216131   7.352   0.489   4.534  0.1664  0.1830 -0.7026
37576SOL     OW16132   0.914   0.593  10.125  0.1877 -0.4667 -0.2017
37576SOL    HW116133   0.860   0.597  10.203  0.9765  0.6678  0.3048
37576SOL    HW216134   0.854   0.567  10.055 -1.1258  1.2465  0.2556
37577SOL     OW16135   7.803   5.163   9.451  0.3904 -0.3043  0.4967
37577SOL    HW116136   7.726   5.109   9.433  1.5320 -1.9452  0.4259
37577SOL    HW216137   7.870   5.131   9.391  1.1663  1.0503  0.6116
37578SOL     OW16138   1.967   7.808   1.172 -0.0718  0.4671 -0.5164
37578SOL    HW116139   2.041   7.868   1.163  0.4848  0.0237  0.9012
37578SOL    HW216140   1.916   7.820   1.093  1.2956  1.1104 -1.3169
37579SOL     OW16141   6.187   1.978   0.637  0.1791 -0.5035 -0.3111
37579SOL    HW116142   6.093   1.962   0.644 -0.1004  0.9636 -0.4912
37579SOL    HW216143   6.195   2.053   0.578  1.5914 -2.0177 -2.1169
37580SOL     OW16144   2.053   8.086   8.270 -0.3256  1.0018  0.3783
37580SOL    HW116145   2.114   8.108   8.340  0.1234  0.9225  0.0160
37580SOL    HW216146   2.005   8.010   8.302  0.1595  0.7148  0.4359
37581SOL     OW16147   6.756   3.645   9.331 -0.2596 -0.3101  0.2071
37581SOL    HW116148   6.756   3.674   9.240 -1.6391 -0.5515  0.1212
37581SOL    HW216149   6.848   3.625   9.349  0.2149  0.9262 -0.7376
37582SOL     OW16150   2.653   3.384   0.055 -0.1134 -0.4388  0.1389
37582SOL    HW116151   2.646   3.297   0.095  0.5971 -1.3237 -1.5852
37582SOL    HW216152   2.730   3.378  -0.001 -0.5160  1.0637 -0.6059
37583SOL     OW16153   3.321   0.631   0.088 -0.0872  0.1321 -0.3191
37583SOL    HW116154   3.369   0.693   0.034 -1.1255  1.1932 -0.0517
37583SOL    HW216155   3.388   0.570   0.121  1.2031  2.1483  0.8478
37584SOL     OW16156   4.685   1.682  10.092  0.7530 -0.4879  0.0112
37584SOL    HW116157   4.744   1.749  10.056  2.8549 -0.9481  2.4933
37584SOL    HW216158   4.650   1.722  10.171 -3.7286  0.4613 -2.3061
37585SOL     OW16159  10.776   3.134   6.943 -0.6061 -0.6065 -0.5641
37585SOL    HW116160  10.855   3.113   6.894 -0.3001 -0.1972 -0.2561
37585SOL    HW216161  10.737   3.208   6.895 -1.6532 -1.8246 -1.6219
37586SOL     OW16162   2.901   0.974   0.006  0.0792 -0.3743  0.0546
37586SOL    HW116163   2.846   1.051  -0.008  1.1480  0.1583 -1.4432
37586SOL    HW216164   2.965   1.001   0.071  1.4312  0.5649 -1.6139
37587SOL     OW16165   9.401   7.297   4.223  0.0882  0.0085  0.0171
37587SOL    HW116166   9.390   7.360   4.152 -0.5796  0.0857  0.1846
37587SOL    HW216167   9.463   7.339   4.283 -0.4536  0.5742  0.1928
37588SOL     OW16168   0.142   2.194   0.850 -0.0614 -0.4281 -0.9787
37588SOL    HW116169   0.082   2.174   0.922 -0.9527  0.7790 -1.3782
37588SOL    HW216170   0.175   2.282   0.870 -0.7974  0.1729 -2.3577
37589SOL     OW16171   7.032   7.655   5.925  0.2293 -0.8339 -0.2348
37589SOL    HW116172   7.037   7.654   6.021 -1.1661 -1.5252 -0.1518
37589SOL    HW216173   6.950   7.699   5.905  0.6433 -0.4470 -1.1339
37590SOL     OW16174  10.647   9.815   3.246  0.4546 -0.6400  0.0731
37590SOL    HW116175  10.574   9.797   3.188 -0.2695 -2.0157  1.3869
37590SOL    HW216176  10.711   9.746   3.227  1.1185  0.1409 -0.5706
37591SOL     OW16177   9.327   0.957   1.869 -0.2961  0.1379  0.8585
37591SOL    HW116178   9.288   0.870   1.862  0.6518 -0.1985 -0.6227
37591SOL    HW216179   9.397   0.947   1.933 -0.6584 -0.0145  1.2305
37592SOL     OW16180   2.077   5.193   9.999 -0.0171 -0.2099 -0.2991
37592SOL    HW116181   2.011   5.173   9.933  0.7419  0.7435 -1.3665
37592SOL    HW216182   2.028   5.200  10.081 -0.9486 -1.5307 -0.7363
37593SOL     OW16183   0.123   7.405   3.255 -0.4427  0.2173  0.0079
37593SOL    HW116184   0.067   7.426   3.180 -0.4367  1.8015  0.4293
37593SOL    HW216185   0.066   7.417   3.332  0.4743  1.8671  0.4418
37594SOL     OW16186  10.038   8.066   3.816 -0.5523  0.3596  0.1176
37594SOL    HW116187  10.023   8.116   3.736  0.1839  0.8589  0.2890
37594SOL    HW216188  10.045   7.975   3.787 -2.7114  0.2441 -0.0985
37595SOL     OW16189   8.223   8.391   2.371 -0.1283 -0.0551  0.1293
37595SOL    HW116190   8.210   8.389   2.466 -1.2071 -1.0387 -0.0409
37595SOL    HW216191   8.176   8.315   2.338 -1.5442  1.4514 -1.4239
37596SOL     OW16192  10.687   3.862   0.677  0.1295 -0.0183 -0.2032
37596SOL    HW116193  10.669   3.807   0.753 -0.0528  1.9317  1.2162
37596SOL    HW216194  10.779   3.847   0.657 -0.2204 -1.7136 -0.5726
37597SOL     OW16195   6.727   6.758   2.741  0.2754 -0.0674  0.2751
37597SOL    HW116196   6.744   6.839   2.694  0.0580 -1.2830 -1.9608
37597SOL    HW216197   6.656   6.780   2.801 -1.6394  0.7562 -2.2019
37598SOL     OW16198   3.147   3.015   9.556 -0.1128  0.3133 -0.5625
37598SOL    HW116199   3.187   3.096   9.588 -0.3964  0.8983 -1.6817
37598SOL    HW216200   3.203   2.946   9.590 -0.5433  0.9053  1.4101
37599SOL     OW16201   9.044   1.669   3.543 -0.1129  0.4463  0.5821
37599SOL    HW116202   8.987   1.683   3.467  0.2573 -1.2177 -0.0228
37599SOL    HW216203   9.131   1.694   3.513 -0.1350  0.7505  0.7723
37600SOL     OW16204   7.570   0.167  10.650 -1.0305 -0.7348  0.1026
37600SOL    HW116205   7.620   0.181  10.730  0.9597  0.7203 -1.3647
37600SOL    HW216206   7.489   0.217  10.663  0.4886  1.7688  0.0946
37601SOL     OW16207   1.819   5.352   0.462 -0.2262 -0.8020  0.7665
37601SOL    HW116208   1.780   5.409   0.528  0.9103  1.1686 -0.2088
37601SOL    HW216209   1.744   5.312   0.418 -1.1409  1.4793  0.1528
37602SOL     OW16210   4.793   2.734   4.185 -0.5100 -0.1222  0.4104
37602SOL    HW116211   4.738   2.736   4.264 -1.2028 -0.3348 -0.0552
37602SOL    HW216212   4.882   2.726   4.218 -0.4222  3.5910  1.2828
37603SOL     OW16213   1.904   4.392   6.445 -0.5687  0.3823 -0.1293
37603SOL    HW116214   1.835   4.342   6.489 -0.5945  0.5402  0.0098
37603SOL    HW216215   1.895   4.367   6.352  1.1857 -1.9798  0.2984
37604SOL     OW16216   1.071   9.764   3.346 -0.2838  0.3282 -0.4496
37604SOL    HW116217   1.012   9.689   3.350 -1.1811  1.0719  0.9126
37604SOL    HW216218   1.072   9.798   3.435  1.2092  1.1115 -0.7447
37605SOL     OW16219  10.747   2.928   4.670  0.8557 -0.5539  0.1305
37605SOL    HW116220  10.792   3.013   4.676 -0.2038  0.2839 -2.9830
37605SOL    HW216221  10.789   2.885   4.596 -2.2580 -0.4784 -1.7344
37606SOL     OW16222   3.400  10.745   2.196  0.2364 -0.1085 -0.0096
37606SOL    HW116223   3.439  10.832   2.200 -1.6367  0.7845 -0.5126
37606SOL    HW216224   3.398  10.723   2.102 -2.3550  0.7884 -0.2196
37607SOL     OW16225   3.447  10.708   9.489  0.7309  0.1285 -1.1974
37607SOL    HW116226   3.421  10.779   9.548  0.0130 -0.5039 -0.7363
37607SOL    HW216227   3.499  10.750   9.421  1.3912  0.9047 -0.2267
37608SOL     OW16228   1.417   2.294   2.675  0.2184  0.6631  0.1207
37608SOL    HW116229   1.424   2.211   2.720 -2.2159  0.4409  0.1624
37608SOL    HW216230   1.506   2.316   2.649  1.0335 -1.3287  1.2123
37609SOL     OW16231   5.245   9.593   8.238  0.3759  0.3451 -0.1963
37609SOL    HW116232   5.324   9.542   8.256  0.0587 -0.0132  0.1891
37609SOL    HW216233   5.174   9.529   8.240 -0.0436  0.8232  0.4239
37610SOL     OW16234   6.013   6.128   7.522 -0.3137 -0.7598 -0.5554
37610SOL    HW116235   6.077   6.186   7.481 -3.0082  2.2111 -0.7861
37610SOL    HW216236   6.036   6.129   7.615  1.6917 -2.1165 -0.9850
37611SOL     OW16237   8.253  10.834   8.649 -0.4480  0.2714 -0.6068
37611SOL    HW116238   8.244  10.860   8.558  1.4332  0.1302 -0.8545
37611SOL    HW216239   8.178  10.874   8.694 -2.6676 -1.5177 -2.5877
37612SOL     OW16240   7.730   7.636   0.217  0.1483  0.3716  0.2939
37612SOL    HW116241   7.705   7.549   0.184 -0.7853  0.6403  0.2976
37612SOL    HW216242   7.681   7.697   0.163  2.8036  1.0159 -1.4919
37613SOL     OW16243   7.320  10.768   6.737 -0.4467  0.0046 -0.5202
37613SOL    HW116244   7.382  10.775   6.665  0.2162  1.6015  0.1817
37613SOL    HW216245   7.304  10.674   6.746  0.7482 -0.3194 -1.6432
37614SOL     OW16246   7.108   9.728   4.673 -0.3567 -0.3103  0.6726
37614SOL    HW116247   7.154   9.683   4.743  1.4901  0.4904  0.0083
37614SOL    HW216248   7.058   9.797   4.717  0.8334  0.2222  1.2066
37615SOL     OW16249   1.722   9.194   0.024  0.3632 -0.2032 -0.8810
37615SOL    HW116250   1.706   9.260   0.092  1.0830 -0.9184 -0.0130
37615SOL    HW216251   1.636   9.180  -0.016 -0.4590 -1.2339  1.2031
37616SOL     OW16252   5.438   3.996   9.229  0.1784  0.3864 -0.3261
37616SOL    HW116253   5.470   3.922   9.179 -0.5643  1.0641 -1.8437
37616SOL    HW216254   5.514   4.052   9.241  0.2515  0.4870 -1.2053
37617SOL     OW16255   7.311  10.359   1.882  0.1897 -0.1729 -0.0453
37617SOL    HW116256   7.294  10.265   1.881 -0.8758 -0.0326  1.8650
37617SOL    HW216257   7.227  10.398   1.855  0.8095  0.2238 -1.4416
37618SOL     OW16258   0.165   6.531   4.244  0.5692 -0.5644  0.4231
37618SOL    HW116259   0.243   6.516   4.297  0.5641 -0.9761  0.3169
37618SOL    HW216260   0.199   6.544   4.155  0.4657 -1.5659  0.2297
37619SOL     OW16261   3.731   1.557   9.030 -0.3619 -0.0592  0.3167
37619SOL    HW116262   3.663   1.489   9.025 -1.1314  0.7665 -0.7437
37619SOL    HW216263   3.760   1.568   8.939  0.3507  0.4333  0.6081
37620SOL     OW16264   8.648   5.495   2.056  0.1060 -0.2562 -0.3430
37620SOL    HW116265   8.630   5.534   1.970 -2.3830 -1.1317 -0.2505
37620SOL    HW216266   8.693   5.413   2.036  2.1777  0.9126 -0.6647
37621SOL     OW16267   7.993   9.783   7.755 -0.5542  0.0601  0.0300
37621SOL    HW116268   7.909   9.804   7.796 -0.9180 -0.2176 -0.5761
37621SOL    HW216269   7.971   9.727   7.681  0.1588  0.0618 -0.1888
37622SOL     OW16270   3.193   4.100   0.828 -0.1052 -0.3294 -0.5217
37622SOL    HW116271   3.128   4.131   0.891 -0.8936 -0.5628 -1.2025
37622SOL    HW216272   3.153   4.117   0.743 -0.9024 -3.8082 -0.9197
37623SOL     OW16273   2.748   7.995   0.720  0.2306 -0.6272 -0.2510
37623SOL    HW116274   2.716   8.055   0.787 -0.5516 -0.5402 -0.6948
37623SOL    HW216275   2.714   8.031   0.638 -1.4158 -2.4310 -0.3971
37624SOL     OW16276  10.328   2.825   7.070  0.3980  0.0547 -0.6862
37624SOL    HW116277  10.321   2.920   7.077  1.2829  0.0160  1.1057
37624SOL    HW216278  10.278   2.792   7.145 -1.1992 -0.9610 -2.1701
37625SOL     OW16279   9.254   8.475   6.703  0.2630 -0.0126 -0.0278
37625SOL    HW116280   9.263   8.560   6.660  3.7337 -0.4445 -0.3451
37625SOL    HW216281   9.245   8.413   6.631 -1.1874 -0.0245  0.1616
37626SOL     OW16282   7.918  10.414   6.322  0.1831 -0.1447 -0.0195
37626SOL    HW116283   7.978  10.397   6.249 -1.4244  1.4370 -1.7577
37626SOL    HW216284   7.836  10.371   6.296 -0.2233 -0.0712  1.1331
37627SOL     OW16285   6.260   3.072  10.462  0.2811  0.8679  0.0644
37627SOL    HW116286   6.347   3.051  10.427  0.7606  0.6999  1.3280
37627SOL    HW216287   6.276   3.093  10.554 -1.0617  0.4996  0.3892
37628SOL     OW16288   0.333   9.788   8.741  0.5013 -0.1640  0.3043
37628SOL    HW116289   0.244   9.787   8.778  0.1788 -0.6637 -0.4553
37628SOL    HW216290   0.339   9.873   8.697 -0.0323 -0.6120 -0.6466
37629SOL     OW16291   4.201   4.877   4.191  0.3562 -0.5276  0.3134
37629SOL    HW116292   4.282   4.830   4.168  0.4166 -0.4636  0.3956
37629SOL    HW216293   4.156   4.888   4.108  1.6022  1.6460 -0.1137
37630SOL     OW16294   1.030   0.481   5.984  0.1243 -0.0263  0.2860
37630SOL    HW116295   0.949   0.484   6.036  0.8502 -1.2987  1.5099
37630SOL    HW216296   1.099   0.464   6.048  1.2801  0.3190 -0.8507
37631SOL     OW16297   1.021   1.531   0.127  0.2740 -0.4627 -0.1592
37631SOL    HW116298   1.053   1.508   0.040 -1.0442 -1.1970 -0.4618
37631SOL    HW216299   1.048   1.458   0.183  2.1599  0.5696  0.3019
37632SOL     OW16300   8.002  10.372   7.219  0.4186 -0.0620  0.0041
37632SOL    HW116301   8.065  10.307   7.251 -0.1150  0.0944  1.4463
37632SOL    HW216302   8.048  10.456   7.228  0.3676 -0.0443  0.0881
37633SOL     OW16303  10.519   6.571  10.134 -0.7377 -0.3675  0.4371
37633SOL    HW116304  10.463   6.498  10.107 -0.1976 -0.4525 -0.4805
37633SOL    HW216305  10.459   6.632  10.178 -1.8716  0.2437 -1.8506
37634SOL     OW16306   7.782   8.091   4.801  0.4550  0.0165  0.1064
37634SOL    HW116307   7.853   8.084   4.864  0.9400 -0.7995 -0.5157
37634SOL    HW216308   7.773   8.002   4.765 -1.1830  0.0073  0.5049
37635SOL     OW16309   0.832   6.131   0.345  1.0509  0.1785 -0.4177
37635SOL    HW116310   0.813   6.134   0.439  1.3418 -0.4804 -0.3340
37635SOL    HW216311   0.926   6.117   0.340  0.8975 -0.7646 -0.7955
37636SOL     OW16312   2.237   1.716   8.132  0.1889  0.3254  0.6127
37636SOL    HW116313   2.211   1.642   8.076 -0.3061 -0.2553  1.6100
37636SOL    HW216314   2.208   1.793   8.084 -3.0553 -0.2927  1.5000
37637SOL     OW16315   7.878   4.951   0.361 -0.6023 -0.3380 -0.4751
37637SOL    HW116316   7.862   4.881   0.425  3.3863 -0.8949  0.0797
37637SOL    HW216317   7.845   5.030   0.403 -0.4056 -1.1013  1.1824
37638SOL     OW16318   4.133   7.386   1.257 -0.3719  0.3529 -0.5734
37638SOL    HW116319   4.102   7.426   1.338  2.3125 -1.2592  1.3362
37638SOL    HW216320   4.119   7.292   1.269  0.3929  0.0601 -1.7973
37639SOL     OW16321   5.546   2.807   5.213  0.4111  0.2992  0.1001
37639SOL    HW116322   5.551   2.879   5.150  1.2875 -0.6050 -0.8932
37639SOL    HW216323   5.506   2.846   5.291 -2.8059  0.9044 -1.7638
37640SOL     OW16324   0.673   2.023   2.004  0.2517 -0.2031 -0.4155
37640SOL    HW116325   0.742   2.087   2.017  1.8150 -1.7574 -0.8313
37640SOL    HW216326   0.616   2.033   2.080  1.2397  0.7345  0.2044
37641SOL     OW16327   1.863   6.382  10.485  0.2256 -0.2614  0.4902
37641SOL    HW116328   1.810   6.458  10.508 -0.9645 -0.6831 -0.7858
37641SOL    HW216329   1.935   6.418  10.432  0.0646  0.0677  0.4938
37642SOL     OW16330   3.597   7.459   3.786 -0.0531  0.0516  0.2130
37642SOL    HW116331   3.516   7.473   3.738  0.1623 -0.5964 -0.3494
37642SOL    HW216332   3.630   7.375   3.754 -0.9791 -1.4286  3.0086
37643SOL     OW16333   6.402   2.481   6.767 -0.1773  0.2455  0.0402
37643SOL    HW116334   6.322   2.459   6.719 -0.3500 -0.2186  0.5328
37643SOL    HW216335   6.463   2.410   6.747  0.4459  1.1041 -1.1092
37644SOL     OW16336   5.487  10.870   4.801  0.2911 -0.2735 -0.1045
37644SOL    HW116337   5.428  10.851   4.728  0.2458 -1.3477  0.2051
37644SOL    HW216338   5.478  10.965   4.814  1.1267  0.1116 -2.1802
37645SOL     OW16339   3.475   0.470   2.836 -1.0222  0.1236 -0.2013
37645SOL    HW116340   3.505   0.408   2.903  1.0055  1.3431  0.0682
37645SOL    HW216341   3.555   0.508   2.801 -2.2082  2.4164 -0.5441
37646SOL     OW16342   4.880   6.028   7.025  0.4312 -0.3613  0.3462
37646SOL    HW116343   4.814   5.986   7.079  0.7084 -1.5791 -0.2381
37646SOL    HW216344   4.933   5.955   6.991  0.6786  0.4255 -1.0005
37647SOL     OW16345   5.689   5.606   8.007  0.9926 -0.0376  0.0159
37647SOL    HW116346   5.754   5.556   7.957  0.9762 -1.8605  1.7947
37647SOL    HW216347   5.741   5.671   8.055  1.1319  0.8215 -1.2532
37648SOL     OW16348   6.127   9.775  10.892 -0.0952 -0.2367  0.5711
37648SOL    HW116349   6.066   9.705  10.911 -0.3811 -0.1009  0.1464
37648SOL    HW216350   6.080   9.856  10.914 -1.5705  0.1430 -3.5340
37649SOL     OW16351   8.366   0.310   0.821  0.7186  0.2158 -0.9966
37649SOL    HW116352   8.444   0.363   0.835  0.0697  0.8670  0.2139
37649SOL    HW216353   8.367   0.246   0.892 -0.9642  1.5770  0.2858
37650SOL     OW16354   2.453   9.472   0.585  0.0380 -0.5743  0.1920
37650SOL    HW116355   2.430   9.379   0.586  0.5534 -0.7019  0.1439
37650SOL    HW216356   2.479   9.490   0.495  2.6284 -1.0461  0.8026
37651SOL     OW16357   3.848   4.548   5.158  0.3982  0.2141  0.0214
37651SOL    HW116358   3.768   4.595   5.134 -0.2546  0.0488  1.7845
37651SOL    HW216359   3.883   4.516   5.075 -2.4227 -1.3755 -0.6467
37652SOL     OW16360   9.789  10.821   3.701 -0.0083 -0.2249  0.1883
37652SOL    HW116361   9.700  10.847   3.679 -0.6334 -0.4044  2.4141
37652SOL    HW216362   9.783  10.786   3.790  2.5362  1.2830  1.0114
37653SOL     OW16363   5.270   6.685   5.052 -0.4856 -0.0462  0.0645
37653SOL    HW116364   5.260   6.714   4.962 -0.3625  0.2322  0.1417
37653SOL    HW216365   5.204   6.616   5.062 -1.0217  0.4508 -0.0062
37654SOL     OW16366   8.537   9.255   8.027 -0.0673  0.5707  0.0960
37654SOL    HW116367   8.632   9.260   8.022  0.0765 -0.8603  1.0496
37654SOL    HW216368   8.509   9.344   8.045  1.0170  1.1990 -1.2337
37655SOL     OW16369   1.422   1.477   5.133 -0.3731  1.0411  0.1937
37655SOL    HW116370   1.477   1.543   5.093  0.5150 -0.8310 -1.7604
37655SOL    HW216371   1.336   1.489   5.093 -0.5391  1.8131  0.7781
37656SOL     OW16372   3.669   5.765   7.477  0.0224  0.0391  0.1547
37656SOL    HW116373   3.713   5.744   7.394 -1.0032  1.8026 -0.8530
37656SOL    HW216374   3.632   5.852   7.464 -0.3064  0.2764  2.4228
37657SOL     OW16375   3.125   7.008   7.995 -0.3486 -0.0846  0.2228
37657SOL    HW116376   3.091   7.086   8.038  0.3403  0.4251 -0.1296
37657SOL    HW216377   3.135   7.034   7.903  1.4806 -0.0290  0.4042
37658SOL     OW16378   2.271   1.732   0.302  0.3304 -0.0380  0.1622
37658SOL    HW116379   2.219   1.653   0.313 -2.2353  1.4147 -1.1588
37658SOL    HW216380   2.254   1.760   0.212  0.4745  2.4946  0.8887
37659SOL     OW16381   8.073   3.331   4.792  0.4671 -0.3068 -0.4502
37659SOL    HW116382   8.058   3.379   4.711 -1.4661 -0.5589 -0.2676
37659SOL    HW216383   7.991   3.340   4.841  0.8647 -1.9093  0.5572
37660SOL     OW16384   5.134   7.040   8.981 -0.1331  0.7816  0.4710
37660SOL    HW116385   5.083   7.067   9.056 -0.1375  2.3322 -0.0824
37660SOL    HW216386   5.194   6.973   9.015 -2.4105 -0.9930  1.1382
37661SOL     OW16387   6.097   7.587   0.306 -0.0406 -0.4245  0.0947
37661SOL    HW116388   6.090   7.637   0.224  2.2493  1.3746  0.9641
37661SOL    HW216389   6.190   7.589   0.327 -0.6143 -0.8652  2.7613
37662SOL     OW16390   3.854   6.830  10.901 -0.5266  0.4406 -0.0976
37662SOL    HW116391   3.785   6.780  10.942 -1.2479  2.0501  0.7053
37662SOL    HW216392   3.934   6.804  10.946 -0.7856 -0.5377 -0.2083
37663SOL     OW16393   2.964   5.397   9.224 -0.1157  0.1633 -0.1906
37663SOL    HW116394   3.013   5.384   9.305 -1.1934  1.2994  0.6378
37663SOL    HW216395   3.031   5.392   9.155  1.0813  1.0577  0.8884
37664SOL     OW16396   8.053   9.889   3.012 -0.1232  0.1097 -0.6607
37664SOL    HW116397   8.142   9.893   3.046 -0.0966 -1.2998 -0.5192
37664SOL    HW216398   8.044   9.967   2.957  1.1477  0.3222 -0.5694
37665SOL     OW16399   2.441   1.168  10.124  0.0880 -1.2070 -0.0550
37665SOL    HW116400   2.478   1.086  10.158 -1.7264 -1.3059  1.7750
37665SOL    HW216401   2.427   1.151  10.030  3.1549 -1.6811 -0.4793
37666SOL     OW16402   8.797  10.054   6.832 -0.3594  0.3408 -0.6974
37666SOL    HW116403   8.889  10.075   6.820 -0.4263  1.3622  0.4499
37666SOL    HW216404   8.774  10.000   6.756  1.7106 -1.7785  0.1260
37667SOL     OW16405   5.644   4.026   9.026  0.2162 -0.2090 -1.0249
37667SOL    HW116406   5.675   4.081   8.954 -1.6175  1.0645 -0.8821
37667SOL    HW216407   5.563   3.987   8.994 -0.1216 -0.3878  0.0104
37668SOL     OW16408   1.411   9.759   4.006  0.1530  0.0016  0.0972
37668SOL    HW116409   1.438   9.699   3.936  0.2018 -0.0600  0.1688
37668SOL    HW216410   1.346   9.816   3.964 -1.4283 -1.4154  0.5408
37669SOL     OW16411  10.968   9.884  10.478  0.2783 -0.0779  0.1229
37669SOL    HW116412  10.897   9.829  10.511 -0.8228  1.0520 -0.2853
37669SOL    HW216413  10.937   9.914  10.392  0.7354  1.3474  0.4380
37670SOL     OW16414   7.054   7.987   9.575 -0.2850 -0.5006  0.3500
37670SOL    HW116415   7.033   8.072   9.536 -0.3780 -1.0944 -0.9233
37670SOL    HW216416   7.041   8.000   9.669  2.4663  1.7256  0.4957
37671SOL     OW16417   7.686   8.681   1.352 -0.0412  0.2213  0.1258
37671SOL    HW116418   7.625   8.701   1.281  1.4808 -0.6956 -1.4772
37671SOL    HW216419   7.704   8.588   1.343  1.0421  0.3265  1.0144
37672SOL     OW16420   0.282   8.396   9.229 -0.0840  0.2795  0.1455
37672SOL    HW116421   0.331   8.474   9.257 -0.4734  2.0783 -3.8605
37672SOL    HW216422   0.350   8.333   9.205  0.2268 -0.1506  2.0666
37673SOL     OW16423   7.556   2.267   1.030 -0.2177 -0.0896 -0.6904
37673SOL    HW116424   7.553   2.327   1.104 -1.0331 -1.1724  0.1812
37673SOL    HW216425   7.649   2.260   1.008  0.1011 -0.2813  0.6672
37674SOL     OW16426   6.673   0.483   0.147  0.2062  0.0541  0.0003
37674SOL    HW116427   6.610   0.543   0.188 -1.4604  0.3787 -2.9367
37674SOL    HW216428   6.630   0.454   0.067  3.0130 -1.3082 -1.0695
37675SOL     OW16429   0.669   4.363   7.651 -0.0819  0.4180  0.2268
37675SOL    HW116430   0.742   4.412   7.613 -0.9999  1.2793 -0.4456
37675SOL    HW216431   0.608   4.430   7.682 -0.8119 -0.2951  0.3537
37676SOL     OW16432   5.915   5.907   7.438  0.1964 -0.3832  0.1147
37676SOL    HW116433   5.937   5.991   7.479  0.7445 -0.3350 -0.2720
37676SOL    HW216434   5.833   5.881   7.480  0.9466 -0.5247  1.5175
37677SOL     OW16435   8.801   9.271   8.072  0.5365  0.2507 -0.3044
37677SOL    HW116436   8.862   9.298   8.003  1.9200  1.5326  1.3551
37677SOL    HW216437   8.824   9.181   8.091  1.5927  0.5619 -0.0570
37678SOL     OW16438  10.555   1.497   1.230  0.0399  0.0845 -0.8178
37678SOL    HW116439  10.481   1.450   1.190 -0.2797  0.7813 -1.0586
37678SOL    HW216440  10.538   1.493   1.324 -0.8705  1.1343 -0.9195
37679SOL     OW16441  10.194   3.931   2.882  0.0614 -0.1342  0.4264
37679SOL    HW116442  10.101   3.938   2.863  0.3744  1.1233 -0.6894
37679SOL    HW216443  10.233   4.010   2.844  1.9404 -1.8896 -1.4136
37680SOL     OW16444   9.254   9.634   6.852  0.6100  0.0865 -0.0241
37680SOL    HW116445   9.159   9.642   6.863  0.4242 -0.1393 -1.3198
37680SOL    HW216446   9.273   9.543   6.875  0.7788  0.6163  1.9620
37681SOL     OW16447   5.840   2.495   6.266  0.4712  0.4531  0.4304
37681SOL    HW116448   5.757   2.466   6.304  1.3663 -0.3528  1.8349
37681SOL    HW216449   5.862   2.426   6.203  0.6836  0.0153  0.9736
37682SOL     OW16450   3.630   7.269   5.219  0.3112 -0.1183 -0.5534
37682SOL    HW116451   3.697   7.334   5.202 -0.1251  0.1353 -1.3117
37682SOL    HW216452   3.548   7.319   5.223  0.0426 -0.5493 -0.6287
37683SOL     OW16453   6.152   1.199   2.594 -0.2751  0.1136 -0.8890
37683SOL    HW116454   6.225   1.137   2.598  0.7968  1.3668 -0.6809
37683SOL    HW216455   6.151   1.229   2.503 -0.8245 -0.2357 -1.0015
37684SOL     OW16456   2.681   5.727   6.209 -0.0654  0.0132 -0.1676
37684SOL    HW116457   2.688   5.814   6.170  2.5157  0.5749  1.4512
37684SOL    HW216458   2.729   5.669   6.149  0.7210  0.2329  0.2409
37685SOL     OW16459   1.432   8.612   3.780  0.8303  0.3092  0.3527
37685SOL    HW116460   1.487   8.579   3.709 -0.9519  2.3778 -2.1005
37685SOL    HW216461   1.493   8.632   3.851  3.0691  1.1405 -1.7416
37686SOL     OW16462   8.418   9.381   1.707 -0.1545 -0.1563  0.1887
37686SOL    HW116463   8.475   9.439   1.757 -1.6890  1.8050 -0.3082
37686SOL    HW216464   8.452   9.293   1.726  2.5054  0.9030  0.5363
37687SOL     OW16465   9.560   6.786   5.595 -0.2798 -0.1574  0.3540
37687SOL    HW116466   9.543   6.693   5.611 -0.2305 -0.1013  0.7260
37687SOL    HW216467   9.566   6.825   5.682 -1.6887  0.4565  0.1858
37688SOL     OW16468   7.303   3.050   5.372  0.7404 -0.2581  0.0809
37688SOL    HW116469   7.231   3.113   5.382  0.5268 -0.3984 -0.5830
37688SOL    HW216470   7.369   3.080   5.434 -0.0789 -0.3951  1.0448
37689SOL     OW16471   5.113   2.210   4.730 -0.0747 -0.0791  0.0435
37689SOL    HW116472   5.022   2.184   4.744 -0.4512  0.8124 -0.6854
37689SOL    HW216473   5.160   2.128   4.720 -0.6765 -0.5714  1.1515
37690SOL     OW16474   1.196   5.427   6.678  0.2063 -0.0365 -0.0205
37690SOL    HW116475   1.218   5.338   6.651  0.6114 -0.4179  1.4947
37690SOL    HW216476   1.109   5.419   6.718  0.2200  0.2672  0.0710
37691SOL     OW16477   2.898   2.915   5.502 -0.4044 -0.3131  0.2769
37691SOL    HW116478   2.819   2.932   5.552  0.4165 -0.7283  1.7704
37691SOL    HW216479   2.885   2.828   5.466 -0.2461 -0.7886  1.3291
37692SOL     OW16480   1.142  10.331   4.811 -0.1840 -0.1061 -0.0322
37692SOL    HW116481   1.150  10.319   4.717 -0.1186 -1.4642  0.1306
37692SOL    HW216482   1.162  10.423   4.826 -1.8415  0.5228 -1.5227
37693SOL     OW16483   3.558  10.250   4.937  0.2405 -0.1760  0.5831
37693SOL    HW116484   3.576  10.326   4.882  0.0392  0.3328  1.2114
37693SOL    HW216485   3.637  10.239   4.989 -0.4827  0.8670  1.9535
37694SOL     OW16486   3.376   1.241   1.284 -0.1454  0.5386  0.1960
37694SOL    HW116487   3.374   1.330   1.320 -1.2450  0.3093  0.7128
37694SOL    HW216488   3.340   1.186   1.353 -1.9565  0.0439 -1.1192
37695SOL     OW16489   7.480   9.664   8.405 -0.3737  0.6851  0.0956
37695SOL    HW116490   7.536   9.713   8.465 -1.8656  2.3779  0.1480
37695SOL    HW216491   7.426   9.730   8.363 -0.7571 -0.6884 -1.6378
37696SOL     OW16492  10.023   6.338   6.384  0.4708 -0.4476 -0.1032
37696SOL    HW116493  10.087   6.332   6.313 -0.0212 -1.0835 -0.5058
37696SOL    HW216494  10.030   6.254   6.429 -0.5613 -0.8035 -0.5790
37697SOL     OW16495   4.515   4.881   0.125  0.1341 -0.1978 -0.0447
37697SOL    HW116496   4.489   4.810   0.066 -0.8562 -0.5370  0.7932
37697SOL    HW216497   4.441   4.942   0.124  0.2661 -0.0193  0.5567
37698SOL     OW16498   7.701   7.273   3.644 -0.3146  0.2513  0.3542
37698SOL    HW116499   7.657   7.353   3.614  0.9883  0.7314 -0.3115
37698SOL    HW216500   7.639   7.203   3.626  0.1412  0.6137 -2.8603
37699SOL     OW16501   4.221   3.230   1.374  0.2973  0.0275 -0.3413
37699SOL    HW116502   4.129   3.250   1.391  0.6159  1.1887  0.0476
37699SOL    HW216503   4.252   3.301   1.319  0.5301 -1.2455 -1.9034
37700SOL     OW16504   6.103   9.318   1.306  0.0238 -0.0431 -0.2188
37700SOL    HW116505   6.070   9.406   1.292 -0.8244 -0.3004  0.1360
37700SOL    HW216506   6.118   9.313   1.400 -1.1859 -0.7151 -0.0619
37701SOL     OW16507   5.191   4.305  10.809  0.2796  0.0972 -0.1484
37701SOL    HW116508   5.112   4.347  10.776 -0.4795  0.6885  2.3131
37701SOL    HW216509   5.219   4.246  10.739 -2.7101 -0.5942 -0.7980
37702SOL     OW16510   0.166   1.302   5.303 -0.0941 -0.4541 -0.3846
37702SOL    HW116511   0.175   1.395   5.322 -0.2047 -0.2125 -1.4815
37702SOL    HW216512   0.238   1.282   5.243 -0.3299 -0.9739 -0.4983
37703SOL     OW16513   7.128   2.845   9.948 -0.0620 -0.1437 -0.0280
37703SOL    HW116514   7.115   2.761   9.991 -0.5241  0.6269  1.3588
37703SOL    HW216515   7.211   2.836   9.902  1.5359 -0.2696  2.7678
37704SOL     OW16516   1.375   4.759   5.187 -0.1931  0.2944 -0.3789
37704SOL    HW116517   1.461   4.780   5.150 -1.1817  3.2788 -1.1262
37704SOL    HW216518   1.313   4.782   5.117 -1.6553 -1.3476  0.3306
37705SOL     OW16519   9.224   5.443   6.312  0.4791  0.6437 -0.0086
37705SOL    HW116520   9.300   5.480   6.266  0.5616  0.1450 -0.2853
37705SOL    HW216521   9.259   5.409   6.394  0.3198  1.6008  0.4579
37706SOL     OW16522   3.318   6.987   1.524  0.2797  0.0988  0.2752
37706SOL    HW116523   3.280   7.023   1.444  0.2231  1.2569  0.8096
37706SOL    HW216524   3.253   7.007   1.592  2.0295  2.5416  1.2835
37707SOL     OW16525   0.631   5.213   8.904 -0.3660 -0.5096  0.0704
37707SOL    HW116526   0.627   5.245   8.994  0.4578 -0.0529 -0.0460
37707SOL    HW216527   0.544   5.229   8.868 -0.5659 -0.2893  0.6534
37708SOL     OW16528   4.656  10.439   0.751  0.3490 -0.1089 -0.5620
37708SOL    HW116529   4.717  10.503   0.716  2.0714 -0.8897  0.9265
37708SOL    HW216530   4.638  10.469   0.840 -0.0404 -0.8358 -0.3903
37709SOL     OW16531   3.673   9.661   0.840  0.0610  0.2243  0.2037
37709SOL    HW116532   3.590   9.701   0.816  0.1653 -0.0703 -0.6722
37709SOL    HW216533   3.670   9.573   0.801  1.4611  0.8022 -1.2650
37710SOL     OW16534   0.181  10.192   4.056 -0.0825  0.1527 -0.1695
37710SOL    HW116535   0.180  10.261   3.989  1.6068  1.2193  0.8798
37710SOL    HW216536   0.253  10.134   4.029  0.1446  0.1966  0.3457
37711SOL     OW16537  10.529   2.536   9.460  0.0317  0.3939  0.2128
37711SOL    HW116538  10.484   2.604   9.510 -0.8967  0.0853 -0.1939
37711SOL    HW216539  10.464   2.507   9.395  2.1991  3.0460 -3.3653
37712SOL     OW16540   2.276   2.721   0.983  0.1857  0.2763  0.1668
37712SOL    HW116541   2.272   2.675   1.067  0.6107 -0.8352 -0.4130
37712SOL    HW216542   2.362   2.698   0.947 -0.2448  0.2344 -0.8621
37713SOL     OW16543   0.878   3.309   5.201 -0.1064  0.1968  0.0201
37713SOL    HW116544   0.927   3.263   5.132  0.8811 -0.1505  0.9283
37713SOL    HW216545   0.838   3.239   5.252  0.3997  0.3744  0.6802
37714SOL     OW16546   5.888   8.018   5.197 -0.4307  0.3828  0.0945
37714SOL    HW116547   5.795   8.027   5.176 -0.6296 -0.6331  0.5259
37714SOL    HW216548   5.894   8.041   5.289 -0.3052  0.0970  0.1568
37715SOL     OW16549   8.384   8.343  10.176 -0.1203  0.0039  0.7455
37715SOL    HW116550   8.453   8.387  10.126 -0.9267 -0.6136 -0.9751
37715SOL    HW216551   8.312   8.406  10.177 -0.0687  0.0562  1.2357
37716SOL     OW16552   5.260   8.098   0.415 -0.1817  0.1418 -0.5851
37716SOL    HW116553   5.263   8.163   0.345  0.7886 -0.9471 -1.5704
37716SOL    HW216554   5.302   8.020   0.378  1.4839 -0.0495  1.6175
37717SOL     OW16555   0.077   1.429   2.073  0.5648 -0.0384  0.4582
37717SOL    HW116556   0.062   1.404   2.164  0.8274 -0.1702  0.4686
37717SOL    HW216557   0.046   1.354   2.023 -2.8659  1.4350  0.2362
37718SOL     OW16558   1.951   7.599   4.675  0.1777  0.0546 -0.0634
37718SOL    HW116559   1.999   7.661   4.730 -0.7555  1.8292 -1.1975
37718SOL    HW216560   1.903   7.544   4.738  1.3423  0.1936  0.9709
37719SOL     OW16561   5.837   0.328   4.247  0.1563  0.5938  0.3228
37719SOL    HW116562   5.830   0.233   4.248 -0.8964  0.6657  0.4716
37719SOL    HW216563   5.810   0.355   4.334  1.0733  0.9937  0.4873
37720SOL     OW16564   3.862  10.725   3.091  0.1098 -0.0953  0.4859
37720SOL    HW116565   3.864  10.726   3.187 -1.1134  0.4891  0.5122
37720SOL    HW216566   3.890  10.812   3.065 -0.8935  0.1907  0.3468
37721SOL     OW16567   6.229   0.125  10.758  0.5019 -0.3091  0.0206
37721SOL    HW116568   6.321   0.151  10.762  0.6567 -1.0499  1.8077
37721SOL    HW216569   6.181   0.207  10.750  1.3967 -0.0250 -2.7699
37722SOL     OW16570   2.774   1.219  10.613 -0.4405 -0.6278  0.3606
37722SOL    HW116571   2.786   1.171  10.531 -0.0215 -1.8666  1.1397
37722SOL    HW216572   2.708   1.169  10.661 -1.5272  0.7280  0.3050
37723SOL     OW16573   6.336   7.061   2.944 -0.3408  0.0255 -0.0934
37723SOL    HW116574   6.276   7.135   2.937 -1.5021 -0.9078 -0.1308
37723SOL    HW216575   6.366   7.063   3.035 -0.1818  0.6739 -0.1570
37724SOL     OW16576   7.989   0.995   9.502  0.4398  0.5656 -0.0487
37724SOL    HW116577   7.982   0.953   9.417  1.1301  0.7000 -0.1779
37724SOL    HW216578   8.039   0.933   9.555  0.6076  0.7877  0.0523
37725SOL     OW16579   2.239  10.298   0.302  0.0719 -0.2817  0.0390
37725SOL    HW116580   2.306  10.303   0.233 -0.5576  1.5443 -0.4790
37725SOL    HW216581   2.258  10.374   0.357 -0.8599 -0.4330  0.5641
37726SOL     OW16582   1.551   3.456   7.503  0.8423 -0.6491 -0.3915
37726SOL    HW116583   1.597   3.537   7.521 -0.3458  0.0727 -0.5309
37726SOL    HW216584   1.592   3.391   7.560  1.4576  0.1685  0.0940
37727SOL     OW16585   4.322  10.735   9.487 -0.1521  0.1276  0.2354
37727SOL    HW116586   4.416  10.723   9.497 -0.3376 -0.1352  1.8633
37727SOL    HW216587   4.289  10.649   9.462  0.2061  0.5623 -1.7892
37728SOL     OW16588   6.622   0.465   6.843  0.0909  0.1009 -0.0744
37728SOL    HW116589   6.656   0.379   6.866  1.0697  0.1836 -1.1376
37728SOL    HW216590   6.570   0.450   6.764  0.7339  0.5566 -0.5983
37729SOL     OW16591  10.117   5.897   6.730 -0.4679  0.1040 -0.1602
37729SOL    HW116592  10.113   5.804   6.753 -0.7724 -0.1686 -1.2530
37729SOL    HW216593  10.059   5.905   6.654  0.5246  0.9497 -0.8482
37730SOL     OW16594   2.621   1.052   5.051 -0.3346 -0.2163 -0.0830
37730SOL    HW116595   2.597   1.134   5.094  1.0559 -0.4579  1.2026
37730SOL    HW216596   2.661   1.079   4.968 -0.0419  0.3897  0.2542
37731SOL     OW16597   3.933   6.862   7.626  0.5974 -0.4615 -0.4587
37731SOL    HW116598   3.962   6.867   7.535 -0.2090  1.9314 -0.5995
37731SOL    HW216599   3.975   6.936   7.670  1.0353 -1.6288  1.1499
37732SOL     OW16600   4.082   2.941   3.666 -0.4868  0.1889 -0.4097
37732SOL    HW116601   4.111   2.969   3.753 -1.4740  0.9238 -0.3057
37732SOL    HW216602   3.986   2.939   3.673 -0.5050 -1.8807 -0.8351
37733SOL     OW16603   4.588   1.865   3.501  0.1453  0.6812 -0.4268
37733SOL    HW116604   4.514   1.873   3.562  0.9509 -1.5571  0.9022
37733SOL    HW216605   4.658   1.825   3.553  0.9983 -0.8916 -2.6834
37734SOL     OW16606   2.794   3.473   2.309  0.3969 -0.0587 -0.4936
37734SOL    HW116607   2.769   3.478   2.401 -0.0159  2.3797 -0.7046
37734SOL    HW216608   2.729   3.415   2.270 -0.2955  0.0327  0.4848
37735SOL     OW16609   0.653   5.919   2.832  0.5041  0.2449  0.5893
37735SOL    HW116610   0.570   5.897   2.872  1.0506 -0.8286  1.1539
37735SOL    HW216611   0.630   5.970   2.754 -0.6360  0.5821  1.1542
37736SOL     OW16612   9.370   9.535   7.165  0.7113 -0.3289 -0.1588
37736SOL    HW116613   9.345   9.474   7.096  2.4038 -1.4667  0.1979
37736SOL    HW216614   9.450   9.576   7.133 -0.1787  1.4244 -0.2042
37737SOL     OW16615   1.699   9.311   6.528 -0.4678 -0.0370 -0.3765
37737SOL    HW116616   1.685   9.238   6.588 -0.9711 -0.1843 -0.6719
37737SOL    HW216617   1.628   9.304   6.464  0.1475  0.0283 -1.0807
37738SOL     OW16618   4.690  10.607   4.961  0.4405 -0.3793  0.2077
37738SOL    HW116619   4.779  10.628   4.989 -0.0351  3.0912 -0.7183
37738SOL    HW216620   4.692  10.615   4.866 -0.6850 -1.0656  0.1170
37739SOL     OW16621   7.223   9.443   9.987  0.2072 -0.2441  0.3616
37739SOL    HW116622   7.148   9.485   9.944  1.2159  0.7585 -0.4588
37739SOL    HW216623   7.249   9.504  10.056 -0.3643 -1.0743  1.3285
37740SOL     OW16624   0.538   2.188   1.456 -0.5858  0.5571 -0.5148
37740SOL    HW116625   0.572   2.105   1.423 -1.4527  0.1287 -0.3374
37740SOL    HW216626   0.556   2.185   1.550  0.1901  0.9662 -0.6420
37741SOL     OW16627   5.780  10.575   5.797  0.3843  0.2705  0.0088
37741SOL    HW116628   5.856  10.523   5.825  0.3166  0.3084  0.2633
37741SOL    HW216629   5.792  10.585   5.702  1.0800  0.8949  0.1613
37742SOL     OW16630   6.638   6.017   2.615  0.0890  0.7252  0.8001
37742SOL    HW116631   6.682   6.031   2.699 -1.6596 -0.0523  1.8776
37742SOL    HW216632   6.679   5.938   2.579  2.7984  2.5862 -0.4654
37743SOL     OW16633   2.879   3.183   9.371 -0.3368  0.0620 -0.4049
37743SOL    HW116634   2.789   3.150   9.371  0.0874 -1.2287 -2.3866
37743SOL    HW216635   2.877   3.258   9.311  0.2057 -0.9666 -1.7458
37744SOL     OW16636   6.767   1.306   0.440  0.7364 -0.5426 -0.3405
37744SOL    HW116637   6.709   1.352   0.501 -1.9873 -2.1463 -1.6486
37744SOL    HW216638   6.838   1.368   0.424 -1.9035  2.5140 -0.6779
37745SOL     OW16639   4.940   7.666   7.769  0.2743 -0.4784 -0.3465
37745SOL    HW116640   4.966   7.574   7.780  1.4266 -0.2328 -0.8864
37745SOL    HW216641   4.959   7.685   7.677  0.2617  0.3704 -0.1748
37746SOL     OW16642   6.487   2.536   1.149  0.4715  0.0882 -0.1697
37746SOL    HW116643   6.474   2.565   1.059  0.2343  0.2084 -0.0984
37746SOL    HW216644   6.559   2.590   1.182 -0.0010  0.6325 -0.0210
37747SOL     OW16645   6.439   3.562   2.059 -0.1674  0.3642 -0.7008
37747SOL    HW116646   6.434   3.656   2.078  0.2874  0.3829 -0.6594
37747SOL    HW216647   6.434   3.556   1.964  1.4557  0.5570 -0.8210
37748SOL     OW16648   4.989   4.219   4.316 -0.0704  0.2541 -0.2666
37748SOL    HW116649   4.919   4.208   4.380  0.6740 -0.6914  0.3979
37748SOL    HW216650   5.017   4.130   4.295  0.6679  0.6083 -0.8251
37749SOL     OW16651   2.103   1.282  10.174 -0.5063 -0.0625  0.4936
37749SOL    HW116652   2.013   1.314  10.184 -1.8353 -2.8750 -1.7570
37749SOL    HW216653   2.102   1.194  10.212  1.3620 -0.0538  0.6277
37750SOL     OW16654   8.600   1.547   1.647 -0.5464  0.3074  0.2338
37750SOL    HW116655   8.613   1.630   1.693  0.7117  0.1320  0.2135
37750SOL    HW216656   8.645   1.559   1.563 -0.1236 -0.4865  0.3430
37751SOL     OW16657   8.615   2.592   1.433 -0.2617  0.2060  0.0652
37751SOL    HW116658   8.600   2.542   1.352  3.0783 -0.3019 -0.3113
37751SOL    HW216659   8.576   2.678   1.416 -2.6829 -0.9977 -0.7280
37752SOL     OW16660   5.287   6.032  10.270  0.4482 -0.1312 -0.1608
37752SOL    HW116661   5.226   5.976  10.223 -0.5950  0.0603  0.9451
37752SOL    HW216662   5.335   5.973  10.328  1.2151 -0.2578 -0.9114
37753SOL     OW16663   4.211   0.083   4.389  0.6420 -0.4877 -0.3799
37753SOL    HW116664   4.252   0.144   4.449 -0.1665  0.2702 -0.5988
37753SOL    HW216665   4.285   0.045   4.340  1.0253  1.7110 -1.5707
37754SOL     OW16666   3.693   9.438   0.035  0.0261 -0.3070 -0.3186
37754SOL    HW116667   3.609   9.476   0.009 -0.9950 -1.3111  1.4152
37754SOL    HW216668   3.758   9.503   0.007 -1.1931 -0.0904 -2.8127
37755SOL     OW16669   7.305   6.088   3.240 -0.3085  0.0134  0.3334
37755SOL    HW116670   7.278   6.046   3.322 -1.3085 -0.4737 -0.2267
37755SOL    HW216671   7.303   6.017   3.175  3.8902 -0.4156  0.5298
37756SOL     OW16672   7.265   8.173   4.399 -0.2347  0.2007 -0.1904
37756SOL    HW116673   7.333   8.107   4.389 -0.1565  0.5699 -2.4315
37756SOL    HW216674   7.304   8.241   4.454  0.1470 -0.9596  0.9937
37757SOL     OW16675   0.931   0.981   4.466  0.4909 -0.7741  0.6629
37757SOL    HW116676   0.849   0.958   4.510 -0.6923 -0.3303 -1.2579
37757SOL    HW216677   0.980   1.033   4.530 -0.7808 -0.9388  1.7740
37758SOL     OW16678  10.677   6.822   5.907  0.4665  0.0217 -0.3929
37758SOL    HW116679  10.751   6.875   5.877  1.2958 -1.4349 -0.9656
37758SOL    HW216680  10.612   6.829   5.837  1.3529 -1.2612 -1.3629
37759SOL     OW16681   6.578   2.776   1.791 -0.1345  0.5748 -0.0713
37759SOL    HW116682   6.535   2.745   1.711 -0.7708  1.4784 -0.0740
37759SOL    HW216683   6.662   2.729   1.792 -0.3678  0.1269 -0.9685
37760SOL     OW16684   7.703   7.557   1.921  0.4689  0.3410  0.4093
37760SOL    HW116685   7.611   7.532   1.928 -0.4322  2.8702 -1.5364
37760SOL    HW216686   7.723   7.596   2.006 -0.7768  1.3371  0.2631
37761SOL     OW16687   8.343   2.347   4.534  0.0185  0.0370  0.1425
37761SOL    HW116688   8.374   2.265   4.573 -0.7540 -0.3012  0.0559
37761SOL    HW216689   8.281   2.320   4.467 -2.1965  0.7431  1.8315
37762SOL     OW16690   2.043   0.119   3.042 -0.9147  0.0238  0.1433
37762SOL    HW116691   2.137   0.100   3.052 -1.1259  0.4635  3.7655
37762SOL    HW216692   2.001   0.033   3.049 -0.8336 -0.0657 -0.4865
37763SOL     OW16693   4.616   6.418   9.055 -0.0464 -0.2650 -0.3392
37763SOL    HW116694   4.534   6.447   9.093 -0.2803 -2.3298  0.8112
37763SOL    HW216695   4.613   6.449   8.965 -0.1298  3.4411  0.8648
37764SOL     OW16696   1.275   2.400  10.394 -0.1118 -0.5409 -0.2066
37764SOL    HW116697   1.364   2.420  10.421 -0.1611  0.8928 -1.0099
37764SOL    HW216698   1.284   2.352  10.312 -0.0898  0.9029 -1.0689
37765SOL     OW16699   1.013   4.540   9.483 -0.5951 -0.5683  0.2454
37765SOL    HW116700   1.033   4.488   9.406 -0.5276  0.4320 -0.4205
37765SOL    HW216701   0.928   4.580   9.464 -1.0433 -1.0781  1.0984
37766SOL     OW16702   7.660   3.591   9.420  0.3245 -0.2944  0.5030
37766SOL    HW116703   7.610   3.663   9.381  2.0492  0.1927 -0.8473
37766SOL    HW216704   7.611   3.512   9.396  0.5982  0.1191 -1.4626
37767SOL     OW16705   9.308   5.661   4.273 -0.0488  0.8042  0.4409
37767SOL    HW116706   9.322   5.698   4.186 -0.5142  1.0189  0.4573
37767SOL    HW216707   9.272   5.574   4.257 -0.0479  0.8075  0.4186
37768SOL     OW16708   5.844   7.707   8.102 -0.4546  0.3533 -0.0874
37768SOL    HW116709   5.752   7.710   8.074 -0.5302 -1.5455 -0.0894
37768SOL    HW216710   5.849   7.770   8.174 -2.0863 -0.5629  0.8611
37769SOL     OW16711   1.959  10.565  10.425  0.1051 -0.2607 -0.3504
37769SOL    HW116712   2.003  10.483  10.445  1.4822  0.9690  1.8388
37769SOL    HW216713   1.872  10.555  10.461 -0.2428 -1.2969 -1.4209
37770SOL     OW16714   4.860   2.048   4.072  0.0654 -0.0475 -0.2280
37770SOL    HW116715   4.933   2.109   4.059 -0.8995  0.8263 -1.7342
37770SOL    HW216716   4.891   1.966   4.031  0.8631 -0.2001  0.6633
37771SOL     OW16717   1.622   9.160   4.876  0.1976  0.3615  0.3021
37771SOL    HW116718   1.662   9.113   4.949 -0.8075 -0.2720  0.4499
37771SOL    HW216719   1.669   9.244   4.873  0.0275  0.5328  1.8829
37772SOL     OW16720  10.455   2.372   7.647  0.0312 -0.4257  0.2174
37772SOL    HW116721  10.471   2.287   7.688  1.5316 -0.2286  0.0897
37772SOL    HW216722  10.540   2.395   7.608 -0.4012  1.0709  0.1508
37773SOL     OW16723   9.068   2.833   3.292  0.4818 -0.3481 -0.2729
37773SOL    HW116724   9.142   2.893   3.298  0.9564 -0.8744 -0.8062
37773SOL    HW216725   8.993   2.890   3.274  0.7481  0.1878  0.3020
37774SOL     OW16726   2.945   5.384   7.615  0.5866 -0.7279 -0.3537
37774SOL    HW116727   2.885   5.324   7.659 -0.3909  0.0883 -0.5694
37774SOL    HW216728   3.031   5.360   7.649 -0.2067  0.3562  2.5967
37775SOL     OW16729   0.300   3.789   8.818  0.3415 -0.6054  0.5204
37775SOL    HW116730   0.233   3.732   8.782 -0.3304  0.7705 -0.4569
37775SOL    HW216731   0.292   3.870   8.768  2.2846 -0.1846  0.8515
37776SOL     OW16732   5.843   6.674   4.130  0.1285  0.0806 -0.3331
37776SOL    HW116733   5.933   6.644   4.146  0.4633  2.1888  2.0022
37776SOL    HW216734   5.789   6.621   4.188  0.0593 -0.0863 -0.5521
37777SOL     OW16735   8.108   6.674   2.001  0.0450  0.8992 -0.4286
37777SOL    HW116736   8.088   6.585   1.971  1.8094  0.6951 -1.0632
37777SOL    HW216737   8.045   6.691   2.071 -0.1392 -0.9539 -0.1329
37778SOL     OW16738   8.319   5.699   2.097  0.0392 -0.3067 -0.2594
37778SOL    HW116739   8.359   5.718   2.181  0.0559 -2.2721  0.2053
37778SOL    HW216740   8.297   5.785   2.060  1.5180  0.6294  1.0051
37779SOL     OW16741   4.495   0.237   5.182  0.2551 -0.2705 -0.1189
37779SOL    HW116742   4.456   0.186   5.253 -1.9401  1.2466 -0.1838
37779SOL    HW216743   4.587   0.249   5.209 -0.4442 -0.0310  2.2833
37780SOL     OW16744   0.215   3.643   5.823 -0.3324  0.0562 -0.0824
37780SOL    HW116745   0.292   3.589   5.837 -1.6626 -1.8647  0.0975
37780SOL    HW216746   0.190   3.673   5.910 -0.7196 -0.6354  0.0414
37781SOL     OW16747   7.618   8.918   3.197  0.1249 -0.2382 -0.6400
37781SOL    HW116748   7.679   8.912   3.123 -0.3296 -0.4396 -1.0018
37781SOL    HW216749   7.666   8.967   3.264  0.3935  0.3133 -1.2239
37782SOL     OW16750   9.754   8.132   9.287 -0.2468 -0.3672  0.4216
37782SOL    HW116751   9.736   8.211   9.339  0.2898  0.1754 -0.2081
37782SOL    HW216752   9.700   8.064   9.327 -1.0028  0.4116  0.7353
37783SOL     OW16753   3.096   0.571   5.072 -0.0038 -0.0405  0.0309
37783SOL    HW116754   3.058   0.541   5.155 -1.0295 -1.7519 -1.0199
37783SOL    HW216755   3.135   0.492   5.034  3.4633  1.3875  0.4132
37784SOL     OW16756  10.630   1.928   0.482  0.0587 -0.5226 -0.3710
37784SOL    HW116757  10.643   1.842   0.442 -1.5441 -0.2207 -1.6332
37784SOL    HW216758  10.543   1.954   0.452  0.2769  1.2579  0.5212
37785SOL     OW16759   8.091   2.247   2.972  0.3774  0.3504 -0.1921
37785SOL    HW116760   8.036   2.178   2.935 -0.0317  1.2467 -1.2683
37785SOL    HW216761   8.063   2.252   3.064 -2.9449  2.2695 -1.2014
37786SOL     OW16762   9.413   5.927   6.875  0.5761 -0.0916  0.4344
37786SOL    HW116763   9.431   6.014   6.838 -1.0220 -0.4374 -1.2443
37786SOL    HW216764   9.479   5.870   6.835 -0.5056 -0.2695 -1.1256
37787SOL     OW16765   9.156   4.586   3.477  0.3746 -0.0579  0.0282
37787SOL    HW116766   9.162   4.497   3.512 -2.1234  0.1398  1.0945
37787SOL    HW216767   9.155   4.642   3.555  0.6511  0.8073 -0.5824
37788SOL     OW16768   3.613   9.333   9.580 -0.4366 -0.1021  0.0937
37788SOL    HW116769   3.591   9.407   9.523 -2.0046 -1.4861 -1.1132
37788SOL    HW216770   3.708   9.323   9.570 -0.2798  1.4257 -0.1081
37789SOL     OW16771   8.318   5.516   5.110  0.4459  0.6702  0.0301
37789SOL    HW116772   8.400   5.483   5.073  0.9010  1.8607 -0.0219
37789SOL    HW216773   8.340   5.600   5.148 -0.9157  1.3893 -0.7149
37790SOL     OW16774   6.536   7.218   6.368  0.0705  0.6512 -0.4808
37790SOL    HW116775   6.522   7.312   6.385  0.5354  0.8064 -0.9389
37790SOL    HW216776   6.598   7.216   6.295  2.4377 -0.0249  1.4671
37791SOL     OW16777   6.087   3.286   7.366  0.2665 -0.5164  0.4074
37791SOL    HW116778   6.003   3.308   7.408  0.8948 -0.5785  1.7413
37791SOL    HW216779   6.116   3.368   7.326 -0.5499 -0.5534 -0.2594
37792SOL     OW16780   3.819   1.182   1.484 -0.6804 -0.3139  0.2352
37792SOL    HW116781   3.873   1.119   1.532 -2.1349  0.0103  2.3386
37792SOL    HW216782   3.820   1.150   1.393  2.2585 -0.8335  0.3900
37793SOL     OW16783   6.341   4.271   4.868 -0.3763 -0.2745 -0.2458
37793SOL    HW116784   6.404   4.343   4.878  0.6710 -1.1222 -0.6576
37793SOL    HW216785   6.376   4.201   4.924 -1.3908 -0.4647  0.1519
37794SOL     OW16786   0.552   0.026  10.808  0.2930 -0.2696 -0.0687
37794SOL    HW116787   0.493  -0.031  10.758 -0.2880  0.3488 -0.1051
37794SOL    HW216788   0.499   0.057  10.881  0.3072  0.9513 -0.5618
37795SOL     OW16789   0.042   4.259   3.642  0.2908  0.0289 -0.0502
37795SOL    HW116790   0.128   4.217   3.639 -0.5067 -1.6545 -0.3149
37795SOL    HW216791   0.028   4.292   3.554  0.4375 -0.2000 -0.1606
37796SOL     OW16792   2.224   8.804   7.057 -0.2377 -0.4433  0.3482
37796SOL    HW116793   2.142   8.829   7.100  1.5875 -0.9452  4.2981
37796SOL    HW216794   2.276   8.885   7.055 -0.2120 -0.4724 -0.7951
37797SOL     OW16795   7.448   2.033  10.058  0.0188 -0.0753  0.1630
37797SOL    HW116796   7.394   1.989   9.992 -0.3587 -0.8925  1.0116
37797SOL    HW216797   7.529   2.055  10.011 -0.4433 -0.2057 -0.7021
37798SOL     OW16798   0.499   5.348   3.610 -0.8846 -0.1942 -0.2996
37798SOL    HW116799   0.515   5.254   3.596  1.8745  0.0073  1.1899
37798SOL    HW216800   0.450   5.352   3.692 -0.3835 -0.2871  0.0029
37799SOL     OW16801   9.079   0.929   9.660  0.3086 -0.1781  0.7448
37799SOL    HW116802   9.051   0.837   9.663 -1.9210  0.4312 -0.9325
37799SOL    HW216803   9.007   0.977   9.701 -1.2836  1.4028 -3.6496
37800SOL     OW16804   4.559   4.972   4.361  0.8693  0.0899 -1.0413
37800SOL    HW116805   4.523   4.999   4.445 -1.1351 -0.6982 -1.6291
37800SOL    HW216806   4.599   4.887   4.378  1.1774  0.3000 -0.7101
37801SOL     OW16807  10.860   3.161   3.704  0.4129  0.8007 -0.1952
37801SOL    HW116808  10.955   3.171   3.710  0.4337 -0.2733  1.7897
37801SOL    HW216809  10.830   3.242   3.663  2.1227  1.3840 -0.3489
37802SOL     OW16810   8.686   1.513  10.818 -0.1802 -0.3551  0.5382
37802SOL    HW116811   8.765   1.497  10.870 -0.0039  0.7089  0.5955
37802SOL    HW216812   8.693   1.605  10.792 -1.4895 -0.2141  0.6912
37803SOL     OW16813   1.106   7.791   0.824  0.6761 -0.1897  0.1798
37803SOL    HW116814   1.031   7.732   0.823  1.3556 -1.0609 -0.4201
37803SOL    HW216815   1.121   7.811   0.916 -0.3904  0.1258  0.2892
37804SOL     OW16816   9.540   2.691   5.427  0.1714  0.1096  0.0848
37804SOL    HW116817   9.610   2.642   5.384 -0.5294 -1.7657  1.0253
37804SOL    HW216818   9.575   2.709   5.515  0.1734  0.7373 -0.0434
37805SOL     OW16819   5.078   6.523   3.527 -0.3731 -0.0423  0.1036
37805SOL    HW116820   5.019   6.582   3.574  1.5583  2.9450 -1.1167
37805SOL    HW216821   5.140   6.492   3.593 -1.5167 -0.9200  0.7854
37806SOL     OW16822   0.069   4.749   5.005  0.8224 -0.2241 -0.1426
37806SOL    HW116823   0.125   4.813   5.049 -0.0075  0.5200 -0.1467
37806SOL    HW216824   0.129   4.693   4.956  1.3792  2.3293 -2.4908
37807SOL     OW16825   3.739   3.076   1.007  0.8123  0.1363 -0.1409
37807SOL    HW116826   3.832   3.054   1.008  0.5484 -1.0384  2.2726
37807SOL    HW216827   3.723   3.119   1.092 -1.0050 -0.4123 -0.1832
37808SOL     OW16828   7.267   5.499   1.581  0.0131 -0.2118  0.0798
37808SOL    HW116829   7.256   5.483   1.487 -0.2897 -0.0673  0.0904
37808SOL    HW216830   7.183   5.474   1.620  0.7683 -2.1151  0.5554
37809SOL     OW16831   5.061   1.225   5.038 -0.1815 -0.4111 -0.2083
37809SOL    HW116832   5.011   1.303   5.016 -1.3940 -1.4132 -1.1001
37809SOL    HW216833   5.031   1.159   4.975 -0.9129 -2.2601  1.9911
37810SOL     OW16834   8.034   0.583   7.763  0.3324 -0.1061  0.0206
37810SOL    HW116835   8.016   0.498   7.724  0.3976 -0.0653 -0.0966
37810SOL    HW216836   7.952   0.632   7.754  0.7669  0.3832 -1.2877
37811SOL     OW16837   8.108  10.408   3.013 -0.6505 -0.4264  0.4089
37811SOL    HW116838   8.106  10.467   2.938 -0.2358  0.1731  0.8597
37811SOL    HW216839   8.200  10.381   3.019 -0.2929  0.9949  1.8139
37812SOL     OW16840   5.355   4.474   6.916 -0.3607  0.7208 -0.2085
37812SOL    HW116841   5.399   4.552   6.951 -0.7115  0.8778 -0.1209
37812SOL    HW216842   5.352   4.414   6.990  2.1767 -0.3561 -0.9325
37813SOL     OW16843   4.180   9.397   2.120  0.2352 -0.1504 -0.1563
37813SOL    HW116844   4.213   9.466   2.062  0.6744 -1.0688 -1.0091
37813SOL    HW216845   4.237   9.322   2.103 -0.6183 -0.9160  0.3257
37814SOL     OW16846   2.548   0.024   3.141 -0.1571  0.4567  0.3611
37814SOL    HW116847   2.455   0.021   3.166 -0.1743  2.0722  0.5334
37814SOL    HW216848   2.594  -0.013   3.216 -0.6139  0.1789  0.5099
37815SOL     OW16849  10.485   1.251   9.398 -0.3720  0.1147 -0.2389
37815SOL    HW116850  10.549   1.226   9.465 -0.4833 -0.4781 -0.3462
37815SOL    HW216851  10.510   1.201   9.321 -0.2874  0.7428 -0.6230
37816SOL     OW16852   5.753   4.226   6.618 -0.0513  0.4983 -0.0667
37816SOL    HW116853   5.732   4.231   6.525 -1.5258  0.6270  0.2562
37816SOL    HW216854   5.777   4.316   6.642  0.9912  0.3290 -0.4676
37817SOL     OW16855   1.139   3.177   1.023  0.0253  0.7828  0.1726
37817SOL    HW116856   1.122   3.110   1.089  1.8615 -0.4545 -0.5872
37817SOL    HW216857   1.074   3.160   0.954  0.0249  0.2331  0.3086
37818SOL     OW16858   9.298   7.580   7.788 -0.4004 -0.1529 -0.5876
37818SOL    HW116859   9.250   7.500   7.767  0.3065 -0.4240 -1.1902
37818SOL    HW216860   9.361   7.589   7.717  0.9651 -0.2233  0.6036
37819SOL     OW16861   3.250   1.749   2.771 -0.1384  0.4801 -0.3974
37819SOL    HW116862   3.314   1.690   2.732 -0.3787  0.4319 -0.7199
37819SOL    HW216863   3.285   1.837   2.754 -0.3499  0.4669 -0.9105
37820SOL     OW16864   1.445   9.487   4.902 -0.1145  0.1923 -0.0639
37820SOL    HW116865   1.469   9.434   4.826  0.4510  0.5609 -0.1413
37820SOL    HW216866   1.355   9.461   4.922 -0.2591  0.0848 -0.8506
37821SOL     OW16867   5.173  10.704   2.554 -0.3110 -0.3534  0.4347
37821SOL    HW116868   5.082  10.677   2.564 -0.2283 -0.4085  1.0610
37821SOL    HW216869   5.214  10.632   2.505 -0.9197  0.3227 -1.0799
37822SOL     OW16870   5.933   9.652   8.138  0.2561 -0.5473  0.0866
37822SOL    HW116871   6.025   9.634   8.122  0.0742 -0.8755 -0.6180
37822SOL    HW216872   5.898   9.677   8.052 -0.2925 -0.3777  0.3577
37823SOL     OW16873   1.989   0.032   6.338 -0.1241  0.6857  0.0750
37823SOL    HW116874   2.051   0.099   6.365  0.8731 -0.0093 -0.4735
37823SOL    HW216875   2.024  -0.002   6.256 -0.2682 -0.9529  0.6725
37824SOL     OW16876   9.736   6.625   2.450 -0.2891 -0.0732 -0.0091
37824SOL    HW116877   9.673   6.656   2.515  0.6334  1.5529  0.1407
37824SOL    HW216878   9.712   6.671   2.370  0.4419  0.2462 -0.0479
37825SOL     OW16879   2.702   7.310   1.823  0.2063  0.7252  0.2969
37825SOL    HW116880   2.777   7.365   1.801 -0.6197  0.2003 -4.4008
37825SOL    HW216881   2.626   7.366   1.804 -0.6098  0.1434  1.8273
37826SOL     OW16882   5.099  10.041   9.243 -0.2384 -0.2782  0.0424
37826SOL    HW116883   5.067  10.063   9.156  1.4789 -0.1013 -0.5527
37826SOL    HW216884   5.189  10.073   9.245 -0.0917 -0.7484  1.6972
37827SOL     OW16885   5.280   4.028   1.832  0.5832  0.2643  0.1479
37827SOL    HW116886   5.263   3.943   1.871  0.2387  0.4099  0.3214
37827SOL    HW216887   5.369   4.022   1.797  0.5186 -0.1982  0.0676
37828SOL     OW16888   2.476   9.503   5.456 -0.3338  0.1999 -0.1237
37828SOL    HW116889   2.467   9.568   5.387 -0.4531  0.5456  0.2129
37828SOL    HW216890   2.489   9.420   5.410 -2.0595  0.1704 -0.5808
37829SOL     OW16891   8.708   9.500   7.421  0.2045  0.3492 -0.1027
37829SOL    HW116892   8.750   9.560   7.358  0.8561 -0.0905 -0.0902
37829SOL    HW216893   8.642   9.554   7.465  3.0891  2.0327  2.3596
37830SOL     OW16894   7.463   0.148   3.771  0.0741  0.3540  0.1629
37830SOL    HW116895   7.384   0.110   3.731  0.3609  1.3493 -1.3683
37830SOL    HW216896   7.435   0.234   3.803  0.9504  1.4928 -2.0203
37831SOL     OW16897   1.017   6.505   5.605  0.2898 -0.0621  0.4386
37831SOL    HW116898   0.930   6.465   5.611 -0.3526  1.1473 -0.4592
37831SOL    HW216899   1.034   6.513   5.512  0.5819  1.3543  0.6016
37832SOL     OW16900   8.048   8.391   4.270 -0.2569 -0.0407  0.6350
37832SOL    HW116901   8.094   8.420   4.191 -1.1808  1.2602  0.5593
37832SOL    HW216902   8.038   8.471   4.323 -1.9181 -0.4008  0.8969
37833SOL     OW16903   1.197  10.790  10.102  0.2931 -0.0154 -0.1662
37833SOL    HW116904   1.268  10.838  10.060  0.6692  0.1191  0.6183
37833SOL    HW216905   1.197  10.821  10.192 -0.2784 -0.5609  0.0261
37834SOL     OW16906   5.237   3.492   1.797  0.0587 -0.0216 -0.6454
37834SOL    HW116907   5.323   3.474   1.836  0.6158 -1.0204 -2.3003
37834SOL    HW216908   5.227   3.587   1.804 -0.6214 -0.3017  3.4422
37835SOL     OW16909   9.139   4.830   8.393 -0.1844  0.0020  0.3478
37835SOL    HW116910   9.202   4.781   8.446 -2.0162 -0.8039  1.8247
37835SOL    HW216911   9.123   4.910   8.442 -2.4442 -1.0786  1.4005
37836SOL     OW16912   6.825   6.950   4.479  0.1005 -0.2176  0.1961
37836SOL    HW116913   6.854   6.874   4.530  1.6213  1.0853  1.2890
37836SOL    HW216914   6.759   6.991   4.534  1.4813  0.9828  0.9728
37837SOL     OW16915   3.935   7.825   5.454  0.3373 -0.2132 -0.4149
37837SOL    HW116916   4.013   7.769   5.448  0.9214  0.6300 -0.7881
37837SOL    HW216917   3.904   7.833   5.364  0.1663 -0.0522 -0.3427
37838SOL     OW16918  10.969   7.636   3.848  0.1773  0.6088  0.5085
37838SOL    HW116919  10.906   7.567   3.869 -0.1627  0.5883 -0.5577
37838SOL    HW216920  10.946   7.664   3.759  0.2752  2.1320  0.9412
37839SOL     OW16921   2.040   0.360  10.030 -0.1832  0.3603  0.0396
37839SOL    HW116922   2.136   0.361  10.030 -0.1744  1.4532 -0.8961
37839SOL    HW216923   2.016   0.453  10.037 -1.1577  0.2000 -1.0732
37840SOL     OW16924   6.816   5.494   2.701 -0.0830  0.7968  0.2145
37840SOL    HW116925   6.787   5.409   2.668  1.2665  0.0781  0.8576
37840SOL    HW216926   6.885   5.521   2.640  0.4145  0.8156  0.7867
37841SOL     OW16927   8.317   9.461   5.178  0.0217  0.4423 -0.0662
37841SOL    HW116928   8.339   9.508   5.098 -1.9847  0.2583 -0.7465
37841SOL    HW216929   8.236   9.501   5.209  1.5064  1.4481  2.6632
37842SOL     OW16930   0.132   3.011  10.157 -0.3839  0.3451  0.0006
37842SOL    HW116931   0.221   3.047  10.159 -0.1934 -0.0968 -0.3704
37842SOL    HW216932   0.100   3.030  10.068 -0.0788 -0.8716 -0.3782
37843SOL     OW16933   0.682   3.288   0.216 -0.1358  0.4196  0.5554
37843SOL    HW116934   0.750   3.309   0.280 -0.6166  1.4945  0.7316
37843SOL    HW216935   0.664   3.371   0.171 -0.0236 -0.2592 -0.7637
37844SOL     OW16936   2.918   0.779   0.359  0.3594 -0.7117  0.1072
37844SOL    HW116937   2.968   0.849   0.315  0.0407 -0.1259  0.6727
37844SOL    HW216938   2.838   0.823   0.389 -0.2120 -1.5076 -0.2494
37845SOL     OW16939   8.818   5.971   0.084 -0.0808  0.3398 -0.1571
37845SOL    HW116940   8.807   5.919   0.005 -0.0355 -0.6770  0.5024
37845SOL    HW216941   8.748   5.941   0.142  2.1442 -1.5741  1.5966
37846SOL     OW16942   9.888   3.750   3.470  0.3209  0.2821 -0.5761
37846SOL    HW116943   9.819   3.685   3.487 -0.2208  1.1087  0.4480
37846SOL    HW216944   9.881   3.769   3.377 -0.4130 -0.1215 -0.6077
37847SOL     OW16945   6.759   9.389   5.048 -0.0247  0.3676  0.5741
37847SOL    HW116946   6.826   9.376   5.115  0.8924  0.2037 -0.3732
37847SOL    HW216947   6.685   9.427   5.096 -0.8274 -3.2764  2.3993
37848SOL     OW16948   4.164   8.688   3.692 -0.2108 -0.3034 -0.5179
37848SOL    HW116949   4.150   8.783   3.695 -1.5101 -0.4909 -0.4459
37848SOL    HW216950   4.167   8.662   3.784  0.7899 -0.2612 -0.5239
37849SOL     OW16951   2.250   3.121  10.643 -0.2744  0.0198 -0.1246
37849SOL    HW116952   2.248   3.028  10.620  0.7836  0.1071 -0.5961
37849SOL    HW216953   2.227   3.123  10.736  1.2900 -0.8636  0.3014
37850SOL     OW16954   0.134   3.443  10.441  0.0396 -0.0066  0.2924
37850SOL    HW116955   0.081   3.370  10.408  0.5026  0.0063 -0.4898
37850SOL    HW216956   0.086   3.475  10.517 -0.5487 -0.6529  0.1982
37851SOL     OW16957   5.347   3.681   2.134  0.1417  0.4225  0.4184
37851SOL    HW116958   5.306   3.608   2.181 -1.0690  1.7298  1.4195
37851SOL    HW216959   5.413   3.715   2.194  0.4687  0.3800  0.0874
37852SOL     OW16960   6.841   9.395   6.503  0.1989 -0.5045 -0.1255
37852SOL    HW116961   6.932   9.373   6.522  1.2061  1.8769 -1.8582
37852SOL    HW216962   6.826   9.362   6.415 -0.8182 -1.3815  0.3620
37853SOL     OW16963   8.299   3.472  10.393  0.1209 -0.1137 -0.0751
37853SOL    HW116964   8.338   3.486  10.307 -0.1821  0.3042 -0.1483
37853SOL    HW216965   8.275   3.380  10.394 -0.0165 -0.0829 -0.4970
37854SOL     OW16966   6.552  10.858   7.170 -0.5868 -0.1179 -0.2018
37854SOL    HW116967   6.631  10.855   7.115  0.8761  0.3392  1.7887
37854SOL    HW216968   6.499  10.928   7.131 -0.7018 -1.4001 -2.4384
37855SOL     OW16969   7.118   6.806   0.479  0.4134 -0.1800  0.2647
37855SOL    HW116970   7.105   6.787   0.571 -3.8827  1.7072  0.1686
37855SOL    HW216971   7.083   6.730   0.433  0.2181 -0.0271  0.1595
37856SOL     OW16972   1.310   2.915   7.536 -0.0294  0.0019 -0.5267
37856SOL    HW116973   1.398   2.951   7.542  0.5563 -1.1054 -2.0574
37856SOL    HW216974   1.323   2.822   7.516 -1.5402 -0.1415 -0.9561
37857SOL     OW16975   7.645   5.062   5.091  0.1148 -0.7421 -0.2076
37857SOL    HW116976   7.579   5.052   5.023 -0.6594 -0.4002  0.4967
37857SOL    HW216977   7.699   5.135   5.062 -1.7890  1.1209  0.8082
37858SOL     OW16978   5.131   4.852   5.773 -0.4706  0.5566 -0.5551
37858SOL    HW116979   5.132   4.908   5.851  1.2460  1.7490 -1.4022
37858SOL    HW216980   5.221   4.823   5.763 -0.5377  1.0092 -2.5403
37859SOL     OW16981   9.424  10.585   0.481 -0.1668  0.0415  0.4520
37859SOL    HW116982   9.481  10.514   0.452 -1.1765 -0.0908 -1.2457
37859SOL    HW216983   9.336  10.547   0.480 -0.7041  1.2735 -0.3855
37860SOL     OW16984   6.158   4.234   5.810 -0.2338  0.1127  0.1159
37860SOL    HW116985   6.098   4.163   5.834  0.3832 -0.6697 -0.6400
37860SOL    HW216986   6.105   4.294   5.758 -0.1422 -1.0187 -1.2986
37861SOL     OW16987  10.267   6.515   1.265  0.4752  0.0018 -0.0116
37861SOL    HW116988  10.246   6.466   1.344  4.1058 -0.8089  0.5350
37861SOL    HW216989  10.319   6.455   1.212 -1.6892  0.5930 -2.9937
37862SOL     OW16990   3.587   7.664   8.326 -0.0268 -0.1654 -0.1994
37862SOL    HW116991   3.578   7.610   8.248 -0.2916  0.4428 -0.5913
37862SOL    HW216992   3.548   7.612   8.396 -0.3490 -0.4491 -0.5891
37863SOL     OW16993   9.738   2.740   1.468 -0.2384 -0.5356 -0.1455
37863SOL    HW116994   9.699   2.690   1.396  1.3032 -2.8385  0.5781
37863SOL    HW216995   9.684   2.819   1.473 -2.3172 -1.7808 -1.7736
37864SOL     OW16996   2.640   8.412  10.265 -0.2729  0.7327  0.0130
37864SOL    HW116997   2.584   8.422  10.188 -0.4270 -1.5738 -0.2061
37864SOL    HW216998   2.590   8.358  10.325  0.7339  0.6977  0.8418
37865SOL     OW16999   6.865   2.257   9.890 -0.5012  0.1662 -0.8553
37865SOL    HW117000   6.851   2.181   9.946  0.5573  0.0741 -0.7054
37865SOL    HW217001   6.860   2.221   9.801 -1.8291  0.2525 -0.8205
37866SOL     OW17002   5.302   2.682   0.145 -0.4396  0.0400 -0.0294
37866SOL    HW117003   5.354   2.616   0.100  1.5076  1.3491  0.2615
37866SOL    HW217004   5.317   2.665   0.238 -1.8886 -0.6425  0.0840
37867SOL     OW17005   0.149   9.734   3.965 -0.4877  0.8247  0.1731
37867SOL    HW117006   0.206   9.803   4.000  0.8518 -0.8259  1.3400
37867SOL    HW217007   0.132   9.677   4.039 -2.1724  0.2690 -0.6160
37868SOL     OW17008   3.181   3.713   6.512 -0.4437  0.2500 -0.1082
37868SOL    HW117009   3.211   3.785   6.567  0.6655 -0.0185 -0.3530
37868SOL    HW217010   3.115   3.753   6.455  0.7547  1.2797 -0.8037
37869SOL     OW17011   8.998   0.056   4.699  0.0783 -0.4527 -0.5992
37869SOL    HW117012   8.917   0.076   4.745 -0.6446 -0.1936 -1.9611
37869SOL    HW217013   9.055   0.131   4.715  0.4028 -1.0663  1.1483
37870SOL     OW17014  10.953   7.225   8.635 -0.0325  0.1861  0.1210
37870SOL    HW117015  10.935   7.134   8.616  0.0146  0.3025 -0.4741
37870SOL    HW217016  10.872   7.271   8.613 -0.5806  0.1057  1.8293
37871SOL     OW17017   3.640   2.872   9.387  0.0437 -0.3083  0.5296
37871SOL    HW117018   3.552   2.890   9.353  1.1698  3.8938 -0.4421
37871SOL    HW217019   3.636   2.902   9.478  0.6360  0.4477  0.3058
37872SOL     OW17020   2.308   3.932   4.604 -0.1243  0.3058 -0.4369
37872SOL    HW117021   2.367   3.904   4.673  0.4134  2.3458 -0.0294
37872SOL    HW217022   2.328   3.875   4.530  2.6207  1.1455 -0.4027
37873SOL     OW17023   1.248   0.610   9.359 -0.0459  0.1820 -0.3574
37873SOL    HW117024   1.335   0.594   9.395  0.5862  0.2201 -1.8708
37873SOL    HW217025   1.263   0.639   9.270 -1.6845 -1.9162 -1.3592
37874SOL     OW17026   6.620   8.908   3.338  0.3001 -0.3447  0.2440
37874SOL    HW117027   6.645   8.816   3.334 -0.7460 -0.6157 -0.2620
37874SOL    HW217028   6.540   8.909   3.391  0.7174  0.3681  0.8752
37875SOL     OW17029  10.594  10.386  10.552  0.0156 -0.1676 -0.3524
37875SOL    HW117030  10.509  10.429  10.559 -0.0834 -0.0589 -2.1354
37875SOL    HW217031  10.601  10.334  10.632 -1.5089  0.2003  0.0364
37876SOL     OW17032   4.266   7.594   4.611  0.3558  0.2297  0.5371
37876SOL    HW117033   4.174   7.587   4.638  0.1207 -0.5244 -0.4253
37876SOL    HW217034   4.262   7.618   4.519  1.1264 -0.9866  0.1839
37877SOL     OW17035  10.368   9.671  10.690 -0.0170  0.7123  0.1085
37877SOL    HW117036  10.332   9.673  10.602  1.2015 -1.4873 -0.4827
37877SOL    HW217037  10.312   9.609  10.738  0.4409  0.4794  0.3494
37878SOL     OW17038  10.671   0.985   6.938 -0.0811 -0.3062 -0.0145
37878SOL    HW117039  10.603   1.036   6.981  0.3651 -0.8264  1.3374
37878SOL    HW217040  10.745   1.046   6.929  0.0169 -0.3536  0.4595
37879SOL     OW17041   9.663   7.762   2.404  0.1886  0.1470  0.4175
37879SOL    HW117042   9.580   7.763   2.356 -1.2844  0.9799  2.8409
37879SOL    HW217043   9.688   7.855   2.409  0.7623 -0.0151  0.5133
37880SOL     OW17044   9.220   8.547   6.360 -0.0470  0.2501 -0.2683
37880SOL    HW117045   9.161   8.493   6.307 -0.0822 -0.3140  0.3392
37880SOL    HW217046   9.307   8.528   6.326 -0.2020  1.0596 -1.1467
37881SOL     OW17047   1.823   1.319  10.253  0.2319 -0.1384  0.2695
37881SOL    HW117048   1.787   1.251  10.310 -0.2845 -0.4176 -0.3753
37881SOL    HW217049   1.757   1.329  10.184 -0.0332  1.4932  0.7192
37882SOL     OW17050   1.629   4.978   9.833 -0.0186 -0.8001  0.1497
37882SOL    HW117051   1.638   4.896   9.880 -0.3566 -0.9952 -0.1282
37882SOL    HW217052   1.633   4.954   9.740  1.1053 -0.3681  0.0731
37883SOL     OW17053   8.606   9.294   9.195 -0.0412 -0.2455 -0.1299
37883SOL    HW117054   8.620   9.220   9.254  3.3809  0.4141 -0.0472
37883SOL    HW217055   8.607   9.255   9.107 -1.3083 -0.6748  0.0242
37884SOL     OW17056   8.828   1.248   9.938 -0.2844  0.1415 -0.2008
37884SOL    HW117057   8.832   1.229  10.032 -0.1126 -1.7867 -0.5625
37884SOL    HW217058   8.907   1.298   9.920 -0.1194  0.1935  0.6234
37885SOL     OW17059   4.399   6.825   1.944  0.2005  0.8359  0.4852
37885SOL    HW117060   4.331   6.877   1.987 -1.5644 -1.3646  0.4496
37885SOL    HW217061   4.431   6.766   2.012  1.3591  1.1487  0.2227
37886SOL     OW17062   1.514   5.330   6.478  0.4481 -0.8225  0.0631
37886SOL    HW117063   1.439   5.296   6.527 -0.2296 -0.8111 -0.9630
37886SOL    HW217064   1.583   5.338   6.544 -0.8128  0.3648  1.2720
37887SOL     OW17065   9.444   5.680   8.986  0.0302 -0.1108  0.1049
37887SOL    HW117066   9.520   5.679   8.927 -0.2387  0.7734 -0.2624
37887SOL    HW217067   9.368   5.682   8.927 -0.2719 -0.5242  0.4781
37888SOL     OW17068   4.954   5.724   0.496 -0.7991 -0.3398  0.4727
37888SOL    HW117069   5.044   5.702   0.520 -0.6804  1.1119  1.4387
37888SOL    HW217070   4.954   5.819   0.485 -1.9547 -0.4524 -0.6788
37889SOL     OW17071   7.388   7.423   9.650  0.4854  0.0440 -0.1472
37889SOL    HW117072   7.420   7.508   9.619 -2.5628  0.7749 -1.4241
37889SOL    HW217073   7.297   7.438   9.674  0.2564 -2.5921  0.8276
37890SOL     OW17074   2.495   2.984   7.062  0.0012 -0.1839 -0.2126
37890SOL    HW117075   2.442   2.925   7.009  1.1797 -1.1347 -0.3643
37890SOL    HW217076   2.479   2.956   7.152  1.6703 -1.6982 -0.3714
37891SOL     OW17077   8.797  10.345   7.820 -0.0482  0.3346 -0.1884
37891SOL    HW117078   8.781  10.251   7.827 -0.4311  0.4584  0.6371
37891SOL    HW217079   8.843  10.367   7.900 -0.2722  0.9224 -0.2207
37892SOL     OW17080   0.816   7.322   5.219 -0.8085 -0.7317  0.1509
37892SOL    HW117081   0.758   7.329   5.143 -0.6505  0.5081  0.1345
37892SOL    HW217082   0.872   7.399   5.213 -1.7827  0.1939  2.3259
37893SOL     OW17083   3.263   1.360   0.817  0.0580 -0.0906 -0.1178
37893SOL    HW117084   3.180   1.345   0.772 -0.1408 -0.1126  0.2544
37893SOL    HW217085   3.255   1.309   0.898 -0.4004  1.5863  0.9111
37894SOL     OW17086   7.716   8.060   8.496  0.2256  0.4097 -0.2482
37894SOL    HW117087   7.695   8.001   8.568  0.3269 -0.3231 -0.8089
37894SOL    HW217088   7.811   8.056   8.487  0.1790  0.1919 -0.6779
37895SOL     OW17089   7.903   2.989  10.291  0.0896 -0.2183  0.4093
37895SOL    HW117090   7.910   2.919  10.226 -1.5942  1.2311 -1.4065
37895SOL    HW217091   7.814   2.981  10.325  0.3374  0.2022  1.1698
37896SOL     OW17092   1.422   5.105   3.816 -0.1261 -0.4939  0.6908
37896SOL    HW117093   1.351   5.146   3.866  0.2171  0.6376  0.2527
37896SOL    HW217094   1.377   5.051   3.751 -0.5854 -0.4464  0.9666
37897SOL     OW17095   2.886   5.793   9.195 -0.1302  0.3396  0.4328
37897SOL    HW117096   2.971   5.751   9.181 -0.8995 -1.2115  0.3903
37897SOL    HW217097   2.894   5.878   9.151  0.5587 -0.7888 -1.6696
37898SOL     OW17098   0.719   5.538   4.430 -0.1032  0.7290 -0.1291
37898SOL    HW117099   0.661   5.492   4.368 -0.0044  1.4231 -0.7339
37898SOL    HW217100   0.691   5.629   4.425  0.1788  0.8509  0.5543
37899SOL     OW17101   5.241   9.695   3.032 -0.1415 -0.2735  0.0078
37899SOL    HW117102   5.306   9.625   3.030 -0.0621 -0.2627  1.7378
37899SOL    HW217103   5.157   9.650   3.019 -0.0252 -0.5933  0.3694
37900SOL     OW17104   6.870   4.277   2.152 -0.1948  0.0767 -0.1606
37900SOL    HW117105   6.965   4.261   2.155 -0.5804 -2.5470 -0.3219
37900SOL    HW217106   6.857   4.327   2.072  0.8986 -1.0192 -1.0523
37901SOL     OW17107   6.795   3.506   4.022 -0.2759  0.4099 -0.0063
37901SOL    HW117108   6.845   3.471   4.095 -0.5866  0.6572  0.3233
37901SOL    HW217109   6.712   3.458   4.025 -0.9553  1.6377  0.8332
37902SOL     OW17110   3.536   5.212   9.058  0.2599 -0.2209  0.7621
37902SOL    HW117111   3.622   5.176   9.078 -1.2424 -2.9484  2.7193
37902SOL    HW217112   3.501   5.240   9.143 -0.8769  0.6936  0.0233
37903SOL     OW17113   7.390   9.776   1.944  0.6243  0.4555  0.3544
37903SOL    HW117114   7.409   9.810   2.032 -0.2933  0.6305  0.4887
37903SOL    HW217115   7.359   9.852   1.895  2.6929  0.7024 -0.6127
37904SOL     OW17116  10.909   8.464   7.223  0.2302 -0.6216  0.1540
37904SOL    HW117117  10.872   8.392   7.273  1.9862 -0.3418  1.9258
37904SOL    HW217118  10.877   8.543   7.267  2.6996 -0.3783  1.6100
37905SOL     OW17119   4.779   2.767   0.515  0.2231 -0.0515  0.1307
37905SOL    HW117120   4.867   2.758   0.553  0.0258 -1.7145  0.2162
37905SOL    HW217121   4.795   2.798   0.426  0.9166 -0.4882  0.0947
37906SOL     OW17122   8.118   3.358   9.427 -0.5674  0.5016  0.3714
37906SOL    HW117123   8.080   3.437   9.465  0.9339  0.8958  1.0780
37906SOL    HW217124   8.165   3.389   9.349 -0.2567  0.2749  0.4636
37907SOL     OW17125   5.075   7.564  10.484 -0.8771  0.0756 -0.0821
37907SOL    HW117126   5.014   7.499  10.518 -0.8793 -0.3059 -0.8117
37907SOL    HW217127   5.159   7.519  10.480 -0.9145  0.0636 -0.7555
37908SOL     OW17128   8.257   7.687   0.070 -0.0427 -0.0583 -0.0847
37908SOL    HW117129   8.243   7.623  -0.000 -0.4469 -0.7725  0.6424
37908SOL    HW217130   8.170   7.723   0.087 -0.5066 -2.1610  2.2016
37909SOL     OW17131   5.426   3.651   5.321 -0.0588  0.0270 -0.0639
37909SOL    HW117132   5.336   3.620   5.308 -0.0106 -0.7328  1.3395
37909SOL    HW217133   5.480   3.594   5.267 -0.0916 -1.5933  1.5984
37910SOL     OW17134   6.305   6.401   5.711  0.4591  0.1227 -0.0902
37910SOL    HW117135   6.268   6.438   5.791  0.9136  0.2829  0.0490
37910SOL    HW217136   6.387   6.448   5.699 -0.1603  0.9012 -1.2829
37911SOL     OW17137   9.079   7.444   4.274 -0.0142 -0.4514  0.5223
37911SOL    HW117138   9.122   7.445   4.189  0.0094 -0.3597  0.5356
37911SOL    HW217139   9.101   7.358   4.311 -0.8334 -0.8684  0.0316
37912SOL     OW17140   5.433   9.884   5.570  0.5031  0.3490  0.6820
37912SOL    HW117141   5.344   9.905   5.545  0.6257  1.8823  1.4961
37912SOL    HW217142   5.424   9.832   5.650  0.3590  1.5216  1.4498
37913SOL     OW17143   5.271   1.032   7.806 -0.1009 -0.7491  0.5944
37913SOL    HW117144   5.311   1.108   7.848  1.8127 -1.1781 -0.3621
37913SOL    HW217145   5.290   1.044   7.713 -1.0457 -1.6592  0.2786
37914SOL     OW17146   8.688   2.230   4.616  0.1079  0.1823  0.2791
37914SOL    HW117147   8.680   2.165   4.546 -1.5732  0.1695  0.4672
37914SOL    HW217148   8.639   2.193   4.689  0.8676  0.7366  1.0691
37915SOL     OW17149   1.454  10.765   8.767 -0.0297 -0.5253  0.2417
37915SOL    HW117150   1.524  10.820   8.801  0.6027 -1.8217  1.0652
37915SOL    HW217151   1.458  10.777   8.673  0.3350  0.5562  0.3854
37916SOL     OW17152  10.153   4.523   8.994  0.6037  0.0612  0.4117
37916SOL    HW117153  10.113   4.604   8.962 -0.7557  0.1219  2.1354
37916SOL    HW217154  10.089   4.489   9.057  1.4306 -2.0457  0.1337
37917SOL     OW17155   6.190  10.737   8.507  0.0022 -0.0607  0.3414
37917SOL    HW117156   6.227  10.825   8.498 -2.8456  1.0269 -1.4989
37917SOL    HW217157   6.210  10.711   8.597  3.9820  0.9603 -0.1625
37918SOL     OW17158   9.822   5.772   0.869  0.0281  0.6461  0.1648
37918SOL    HW117159   9.822   5.863   0.897 -0.7432  0.0224  2.2600
37918SOL    HW217160   9.738   5.737   0.899 -0.9141 -0.0489 -3.0450
37919SOL     OW17161   1.028   8.395  10.524  0.2792  0.3221 -0.2240
37919SOL    HW117162   1.075   8.313  10.539 -0.1951  0.2904  1.1215
37919SOL    HW217163   1.095   8.463  10.536  0.4481  0.1854 -0.3808
37920SOL     OW17164   9.730   0.898   1.986 -0.2036  0.4800  0.7478
37920SOL    HW117165   9.769   0.873   1.902 -1.6972 -0.2722  0.2579
37920SOL    HW217166   9.805   0.916   2.043  0.8389 -0.0686 -0.4285
37921SOL     OW17167   1.446   2.628  10.028  0.1402  0.0311 -0.4141
37921SOL    HW117168   1.524   2.658   9.981  0.3864 -0.2462 -0.1870
37921SOL    HW217169   1.444   2.534  10.014  1.4888 -0.4163  1.9835
37922SOL     OW17170  10.463   5.781   0.625  0.4196 -0.5208  0.2544
37922SOL    HW117171  10.439   5.862   0.581 -0.8656 -0.6532  0.6752
37922SOL    HW217172  10.533   5.744   0.572  2.2646  1.7294  1.0379
37923SOL     OW17173   1.531   6.133   6.543 -0.5906  0.0129  0.2473
37923SOL    HW117174   1.513   6.126   6.449 -0.8975 -1.2147  0.3905
37923SOL    HW217175   1.492   6.054   6.581 -1.4936  1.0595  1.5539
37924SOL     OW17176  10.266   0.953   0.850  0.0038  0.2588 -0.5103
37924SOL    HW117177  10.243   1.045   0.858  0.4496  0.3494 -0.2590
37924SOL    HW217178  10.204   0.907   0.907  0.6253  0.5293  0.3931
37925SOL     OW17179  10.072   4.082   4.502 -0.6044  0.2096  0.4185
37925SOL    HW117180   9.998   4.112   4.450 -0.1656 -0.0162 -0.3590
37925SOL    HW217181  10.033   4.030   4.572 -1.2301  0.8080  0.5220
37926SOL     OW17182   1.145   4.832   3.088 -0.5081  0.0303 -0.6426
37926SOL    HW117183   1.212   4.899   3.098  1.2403 -1.7584  0.0161
37926SOL    HW217184   1.194   4.751   3.075 -2.5351 -1.3774  0.1638
37927SOL     OW17185   6.499   0.981   5.054  0.2742  0.6257  1.2116
37927SOL    HW117186   6.585   1.022   5.062 -0.0165  1.3882  0.4478
37927SOL    HW217187   6.468   1.007   4.968  0.6607 -2.3076  0.1436
37928SOL     OW17188   6.255   9.539   4.344 -0.3502 -0.6833  0.0578
37928SOL    HW117189   6.161   9.549   4.331 -0.3761 -0.7986  0.1572
37928SOL    HW217190   6.289   9.629   4.347 -0.5259 -0.6360  0.5469
37929SOL     OW17191   3.147  10.688   1.084  0.2392  0.5627  0.1126
37929SOL    HW117192   3.157  10.616   1.147  0.0808 -0.1670 -0.6798
37929SOL    HW217193   3.145  10.767   1.138 -0.4271 -0.0857  1.0655
37930SOL     OW17194   7.433   2.477   4.400 -0.0190  0.7113  0.2085
37930SOL    HW117195   7.402   2.420   4.471 -1.2830  0.0765 -0.8232
37930SOL    HW217196   7.528   2.481   4.411  0.1182 -1.8107  0.1575
37931SOL     OW17197   8.476   8.991   8.812  0.2633 -0.1624 -0.1573
37931SOL    HW117198   8.398   8.973   8.760  0.1695  2.5208 -1.0017
37931SOL    HW217199   8.549   8.981   8.751  0.2856  1.1350 -0.3574
37932SOL     OW17200   9.210   7.435   3.477 -0.1883 -0.4381  0.3762
37932SOL    HW117201   9.276   7.454   3.410 -0.0043 -2.2500  0.0270
37932SOL    HW217202   9.139   7.497   3.458  0.2880 -0.2518 -0.8762
37933SOL     OW17203   7.955   1.510   1.815  0.1546  0.0815  0.0693
37933SOL    HW117204   8.027   1.449   1.826 -0.6778 -0.7684  0.8213
37933SOL    HW217205   7.970   1.578   1.881 -0.0164 -0.3726  0.5770
37934SOL     OW17206   9.885  10.607   4.635 -0.3513  0.1466  0.5260
37934SOL    HW117207   9.796  10.603   4.672 -1.1348 -1.3731 -1.4345
37934SOL    HW217208   9.885  10.686   4.582 -0.9857 -0.5694 -0.5537
37935SOL     OW17209   7.760  10.440  10.206 -0.6858  0.0399 -0.6957
37935SOL    HW117210   7.727  10.410  10.122  0.2050  0.1873 -1.1045
37935SOL    HW217211   7.701  10.511  10.232 -0.1695  0.8951 -1.8288
37936SOL     OW17212  10.265   9.155   6.720  0.4756 -0.0922  0.1744
37936SOL    HW117213  10.237   9.070   6.687  2.6798 -1.5198  1.9119
37936SOL    HW217214  10.317   9.192   6.649 -1.3786  0.3230 -1.0103
37937SOL     OW17215   6.418   2.919   1.223  0.4218 -0.2821  0.7667
37937SOL    HW117216   6.414   2.840   1.277 -0.7353 -1.0156 -0.3681
37937SOL    HW217217   6.382   2.892   1.138 -1.1114  1.7644  0.7335
37938SOL     OW17218   5.988   3.632   2.579  0.4430 -0.5187 -0.0998
37938SOL    HW117219   5.958   3.541   2.581  0.3999 -0.5079 -0.2851
37938SOL    HW217220   5.941   3.674   2.651 -1.8479  0.0822 -1.8908
37939SOL     OW17221   4.923   9.377   5.481 -0.2368 -0.0145  0.2550
37939SOL    HW117222   4.868   9.401   5.556 -0.1781  1.5291 -0.1709
37939SOL    HW217223   4.883   9.298   5.446 -0.6752 -0.3556  1.5080
37940SOL     OW17224   5.775   4.111  10.608 -0.3159 -0.3407  0.3030
37940SOL    HW117225   5.839   4.042  10.624  1.6945  0.6488 -2.8822
37940SOL    HW217226   5.816   4.191  10.641 -2.1612 -0.4244  2.9594
37941SOL     OW17227   6.080   8.886   8.876 -0.0829  0.1703 -0.6197
37941SOL    HW117228   6.080   8.844   8.962 -3.4817 -0.0037 -0.6498
37941SOL    HW217229   6.092   8.979   8.895 -1.6391  0.2301  0.1240
37942SOL     OW17230   0.825   5.949   9.317 -0.0828  0.0516 -0.5620
37942SOL    HW117231   0.913   5.951   9.355 -0.1318  0.0272 -0.4440
37942SOL    HW217232   0.830   6.005   9.240 -0.0223  0.2319 -0.4252
37943SOL     OW17233   7.779   8.744   0.695 -0.4509  0.0619 -0.1759
37943SOL    HW117234   7.771   8.657   0.735  0.1960  0.6898  1.3730
37943SOL    HW217235   7.689   8.777   0.691 -0.4785  0.2505  1.4122
37944SOL     OW17236   8.934   3.136  10.224  0.3755 -0.3346  0.2112
37944SOL    HW117237   8.978   3.148  10.139 -0.0162  1.6055  0.2551
37944SOL    HW217238   8.860   3.196  10.221  2.2189  2.2907  3.1995
37945SOL     OW17239   8.005   9.698   9.992 -0.0344  0.3974 -0.2494
37945SOL    HW117240   7.910   9.703   9.981 -0.0257 -0.5488 -0.8095
37945SOL    HW217241   8.040   9.703   9.903  0.4326  0.7003 -0.0494
37946SOL     OW17242   8.874   7.565   0.810  0.0536 -0.0601  0.4119
37946SOL    HW117243   8.841   7.492   0.759 -3.4924  1.3824  0.4878
37946SOL    HW217244   8.890   7.634   0.745  0.4729  0.0874  0.6707
37947SOL     OW17245  10.296   1.062   8.773  0.0545 -0.4616  0.3635
37947SOL    HW117246  10.381   1.027   8.746 -0.1694 -0.4050 -0.4115
37947SOL    HW217247  10.286   1.032   8.864  1.0056 -0.2653  0.5380
37948SOL     OW17248   5.176   2.879   4.755  0.3099  0.5096  0.0434
37948SOL    HW117249   5.198   2.854   4.665  1.7906 -0.7121  0.7235
37948SOL    HW217250   5.243   2.943   4.779  0.5781 -0.0048  0.6641
37949SOL     OW17251   8.071   8.884   7.054  0.0975  0.7408 -0.2076
37949SOL    HW117252   8.142   8.821   7.038 -1.2996 -0.7863 -0.5463
37949SOL    HW217253   8.032   8.855   7.137 -2.0929 -0.3506 -1.5711
37950SOL     OW17254   0.623   6.635   2.873 -0.0482 -0.1361  0.3562
37950SOL    HW117255   0.677   6.651   2.796 -0.5416 -1.8654 -0.3835
37950SOL    HW217256   0.565   6.710   2.879 -0.3390 -0.2293 -1.2512
37951SOL     OW17257   7.422   9.024   6.119 -0.0048 -0.0383 -0.1156
37951SOL    HW117258   7.333   8.990   6.131  0.3035 -1.9102 -2.8083
37951SOL    HW217259   7.413   9.119   6.130 -2.0326 -0.3509  1.1696
37952SOL     OW17260   9.288   4.698   6.494 -0.7140  0.0114 -0.1373
37952SOL    HW117261   9.197   4.669   6.484 -0.5286  0.0594 -2.2098
37952SOL    HW217262   9.340   4.619   6.478 -0.3818 -0.4135  2.6896
37953SOL     OW17263   9.930  10.849  10.419 -0.3784  0.8416  0.0699
37953SOL    HW117264   9.887  10.908  10.358 -1.6969 -1.9534 -1.8394
37953SOL    HW217265   9.860  10.812  10.471  0.4581  1.1577  1.4428
37954SOL     OW17266   6.786   6.515   2.587  0.7244 -0.0114 -0.0471
37954SOL    HW117267   6.744   6.446   2.639 -1.9020 -0.4758 -2.6911
37954SOL    HW217268   6.753   6.597   2.624  1.4260 -0.2258  1.0875
37955SOL     OW17269   2.935   0.832   2.650 -0.3572 -0.0743 -0.6285
37955SOL    HW117270   2.856   0.876   2.619  0.1200  0.5698 -0.9631
37955SOL    HW217271   2.957   0.771   2.580  0.3116  0.8627 -1.2557
37956SOL     OW17272   3.508   6.598   1.767  0.1482 -0.0246 -0.8235
37956SOL    HW117273   3.421   6.567   1.743 -0.2129  0.7874 -0.5798
37956SOL    HW217274   3.517   6.683   1.724 -0.9379  1.9650  2.6966
37957SOL     OW17275   4.376   4.103   2.030  0.0852 -0.0016 -0.1516
37957SOL    HW117276   4.399   4.147   1.947 -1.5116  3.2600  1.0290
37957SOL    HW217277   4.280   4.104   2.032  0.1036 -0.4870  1.4953
37958SOL     OW17278   2.992   7.486   2.973  0.0894  0.6167 -0.0268
37958SOL    HW117279   2.918   7.445   2.928 -0.5519  0.4694  1.1582
37958SOL    HW217280   3.042   7.412   3.008  0.7129  0.7232 -0.6685
37959SOL     OW17281   7.971   2.527   0.103  0.3389 -0.1958  0.1294
37959SOL    HW117282   7.900   2.517   0.039  0.2891  0.4254  0.0802
37959SOL    HW217283   7.947   2.606   0.152 -0.0675 -1.1405  1.4905
37960SOL     OW17284   8.758   2.093   1.344  0.1267  0.0542  0.7016
37960SOL    HW117285   8.820   2.165   1.349  1.0115 -0.8313  2.9234
37960SOL    HW217286   8.672   2.134   1.352  0.4897  1.0802 -0.4984
37961SOL     OW17287  10.759  10.095   3.030  0.2818 -0.0576 -0.2762
37961SOL    HW117288  10.782  10.104   2.937  1.0719 -0.5437 -0.1309
37961SOL    HW217289  10.668  10.125   3.035  0.6237  1.1321 -0.9972
37962SOL     OW17290  10.398   3.566   4.647  0.3488  0.4175  0.2990
37962SOL    HW117291  10.326   3.558   4.709  1.5380  0.4950  1.7195
37962SOL    HW217292  10.433   3.478   4.637 -0.9371  0.0880 -1.6535
37963SOL     OW17293   2.824   6.214   9.324  0.1526  0.0484  0.3338
37963SOL    HW117294   2.847   6.294   9.277  0.7073  0.2512  0.9553
37963SOL    HW217295   2.873   6.218   9.406 -1.5528  0.1902  1.3968
37964SOL     OW17296   1.955   8.809   9.802  0.4060 -0.6591 -0.1884
37964SOL    HW117297   1.896   8.733   9.796 -1.1414  0.3276  1.9146
37964SOL    HW217298   2.042   8.772   9.790 -0.2381 -2.9540  1.6283
37965SOL     OW17299   9.077   8.836   6.615 -0.4818  0.3604  0.2690
37965SOL    HW117300   9.028   8.902   6.566  0.3342  0.3384 -0.5920
37965SOL    HW217301   9.029   8.754   6.601  1.7905 -0.4293 -3.6860
37966SOL     OW17302   9.263   2.744   2.197  0.6204 -0.5673 -0.4817
37966SOL    HW117303   9.267   2.831   2.238 -1.3349 -1.3301  1.4416
37966SOL    HW217304   9.337   2.696   2.235  0.6950 -0.2826 -0.2671
37967SOL     OW17305   2.644   2.144   2.175  0.0280 -0.3025 -0.2311
37967SOL    HW117306   2.624   2.079   2.242 -1.8590 -0.3937 -0.8649
37967SOL    HW217307   2.685   2.094   2.104  0.7496 -0.4176  0.2613
37968SOL     OW17308   4.725   5.194  10.457  0.3635 -0.4567 -0.2950
37968SOL    HW117309   4.731   5.278  10.501 -0.9233 -0.6871  0.3328
37968SOL    HW217310   4.638   5.160  10.480  1.1277 -2.2745  0.0427
37969SOL     OW17311  10.178   9.265   7.023  0.2470 -0.3638  0.4797
37969SOL    HW117312  10.209   9.174   7.024 -1.6236 -1.0533 -1.0810
37969SOL    HW217313  10.205   9.298   6.937 -2.3997 -0.6662 -0.4881
37970SOL     OW17314   5.837   2.278   6.046 -0.7226 -0.0646 -0.7319
37970SOL    HW117315   5.754   2.324   6.036  0.5422  2.9102  1.4530
37970SOL    HW217316   5.870   2.268   5.956 -1.2419  3.0923 -1.3566
37971SOL     OW17317   5.477   7.993  10.201 -0.1028  0.0985  0.2667
37971SOL    HW117318   5.566   8.025  10.212  0.3542 -1.1270  0.2141
37971SOL    HW217319   5.429   8.066  10.163  0.4572  1.3664  1.9250
37972SOL     OW17320   3.721   7.336   9.855 -0.1531 -0.1673  0.2808
37972SOL    HW117321   3.633   7.306   9.878 -0.6225  1.8488  1.2108
37972SOL    HW217322   3.776   7.303   9.927 -0.2553 -0.7922  0.0813
37973SOL     OW17323   1.318   8.235   3.047  0.2662 -0.5804  0.2080
37973SOL    HW117324   1.363   8.295   3.107 -0.6677 -0.4497  0.7795
37973SOL    HW217325   1.249   8.195   3.100  0.8238 -2.1058 -0.1988
37974SOL     OW17326   3.149   7.666   6.508 -0.6855 -0.0831  0.3118
37974SOL    HW117327   3.209   7.616   6.453 -0.6136 -0.4328  0.7023
37974SOL    HW217328   3.200   7.685   6.587 -1.5715 -1.7595  1.3371
37975SOL     OW17329   1.716   9.853   1.945 -0.6087  0.1446 -0.2079
37975SOL    HW117330   1.765   9.774   1.969  0.6530  1.3346  1.2553
37975SOL    HW217331   1.768   9.894   1.877  1.1565  2.0381  2.1777
37976SOL     OW17332   9.980   0.718   2.388 -0.6946 -0.4036  0.4475
37976SOL    HW117333   9.972   0.687   2.478  0.3045  1.1935  1.1166
37976SOL    HW217334  10.053   0.668   2.351 -0.3949 -0.2927  0.8823
37977SOL     OW17335   4.837   0.478   5.552 -0.1306 -0.0170 -0.4676
37977SOL    HW117336   4.850   0.406   5.614 -1.0361  1.6773  1.7530
37977SOL    HW217337   4.861   0.557   5.601 -2.3243  1.5241 -1.7863
37978SOL     OW17338   0.926   8.075   6.187  0.2748 -0.1307 -0.0323
37978SOL    HW117339   0.871   8.014   6.138 -0.5320  0.5949 -0.0296
37978SOL    HW217340   0.900   8.063   6.278  1.1506 -0.8315  0.1431
37979SOL     OW17341   9.977   5.701  10.113 -0.2573  0.3202  0.5285
37979SOL    HW117342   9.896   5.682  10.160 -0.1541  0.8471  0.9306
37979SOL    HW217343  10.043   5.710  10.181 -0.4841  2.9929  0.4516
37980SOL     OW17344   1.026   2.622   7.340  0.1350  0.1165 -0.2510
37980SOL    HW117345   1.087   2.572   7.394 -1.1872 -0.3778  0.8166
37980SOL    HW217346   0.991   2.689   7.400  0.6200  1.2364 -1.2112
37981SOL     OW17347   5.735   4.001   5.244 -0.8319  0.0903  0.7751
37981SOL    HW117348   5.747   3.924   5.188  1.8823  0.6955  0.4193
37981SOL    HW217349   5.773   3.975   5.328 -0.4731  0.8179  0.8399
37982SOL     OW17350  10.258  10.197   6.325 -0.2036 -0.1966 -0.0390
37982SOL    HW117351  10.346  10.161   6.336  0.1017  0.3275 -0.7531
37982SOL    HW217352  10.204  10.122   6.302 -0.6060 -1.1307  3.6397
37983SOL     OW17353   3.930   8.005   2.930 -0.0906 -0.5605  0.1110
37983SOL    HW117354   3.986   8.044   2.863  1.7191 -0.9390  1.3606
37983SOL    HW217355   3.990   7.952   2.983 -1.4840 -0.2731  2.0051
37984SOL     OW17356   3.457  10.199  10.854 -0.6684  1.1808 -0.3706
37984SOL    HW117357   3.414  10.133  10.909  0.9174  1.0184  0.7032
37984SOL    HW217358   3.435  10.173  10.765 -0.8660 -0.2495  0.0784
37985SOL     OW17359   8.915  10.427   9.601  0.5193  0.0551  0.0600
37985SOL    HW117360   8.890  10.465   9.517  0.3786 -1.3563 -0.5614
37985SOL    HW217361   9.009  10.410   9.593  0.6471  0.5654  0.4574
37986SOL     OW17362   4.980   5.385   3.091 -0.1915  0.3195  0.8847
37986SOL    HW117363   5.062   5.375   3.044 -0.4444 -1.1157  0.7182
37986SOL    HW217364   4.937   5.460   3.050  0.2150 -0.0533 -0.2459
37987SOL     OW17365   8.804   2.256   5.268  0.3637 -0.0139  0.1619
37987SOL    HW117366   8.865   2.261   5.194  2.3436  1.2389  1.8225
37987SOL    HW217367   8.735   2.319   5.247  0.6955  0.0287 -0.8133
37988SOL     OW17368   2.248   2.004   4.875  0.2975  0.0921 -0.4462
37988SOL    HW117369   2.211   2.029   4.790  0.9983  0.8327 -0.5493
37988SOL    HW217370   2.294   1.922   4.858 -0.4468 -0.3054 -0.5421
37989SOL     OW17371   2.712   6.724   0.626  0.4586  0.7256 -0.0596
37989SOL    HW117372   2.666   6.702   0.707 -0.2155  2.1232 -0.0638
37989SOL    HW217373   2.665   6.676   0.557  0.1967  0.6368  0.1828
37990SOL     OW17374   5.491   8.542   6.532 -0.2395 -0.2060 -0.4250
37990SOL    HW117375   5.395   8.538   6.528 -0.1595 -0.7337 -2.2391
37990SOL    HW217376   5.519   8.540   6.441  1.5614 -1.3602  0.1253
37991SOL     OW17377   2.019   5.365   2.794  0.2703  0.2227 -0.0513
37991SOL    HW117378   2.003   5.407   2.710  1.3936 -0.7190 -0.7509
37991SOL    HW217379   1.970   5.283   2.790  0.6045  0.0151  0.0662
37992SOL     OW17380   6.474   4.651   5.371 -0.8985 -0.2253  0.1405
37992SOL    HW117381   6.403   4.612   5.423 -1.0190  0.8215  0.7760
37992SOL    HW217382   6.442   4.738   5.349  0.3661  0.4027  0.7681
37993SOL     OW17383   9.040   3.232   0.184 -0.1645  0.7184 -0.1505
37993SOL    HW117384   9.030   3.299   0.116  0.1229  1.3946  0.4707
37993SOL    HW217385   9.133   3.210   0.183 -0.4907 -0.6418 -1.2647
37994SOL     OW17386   0.435   9.638   3.189 -0.5047 -0.1013  0.1020
37994SOL    HW117387   0.385   9.659   3.268 -0.2579  1.0045 -0.0299
37994SOL    HW217388   0.487   9.562   3.213 -0.7736 -0.0425  0.8708
37995SOL     OW17389   6.937   7.079   8.885 -0.1217 -0.3904  0.4968
37995SOL    HW117390   7.030   7.058   8.879 -0.4609 -1.5805 -0.9786
37995SOL    HW217391   6.934   7.166   8.925  1.6544 -0.0349 -0.1121
37996SOL     OW17392   3.253  10.610   1.430  0.5521  0.1476 -0.1666
37996SOL    HW117393   3.235  10.636   1.521 -1.6421 -0.2577 -0.4589
37996SOL    HW217394   3.215  10.523   1.422  0.7139  0.1955 -1.4969
37997SOL     OW17395   9.233   9.022   5.923  0.2805  0.2663  0.2726
37997SOL    HW117396   9.198   9.036   6.011  0.8066 -2.7997  1.0446
37997SOL    HW217397   9.316   9.068   5.922  1.1019 -1.0969  2.0259
37998SOL     OW17398  10.963   2.702   3.110 -0.2355 -0.1920 -0.2494
37998SOL    HW117399  10.889   2.755   3.141  1.9083  2.2450  0.8883
37998SOL    HW217400  10.941   2.682   3.019 -1.5961  1.8092 -0.3940
37999SOL     OW17401   8.421   0.788   8.080  0.0593 -0.2118 -0.3432
37999SOL    HW117402   8.478   0.761   8.153 -0.6864 -0.8183  0.0214
37999SOL    HW217403   8.428   0.717   8.016 -1.3516 -0.9676  0.3061
38000SOL     OW17404   9.270   3.691   5.317  0.2356  0.1427  0.1547
38000SOL    HW117405   9.299   3.777   5.287  0.2220 -0.2393 -0.9574
38000SOL    HW217406   9.206   3.711   5.386 -0.3344  1.0328 -0.6156
38001SOL     OW17407   3.259   6.027   8.148  0.0653 -0.1439  0.1236
38001SOL    HW117408   3.268   6.081   8.070 -0.0079  1.6203  1.2999
38001SOL    HW217409   3.173   6.049   8.183  0.0331 -1.0294  0.6121
38002SOL     OW17410   8.939   7.746   5.763  0.1291  0.6408  0.2686
38002SOL    HW117411   8.934   7.700   5.679  0.7566 -2.1335  1.7122
38002SOL    HW217412   8.872   7.705   5.817  0.0210  2.1303  1.3011
38003SOL     OW17413   8.364   5.010   9.592 -0.4513  0.3040 -0.0398
38003SOL    HW117414   8.302   4.958   9.644  0.2380  0.6912  1.1808
38003SOL    HW217415   8.335   5.101   9.604 -0.1827  0.4110 -0.1910
38004SOL     OW17416   9.020   0.421   1.454 -0.1671 -0.1909  0.0036
38004SOL    HW117417   8.964   0.471   1.514  0.5758  0.5217  0.1110
38004SOL    HW217418   8.998   0.330   1.472  0.3197 -0.0011  1.6369
38005SOL     OW17419  10.601   1.715   3.987  0.2227  0.2386  0.2343
38005SOL    HW117420  10.553   1.795   4.008  0.8303  0.6534  0.0563
38005SOL    HW217421  10.619   1.676   4.073 -0.0988  0.2792  0.3217
38006SOL     OW17422   7.342   7.080   4.913  0.8682 -0.0276  0.5350
38006SOL    HW117423   7.253   7.099   4.944  0.3461 -1.9212  0.2142
38006SOL    HW217424   7.366   7.158   4.862 -0.3262  0.7881  1.1812
38007SOL     OW17425   5.417   1.121   1.259 -0.2691  0.5808 -0.6475
38007SOL    HW117426   5.429   1.108   1.353 -4.0229  0.3572 -0.1123
38007SOL    HW217427   5.445   1.039   1.219 -2.5856 -0.9310  0.7048
38008SOL     OW17428   0.823   4.314   6.452 -0.5951  0.9089 -0.4116
38008SOL    HW117429   0.917   4.294   6.452 -0.4630  1.4384  1.2970
38008SOL    HW217430   0.809   4.364   6.533 -2.5713 -0.2705  0.0188
38009SOL     OW17431   0.658  10.806   4.160  0.3661 -0.0287 -0.3382
38009SOL    HW117432   0.622  10.718   4.158  1.3851 -0.4500 -0.2174
38009SOL    HW217433   0.749  10.797   4.132  0.3554  1.0472 -0.7664
38010SOL     OW17434   8.324   0.062   6.737  0.2477  0.1899  0.0695
38010SOL    HW117435   8.328   0.119   6.660  2.9350 -2.1143 -1.5732
38010SOL    HW217436   8.231   0.041   6.746 -0.0808  0.2825 -2.7042
38011SOL     OW17437   2.055   4.237  10.601  0.2125  0.8844  0.2266
38011SOL    HW117438   2.028   4.150  10.573 -0.9096  1.4680 -0.5520
38011SOL    HW217439   2.060   4.288  10.520 -0.6748  1.9408  0.8170
38012SOL     OW17440   0.364   2.731  10.239 -0.0173 -0.2231  0.3632
38012SOL    HW117441   0.311   2.708  10.315 -0.7962  0.1724 -0.0575
38012SOL    HW217442   0.308   2.787  10.186 -0.0918 -1.8256 -1.3146
38013SOL     OW17443   8.203   1.680   7.426  0.2474  0.2206  0.3628
38013SOL    HW117444   8.187   1.608   7.487 -0.0271 -0.0690 -0.0456
38013SOL    HW217445   8.150   1.658   7.349  0.4830  0.6521  0.0767
38014SOL     OW17446   8.728   5.406   5.395 -0.0483  0.2051 -0.5732
38014SOL    HW117447   8.761   5.342   5.458 -2.1378  0.0823  0.4392
38014SOL    HW217448   8.782   5.484   5.410  0.3957 -0.2726  0.3926
38015SOL     OW17449   0.977   4.536   4.469 -0.0098  0.4743  0.2021
38015SOL    HW117450   0.975   4.458   4.525  0.8663  0.4081  0.1488
38015SOL    HW217451   0.898   4.529   4.416  0.5541 -0.8817 -0.4808
38016SOL     OW17452   4.877   6.936   4.222 -0.0127 -0.3356  0.4520
38016SOL    HW117453   4.868   7.010   4.162 -1.2747 -1.0898 -0.3130
38016SOL    HW217454   4.821   6.958   4.296  1.3412  0.4749  1.2555
38017SOL     OW17455  10.909   4.665  10.850  0.2908 -0.3652 -0.2180
38017SOL    HW117456  10.999   4.696  10.850  0.3538 -0.5453 -0.4293
38017SOL    HW217457  10.892   4.640  10.759 -0.0206 -0.1857 -0.2092
38018SOL     OW17458   8.529   3.031   3.124 -0.3561 -0.1963  0.2698
38018SOL    HW117459   8.436   3.007   3.131 -0.7675  1.3122  0.2532
38018SOL    HW217460   8.563   2.974   3.055 -1.1302 -1.1668  0.6696
38019SOL     OW17461   0.653   4.306   8.795  0.1205  0.1804  0.2685
38019SOL    HW117462   0.633   4.338   8.707  0.3795 -0.2522  0.0522
38019SOL    HW217463   0.590   4.235   8.809 -0.5838  0.9015  0.8262
38020SOL     OW17464   7.017  10.587   2.148  0.6088  0.1453  0.5376
38020SOL    HW117465   6.933  10.632   2.157  1.2265  1.2446  0.7644
38020SOL    HW217466   7.054  10.621   2.066  1.6485  0.9930  1.3513
38021SOL     OW17467   9.046   4.137   1.330 -0.1987 -0.3113  0.4505
38021SOL    HW117468   9.134   4.143   1.367 -0.6753 -2.2353  1.9537
38021SOL    HW217469   8.988   4.132   1.406 -1.6922  1.6389 -0.5027
38022SOL     OW17470   3.389   0.859   4.726 -0.5936  0.1552  0.3664
38022SOL    HW117471   3.454   0.860   4.796  0.3124 -0.7048 -0.4372
38022SOL    HW217472   3.363   0.767   4.719  1.1497 -0.2217 -2.0284
38023SOL     OW17473   9.852  10.754   9.114  1.0387  0.4282 -0.1794
38023SOL    HW117474   9.807  10.713   9.188  1.6924 -1.4498 -0.7943
38023SOL    HW217475   9.822  10.705   9.038  0.1481  2.5408 -1.2138
38024SOL     OW17476   6.534   6.816   0.751 -0.1547 -0.3481 -0.6362
38024SOL    HW117477   6.577   6.839   0.834 -0.7298 -0.8215 -0.2092
38024SOL    HW217478   6.446   6.852   0.759  0.0592  0.3658 -1.3995
38025SOL     OW17479   9.620   3.701   8.839 -0.3205  0.0660  0.0696
38025SOL    HW117480   9.682   3.768   8.866  1.2223 -0.9816 -0.8227
38025SOL    HW217481   9.539   3.724   8.884  0.4989  1.8799  0.6500
38026SOL     OW17482   2.423   1.031   1.350 -0.5197  0.7867 -0.0110
38026SOL    HW117483   2.406   1.115   1.393  0.5629  0.8962  0.2295
38026SOL    HW217484   2.511   1.007   1.379 -0.2124  0.3204 -1.2922
38027SOL     OW17485   1.862   3.525   4.106 -0.4733  0.5657 -0.8210
38027SOL    HW117486   1.939   3.565   4.067  0.8358  1.6072  2.6342
38027SOL    HW217487   1.791   3.586   4.085  0.2275  1.2176 -1.3225
38028SOL     OW17488   7.296  10.544   0.893  0.3865  0.0617 -0.1470
38028SOL    HW117489   7.230  10.613   0.887  0.6870  0.3322 -0.3601
38028SOL    HW217490   7.312  10.534   0.987  2.9119  2.7659 -0.2086
38029SOL     OW17491   1.110   2.968   1.286 -0.1017  0.3682  0.2511
38029SOL    HW117492   1.096   3.049   1.335  0.6729  1.2646 -0.9665
38029SOL    HW217493   1.151   2.908   1.348  0.4647  1.3414  0.8169
38030SOL     OW17494   9.359  10.952   5.369 -0.3792  0.2733 -0.4553
38030SOL    HW117495   9.370  11.021   5.303  2.1209  1.2111  0.8793
38030SOL    HW217496   9.334  10.875   5.319  0.8402  1.1208 -2.4498
38031SOL     OW17497  10.423   1.237   1.565  0.1207  0.2178 -0.1104
38031SOL    HW117498  10.463   1.188   1.637 -0.2036  1.3691  0.8736
38031SOL    HW217499  10.331   1.209   1.565  0.7058 -1.9181 -1.9381
38032SOL     OW17500   0.117   9.447   4.165 -0.6251 -0.3993 -0.8039
38032SOL    HW117501   0.180   9.376   4.157  0.3400  0.3136  0.3677
38032SOL    HW217502   0.070   9.446   4.081  0.7202 -1.1328 -1.5720
38033SOL     OW17503   4.264   5.911   4.216  0.0164  0.5691 -0.0643
38033SOL    HW117504   4.352   5.892   4.183 -0.3211  0.9637 -1.2331
38033SOL    HW217505   4.273   5.996   4.259  0.2640  0.4913  0.0377
38034SOL     OW17506   3.496   6.993   9.960  0.6415 -0.3315 -0.1669
38034SOL    HW117507   3.521   7.070  10.011 -0.5708 -0.7999  1.1820
38034SOL    HW217508   3.405   7.010   9.936  1.1025 -0.2841 -1.8767
38035SOL     OW17509   1.370   8.588   0.308 -0.0642  0.8839 -0.2457
38035SOL    HW117510   1.306   8.634   0.254 -1.1051  0.2201  0.4251
38035SOL    HW217511   1.320   8.521   0.354  0.8503  1.2697  1.3577
38036SOL     OW17512   8.942   3.320   3.489 -0.4661 -0.7947  0.8159
38036SOL    HW117513   9.008   3.362   3.434 -0.4843 -0.2272  1.2337
38036SOL    HW217514   8.991   3.257   3.542 -0.0013  0.8592  2.3887
38037SOL     OW17515  10.534   6.525   4.710  0.0584 -0.1458 -0.0785
38037SOL    HW117516  10.534   6.585   4.784  0.4649 -2.3361  1.7507
38037SOL    HW217517  10.441   6.506   4.694  0.0088 -0.2382  0.3273
38038SOL     OW17518   8.613   9.927   1.236  0.0803 -0.1879  0.3215
38038SOL    HW117519   8.639   9.984   1.308  1.2282 -0.9284  0.5049
38038SOL    HW217520   8.519   9.914   1.248  0.5749 -1.8567  2.8073
38039SOL     OW17521   5.891   1.402   8.318  0.8239 -0.7260 -0.2614
38039SOL    HW117522   5.809   1.385   8.270  0.3090  2.0490 -0.4147
38039SOL    HW217523   5.910   1.319   8.362 -2.4170 -1.2481  0.2703
38040SOL     OW17524   8.317   2.777   1.268  0.2321 -0.3962  0.2024
38040SOL    HW117525   8.312   2.848   1.333 -1.5340 -1.7294  1.5650
38040SOL    HW217526   8.266   2.706   1.306 -0.3383 -1.4372 -2.4012
38041SOL     OW17527   9.410   2.666  10.942 -0.2035  0.2737 -0.3577
38041SOL    HW117528   9.315   2.662  10.930 -0.4091  2.5678  0.2629
38041SOL    HW217529   9.421   2.720  11.021  1.6517  1.4839 -1.4201
38042SOL     OW17530   3.340   7.838   2.136 -0.2037 -0.3055 -0.0044
38042SOL    HW117531   3.352   7.876   2.223 -0.3048 -1.6972  0.6352
38042SOL    HW217532   3.418   7.864   2.087 -0.4235  0.9844  0.3068
38043SOL     OW17533   8.696   0.500   2.724 -0.2876 -0.3499  0.1973
38043SOL    HW117534   8.655   0.578   2.688  2.1958  0.9945  0.2245
38043SOL    HW217535   8.639   0.475   2.798 -1.4395  1.0316 -0.2162
38044SOL     OW17536   1.123   1.116   2.023 -0.4380  0.2610  0.1949
38044SOL    HW117537   1.165   1.199   2.046  1.6744 -0.1274 -2.0360
38044SOL    HW217538   1.192   1.050   2.032 -1.5087 -0.9315 -0.1248
38045SOL     OW17539   8.109   3.265   5.466  0.2011 -0.2546  0.3176
38045SOL    HW117540   8.072   3.347   5.434  0.6254  0.8452  2.5297
38045SOL    HW217541   8.187   3.291   5.516  0.7722 -2.0642  0.4252
38046SOL     OW17542   3.592   5.668   5.565  0.0844 -0.3082  0.0076
38046SOL    HW117543   3.508   5.668   5.520  0.4579  1.9245 -0.7272
38046SOL    HW217544   3.657   5.678   5.496  0.7822  0.9458  0.8156
38047SOL     OW17545   1.873   9.149   1.311  0.0345  0.1889 -0.2376
38047SOL    HW117546   1.847   9.094   1.237 -2.3328  2.2764 -1.0165
38047SOL    HW217547   1.816   9.121   1.383  1.4825 -0.9742  0.5023
38048SOL     OW17548   9.799   4.981   2.417  1.0916 -0.0630 -0.6956
38048SOL    HW117549   9.830   4.898   2.453  2.9922  0.8945 -0.0648
38048SOL    HW217550   9.721   5.002   2.468  2.1086 -0.1588  0.9079
38049SOL     OW17551   6.905   6.521   8.520  0.3170  0.4495  0.4875
38049SOL    HW117552   6.967   6.592   8.537  0.0930  0.7571  0.0461
38049SOL    HW217553   6.908   6.467   8.599  3.1416 -1.0479 -0.6069
38050SOL     OW17554   7.338   5.598   5.101 -0.4971 -1.0033 -0.1149
38050SOL    HW117555   7.381   5.652   5.168  0.7927 -1.2429 -0.7402
38050SOL    HW217556   7.296   5.527   5.150 -0.1377 -0.7958  0.4945
38051SOL     OW17557   1.782   3.375   1.160 -0.4196  0.5922  0.0718
38051SOL    HW117558   1.709   3.432   1.182 -1.0643 -0.5397  0.9196
38051SOL    HW217559   1.825   3.359   1.244  0.2932  0.5480 -0.2970
38052SOL     OW17560   7.176   2.279  10.556  0.6756 -0.4739 -0.6693
38052SOL    HW117561   7.157   2.213  10.488 -0.2061 -1.2198  0.2783
38052SOL    HW217562   7.158   2.234  10.638 -0.2543  1.0547 -0.0175
38053SOL     OW17563   8.889   7.592   7.482  0.0375  0.2289 -0.3872
38053SOL    HW117564   8.955   7.661   7.482 -0.6536  0.8974  0.1438
38053SOL    HW217565   8.856   7.590   7.572  0.8183 -1.5412 -0.1270
38054SOL     OW17566   4.436   5.303   3.858 -0.1020 -0.4084  0.0613
38054SOL    HW117567   4.420   5.306   3.764 -1.0092 -0.3703  0.2140
38054SOL    HW217568   4.376   5.237   3.891  1.5733 -1.8115  0.3569
38055SOL     OW17569  10.499   1.547   0.167  0.3472 -0.2473  1.0701
38055SOL    HW117570  10.426   1.609   0.161  0.6146  0.1404  1.7703
38055SOL    HW217571  10.563   1.590   0.223  0.3735 -1.3217  1.8866
38056SOL     OW17572   4.460   2.431   9.747 -0.5280  0.0233 -0.2013
38056SOL    HW117573   4.483   2.338   9.739 -1.5900 -0.3503  0.9306
38056SOL    HW217574   4.366   2.431   9.765 -0.1115  1.1932  2.1585
38057SOL     OW17575   2.743   9.575  10.671  0.1019 -1.3303  0.3181
38057SOL    HW117576   2.711   9.532  10.750 -1.0525 -1.1797 -0.0536
38057SOL    HW217577   2.673   9.562  10.607  0.6146 -0.6306 -0.3929
38058SOL     OW17578   2.283   5.323   9.804 -0.1533 -0.3755  0.0352
38058SOL    HW117579   2.264   5.416   9.793 -1.4145 -0.8375 -2.1241
38058SOL    HW217580   2.209   5.279   9.762  0.2562 -2.3504  1.3350
38059SOL     OW17581   3.426   3.807   4.013  0.1233  0.0692 -1.1709
38059SOL    HW117582   3.456   3.849   3.932  2.7572  1.5397  0.5135
38059SOL    HW217583   3.342   3.850   4.032  0.5790  1.3104 -1.9088
38060SOL     OW17584   8.030   2.520   9.830  0.1135  0.0757  0.5592
38060SOL    HW117585   8.021   2.521   9.926  1.6463 -0.3271  0.7144
38060SOL    HW217586   8.021   2.612   9.804  1.1382  0.3756  1.2368
38061SOL     OW17587   3.099   1.205   7.007  0.5346 -0.7148 -0.4188
38061SOL    HW117588   3.123   1.114   6.991  0.5062 -1.2346  2.2738
38061SOL    HW217589   3.009   1.202   7.039  0.5950  0.2321 -0.1190
38062SOL     OW17590   1.063   0.041   9.572  0.1961 -0.3783 -0.3065
38062SOL    HW117591   1.156   0.038   9.549 -0.3664 -0.3528 -2.7600
38062SOL    HW217592   1.020  -0.015   9.507 -1.4255 -0.9611  1.2240
38063SOL     OW17593   6.481   6.339   7.239  0.3666  0.2217  0.5980
38063SOL    HW117594   6.457   6.395   7.165  0.7842 -0.2242  0.1220
38063SOL    HW217595   6.553   6.386   7.281  1.7235 -0.6598 -0.6814
38064SOL     OW17596  10.035   7.579  10.851 -0.3546  0.0680  0.1745
38064SOL    HW117597   9.997   7.550  10.768 -1.0762  2.8675 -0.5362
38064SOL    HW217598   9.967   7.561  10.916 -0.9016  0.3932 -0.2995
38065SOL     OW17599   3.367   2.653   6.456  0.1647 -0.0266 -0.7292
38065SOL    HW117600   3.431   2.675   6.388  2.1198  1.2663  1.4396
38065SOL    HW217601   3.393   2.566   6.485 -0.0861 -0.1836 -0.9733
38066SOL     OW17602   2.859   9.609   2.923  0.0249  0.3943 -0.4676
38066SOL    HW117603   2.867   9.523   2.881 -0.3723  0.0773  0.1059
38066SOL    HW217604   2.949   9.636   2.940  0.0991 -0.5627  0.6719
38067SOL     OW17605   7.692   1.770   9.147 -0.5301  0.0110  0.4952
38067SOL    HW117606   7.754   1.721   9.093 -0.4369 -0.3793  0.9593
38067SOL    HW217607   7.715   1.749   9.237 -0.6708  0.6889  0.6922
38068SOL     OW17608   7.796   4.407   8.489  0.0041 -0.4329  0.3889
38068SOL    HW117609   7.772   4.331   8.435 -0.3761  0.9781 -1.4688
38068SOL    HW217610   7.731   4.408   8.559 -1.1107 -0.7339 -0.6305
38069SOL     OW17611  10.378   2.280   6.869  0.5583  0.1291 -0.3249
38069SOL    HW117612  10.472   2.273   6.853  0.6668  1.2593 -0.2008
38069SOL    HW217613  10.351   2.360   6.824 -0.3001 -0.0635 -0.1659
38070SOL     OW17614   5.718  10.745   1.702 -0.3698 -0.6268 -0.4231
38070SOL    HW117615   5.667  10.677   1.659 -0.0658 -1.5479  0.6462
38070SOL    HW217616   5.765  10.700   1.772  0.3817  0.5571 -0.1387
38071SOL     OW17617   9.210   2.352   8.091 -0.1907 -0.3714  0.1084
38071SOL    HW117618   9.173   2.393   8.168  1.3222  0.8822  0.1764
38071SOL    HW217619   9.274   2.289   8.125 -1.0123 -1.3310 -0.0705
38072SOL     OW17620   3.492   9.103  10.336 -0.3270 -0.1994 -0.4367
38072SOL    HW117621   3.426   9.156  10.381  1.0152  1.6604 -0.6002
38072SOL    HW217622   3.548   9.070  10.405 -1.0719 -1.3048 -0.3487
38073SOL     OW17623   3.063   2.591   9.794 -0.3282  0.4263 -0.9600
38073SOL    HW117624   3.048   2.500   9.767 -0.3978  1.0870 -3.1842
38073SOL    HW217625   3.113   2.630   9.723  1.6383  1.5718  0.9773
38074SOL     OW17626   9.000  10.592   2.588 -0.0879 -0.0300  0.2429
38074SOL    HW117627   8.908  10.607   2.564 -1.3359 -3.2518  2.6926
38074SOL    HW217628   9.011  10.637   2.672  0.6958  0.5849 -0.1764
38075SOL     OW17629   7.814   8.980   8.341  0.4008 -0.6302 -0.6762
38075SOL    HW117630   7.760   8.912   8.300 -2.9058  1.1119  0.6082
38075SOL    HW217631   7.869   9.014   8.271  0.5744 -3.1437 -1.8052
38076SOL     OW17632   6.102   2.805   9.361 -0.3891 -0.0759 -0.5522
38076SOL    HW117633   6.072   2.839   9.445 -0.5338  2.8797 -1.7539
38076SOL    HW217634   6.036   2.741   9.336  0.7274 -2.5387  2.5045
38077SOL     OW17635   5.467  10.869   3.140 -0.4205 -0.3631  0.3202
38077SOL    HW117636   5.509  10.925   3.206  0.1935 -0.5828  0.1191
38077SOL    HW217637   5.373  10.880   3.156 -0.2966  0.3311  0.6094
38078SOL     OW17638   3.221   7.656   1.029 -0.1275 -0.3457 -0.1589
38078SOL    HW117639   3.189   7.639   0.941 -0.7963 -1.0762  0.2171
38078SOL    HW217640   3.243   7.749   1.030 -0.0365 -0.3557 -1.1141
38079SOL     OW17641  10.859   6.680   4.911  0.0799 -0.5890 -0.0417
38079SOL    HW117642  10.858   6.621   4.836 -1.0796  0.4713 -0.8897
38079SOL    HW217643  10.882   6.625   4.986 -0.7725 -2.0438 -0.8512
38080SOL     OW17644   9.341   4.843   7.492 -0.3982 -0.7566  1.0031
38080SOL    HW117645   9.324   4.803   7.406  2.2509  2.1244 -0.9479
38080SOL    HW217646   9.371   4.770   7.547  0.6944 -2.1449 -1.3593
38081SOL     OW17647   4.267   3.265   5.203  0.0606 -0.1060 -0.1421
38081SOL    HW117648   4.181   3.298   5.178  0.9259  2.0450 -0.3735
38081SOL    HW217649   4.277   3.291   5.295  0.8789  0.6317 -0.4221
38082SOL     OW17650   5.212   3.488   2.276 -0.3196 -0.8127 -0.0003
38082SOL    HW117651   5.141   3.541   2.312  0.4710 -0.6099  1.3055
38082SOL    HW217652   5.168   3.418   2.227 -1.4218 -0.8520  1.0274
38083SOL     OW17653   9.175   0.442   2.473 -0.2060  0.1397  0.0659
38083SOL    HW117654   9.164   0.480   2.560 -1.0352  0.8737 -0.3514
38083SOL    HW217655   9.087   0.418   2.446  0.1162 -0.5884 -0.3466
38084SOL     OW17656   2.967   7.755   4.054  0.5544  0.1013  0.3794
38084SOL    HW117657   2.929   7.828   4.104 -0.8533  0.3737 -1.0273
38084SOL    HW217658   3.046   7.792   4.014 -0.1324  0.8562 -0.2929
38085SOL     OW17659   7.417   1.331   5.231 -0.0389 -0.1997  0.0635
38085SOL    HW117660   7.419   1.266   5.301  0.8115  0.2601  0.4613
38085SOL    HW217661   7.449   1.412   5.271 -2.1714  0.7797 -0.1209
38086SOL     OW17662   5.645   7.016   3.802 -0.0439  0.3383  0.3873
38086SOL    HW117663   5.691   6.944   3.845  0.0313  1.0900  1.5907
38086SOL    HW217664   5.682   7.019   3.714  0.6051 -0.4961  0.6230
38087SOL     OW17665   4.775   5.665   1.125 -0.6847 -0.5536 -0.3729
38087SOL    HW117666   4.783   5.744   1.178  3.3268 -1.1844  0.0877
38087SOL    HW217667   4.708   5.613   1.169 -0.9798  1.1159  1.1903
38088SOL     OW17668  10.421   2.388   9.032 -0.0816  0.4196  0.1722
38088SOL    HW117669  10.423   2.310   9.088  1.4618  1.9859  2.3779
38088SOL    HW217670  10.338   2.430   9.052 -0.2426  0.1367  0.1009
38089SOL     OW17671   8.814   8.014   2.073  0.1576  0.8715 -0.1281
38089SOL    HW117672   8.823   7.927   2.113  0.9947  1.0712  0.1175
38089SOL    HW217673   8.828   7.999   1.979  0.4375  0.7663 -0.0688
38090SOL     OW17674   7.324   4.139   6.678  0.1486  0.5960 -0.5443
38090SOL    HW117675   7.309   4.182   6.594  0.0165  1.2139 -0.2060
38090SOL    HW217676   7.357   4.052   6.655 -0.5857  0.4975 -1.2424
38091SOL     OW17677   3.550  10.748   3.203  0.0411  0.1015 -0.1206
38091SOL    HW117678   3.490  10.720   3.134  1.5254 -0.2511 -1.2847
38091SOL    HW217679   3.633  10.704   3.182  0.6578  0.4203  1.5783
38092SOL     OW17680   5.891   6.617   9.724 -0.7579  0.4799 -0.0264
38092SOL    HW117681   5.979   6.583   9.709 -0.2695  1.6458  0.2000
38092SOL    HW217682   5.862   6.647   9.638 -1.3352 -0.8109 -0.3013
38093SOL     OW17683   1.658  10.760   9.536  0.2314  1.1602 -1.3102
38093SOL    HW117684   1.593  10.787   9.601  0.8147  0.7540 -0.5400
38093SOL    HW217685   1.607  10.725   9.464 -0.3895  0.2296 -0.4300
38094SOL     OW17686   9.221   2.762   4.682 -0.6040  0.0687 -0.5449
38094SOL    HW117687   9.234   2.760   4.588 -2.3255  0.9568 -0.8134
38094SOL    HW217688   9.282   2.696   4.716  1.4242  1.0817 -2.0883
38095SOL     OW17689   8.900   2.231   0.635 -0.3523  1.0432  0.0334
38095SOL    HW117690   8.948   2.173   0.695 -0.6982 -1.3379 -1.9327
38095SOL    HW217691   8.966   2.261   0.573 -0.5799  1.1090 -0.1775
38096SOL     OW17692   0.710   6.702   5.952 -0.0799  0.1694 -0.3390
38096SOL    HW117693   0.791   6.678   5.997 -1.1874  1.0313  2.2499
38096SOL    HW217694   0.729   6.691   5.859  2.1854 -2.0626  0.3539
38097SOL     OW17695   1.019   7.097  10.673 -0.1385 -0.4139 -0.0819
38097SOL    HW117696   1.006   7.032  10.743 -0.3610  0.0813  0.3443
38097SOL    HW217697   1.110   7.086  10.646  0.3038  0.2346  1.1408
38098SOL     OW17698   5.617   0.972   3.258 -0.0695 -0.6366 -0.7820
38098SOL    HW117699   5.527   0.946   3.241  0.3683 -1.6450 -1.6293
38098SOL    HW217700   5.646   0.913   3.328 -0.4996  0.6361  0.5069
38099SOL     OW17701   7.955   6.086   2.107  0.0333 -0.6332  0.7908
38099SOL    HW117702   7.990   6.045   2.028 -0.9733 -1.8986  0.9829
38099SOL    HW217703   7.886   6.145   2.076  1.4590  0.8898  0.5155
38100SOL     OW17704   5.248   5.403   3.029 -0.4139 -0.0215  0.6264
38100SOL    HW117705   5.314   5.360   3.084 -1.2705 -0.0826  1.6260
38100SOL    HW217706   5.251   5.495   3.054 -0.4071  0.0497  0.3625
38101SOL     OW17707   1.158   1.489   0.391  0.1157  0.9611 -0.0387
38101SOL    HW117708   1.247   1.516   0.369  0.6796  0.2650  1.3358
38101SOL    HW217709   1.151   1.399   0.357  0.0065  0.9384  0.0426
38102SOL     OW17710   5.496   8.933   7.528 -0.6033 -0.0258  0.1906
38102SOL    HW117711   5.431   8.873   7.490 -2.2408  0.9439  1.4111
38102SOL    HW217712   5.518   8.893   7.612  0.2167 -0.2348 -0.1234
38103SOL     OW17713   9.371  10.231   9.943  0.2169  0.1343  0.0007
38103SOL    HW117714   9.302  10.227   9.877 -0.7412 -1.0236  1.0515
38103SOL    HW217715   9.325  10.241  10.026  1.4215  1.9206  0.4910
38104SOL     OW17716   9.393   8.190   8.893 -0.1421  0.4808  0.1307
38104SOL    HW117717   9.438   8.221   8.971 -1.6466 -0.3582  1.3552
38104SOL    HW217718   9.371   8.270   8.845 -1.7191  1.1965  1.9855
38105SOL     OW17719   6.511   1.382   1.502  0.1927  0.1610 -0.0131
38105SOL    HW117720   6.519   1.386   1.406  1.0951 -1.1501  0.0037
38105SOL    HW217721   6.491   1.472   1.527  0.2408  0.5825 -1.4123
38106SOL     OW17722   3.903   1.042   0.571 -0.5635 -0.3368  1.1544
38106SOL    HW117723   3.893   1.001   0.657 -1.1267 -0.9220  0.8193
38106SOL    HW217724   3.852   1.123   0.576  0.6945  0.4208  1.8773
38107SOL     OW17725   3.197   6.700   3.064 -0.7604 -0.1221  0.6559
38107SOL    HW117726   3.139   6.699   3.140 -1.4583 -1.3589  0.1201
38107SOL    HW217727   3.160   6.635   3.004  0.4030  0.0511 -0.2803
38108SOL     OW17728   1.306   4.939  10.146 -0.7471 -1.1133 -0.0126
38108SOL    HW117729   1.304   4.881  10.222 -1.0626 -0.1359  0.7321
38108SOL    HW217730   1.226   4.991  10.153 -0.5168 -0.6554 -0.7279
38109SOL     OW17731   1.731   8.929   4.793  0.2983 -0.0385 -0.0811
38109SOL    HW117732   1.758   8.930   4.884 -0.0929 -2.4346  0.0952
38109SOL    HW217733   1.640   8.898   4.795  0.2401  0.0305 -1.2708
38110SOL     OW17734   7.461  10.553   4.341 -0.5750 -1.0280 -0.1734
38110SOL    HW117735   7.416  10.474   4.370  0.2635 -2.5568 -2.8906
38110SOL    HW217736   7.420  10.575   4.258 -0.7609  1.4083  0.5121
38111SOL     OW17737   5.823  10.388   5.262 -0.3441 -0.1450 -0.4916
38111SOL    HW117738   5.842  10.302   5.225  0.7420 -0.5562  0.9810
38111SOL    HW217739   5.727  10.391   5.268 -0.4592 -0.6889 -1.8110
38112SOL     OW17740   9.861   8.975   8.971 -0.2623  0.1354 -0.6731
38112SOL    HW117741   9.890   8.969   9.062  1.0431  1.8799 -0.9533
38112SOL    HW217742   9.778   9.023   8.975 -0.1066  0.3831 -0.4310
38113SOL     OW17743   9.334   7.757   4.176  0.3689  0.5175 -0.0323
38113SOL    HW117744   9.311   7.675   4.131 -0.4347  0.0471  1.1944
38113SOL    HW217745   9.302   7.826   4.118  0.8593 -0.0460 -0.9800
38114SOL     OW17746   2.498   3.584   9.849 -0.2347 -0.0414  0.5319
38114SOL    HW117747   2.449   3.567   9.929  0.2628  0.8768  1.0396
38114SOL    HW217748   2.531   3.673   9.860 -0.6924  0.3185 -0.9772
38115SOL     OW17749   6.722   6.770   1.963 -0.0143 -0.4420 -0.2263
38115SOL    HW117750   6.634   6.735   1.976 -0.2654  0.2294 -0.0704
38115SOL    HW217751   6.742   6.751   1.872 -0.7409  0.3196 -0.5492
38116SOL     OW17752  10.921   5.624   7.789  0.2634 -0.3175  0.2918
38116SOL    HW117753  10.948   5.661   7.873 -1.9232  1.6422  0.1700
38116SOL    HW217754  10.847   5.568   7.810 -1.0068  1.0515 -0.4268
38117SOL     OW17755  10.586   1.070   2.706 -0.3262  0.2177 -0.0724
38117SOL    HW117756  10.562   1.086   2.797  0.3933  0.9378 -0.0104
38117SOL    HW217757  10.591   0.974   2.699  0.4650  0.1863  0.8655
38118SOL     OW17758   5.075   3.344   9.989 -0.6184  0.6212  0.1468
38118SOL    HW117759   5.105   3.268  10.038  0.1803  0.6777 -0.2559
38118SOL    HW217760   5.141   3.411  10.004  0.6302  0.0454 -2.5120
38119SOL     OW17761  10.651   5.423   7.589 -0.4859  0.2072 -0.0522
38119SOL    HW117762  10.647   5.328   7.601 -0.3979  0.0953 -0.8599
38119SOL    HW217763  10.607   5.438   7.505  0.4279  0.7742 -0.4336
38120SOL     OW17764   2.653   5.703  10.753 -0.2961 -0.2078  0.2462
38120SOL    HW117765   2.563   5.725  10.778 -0.9689 -2.9761  0.3788
38120SOL    HW217766   2.647   5.674  10.662  0.7469  1.1191 -0.2714
38121SOL     OW17767   8.159   2.086   6.928  0.3229 -0.3429  0.3167
38121SOL    HW117768   8.247   2.051   6.945 -0.5618 -2.7286  0.0603
38121SOL    HW217769   8.121   2.096   7.015 -0.1498 -1.9244  0.2926
38122SOL     OW17770   8.529   1.264   2.971 -0.0609  0.1266 -0.2429
38122SOL    HW117771   8.472   1.210   3.025  0.4942  0.8437  1.0918
38122SOL    HW217772   8.474   1.295   2.899 -0.6440 -1.3598 -0.4460
38123SOL     OW17773   2.926   3.600   1.434  0.4869 -0.2099 -0.0217
38123SOL    HW117774   3.015   3.603   1.467 -0.1795 -0.6363  1.8455
38123SOL    HW217775   2.897   3.691   1.435  0.5261 -0.2024  0.4162
38124SOL     OW17776   9.264   6.698   0.714 -1.0658 -0.3051  0.6318
38124SOL    HW117777   9.205   6.709   0.639 -0.7645 -2.0081  0.1254
38124SOL    HW217778   9.209   6.662   0.783 -0.7609 -1.4059  0.3203
38125SOL     OW17779   6.428   0.795   3.055 -0.3459  0.1413 -0.4825
38125SOL    HW117780   6.347   0.813   3.103 -0.6656 -0.6721 -0.6888
38125SOL    HW217781   6.412   0.830   2.967 -0.1468  0.7343 -0.2840
38126SOL     OW17782   3.574   7.988   2.036 -0.0662 -0.1622 -0.0340
38126SOL    HW117783   3.534   8.019   1.955 -1.7218 -0.7739  0.5420
38126SOL    HW217784   3.642   7.927   2.007  0.2159  0.5917 -0.9996
38127SOL     OW17785   9.180   5.811   7.129  0.3011 -0.0849  0.0082
38127SOL    HW117786   9.189   5.720   7.101 -3.1945 -0.8606  1.0705
38127SOL    HW217787   9.156   5.858   7.049  2.1053 -0.0865 -0.5411
38128SOL     OW17788   6.501   4.111   9.910 -0.4529 -0.5042 -0.1491
38128SOL    HW117789   6.455   4.055   9.972 -0.3314  0.1626  0.5585
38128SOL    HW217790   6.441   4.184   9.895 -0.2925 -0.4378 -0.4627
38129SOL     OW17791   5.043   9.786   0.148 -0.8149  0.7434  0.1196
38129SOL    HW117792   5.111   9.854   0.143 -0.1637  0.0849 -0.1143
38129SOL    HW217793   4.986   9.814   0.219 -0.7015  1.6766 -0.1549
38130SOL     OW17794   3.292   5.956  10.549  0.0474  0.0905  0.1606
38130SOL    HW117795   3.202   5.938  10.522  0.1391  1.7695 -1.3275
38130SOL    HW217796   3.344   5.937  10.471  0.7276  1.3706  0.3035
38131SOL     OW17797   7.944   5.207   0.898 -0.0024  0.5694 -0.3650
38131SOL    HW117798   7.977   5.153   0.971 -0.5942  1.0258  0.2450
38131SOL    HW217799   7.851   5.185   0.892 -0.6394  2.7488  0.9869
38132SOL     OW17800   2.529   5.122   2.288  0.4587 -0.0388 -0.2888
38132SOL    HW117801   2.479   5.090   2.363  1.7860  0.1600  0.6892
38132SOL    HW217802   2.499   5.067   2.215 -0.7391 -0.3202  0.4001
38133SOL     OW17803   1.174   8.671   0.520  0.1746  0.8214 -0.4242
38133SOL    HW117804   1.193   8.752   0.474  2.6667  0.2115 -0.5210
38133SOL    HW217805   1.196   8.689   0.611 -0.5560  0.6492 -0.2044
38134SOL     OW17806   3.369   8.509   4.360 -0.4117  1.1832 -0.4396
38134SOL    HW117807   3.336   8.459   4.286 -0.3490  1.9152 -0.9727
38134SOL    HW217808   3.355   8.601   4.335  0.4468  1.4592  0.0653
38135SOL     OW17809   8.588   2.334   2.717  0.0411 -0.0364 -1.0857
38135SOL    HW117810   8.550   2.360   2.801  1.5289 -0.3914 -0.2756
38135SOL    HW217811   8.519   2.349   2.653 -1.1309  0.1828  0.2185
38136SOL     OW17812   0.993   0.277   7.281  0.5896  0.0535  0.1876
38136SOL    HW117813   1.069   0.222   7.262  1.4400  1.7613 -1.5624
38136SOL    HW217814   1.030   0.357   7.317 -0.6807 -0.7711  3.4446
38137SOL     OW17815   4.669   6.879   3.204  0.3068  0.1727 -0.1220
38137SOL    HW117816   4.716   6.799   3.182 -0.2957 -0.5360  1.1507
38137SOL    HW217817   4.593   6.850   3.254  0.6522  1.6110  1.2639
38138SOL     OW17818   3.105  10.394   8.823  0.7251 -0.0760  0.0489
38138SOL    HW117819   3.046  10.465   8.797 -1.5099 -3.1665 -3.9099
38138SOL    HW217820   3.190  10.421   8.789 -0.3694  0.1869 -2.6303
38139SOL     OW17821  10.927   0.265   4.058  0.5593  0.3363 -0.5884
38139SOL    HW117822  10.857   0.221   4.010  1.4964  0.3430 -2.0029
38139SOL    HW217823  10.991   0.196   4.076  1.7075  0.9338 -2.2058
38140SOL     OW17824   1.533   7.592   4.091  0.3263  0.3431  0.1161
38140SOL    HW117825   1.449   7.583   4.046  0.8218  0.9290 -0.9462
38140SOL    HW217826   1.509   7.624   4.178 -0.5788  0.1467 -0.0513
38141SOL     OW17827   0.862   0.717   0.509  0.4627  0.4466  0.3307
38141SOL    HW117828   0.821   0.673   0.583 -0.3580 -0.9015 -0.9147
38141SOL    HW217829   0.800   0.786   0.485  0.3702  0.3772  0.3735
38142SOL     OW17830   5.378   3.309   4.109 -0.2619  0.0704 -0.3183
38142SOL    HW117831   5.354   3.370   4.040  1.8237  1.2892  0.0018
38142SOL    HW217832   5.383   3.224   4.065  0.2620  0.7016 -1.4934
38143SOL     OW17833   4.060   1.798   6.150 -0.3699  0.2973  0.4250
38143SOL    HW117834   4.052   1.893   6.160 -3.4772  0.0139  1.1962
38143SOL    HW217835   4.005   1.762   6.220  3.1807 -2.1404  2.1058
38144SOL     OW17836   3.323   1.763   9.113 -0.1552 -0.2663 -0.0675
38144SOL    HW117837   3.294   1.826   9.047 -2.3466 -0.8152  0.3251
38144SOL    HW217838   3.273   1.683   9.094  1.8948 -1.5970  0.0083
38145SOL     OW17839  10.168   9.239   0.769  0.0721  1.2008  0.0250
38145SOL    HW117840  10.171   9.277   0.857  1.1076  0.3465  0.3736
38145SOL    HW217841  10.082   9.197   0.765 -0.6333  2.6084  0.0346
38146SOL     OW17842   3.554   6.471   5.671  0.5871 -0.1402 -0.3547
38146SOL    HW117843   3.612   6.454   5.746 -1.8425 -2.4683  1.0616
38146SOL    HW217844   3.580   6.406   5.606 -0.4389 -1.1990  0.2887
38147SOL     OW17845   3.826   6.016   6.849 -0.2094  0.2034 -0.4175
38147SOL    HW117846   3.801   6.107   6.869 -0.3822 -0.3283  1.9065
38147SOL    HW217847   3.752   5.982   6.799 -0.2382  1.2725 -1.1333
38148SOL     OW17848   8.261   2.850   0.038 -0.1029  0.3518 -0.2781
38148SOL    HW117849   8.236   2.888   0.123 -0.8137  1.0419 -0.7808
38148SOL    HW217850   8.350   2.817   0.052 -0.5450 -0.3620  0.9974
38149SOL     OW17851   9.430   0.859   1.523 -0.5754  0.2149 -0.3904
38149SOL    HW117852   9.520   0.864   1.554 -1.3791 -0.8293  2.2104
38149SOL    HW217853   9.417   0.766   1.502 -0.8984  0.4423 -1.1988
38150SOL     OW17854   8.496   1.323   3.732 -0.3404 -0.2964  0.2141
38150SOL    HW117855   8.513   1.411   3.699 -0.0589 -0.8246 -1.0644
38150SOL    HW217856   8.404   1.325   3.759 -0.5754  0.1471 -0.5987
38151SOL     OW17857   9.511   8.410   6.641  0.3958 -0.2034 -0.0182
38151SOL    HW117858   9.548   8.488   6.599  1.2399  0.8547  2.6199
38151SOL    HW217859   9.423   8.437   6.666  0.7825 -0.0104  1.1305
38152SOL     OW17860   1.897  10.903   9.525  0.0403 -0.1844 -0.0480
38152SOL    HW117861   1.822  10.845   9.536 -0.5589  0.8077  1.2144
38152SOL    HW217862   1.973  10.847   9.540 -0.4742 -0.9665 -0.3365
38153SOL     OW17863   5.255   9.341   3.661  0.0886 -0.0491  0.2325
38153SOL    HW117864   5.297   9.367   3.743  1.0987  0.8149 -0.5514
38153SOL    HW217865   5.287   9.252   3.646  4.3067  1.7172 -2.0180
38154SOL     OW17866   5.317   3.687   6.009 -0.2771  0.2775 -0.2475
38154SOL    HW117867   5.351   3.673   6.097  0.3862  2.2279 -0.1580
38154SOL    HW217868   5.352   3.772   5.983 -1.5128  0.3185 -1.8923
38155SOL     OW17869   3.787  10.195   0.584  0.0854 -0.0475  0.2939
38155SOL    HW117870   3.844  10.220   0.511 -0.9101 -1.1047 -0.8712
38155SOL    HW217871   3.734  10.273   0.601 -1.1235 -0.4475 -1.5137
38156SOL     OW17872  10.773   1.819   3.084  0.2819 -0.1129  0.0038
38156SOL    HW117873  10.680   1.813   3.061  0.7715 -4.5665 -1.3789
38156SOL    HW217874  10.777   1.792   3.175  0.2880 -0.6948 -0.1671
38157SOL     OW17875   5.402   9.608   2.195 -0.3599  0.2009  0.2166
38157SOL    HW117876   5.425   9.661   2.271  0.2023 -3.5139  2.7682
38157SOL    HW217877   5.419   9.664   2.120 -1.2860  4.1314  2.8019
38158SOL     OW17878   0.951   6.138   4.181  0.5163 -0.2506 -0.3533
38158SOL    HW117879   0.918   6.060   4.226  0.0861 -0.5093 -1.1108
38158SOL    HW217880   0.989   6.104   4.100  1.6810  0.1673  0.0208
38159SOL     OW17881   1.805   5.901   5.939  0.5383  0.4237 -0.1938
38159SOL    HW117882   1.853   5.862   5.866  2.5384  0.6492  0.9450
38159SOL    HW217883   1.853   5.872   6.017 -2.0329 -0.5155  1.1091
38160SOL     OW17884   2.250   9.033   3.595 -0.0438 -0.2404 -0.1530
38160SOL    HW117885   2.253   8.941   3.568 -0.1226 -0.1169 -0.5855
38160SOL    HW217886   2.164   9.044   3.635  0.8674 -0.9554  2.0974
38161SOL     OW17887   7.959   9.512  10.445 -0.4803  0.2030 -0.6570
38161SOL    HW117888   7.938   9.488  10.355 -1.6241  0.9595 -0.6012
38161SOL    HW217889   8.050   9.484  10.457 -0.6600 -0.8604 -1.6988
38162SOL     OW17890   5.676   5.326   5.058  0.1310 -0.6627  0.5804
38162SOL    HW117891   5.729   5.316   4.979 -0.0556  0.1258  0.3587
38162SOL    HW217892   5.705   5.254   5.115  0.0996 -1.3863 -0.2929
38163SOL     OW17893   1.531   0.533   9.997 -0.0125  0.0641  0.2575
38163SOL    HW117894   1.623   0.556   9.982  0.5510 -0.2766  2.9207
38163SOL    HW217895   1.535   0.447  10.040 -1.4680  1.0216  2.3579
38164SOL     OW17896   5.197   4.657   3.567  0.1932 -0.2891  0.1642
38164SOL    HW117897   5.149   4.732   3.533  0.4750  0.0247  0.4665
38164SOL    HW217898   5.200   4.595   3.493 -0.5602 -0.2591  0.1049
38165SOL     OW17899   6.681   1.251   2.774 -0.1984 -0.2781 -0.4711
38165SOL    HW117900   6.776   1.249   2.784 -0.2719  0.2388  0.3970
38165SOL    HW217901   6.666   1.240   2.680  0.7178 -0.3407 -0.6116
38166SOL     OW17902   7.614   7.001   0.083 -0.3448  0.0891  1.0228
38166SOL    HW117903   7.708   7.015   0.077 -0.2809  0.7169  3.1654
38166SOL    HW217904   7.604   6.907   0.097 -0.1740 -0.3071 -1.2803
38167SOL     OW17905   3.789  10.091   2.163 -0.3451 -1.1010 -0.0938
38167SOL    HW117906   3.871  10.066   2.121  0.4643  0.7984  0.2686
38167SOL    HW217907   3.808  10.088   2.257 -0.9413 -1.4841  0.0158
38168SOL     OW17908  10.127   7.187   5.617 -0.3337 -0.2889  0.1358
38168SOL    HW117909  10.188   7.140   5.561  0.7136 -0.8524  1.7162
38168SOL    HW217910  10.049   7.200   5.563  0.4594 -1.2760 -1.2598
38169SOL     OW17911   2.163   5.551   5.920 -0.4776 -0.2252 -0.1645
38169SOL    HW117912   2.123   5.521   5.838  1.5772 -0.7350 -0.9996
38169SOL    HW217913   2.243   5.597   5.893  0.8647 -1.4535  1.6077
38170SOL     OW17914   0.718   1.841   3.811  0.4608 -0.3816  0.4781
38170SOL    HW117915   0.658   1.773   3.842 -0.4593  0.4241  0.4781
38170SOL    HW217916   0.770   1.863   3.888 -0.3450  0.0683  0.8997
38171SOL     OW17917   3.860   5.188   2.242 -0.2353  0.4365  0.2437
38171SOL    HW117918   3.843   5.260   2.182 -0.3763  0.5954  0.4778
38171SOL    HW217919   3.854   5.226   2.329 -0.7401  0.0522  0.3791
38172SOL     OW17920   5.841   6.820   0.475  0.2258  0.5024  0.6953
38172SOL    HW117921   5.792   6.880   0.530 -0.0769 -0.3447  1.3619
38172SOL    HW217922   5.776   6.757   0.444  0.5688  0.4191  0.1413
38173SOL     OW17923   0.741   1.934   3.545  0.4281 -0.1463 -0.0210
38173SOL    HW117924   0.652   1.969   3.534  0.6396  0.0662 -1.0746
38173SOL    HW217925   0.742   1.900   3.635 -0.7344 -0.1939 -0.0154
38174SOL     OW17926   1.497   4.194   3.291 -0.4027  0.0651  0.2891
38174SOL    HW117927   1.450   4.139   3.228 -1.1878  0.1748  0.7583
38174SOL    HW217928   1.521   4.273   3.242  1.5548 -1.0970 -0.6323
38175SOL     OW17929   7.824   7.737   6.491  0.1374 -0.2432 -0.2286
38175SOL    HW117930   7.883   7.714   6.562  1.2897  0.4279 -0.9520
38175SOL    HW217931   7.742   7.692   6.512  1.1868 -1.9392  0.3020
38176SOL     OW17932  10.735   9.410   9.814 -0.3025  0.4771  0.4545
38176SOL    HW117933  10.709   9.342   9.753 -0.0774 -0.7067  1.6509
38176SOL    HW217934  10.830   9.412   9.809 -0.2342 -0.2106  1.3744
38177SOL     OW17935   8.569   0.449   8.250 -0.1043  0.7961 -0.2408
38177SOL    HW117936   8.524   0.474   8.331 -1.2675  0.7121 -0.8490
38177SOL    HW217937   8.510   0.386   8.208  0.5171  0.7941 -1.1267
38178SOL     OW17938   1.659  10.465   0.570 -0.4540 -0.7169  0.4076
38178SOL    HW117939   1.742  10.479   0.526 -0.8263 -0.9099 -0.3624
38178SOL    HW217940   1.678  10.481   0.662  0.7215 -1.9610  0.4005
38179SOL     OW17941   1.774   1.793   2.823 -0.7635  0.2217 -0.3601
38179SOL    HW117942   1.697   1.757   2.866  1.3571 -1.7528  1.9053
38179SOL    HW217943   1.840   1.801   2.892  1.2358  1.4669 -2.3117
38180SOL     OW17944   2.456   6.914   0.997 -0.2181 -0.4734 -0.0405
38180SOL    HW117945   2.455   6.894   1.091  0.8205  0.2908  0.1471
38180SOL    HW217946   2.381   6.973   0.984 -2.1286 -2.8951 -0.2486
38181SOL     OW17947   6.008  10.975   4.848  0.3993 -0.0903 -0.1102
38181SOL    HW117948   5.919  10.958   4.878  0.5603 -1.3836 -0.3194
38181SOL    HW217949   6.059  10.900   4.881  1.2375  0.2186 -0.6863
38182SOL     OW17950  10.814   8.014  10.594 -0.3093  0.4755  0.5003
38182SOL    HW117951  10.857   8.002  10.679  1.2190 -1.7724 -0.5307
38182SOL    HW217952  10.730   8.053  10.614  0.0100 -0.0933  3.0592
38183SOL     OW17953   3.195   5.020   6.483  0.4154 -0.0621 -0.6584
38183SOL    HW117954   3.168   4.979   6.565  0.3937 -1.1410 -1.1908
38183SOL    HW217955   3.113   5.053   6.445  0.3288 -0.1832 -0.5766
38184SOL     OW17956   6.941   9.142   6.084  0.1721 -0.1548 -0.7756
38184SOL    HW117957   7.006   9.082   6.120  1.0654 -0.1576 -2.3411
38184SOL    HW217958   6.963   9.227   6.120 -1.0606 -0.7404  1.4097
38185SOL     OW17959   6.584   3.433   2.252  0.7258  0.1184  0.4358
38185SOL    HW117960   6.510   3.466   2.201  1.2296 -0.4425 -0.6727
38185SOL    HW217961   6.660   3.480   2.218  1.3715 -1.7874 -0.8123
38186SOL     OW17962   7.208   1.854   2.966 -0.0329 -0.0367  0.7754
38186SOL    HW117963   7.258   1.845   3.048  0.2928  2.2851  0.8675
38186SOL    HW217964   7.174   1.944   2.969 -2.2323 -0.7949 -0.4214
38187SOL     OW17965   1.776   3.907   8.706 -0.1474  0.1645  0.4136
38187SOL    HW117966   1.720   3.847   8.657 -1.7357  1.1831  0.9572
38187SOL    HW217967   1.845   3.932   8.644 -1.9502  1.1870 -1.2258
38188SOL     OW17968   8.545   7.709   8.481  0.3580 -0.2255  0.0230
38188SOL    HW117969   8.486   7.781   8.505 -0.2367 -0.4829 -0.6438
38188SOL    HW217970   8.590   7.687   8.563 -0.6826 -0.2199  0.6099
38189SOL     OW17971   4.014   8.183   5.709  0.0424 -0.1900 -0.5281
38189SOL    HW117972   4.041   8.092   5.702  1.7515  0.3374 -1.0487
38189SOL    HW217973   3.925   8.179   5.744  0.5115 -2.0132  0.5238
38190SOL     OW17974   8.541   5.781   4.492 -0.2269 -0.1599 -0.6186
38190SOL    HW117975   8.612   5.756   4.551 -1.4799 -0.5552  0.7731
38190SOL    HW217976   8.554   5.874   4.477  0.4233 -0.1682 -0.1229
38191SOL     OW17977   4.853   0.937   1.383 -0.2403  0.4110 -0.1787
38191SOL    HW117978   4.919   1.006   1.393 -1.5526  2.0940 -2.4869
38191SOL    HW217979   4.782   0.962   1.443 -1.3820  1.9863 -2.1108
38192SOL     OW17980   1.769   4.623   1.562  0.0559  0.5445  0.0835
38192SOL    HW117981   1.802   4.690   1.501 -0.0562 -0.1139 -0.7089
38192SOL    HW217982   1.682   4.654   1.587 -0.5663 -0.0032 -1.3757
38193SOL     OW17983   4.926   9.537   2.056 -0.7030  0.2794  0.3113
38193SOL    HW117984   4.974   9.508   1.978 -1.8963 -0.3508 -0.2058
38193SOL    HW217985   4.995   9.559   2.119  0.2725 -0.1621 -0.5682
38194SOL     OW17986   4.475   9.488   3.544  0.7543  0.9017  0.2816
38194SOL    HW117987   4.451   9.567   3.495 -0.3369  0.5274  0.1892
38194SOL    HW217988   4.479   9.516   3.635 -0.5367  0.8883  0.3616
38195SOL     OW17989   3.787   1.694   2.402 -0.5393  0.0216 -0.0473
38195SOL    HW117990   3.833   1.617   2.435  0.3215  0.4815 -0.1477
38195SOL    HW217991   3.698   1.664   2.387 -0.1784 -0.9929 -0.2151
38196SOL     OW17992   9.115  10.810   3.727 -0.5417 -0.5551 -0.4686
38196SOL    HW117993   9.118  10.838   3.635 -1.2529 -0.8697 -0.5930
38196SOL    HW217994   9.115  10.715   3.723  0.3284 -0.5728 -0.1045
38197SOL     OW17995   0.604   6.876   5.042 -0.0926  0.2296  0.2187
38197SOL    HW117996   0.642   6.920   4.966 -3.3992  1.7581 -0.6546
38197SOL    HW217997   0.571   6.793   5.008  0.0957  0.0827  0.3936
38198SOL     OW17998   1.315   6.570   5.644 -0.0615 -0.0006  0.6497
38198SOL    HW117999   1.246   6.544   5.583  0.9825 -1.0637 -0.0820
38198SOL    HW218000   1.303   6.665   5.654 -1.6490 -0.1699  0.5769
38199SOL     OW18001   4.810   8.568   4.382  0.5788 -0.1713 -0.6898
38199SOL    HW118002   4.778   8.478   4.380  0.0627  0.0163 -2.5039
38199SOL    HW218003   4.764   8.610   4.309 -1.1933  2.2429  1.7466
38200SOL     OW18004   1.075   1.383   1.179 -0.1465 -0.7564  0.2684
38200SOL    HW118005   1.136   1.338   1.237  0.0180 -0.7203  0.1230
38200SOL    HW218006   1.015   1.315   1.149 -0.1166 -0.8100  0.3315
38201SOL     OW18007   5.075   3.651   8.527  0.1885  0.2034 -0.3117
38201SOL    HW118008   5.008   3.689   8.470  0.1473  1.8352  0.7965
38201SOL    HW218009   5.135   3.607   8.468 -1.2344 -0.3047 -1.4076
38202SOL     OW18010   9.502   1.760   5.500 -0.5155  0.3160  0.6783
38202SOL    HW118011   9.592   1.762   5.531 -0.2370  2.0191 -0.2040
38202SOL    HW218012   9.474   1.669   5.514  1.8943 -0.6870 -0.6427
38203SOL     OW18013   1.517   8.701   7.237 -0.3498  0.0709  0.8320
38203SOL    HW118014   1.439   8.647   7.223  0.3144 -0.8931  0.8862
38203SOL    HW218015   1.569   8.654   7.301  0.3566  0.6470  0.6911
38204SOL     OW18016  10.036   8.621   8.727  0.3018 -0.3003  0.3439
38204SOL    HW118017  10.052   8.573   8.809 -0.6420 -1.3800 -0.0981
38204SOL    HW218018   9.971   8.687   8.751  1.2804  0.5045  0.8504
38205SOL     OW18019   6.105   4.207   4.365 -0.2255  0.5509  0.0651
38205SOL    HW118020   6.054   4.235   4.289 -0.7919 -0.3957  0.0878
38205SOL    HW218021   6.083   4.115   4.376 -0.3207  0.7337  1.5174
38206SOL     OW18022  10.569   0.869   3.780 -0.1559 -0.0744 -0.4073
38206SOL    HW118023  10.603   0.945   3.733  0.4937  0.0740  0.2932
38206SOL    HW218024  10.495   0.840   3.728 -0.0657  0.7048 -0.9812
38207SOL     OW18025   5.702   1.325  10.234  0.2758  0.1381  0.1990
38207SOL    HW118026   5.781   1.275  10.256  1.7948  2.2722 -0.1792
38207SOL    HW218027   5.713   1.408  10.280 -1.5043  0.6797 -0.3146
38208SOL     OW18028   9.977  10.423   0.134  0.3711 -0.3010 -0.5279
38208SOL    HW118029   9.884  10.437   0.116  0.1256 -1.6098 -0.3342
38208SOL    HW218030  10.022  10.483   0.074 -0.6074  2.2531  1.1945
38209SOL     OW18031   3.483   8.465   9.339 -0.2210 -0.0014  0.0564
38209SOL    HW118032   3.390   8.461   9.362 -0.0131 -1.0372  0.7363
38209SOL    HW218033   3.490   8.413   9.260 -0.0813 -0.6049  0.4653
38210SOL     OW18034   8.182   2.816   7.085  0.2853 -0.1220 -0.2328
38210SOL    HW118035   8.246   2.835   7.153  0.2960 -0.4350 -0.1520
38210SOL    HW218036   8.098   2.815   7.131  0.1030  1.3088 -0.5199
38211SOL     OW18037   1.638   4.542   9.054 -0.3022 -0.0487 -0.3290
38211SOL    HW118038   1.645   4.601   8.979  0.7027 -0.0706 -0.2602
38211SOL    HW218039   1.615   4.458   9.016 -1.7581  0.3803 -0.4263
38212SOL     OW18040   9.188  10.829   3.456  0.2109  0.6212  0.3564
38212SOL    HW118041   9.235  10.912   3.466 -1.2296  1.7856 -2.1303
38212SOL    HW218042   9.107  10.852   3.410 -1.1966 -1.8698  1.4581
38213SOL     OW18043   9.286   7.063  10.364 -0.7487 -0.2611  0.4746
38213SOL    HW118044   9.214   7.022  10.317 -1.0102 -1.6229  2.0489
38213SOL    HW218045   9.344   6.991  10.388  0.9090  0.7558 -0.3300
38214SOL     OW18046   0.066   5.002  10.008 -0.7125 -0.5111 -0.4053
38214SOL    HW118047  -0.021   5.026   9.974 -0.3843  1.5685  0.1805
38214SOL    HW218048   0.116   4.979   9.930 -1.1059  0.5794 -0.9992
38215SOL     OW18049   4.591   0.408   7.287  0.3244 -0.9393  0.7569
38215SOL    HW118050   4.658   0.443   7.346 -0.2951  0.1345  0.8411
38215SOL    HW218051   4.603   0.457   7.206  0.5462 -1.7334  0.3066
38216SOL     OW18052   1.613   1.270   6.771 -0.5871 -0.6218 -0.5174
38216SOL    HW118053   1.592   1.188   6.815  0.5462 -1.0001 -0.6658
38216SOL    HW218054   1.661   1.321   6.836 -1.5166  0.0394 -0.3370
38217SOL     OW18055   9.135   6.260   7.382 -0.2007 -0.6809  0.0745
38217SOL    HW118056   9.114   6.189   7.320  0.4998  0.0060 -0.9730
38217SOL    HW218057   9.173   6.328   7.327  1.5443 -0.5206  1.4501
38218SOL     OW18058   5.633   8.787   8.247 -0.1496  0.1039 -0.2429
38218SOL    HW118059   5.648   8.694   8.234  0.4420  0.4093 -1.9523
38218SOL    HW218060   5.690   8.829   8.182 -0.3331  1.6494  0.5813
38219SOL     OW18061   5.691   8.353   5.723 -0.0236  0.1655 -0.3568
38219SOL    HW118062   5.622   8.400   5.770 -2.1928 -1.6035 -1.6537
38219SOL    HW218063   5.744   8.314   5.793  0.9536  3.2501  0.6945
38220SOL     OW18064   4.089   4.910   3.945  0.6905 -0.6417 -0.0245
38220SOL    HW118065   4.061   4.820   3.966 -0.2836 -0.1607  0.8114
38220SOL    HW218066   4.131   4.903   3.860  1.1026 -1.9901  0.2669
38221SOL     OW18067   8.568   4.421   3.645  0.2137  0.3622  0.2082
38221SOL    HW118068   8.556   4.502   3.596 -0.8503 -1.7235 -3.1866
38221SOL    HW218069   8.481   4.402   3.681  0.5513  0.8913  1.3253
38222SOL     OW18070   0.318   1.430   1.104  0.2375 -0.0721 -0.1776
38222SOL    HW118071   0.275   1.426   1.189  1.1971 -0.3717  0.3034
38222SOL    HW218072   0.404   1.389   1.118  1.7756  2.9116 -0.4187
38223SOL     OW18073   9.415   8.799   7.801 -0.6732  0.6888  0.4304
38223SOL    HW118074   9.380   8.744   7.872  1.0252 -1.2320 -0.1964
38223SOL    HW218075   9.442   8.880   7.845  0.8499 -0.6817  2.0892
38224SOL     OW18076   9.101   5.976   2.783 -0.4260  0.0998  0.0395
38224SOL    HW118077   9.127   5.902   2.727 -0.1201  0.0614  0.2306
38224SOL    HW218078   9.155   6.049   2.752  1.3395 -0.4492  1.7002
38225SOL     OW18079   7.744   5.470   4.367  0.2027  0.1320 -0.1510
38225SOL    HW118080   7.747   5.510   4.281  0.6583 -1.2910 -0.8160
38225SOL    HW218081   7.829   5.491   4.407 -0.3785  1.5896  0.3261
38226SOL     OW18082   1.130   6.978   8.482  0.0539 -0.7060 -0.2660
38226SOL    HW118083   1.064   6.998   8.416  0.8505 -0.4436 -0.9926
38226SOL    HW218084   1.213   7.009   8.444  0.2411  1.4144  1.7197
38227SOL     OW18085   5.914   3.185  10.660 -0.3639  0.2813  0.2630
38227SOL    HW118086   5.935   3.096  10.632 -0.6261  0.8914 -1.9127
38227SOL    HW218087   5.870   3.173  10.745  1.3954 -1.5059  0.9741
38228SOL     OW18088   9.027   4.642   8.988  0.0607  0.0034  0.0267
38228SOL    HW118089   9.034   4.735   8.969 -0.1198 -0.4418 -2.3622
38228SOL    HW218090   9.021   4.637   9.083  0.4484  2.3977  0.1931
38229SOL     OW18091   6.006   5.536   5.855 -0.0219  0.4169  0.6546
38229SOL    HW118092   5.943   5.588   5.806 -0.6690 -2.0249 -1.2265
38229SOL    HW218093   5.954   5.490   5.921  0.1971  0.5048  0.8905
38230SOL     OW18094   1.804   5.762   6.425 -0.6288 -0.5002  0.1358
38230SOL    HW118095   1.715   5.795   6.415 -1.1339 -2.1915 -1.0945
38230SOL    HW218096   1.792   5.670   6.450  0.7825 -0.9425 -0.8117
38231SOL     OW18097   7.831   2.297   3.781 -0.0664  0.0040 -0.1132
38231SOL    HW118098   7.784   2.302   3.698  2.3804 -1.9994 -1.6768
38231SOL    HW218099   7.814   2.209   3.813 -0.9300  0.7292  1.5402
38232SOL     OW18100   6.956   1.370   8.592  0.2902 -0.4094  0.0217
38232SOL    HW118101   6.966   1.306   8.662 -1.5916 -0.1275  0.5781
38232SOL    HW218102   6.894   1.435   8.627  1.0399  0.9357 -1.0726
38233SOL     OW18103   6.804   2.468   6.923  0.3953 -0.3490 -0.5729
38233SOL    HW118104   6.756   2.392   6.955  0.5895 -0.2548 -0.0563
38233SOL    HW218105   6.764   2.543   6.967  2.2483 -0.4414  1.3352
38234SOL     OW18106   9.426   2.705   3.668  0.2165  0.2652 -0.2594
38234SOL    HW118107   9.395   2.623   3.629 -0.7653  0.7438 -0.4892
38234SOL    HW218108   9.383   2.774   3.618  0.6350  0.9176  0.2662
38235SOL     OW18109   3.806   7.113   3.224  0.0744  0.4320  0.2237
38235SOL    HW118110   3.829   7.171   3.296  1.2288 -0.2304  0.3989
38235SOL    HW218111   3.799   7.171   3.148  0.5304  0.8954  0.5348
38236SOL     OW18112   6.263   3.344   5.825 -0.1386  0.5520  0.1163
38236SOL    HW118113   6.191   3.290   5.859 -0.5833  0.8680 -0.3212
38236SOL    HW218114   6.313   3.284   5.769  1.0819 -0.2033  1.9563
38237SOL     OW18115   8.304   1.380   3.367  0.1546 -0.1072 -0.0517
38237SOL    HW118116   8.274   1.409   3.281 -0.3923 -1.3342 -0.2890
38237SOL    HW218117   8.319   1.286   3.357  0.3891 -0.2062  1.1030
38238SOL     OW18118   4.916   3.547   5.811  0.4070 -0.1859  0.9120
38238SOL    HW118119   4.973   3.548   5.888 -0.5310  0.0615  1.6040
38238SOL    HW218120   4.831   3.578   5.843 -0.5329 -1.9767  0.2074
38239SOL     OW18121   6.092   4.036   9.197  0.0208  0.2508 -0.2017
38239SOL    HW118122   6.008   4.041   9.242  0.0146  1.8762 -0.3661
38239SOL    HW218123   6.069   4.009   9.108 -0.1470 -1.0780  0.2370
38240SOL     OW18124   7.605   6.591   3.474  0.1011  0.1369  0.2461
38240SOL    HW118125   7.641   6.549   3.396  1.6567  0.9907  0.4838
38240SOL    HW218126   7.589   6.519   3.535 -0.9663 -0.5222 -0.7655
38241SOL     OW18127   9.795   4.742   5.560  0.4782 -0.2920  0.3403
38241SOL    HW118128   9.850   4.666   5.541 -0.6993 -0.9981 -0.3335
38241SOL    HW218129   9.714   4.704   5.595 -0.1823  0.6390 -0.1729
38242SOL     OW18130   3.771   2.484   2.608  0.4754  0.1870  0.4961
38242SOL    HW118131   3.855   2.437   2.602 -1.1545 -2.9592  1.5078
38242SOL    HW218132   3.714   2.438   2.546 -0.5306  2.3502 -0.2198
38243SOL     OW18133   3.192  10.212   5.230 -0.3317  0.3870  0.6057
38243SOL    HW118134   3.161  10.122   5.237  3.2637 -0.9681  0.0824
38243SOL    HW218135   3.236  10.229   5.313  2.4579  0.2087 -0.7620
38244SOL     OW18136  10.480   2.663   6.885 -0.5075 -0.1470 -0.2075
38244SOL    HW118137  10.563   2.684   6.928 -0.5735 -0.5644  0.1312
38244SOL    HW218138  10.414   2.713   6.934 -0.1796  2.0884 -1.9930
38245SOL     OW18139   1.091   4.009  10.728 -0.1376 -0.0853 -0.0833
38245SOL    HW118140   1.037   4.011  10.807 -0.4463 -0.4549 -0.2833
38245SOL    HW218141   1.172   4.053  10.753  0.4675 -1.7267  0.9400
38246SOL     OW18142   8.076   7.287  10.346 -0.0503  0.3450 -0.3961
38246SOL    HW118143   7.982   7.297  10.333 -0.3605  1.0332  2.0045
38246SOL    HW218144   8.109   7.377  10.350  0.6352  0.1108 -0.8343
38247SOL     OW18145   3.653   5.223   6.887 -1.1680  0.7090  0.6490
38247SOL    HW118146   3.599   5.150   6.917 -2.2183  1.5275  0.7729
38247SOL    HW218147   3.685   5.195   6.801 -1.3216 -0.0201  0.8285
38248SOL     OW18148   4.503   2.550   5.998 -0.9724  0.0346  0.5792
38248SOL    HW118149   4.543   2.481   5.946 -0.2041  0.6414  0.3479
38248SOL    HW218150   4.530   2.532   6.088  0.1312  0.6318  0.3834
38249SOL     OW18151   4.121   5.400   4.056  0.7281  0.3199 -0.4626
38249SOL    HW118152   4.050   5.364   4.108  1.7064  1.6914  1.9210
38249SOL    HW218153   4.169   5.324   4.023 -0.5979 -0.5770 -0.3238
38250SOL     OW18154   1.977   5.467   9.915  0.1111 -0.2059 -0.2593
38250SOL    HW118155   2.016   5.385   9.946  0.1623 -0.0222  0.1597
38250SOL    HW218156   2.014   5.478   9.827  0.3488 -0.4704 -0.1949
38251SOL     OW18157   2.714   9.965   6.857 -0.2695  0.2474 -0.0754
38251SOL    HW118158   2.640   9.908   6.835  1.5736 -2.4022  0.3184
38251SOL    HW218159   2.746   9.932   6.941  1.4681  1.2094 -0.3258
38252SOL     OW18160   0.907   3.331   9.772 -0.4001 -0.1957 -0.4261
38252SOL    HW118161   0.887   3.259   9.832 -1.2137 -0.1906 -0.6829
38252SOL    HW218162   0.958   3.392   9.824 -1.4804  0.0216  0.3912
38253SOL     OW18163   2.607   2.850   8.756  0.5368 -0.5704  0.0828
38253SOL    HW118164   2.622   2.786   8.825  0.7542 -2.0922 -1.3463
38253SOL    HW218165   2.646   2.931   8.790  1.7008 -1.5918  1.2450
38254SOL     OW18166   1.347   6.062   0.122 -0.3163  0.2182 -0.0219
38254SOL    HW118167   1.413   6.130   0.132 -1.8651  1.8359 -0.5950
38254SOL    HW218168   1.266   6.109   0.103 -1.4289 -1.7762 -0.3979
38255SOL     OW18169   1.041   2.615   5.948  0.6930  0.2892  0.4628
38255SOL    HW118170   0.986   2.537   5.935 -0.6980  1.0634  1.5621
38255SOL    HW218171   1.124   2.580   5.981  0.1729 -0.7665  0.6832
38256SOL     OW18172   8.890   8.301   4.495  0.4740  0.8979  0.5869
38256SOL    HW118173   8.804   8.270   4.525  0.0221  0.2031 -1.3552
38256SOL    HW218174   8.871   8.380   4.446  0.8041  0.0556 -0.9131
38257SOL     OW18175   6.522   8.603   5.576 -0.0041  0.8906  0.1870
38257SOL    HW118176   6.598   8.544   5.576  0.9378  2.0725  0.0225
38257SOL    HW218177   6.446   8.545   5.570  0.9014 -0.3031  0.0600
38258SOL     OW18178  10.320   9.597   9.419 -0.6320 -0.2813 -0.1493
38258SOL    HW118179  10.324   9.514   9.371  2.1072 -0.0786 -0.3604
38258SOL    HW218180  10.329   9.572   9.511  1.8815 -0.1614 -0.3186
38259SOL     OW18181   0.670   2.613   9.198  0.1761 -0.3494  0.3588
38259SOL    HW118182   0.669   2.529   9.151 -2.6884  0.0180 -0.3361
38259SOL    HW218183   0.655   2.678   9.130 -2.1902  0.3409  1.4960
38260SOL     OW18184   6.121   6.255   0.332  0.7052 -0.0481  0.0796
38260SOL    HW118185   6.086   6.339   0.360 -0.1200 -0.3785  0.0308
38260SOL    HW218186   6.213   6.274   0.313  0.5507  0.8243  0.1533
38261SOL     OW18187   6.759   9.937  10.361  0.0388  0.3072 -0.0433
38261SOL    HW118188   6.821   9.966  10.428  1.8009 -1.7621 -0.7202
38261SOL    HW218189   6.675   9.975  10.388  0.9201  0.4003  2.7532
38262SOL     OW18190   1.125   2.239   9.347 -0.3328 -0.2713  0.0014
38262SOL    HW118191   1.121   2.196   9.432  0.2148  2.1712  1.2846
38262SOL    HW218192   1.098   2.329   9.363  0.9783  0.5580 -2.1680
38263SOL     OW18193   6.606   3.481  10.467  0.1470 -0.3361  0.0736
38263SOL    HW118194   6.635   3.470  10.557  1.0501 -1.6448 -0.3696
38263SOL    HW218195   6.517   3.448  10.466 -0.0914  0.2679  0.6143
38264SOL     OW18196   0.467   1.522   5.415  0.5393 -0.4730 -0.1645
38264SOL    HW118197   0.374   1.501   5.417  0.5240 -0.3350  1.0286
38264SOL    HW218198   0.472   1.615   5.434  0.8972 -0.3792 -0.6913
38265SOL     OW18199   9.136   9.742   1.829  0.1850  0.1770 -0.1154
38265SOL    HW118200   9.132   9.723   1.922  0.6176  1.4816  0.1836
38265SOL    HW218201   9.050   9.781   1.809 -0.4744 -1.4665 -0.5967
38266SOL     OW18202   8.902   2.837   9.531 -0.3498  0.2136  0.0051
38266SOL    HW118203   8.980   2.870   9.486 -2.6631 -0.1085 -4.4614
38266SOL    HW218204   8.844   2.913   9.537 -1.6393 -0.6712 -1.1434
38267SOL     OW18205  10.536  10.762   1.286  0.1924  0.4894  0.0953
38267SOL    HW118206  10.488  10.679   1.277  1.0552  0.0647 -0.6800
38267SOL    HW218207  10.558  10.767   1.379 -1.2157  0.6208  0.4415
38268SOL     OW18208   2.517   9.903  10.923 -0.5815 -0.5689  0.0664
38268SOL    HW118209   2.485   9.841  10.858 -0.1628 -1.0616  0.3231
38268SOL    HW218210   2.438   9.940  10.962 -0.8339 -0.6736 -0.3446
38269SOL     OW18211   9.630   3.912   0.791 -0.4824 -0.3926  0.5152
38269SOL    HW118212   9.608   3.890   0.881  0.5521  0.8397  1.0739
38269SOL    HW218213   9.658   4.003   0.793 -0.8561 -0.2164 -1.1231
38270SOL     OW18214   8.243   9.779  10.885 -0.1099 -0.0079  0.0085
38270SOL    HW118215   8.284   9.722  10.820 -0.2691  2.1768 -2.0932
38270SOL    HW218216   8.301   9.855  10.890 -1.4279  0.9820  0.5511
38271SOL     OW18217   8.160   4.992   6.496  0.4341  0.5574 -0.2116
38271SOL    HW118218   8.170   4.944   6.578  1.2975  0.4449 -0.3801
38271SOL    HW218219   8.090   4.946   6.450  1.0678 -0.3921 -0.2472
38272SOL     OW18220   7.700   0.700   9.348  0.1399 -0.0895 -0.6927
38272SOL    HW118221   7.677   0.790   9.371  2.5815  0.7403 -1.4173
38272SOL    HW218222   7.718   0.658   9.432 -0.4648  0.2325 -0.3936
38273SOL     OW18223   7.187   1.956   8.789 -0.4516 -0.2794  0.7419
38273SOL    HW118224   7.251   1.895   8.752  0.5916  0.3858  1.4174
38273SOL    HW218225   7.174   2.022   8.721 -0.3057 -0.3352  0.6596
38274SOL     OW18226   1.881   9.290   2.635 -0.1030 -0.2259 -0.4983
38274SOL    HW118227   1.805   9.251   2.591  0.4563  0.1312 -1.8113
38274SOL    HW218228   1.918   9.218   2.686 -2.1951 -0.0134  1.3743
38275SOL     OW18229   6.395   0.606   2.132  0.1900 -0.7935  0.0524
38275SOL    HW118230   6.385   0.530   2.074  0.3300 -0.4322 -0.4446
38275SOL    HW218231   6.476   0.648   2.103 -0.8841  0.6495 -0.9528
38276SOL     OW18232   3.680  10.664   0.916 -0.0465  0.3104  0.2720
38276SOL    HW118233   3.592  10.641   0.945  0.2264  1.3170  1.9679
38276SOL    HW218234   3.667  10.716   0.837 -1.1502  2.5418  1.8467
38277SOL     OW18235   6.382   6.909   7.497  0.0923 -0.2948  0.2189
38277SOL    HW118236   6.360   6.973   7.564  0.6954 -0.6591  0.7775
38277SOL    HW218237   6.381   6.958   7.415 -2.1700 -0.1854  0.2984
38278SOL     OW18238   9.786   8.063   3.937 -0.0493  0.3453 -0.0542
38278SOL    HW118239   9.874   8.073   3.899  0.3460 -2.2016  0.1112
38278SOL    HW218240   9.797   8.084   4.030  0.8853 -2.0698  0.4190
38279SOL     OW18241  10.472   4.351   4.591 -0.3195  0.3731  0.2108
38279SOL    HW118242  10.461   4.446   4.600  0.7026  0.5364 -0.2732
38279SOL    HW218243  10.516   4.325   4.672 -0.0820  0.3970  0.0906
38280SOL     OW18244   9.385   6.022   3.476  0.4019 -0.1503 -0.2764
38280SOL    HW118245   9.306   5.976   3.504  0.6603  0.3183  1.2155
38280SOL    HW218246   9.429   5.960   3.417  0.0636 -1.2788  0.6527
38281SOL     OW18247   4.181   1.441   6.205 -0.2273  1.0398  0.4226
38281SOL    HW118248   4.228   1.518   6.238  0.3419  0.8994 -0.0385
38281SOL    HW218249   4.111   1.477   6.151  0.1734  1.2379  0.0270
38282SOL     OW18250   5.584   0.314   5.562 -0.2928  0.3630  0.1260
38282SOL    HW118251   5.652   0.321   5.495  0.2921 -0.8939  0.5652
38282SOL    HW218252   5.543   0.229   5.546  0.7006 -0.5366  2.1203
38283SOL     OW18253   7.369   8.151   9.484 -0.8463  0.3691 -0.1766
38283SOL    HW118254   7.353   8.246   9.477 -0.3040  0.6898  2.3481
38283SOL    HW218255   7.456   8.139   9.448 -1.3501  0.6652 -1.5095
38284SOL     OW18256   2.844   6.842   0.413  0.0269  0.0008 -0.5079
38284SOL    HW118257   2.834   6.774   0.479  2.3313  0.4979  0.4012
38284SOL    HW218258   2.794   6.916   0.447  1.9063  0.5501  1.1577
38285SOL     OW18259   4.047   1.421   3.012 -0.5131 -0.0773  0.3223
38285SOL    HW118260   3.986   1.348   2.999 -0.9038  0.5032 -1.2817
38285SOL    HW218261   4.092   1.430   2.928 -0.3865  1.4423  0.5342
38286SOL     OW18262   6.661  10.184  10.829 -0.4119  0.3091  0.1992
38286SOL    HW118263   6.628  10.255  10.774 -0.3719  0.5373  0.4706
38286SOL    HW218264   6.641  10.211  10.919  1.5986  1.0274  0.4553
38287SOL     OW18265   8.811   4.124   3.950 -0.2061 -0.2896 -0.2047
38287SOL    HW118266   8.756   4.199   3.931  0.0031  0.3387  1.5246
38287SOL    HW218267   8.773   4.052   3.900 -0.6859  0.8556 -1.5122
38288SOL     OW18268   7.378   5.129   7.425  0.1461  1.0885  0.3692
38288SOL    HW118269   7.299   5.093   7.385 -1.8511  1.4576  3.7387
38288SOL    HW218270   7.428   5.051   7.452 -0.3312  0.8489  0.5635
38289SOL     OW18271   9.719  10.084   3.548 -0.2840 -0.3502  0.0569
38289SOL    HW118272   9.793  10.114   3.496  0.0162 -1.0886  0.0498
38289SOL    HW218273   9.683  10.011   3.498  0.7918 -1.9066  1.4810
38290SOL     OW18274  10.140   8.197   1.669  0.2242  0.1393 -0.1264
38290SOL    HW118275  10.070   8.229   1.613 -0.4498 -0.8816  0.0950
38290SOL    HW218276  10.191   8.138   1.614 -0.1626 -0.5049  0.1923
38291SOL     OW18277   6.198   8.591   5.735 -0.0598 -0.4053  0.1844
38291SOL    HW118278   6.121   8.547   5.770  0.8986 -0.8703  1.7409
38291SOL    HW218279   6.163   8.665   5.685 -1.4893 -0.3495  1.2567
38292SOL     OW18280   6.554   2.720  10.278 -0.3297  0.2346 -0.1227
38292SOL    HW118281   6.631   2.665  10.263 -0.1460  0.6668 -0.8094
38292SOL    HW218282   6.514   2.684  10.357 -0.2052 -0.8714 -0.5544
38293SOL     OW18283  10.229  10.761   6.873 -0.3247 -0.0954 -0.2122
38293SOL    HW118284  10.275  10.839   6.843  0.9180 -0.7425 -0.0272
38293SOL    HW218285  10.238  10.698   6.801 -0.7201 -0.3065 -0.0805
38294SOL     OW18286   6.290   9.128   8.291  0.0062 -0.2697  0.1415
38294SOL    HW118287   6.227   9.067   8.251  0.4628  0.5568 -1.8970
38294SOL    HW218288   6.253   9.214   8.273  1.7796  0.2257 -1.1913
38295SOL     OW18289  10.546   9.852  10.809 -0.0914 -0.5166  0.3550
38295SOL    HW118290  10.533   9.857  10.904 -0.7992  0.1342  0.2216
38295SOL    HW218291  10.512   9.766  10.785 -0.2673 -0.5259  0.6357
38296SOL     OW18292   1.311   3.339   8.033  0.1295 -0.6447 -0.5275
38296SOL    HW118293   1.287   3.409   8.094  0.1435 -1.6960  0.7052
38296SOL    HW218294   1.344   3.385   7.956  0.5473  0.6962  0.4353
38297SOL     OW18295   9.152   1.979   1.323  0.5974 -0.2543 -0.1725
38297SOL    HW118296   9.108   2.000   1.405  1.0326  3.6032 -0.8511
38297SOL    HW218297   9.080   1.970   1.260  0.2136 -3.9013  0.6761
38298SOL     OW18298   8.729   4.078  10.138 -0.4101 -0.0553 -0.3134
38298SOL    HW118299   8.689   4.156  10.098  0.3381  0.1903 -0.6062
38298SOL    HW218300   8.683   4.067  10.221 -1.4966 -0.1467 -0.9250
38299SOL     OW18301   4.601   5.466   7.808 -0.4803  0.3450  0.3503
38299SOL    HW118302   4.660   5.453   7.882 -0.0498 -1.1033 -0.2124
38299SOL    HW218303   4.551   5.544   7.829  0.2008  0.3963  1.7934
38300SOL     OW18304   9.049   1.308   5.003 -0.3950  0.3554 -0.6003
38300SOL    HW118305   9.034   1.231   5.057 -0.3029  0.7627  0.0091
38300SOL    HW218306   9.005   1.288   4.920  0.0904 -0.5686 -0.6360
38301SOL     OW18307   7.366   6.843   0.387 -0.5091  0.1702 -0.3206
38301SOL    HW118308   7.372   6.771   0.324 -0.0345 -0.3685  0.3206
38301SOL    HW218309   7.284   6.828   0.433  0.6633 -1.3299  1.3994
38302SOL     OW18310   3.962   1.120   3.806 -0.2668 -0.8365  0.0617
38302SOL    HW118311   3.872   1.089   3.792 -1.0711  0.9972  0.9436
38302SOL    HW218312   3.973   1.120   3.901 -0.3635  1.6304  0.1030
38303SOL     OW18313   8.476   4.219   9.067 -0.0672 -0.2722  0.0770
38303SOL    HW118314   8.402   4.161   9.050  0.3326 -0.6023 -0.5420
38303SOL    HW218315   8.553   4.169   9.040  0.2161  0.8374 -1.1946
38304SOL     OW18316   7.258  10.458   3.292 -0.5588 -0.0114 -0.0705
38304SOL    HW118317   7.281  10.516   3.220  0.0076  0.5399  0.5389
38304SOL    HW218318   7.288  10.505   3.371 -0.4581 -0.9444  0.4553
38305SOL     OW18319   2.797   5.973   2.748 -0.0520  0.2022  0.1624
38305SOL    HW118320   2.751   5.962   2.831  0.8071  0.1578  0.6342
38305SOL    HW218321   2.753   5.911   2.689  0.2278 -0.7631  0.9514
38306SOL     OW18322   7.103   2.801   9.108 -0.1068  0.2888 -0.4313
38306SOL    HW118323   7.155   2.832   9.182 -0.3073 -0.3974  0.0054
38306SOL    HW218324   7.101   2.875   9.047 -1.4258  1.5135  1.0284
38307SOL     OW18325   3.853   5.659   8.267  0.2517  0.1123 -0.0428
38307SOL    HW118326   3.783   5.615   8.316 -0.5292  1.8519  0.4343
38307SOL    HW218327   3.822   5.658   8.176 -0.0341  0.1871  0.0526
38308SOL     OW18328   8.381   2.865   3.327  0.1188 -0.2128 -0.3431
38308SOL    HW118329   8.319   2.878   3.254  2.0869  0.4044 -1.9542
38308SOL    HW218330   8.391   2.770   3.332  0.1001 -0.2565 -0.9998
38309SOL     OW18331   6.319   6.643  10.675  0.3285  0.0475  0.6995
38309SOL    HW118332   6.264   6.573  10.638  2.3110 -1.0278 -0.3263
38309SOL    HW218333   6.264   6.684  10.742 -1.0276 -2.2520  1.0655
38310SOL     OW18334   7.497  10.317   3.946  0.5952  0.5054  0.0297
38310SOL    HW118335   7.402  10.326   3.941  0.7001  1.3201 -0.5243
38310SOL    HW218336   7.511  10.226   3.975 -0.3671  0.7326  1.2468
38311SOL     OW18337   4.461   0.010  10.362  0.0090 -0.3080 -0.0370
38311SOL    HW118338   4.537  -0.021  10.410  1.4930 -0.8231 -2.6261
38311SOL    HW218339   4.469   0.106  10.364  0.0089 -0.3246  0.8007
38312SOL     OW18340  10.616  10.523   0.260  0.1521  0.1790 -0.1598
38312SOL    HW118341  10.590  10.431   0.254  0.4752  0.1919 -1.8058
38312SOL    HW218342  10.704  10.521   0.296  0.1397 -0.1423 -0.1480
38313SOL     OW18343   8.719  10.849   9.242 -0.0992  0.3944 -0.0273
38313SOL    HW118344   8.745  10.856   9.333 -1.3282  2.9541  0.1493
38313SOL    HW218345   8.624  10.864   9.242  0.0390  1.4546 -1.8347
38314SOL     OW18346   7.668   9.343   0.595 -0.3567 -0.0795 -0.0966
38314SOL    HW118347   7.634   9.322   0.508  1.0447  0.3880 -0.7658
38314SOL    HW218348   7.618   9.420   0.622  1.7311  2.0146 -2.0569
38315SOL     OW18349   7.018   0.271   5.308  0.1729 -0.0181  0.1662
38315SOL    HW118350   6.971   0.312   5.236 -0.3037 -0.8658 -0.0151
38315SOL    HW218351   6.990   0.319   5.386 -0.4388 -0.0471 -0.0310
38316SOL     OW18352   7.426   6.866   1.634  0.3340  0.2469 -0.4302
38316SOL    HW118353   7.339   6.901   1.614  0.7304  1.4250 -0.0983
38316SOL    HW218354   7.415   6.819   1.716 -0.1126 -0.0620 -0.6678
38317SOL     OW18355   0.584   2.224  10.005 -0.1680  0.4297 -0.2593
38317SOL    HW118356   0.677   2.202   9.996 -0.2321  0.4614 -1.0018
38317SOL    HW218357   0.571   2.299   9.948 -0.6960  0.3055 -0.3056
38318SOL     OW18358   2.547  10.839   4.770 -0.1712 -0.0657 -0.0337
38318SOL    HW118359   2.639  10.866   4.780  0.2145 -1.3279 -0.0117
38318SOL    HW218360   2.549  10.775   4.698 -1.2130  0.7364 -0.7909
38319SOL     OW18361   4.977   3.706   0.007 -0.0110 -0.3906  0.2656
38319SOL    HW118362   4.995   3.745   0.093  1.1134  1.0591 -0.5979
38319SOL    HW218363   5.052   3.648  -0.009  0.7894  0.8286 -0.5579
38320SOL     OW18364   8.437   4.460   4.358  0.2585  0.0394 -0.2375
38320SOL    HW118365   8.375   4.511   4.306  1.4623  0.7156 -1.0181
38320SOL    HW218366   8.455   4.516   4.434 -0.7164 -0.5208  0.4295
38321SOL     OW18367   7.872   5.112   7.505 -0.3945  0.0239 -0.3095
38321SOL    HW118368   7.818   5.123   7.427 -2.5930 -1.7750  0.8639
38321SOL    HW218369   7.914   5.027   7.493 -0.2697  0.0175  0.1471
38322SOL     OW18370   5.787  10.081   1.576 -0.0345 -0.0471 -0.2782
38322SOL    HW118371   5.788  10.175   1.557  0.0510 -0.1928 -1.0098
38322SOL    HW218372   5.702  10.067   1.617  1.0057  0.8037  2.2737
38323SOL     OW18373   9.609   6.496   0.076  0.9514 -0.5501 -0.3199
38323SOL    HW118374   9.590   6.468  -0.014 -0.6754 -0.7753  0.0716
38323SOL    HW218375   9.703   6.513   0.077  1.2210 -1.8690 -1.7081
38324SOL     OW18376   2.042   3.848   6.927  0.6513 -0.2268  0.5334
38324SOL    HW118377   2.113   3.895   6.884  0.1442 -0.4280 -0.5471
38324SOL    HW218378   1.969   3.851   6.865  0.7827 -2.9000  0.1966
38325SOL     OW18379  10.885   5.350   2.608  0.5396  0.1719  0.4935
38325SOL    HW118380  10.827   5.280   2.638  0.2249  0.0092 -0.4910
38325SOL    HW218381  10.970   5.329   2.646  0.2985 -0.4029  0.7187
38326SOL     OW18382   8.677   3.292   9.456 -0.3728 -0.0750 -0.3001
38326SOL    HW118383   8.662   3.376   9.499 -0.1468 -0.3726  0.3648
38326SOL    HW218384   8.756   3.305   9.404 -0.9421  0.4448 -1.0592
38327SOL     OW18385   7.155  10.448   7.851 -0.5347  0.2543  0.2847
38327SOL    HW118386   7.114  10.364   7.833  1.6944 -1.1575  1.5026
38327SOL    HW218387   7.235  10.426   7.898  0.5635  3.0143 -0.1691
38328SOL     OW18388   2.569  10.548   4.787  0.0731 -0.6624 -0.5195
38328SOL    HW118389   2.657  10.572   4.815  0.3428 -1.7350 -0.4110
38328SOL    HW218390   2.512  10.616   4.824  1.0466  1.1655 -2.2762
38329SOL     OW18391   2.578   1.717   0.309 -0.0323  0.0099  0.5218
38329SOL    HW118392   2.484   1.721   0.292 -0.0469 -1.2843  0.2147
38329SOL    HW218393   2.618   1.745   0.226 -0.1534 -0.1250  0.4161
38330SOL     OW18394  10.267   3.390   1.513 -0.1187 -0.2246  0.6814
38330SOL    HW118395  10.302   3.430   1.593  1.9089  1.4510 -0.9695
38330SOL    HW218396  10.182   3.432   1.500 -0.2568 -0.1723  1.6986
38331SOL     OW18397   9.338   6.083   9.733  0.5687 -0.2092 -0.5406
38331SOL    HW118398   9.271   6.083   9.666  0.1249  1.4884 -0.1046
38331SOL    HW218399   9.395   6.157   9.712  1.9084 -1.1846 -0.4948
38332SOL     OW18400   7.205   9.669  10.702  0.1519  0.0748 -0.3344
38332SOL    HW118401   7.112   9.650  10.690  0.2329 -0.3162 -0.3369
38332SOL    HW218402   7.220   9.660  10.796 -0.2565  2.1297 -0.0451
38333SOL     OW18403   3.990  10.297   9.001  1.0317  0.0141  0.0336
38333SOL    HW118404   3.942  10.291   9.083  0.3481 -0.1724 -0.3713
38333SOL    HW218405   4.016  10.388   8.994  0.0943  0.2728 -0.0995
38334SOL     OW18406   4.860   1.542   9.063  0.0503  0.1235  0.4878
38334SOL    HW118407   4.949   1.544   9.097 -0.1221  0.0667  0.9494
38334SOL    HW218408   4.822   1.461   9.099  0.1773 -0.4440 -0.6373
38335SOL     OW18409   1.164   6.824   3.547 -0.6183 -0.4290 -1.0076
38335SOL    HW118410   1.079   6.866   3.538 -1.4716 -1.7228  0.7444
38335SOL    HW218411   1.211   6.877   3.611 -1.2265 -1.3733  0.2485
38336SOL     OW18412  10.553  10.314   1.411  0.0666  0.0911 -0.2555
38336SOL    HW118413  10.477  10.370   1.423  0.5091  0.7212 -0.3632
38336SOL    HW218414  10.580  10.329   1.321  0.3378 -0.1116 -0.2103
38337SOL     OW18415  10.321   9.366  10.583 -0.2586  0.7768 -0.4969
38337SOL    HW118416  10.336   9.389  10.674  0.4916  1.8619 -0.8732
38337SOL    HW218417  10.258   9.431  10.551 -0.3411  0.5501 -0.7964
38338SOL     OW18418   7.144   8.066  10.043 -0.3113 -0.5258 -0.0088
38338SOL    HW118419   7.161   8.094   9.953 -0.7095 -0.9697 -0.2305
38338SOL    HW218420   7.231   8.051  10.080 -0.1818 -2.2917 -0.9578
38339SOL     OW18421   3.126   5.243   5.828  0.0566  0.3606  0.5613
38339SOL    HW118422   3.213   5.209   5.851  0.0779  0.0095 -0.0302
38339SOL    HW218423   3.139   5.284   5.742 -0.4558 -0.0687  0.2768
38340SOL     OW18424  10.197   9.976   7.453  0.0961 -0.1858  0.3230
38340SOL    HW118425  10.156   9.893   7.430  3.0092 -2.0682  1.6996
38340SOL    HW218426  10.242  10.003   7.373 -2.2092  0.9601 -0.6298
38341SOL     OW18427   7.032   5.949   0.045  0.6909 -0.2301 -0.0036
38341SOL    HW118428   7.102   5.883   0.042  1.0598  0.1802 -0.5281
38341SOL    HW218429   7.078   6.033   0.032  0.4378  0.2895  2.2475
38342SOL     OW18430   6.532   2.229   0.682  0.5437 -0.3676  0.7350
38342SOL    HW118431   6.606   2.217   0.623 -0.1867  0.6844 -0.4154
38342SOL    HW218432   6.564   2.291   0.749  1.5487 -1.9887  1.7962
38343SOL     OW18433   8.938   2.059   3.192 -0.3569 -0.0980 -1.0683
38343SOL    HW118434   8.935   2.123   3.263 -1.1051 -0.0101 -1.1786
38343SOL    HW218435   8.865   2.000   3.209  0.9852 -1.5912 -0.3434
38344SOL     OW18436   8.215   6.836   1.643  0.1215 -0.3524  0.0298
38344SOL    HW118437   8.234   6.749   1.608  1.0440  0.6674 -2.1146
38344SOL    HW218438   8.140   6.823   1.702  2.0686 -3.0798  2.0705
38345SOL     OW18439   4.533   4.156  10.703  0.0178 -0.0127 -0.1832
38345SOL    HW118440   4.457   4.133  10.650  0.0299  0.6323 -0.4960
38345SOL    HW218441   4.525   4.104  10.782 -0.2165 -0.6961 -0.6540
38346SOL     OW18442   9.302  10.674  10.108 -0.4034  0.5610 -0.6445
38346SOL    HW118443   9.351  10.641  10.033  0.1945 -0.1470  0.0468
38346SOL    HW218444   9.210  10.658  10.086 -0.1500 -0.9153 -0.6235
38347SOL     OW18445   5.995   3.821   9.969 -0.2614  0.2312 -0.5939
38347SOL    HW118446   6.018   3.891   9.908  0.3185  0.2080 -0.4127
38347SOL    HW218447   6.030   3.742   9.929  0.2595  0.2393 -0.1594
38348SOL     OW18448  10.642   0.104   6.911 -0.0508 -0.2811 -0.1752
38348SOL    HW118449  10.638   0.145   6.825  1.2266 -0.7174 -0.4472
38348SOL    HW218450  10.667   0.174   6.971  1.8354 -0.5745 -0.5951
38349SOL     OW18451   5.722   7.700   4.621 -0.2878 -0.2480 -0.3724
38349SOL    HW118452   5.715   7.725   4.713  0.6714 -3.3240  0.5994
38349SOL    HW218453   5.631   7.695   4.591 -0.5675  2.0485  0.0059
38350SOL     OW18454   7.714   4.065   6.607  0.1636  0.4722 -0.5470
38350SOL    HW118455   7.630   4.050   6.651 -0.0944  0.4166 -1.0555
38350SOL    HW218456   7.715   4.002   6.535  2.3717 -2.3133  1.7596
38351SOL     OW18457  10.387   9.968   0.892  0.1725 -0.3062  0.0680
38351SOL    HW118458  10.464   9.965   0.835 -0.6064  0.8927 -1.0814
38351SOL    HW218459  10.313   9.976   0.832 -0.8467 -1.3786  1.1680
38352SOL     OW18460  10.794   4.727   3.703  0.6507 -0.0645 -0.1913
38352SOL    HW118461  10.709   4.703   3.741  0.5974 -0.6551 -0.6825
38352SOL    HW218462  10.858   4.707   3.772  0.1565  2.8172  1.1600
38353SOL     OW18463   5.647   1.202   9.651  0.7371  0.0534 -0.2004
38353SOL    HW118464   5.706   1.136   9.615 -0.2858 -1.4362  0.7768
38353SOL    HW218465   5.691   1.285   9.636  1.5786 -0.7593 -2.3985
38354SOL     OW18466   3.462   2.605   4.764  0.6270 -0.2540 -0.1339
38354SOL    HW118467   3.481   2.560   4.682 -0.3284  1.9457 -1.5916
38354SOL    HW218468   3.378   2.568   4.792  1.0463 -1.1432 -0.0140
38355SOL     OW18469   1.193   6.962   6.327  0.2874  0.1303 -0.3587
38355SOL    HW118470   1.121   6.957   6.264  0.9164 -1.7516 -0.9730
38355SOL    HW218471   1.269   6.927   6.280  1.2240  0.5699  0.8006
38356SOL     OW18472   0.967   0.309   2.579 -0.1505  0.0639  0.4715
38356SOL    HW118473   0.984   0.359   2.499 -1.7978  0.8814  0.5932
38356SOL    HW218474   0.923   0.230   2.548  2.1734 -1.2049  0.3077
38357SOL     OW18475  10.142   6.228   9.647 -0.1856  0.4647  0.0676
38357SOL    HW118476  10.227   6.238   9.604  0.1821  0.2263  0.7394
38357SOL    HW218477  10.118   6.317   9.675 -0.9765  0.8220 -1.6558
38358SOL     OW18478   1.247   0.849   6.036 -0.1356 -0.6439 -0.1321
38358SOL    HW118479   1.331   0.814   6.006  0.4295 -1.1207  1.8681
38358SOL    HW218480   1.183   0.785   6.007  0.3012 -0.7411 -0.8959
38359SOL     OW18481   4.103   2.853   9.869  0.6860 -0.2782  0.4074
38359SOL    HW118482   4.109   2.921   9.936 -0.2754 -1.3410  1.5779
38359SOL    HW218483   4.025   2.875   9.819 -0.4233 -1.2752  1.6577
38360SOL     OW18484   9.947   1.181   5.304 -0.1000  0.4825  0.2293
38360SOL    HW118485  10.017   1.210   5.245  0.8002  0.7205  1.4024
38360SOL    HW218486   9.869   1.182   5.249  0.7362  0.5770 -1.0058
38361SOL     OW18487   1.566   0.113   3.806  0.0443 -0.5414  0.6662
38361SOL    HW118488   1.564   0.206   3.831 -0.6884 -0.2629 -0.4300
38361SOL    HW218489   1.513   0.108   3.727  0.1948 -1.8825  0.6437
38362SOL     OW18490   7.073   5.104   6.161  0.0529 -0.0616 -0.3451
38362SOL    HW118491   7.025   5.023   6.177 -1.6430  0.8660 -0.5858
38362SOL    HW218492   7.154   5.095   6.211 -0.9261 -1.1721  1.0625
38363SOL     OW18493   1.460   1.291   0.051  0.0186 -0.4783  0.4133
38363SOL    HW118494   1.519   1.364   0.072 -0.0158 -0.2184 -0.3798
38363SOL    HW218495   1.404   1.325  -0.019  0.0739 -1.3074 -0.0376
38364SOL     OW18496   3.450   6.668  10.786  0.7101  0.0709 -0.1995
38364SOL    HW118497   3.520   6.662  10.721  0.5561  0.6359 -0.4206
38364SOL    HW218498   3.406   6.583  10.782  1.3251 -0.2526 -0.1249
38365SOL     OW18499   6.259   2.441  10.271  0.2634  0.2147  0.0888
38365SOL    HW118500   6.301   2.430  10.186  1.7776 -1.8930  1.0687
38365SOL    HW218501   6.331   2.465  10.330 -0.8286  2.0177  0.7217
38366SOL     OW18502   9.754   6.975   3.466 -0.2250  0.4730  0.6744
38366SOL    HW118503   9.751   6.896   3.520 -1.4555 -0.2506 -0.4109
38366SOL    HW218504   9.790   7.042   3.524 -0.9104 -0.4312  2.1954
38367SOL     OW18505   7.002   0.411   8.349  0.0347 -0.0606  0.0627
38367SOL    HW118506   6.972   0.359   8.424 -0.4777  1.3265  0.8384
38367SOL    HW218507   6.925   0.460   8.322  0.8083  1.1683  0.0763
38368SOL     OW18508   0.478  10.576   4.992  0.0725 -0.3943  0.4672
38368SOL    HW118509   0.556  10.630   4.999  0.4964 -1.1510  1.9403
38368SOL    HW218510   0.411  10.625   5.040 -0.3439  0.2088 -0.7116
38369SOL     OW18511   6.078   2.638   3.271  0.6087 -0.5755  0.0784
38369SOL    HW118512   5.986   2.664   3.278  0.7814  0.7508 -2.2319
38369SOL    HW218513   6.076   2.561   3.214  0.8954 -0.8085  0.3826
38370SOL     OW18514   5.200   9.709  10.421  0.8219  0.1530  0.0737
38370SOL    HW118515   5.166   9.621  10.407  0.5472  0.2411  0.1966
38370SOL    HW218516   5.177   9.730  10.511  1.1760  0.2219  0.1489
38371SOL     OW18517   1.753   9.371   8.636  0.3080 -0.3146 -0.4775
38371SOL    HW118518   1.739   9.445   8.695 -0.3934 -0.7995 -0.0344
38371SOL    HW218519   1.811   9.312   8.685 -0.5214 -0.8610 -0.1548
38372SOL     OW18520   1.807   7.581   2.603 -0.2358  0.4295  0.7524
38372SOL    HW118521   1.844   7.566   2.691  1.2248  0.6229  0.1834
38372SOL    HW218522   1.851   7.516   2.548 -1.6350 -0.1196  0.2768
38373SOL     OW18523   5.629   5.600   1.970 -0.2458  0.0013 -0.1410
38373SOL    HW118524   5.611   5.567   2.058 -2.0990 -1.6078 -1.1031
38373SOL    HW218525   5.690   5.536   1.933  0.4162  0.5998 -0.0992
38374SOL     OW18526   2.448   1.820   2.162  0.0296  0.4120 -0.3445
38374SOL    HW118527   2.502   1.867   2.226 -1.3650 -0.8553  1.8236
38374SOL    HW218528   2.473   1.728   2.171 -0.5449  0.1573 -1.2444
38375SOL     OW18529   3.535   2.795   3.252 -0.2674 -0.2541  0.3730
38375SOL    HW118530   3.492   2.741   3.186  0.4908  1.8378 -1.8990
38375SOL    HW218531   3.505   2.884   3.234 -1.0943  0.2092  3.7201
38376SOL     OW18532   4.411   6.677   6.371  0.0399 -0.3254 -0.2200
38376SOL    HW118533   4.350   6.603   6.362  0.1963 -0.6184  1.0409
38376SOL    HW218534   4.387   6.736   6.300 -0.9708 -0.9749 -0.4335
38377SOL     OW18535   4.344   2.364   4.476  0.7010 -0.0911 -0.1479
38377SOL    HW118536   4.267   2.387   4.527  0.5973 -0.7227 -0.0090
38377SOL    HW218537   4.351   2.269   4.485  0.4278 -0.2798 -1.6457
38378SOL     OW18538   3.962   1.065   4.075  0.4469  0.0142  0.3371
38378SOL    HW118539   3.910   1.127   4.126 -0.5284  0.2452 -0.8995
38378SOL    HW218540   3.982   0.994   4.136 -0.7447  0.2558  1.0223
38379SOL     OW18541   9.680   0.221   3.917  0.4517  0.3870  0.1171
38379SOL    HW118542   9.603   0.255   3.871  0.5333  0.4269  0.0081
38379SOL    HW218543   9.752   0.236   3.855  0.4034 -0.4749 -0.1502
38380SOL     OW18544   7.785   3.699   4.360  0.4585 -0.1779  0.2121
38380SOL    HW118545   7.812   3.608   4.351  1.0317 -0.1382  1.5094
38380SOL    HW218546   7.867   3.747   4.376  0.0410  0.4415  0.5005
38381SOL     OW18547   5.353  10.776   5.187  0.5505 -0.3101  0.1884
38381SOL    HW118548   5.331  10.867   5.167 -1.3690 -0.7955 -0.0893
38381SOL    HW218549   5.431  10.758   5.134  0.1954  0.7972 -0.7473
38382SOL     OW18550   0.799   0.801   7.149  0.0909  0.0756  0.3606
38382SOL    HW118551   0.709   0.780   7.126 -0.1521  2.8722 -1.3909
38382SOL    HW218552   0.835   0.718   7.182 -2.6593 -1.4231 -0.2672
38383SOL     OW18553   5.657   9.151   8.684 -0.6741 -0.5103 -0.3305
38383SOL    HW118554   5.691   9.062   8.678  0.6541  0.0983 -2.6738
38383SOL    HW218555   5.566   9.144   8.656 -0.8946 -1.2833  0.5492
38384SOL     OW18556  10.365   3.424   8.533 -0.5187  0.5466 -0.0592
38384SOL    HW118557  10.389   3.334   8.555  1.1601  1.2032  0.8554
38384SOL    HW218558  10.386   3.475   8.612  1.7004  2.2708 -1.6843
38385SOL     OW18559   5.049   2.808   0.046  0.0984  0.3760 -0.1803
38385SOL    HW118560   5.137   2.779   0.071 -0.3181  0.2832  1.2382
38385SOL    HW218561   5.063   2.865  -0.029  1.5155  1.4654  0.8687
38386SOL     OW18562   5.285   7.152   8.130 -0.0323  0.1226 -0.2379
38386SOL    HW118563   5.285   7.213   8.056 -0.7378  1.3985  0.7675
38386SOL    HW218564   5.294   7.209   8.207 -0.6052 -1.0595  0.7187
38387SOL     OW18565   0.836   9.026   7.869  0.2877  0.1383  0.1870
38387SOL    HW118566   0.840   8.949   7.811 -2.1360 -1.0486  1.5316
38387SOL    HW218567   0.768   9.081   7.830 -0.1347  0.1455  0.9329
38388SOL     OW18568   4.091  10.875   2.497  0.4328  0.3630 -0.2066
38388SOL    HW118569   4.093  10.855   2.590  0.0368 -1.1263 -0.5033
38388SOL    HW218570   4.082  10.790   2.454  2.0568  0.9067 -1.6690
38389SOL     OW18571  10.940   1.305   8.077 -0.4955  0.3332 -0.3632
38389SOL    HW118572  11.000   1.318   8.150  0.0771  1.3609 -0.9959
38389SOL    HW218573  10.864   1.260   8.114 -0.8742  2.1768  1.1726
38390SOL     OW18574   4.755  10.260   3.928 -0.3381 -0.2132 -0.3110
38390SOL    HW118575   4.754  10.248   3.833  2.5901  2.7226 -0.8123
38390SOL    HW218576   4.696  10.334   3.943  1.1597  0.9732 -0.1679
38391SOL     OW18577   0.201   1.037   1.392 -0.5659  0.1116  0.6613
38391SOL    HW118578   0.289   1.013   1.362 -0.0886  0.9902  1.3475
38391SOL    HW218579   0.149   0.958   1.376  0.5246 -0.6973  0.9750
38392SOL     OW18580   1.761   1.119  10.427 -0.3726  0.1461  0.0386
38392SOL    HW118581   1.846   1.076  10.416  0.0991  0.3910  2.3493
38392SOL    HW218582   1.698   1.047  10.431  0.1539 -0.2528  1.7148
38393SOL     OW18583   6.183   7.438   3.947  0.5578  0.1560  0.0374
38393SOL    HW118584   6.208   7.497   3.876  1.5128 -0.7635 -0.4140
38393SOL    HW218585   6.257   7.441   4.008 -0.6966  1.7272  1.5197
38394SOL     OW18586  10.541   2.049   9.551  0.0175 -0.1936  0.1824
38394SOL    HW118587  10.457   2.065   9.594 -1.0326 -0.4865 -1.7405
38394SOL    HW218588  10.534   1.960   9.517  1.3203 -0.4160  0.4659
38395SOL     OW18589  10.696   4.976   1.553  0.0269 -0.2600  0.3933
38395SOL    HW118590  10.648   5.059   1.554 -2.2516 -1.5330  2.1426
38395SOL    HW218591  10.714   4.958   1.645 -0.2062 -2.1001  0.0987
38396SOL     OW18592   7.176   7.775   2.121 -0.0813  0.0219 -0.2249
38396SOL    HW118593   7.101   7.807   2.070 -0.9141 -1.6141 -0.0685
38396SOL    HW218594   7.160   7.809   2.209 -0.6946 -0.3886 -0.1714
38397SOL     OW18595  10.940   9.464   3.208  0.2354 -0.6885 -0.1206
38397SOL    HW118596  11.008   9.447   3.273 -1.2713 -0.4053  1.5557
38397SOL    HW218597  10.872   9.512   3.255  0.1472  1.6503 -2.4752
38398SOL     OW18598   8.110   1.039  10.197 -0.1855 -0.1423 -0.1294
38398SOL    HW118599   8.102   1.036  10.292  1.5805  0.8661  0.0657
38398SOL    HW218600   8.127   1.131  10.177  1.3608 -0.6471 -1.2405
38399SOL     OW18601   8.585   1.041   9.139  0.0414 -0.3366 -0.3147
38399SOL    HW118602   8.540   0.960   9.164 -0.6347  0.3688  0.8504
38399SOL    HW218603   8.664   1.042   9.193 -0.6162  0.4017  0.6779
38400SOL     OW18604   5.829   7.756   8.525  0.1959  0.6352 -0.1768
38400SOL    HW118605   5.913   7.760   8.571  0.1744  1.3776 -0.1842
38400SOL    HW218606   5.769   7.720   8.590  0.2509  1.3170  0.2631
38401SOL     OW18607   0.042   5.846   9.910 -0.1122 -0.3186  0.5735
38401SOL    HW118608   0.053   5.914   9.842 -2.5074 -0.6701 -0.1991
38401SOL    HW218609  -0.016   5.782   9.870  0.2765 -1.6824  2.1637
38402SOL     OW18610   9.142   3.561   6.918 -0.5903  0.4080  0.2558
38402SOL    HW118611   9.065   3.528   6.872 -0.1230  0.4435 -0.5522
38402SOL    HW218612   9.210   3.565   6.852  0.2126  0.0417  1.0467
38403SOL     OW18613   1.912   1.270   0.255  0.2146  0.5035 -0.5069
38403SOL    HW118614   1.851   1.244   0.324  1.4148  1.8333  1.0891
38403SOL    HW218615   1.963   1.190   0.237  1.6739  0.7990  2.0532
38404SOL     OW18616   2.227   8.867   2.662 -0.1085 -0.7293  0.4006
38404SOL    HW118617   2.225   8.774   2.684  0.2086 -0.2956  2.3585
38404SOL    HW218618   2.303   8.902   2.708 -0.0807  0.4651 -0.5097
38405SOL     OW18619   4.002   8.837   4.852  0.3105 -0.0237  0.1480
38405SOL    HW118620   4.015   8.841   4.757 -0.5180 -0.6962  0.0030
38405SOL    HW218621   3.957   8.754   4.866  1.5869 -0.5510  1.2682
38406SOL     OW18622   9.739   4.562   6.216  0.7527 -0.0681  0.0522
38406SOL    HW118623   9.834   4.552   6.223  0.6897 -0.4870  0.3140
38406SOL    HW218624   9.715   4.610   6.295  0.6725 -0.4807  0.2814
38407SOL     OW18625  10.977   2.003   7.967 -0.2102  0.4189 -0.3218
38407SOL    HW118626  10.915   1.958   7.910  1.3966 -1.1413 -0.8859
38407SOL    HW218627  10.994   2.086   7.923 -0.4257  0.0260 -1.1498
38408SOL     OW18628   8.403   6.107   9.784 -0.1947  0.3166 -0.6164
38408SOL    HW118629   8.471   6.148   9.836  0.5705 -0.1218 -1.2548
38408SOL    HW218630   8.373   6.176   9.724  1.3046 -0.1109 -1.8977
38409SOL     OW18631   1.000   4.307   0.909  0.0427 -0.6246  0.4469
38409SOL    HW118632   1.003   4.388   0.859 -2.7190  0.0187  1.2353
38409SOL    HW218633   1.011   4.334   1.000  1.3800 -1.4028  0.5344
38410SOL     OW18634   8.475   6.413   5.469  0.6129  0.0214 -0.1098
38410SOL    HW118635   8.471   6.444   5.379 -0.2872 -0.9593 -0.4122
38410SOL    HW218636   8.500   6.321   5.462 -1.8644 -0.7378  0.5004
38411SOL     OW18637   1.178   4.162   6.754  0.1392  0.1433  0.3297
38411SOL    HW118638   1.172   4.182   6.661  1.1357 -0.4991  0.1140
38411SOL    HW218639   1.217   4.075   6.757 -2.7933 -1.2057  1.2690
38412SOL     OW18640   4.407   4.884   2.427  0.0238 -0.3135  0.4830
38412SOL    HW118641   4.440   4.799   2.396 -2.0066 -0.7593 -0.5276
38412SOL    HW218642   4.430   4.945   2.358  0.1683 -0.3173  0.5273
38413SOL     OW18643   6.300   8.448   7.623  0.1148  0.1064 -0.1646
38413SOL    HW118644   6.345   8.371   7.590  0.0534 -0.5285  1.2125
38413SOL    HW218645   6.368   8.515   7.630  0.1024  0.2911 -1.6865
38414SOL     OW18646   7.436   6.132   1.378  0.1394  0.2486  0.1051
38414SOL    HW118647   7.438   6.080   1.459  0.3708  0.9205  0.5404
38414SOL    HW218648   7.515   6.187   1.384  0.2637  0.1533 -0.6783
38415SOL     OW18649   8.521  10.001   8.651 -0.3205  0.4414  0.5281
38415SOL    HW118650   8.555  10.078   8.606 -1.0156  0.7991  0.6024
38415SOL    HW218651   8.551   9.927   8.600  0.7337  0.7411  0.7084
38416SOL     OW18652   8.437   0.668   9.234  0.7930  0.0617 -0.0328
38416SOL    HW118653   8.399   0.628   9.313  2.7859  1.0623  1.4761
38416SOL    HW218654   8.364   0.674   9.173 -0.9756 -0.0206  2.0179
38417SOL     OW18655   2.962  10.002   5.085  0.0238 -0.2383 -0.4143
38417SOL    HW118656   2.936   9.949   5.009 -2.8465 -0.6759  0.8025
38417SOL    HW218657   2.927  10.089   5.067 -0.8655 -0.4015  0.4936
38418SOL     OW18658   6.903   5.683   1.698 -0.5910 -0.1833  0.2901
38418SOL    HW118659   6.956   5.626   1.754 -1.8453  0.5214  2.2178
38418SOL    HW218660   6.868   5.624   1.631 -0.0025 -1.2454  0.9068
38419SOL     OW18661   8.084   9.371   7.807 -0.0934 -0.1391  0.0207
38419SOL    HW118662   8.139   9.295   7.790  0.4113  0.1072  0.5402
38419SOL    HW218663   8.022   9.341   7.874  1.2764  0.4330  1.5778
38420SOL     OW18664   4.894   0.137  10.477 -0.0867  0.3120 -0.8676
38420SOL    HW118665   4.887   0.105  10.567 -1.2889  2.1265 -0.2855
38420SOL    HW218666   4.988   0.156  10.466  0.1653 -0.5431 -0.2189
38421SOL     OW18667   0.958   5.618  10.026 -0.1424 -0.3032  0.3399
38421SOL    HW118668   0.921   5.600  10.112  1.0571  0.9315  1.1319
38421SOL    HW218669   0.883   5.645   9.973 -0.4322  2.2240  1.9433
38422SOL     OW18670   9.979   5.405   5.315  0.1671 -0.0658 -0.1448
38422SOL    HW118671   9.975   5.343   5.243  0.5440  0.5858 -0.7248
38422SOL    HW218672  10.056   5.459   5.298  0.0019  0.3916  0.4927
38423SOL     OW18673   8.705   2.780   3.226  0.0189 -0.6025 -0.0339
38423SOL    HW118674   8.650   2.858   3.215 -1.2057 -1.3157  0.9043
38423SOL    HW218675   8.769   2.804   3.292 -0.2496 -0.3210  0.1257
38424SOL     OW18676   4.445   0.889   3.432  0.5073  0.0852 -0.0178
38424SOL    HW118677   4.478   0.810   3.475 -1.5231 -0.3275  0.8529
38424SOL    HW218678   4.485   0.888   3.345  2.2808 -0.6806  0.7732
38425SOL     OW18679   0.564   6.217   4.088 -1.0011 -0.5247  0.3652
38425SOL    HW118680   0.581   6.254   4.174  0.9924  1.3732 -0.7918
38425SOL    HW218681   0.601   6.128   4.092 -1.9037 -0.8453  1.7751
38426SOL     OW18682   0.746   6.398   5.712  0.4287  0.3331  0.7413
38426SOL    HW118683   0.667   6.382   5.763 -0.2370 -1.0616 -0.6622
38426SOL    HW218684   0.743   6.491   5.691 -0.7580  0.3311  0.8674
38427SOL     OW18685   7.830   9.996   8.764 -0.3157 -0.2891 -0.3703
38427SOL    HW118686   7.895   9.936   8.729 -0.4190 -1.2237  0.9825
38427SOL    HW218687   7.758   9.939   8.793 -0.4528  0.4772  0.8426
38428SOL     OW18688   2.099   9.535   4.232  0.2554 -0.6114 -0.6533
38428SOL    HW118689   2.158   9.572   4.167 -1.4079 -0.5013 -2.1448
38428SOL    HW218690   2.114   9.440   4.227  1.7488 -0.4503  0.4345
38429SOL     OW18691   8.162   2.375   2.274  0.2434 -0.2209  0.1553
38429SOL    HW118692   8.182   2.371   2.368 -0.0280  1.8601  0.3366
38429SOL    HW218693   8.088   2.436   2.269 -0.2541 -0.9371 -1.3420
38430SOL     OW18694   4.288   1.794   6.040  0.8913  0.3870 -0.1352
38430SOL    HW118695   4.337   1.788   6.122  0.9855 -1.4497 -0.3191
38430SOL    HW218696   4.196   1.792   6.067  0.9192 -0.8132 -0.0984
38431SOL     OW18697   8.941  10.291   3.515  0.1575  0.3950 -0.6449
38431SOL    HW118698   8.874  10.309   3.449 -0.8900  0.0420  0.3264
38431SOL    HW218699   8.940  10.195   3.525  0.6296  0.4087 -0.4346
38432SOL     OW18700   3.422   8.500   1.659  0.2498 -0.2903 -0.3072
38432SOL    HW118701   3.469   8.543   1.731  0.9403 -3.3858  1.1557
38432SOL    HW218702   3.335   8.484   1.694 -0.9045  2.3309 -1.8285
38433SOL     OW18703   9.079   4.009   1.979  0.4669 -0.0759 -0.1820
38433SOL    HW118704   9.073   4.105   1.982 -1.5346 -0.1705 -0.2043
38433SOL    HW218705   9.039   3.980   2.060  0.8667 -0.9132 -0.2833
38434SOL     OW18706   4.979   1.352  10.106 -0.7174 -0.1074 -0.5066
38434SOL    HW118707   5.022   1.418  10.161 -1.5803 -0.2785  0.4013
38434SOL    HW218708   4.885   1.371  10.116 -0.9435 -1.0786 -0.7366
38435SOL     OW18709   0.643   9.620   5.730  0.6087  0.6691  0.2394
38435SOL    HW118710   0.575   9.642   5.793  0.6503 -0.1311  0.5687
38435SOL    HW218711   0.725   9.637   5.777  0.6442 -0.6689  0.6736
38436SOL     OW18712   6.474   4.337   8.583 -0.5993 -0.6492 -0.1708
38436SOL    HW118713   6.417   4.279   8.633 -0.5380 -1.1118 -0.6330
38436SOL    HW218714   6.459   4.424   8.621  0.7300 -1.2427  1.8120
38437SOL     OW18715   0.657   6.169   9.533  0.2222  0.0447  0.0928
38437SOL    HW118716   0.667   6.135   9.444  2.5166 -1.2612  0.8228
38437SOL    HW218717   0.739   6.215   9.551  0.5424 -1.2847  2.1958
38438SOL     OW18718  10.629   6.499   1.432  0.5072  0.3203  0.1901
38438SOL    HW118719  10.657   6.408   1.445  1.2983  0.5210 -0.0973
38438SOL    HW218720  10.580   6.497   1.350 -0.8065 -0.1343  0.9769
38439SOL     OW18721   3.923   6.888   6.204 -0.3567  0.4599 -0.1615
38439SOL    HW118722   3.934   6.794   6.216  2.7510  0.7729 -0.0039
38439SOL    HW218723   3.894   6.921   6.289  0.3193 -0.1326  0.3030
38440SOL     OW18724   3.825   6.366   9.838 -0.1118  0.1124  0.5259
38440SOL    HW118725   3.768   6.349   9.763  0.1236  0.0389  0.3633
38440SOL    HW218726   3.847   6.459   9.832 -0.1082  0.1107  0.5144
38441SOL     OW18727   2.801   7.104   7.130  0.3345  0.4231 -0.1550
38441SOL    HW118728   2.833   7.020   7.097  0.6934  0.9181 -1.0665
38441SOL    HW218729   2.718   7.083   7.173  0.9618 -0.5700  0.5967
38442SOL     OW18730   6.745   0.824   3.351  0.2395 -0.0846 -0.2515
38442SOL    HW118731   6.692   0.822   3.272  0.0796 -1.5884 -0.1277
38442SOL    HW218732   6.807   0.895   3.337 -0.8226  0.6950 -1.0440
38443SOL     OW18733   1.282   0.122   8.878 -0.1157  0.2821 -0.3197
38443SOL    HW118734   1.214   0.098   8.941  1.1004 -1.2878  0.4313
38443SOL    HW218735   1.235   0.138   8.796 -1.4189 -0.3723  0.2872
38444SOL     OW18736   8.655   0.716   9.407  0.2485 -0.2328  0.5351
38444SOL    HW118737   8.583   0.734   9.346  0.3100 -1.8844 -0.0250
38444SOL    HW218738   8.730   0.695   9.352  0.5282 -0.8990  1.1570
38445SOL     OW18739   7.944   7.587   7.152 -0.8950  0.1491 -0.3962
38445SOL    HW118740   7.854   7.596   7.183 -0.9992 -0.6555 -0.4445
38445SOL    HW218741   7.983   7.522   7.211 -0.4493  0.2299 -0.5950
38446SOL     OW18742   1.995   1.328   4.376  0.2166  0.3721  0.1954
38446SOL    HW118743   2.049   1.258   4.414 -0.5060 -0.0592  0.4256
38446SOL    HW218744   2.039   1.408   4.403 -0.3555  0.0754  2.0877
38447SOL     OW18745   5.627   9.569   8.844 -0.1262 -0.6532 -0.3582
38447SOL    HW118746   5.567   9.640   8.820  0.1735 -0.8865 -1.8002
38447SOL    HW218747   5.686   9.561   8.770  2.6345  0.5246  1.6553
38448SOL     OW18748   6.193   0.021   1.634 -0.8688 -0.4507 -0.2246
38448SOL    HW118749   6.164  -0.047   1.695  0.7687 -1.6113 -0.7019
38448SOL    HW218750   6.278   0.050   1.668  0.9868 -2.4509 -2.8989
38449SOL     OW18751   9.912  10.231   9.942  0.3154 -0.3340  0.3370
38449SOL    HW118752   9.930  10.214   9.850  0.0582  0.2537  0.1733
38449SOL    HW218753   9.870  10.151   9.974 -0.3029 -0.2516 -0.2549
38450SOL     OW18754   2.533   6.197   6.987  0.2451  0.9831  0.0375
38450SOL    HW118755   2.447   6.186   6.946  0.1464  0.4067  0.3895
38450SOL    HW218756   2.524   6.154   7.072  1.2685 -0.2264 -0.4583
38451SOL     OW18757   9.558   7.006   3.778 -0.4554 -0.5442  0.2849
38451SOL    HW118758   9.473   7.003   3.735 -0.0582 -0.2166 -0.5445
38451SOL    HW218759   9.594   6.918   3.767 -0.1773 -0.3475 -0.4416
38452SOL     OW18760   6.575   0.651   7.380 -0.2563 -0.1032 -0.4873
38452SOL    HW118761   6.600   0.739   7.353 -0.9142  0.4952  0.7867
38452SOL    HW218762   6.655   0.600   7.375  0.2079  0.6606 -0.8657
38453SOL     OW18763   4.711   0.925  10.166 -0.0789  0.5665  0.2140
38453SOL    HW118764   4.675   0.991  10.107 -0.1060 -0.3351 -0.7971
38453SOL    HW218765   4.797   0.905  10.130  0.0227  0.2114  0.6455
38454SOL     OW18766   3.053   8.338   7.847 -0.3969 -0.0724  0.4391
38454SOL    HW118767   3.000   8.350   7.926  0.9834  0.9203  1.2462
38454SOL    HW218768   3.083   8.426   7.824 -0.6394 -0.3772 -1.1143
38455SOL     OW18769   3.571   8.557   3.452 -0.3009  0.4649 -0.4253
38455SOL    HW118770   3.540   8.474   3.416  2.4309  0.9749 -4.1642
38455SOL    HW218771   3.657   8.535   3.490 -0.6221  1.1249  0.6907
38456SOL     OW18772   3.165   4.390  10.066  0.3940  0.4588 -0.5691
38456SOL    HW118773   3.094   4.382  10.130  1.2106 -0.0455  0.2852
38456SOL    HW218774   3.244   4.366  10.115  0.9674 -0.4255 -1.9014
38457SOL     OW18775   3.393   8.850   5.521  0.2338  0.6801  0.4470
38457SOL    HW118776   3.386   8.944   5.505 -1.7005  0.7125  1.3311
38457SOL    HW218777   3.348   8.836   5.605 -2.0428 -1.4275 -1.0470
38458SOL     OW18778   3.254   3.814   5.031  0.1154  0.9738 -0.1296
38458SOL    HW118779   3.287   3.743   4.977 -0.9775 -1.3359  2.1025
38458SOL    HW218780   3.274   3.894   4.982  2.9699 -0.7447 -1.8655
38459SOL     OW18781   7.452  10.966   0.301 -0.0057  0.3245 -0.3404
38459SOL    HW118782   7.358  10.947   0.309 -0.4528  1.6853 -1.9798
38459SOL    HW218783   7.460  11.056   0.333  0.6080  0.4745 -0.9115
38460SOL     OW18784   8.814   5.183   8.652  0.0752  0.2087 -0.1618
38460SOL    HW118785   8.813   5.110   8.714  1.5938  0.7025  0.4620
38460SOL    HW218786   8.865   5.151   8.578  0.7206  0.6221  0.1007
38461SOL     OW18787   2.374   8.136  10.159  0.1373  0.2985 -0.1220
38461SOL    HW118788   2.382   8.223  10.121 -0.2510  0.2945 -0.2185
38461SOL    HW218789   2.399   8.147  10.251 -1.3138  0.8081  0.2225
38462SOL     OW18790   7.440   6.433   8.945  0.1678 -0.8997  0.0620
38462SOL    HW118791   7.403   6.502   8.890  0.7434 -0.4460  0.2423
38462SOL    HW218792   7.498   6.384   8.887  1.5218  0.1705  0.4969
38463SOL     OW18793   3.229   3.524   4.191  0.2250  0.1080  0.1770
38463SOL    HW118794   3.299   3.460   4.181  1.9596  1.9998  0.0264
38463SOL    HW218795   3.151   3.471   4.210  1.5780 -2.0421 -0.1083
38464SOL     OW18796   1.118   3.714   2.441 -0.2557  0.2641 -0.1722
38464SOL    HW118797   1.122   3.699   2.536  1.2165  1.2128 -0.0639
38464SOL    HW218798   1.030   3.685   2.416 -1.0802  1.0731  1.6702
38465SOL     OW18799   7.395   3.965   9.729  0.1340 -0.0083  0.4022
38465SOL    HW118800   7.382   4.043   9.783 -0.8073  0.2240 -0.1500
38465SOL    HW218801   7.317   3.912   9.745  0.7105 -0.7636  0.6684
38466SOL     OW18802   7.748   0.764   4.177 -0.0392  0.2428 -0.2419
38466SOL    HW118803   7.691   0.747   4.252  0.1190  1.2767  0.1242
38466SOL    HW218804   7.774   0.678   4.146 -1.1475 -0.2195  0.0973
38467SOL     OW18805   4.321   8.988  10.808 -0.1220 -0.3004  0.5853
38467SOL    HW118806   4.284   9.058  10.754 -0.9820  0.2471  1.8656
38467SOL    HW218807   4.345   8.919  10.745  1.2728  1.3564 -0.7411
38468SOL     OW18808   3.867   4.288   0.339 -0.3216  0.2387 -0.3117
38468SOL    HW118809   3.844   4.322   0.425 -1.1594  0.0747 -0.4599
38468SOL    HW218810   3.796   4.317   0.282 -0.4257 -0.7235 -0.6838
38469SOL     OW18811   1.392   7.379   4.837 -0.0058 -0.2564  0.3037
38469SOL    HW118812   1.304   7.392   4.872 -0.4984  0.0756 -1.0186
38469SOL    HW218813   1.450   7.404   4.908 -0.9735 -1.8066  1.6645
38470SOL     OW18814   3.822  10.714   3.388 -0.7257  0.5862  0.2720
38470SOL    HW118815   3.866  10.784   3.435 -0.8123  0.3990  0.6306
38470SOL    HW218816   3.754  10.682   3.448  0.0877 -0.6070  0.5777
38471SOL     OW18817   8.158   3.666   7.466 -0.9213  0.5625 -0.2945
38471SOL    HW118818   8.119   3.730   7.407 -1.3821  0.0297 -0.5699
38471SOL    HW218819   8.131   3.581   7.431 -0.4077  0.2212  0.1332
38472SOL     OW18820   4.036   3.929   2.136 -0.0379 -0.4398  0.2168
38472SOL    HW118821   4.115   3.883   2.166  1.3078  1.3183 -0.5285
38472SOL    HW218822   3.970   3.909   2.201  1.0294 -1.9708  0.8520
38473SOL     OW18823   8.315   3.896   3.964  0.3828  0.2149  0.2683
38473SOL    HW118824   8.260   3.904   3.886 -0.1841 -0.1780  0.6246
38473SOL    HW218825   8.318   3.984   4.001  2.3845  0.8747 -1.3532
38474SOL     OW18826   3.066  10.913   2.853  0.3656 -0.0988 -0.4641
38474SOL    HW118827   3.009  10.849   2.810 -1.2365  2.1185 -1.7498
38474SOL    HW218828   3.036  10.916   2.944 -1.1742  0.5668 -0.9782
38475SOL     OW18829   1.106   1.613   5.941  0.6217 -0.5814  0.3818
38475SOL    HW118830   1.186   1.564   5.921  0.9048 -0.1507  0.4275
38475SOL    HW218831   1.134   1.705   5.938 -0.1161 -0.3797 -0.7050
38476SOL     OW18832   4.342   3.436   4.991 -0.0545  0.1864 -0.2693
38476SOL    HW118833   4.323   3.369   5.057 -0.7054 -0.1172 -0.7642
38476SOL    HW218834   4.428   3.413   4.957  0.5046  0.6264  0.8212
38477SOL     OW18835   8.143   0.472   1.677 -0.2181 -0.5019  0.3630
38477SOL    HW118836   8.194   0.543   1.716  0.0967 -1.5636  1.9231
38477SOL    HW218837   8.164   0.475   1.584  1.1872  0.3170  0.7011
38478SOL     OW18838   8.517  10.833   2.576  0.1296 -0.0087  0.1324
38478SOL    HW118839   8.470  10.910   2.544 -1.4748 -0.6958  0.7923
38478SOL    HW218840   8.588  10.869   2.630  1.8147  1.1015 -2.7247
38479SOL     OW18841   1.747  10.770  10.343 -0.5168  0.1449 -0.0454
38479SOL    HW118842   1.748  10.696  10.283 -1.3085  0.3386 -0.3026
38479SOL    HW218843   1.774  10.734  10.427  0.1080 -0.2282 -0.4022
38480SOL     OW18844   7.696   0.030   9.859 -0.0341 -0.0881 -0.5125
38480SOL    HW118845   7.605   0.017   9.885  0.1725 -0.2568  0.1334
38480SOL    HW218846   7.735  -0.057   9.862  1.0009  0.4221  2.5196
38481SOL     OW18847   1.934   9.970   6.647  0.1800 -0.2389  0.6837
38481SOL    HW118848   2.001  10.004   6.587  0.4104  0.7728  1.5041
38481SOL    HW218849   1.982   9.912   6.706 -0.0043 -1.0266  0.0811
38482SOL     OW18850   1.560   4.803   9.379  0.0651 -0.2471  0.4845
38482SOL    HW118851   1.526   4.815   9.290  0.8549 -0.0761  0.1946
38482SOL    HW218852   1.532   4.881   9.427  1.0878  0.4936 -0.0906
38483SOL     OW18853   6.286   7.454   3.216 -0.3256  1.0054 -0.5462
38483SOL    HW118854   6.239   7.395   3.157 -0.0356  0.2766 -0.0516
38483SOL    HW218855   6.291   7.537   3.167 -0.3795  0.5080 -1.4100
38484SOL     OW18856   7.003   8.956  10.195  0.2642 -0.7966 -0.2166
38484SOL    HW118857   7.069   8.942  10.264  0.8464  0.4535 -0.4980
38484SOL    HW218858   7.016   9.047  10.169 -1.1010 -0.7689 -0.7938
38485SOL     OW18859   8.030   6.329   5.062 -0.7320 -0.2572  0.1133
38485SOL    HW118860   8.046   6.288   5.146 -0.6783 -0.4229  0.0228
38485SOL    HW218861   8.087   6.281   5.001 -0.5742  0.0317  0.0312
38486SOL     OW18862   7.226   9.673   9.478 -0.3692 -0.5553 -0.3929
38486SOL    HW118863   7.177   9.622   9.542 -0.4597 -0.3820 -0.3281
38486SOL    HW218864   7.252   9.609   9.411  1.2553 -1.0773  0.7066
38487SOL     OW18865   7.530   0.981   3.146 -0.1507  0.2662  0.4920
38487SOL    HW118866   7.552   1.069   3.176  0.0016 -0.0101  1.1903
38487SOL    HW218867   7.551   0.924   3.220 -2.2927 -0.1111  0.8374
38488SOL     OW18868   0.093  10.949   1.479  0.2613  0.3646 -0.7309
38488SOL    HW118869   0.134  10.863   1.489  0.3148  0.3803 -0.8175
38488SOL    HW218870   0.015  10.932   1.426  0.8230  0.5229 -1.6196
38489SOL     OW18871   1.240   7.885   4.593  0.3399 -0.5849 -0.1722
38489SOL    HW118872   1.287   7.916   4.515 -1.2615  1.8873 -0.2257
38489SOL    HW218873   1.257   7.791   4.596  0.8261 -0.6436 -3.2414
38490SOL     OW18874   4.304   5.475  10.451  0.1900  0.8786  0.4547
38490SOL    HW118875   4.368   5.524  10.502  0.9527  0.6635 -0.2890
38490SOL    HW218876   4.243   5.541  10.418 -0.2329  1.0351  1.5182
38491SOL     OW18877   2.518   8.381   3.739  0.3496 -0.2205 -0.0671
38491SOL    HW118878   2.596   8.402   3.688  1.1095 -0.2619  1.0770
38491SOL    HW218879   2.528   8.429   3.821 -1.3459  0.6491 -0.3270
38492SOL     OW18880   8.831   1.035   9.726  0.2810  0.1576  0.1391
38492SOL    HW118881   8.766   0.964   9.727 -1.2341  1.5027 -0.7908
38492SOL    HW218882   8.803   1.094   9.796 -0.9734  1.9953 -1.8377
38493SOL     OW18883   1.893   0.402   2.783 -0.1224 -0.0841  0.2557
38493SOL    HW118884   1.818   0.456   2.807  1.0128  1.3547  0.6424
38493SOL    HW218885   1.893   0.402   2.687 -0.1416  0.5880  0.2547
38494SOL     OW18886   6.311   8.240   4.813 -0.7830  0.1487  0.0268
38494SOL    HW118887   6.363   8.259   4.734 -2.7106  0.1990 -1.2562
38494SOL    HW218888   6.359   8.283   4.883  0.7345  0.4903 -1.1813
38495SOL     OW18889  10.509   0.893  10.378 -0.3414  0.0375 -0.0055
38495SOL    HW118890  10.500   0.984  10.404 -0.4315 -0.1313  0.5795
38495SOL    HW218891  10.524   0.895  10.284  3.4859  0.8461  0.5606
38496SOL     OW18892   2.049   3.504   0.498  0.7640  0.0920 -0.1873
38496SOL    HW118893   2.033   3.561   0.574  1.5976 -0.7780  0.6557
38496SOL    HW218894   2.113   3.552   0.445  1.0681  0.1790  0.2542
38497SOL     OW18895   1.065   3.186   5.714  0.2820 -0.2199 -0.0400
38497SOL    HW118896   1.055   3.096   5.744 -0.8495  0.0149  0.2839
38497SOL    HW218897   1.060   3.239   5.794  1.3226  0.1038 -0.1852
38498SOL     OW18898  10.496   0.209   0.827  0.1595  0.5447  0.3784
38498SOL    HW118899  10.484   0.236   0.736  0.8248 -1.4145 -0.3231
38498SOL    HW218900  10.481   0.114   0.826  3.3362 -0.0440  1.6959
38499SOL     OW18901   9.955   6.220   7.831  0.2434  0.4072  0.2524
38499SOL    HW118902   9.864   6.204   7.854  0.1728  1.4488  0.7238
38499SOL    HW218903   9.997   6.243   7.914  0.8244  0.4238 -0.0430
38500SOL     OW18904   9.074   4.071   5.633 -0.0298 -0.4220 -0.0572
38500SOL    HW118905   9.010   4.047   5.699  0.4655  1.0188  0.9860
38500SOL    HW218906   9.141   4.003   5.637 -0.2801 -0.6305  0.5429
38501SOL     OW18907   0.032   4.240   7.628  0.0545  0.0949 -0.0422
38501SOL    HW118908   0.122   4.265   7.607  0.0546 -0.2276 -0.4402
38501SOL    HW218909  -0.020   4.274   7.555 -0.0475 -0.3619 -0.1842
38502SOL     OW18910   0.927   0.769   2.169  0.2456 -0.3956 -0.0370
38502SOL    HW118911   0.863   0.728   2.228  0.4843 -1.2065 -0.3381
38502SOL    HW218912   0.905   0.734   2.083  0.7902 -0.2891 -0.2162
38503SOL     OW18913   7.703   5.979   7.118  0.0922  0.0198 -0.3804
38503SOL    HW118914   7.675   5.981   7.027  1.8613 -0.2479 -0.9467
38503SOL    HW218915   7.653   5.908   7.157 -2.3927  1.6167 -0.5422
38504SOL     OW18916   8.124   3.992   6.549 -0.4314 -0.1020  0.4260
38504SOL    HW118917   8.184   4.059   6.514 -0.3826 -0.4509 -0.1709
38504SOL    HW218918   8.099   4.025   6.635 -0.2415  0.5888  0.2252
38505SOL     OW18919   2.330   1.621   3.804 -0.2045 -0.4243 -0.2278
38505SOL    HW118920   2.296   1.710   3.798 -1.9554 -1.0954 -0.6340
38505SOL    HW218921   2.420   1.628   3.771 -1.0044  0.8276 -2.2786
38506SOL     OW18922   4.260   3.354   6.924 -0.3246  0.3206  0.3943
38506SOL    HW118923   4.349   3.336   6.893 -0.6075  0.5770 -0.6064
38506SOL    HW218924   4.270   3.429   6.983  0.4413 -1.1637  2.1812
38507SOL     OW18925   8.851   2.712   1.540 -0.3766  0.3705 -1.5058
38507SOL    HW118926   8.818   2.795   1.574  0.3781  0.1317 -0.1293
38507SOL    HW218927   8.774   2.666   1.508 -1.3353  0.0619  1.1073
38508SOL     OW18928   4.933   8.356   0.597  0.0442 -0.2613  0.0371
38508SOL    HW118929   4.844   8.329   0.575  0.2083 -2.0564  1.3981
38508SOL    HW218930   4.939   8.343   0.692  1.0045  2.1503  0.3505
38509SOL     OW18931   4.538   1.419   6.521 -0.0179  0.1311 -0.2004
38509SOL    HW118932   4.547   1.378   6.435 -2.1839 -1.2646  0.2046
38509SOL    HW218933   4.518   1.347   6.580 -0.1473  1.2966  1.2078
38510SOL     OW18934   3.997   8.347   9.027 -0.1746  0.1864 -0.2417
38510SOL    HW118935   4.076   8.328   9.078 -1.1277 -0.5247  1.0023
38510SOL    HW218936   3.942   8.398   9.087 -0.9158  0.1514 -0.8883
38511SOL     OW18937   1.607   9.447   5.139  0.6171 -0.4145 -0.1831
38511SOL    HW118938   1.513   9.449   5.121  0.6244 -1.4177 -0.3556
38511SOL    HW218939   1.614   9.464   5.233  0.4573  2.7547 -0.6732
38512SOL     OW18940   8.581   7.918   9.161  0.3154  0.3532  0.5115
38512SOL    HW118941   8.636   7.940   9.235 -0.8780  1.0666  1.2165
38512SOL    HW218942   8.530   7.998   9.145 -1.4387 -0.6803  0.7350
38513SOL     OW18943   0.950   5.146   3.527 -0.1010  0.2630 -0.0342
38513SOL    HW118944   0.981   5.147   3.618  0.2798  0.8104 -0.1623
38513SOL    HW218945   0.864   5.105   3.531  0.1591 -0.2325  0.4957
38514SOL     OW18946   7.230   9.813   6.216  0.0613 -0.3518  0.5588
38514SOL    HW118947   7.160   9.809   6.282  1.0119  0.7487  1.6822
38514SOL    HW218948   7.270   9.726   6.219 -1.6906 -1.2240 -0.6040
38515SOL     OW18949   2.528   2.355   4.562  0.4938 -0.4295  0.1270
38515SOL    HW118950   2.499   2.441   4.591  0.3401 -1.0108  1.7076
38515SOL    HW218951   2.515   2.357   4.467  2.0725  1.8784 -0.0819
38516SOL     OW18952   1.425   3.389   5.243  0.2396 -0.1489 -0.3662
38516SOL    HW118953   1.368   3.426   5.311 -0.2174 -1.1199 -0.2210
38516SOL    HW218954   1.375   3.316   5.206  0.8896 -0.2440 -1.0751
38517SOL     OW18955   3.150   3.960   2.184  0.5311 -0.3986 -0.1234
38517SOL    HW118956   3.122   3.984   2.096  0.2517  0.0396  0.0822
38517SOL    HW218957   3.071   3.965   2.237  0.7704 -0.2970  0.2266
38518SOL     OW18958   5.370   4.234   6.397  0.3748 -0.3775  0.1336
38518SOL    HW118959   5.465   4.225   6.393  0.5395  0.4661  1.6371
38518SOL    HW218960   5.354   4.328   6.387 -0.3564 -0.5831 -0.7592
38519SOL     OW18961  10.776   6.670   8.594 -0.0179  0.6312 -0.1106
38519SOL    HW118962  10.755   6.735   8.526  1.7696 -0.6360 -1.9545
38519SOL    HW218963  10.691   6.645   8.630 -1.0667  1.0549 -2.1779
38520SOL     OW18964   3.458   2.810   5.472  0.0678  0.5140  0.4388
38520SOL    HW118965   3.378   2.776   5.433 -1.0166  1.3238  1.8998
38520SOL    HW218966   3.528   2.753   5.440 -1.1020 -0.2072 -0.8273
38521SOL     OW18967   3.839  10.228   1.029  0.7187 -0.1410 -0.6014
38521SOL    HW118968   3.800  10.238   0.942  1.1511 -1.0596 -0.9096
38521SOL    HW218969   3.833  10.315   1.068 -1.0815 -0.1376 -0.8604
38522SOL     OW18970   3.828   6.901   4.126  0.0252 -0.2187 -0.2257
38522SOL    HW118971   3.900   6.845   4.097 -0.8174 -0.8438 -1.1498
38522SOL    HW218972   3.826   6.973   4.062  0.4174  0.2969  0.3361
38523SOL     OW18973  10.837   5.695   9.791  0.2635  0.2031 -0.2858
38523SOL    HW118974  10.823   5.668   9.700 -2.3191 -0.9941  0.4242
38523SOL    HW218975  10.769   5.650   9.840  1.6750  0.7662  2.2838
38524SOL     OW18976   2.243   7.193   1.116 -0.4278 -0.4347 -0.4131
38524SOL    HW118977   2.210   7.274   1.154 -0.9274 -0.4044 -0.9136
38524SOL    HW218978   2.337   7.194   1.136 -0.4644  0.1800 -0.2684
38525SOL     OW18979   9.428   7.798   1.939 -0.0339  0.5685  0.0116
38525SOL    HW118980   9.416   7.726   2.001  1.4511 -0.4996 -0.8815
38525SOL    HW218981   9.340   7.827   1.917 -0.7024 -1.6657 -0.3726
38526SOL     OW18982   5.888   9.895   1.815 -0.1117  0.2026  0.0769
38526SOL    HW118983   5.882   9.931   1.727  0.0057  1.0345  0.3975
38526SOL    HW218984   5.914   9.970   1.869 -1.9141  0.1053  1.0947
38527SOL     OW18985   4.314   3.040   9.229  0.1799 -0.1799  0.6951
38527SOL    HW118986   4.261   2.988   9.168  1.0954 -1.1599  0.7293
38527SOL    HW218987   4.249   3.086   9.282 -0.6954 -2.2081  1.4679
38528SOL     OW18988   8.594   9.631   2.588 -0.0456  0.4730  0.5099
38528SOL    HW118989   8.664   9.636   2.653 -0.1628  0.4898  0.6354
38528SOL    HW218990   8.611   9.549   2.541 -0.5174 -0.0219  1.1979
38529SOL     OW18991   2.195   2.183   5.164  0.3046 -0.1255 -0.0987
38529SOL    HW118992   2.282   2.202   5.199  0.9890 -2.1377 -0.6254
38529SOL    HW218993   2.211   2.159   5.072 -1.0272  1.2944 -0.7351
38530SOL     OW18994   0.157  10.739   7.734 -0.4315 -0.4297 -0.7971
38530SOL    HW118995   0.072  10.782   7.746 -0.5809 -0.5790 -1.3015
38530SOL    HW218996   0.220  10.810   7.737 -0.6474 -0.2195 -1.2566
38531SOL     OW18997   7.953   6.966   0.054  0.3447 -0.0062  0.2441
38531SOL    HW118998   8.044   6.960   0.025  1.2617 -0.7870  3.1239
38531SOL    HW218999   7.943   7.056   0.085  0.4765 -0.2463  0.9896
38532SOL     OW19000   8.160   5.145   8.202  0.2106  0.2669 -0.2441
38532SOL    HW119001   8.152   5.237   8.177  2.0107  1.0988  2.1048
38532SOL    HW219002   8.254   5.128   8.204 -0.0699 -1.3132  0.4256
38533SOL     OW19003   8.712   9.957   2.585  0.0604  0.3258  0.6445
38533SOL    HW119004   8.766   9.953   2.664  0.5436  0.6245  0.3373
38533SOL    HW219005   8.675   9.870   2.576  1.2471 -0.1495  0.3405
38534SOL     OW19006   8.321   2.331   1.817  0.2199 -0.3901  0.1843
38534SOL    HW119007   8.318   2.344   1.912 -1.1234  0.5078  0.0230
38534SOL    HW219008   8.286   2.243   1.804  0.8029 -0.6825  0.5428
38535SOL     OW19009   7.396   1.426   9.521  0.1468  0.7161  0.7158
38535SOL    HW119010   7.420   1.518   9.518 -0.0572  0.7927  1.3650
38535SOL    HW219011   7.476   1.379   9.498  0.3673  1.0424  0.8174
38536SOL     OW19012   0.978  10.611   2.690 -0.1418  0.5928 -0.0770
38536SOL    HW119013   0.965  10.662   2.611 -0.6595 -0.1880 -0.5023
38536SOL    HW219014   1.004  10.524   2.659  1.9381  0.9120  0.6631
38537SOL     OW19015   0.366   4.598   9.966 -0.0333  0.0842  0.3100
38537SOL    HW119016   0.378   4.625  10.057  0.8667  1.8026 -0.2996
38537SOL    HW219017   0.292   4.538   9.968  0.0274  0.0548  2.1830
38538SOL     OW19018   7.697   2.779   4.336 -0.1324 -0.0715  0.2431
38538SOL    HW119019   7.604   2.788   4.356 -0.6493  0.4545 -2.1904
38538SOL    HW219020   7.699   2.724   4.257  1.4497  1.9487 -1.1773
38539SOL     OW19021   4.661   9.837   2.923 -0.4522 -0.3326 -0.3872
38539SOL    HW119022   4.700   9.824   2.836 -1.3739  1.1278 -1.0392
38539SOL    HW219023   4.729   9.882   2.973  0.0001 -0.9802 -0.4092
38540SOL     OW19024   0.505   7.934   1.982  0.2914  0.3043 -0.1103
38540SOL    HW119025   0.593   7.902   1.961 -0.5366 -0.3504 -2.7505
38540SOL    HW219026   0.447   7.859   1.963 -0.9714  1.1124  0.4461
38541SOL     OW19027   4.736  10.077   2.581 -0.2625  0.1725 -0.1646
38541SOL    HW119028   4.691   9.995   2.603  2.4651 -1.3790 -0.1438
38541SOL    HW219029   4.666  10.138   2.560 -2.4494 -1.6224  1.6612
38542SOL     OW19030   9.703   0.392   0.163  0.6207 -0.9205 -0.4619
38542SOL    HW119031   9.761   0.317   0.168  1.1147 -0.4952  0.2152
38542SOL    HW219032   9.623   0.364   0.208  0.7278 -1.1090 -0.3901
38543SOL     OW19033   2.468   8.255   0.570  0.4899 -0.2471  0.4054
38543SOL    HW119034   2.436   8.166   0.555 -0.6588  0.0771  0.9415
38543SOL    HW219035   2.512   8.279   0.488 -0.6055 -0.6979 -0.3197
38544SOL     OW19036   3.770   3.481   2.155  0.1014 -0.3493 -0.3077
38544SOL    HW119037   3.818   3.447   2.080 -0.4213 -0.7016 -0.4880
38544SOL    HW219038   3.746   3.404   2.206 -0.3746 -0.1920 -0.2866
38545SOL     OW19039   1.555   0.715   0.820  0.0545  0.0009  0.2014
38545SOL    HW119040   1.544   0.757   0.905 -1.2163  1.6315 -0.7319
38545SOL    HW219041   1.561   0.788   0.758 -2.0452 -1.1578 -1.4511
38546SOL     OW19042   8.544   7.169   6.449 -0.7959 -0.2735  0.0238
38546SOL    HW119043   8.586   7.243   6.405  0.6463 -0.3111  1.3017
38546SOL    HW219044   8.494   7.125   6.380  0.3022  0.4658 -1.2619
38547SOL     OW19045   8.551   2.862   3.708 -0.0679  0.6650 -0.3158
38547SOL    HW119046   8.624   2.876   3.767 -0.1786 -0.1193  0.0120
38547SOL    HW219047   8.558   2.770   3.682 -0.5029  0.7831 -0.8652
38548SOL     OW19048   2.387   6.878  10.397 -0.0894 -0.0357 -0.2824
38548SOL    HW119049   2.456   6.933  10.361  0.1546 -0.1735 -0.0211
38548SOL    HW219050   2.431   6.822  10.461 -0.1557 -1.2456 -1.2727
38549SOL     OW19051   9.840   1.098   8.421  0.9075  0.1139 -0.3781
38549SOL    HW119052   9.827   1.049   8.502  0.2687 -1.3661 -1.3362
38549SOL    HW219053   9.790   1.178   8.433 -0.5542 -0.8331  0.0759
38550SOL     OW19054   6.940   3.385   2.364  0.1328 -0.2563 -0.0719
38550SOL    HW119055   6.911   3.363   2.276 -0.5037 -2.2515  0.5879
38550SOL    HW219056   7.035   3.393   2.357  0.3190 -2.4897 -0.5613
38551SOL     OW19057   5.723   3.332   3.133 -0.6714 -0.4597 -0.4621
38551SOL    HW119058   5.795   3.394   3.125 -1.7686  0.9073  0.2079
38551SOL    HW219059   5.757   3.251   3.095  0.2330  0.9722 -2.7764
38552SOL     OW19060   6.780   0.170  10.634 -0.4120  0.0224 -0.1874
38552SOL    HW119061   6.820   0.189  10.549  2.4939 -0.7557  0.9635
38552SOL    HW219062   6.768   0.255  10.675 -0.7105  0.3201 -0.8907
38553SOL     OW19063   0.178   4.308   8.243  0.2699 -0.2501 -0.1376
38553SOL    HW119064   0.241   4.241   8.270  1.0018  0.0798 -0.9765
38553SOL    HW219065   0.098   4.260   8.225  1.0693 -1.0349 -1.6641
38554SOL     OW19066   4.830   4.988   5.811 -0.0066 -0.1848  0.1344
38554SOL    HW119067   4.849   4.992   5.717  1.7123 -1.0780  0.4262
38554SOL    HW219068   4.882   5.058   5.849  0.2769 -0.6307  0.5708
38555SOL     OW19069   2.275   2.947   3.232  0.1475  0.4059 -0.4090
38555SOL    HW119070   2.258   3.017   3.168 -0.0070  0.7463 -0.0031
38555SOL    HW219071   2.235   2.869   3.194 -0.9778  0.8644 -0.1951
38556SOL     OW19072   1.465   6.758   7.998 -0.1584 -0.1433 -0.2146
38556SOL    HW119073   1.556   6.785   8.011 -0.2786  0.2249 -0.1404
38556SOL    HW219074   1.471   6.671   7.959  0.2376  0.3557 -1.2992
38557SOL     OW19075   3.889   0.607   0.367 -0.0117 -0.2740 -0.4397
38557SOL    HW119076   3.940   0.556   0.429  0.7341 -0.3146 -1.0822
38557SOL    HW219077   3.862   0.685   0.416  1.2051  0.0523 -0.2883
38558SOL     OW19078   8.981   2.984   9.803  0.4830 -0.4313  0.0775
38558SOL    HW119079   9.073   2.997   9.781  0.8286 -1.9719  0.4929
38558SOL    HW219080   8.948   2.926   9.734  0.1951 -0.9976  0.6851
38559SOL     OW19081   5.730   6.039   7.841 -0.3184 -0.4250  0.2837
38559SOL    HW119082   5.668   5.976   7.879  0.3083 -1.3428 -0.2010
38559SOL    HW219083   5.679   6.084   7.773 -0.6923 -0.5810  0.4560
38560SOL     OW19084   8.817   9.032   5.924 -0.2646  0.0205  0.0271
38560SOL    HW119085   8.882   9.055   5.858 -0.9984 -0.6752 -0.9666
38560SOL    HW219086   8.744   9.092   5.907 -0.8722 -0.8421 -0.4874
38561SOL     OW19087   8.342   2.082   4.627  0.1401 -0.2921 -0.1936
38561SOL    HW119088   8.383   2.009   4.673 -0.6113  0.5069  1.8115
38561SOL    HW219089   8.305   2.136   4.697 -2.6912 -0.0267 -1.8167
38562SOL     OW19090   7.628   7.479   1.037 -0.4122 -0.2523  0.3709
38562SOL    HW119091   7.590   7.430   1.110 -0.0287 -0.0470  0.7137
38562SOL    HW219092   7.661   7.559   1.077  1.4225 -0.9486  0.2932
38563SOL     OW19093  10.600   0.147   5.941  0.0389  0.4666 -0.6330
38563SOL    HW119094  10.560   0.114   5.861  0.7333  0.5745 -1.0258
38563SOL    HW219095  10.561   0.234   5.953  2.5768  1.9860 -2.8317
38564SOL     OW19096   8.618   1.625   6.843  0.7486  0.1134  0.1998
38564SOL    HW119097   8.534   1.668   6.824  0.7479  0.3583  0.7362
38564SOL    HW219098   8.684   1.681   6.804  0.7998  1.0218  1.5591
38565SOL     OW19099   3.411   5.221   6.542 -0.2592 -0.3703  0.1824
38565SOL    HW119100   3.497   5.185   6.561 -0.4700 -0.3463  1.2135
38565SOL    HW219101   3.353   5.145   6.542 -0.4632 -0.2190  0.8935
38566SOL     OW19102   6.911   5.126   0.174  0.4083  0.1240  0.7386
38566SOL    HW119103   6.890   5.084   0.257  2.6245 -2.2690  0.1565
38566SOL    HW219104   7.003   5.154   0.183  0.5394  0.2332 -0.7348
38567SOL     OW19105   3.356   3.197   1.033  0.2324 -0.3464  0.5810
38567SOL    HW119106   3.288   3.137   1.062 -0.3805 -1.5758 -3.0813
38567SOL    HW219107   3.409   3.145   0.972  1.5166  1.9879 -0.3479
38568SOL     OW19108   0.530   3.116   4.444  0.4340  0.0505 -0.3675
38568SOL    HW119109   0.489   3.171   4.511  1.0726  0.0817 -0.0033
38568SOL    HW219110   0.623   3.116   4.466  0.3600 -1.6623 -0.0206
38569SOL     OW19111   1.960   1.373  10.968 -0.2316 -0.2342  0.1534
38569SOL    HW119112   1.908   1.348  11.043 -0.2882 -1.6858 -0.3496
38569SOL    HW219113   2.007   1.292  10.943  0.4395  0.4402 -0.8234
38570SOL     OW19114   5.717   6.041   2.376  0.3718  0.0089 -0.2965
38570SOL    HW119115   5.661   5.967   2.398  0.5549 -0.2129 -0.5699
38570SOL    HW219116   5.705   6.103   2.448  0.8780 -0.6616  0.3730
38571SOL     OW19117   2.226   6.751   2.005 -0.0551  0.0531 -0.0714
38571SOL    HW119118   2.271   6.833   1.982  0.4516 -0.2918 -0.3331
38571SOL    HW219119   2.243   6.741   2.099 -0.9578  0.7522  0.1778
38572SOL     OW19120   4.940   0.145   8.045 -0.0487  0.0646 -0.6455
38572SOL    HW119121   4.950   0.111   8.133 -0.4120 -1.4841 -1.1857
38572SOL    HW219122   5.024   0.128   8.002 -0.1240  0.1461 -0.8291
38573SOL     OW19123   1.216   4.734   6.810  0.1376 -0.3699  0.6830
38573SOL    HW119124   1.133   4.755   6.766  0.5407  1.4775  0.7714
38573SOL    HW219125   1.190   4.708   6.898 -0.4219 -0.6858  0.4289
38574SOL     OW19126   3.828   0.634   4.049 -0.0692  0.0886  0.2875
38574SOL    HW119127   3.914   0.624   4.089 -0.6155 -0.2762  1.3890
38574SOL    HW219128   3.825   0.725   4.020  0.6665  0.1125  0.2745
38575SOL     OW19129   9.480   3.137   1.258  0.2340 -0.2169 -0.1324
38575SOL    HW119130   9.389   3.134   1.285 -0.1307 -0.0329 -1.3198
38575SOL    HW219131   9.519   3.206   1.312 -0.5413  0.3298 -0.2702
38576SOL     OW19132   4.568   5.040   5.862 -0.0474  0.5447 -0.1386
38576SOL    HW119133   4.546   5.077   5.776 -1.4860 -0.8824 -0.4046
38576SOL    HW219134   4.652   4.996   5.848 -0.3951  0.1095 -0.8989
38577SOL     OW19135   7.264   5.760   9.223 -0.6670  0.3297 -0.3964
38577SOL    HW119136   7.176   5.740   9.192 -0.6450 -0.4957  0.0428
38577SOL    HW219137   7.321   5.701   9.173 -0.4870  0.0235  0.1639
38578SOL     OW19138   3.711   3.639   9.911 -0.5795  0.0519  0.4843
38578SOL    HW119139   3.789   3.677   9.953  0.2837  0.8215 -1.7256
38578SOL    HW219140   3.721   3.545   9.923  0.9167  0.1172 -0.1280
38579SOL     OW19141   8.019   7.762   5.143 -0.0679 -0.4753  0.1486
38579SOL    HW119142   8.032   7.670   5.121 -2.0209 -1.2015  1.9264
38579SOL    HW219143   7.924   7.775   5.140  0.0534  1.0105  1.7597
38580SOL     OW19144   7.239   0.979   2.061 -0.1102 -0.6941 -0.6061
38580SOL    HW119145   7.282   1.043   2.117  1.9784 -1.9265 -0.7418
38580SOL    HW219146   7.301   0.964   1.989 -1.2686 -1.6487 -1.4331
38581SOL     OW19147   6.914   2.096  10.967  0.8005  0.2786  0.0859
38581SOL    HW119148   7.005   2.072  10.982  0.4624 -1.0675  0.0563
38581SOL    HW219149   6.875   2.100  11.054  0.8380  0.6459  0.0859
38582SOL     OW19150   0.835   0.643   6.301 -0.3254  0.2036  0.2259
38582SOL    HW119151   0.884   0.573   6.258  0.6362  1.4841 -0.7880
38582SOL    HW219152   0.755   0.652   6.249 -0.9630 -0.8382  0.9857
38583SOL     OW19153   9.588   5.274   7.799 -0.3683  0.0640 -0.2165
38583SOL    HW119154   9.520   5.255   7.864  1.1175  0.3962  1.4868
38583SOL    HW219155   9.601   5.190   7.753 -0.4734 -0.5540  0.8636
38584SOL     OW19156   3.951   8.510   1.125  0.5867 -0.0288  0.8214
38584SOL    HW119157   3.951   8.585   1.185  0.8428 -0.1060  0.9178
38584SOL    HW219158   3.933   8.435   1.181 -0.3984  0.0383  0.6194
38585SOL     OW19159  10.415   9.489   6.005  0.3138 -0.6907  0.2638
38585SOL    HW119160  10.389   9.537   5.927  0.6908  0.0051  0.5547
38585SOL    HW219161  10.485   9.431   5.976 -0.2691 -1.2036 -0.1291
38586SOL     OW19162   2.046   1.095   8.747  0.6374  0.2535 -0.0009
38586SOL    HW119163   1.989   1.032   8.700  1.8388 -1.7467  1.1497
38586SOL    HW219164   1.986   1.163   8.776 -0.6186  0.0043 -1.8519
38587SOL     OW19165   6.832  10.867   7.043 -0.2033  0.3453  0.4356
38587SOL    HW119166   6.834  10.955   7.081  0.8381  0.6735 -0.3703
38587SOL    HW219167   6.923  10.849   7.020 -0.5910 -0.4896 -0.4532
38588SOL     OW19168   5.839  10.555   8.115 -0.3246 -0.3756 -0.1102
38588SOL    HW119169   5.907  10.608   8.073 -1.2408  0.7030 -0.2508
38588SOL    HW219170   5.810  10.607   8.189 -1.6031 -0.4554 -0.5504
38589SOL     OW19171   9.786   2.714   9.465 -0.6654  0.0739  0.1026
38589SOL    HW119172   9.852   2.694   9.399 -1.1785 -0.8824 -0.1353
38589SOL    HW219173   9.830   2.700   9.548  0.0356  1.4543 -0.0253
38590SOL     OW19174  10.866   1.537   0.195 -0.0592  0.0922  0.6075
38590SOL    HW119175  10.883   1.471   0.127  0.9001  0.4028  0.5375
38590SOL    HW219176  10.899   1.619   0.158  0.8266  0.1945  1.5906
38591SOL     OW19177   8.096   2.376   3.595 -0.1452  0.0321  0.3690
38591SOL    HW119178   8.179   2.403   3.557 -0.4703  0.4146 -0.0720
38591SOL    HW219179   8.043   2.455   3.597 -0.5242 -0.2235  0.5910
38592SOL     OW19180   6.018   9.196   3.698  0.6073 -0.5399  0.0940
38592SOL    HW119181   6.048   9.121   3.647  1.3316 -0.8426  0.9659
38592SOL    HW219182   6.048   9.178   3.787 -1.8712 -0.7196  0.9379
38593SOL     OW19183   6.104   2.692   4.140  0.6176  0.7222  0.0716
38593SOL    HW119184   6.089   2.610   4.094  0.6978 -0.6704  2.4458
38593SOL    HW219185   6.189   2.723   4.107  0.0431  0.4639 -1.6790
38594SOL     OW19186   8.907   2.349   4.752  0.0727  0.1987 -0.8499
38594SOL    HW119187   8.956   2.279   4.708 -0.0414 -0.9109  0.7653
38594SOL    HW219188   8.967   2.423   4.752  1.0342 -0.5700 -0.6138
38595SOL     OW19189   3.981   2.599   4.943  0.3131  0.2113 -0.3178
38595SOL    HW119190   3.896   2.582   4.904 -1.2537  4.0341  1.1261
38595SOL    HW219191   3.976   2.563   5.031 -0.8576  2.6383  0.6757
38596SOL     OW19192   1.203  10.932   3.347 -1.0459  0.4725  0.2884
38596SOL    HW119193   1.207  10.901   3.257 -3.4509  0.9680 -0.0311
38596SOL    HW219194   1.213  11.027   3.340  1.4930  0.2587  0.8124
38597SOL     OW19195   5.148   1.176   6.180  0.1523 -0.0217  0.0419
38597SOL    HW119196   5.108   1.262   6.191  0.0029 -0.1414  0.4213
38597SOL    HW219197   5.169   1.172   6.087 -1.7121 -0.3970 -0.3719
38598SOL     OW19198   6.085   3.235   1.474 -0.1755 -0.4586  0.5789
38598SOL    HW119199   6.169   3.190   1.457 -0.6209 -1.3510  0.7035
38598SOL    HW219200   6.024   3.195   1.412 -0.1232  1.4050 -0.7178
38599SOL     OW19201   3.471   8.764   5.973 -0.1379 -0.2549 -0.7554
38599SOL    HW119202   3.560   8.728   5.971 -1.0083 -2.6571  1.0103
38599SOL    HW219203   3.451   8.773   6.067 -1.0219  2.1970 -1.1506
38600SOL     OW19204   0.998   6.555   5.073  0.3216  0.0520 -0.1357
38600SOL    HW119205   0.973   6.630   5.020 -2.0455 -0.1543  0.6258
38600SOL    HW219206   1.068   6.512   5.023  1.6180  2.6448 -0.6321
38601SOL     OW19207   0.128   9.721   2.325  0.0711  0.4657  0.4550
38601SOL    HW119208   0.202   9.673   2.361 -0.4959 -0.9159 -0.1883
38601SOL    HW219209   0.157   9.748   2.237  0.5773  1.7673  1.0086
38602SOL     OW19210  10.591   6.850   9.651 -0.4490  0.1840 -0.0226
38602SOL    HW119211  10.646   6.928   9.653  0.0439 -0.1822  0.8985
38602SOL    HW219212  10.651   6.777   9.636 -0.8930 -0.0291 -0.7686
38603SOL     OW19213  10.840   7.284   9.515 -0.2253 -0.5701 -0.6126
38603SOL    HW119214  10.811   7.209   9.567  0.6062 -1.2805 -1.1533
38603SOL    HW219215  10.777   7.353   9.535 -0.7557 -1.2818  0.2175
38604SOL     OW19216   4.107   5.115   6.920  0.2141 -1.0296  0.2481
38604SOL    HW119217   4.094   5.198   6.965 -1.9300 -1.9464  1.4224
38604SOL    HW219218   4.130   5.140   6.830  0.8077  0.8190  0.8932
38605SOL     OW19219   4.420   8.646   0.847 -0.1981  0.0182  0.1184
38605SOL    HW119220   4.355   8.624   0.914 -1.0111  0.7154 -0.4305
38605SOL    HW219221   4.499   8.666   0.896 -1.0369  1.4113  0.9501
38606SOL     OW19222  10.155   0.980   9.225  0.3202  0.9356 -0.2673
38606SOL    HW119223  10.082   0.922   9.244  1.4005 -0.4491 -0.3095
38606SOL    HW219224  10.154   1.044   9.296 -0.2681  0.2684  0.3318
38607SOL     OW19225  10.651  10.707   5.049  0.3963  0.1421 -0.3678
38607SOL    HW119226  10.672  10.725   4.958 -2.1317  3.4979 -0.3953
38607SOL    HW219227  10.557  10.685   5.048  0.6637 -1.2414  1.2866
38608SOL     OW19228   8.887   2.836   2.759  0.5558 -0.1990  0.0880
38608SOL    HW119229   8.836   2.755   2.754  0.7455 -0.2934 -0.4432
38608SOL    HW219230   8.967   2.816   2.711  0.1864  0.6121 -0.8794
38609SOL     OW19231   1.388   7.710   5.437  0.3338  0.7122 -0.0300
38609SOL    HW119232   1.334   7.785   5.410 -0.0695  0.6401  0.5722
38609SOL    HW219233   1.429   7.738   5.518 -0.4166  0.0075  0.6023
38610SOL     OW19234   4.038   4.219   3.514 -0.1394 -0.0664  0.0865
38610SOL    HW119235   3.994   4.182   3.590 -1.8407 -1.7329 -1.6520
38610SOL    HW219236   4.098   4.150   3.485  0.7104  0.6679  0.0862
38611SOL     OW19237   4.563   7.686   5.077 -0.0271  0.0952 -0.8066
38611SOL    HW119238   4.618   7.610   5.058 -0.1485 -0.4819  1.0218
38611SOL    HW219239   4.527   7.712   4.992 -1.5018 -3.0808 -1.2223
38612SOL     OW19240   0.339   0.699   1.858  0.5708 -0.6397 -0.4086
38612SOL    HW119241   0.351   0.604   1.866 -0.5031 -0.6924  0.7188
38612SOL    HW219242   0.330   0.714   1.764  3.3402 -1.3222 -0.8400
38613SOL     OW19243   7.361   7.508   0.746 -0.2149 -0.3871  0.2949
38613SOL    HW119244   7.444   7.468   0.768 -1.2297 -1.4496  2.3243
38613SOL    HW219245   7.316   7.442   0.693 -0.0747 -0.1289 -0.1435
38614SOL     OW19246   4.779   6.237   0.766  0.1493 -0.1138  0.6679
38614SOL    HW119247   4.760   6.270   0.854 -1.5335  0.6149  0.0556
38614SOL    HW219248   4.730   6.155   0.760  1.0759 -0.6839  0.7514
38615SOL     OW19249   1.927   2.614  10.571  0.1359 -0.2437  0.1736
38615SOL    HW119250   1.938   2.592  10.663  1.5284 -0.0686  0.0612
38615SOL    HW219251   2.009   2.587  10.530 -0.1592  0.4231 -0.8758
38616SOL     OW19252   4.108   8.953  10.564 -0.1195  0.5662  0.0206
38616SOL    HW119253   4.146   8.867  10.548  0.8611  0.5734  2.1357
38616SOL    HW219254   4.024   8.935  10.606  0.3584  0.6435  1.0166
38617SOL     OW19255   7.762  10.515   2.912  0.0733 -0.3392 -0.1683
38617SOL    HW119256   7.826  10.488   2.846  0.1567 -0.7782  0.0902
38617SOL    HW219257   7.778  10.457   2.986 -0.8658 -0.7005 -0.2367
38618SOL     OW19258   6.125   1.177   1.308  0.0718 -0.1379 -0.5768
38618SOL    HW119259   6.114   1.100   1.253  0.7279 -0.2945 -0.4898
38618SOL    HW219260   6.115   1.251   1.248  0.1089 -0.2971 -0.7790
38619SOL     OW19261   0.796   4.841   0.585  0.3518 -0.1261  0.0073
38619SOL    HW119262   0.857   4.860   0.513 -0.2094 -0.3743 -0.5408
38619SOL    HW219263   0.712   4.829   0.542  0.2888 -1.7791  0.5514
38620SOL     OW19264   6.494   4.157   0.556 -0.3076 -0.7063  0.5081
38620SOL    HW119265   6.406   4.153   0.518  1.0454 -0.2852 -2.8825
38620SOL    HW219266   6.508   4.069   0.592 -2.0129 -0.8522  0.8689
38621SOL     OW19267   5.255   4.212   9.143  0.0703  0.0122 -0.1141
38621SOL    HW119268   5.337   4.178   9.180 -1.4382 -0.9638  2.4865
38621SOL    HW219269   5.276   4.302   9.117  2.4403 -0.8238 -1.1966
38622SOL     OW19270   6.804   9.365   7.507 -0.2793 -0.5394  0.2728
38622SOL    HW119271   6.810   9.285   7.455 -2.9803 -0.5797 -0.0560
38622SOL    HW219272   6.710   9.381   7.514  0.1956  1.7499  1.6569
38623SOL     OW19273   6.401   7.244   1.050  0.1067 -0.0249  0.1472
38623SOL    HW119274   6.411   7.249   1.145  1.7606 -0.0397 -0.0059
38623SOL    HW219275   6.491   7.248   1.017 -0.5481  1.9367 -1.4982
38624SOL     OW19276   5.175   0.692   7.926  0.5799 -0.0976 -0.8002
38624SOL    HW119277   5.265   0.667   7.943  0.9310  0.7738 -1.3509
38624SOL    HW219278   5.175   0.723   7.836  0.2277  2.1125 -0.0730
38625SOL     OW19279   1.858   4.800   7.548 -0.6031 -0.4451  0.5641
38625SOL    HW119280   1.851   4.709   7.520  0.2584 -0.5487  0.6803
38625SOL    HW219281   1.913   4.841   7.481 -0.7991 -0.0701  0.6346
38626SOL     OW19282   8.297   6.257   0.162  0.4495  0.4740 -0.3298
38626SOL    HW119283   8.286   6.334   0.217  1.5977  1.1846 -1.0844
38626SOL    HW219284   8.354   6.199   0.213  0.9214  0.8225 -0.4614
38627SOL     OW19285   2.753   1.170   4.827  0.1655  0.3795 -0.0381
38627SOL    HW119286   2.681   1.227   4.802 -1.0005  0.7179  3.8235
38627SOL    HW219287   2.823   1.229   4.853  0.2418  0.0629  0.4853
38628SOL     OW19288   7.111   8.619   9.710 -0.2375 -0.1093 -0.1789
38628SOL    HW119289   7.026   8.612   9.754 -0.4668 -0.7713 -0.7107
38628SOL    HW219290   7.089   8.615   9.616  0.5470 -2.2786 -0.2924
38629SOL     OW19291   7.389   1.647   9.263 -0.0652  0.2679  0.2410
38629SOL    HW119292   7.364   1.556   9.273  0.8472  0.1004  0.9646
38629SOL    HW219293   7.423   1.653   9.174  0.3041 -0.1957  0.3510
38630SOL     OW19294   0.747   6.022   1.371  0.0556 -0.3941 -0.7359
38630SOL    HW119295   0.779   6.041   1.459  0.4199 -0.6930 -0.8048
38630SOL    HW219296   0.738   6.108   1.329 -1.4911 -0.1444  0.0723
38631SOL     OW19297   3.104   1.675   0.697  0.0919  0.3575  0.2827
38631SOL    HW119298   3.102   1.701   0.605  0.3684  0.4515  0.3038
38631SOL    HW219299   3.166   1.602   0.700  0.7111  0.8973  0.5364
38632SOL     OW19300   4.170   5.895   0.262  0.3782 -0.9299 -0.1388
38632SOL    HW119301   4.103   5.839   0.223 -0.1698  0.3221 -1.0264
38632SOL    HW219302   4.135   5.984   0.254  1.5275 -0.3932  0.6475
38633SOL     OW19303   6.022   4.825   9.600 -0.1056  0.3094 -0.2299
38633SOL    HW119304   6.110   4.860   9.586  0.2990 -1.0280 -1.1692
38633SOL    HW219305   5.996   4.857   9.686  1.3069  0.7143  0.0542
38634SOL     OW19306   5.853   9.111   4.453  0.1709  0.2249  0.1392
38634SOL    HW119307   5.937   9.074   4.481  0.0837 -0.4175 -0.4451
38634SOL    HW219308   5.876   9.176   4.387  0.3518  1.4894  1.4129
38635SOL     OW19309   6.135   2.105   5.773  0.2518  0.4718  0.5773
38635SOL    HW119310   6.146   2.072   5.862 -0.1466  1.4382  0.9866
38635SOL    HW219311   6.118   2.198   5.783  2.9545  1.1518 -0.6503
38636SOL     OW19312   9.339   0.197  10.039 -0.1552 -0.0010 -0.0497
38636SOL    HW119313   9.352   0.228   9.950  0.8542 -3.0204 -1.0227
38636SOL    HW219314   9.245   0.201  10.053 -0.3405  0.2053 -1.3533
38637SOL     OW19315   5.829   8.648   4.871  0.3933  0.3481 -0.4727
38637SOL    HW119316   5.771   8.594   4.925  1.0004 -0.1536 -0.3222
38637SOL    HW219317   5.790   8.645   4.784  1.4976 -1.9693 -0.9367
38638SOL     OW19318   4.673  10.209   3.635  0.1680  0.9066  0.0970
38638SOL    HW119319   4.661  10.179   3.544 -2.0299 -2.2606  1.3419
38638SOL    HW219320   4.699  10.300   3.626  0.3848  0.5776 -3.7524
38639SOL     OW19321   1.491   8.950   7.164  0.1032 -0.3026  0.0550
38639SOL    HW119322   1.398   8.970   7.161  0.2176  1.0229  3.2221
38639SOL    HW219323   1.495   8.855   7.179 -0.7986 -0.1313  1.4966
38640SOL     OW19324   9.473   8.496   8.246 -0.0524  0.3993 -0.4302
38640SOL    HW119325   9.477   8.420   8.304 -0.2219  0.3460 -0.4879
38640SOL    HW219326   9.496   8.570   8.302 -2.3708  0.6367  0.2458
38641SOL     OW19327   8.459   9.254   4.841  0.4355 -0.8395 -0.0686
38641SOL    HW119328   8.493   9.328   4.891  0.3811 -0.8605 -0.0012
38641SOL    HW219329   8.525   9.185   4.853  0.5843 -0.7351 -0.2960
38642SOL     OW19330   1.580   4.944   0.293  0.9017 -0.1381  0.2502
38642SOL    HW119331   1.669   4.962   0.321  0.7903  1.0837 -0.1428
38642SOL    HW219332   1.589   4.893   0.212  1.2498  0.6168 -0.1899
38643SOL     OW19333   7.796   4.041   2.743 -0.2043  0.5772 -1.0155
38643SOL    HW119334   7.846   4.105   2.794 -0.6280 -0.2106  0.4117
38643SOL    HW219335   7.834   4.045   2.656  2.4869 -0.1599  0.0895
38644SOL     OW19336   4.432   5.783   6.611 -0.4021  0.1624 -0.6946
38644SOL    HW119337   4.431   5.848   6.541  0.8432 -0.4648 -1.3182
38644SOL    HW219338   4.460   5.831   6.689 -1.0817  0.7043 -0.7747
38645SOL     OW19339   4.446   7.676   5.489  0.3711  0.2252  0.4897
38645SOL    HW119340   4.497   7.628   5.425 -1.5845 -1.2864  0.0053
38645SOL    HW219341   4.456   7.627   5.571 -0.2611 -0.0461  0.4048
38646SOL     OW19342   9.727  10.567   6.007  0.2023  0.2588 -0.1781
38646SOL    HW119343   9.715  10.533   6.095  2.3529  0.1405  0.0882
38646SOL    HW219344   9.794  10.634   6.016  0.8695 -0.1705 -1.8207
38647SOL     OW19345   1.579   9.764   0.293  0.0859 -0.8886  0.2360
38647SOL    HW119346   1.616   9.803   0.372  1.1465  1.5083 -1.3709
38647SOL    HW219347   1.655   9.733   0.243 -0.2183  1.2130 -1.6337
38648SOL     OW19348   2.788   8.325   1.660  0.0238  0.7719  0.0027
38648SOL    HW119349   2.702   8.366   1.666  0.4651  1.5516  1.4751
38648SOL    HW219350   2.770   8.234   1.636 -1.2140  0.9172  0.3439
38649SOL     OW19351   6.290   0.828   6.484  0.7100 -0.0383  0.2883
38649SOL    HW119352   6.219   0.830   6.549 -0.5118  0.7503 -1.0418
38649SOL    HW219353   6.318   0.919   6.477  0.7865 -0.1133 -0.3502
38650SOL     OW19354   9.409   9.904   2.968 -0.2317  0.3162  0.3181
38650SOL    HW119355   9.430   9.979   3.024 -1.7213  0.7719  0.3157
38650SOL    HW219356   9.413   9.828   3.026 -1.8552  0.7991  1.0883
38651SOL     OW19357   8.785   1.664   9.526  0.6432 -0.2323 -0.1877
38651SOL    HW119358   8.751   1.710   9.603  0.5902 -0.8373  0.1573
38651SOL    HW219359   8.715   1.603   9.502  0.4269  0.3601 -1.0695
38652SOL     OW19360   8.016   4.229   4.892 -0.5630 -0.1479 -0.3703
38652SOL    HW119361   8.089   4.169   4.886  0.8210  1.4800 -0.3481
38652SOL    HW219362   7.985   4.221   4.982 -0.7842 -1.2375 -0.5348
38653SOL     OW19363   6.491   3.695   2.980  0.1403  0.1065  0.2007
38653SOL    HW119364   6.456   3.678   3.067  0.8266  1.0001  0.6534
38653SOL    HW219365   6.527   3.783   2.984  0.4523  0.0466 -0.8991
38654SOL     OW19366   6.604   2.447   2.937  0.2224 -0.2222  0.6729
38654SOL    HW119367   6.557   2.502   2.999  0.6119  0.2739  0.5381
38654SOL    HW219368   6.542   2.379   2.911 -1.3355  1.9995 -1.5878
38655SOL     OW19369   2.603   5.470   7.860  0.3859 -0.6703  0.1888
38655SOL    HW119370   2.607   5.471   7.956 -0.8174  1.9097  0.2467
38655SOL    HW219371   2.509   5.469   7.841  0.5975  1.0825 -0.9694
38656SOL     OW19372   6.923   5.906   5.313 -0.0647  0.4531  0.5018
38656SOL    HW119373   6.931   5.814   5.287 -1.6290  0.5076 -0.2628
38656SOL    HW219374   6.860   5.905   5.385 -0.5401  0.9786  0.0961
38657SOL     OW19375   9.183   9.322   9.246  0.4678 -0.3182 -0.2425
38657SOL    HW119376   9.120   9.389   9.272  0.0267  0.2219 -2.5920
38657SOL    HW219377   9.176   9.256   9.315 -0.1625  1.3336  1.3395
38658SOL     OW19378   2.735   9.122  10.445  0.0537  0.0961  0.1391
38658SOL    HW119379   2.792   9.046  10.433 -1.3204 -0.7570 -1.0887
38658SOL    HW219380   2.727   9.161  10.358 -0.3872  0.8175  0.4956
38659SOL     OW19381   5.002   2.799   8.991 -0.0712  0.0096 -0.2140
38659SOL    HW119382   4.970   2.885   9.020  0.5565  0.0101  0.5163
38659SOL    HW219383   4.979   2.740   9.063 -0.7799 -0.4906 -0.8575
38660SOL     OW19384   1.831   0.722   2.253  0.5023  0.0195  0.5692
38660SOL    HW119385   1.836   0.647   2.194 -0.4948  0.4609 -0.0988
38660SOL    HW219386   1.825   0.685   2.341 -2.1951 -0.7441  0.1076
38661SOL     OW19387   6.371  10.459   3.606 -0.2165 -0.0609  0.0117
38661SOL    HW119388   6.455  10.500   3.584 -1.0246  2.2764  1.1256
38661SOL    HW219389   6.358  10.393   3.537  1.1942  1.4911 -1.8130
38662SOL     OW19390   6.008   3.779   0.142 -0.1509 -0.0209  0.1315
38662SOL    HW119391   6.103   3.788   0.153 -0.1058 -0.4463  0.0788
38662SOL    HW219392   5.986   3.696   0.184 -0.2041 -0.8938 -1.5798
38663SOL     OW19393   0.548   9.969  10.270 -0.3884  0.0544 -0.4562
38663SOL    HW119394   0.492   9.892  10.273 -0.5515  0.2144  0.9414
38663SOL    HW219395   0.633   9.937  10.241 -0.1424 -0.8674  1.2060
38664SOL     OW19396   4.430   3.181  10.403  0.3577 -0.0281  0.4345
38664SOL    HW119397   4.383   3.106  10.366 -0.2450 -0.6528  2.4091
38664SOL    HW219398   4.521   3.166  10.379 -0.2293  0.5414 -2.3458
38665SOL     OW19399   0.381   6.341   5.180  0.0589 -0.5682  0.2764
38665SOL    HW119400   0.455   6.309   5.230 -0.4743  0.8430  2.0125
38665SOL    HW219401   0.305   6.296   5.217 -0.3877  0.7815  1.0429
38666SOL     OW19402   3.836   4.571   3.773  0.1048  0.2034  0.1267
38666SOL    HW119403   3.860   4.514   3.700  0.1941  0.1757  0.1771
38666SOL    HW219404   3.759   4.619   3.741 -0.4756 -0.5404  0.3851
38667SOL     OW19405   3.499   1.423   7.946  0.1383  0.2436  0.4247
38667SOL    HW119406   3.543   1.365   7.883  0.0067  1.2230 -0.5821
38667SOL    HW219407   3.406   1.405   7.934 -0.0942  2.8526 -2.0986
38668SOL     OW19408   6.241   6.667   7.512 -0.1078  0.3742  0.1496
38668SOL    HW119409   6.284   6.752   7.497 -1.2077  0.8183 -0.5408
38668SOL    HW219410   6.289   6.629   7.586  1.5004  0.8343 -0.6368
38669SOL     OW19411  10.167   5.565   8.097  0.4627 -0.0944 -0.9514
38669SOL    HW119412  10.228   5.606   8.035  0.4680  1.4531  0.0443
38669SOL    HW219413  10.200   5.591   8.183 -0.6734 -0.6029 -0.3492
38670SOL     OW19414  10.143   6.821   6.354  0.4457 -0.2912  0.0863
38670SOL    HW119415  10.077   6.877   6.313  0.3907  0.1757  0.8055
38670SOL    HW219416  10.093   6.753   6.399  0.5534 -2.8765 -3.4520
38671SOL     OW19417   8.357  10.570   9.891  0.3066  0.2026 -0.0415
38671SOL    HW119418   8.279  10.621   9.910  1.1496  2.1021 -1.5027
38671SOL    HW219419   8.430  10.630   9.909  1.3870 -1.0729 -0.0719
38672SOL     OW19420   0.920   4.468  10.281 -0.2093 -0.2020 -0.3477
38672SOL    HW119421   0.838   4.510  10.307  0.1523 -0.2324  0.8923
38672SOL    HW219422   0.906   4.375  10.296 -0.0595 -0.2396 -0.4349
38673SOL     OW19423   4.048   3.080   3.120 -0.3859  0.3869 -0.3972
38673SOL    HW119424   4.126   3.026   3.112 -0.2975  0.5055 -0.3469
38673SOL    HW219425   4.072   3.148   3.184 -0.4715  0.5241 -0.5088
38674SOL     OW19426   0.233   8.152   4.629  0.2836 -0.0597  0.6150
38674SOL    HW119427   0.146   8.125   4.659 -1.0213  2.4078 -0.8203
38674SOL    HW219428   0.271   8.199   4.703 -0.8525  1.5394  0.1926
38675SOL     OW19429   9.769   9.871   9.748 -0.4149 -0.1671 -0.0420
38675SOL    HW119430   9.819   9.789   9.754  2.0449  1.4341  3.2975
38675SOL    HW219431   9.823   9.928   9.693 -0.2874  0.4175  0.6877
38676SOL     OW19432   2.212   9.968   3.118  0.1160 -0.0076  0.4093
38676SOL    HW119433   2.274  10.020   3.168  1.1844 -0.7715 -0.1075
38676SOL    HW219434   2.149  10.032   3.084  2.2374  1.1587 -1.4467
38677SOL     OW19435   2.716   3.988   4.984 -0.5142 -0.1132 -0.3613
38677SOL    HW119436   2.759   3.902   4.979 -1.1400 -0.4708  0.3395
38677SOL    HW219437   2.695   4.009   4.893 -0.0706 -0.5534 -0.5749
38678SOL     OW19438   0.756   1.668   7.487 -0.4777 -0.0718  0.2032
38678SOL    HW119439   0.784   1.672   7.396  2.7593 -0.2080  1.1507
38678SOL    HW219440   0.769   1.757   7.520  0.4047 -0.5204  1.0970
38679SOL     OW19441  10.502   7.792   4.707  0.2216 -0.2236  0.4013
38679SOL    HW119442  10.507   7.794   4.612 -1.9297 -2.6472  0.1976
38679SOL    HW219443  10.409   7.786   4.726  0.5871  0.7871  2.7100
38680SOL     OW19444   6.368   4.200  10.811 -0.1659 -0.5010  0.4655
38680SOL    HW119445   6.323   4.250  10.880  0.1528 -0.4651  0.6460
38680SOL    HW219446   6.298   4.174  10.751 -0.3552  0.0470  0.4428
38681SOL     OW19447   3.169   3.677   0.740 -0.5422 -0.3611 -0.4974
38681SOL    HW119448   3.074   3.680   0.732 -0.5880 -0.1535  0.0812
38681SOL    HW219449   3.202   3.706   0.655 -0.9932  1.3637 -0.0922
38682SOL     OW19450   6.825   0.861  10.099 -0.3650 -0.3533 -0.4800
38682SOL    HW119451   6.772   0.804  10.156 -1.7809  0.0434 -1.3890
38682SOL    HW219452   6.762   0.924  10.063  0.7053  0.0243 -1.6950
38683SOL     OW19453   8.438   1.939   6.890 -0.2583  0.6971  0.2471
38683SOL    HW119454   8.414   1.859   6.842  3.1553  0.7256 -1.7639
38683SOL    HW219455   8.481   1.994   6.824  3.7627  1.1811  3.0314
38684SOL     OW19456   8.767   9.703   1.537 -0.0272 -0.0201  0.5449
38684SOL    HW119457   8.734   9.613   1.530 -1.4063  0.5496 -0.6211
38684SOL    HW219458   8.781   9.731   1.446  0.0193  1.0712  0.8787
38685SOL     OW19459   2.423   4.581   4.341  0.4500  0.1881 -0.1234
38685SOL    HW119460   2.458   4.651   4.286 -1.1822  1.7120  0.7082
38685SOL    HW219461   2.472   4.590   4.423  0.5057  0.1111 -0.1480
38686SOL     OW19462   3.330   6.921   9.525 -0.5323 -0.4252 -0.2898
38686SOL    HW119463   3.345   6.935   9.431 -0.3188 -0.6744 -0.2926
38686SOL    HW219464   3.365   6.999   9.567 -1.6822  0.2221 -0.5069
38687SOL     OW19465   2.476   7.609   6.822 -0.1486 -0.2795  0.0211
38687SOL    HW119466   2.421   7.546   6.775 -0.3444 -1.7237  2.1255
38687SOL    HW219467   2.553   7.620   6.765 -0.7228 -1.4181 -0.9941
38688SOL     OW19468   1.128   9.506   3.929  0.2759  0.0242  0.2153
38688SOL    HW119469   1.213   9.535   3.964 -0.0342  0.2575  0.7885
38688SOL    HW219470   1.096   9.443   3.994  0.6320 -1.1020 -0.6830
38689SOL     OW19471   7.321   0.058   1.985  0.2757  0.1152  0.8377
38689SOL    HW119472   7.343   0.126   2.048 -0.6917  0.3863  0.8895
38689SOL    HW219473   7.374   0.078   1.908 -0.3869  1.2252  0.6647
38690SOL     OW19474   5.528   4.576  10.504 -0.3766  0.0963  0.4426
38690SOL    HW119475   5.487   4.508  10.557 -0.7711 -0.5219 -0.6441
38690SOL    HW219476   5.620   4.550  10.498 -0.4332 -0.0965  0.4147
38691SOL     OW19477   4.933   5.218   3.651  0.1948 -0.0983 -0.1218
38691SOL    HW119478   5.011   5.254   3.693  0.5395 -2.0185  0.9756
38691SOL    HW219479   4.926   5.265   3.568  1.5463  1.2776  0.5180
38692SOL     OW19480   0.552   5.989   8.902 -0.4057  0.3570  0.1959
38692SOL    HW119481   0.574   5.932   8.828 -0.7740  0.5132 -0.0390
38692SOL    HW219482   0.525   5.929   8.972  0.2938  0.1908  0.3275
38693SOL     OW19483   8.691   8.975   8.657 -0.2675  0.9517  0.5726
38693SOL    HW119484   8.708   8.885   8.630 -0.8068  0.6053  1.3475
38693SOL    HW219485   8.771   9.023   8.635  0.8292 -0.1465  2.0583
38694SOL     OW19486   1.926   2.778   7.089 -0.1558  0.2216 -0.7453
38694SOL    HW119487   1.935   2.828   7.008 -1.2307 -0.5477 -1.3598
38694SOL    HW219488   1.860   2.711   7.069 -0.4065 -0.0122  0.7460
38695SOL     OW19489   4.058   0.984  10.057  0.2141  0.0648  0.8106
38695SOL    HW119490   4.073   0.949  10.145  0.8933  0.0683  0.6941
38695SOL    HW219491   4.108   1.065  10.055  0.5269 -0.1453  0.2758
38696SOL     OW19492   5.863   6.217   8.627  0.0658  0.3825  0.2444
38696SOL    HW119493   5.833   6.127   8.623  0.5024  0.1359  1.8160
38696SOL    HW219494   5.914   6.230   8.547 -1.4609 -0.2048 -0.8358
38697SOL     OW19495   8.151   5.076   7.146 -0.6754  0.2514 -0.5775
38697SOL    HW119496   8.115   5.113   7.065  1.0578  1.7244 -0.7068
38697SOL    HW219497   8.160   5.151   7.205  0.3240 -0.4139  0.1314
38698SOL     OW19498   6.406   2.646   7.942  0.0065 -0.2207  0.2653
38698SOL    HW119499   6.446   2.688   8.017  1.2702 -0.1366 -0.4491
38698SOL    HW219500   6.314   2.672   7.946  0.6876  2.3414  0.0327
38699SOL     OW19501   3.672   9.946  10.761  0.5086 -0.7443 -0.1455
38699SOL    HW119502   3.656  10.026  10.812 -0.7190 -0.5830 -0.7696
38699SOL    HW219503   3.761   9.958  10.726  0.9185 -0.3465  1.0129
38700SOL     OW19504   7.927   3.952   5.755 -0.6939 -0.1746 -0.5726
38700SOL    HW119505   7.986   3.895   5.705 -1.0352 -0.7806 -0.2890
38700SOL    HW219506   7.974   3.970   5.836  0.0606  1.1902 -1.2893
38701SOL     OW19507   3.578   7.590   5.122 -0.2444 -0.8598  0.0992
38701SOL    HW119508   3.565   7.644   5.044 -1.5612 -2.6911 -0.9877
38701SOL    HW219509   3.489   7.570   5.152  0.2431 -0.2225  2.0576
38702SOL     OW19510   9.550   3.564   3.283 -0.0954  0.1275  0.1107
38702SOL    HW119511   9.562   3.549   3.376 -1.4458 -1.5418  0.0466
38702SOL    HW219512   9.507   3.484   3.251 -0.2098  0.9222 -1.8132
38703SOL     OW19513   3.692   1.987   2.889  0.2427 -0.0179 -0.3061
38703SOL    HW119514   3.712   2.079   2.869  0.1928  0.0400 -0.0889
38703SOL    HW219515   3.769   1.956   2.938  1.5701 -0.9115 -2.8423
38704SOL     OW19516   3.966   2.068   8.816 -0.3234  0.1176  0.2698
38704SOL    HW119517   3.938   2.159   8.805  1.0452  0.6080  0.7437
38704SOL    HW219518   4.033   2.071   8.884  2.9485 -0.5859 -2.7679
38705SOL     OW19519   1.191   5.586   8.215  0.1055  0.2484  0.7104
38705SOL    HW119520   1.266   5.638   8.188  0.6510  0.8785  3.2896
38705SOL    HW219521   1.136   5.579   8.137  0.6929  3.5437 -0.0355
38706SOL     OW19522   2.706   7.586  10.899  0.3940  0.5321  0.0575
38706SOL    HW119523   2.757   7.506  10.912 -0.9773 -0.3415  0.1480
38706SOL    HW219524   2.769   7.657  10.909  0.7041 -0.3200  5.0434
38707SOL     OW19525   7.630   3.761  10.823 -0.5631  0.1092  0.4079
38707SOL    HW119526   7.589   3.711  10.752  0.6229 -0.4102  0.0712
38707SOL    HW219527   7.584   3.845  10.823 -1.9677 -0.6401  0.3835
38708SOL     OW19528   5.911   1.675   5.045 -0.1345 -0.2988  0.0492
38708SOL    HW119529   5.895   1.745   4.982  2.0110  0.0454 -0.1355
38708SOL    HW219530   5.928   1.598   4.992  1.6904 -0.0056  0.1771
38709SOL     OW19531   3.156   5.701   9.182 -0.1356  0.4279 -0.4043
38709SOL    HW119532   3.237   5.737   9.146 -0.8933  0.9633 -1.6162
38709SOL    HW219533   3.154   5.610   9.152 -0.4522  0.6939 -1.2119
38710SOL     OW19534  10.034   7.221   8.359  0.0589  0.1499  0.6012
38710SOL    HW119535   9.974   7.167   8.411 -4.7108  2.5937 -2.0122
38710SOL    HW219536  10.066   7.287   8.421 -1.3028 -0.2231  1.7411
38711SOL     OW19537   9.242   0.885   9.275  0.5191  0.1401  0.0470
38711SOL    HW119538   9.200   0.801   9.293  2.2900 -0.3430  2.0735
38711SOL    HW219539   9.170   0.949   9.277 -0.5995 -1.1053  0.0733
38712SOL     OW19540   6.948   0.056   4.226  0.0395  0.3411 -0.4994
38712SOL    HW119541   6.865   0.023   4.260 -1.2486 -0.4498 -4.1698
38712SOL    HW219542   6.945   0.037   4.132  3.7481  1.6435 -0.9774
38713SOL     OW19543   0.027   9.474   3.647  0.3424  0.4798 -0.2959
38713SOL    HW119544  -0.063   9.457   3.677  0.9595 -0.0119  1.3266
38713SOL    HW219545   0.041   9.567   3.666  0.2463  0.5173 -0.4011
38714SOL     OW19546  10.836   5.427   1.820  0.1000 -0.0926  0.3345
38714SOL    HW119547  10.844   5.374   1.741 -2.3652  2.7974 -1.9575
38714SOL    HW219548  10.746   5.412   1.850  0.2226  0.7531  1.1440
38715SOL     OW19549   5.963   9.366   4.556 -0.0928 -0.4601 -0.0032
38715SOL    HW119550   5.888   9.318   4.521  0.8029  0.1261 -2.8276
38715SOL    HW219551   6.031   9.299   4.568 -0.7421 -0.8389  1.7103
38716SOL     OW19552   0.737   5.792  10.625  0.0592  0.4174  0.5279
38716SOL    HW119553   0.795   5.720  10.601 -2.7600 -1.4262 -1.1365
38716SOL    HW219554   0.694   5.762  10.705 -0.6325  0.5178  0.1974
38717SOL     OW19555   3.886   2.024   1.827  0.0835  0.5016 -0.0930
38717SOL    HW119556   3.927   1.940   1.806 -0.8404 -0.0185  0.1871
38717SOL    HW219557   3.792   2.006   1.827 -0.0729  1.3012  0.9935
38718SOL     OW19558   8.807   5.816   4.960 -0.0258  0.2309 -0.3721
38718SOL    HW119559   8.846   5.740   5.003 -0.7957  0.3840  0.6283
38718SOL    HW219560   8.713   5.807   4.975 -0.2252  0.7806 -1.2450
38719SOL     OW19561   7.293   8.755   3.945 -0.3710  0.2029 -0.1852
38719SOL    HW119562   7.327   8.674   3.982  1.2914  1.8905  2.1485
38719SOL    HW219563   7.354   8.777   3.875  0.6310  0.6988  0.8174
38720SOL     OW19564  10.615   6.897   2.492  0.5070 -1.0004 -0.5475
38720SOL    HW119565  10.563   6.827   2.452 -0.2752 -1.9149  1.9721
38720SOL    HW219566  10.696   6.854   2.518  0.0466 -0.9487  0.9682
38721SOL     OW19567   9.167   4.929   2.426 -0.0219  0.3692 -0.5100
38721SOL    HW119568   9.252   4.886   2.424 -0.8564 -1.2619 -1.4032
38721SOL    HW219569   9.156   4.963   2.337 -0.0036  1.2269 -0.1952
38722SOL     OW19570   2.511   3.884   4.078  0.5132 -0.0537  0.4724
38722SOL    HW119571   2.471   3.806   4.116  0.7261  0.1471  1.1128
38722SOL    HW219572   2.442   3.950   4.082  0.3279 -0.2141 -0.0836
38723SOL     OW19573   2.434   8.073   8.786 -0.6656 -0.1546  0.2399
38723SOL    HW119574   2.473   8.160   8.778 -0.2222 -0.0939  2.4844
38723SOL    HW219575   2.508   8.013   8.789 -0.9996 -0.7637 -2.4554
38724SOL     OW19576   6.823   0.215   8.076  0.5130  0.3677 -0.8079
38724SOL    HW119577   6.845   0.306   8.091 -0.8126  0.7992 -1.3781
38724SOL    HW219578   6.842   0.172   8.159 -1.9632  1.7988  0.5589
38725SOL     OW19579   0.873   7.652   5.872  0.2856  0.8836  0.2718
38725SOL    HW119580   0.954   7.649   5.923  0.9790  2.1792 -0.6935
38725SOL    HW219581   0.866   7.565   5.832  0.9030  0.5802  0.8167
38726SOL     OW19582   3.868   5.387   6.674 -0.2525  0.5831  0.2048
38726SOL    HW119583   3.880   5.423   6.762  0.2606  0.2759  0.2606
38726SOL    HW219584   3.955   5.360   6.647 -0.4515  0.4338 -0.2972
38727SOL     OW19585   3.250   3.271   3.084  0.2999 -0.0543 -0.2432
38727SOL    HW119586   3.217   3.187   3.116  2.3756 -0.2023  1.6471
38727SOL    HW219587   3.237   3.332   3.157 -0.8322  1.1926 -1.4578
38728SOL     OW19588   3.298   1.596   0.427  0.0848  0.5054 -0.3687
38728SOL    HW119589   3.340   1.513   0.450  1.4812  1.3028 -0.0041
38728SOL    HW219590   3.337   1.619   0.343  0.6443  1.4337  0.1461
38729SOL     OW19591   8.350   2.446   5.886  0.0215  0.0727  0.7444
38729SOL    HW119592   8.337   2.396   5.806  0.7521  2.0003 -0.6251
38729SOL    HW219593   8.406   2.391   5.941  0.5997 -0.7124 -0.6123
38730SOL     OW19594  10.174   5.117   6.514 -0.2129 -0.1308  0.3944
38730SOL    HW119595  10.109   5.097   6.446 -1.0323 -0.0355  1.1495
38730SOL    HW219596  10.179   5.038   6.566 -0.8037  0.3580  1.2100
38731SOL     OW19597   6.150   4.456   1.772  0.0283 -0.4174 -0.1617
38731SOL    HW119598   6.245   4.470   1.766 -0.0326 -0.1091 -0.4084
38731SOL    HW219599   6.112   4.544   1.766 -0.1661 -0.3291  2.1883
38732SOL     OW19600   0.058   1.308   9.811  0.3205 -0.2921 -1.1362
38732SOL    HW119601   0.124   1.240   9.827 -0.9510 -1.3140 -0.0914
38732SOL    HW219602  -0.012   1.262   9.764 -1.1818 -0.0581  0.8287
38733SOL     OW19603   7.536  10.300   6.896  0.5229 -0.0851 -0.2341
38733SOL    HW119604   7.574  10.348   6.823 -0.1806  0.4968 -0.2286
38733SOL    HW219605   7.594  10.225   6.910  3.0690  2.1326  1.4269
38734SOL     OW19606  10.613   7.044   8.607 -0.5749 -0.4296  0.1974
38734SOL    HW119607  10.646   7.101   8.677 -0.2008  0.1917 -0.4819
38734SOL    HW219608  10.690   6.994   8.579 -0.5079  0.0384 -0.4520
38735SOL     OW19609   9.245   5.228  10.505 -0.3322 -0.3257 -0.0022
38735SOL    HW119610   9.172   5.170  10.531 -2.0315  2.0824  0.7975
38735SOL    HW219611   9.319   5.198  10.559 -0.2308 -3.7824 -1.9007
38736SOL     OW19612   0.503   2.703   3.016 -0.1441 -0.1718 -0.3660
38736SOL    HW119613   0.416   2.704   3.054  0.6936 -1.3189  1.6656
38736SOL    HW219614   0.539   2.618   3.041  1.4789  0.2136 -1.3290
38737SOL     OW19615   0.880  10.691   7.273 -0.3284 -0.3017  0.2784
38737SOL    HW119616   0.962  10.730   7.304  0.2105 -0.7705 -0.5270
38737SOL    HW219617   0.848  10.641   7.348 -0.2335  0.4169  0.8188
38738SOL     OW19618   3.424   7.761   0.458  0.2476  0.9584  0.3991
38738SOL    HW119619   3.497   7.817   0.431  0.4982  0.0017 -0.9775
38738SOL    HW219620   3.386   7.806   0.533  0.6149  2.8444 -0.5136
38739SOL     OW19621   2.486   6.812   5.009  0.3667  0.6796  0.4462
38739SOL    HW119622   2.435   6.836   4.931  0.1727  0.4838  0.5137
38739SOL    HW219623   2.480   6.717   5.013 -1.0248  0.8041  1.6552
38740SOL     OW19624   1.831   2.216  10.344 -0.4630  0.3909 -0.1987
38740SOL    HW119625   1.738   2.234  10.326 -0.7027  1.7733  2.2073
38740SOL    HW219626   1.831   2.178  10.432  1.0243 -2.2655 -1.2888
38741SOL     OW19627   6.060   2.468   7.737 -0.0984  0.1438 -0.0867
38741SOL    HW119628   6.041   2.387   7.690  1.1244  0.0260 -0.3872
38741SOL    HW219629   5.975   2.496   7.771 -0.6329 -0.9256 -0.5135
38742SOL     OW19630   8.699   3.139   1.846  0.1775 -0.5979  0.0047
38742SOL    HW119631   8.651   3.172   1.922  2.2112  1.2101  0.5307
38742SOL    HW219632   8.749   3.214   1.814  0.4256 -1.6976 -2.2979
38743SOL     OW19633  10.939   9.349   9.080 -0.0484  0.1751  0.4486
38743SOL    HW119634  10.963   9.290   9.151  1.6965  1.4738  0.9819
38743SOL    HW219635  11.018   9.356   9.026 -1.3325 -0.7423 -1.5964
38744SOL     OW19636  10.193  10.734   5.721  0.3409  0.2992  0.2894
38744SOL    HW119637  10.233  10.653   5.753  0.1334  0.3594  0.7069
38744SOL    HW219638  10.099  10.715   5.720  0.3617  0.2198 -0.5169
38745SOL     OW19639   4.312   0.910   9.466  0.0329 -0.1453  0.1856
38745SOL    HW119640   4.335   0.995   9.504  1.2935 -0.5135  0.2665
38745SOL    HW219641   4.364   0.905   9.385 -0.6880 -0.4660 -0.2600
38746SOL     OW19642  10.633   2.906   3.118 -0.4980  0.3423  0.3114
38746SOL    HW119643  10.665   2.996   3.114  2.0954 -0.5369  0.4045
38746SOL    HW219644  10.628   2.879   3.027 -0.3251  0.2768  0.3201
38747SOL     OW19645   1.103   5.969   2.893  0.4643  0.1383  0.3413
38747SOL    HW119646   1.052   5.908   2.947  0.4308 -0.4772 -0.3832
38747SOL    HW219647   1.079   5.948   2.803  1.5147  0.2791  0.0195
38748SOL     OW19648   4.840   4.476   4.201 -0.2352  0.2801  0.1835
38748SOL    HW119649   4.803   4.409   4.143  2.3112  0.7088 -2.0309
38748SOL    HW219650   4.814   4.559   4.161 -0.3940  0.5952  0.9379
38749SOL     OW19651   6.103   2.165   9.091  0.3306 -0.0488 -0.5387
38749SOL    HW119652   6.025   2.219   9.098  2.4170  2.8703  1.0910
38749SOL    HW219653   6.130   2.173   8.999  0.3698  1.3280 -0.4083
38750SOL     OW19654   7.983   8.001   7.039  0.5529  1.0123 -0.4281
38750SOL    HW119655   7.997   8.077   7.096  2.8874  1.1738 -1.1850
38750SOL    HW219656   7.899   8.019   6.996  0.8270  2.9210 -0.2139
38751SOL     OW19657   3.199   6.700   7.353 -0.1328  0.6792 -0.3758
38751SOL    HW119658   3.286   6.733   7.373 -0.2644  1.2353 -0.7196
38751SOL    HW219659   3.198   6.687   7.258 -0.0066 -0.5425 -0.2273
38752SOL     OW19660   3.753   1.889   2.171 -0.0356  0.5839  0.0011
38752SOL    HW119661   3.736   1.830   2.244 -0.7924  1.1263  0.2725
38752SOL    HW219662   3.758   1.832   2.094 -1.4906  0.2382  0.1495
38753SOL     OW19663   1.852   5.563  10.323  0.5688  0.2995 -0.1319
38753SOL    HW119664   1.907   5.586  10.248 -1.7638 -1.7526 -2.5652
38753SOL    HW219665   1.888   5.480  10.354  0.4661  0.2829 -0.0578
38754SOL     OW19666   3.902   2.199   5.533 -0.5388 -0.1051 -0.0739
38754SOL    HW119667   3.991   2.175   5.557 -0.4354 -2.8978 -2.9236
38754SOL    HW219668   3.880   2.272   5.591  3.5310  0.5760  0.7352
38755SOL     OW19669   5.573   7.492   8.393 -0.1705 -0.0051 -0.2959
38755SOL    HW119670   5.605   7.580   8.414 -1.6116 -0.5213  4.5987
38755SOL    HW219671   5.627   7.433   8.446 -1.3038 -1.8385 -1.1211
38756SOL     OW19672   8.399   5.629  10.977 -0.5182  0.3391  0.3839
38756SOL    HW119673   8.315   5.618  11.020 -1.2491  0.0547 -1.1000
38756SOL    HW219674   8.378   5.672  10.894  0.7085 -0.4794 -0.3617
38757SOL     OW19675   9.952   4.554   1.057 -0.1543  0.1613 -0.0500
38757SOL    HW119676   9.997   4.636   1.076  0.1813 -0.1846  0.6724
38757SOL    HW219677   9.900   4.537   1.136 -1.2039  0.3206 -0.6887
38758SOL     OW19678   5.286  10.980   1.801  0.1084  0.2446  0.5724
38758SOL    HW119679   5.293  10.976   1.706  0.0223  0.3095  0.5631
38758SOL    HW219680   5.283  10.889   1.829  1.3844  0.2023  0.6065
38759SOL     OW19681   7.912   4.383   0.225  0.1227  0.3311 -0.9868
38759SOL    HW119682   7.917   4.379   0.321 -1.5196  0.1915 -0.8936
38759SOL    HW219683   7.832   4.334   0.203  2.4626 -2.9053 -2.6713
38760SOL     OW19684   3.844   2.858   8.970  0.4151 -0.1978  0.1264
38760SOL    HW119685   3.912   2.826   8.911  1.0832  2.2886 -0.5361
38760SOL    HW219686   3.776   2.893   8.912  0.4312  0.9700  0.7852
38761SOL     OW19687   8.404   9.437   0.040  0.0358  0.1014  0.5184
38761SOL    HW119688   8.418   9.346   0.065 -2.3127 -0.8600 -1.3971
38761SOL    HW219689   8.437   9.442  -0.050 -2.0630  0.4862 -0.2565
38762SOL     OW19690   0.450   4.181   1.701  0.2922 -0.3354  0.5420
38762SOL    HW119691   0.475   4.122   1.773  2.2590 -1.0178 -0.6698
38762SOL    HW219692   0.521   4.245   1.697  0.2826 -0.4057 -0.9088
38763SOL     OW19693   9.437   0.404  10.185 -0.1454  0.1884  0.0511
38763SOL    HW119694   9.481   0.459  10.120 -0.5487  1.1052  0.5520
38763SOL    HW219695   9.394   0.336  10.133 -1.0149  1.2902 -0.7136
38764SOL     OW19696   3.292   1.656   5.249  0.3806 -0.5346  0.3901
38764SOL    HW119697   3.205   1.664   5.287 -0.3746  2.5316 -1.7916
38764SOL    HW219698   3.348   1.627   5.321 -1.8670  0.4396  2.5555
38765SOL     OW19699   8.282   3.641   1.125  0.4016 -0.3258  0.5152
38765SOL    HW119700   8.319   3.601   1.047  0.7508  0.1777  0.4197
38765SOL    HW219701   8.189   3.619   1.122  0.8130 -2.2617  1.1627
38766SOL     OW19702   6.330   4.588   2.174  0.2896  0.2656 -0.0452
38766SOL    HW119703   6.344   4.528   2.247 -0.9045  1.3765  1.1326
38766SOL    HW219704   6.250   4.556   2.131 -0.7134  1.3738  0.9760
38767SOL     OW19705   7.460  10.741   6.250 -0.3925 -0.6412  0.2095
38767SOL    HW119706   7.410  10.665   6.218  1.5378 -1.7317 -0.3280
38767SOL    HW219707   7.398  10.790   6.303 -1.7210 -2.5670  0.5007
38768SOL     OW19708   1.503   2.206   6.088 -0.2266  0.8974 -0.1570
38768SOL    HW119709   1.451   2.246   6.158  0.0488  0.8159  0.0992
38768SOL    HW219710   1.511   2.114   6.114  2.2045  1.4185  1.1583
38769SOL     OW19711   7.323  10.356   5.582  0.0959 -0.4036  0.7117
38769SOL    HW119712   7.302  10.450   5.576  0.5530 -0.4029 -1.3668
38769SOL    HW219713   7.408  10.353   5.625  0.2155  0.1474  0.5142
38770SOL     OW19714   9.152   9.809   8.756 -0.0710  0.4907  0.6947
38770SOL    HW119715   9.180   9.887   8.804  1.6968  0.8908 -0.9109
38770SOL    HW219716   9.172   9.830   8.664 -1.0770 -1.2242  0.0750
38771SOL     OW19717   0.897   3.150   4.128  0.3496 -0.6300  0.4145
38771SOL    HW119718   0.941   3.151   4.213  2.2474 -1.1699 -0.5310
38771SOL    HW219719   0.921   3.234   4.088 -0.6105 -0.3380  0.4310
38772SOL     OW19720   4.522   5.894   9.190  0.0086 -0.0803 -0.0221
38772SOL    HW119721   4.551   5.858   9.274 -1.8142 -2.6013 -0.3943
38772SOL    HW219722   4.447   5.950   9.212  1.0710  1.2409  0.2670
38773SOL     OW19723   4.361   1.892   8.278  0.3013 -0.4474 -0.1365
38773SOL    HW119724   4.324   1.973   8.241 -0.8371 -0.4768  0.9292
38773SOL    HW219725   4.455   1.911   8.285  0.2056  0.3959 -0.8694
38774SOL     OW19726   2.636   7.513   2.281 -0.4176 -0.1732 -0.1156
38774SOL    HW119727   2.728   7.506   2.258 -0.2681 -0.3976  0.5453
38774SOL    HW219728   2.591   7.458   2.217 -0.0312 -0.5566 -0.0631
38775SOL     OW19729   8.991   2.038  10.264 -0.5278  0.3884 -0.1504
38775SOL    HW119730   9.020   2.028  10.173 -1.2445 -0.1465 -0.3219
38775SOL    HW219731   8.994   1.950  10.300  1.4481  0.8445  0.8706
38776SOL     OW19732   4.896   8.336   4.673 -0.0161  0.3167 -0.3559
38776SOL    HW119733   4.934   8.422   4.659  2.6732 -0.7422  0.0996
38776SOL    HW219734   4.912   8.289   4.591  0.4068 -0.3875  0.1169
38777SOL     OW19735   1.887   3.599   4.646  0.2890  0.2014  0.3825
38777SOL    HW119736   1.867   3.534   4.713 -1.1096  1.8341  1.6076
38777SOL    HW219737   1.810   3.657   4.645  0.4544  0.4733 -2.3332
38778SOL     OW19738   0.856   8.243   6.563 -0.5117 -0.1865  0.3430
38778SOL    HW119739   0.841   8.305   6.492 -0.2391 -0.8324 -0.2836
38778SOL    HW219740   0.784   8.257   6.624 -1.4314 -0.4984 -0.6713
38779SOL     OW19741   1.747   7.633   0.903 -0.3167  0.2600 -0.4467
38779SOL    HW119742   1.777   7.617   0.813 -1.4463  0.0441 -0.7875
38779SOL    HW219743   1.755   7.727   0.915  0.9875  0.1470 -0.3557
38780SOL     OW19744   1.035  10.917   7.385  0.1901  0.2569 -0.5359
38780SOL    HW119745   1.040  10.984   7.317 -0.6531  0.5040 -0.3521
38780SOL    HW219746   1.116  10.927   7.435  0.3993  0.6538 -0.9586
38781SOL     OW19747   8.602   0.541   9.000 -0.2602 -0.0750 -0.1934
38781SOL    HW119748   8.632   0.622   8.960  0.3035 -0.0835  0.1978
38781SOL    HW219749   8.572   0.567   9.087 -1.0664 -0.1226 -0.4560
38782SOL     OW19750   5.457   7.405   7.937  0.3168 -0.9371 -0.2398
38782SOL    HW119751   5.481   7.483   7.888 -1.3401  0.8658  1.6995
38782SOL    HW219752   5.361   7.407   7.940  0.2816 -2.6661  0.4080
38783SOL     OW19753   9.528   3.655   8.267 -0.4529  0.2542  0.3248
38783SOL    HW119754   9.596   3.697   8.319  1.0659  0.0724 -1.4471
38783SOL    HW219755   9.576   3.593   8.211 -1.9652  0.8847 -1.7010
38784SOL     OW19756   4.685   5.937  10.421  0.4256  0.4231  0.4579
38784SOL    HW119757   4.778   5.922  10.400  1.1321  1.2800  2.7760
38784SOL    HW219758   4.678   5.909  10.513 -2.0489 -1.3625 -0.2279
38785SOL     OW19759  10.105   8.760   9.839  0.0558  0.5967  0.3565
38785SOL    HW119760  10.110   8.668   9.866 -1.3138  1.3710  3.3661
38785SOL    HW219761  10.176   8.802   9.887  0.5274  1.1853 -0.8389
38786SOL     OW19762   1.385   9.715   0.549  0.0815 -0.1877 -0.5337
38786SOL    HW119763   1.411   9.662   0.624  0.0015 -0.8513 -0.9666
38786SOL    HW219764   1.464   9.765   0.527 -0.1859  0.7571  0.5987
38787SOL     OW19765   5.138   6.956  10.799  0.0509  0.1113  0.6594
38787SOL    HW119766   5.111   6.908  10.878 -0.2453 -0.1502  0.4014
38787SOL    HW219767   5.149   6.888  10.732  0.7907  0.2797  0.6085
38788SOL     OW19768   6.046   9.402   3.064  0.0059 -0.3703 -0.0665
38788SOL    HW119769   6.088   9.488   3.056 -0.1616 -0.1807  0.9426
38788SOL    HW219770   6.092   9.346   3.002 -0.5977  0.7256 -1.5233
38789SOL     OW19771   7.647   1.180   2.109  0.0485 -0.1307 -1.1399
38789SOL    HW119772   7.560   1.185   2.069 -1.1907 -1.1435  1.3507
38789SOL    HW219773   7.666   1.087   2.112  0.8050  0.0361 -0.8034
38790SOL     OW19774   3.871   7.225   7.548 -0.0512 -0.0594 -0.0806
38790SOL    HW119775   3.923   7.188   7.619 -0.8988 -0.2891  0.4260
38790SOL    HW219776   3.917   7.306   7.524  0.8606 -0.5537 -0.0417
38791SOL     OW19777   0.799   5.814   9.663 -0.3323 -0.3443 -0.0381
38791SOL    HW119778   0.757   5.807   9.749  0.2069  0.1020  0.2660
38791SOL    HW219779   0.892   5.798   9.681 -0.2862 -0.7155 -0.6123
38792SOL     OW19780   7.535   1.805   8.019 -0.1040 -0.1991  0.1025
38792SOL    HW119781   7.595   1.857   8.072  1.1588 -1.1201 -0.3979
38792SOL    HW219782   7.500   1.740   8.079 -0.0008 -0.1486  0.2183
38793SOL     OW19783   9.209   7.018   6.077  0.5092  0.3952  0.0894
38793SOL    HW119784   9.238   6.954   6.141  1.4198  1.6416  0.9354
38793SOL    HW219785   9.115   7.029   6.095  0.6438  0.3160  0.8321
38794SOL     OW19786  10.734   9.941  10.653  0.6042 -0.8096 -0.0475
38794SOL    HW119787  10.764   9.992  10.728 -1.0051  2.7111 -1.7242
38794SOL    HW219788  10.650   9.905  10.680 -0.2654  0.9615 -0.3481
38795SOL     OW19789   7.151   9.912   5.958  0.0007  0.1715  0.3692
38795SOL    HW119790   7.061   9.895   5.987  0.0143  0.4321  0.5657
38795SOL    HW219791   7.202   9.913   6.038  0.5167 -2.0364  0.0755
38796SOL     OW19792   3.239   6.001   5.696 -0.4042  0.1034 -0.3215
38796SOL    HW119793   3.318   6.042   5.732 -0.1861  0.7701 -1.5543
38796SOL    HW219794   3.221   6.049   5.615 -2.2243  0.1192  0.0708
38797SOL     OW19795   4.819  10.341   0.135  0.5669 -0.2443 -0.2415
38797SOL    HW119796   4.851  10.402   0.068  2.7876 -1.1879 -0.1125
38797SOL    HW219797   4.841  10.383   0.218  0.8573 -0.5944 -0.1411
38798SOL     OW19798   9.891   0.125   0.451 -0.7142 -0.2379 -0.0823
38798SOL    HW119799   9.865   0.038   0.479  1.3195 -0.5157  1.0407
38798SOL    HW219800   9.884   0.178   0.530  2.5913 -0.4484  0.4060
38799SOL     OW19801   0.407   6.315  10.507 -0.1394 -0.6001  0.0995
38799SOL    HW119802   0.420   6.225  10.538 -0.4554 -1.9093 -3.3027
38799SOL    HW219803   0.495   6.353  10.505  0.1738 -1.3066  0.2988
38800SOL     OW19804   4.247   4.459   6.899 -0.5309  0.1910  0.0788
38800SOL    HW119805   4.240   4.390   6.833 -1.7837  1.1575 -0.8297
38800SOL    HW219806   4.158   4.471   6.931 -0.7982  3.1284 -1.6104
38801SOL     OW19807   6.248   8.256   5.138  0.2086  0.0016 -0.0900
38801SOL    HW119808   6.334   8.220   5.118 -1.3381 -2.6409 -2.2116
38801SOL    HW219809   6.242   8.335   5.084  1.0713 -0.0752 -0.3090
38802SOL     OW19810   6.415   0.131   3.437  0.1230 -0.6333  0.4471
38802SOL    HW119811   6.401   0.198   3.504  2.8889  3.1585 -2.4655
38802SOL    HW219812   6.345   0.145   3.374  1.7148  0.8823 -1.0702
38803SOL     OW19813   1.919   6.235   2.533 -0.4014  0.5561 -0.4651
38803SOL    HW119814   1.840   6.201   2.491 -0.9053  0.0095  0.9142
38803SOL    HW219815   1.979   6.160   2.535 -1.3739 -0.1805  2.2350
38804SOL     OW19816   8.840   2.097   4.220 -0.1122 -0.2405  0.0366
38804SOL    HW119817   8.768   2.160   4.217  0.3499  0.2371 -1.6603
38804SOL    HW219818   8.812   2.032   4.284 -0.9644  1.2486  1.2088
38805SOL     OW19819   4.418   9.143   9.650 -0.3306 -0.6134 -0.4385
38805SOL    HW119820   4.490   9.130   9.587 -1.1109  0.2158 -1.5222
38805SOL    HW219821   4.460   9.187   9.724  0.0358  1.1191 -1.6414
38806SOL     OW19822   3.544   7.657   0.913  0.1615  0.5418  0.3079
38806SOL    HW119823   3.598   7.653   0.993  0.5468  0.2623  0.0332
38806SOL    HW219824   3.572   7.581   0.862  0.7197  1.3583 -0.6094
38807SOL     OW19825   0.420   0.859   8.378  1.0167 -0.3400 -0.4423
38807SOL    HW119826   0.406   0.950   8.354 -0.1732 -0.4508 -0.1680
38807SOL    HW219827   0.493   0.862   8.440 -0.5324  0.6634  1.3500
38808SOL     OW19828  10.902   7.259   7.825 -0.1588 -0.1359  0.1810
38808SOL    HW119829  10.901   7.226   7.735 -0.6468 -1.3059  0.5975
38808SOL    HW219830  10.811   7.253   7.853 -0.2113  1.3973  0.3420
38809SOL     OW19831   6.675   4.012   7.532  0.0124 -0.2597  0.0930
38809SOL    HW119832   6.770   4.006   7.545 -0.0035  0.7782  0.7352
38809SOL    HW219833   6.646   3.921   7.524  1.2237 -0.5310 -1.3328
38810SOL     OW19834   3.800   2.840   5.972 -0.1368 -0.0876 -0.3389
38810SOL    HW119835   3.820   2.747   5.969 -2.3893 -0.5970 -0.0941
38810SOL    HW219836   3.806   2.862   6.065  0.7504  0.1115 -0.4359
38811SOL     OW19837   9.309   0.613   9.471 -0.2519 -0.1546  0.4777
38811SOL    HW119838   9.337   0.565   9.393 -0.2639 -0.3991  0.6220
38811SOL    HW219839   9.234   0.664   9.442 -1.0993 -1.2833  0.6505
38812SOL     OW19840   9.839   1.220   1.075 -0.2484 -0.1234 -0.0424
38812SOL    HW119841   9.931   1.215   1.102  0.5770  1.9224 -2.2652
38812SOL    HW219842   9.826   1.145   1.018  1.2820  1.7968 -3.0485
38813SOL     OW19843   0.631   0.720  10.563 -0.0544  0.5618 -0.8237
38813SOL    HW119844   0.628   0.757  10.474  1.3036  0.3312 -0.9634
38813SOL    HW219845   0.686   0.643  10.555 -1.4434 -0.5338 -0.1533
38814SOL     OW19846   2.507   8.215   4.606  0.4540  0.2612 -0.1176
38814SOL    HW119847   2.472   8.278   4.542  0.5641  1.0684  0.6164
38814SOL    HW219848   2.433   8.197   4.664  0.3497 -0.4873 -0.4758
38815SOL     OW19849   3.479   6.162   1.414  0.5116  0.2316 -0.2161
38815SOL    HW119850   3.402   6.196   1.370 -0.4484 -0.2951  1.0357
38815SOL    HW219851   3.544   6.153   1.344 -0.1629  1.7837 -1.0678
38816SOL     OW19852   7.556   5.946   1.039 -0.5441  0.1807  0.0375
38816SOL    HW119853   7.530   5.870   0.987  0.3265  0.3183 -0.6038
38816SOL    HW219854   7.650   5.954   1.027 -0.6399  1.4433 -0.0253
38817SOL     OW19855   4.145   9.319   1.676  0.6234  0.3964  0.1501
38817SOL    HW119856   4.231   9.276   1.686  1.0047  0.4786 -2.5633
38817SOL    HW219857   4.091   9.254   1.631  0.0255  1.2863 -0.4296
38818SOL     OW19858   1.516   1.165   2.778  1.0643  0.2207  0.3295
38818SOL    HW119859   1.476   1.153   2.692  1.6622  1.5582 -0.1388
38818SOL    HW219860   1.446   1.205   2.831  1.1392  0.6753  0.0826
38819SOL     OW19861   1.525   5.240   8.228 -0.1677  0.0642 -0.0895
38819SOL    HW119862   1.438   5.238   8.188 -1.9604 -1.0459  3.6085
38819SOL    HW219863   1.538   5.151   8.262  1.9760  0.4932  0.3193
38820SOL     OW19864   1.583   7.132  10.752  0.9131  0.7251  0.7124
38820SOL    HW119865   1.644   7.113  10.823  0.4617  0.5184  1.0479
38820SOL    HW219866   1.638   7.140  10.675  1.3836  0.7171  1.0440
38821SOL     OW19867  10.722   3.828   1.272 -0.2023 -0.5888  0.1525
38821SOL    HW119868  10.810   3.800   1.248  0.0315  0.4916 -0.2783
38821SOL    HW219869  10.736   3.896   1.338 -0.7458 -1.0533  0.7519
38822SOL     OW19870   8.720   3.381  10.217 -0.0917  0.3210  0.2486
38822SOL    HW119871   8.654   3.447  10.192 -0.3397  0.2721  0.7521
38822SOL    HW219872   8.679   3.333  10.289 -0.2437 -0.9510 -0.6756
38823SOL     OW19873   9.879   4.102   1.375  0.2112  0.3023 -0.4004
38823SOL    HW119874   9.941   4.047   1.327  1.0666  0.5195  0.4460
38823SOL    HW219875   9.923   4.187   1.382 -0.6884  0.8125 -0.8375
38824SOL     OW19876  10.016   8.631   5.563 -0.2817  0.1537  0.1567
38824SOL    HW119877   9.940   8.684   5.541  0.1677  0.7293 -0.0103
38824SOL    HW219878   9.980   8.554   5.607 -0.8954  0.7905  0.7654
38825SOL     OW19879   6.846   0.137   3.621  0.0585 -0.2805 -0.2770
38825SOL    HW119880   6.809   0.117   3.535 -0.9853 -0.5780  0.2332
38825SOL    HW219881   6.893   0.220   3.608 -0.3898 -0.1381 -1.0451
38826SOL     OW19882   3.220   8.197   1.938  0.2066  0.4496 -0.0386
38826SOL    HW119883   3.247   8.287   1.922 -1.4201  0.7659 -1.1588
38826SOL    HW219884   3.130   8.193   1.905  0.3962 -1.6801 -0.3482
38827SOL     OW19885   5.654   4.877   7.947  0.3521 -0.3313 -0.0776
38827SOL    HW119886   5.665   4.962   7.990 -1.4802 -0.6940  1.1628
38827SOL    HW219887   5.594   4.895   7.875 -0.5279 -0.6968  0.5653
38828SOL     OW19888   2.042   6.809   1.022  0.2727 -0.4584 -0.0395
38828SOL    HW119889   2.033   6.719   1.053  1.7228 -0.8135 -0.5970
38828SOL    HW219890   1.988   6.813   0.943  0.6791 -1.0251 -0.3555
38829SOL     OW19891  10.867   5.755   6.290 -0.1527  0.3145 -0.4248
38829SOL    HW119892  10.777   5.726   6.275  0.1829 -0.1819 -1.5215
38829SOL    HW219893  10.874   5.837   6.240 -0.2221  0.7470  0.2745
38830SOL     OW19894   9.218   3.014   4.805 -0.1172  0.1232  0.0565
38830SOL    HW119895   9.267   3.006   4.887  0.1324 -2.2504 -0.2803
38830SOL    HW219896   9.209   2.924   4.774 -3.3524  0.6382 -0.6946
38831SOL     OW19897  10.784   1.543   9.439  0.3068 -0.5891  0.2115
38831SOL    HW119898  10.748   1.489   9.509  0.7722 -1.8917 -0.5280
38831SOL    HW219899  10.787   1.484   9.363  1.6080  0.2399 -0.3909
38832SOL     OW19900  10.417   8.266   2.365  0.3152 -0.3333 -0.1248
38832SOL    HW119901  10.347   8.244   2.304  0.7426 -2.7146  0.2117
38832SOL    HW219902  10.483   8.309   2.311 -0.4556 -0.0417 -0.8431
38833SOL     OW19903   5.658   2.756   0.553 -0.1518  0.1673  0.4091
38833SOL    HW119904   5.655   2.756   0.458 -2.1194 -1.3099  0.4149
38833SOL    HW219905   5.659   2.848   0.578 -0.2638  0.5654 -1.0216
38834SOL     OW19906   5.505   9.186   6.196 -0.5070 -0.7895  0.5353
38834SOL    HW119907   5.573   9.253   6.207  0.3068 -1.7019  1.1072
38834SOL    HW219908   5.425   9.236   6.176  0.5623  0.2224 -1.2823
38835SOL     OW19909   0.076   9.816   9.283  0.0566 -0.3788 -0.1574
38835SOL    HW119910   0.157   9.854   9.315  0.4893  0.1102 -1.7821
38835SOL    HW219911   0.099   9.726   9.260  0.6978  0.3717 -2.6183
38836SOL     OW19912   6.791   8.023   8.855 -0.2857 -0.5584  0.2494
38836SOL    HW119913   6.774   8.070   8.774 -1.4810  0.4264  1.0531
38836SOL    HW219914   6.754   7.936   8.839  1.2946 -1.0400 -0.9729
38837SOL     OW19915  10.668   8.071  10.056 -0.6075 -0.0569  0.3129
38837SOL    HW119916  10.633   7.988  10.023  0.1241  0.5100 -2.0070
38837SOL    HW219917  10.685   8.055  10.149 -0.2274 -2.5892 -0.1606
38838SOL     OW19918  10.041   1.172   0.055 -0.2123 -0.2606 -0.3244
38838SOL    HW119919  10.096   1.174   0.133 -1.5980  0.2314  0.6738
38838SOL    HW219920   9.995   1.088   0.059 -1.4476  0.4283  0.2338
38839SOL     OW19921   9.275   8.552   4.723 -0.0844 -0.4509 -0.1236
38839SOL    HW119922   9.314   8.511   4.646  1.4877 -1.0802  0.9907
38839SOL    HW219923   9.210   8.614   4.687  0.1692 -1.1952 -1.9129
38840SOL     OW19924   2.091   3.273   4.501 -0.7990 -0.0079  0.4270
38840SOL    HW119925   2.038   3.338   4.455  0.2195  1.8786  1.8388
38840SOL    HW219926   2.163   3.323   4.538 -0.3096 -1.8514  2.0555
38841SOL     OW19927   2.741   0.933   7.212 -0.0343  0.1424  0.1543
38841SOL    HW119928   2.815   0.880   7.184 -0.1187 -0.9137  1.8297
38841SOL    HW219929   2.760   0.955   7.303 -0.8689  1.4714  0.0206
38842SOL     OW19930   1.049   5.250   8.125  0.5721  0.0080  0.0364
38842SOL    HW119931   1.120   5.281   8.068  1.4229 -1.1331  0.4581
38842SOL    HW219932   1.085   5.255   8.213  0.6873 -2.0217  0.1260
38843SOL     OW19933   3.102   6.785   5.203 -0.0571  0.4739  0.4141
38843SOL    HW119934   3.139   6.842   5.136  1.4620  1.2933  1.9223
38843SOL    HW219935   3.023   6.830   5.232 -0.5166  0.2983 -0.5349
38844SOL     OW19936   9.044   8.103   4.616  0.2646  0.0728  0.0925
38844SOL    HW119937   8.985   8.029   4.598  0.8695  0.0409 -1.8527
38844SOL    HW219938   8.994   8.180   4.588  0.5357  0.1926 -0.0512
38845SOL     OW19939   4.206   4.135   3.826  0.4407  0.5862  0.3029
38845SOL    HW119940   4.128   4.172   3.867  0.3798 -0.1805  0.8981
38845SOL    HW219941   4.182   4.044   3.808  1.1101  0.4109  0.2803
38846SOL     OW19942   9.433   4.803   5.555 -0.3601 -0.0298 -0.7301
38846SOL    HW119943   9.373   4.830   5.486 -2.5559 -1.7106  0.4484
38846SOL    HW219944   9.435   4.877   5.616 -0.5161  0.3972 -1.2444
38847SOL     OW19945   7.678  10.487   3.326 -0.3576  0.2675  0.0476
38847SOL    HW119946   7.614  10.452   3.388  1.2646  1.7776  2.6677
38847SOL    HW219947   7.683  10.421   3.257 -2.0424 -1.6001  1.6330
38848SOL     OW19948   2.963   1.824   5.646 -0.2842 -0.1392 -0.3829
38848SOL    HW119949   2.941   1.734   5.667 -1.4284  0.0338 -0.8200
38848SOL    HW219950   2.941   1.834   5.554  1.5199  0.0892 -0.8200
38849SOL     OW19951   9.063   6.967  10.204  0.5217  0.3085  0.2271
38849SOL    HW119952   9.072   6.892  10.145  2.5197 -0.9400  2.0144
38849SOL    HW219953   9.080   7.043  10.149  0.3517 -0.6731 -1.2289
38850SOL     OW19954  10.938   3.720   5.531 -0.2546 -0.4494  0.7514
38850SOL    HW119955  10.989   3.646   5.565  0.8060 -0.1360 -0.1496
38850SOL    HW219956  10.907   3.691   5.446 -0.4052 -0.1025  0.6878
38851SOL     OW19957   5.120   0.586   7.094  0.1990 -0.1579 -0.5211
38851SOL    HW119958   5.106   0.502   7.051 -1.1747  0.0091 -0.4116
38851SOL    HW219959   5.143   0.646   7.022  3.9979 -1.2065 -0.2837
38852SOL     OW19960   9.634  10.732   3.008  0.3485 -0.2135 -0.4332
38852SOL    HW119961   9.672  10.781   2.935  1.9812 -1.0527 -0.1798
38852SOL    HW219962   9.708  10.682   3.044 -0.9708 -1.6950  0.2433
38853SOL     OW19963   4.140   5.166   9.095 -0.1094  0.3617 -0.3956
38853SOL    HW119964   4.117   5.213   9.175 -0.5996 -0.3743 -0.0890
38853SOL    HW219965   4.235   5.155   9.099 -0.2602 -0.6801  0.6747
38854SOL     OW19966   9.308   4.723   4.964  0.2829  0.7720  0.1503
38854SOL    HW119967   9.231   4.734   5.020  0.7435  0.9626  0.7476
38854SOL    HW219968   9.316   4.629   4.953  0.4785  0.7101  0.8092
38855SOL     OW19969   0.019   6.317   8.442 -0.3129 -0.1031 -0.1317
38855SOL    HW119970   0.036   6.380   8.512 -0.5043  1.5246 -1.5034
38855SOL    HW219971   0.098   6.320   8.388 -0.5991 -0.5454 -0.5746
38856SOL     OW19972   9.475   4.188   4.393 -0.2169 -0.0122 -0.6081
38856SOL    HW119973   9.415   4.208   4.465 -0.2208 -0.2373 -0.5465
38856SOL    HW219974   9.481   4.269   4.342 -0.6791 -0.0320 -0.6913
38857SOL     OW19975  10.312   2.845   1.137  0.0191 -0.4002  0.1721
38857SOL    HW119976  10.371   2.904   1.185  2.3104 -2.0126 -0.5599
38857SOL    HW219977  10.264   2.799   1.206  1.2685 -0.6946  0.8744
38858SOL     OW19978   8.239   8.782   2.017 -0.3776  0.6832  0.8068
38858SOL    HW119979   8.146   8.804   2.008 -0.5706 -0.2302  0.5198
38858SOL    HW219980   8.243   8.726   2.094 -0.0638  0.7178  0.8162
38859SOL     OW19981   0.496   2.013   8.413 -0.4742  0.7037  0.3459
38859SOL    HW119982   0.582   2.046   8.385  0.0642 -0.9316  0.0318
38859SOL    HW219983   0.477   2.062   8.493  0.3472  1.6951 -0.0410
38860SOL     OW19984   8.588   8.154   8.115 -0.1923  0.5302 -0.1955
38860SOL    HW119985   8.677   8.146   8.082 -0.3720 -1.4505 -0.2509
38860SOL    HW219986   8.547   8.070   8.095 -2.0079  1.3368  0.0180
38861SOL     OW19987   6.806   6.293   1.467 -0.1491 -0.2687 -0.4612
38861SOL    HW119988   6.864   6.227   1.506 -1.6176  0.2501  2.6994
38861SOL    HW219989   6.731   6.243   1.434 -0.2947 -0.4022  0.0713
38862SOL     OW19990   2.629   6.368   9.198 -0.4780 -0.0712 -0.3834
38862SOL    HW119991   2.600   6.424   9.270  0.5376  1.4282 -1.0854
38862SOL    HW219992   2.674   6.295   9.240 -2.0421 -0.4921  0.5636
38863SOL     OW19993   6.784   5.296   2.484 -0.4276  0.0241 -0.6122
38863SOL    HW119994   6.814   5.366   2.426 -0.2112 -0.8999 -1.6236
38863SOL    HW219995   6.832   5.218   2.456  1.2857 -0.0152  2.1783
38864SOL     OW19996   8.251   9.293   5.416 -0.6284 -0.0013  0.2574
38864SOL    HW119997   8.340   9.268   5.443 -0.5876 -1.1913 -0.9234
38864SOL    HW219998   8.264   9.351   5.341 -0.8662 -1.1716 -0.7019
38865SOL     OW19999   9.598  10.765   0.611  0.1123 -0.2257  0.1820
38865SOL    HW120000   9.589  10.749   0.705 -0.3047 -1.0915 -0.0066
38865SOL    HW220001   9.531  10.711   0.571 -0.8604  1.4664 -0.5078
38866SOL     OW20002   6.811   4.825   8.362  0.4373 -0.5094 -0.1479
38866SOL    HW120003   6.776   4.875   8.436 -0.5333 -0.1940 -0.8177
38866SOL    HW220004   6.888   4.874   8.334  0.6363 -0.4693  0.4513
38867SOL     OW20005   9.655   2.253   4.782 -0.2155 -0.1269  0.3118
38867SOL    HW120006   9.677   2.324   4.721  0.7670 -0.6482  0.0534
38867SOL    HW220007   9.721   2.186   4.765 -1.8267 -1.6083 -0.2789
38868SOL     OW20008   4.381   2.277   3.903  0.5139 -0.0970  0.0742
38868SOL    HW120009   4.448   2.216   3.873  0.8505  0.4641 -0.3212
38868SOL    HW220010   4.336   2.230   3.974  0.3481 -1.0489 -0.6415
38869SOL     OW20011   6.774   7.281   0.808 -0.0059 -0.7758  0.1440
38869SOL    HW120012   6.689   7.243   0.785  0.5523 -1.5261 -0.6808
38869SOL    HW220013   6.836   7.208   0.799  0.9424  0.1150 -0.6131
38870SOL     OW20014   4.649   6.766   8.573 -0.0673  0.4831  0.5483
38870SOL    HW120015   4.707   6.697   8.541 -0.8365  0.0273  0.1272
38870SOL    HW220016   4.582   6.719   8.623 -1.3413  0.7975 -0.8307
38871SOL     OW20017   2.257   6.925   4.242 -0.0152  0.2047  0.3135
38871SOL    HW120018   2.299   6.956   4.322 -0.6771 -0.2228  0.8334
38871SOL    HW220019   2.269   6.830   4.245  0.3998  0.2351 -0.3489
38872SOL     OW20020  10.015   8.122   3.235  0.2422  0.5252  0.2023
38872SOL    HW120021   9.956   8.089   3.303 -0.3895  0.7507 -0.2255
38872SOL    HW220022  10.090   8.158   3.283  1.1168 -1.8486  0.6586
38873SOL     OW20023   7.920  10.531   3.733  0.2775 -0.4204  0.4282
38873SOL    HW120024   7.889  10.445   3.705 -1.3053  0.0921  0.5554
38873SOL    HW220025   7.877  10.593   3.674  1.7804  0.2723  0.0234
38874SOL     OW20026   6.616   5.343   9.570  0.0685  0.2443 -0.5851
38874SOL    HW120027   6.676   5.377   9.504  0.5080  1.2573  0.3277
38874SOL    HW220028   6.568   5.420   9.600  1.1828  0.1054  1.6246
38875SOL     OW20029   1.136   5.743   2.170  0.0215 -0.0667  0.0735
38875SOL    HW120030   1.041   5.737   2.162  0.0483 -0.0639 -0.2368
38875SOL    HW220031   1.169   5.724   2.082  0.3041  0.0110  0.1626
38876SOL     OW20032   0.119   2.489   8.387  0.1673 -0.5783  0.3500
38876SOL    HW120033   0.090   2.501   8.477 -4.0105  1.9378 -1.1789
38876SOL    HW220034   0.177   2.563   8.370 -0.5581  0.0176  0.4372
38877SOL     OW20035   2.511  10.030   4.304 -0.2079  0.1748 -0.2640
38877SOL    HW120036   2.556   9.948   4.286 -0.9053 -0.2093 -0.2803
38877SOL    HW220037   2.422  10.004   4.330 -1.0809  1.0259 -2.3139
38878SOL     OW20038   3.436   3.415   1.150  0.1207 -0.2576 -0.0652
38878SOL    HW120039   3.526   3.385   1.152 -0.5220 -2.1871  0.9744
38878SOL    HW220040   3.384   3.337   1.131 -1.3295  0.8406 -0.7441
38879SOL     OW20041   3.592   7.435   0.724  0.0569 -0.1481  0.2495
38879SOL    HW120042   3.553   7.354   0.758 -0.8135  1.1421  2.4436
38879SOL    HW220043   3.542   7.455   0.645 -1.8763 -0.0313  1.4780
38880SOL     OW20044  10.712   8.342   6.768  0.1626  0.1368 -0.2816
38880SOL    HW120045  10.787   8.385   6.809  0.0973 -0.0973  0.0837
38880SOL    HW220046  10.656   8.414   6.738 -1.6275  0.3617  3.3631
38881SOL     OW20047   6.288   8.026   9.411  0.0685  0.1321  0.0602
38881SOL    HW120048   6.297   8.114   9.447 -0.8732  0.9549 -1.6610
38881SOL    HW220049   6.223   7.983   9.466  1.5155  0.0358  1.7339
38882SOL     OW20050   6.018   7.905   7.347  0.6594  0.3196 -0.2492
38882SOL    HW120051   5.923   7.896   7.345  0.5551  1.2912  0.2138
38882SOL    HW220052   6.051   7.825   7.305 -0.3541 -0.0576 -0.3246
38883SOL     OW20053   3.669   5.353   4.922  0.2221 -0.3154 -0.4341
38883SOL    HW120054   3.596   5.414   4.920 -0.1616 -0.8084 -1.8936
38883SOL    HW220055   3.694   5.349   5.014 -0.3543  1.3082 -0.1879
38884SOL     OW20056   6.914   4.647   5.812  0.4668  0.3385  0.1954
38884SOL    HW120057   6.937   4.567   5.860 -1.4621 -0.3029  0.1071
38884SOL    HW220058   6.889   4.710   5.880 -1.2010 -0.2202  0.1399
38885SOL     OW20059   1.516   9.636   5.955 -0.2272 -0.2179 -0.3857
38885SOL    HW120060   1.492   9.644   6.048  0.8522 -1.7065  0.0424
38885SOL    HW220061   1.518   9.726   5.923 -1.2243  0.2763  0.8714
38886SOL     OW20062   0.541  10.300   6.727 -0.0339 -0.5534  0.2722
38886SOL    HW120063   0.512  10.376   6.777 -0.5434  0.4883 -1.5326
38886SOL    HW220064   0.465  10.242   6.726  0.3367 -1.0798  1.6048
38887SOL     OW20065   1.452   6.731   7.246  0.0484  0.2532 -0.4244
38887SOL    HW120066   1.460   6.657   7.185  0.3050 -0.6795  0.7296
38887SOL    HW220067   1.493   6.804   7.199 -0.5394 -0.2316 -1.7299
38888SOL     OW20068   5.362   5.756   1.237  0.2007 -0.0725 -0.2167
38888SOL    HW120069   5.296   5.706   1.188 -1.4620  0.5497  1.3229
38888SOL    HW220070   5.384   5.700   1.311  0.5487  0.2200 -0.0982
38889SOL     OW20071   1.323   2.325   5.528  0.0348 -0.5231  0.4185
38889SOL    HW120072   1.400   2.288   5.486 -0.2340  0.0831 -0.6226
38889SOL    HW220073   1.332   2.419   5.516 -0.6153 -0.4186  0.7337
38890SOL     OW20074   0.722   4.865   8.466 -0.3610 -0.1993 -0.0738
38890SOL    HW120075   0.759   4.869   8.377 -0.7119 -0.0646 -0.2130
38890SOL    HW220076   0.799   4.865   8.523 -0.1605  0.8506 -0.3341
38891SOL     OW20077   1.054   0.764   3.558  0.4439 -0.0588  0.0739
38891SOL    HW120078   1.044   0.855   3.586 -1.4446 -1.0879  2.9122
38891SOL    HW220079   1.133   0.733   3.603  0.3538 -0.2314  0.1121
38892SOL     OW20080  10.875   8.795   1.627  0.0396  0.2791  0.0029
38892SOL    HW120081  10.827   8.724   1.669  2.8619 -0.3294  2.3513
38892SOL    HW220082  10.838   8.875   1.665 -2.1792  0.0400 -1.5997
38893SOL     OW20083   4.118   0.176  10.494  0.3423  0.2511  0.1175
38893SOL    HW120084   4.169   0.107  10.537  3.0258  1.0547 -1.6083
38893SOL    HW220085   4.065   0.129  10.430 -0.2782 -0.5067  1.1744
38894SOL     OW20086   2.426   7.867   2.982  0.1647  0.5251  0.1485
38894SOL    HW120087   2.421   7.923   2.905 -0.7239  1.3274  0.7782
38894SOL    HW220088   2.504   7.897   3.029  1.1138 -0.4427 -0.8019
38895SOL     OW20089   6.387   5.379   5.254 -0.3650 -0.2571  0.4290
38895SOL    HW120090   6.478   5.394   5.228 -1.1211  0.6794 -1.8627
38895SOL    HW220091   6.373   5.285   5.238  0.0525 -0.3045  0.3261
38896SOL     OW20092   4.684   0.167   0.067  0.5273 -0.5534 -0.1413
38896SOL    HW120093   4.698   0.239   0.128  1.2523 -2.3885  1.9482
38896SOL    HW220094   4.744   0.185  -0.006  1.2880  0.5303  0.7424
38897SOL     OW20095   6.685   2.726   2.527 -0.1762 -0.2889  0.1403
38897SOL    HW120096   6.658   2.790   2.593  0.0395  0.7137 -0.7207
38897SOL    HW220097   6.683   2.775   2.445  0.7918 -1.1757 -0.4173
38898SOL     OW20098   9.213   0.421   3.554  0.3409 -0.2865 -0.1543
38898SOL    HW120099   9.208   0.378   3.639  1.2622 -1.1173 -0.5136
38898SOL    HW220100   9.261   0.502   3.572  0.6715 -0.5347  0.0955
38899SOL     OW20101   7.056   9.971   4.411 -0.6820 -0.2588 -0.8831
38899SOL    HW120102   6.961   9.962   4.421 -0.5933 -1.3303 -1.0238
38899SOL    HW220103   7.091   9.947   4.497 -0.5593  0.5051 -0.7170
38900SOL     OW20104  10.354   7.502   7.784 -0.0302 -0.2204  0.1455
38900SOL    HW120105  10.340   7.447   7.861  1.1957  0.8604  1.1563
38900SOL    HW220106  10.288   7.472   7.721 -0.3430 -1.8420  1.2109
38901SOL     OW20107   7.766   2.117   9.714 -0.2728  0.1314  0.4412
38901SOL    HW120108   7.727   2.039   9.753 -0.8488  0.9978  1.6317
38901SOL    HW220109   7.852   2.125   9.756  0.2078 -0.3965 -0.4045
38902SOL     OW20110   7.069   6.723   4.028  0.0428  0.0622 -0.0402
38902SOL    HW120111   7.123   6.691   3.956  0.8869  0.4569  0.4094
38902SOL    HW220112   7.065   6.818   4.015  2.7711  0.5596  2.1243
38903SOL     OW20113   8.548   7.920  10.557  0.7189  0.0132 -0.0021
38903SOL    HW120114   8.601   7.985  10.511  2.1952 -1.3659 -0.2737
38903SOL    HW220115   8.506   7.970  10.628 -0.1726  1.7738 -1.7286
38904SOL     OW20116   0.701  10.197   3.371 -0.3740  0.1648 -0.3674
38904SOL    HW120117   0.616  10.223   3.406 -0.6854 -2.0078  0.5762
38904SOL    HW220118   0.743  10.279   3.344 -1.8357  1.4632  1.2638
38905SOL     OW20119   8.473   1.392   8.579  0.7868  0.4611  0.6953
38905SOL    HW120120   8.485   1.329   8.651 -0.2756  0.4050  0.8295
38905SOL    HW220121   8.463   1.338   8.501  0.2652  0.4754  0.7524
38906SOL     OW20122   6.222   7.510   7.724  0.5753  0.1059 -0.3809
38906SOL    HW120123   6.195   7.452   7.653 -0.3906 -0.5409  0.5073
38906SOL    HW220124   6.219   7.597   7.686  2.1324 -0.4026 -1.7619
38907SOL     OW20125   9.503   5.179  10.153 -0.0121 -0.0194 -0.1854
38907SOL    HW120126   9.418   5.207  10.186  0.1857 -2.6340  2.7929
38907SOL    HW220127   9.485   5.096  10.108  0.7285  0.2636 -1.0287
38908SOL     OW20128   4.170   8.998   3.665 -0.1094 -0.3765 -0.4265
38908SOL    HW120129   4.246   9.048   3.695  0.1782 -1.0468 -0.0250
38908SOL    HW220130   4.096   9.058   3.676  0.5556  0.8462 -2.3139
38909SOL     OW20131   2.337   8.088   2.765  0.1127  0.0363 -0.1472
38909SOL    HW120132   2.310   8.132   2.684 -0.7578  0.2695  0.2608
38909SOL    HW220133   2.254   8.061   2.806  0.5413  0.0801  0.7534
38910SOL     OW20134   0.417   6.774   6.369  0.0815  0.4278 -0.7188
38910SOL    HW120135   0.463   6.811   6.293 -0.5283 -0.3142 -1.4509
38910SOL    HW220136   0.336   6.738   6.333 -0.1481 -0.0542  0.2671
38911SOL     OW20137   5.066   7.147   5.604 -0.6224  0.7873  0.4947
38911SOL    HW120138   5.150   7.161   5.559 -0.6044  1.1598  0.6367
38911SOL    HW220139   5.090   7.107   5.688 -0.6072  0.6610  0.4301
38912SOL     OW20140   7.810   1.204   8.958  0.1871  0.5795 -0.8054
38912SOL    HW120141   7.799   1.283   9.011 -3.3728  0.0245 -0.5391
38912SOL    HW220142   7.761   1.224   8.877  1.6120 -0.3325 -1.9153
38913SOL     OW20143   8.535   8.951   0.425  0.2098  0.2368 -0.2776
38913SOL    HW120144   8.506   8.968   0.515  1.4339  3.2770 -0.4042
38913SOL    HW220145   8.602   8.883   0.435 -1.2916 -1.1544  0.8095
38914SOL     OW20146   4.669   9.565  10.587 -0.1312  0.3145 -0.6483
38914SOL    HW120147   4.744   9.606  10.544  0.1346  0.4129 -0.1083
38914SOL    HW220148   4.691   9.472  10.589 -1.7483 -0.1658 -3.8648
38915SOL     OW20149   0.421   2.562   8.567 -0.0428  0.2066 -0.0093
38915SOL    HW120150   0.340   2.612   8.560 -0.6481 -0.7593 -0.0039
38915SOL    HW220151   0.459   2.589   8.651 -0.4593  0.5179  0.0814
38916SOL     OW20152   9.779   0.789  10.808  0.1626 -0.1454  0.4787
38916SOL    HW120153   9.865   0.764  10.777 -0.8572 -0.8585 -1.8843
38916SOL    HW220154   9.759   0.726  10.877  0.9476 -0.8292  0.0863
38917SOL     OW20155   6.236  10.658   8.761  0.0931 -0.2320 -0.0645
38917SOL    HW120156   6.269  10.709   8.835  0.7217  1.3388 -1.3931
38917SOL    HW220157   6.271  10.570   8.774  0.3790  0.0919  1.3735
38918SOL     OW20158   9.322   1.174   8.552  0.0149  0.5025 -0.5472
38918SOL    HW120159   9.246   1.119   8.532  0.3958  0.8051 -2.9435
38918SOL    HW220160   9.352   1.206   8.467  2.2918  1.1222  0.4460
38919SOL     OW20161   0.993   9.842   6.588  0.5611 -0.6097  0.5778
38919SOL    HW120162   0.962   9.752   6.575  1.8683 -1.2106  1.4562
38919SOL    HW220163   1.022   9.870   6.501  1.0922 -1.4188  0.4877
38920SOL     OW20164   2.744   3.125   8.499  0.1060 -0.3812 -0.1635
38920SOL    HW120165   2.814   3.092   8.556  0.0475  1.0276  0.7510
38920SOL    HW220166   2.669   3.067   8.518  0.0911  0.0557  1.2116
38921SOL     OW20167   4.493  10.967   8.820 -0.2059  0.0549  0.5673
38921SOL    HW120168   4.445  11.044   8.790 -1.9845 -1.5276 -0.8202
38921SOL    HW220169   4.432  10.922   8.879 -0.4467 -1.8827 -1.0758
38922SOL     OW20170   9.686   0.110   2.236 -0.3258 -0.4567 -0.4218
38922SOL    HW120171   9.673   0.123   2.330  1.7944  2.0337 -0.4243
38922SOL    HW220172   9.598   0.123   2.198 -1.1925 -1.4934  1.1804
38923SOL     OW20173   2.850   3.161   2.261 -0.1533 -0.3391  0.1183
38923SOL    HW120174   2.798   3.231   2.221 -1.0775 -0.5628  0.9115
38923SOL    HW220175   2.790   3.088   2.270  0.5467 -0.9097  0.2110
38924SOL     OW20176   3.275   7.895  10.076 -0.0312  0.4243  0.1505
38924SOL    HW120177   3.326   7.879  10.155  1.2729  1.1922 -0.4947
38924SOL    HW220178   3.262   7.809  10.037  1.9375  0.3303 -0.3472
38925SOL     OW20179  10.151   6.523   0.491 -0.8579 -0.4664  0.0758
38925SOL    HW120180  10.136   6.487   0.578 -2.2168 -0.9586 -0.3512
38925SOL    HW220181  10.245   6.540   0.488 -0.3297 -3.1348  0.6126
38926SOL     OW20182   3.393   6.295   9.910  0.8706 -0.1340  0.2069
38926SOL    HW120183   3.482   6.286   9.944  0.1295 -0.8915  2.0245
38926SOL    HW220184   3.360   6.205   9.904 -0.9309  0.3049  2.8141
38927SOL     OW20185   0.788   8.897   2.959  0.0975 -0.3003  0.3236
38927SOL    HW120186   0.797   8.982   3.002  0.6454  0.2253 -0.8173
38927SOL    HW220187   0.775   8.918   2.867  2.2393 -1.5166 -0.2773
38928SOL     OW20188   7.507   0.039   6.208  0.4782 -0.2270  0.1633
38928SOL    HW120189   7.459  -0.035   6.168  1.5004 -0.8426  0.0600
38928SOL    HW220190   7.585  -0.001   6.246  0.8439  0.7536  0.4549
38929SOL     OW20191   0.267  10.928   5.980  0.5986  0.4954 -0.2133
38929SOL    HW120192   0.232  10.864   5.918 -1.0250  0.2783  0.8990
38929SOL    HW220193   0.298  11.000   5.925 -0.4186  0.1233 -1.2895
38930SOL     OW20194   9.784   7.587  10.371 -0.1765 -0.0510  0.6274
38930SOL    HW120195   9.783   7.591  10.275  1.0156  0.1228  0.6172
38930SOL    HW220196   9.858   7.530  10.392 -0.9255 -0.7508  1.4392
38931SOL     OW20197   8.320  10.583   2.065  0.2832 -0.2893 -0.3258
38931SOL    HW120198   8.285  10.504   2.106  1.2417  0.0416  1.1912
38931SOL    HW220199   8.320  10.564   1.971  0.7591 -2.1902  0.0485
38932SOL     OW20200   8.657   1.771   4.278  0.0599 -0.8809  0.0340
38932SOL    HW120201   8.727   1.761   4.213 -0.9129  1.4278 -1.4330
38932SOL    HW220202   8.579   1.735   4.236 -1.3747  3.8009 -1.6133
38933SOL     OW20203   8.935   3.008   2.161  0.9258 -0.2423 -0.2408
38933SOL    HW120204   8.890   3.091   2.152 -1.5913 -1.5891 -0.5862
38933SOL    HW220205   8.957   3.002   2.254 -0.6508 -0.0576  0.1583
38934SOL     OW20206   2.759   2.863   7.091  0.0654 -0.3885  0.0568
38934SOL    HW120207   2.718   2.801   7.030  1.9201 -0.4208 -1.2211
38934SOL    HW220208   2.695   2.933   7.101 -0.7721 -0.9915 -0.9811
38935SOL     OW20209   7.838   6.524   2.484 -0.3383  0.7196  0.1119
38935SOL    HW120210   7.862   6.437   2.452  1.0108  0.3113  2.1814
38935SOL    HW220211   7.754   6.510   2.528  0.3836  0.2368  1.3651
38936SOL     OW20212   1.955   1.460   6.271  0.0229 -0.5746  0.0710
38936SOL    HW120213   2.036   1.409   6.268 -1.0505 -2.3251  0.0958
38936SOL    HW220214   1.901   1.416   6.336 -1.6397 -0.4917 -1.2159
38937SOL     OW20215   9.021   4.232   9.497 -0.8207  0.3167  0.9662
38937SOL    HW120216   8.953   4.224   9.431 -0.4398  0.3018  0.5744
38937SOL    HW220217   9.001   4.313   9.544  0.6054  1.9046 -1.1034
38938SOL     OW20218   7.513   6.874   7.498 -0.1061  0.0233 -0.3519
38938SOL    HW120219   7.499   6.786   7.533 -1.0744  0.7307  1.0824
38938SOL    HW220220   7.447   6.884   7.430  0.2538 -0.4870 -0.7853
38939SOL     OW20221   2.701   5.307   0.328  0.0334 -0.5347 -0.0305
38939SOL    HW120222   2.733   5.333   0.242  0.3756 -1.0687 -0.0667
38939SOL    HW220223   2.714   5.384   0.383 -0.1849 -0.1943 -0.4541
38940SOL     OW20224   9.378   6.421   5.511 -0.4630 -0.2776 -0.0609
38940SOL    HW120225   9.406   6.469   5.589  0.1634 -1.2132  0.3037
38940SOL    HW220226   9.387   6.483   5.439  2.2660 -0.4257  0.0848
38941SOL     OW20227   0.937   5.645   1.113  0.3375  0.3260  0.4108
38941SOL    HW120228   0.968   5.678   1.197  2.4147  0.4622 -0.3693
38941SOL    HW220229   0.964   5.553   1.112  0.9054  0.5015 -0.3847
38942SOL     OW20230   2.073   9.484   9.251  0.1197  0.0897 -0.2391
38942SOL    HW120231   2.079   9.576   9.224 -0.1734  0.0775 -0.3474
38942SOL    HW220232   1.982   9.472   9.276  0.2781 -0.0369  0.2844
38943SOL     OW20233   6.710   7.601   6.696  1.1079  0.9495 -0.0197
38943SOL    HW120234   6.618   7.616   6.677  0.4473  0.3432  2.4718
38943SOL    HW220235   6.741   7.684   6.732  1.4019  0.9957 -0.3788
38944SOL     OW20236   2.554   3.599   3.946  0.3606 -0.7462  0.1903
38944SOL    HW120237   2.632   3.601   4.001  0.5740  0.3496 -0.1492
38944SOL    HW220238   2.574   3.656   3.873 -1.1372  0.3820  0.6213
38945SOL     OW20239  10.039  10.638  10.084 -0.7164 -0.1934 -0.2780
38945SOL    HW120240  10.010  10.657   9.994 -0.5317  0.9391 -0.1049
38945SOL    HW220241   9.963  10.596  10.125 -0.7940 -0.7428 -0.9724
38946SOL     OW20242   6.897   6.177   2.400 -0.1502  0.4039 -0.5022
38946SOL    HW120243   6.934   6.101   2.356 -0.7336 -0.0788 -0.1659
38946SOL    HW220244   6.823   6.143   2.450 -0.9303  1.3057 -0.9941
38947SOL     OW20245   6.486  10.432   5.914  0.5342 -0.1895 -0.2319
38947SOL    HW120246   6.438  10.393   5.841 -0.7386  0.3305  0.3049
38947SOL    HW220247   6.432  10.412   5.991  0.2203  1.9820  0.1445
38948SOL     OW20248   0.346   7.817   8.427  0.3256  0.5549  0.1012
38948SOL    HW120249   0.378   7.907   8.433  0.7767  0.3888  0.1742
38948SOL    HW220250   0.375   7.776   8.508  1.5699 -0.1225 -0.6680
38949SOL     OW20251   1.917   2.151   8.495 -0.0620 -0.1913  0.3550
38949SOL    HW120252   1.826   2.122   8.491 -0.4997  1.1959  0.0310
38949SOL    HW220253   1.956   2.098   8.565 -1.3571 -0.1296  1.1352
38950SOL     OW20254   9.435   0.044   4.027  0.1193 -0.2026 -0.2173
38950SOL    HW120255   9.377   0.058   3.952  0.9898 -0.2384 -0.9103
38950SOL    HW220256   9.523   0.043   3.989  0.3954 -3.3286  0.3314
38951SOL     OW20257  10.130   4.154   9.106  0.2778  0.4378  0.1745
38951SOL    HW120258  10.145   4.215   9.178  0.1700  0.2124  0.3897
38951SOL    HW220259  10.190   4.081   9.122  0.7969  0.7390 -0.3816
38952SOL     OW20260   0.846   9.893   7.627  0.0908  0.0584  0.8403
38952SOL    HW120261   0.932   9.856   7.645  1.2207  1.3971 -1.4707
38952SOL    HW220262   0.790   9.818   7.611  0.7786 -0.8302  2.5138
38953SOL     OW20263   7.011   0.962   2.209 -0.0335  0.0692  0.2668
38953SOL    HW120264   7.093   0.962   2.159  1.1359 -0.4534  2.1019
38953SOL    HW220265   7.018   1.038   2.267 -0.4424 -0.4798  1.0534
38954SOL     OW20266   4.131   3.284   4.317  0.4243  0.1075  0.1204
38954SOL    HW120267   4.108   3.374   4.339 -0.3427 -0.0556  0.0169
38954SOL    HW220268   4.182   3.253   4.391 -1.4065 -0.1561  1.3131
38955SOL     OW20269  10.706   0.986   1.427  0.1602  0.2809 -0.0723
38955SOL    HW120270  10.623   0.997   1.381  0.7734  0.4186 -1.1572
38955SOL    HW220271  10.768   0.956   1.360  0.7079 -0.9619  0.9783
38956SOL     OW20272   9.745   4.570   8.595  0.2626  0.3362  0.0739
38956SOL    HW120273   9.757   4.558   8.690  1.6984 -0.2946 -0.1645
38956SOL    HW220274   9.662   4.527   8.576  0.0445  0.3147  1.0156
38957SOL     OW20275   8.093   2.731   8.326  0.1990 -0.4798 -0.0002
38957SOL    HW120276   8.111   2.717   8.419  1.9328 -1.2568 -0.4482
38957SOL    HW220277   8.156   2.797   8.299 -0.0411 -0.5485 -0.7351
38958SOL     OW20278   3.624   4.712   6.354  0.0643 -0.1570 -0.1610
38958SOL    HW120279   3.544   4.760   6.373 -0.1488 -0.6921  0.3201
38958SOL    HW220280   3.695   4.772   6.378 -0.1786  0.6011 -1.2965
38959SOL     OW20281   0.049   9.197   8.757  0.3860  0.3980  0.2683
38959SOL    HW120282   0.028   9.129   8.821  2.1889 -0.2896  0.1537
38959SOL    HW220283   0.055   9.150   8.674 -1.0598  1.1504 -0.2751
38960SOL     OW20284   7.452   6.199  10.818 -0.2557  0.7575 -0.1428
38960SOL    HW120285   7.415   6.247  10.892  0.7074  1.7097 -0.2637
38960SOL    HW220286   7.410   6.238  10.741 -0.3311  0.6139 -0.1752
38961SOL     OW20287   7.482   6.153   8.204 -0.6688  0.2016 -0.3430
38961SOL    HW120288   7.420   6.129   8.135  0.7695  0.1910 -1.6618
38961SOL    HW220289   7.567   6.157   8.159  0.1463  1.0665  1.2478
38962SOL     OW20290   0.714   0.648   5.875 -0.4655 -0.3713  0.4624
38962SOL    HW120291   0.714   0.622   5.783 -0.1605 -0.4954  0.4995
38962SOL    HW220292   0.680   0.737   5.874 -0.8059 -0.5023  0.2642
38963SOL     OW20293   5.449   6.838   0.986 -0.4059 -0.3132  0.3463
38963SOL    HW120294   5.492   6.753   0.971  1.0395  0.6902 -1.4261
38963SOL    HW220295   5.393   6.851   0.910 -1.0250  0.1005  0.8661
38964SOL     OW20296   5.945   0.071   5.544  0.4676 -0.1975 -0.3410
38964SOL    HW120297   6.015   0.020   5.504  0.3432 -0.2773 -0.4604
38964SOL    HW220298   5.925   0.139   5.478  0.0346 -0.5326 -0.5611
38965SOL     OW20299   7.820   7.129   2.508  0.2348  0.9335 -0.0229
38965SOL    HW120300   7.785   7.126   2.419 -1.0272  0.7752  0.4546
38965SOL    HW220301   7.777   7.056   2.553 -0.3990  1.9961  1.1460
38966SOL     OW20302  10.479  10.721   9.022 -0.6775  0.3373  0.0747
38966SOL    HW120303  10.537  10.648   9.043 -1.3919 -0.1999  0.1833
38966SOL    HW220304  10.454  10.758   9.106 -0.2398  0.7725  0.0175
38967SOL     OW20305   1.710   0.114   6.389  0.3113  0.2453  0.2060
38967SOL    HW120306   1.675   0.027   6.407  0.9781 -0.0818 -0.0826
38967SOL    HW220307   1.802   0.099   6.367 -0.1756  0.7331 -2.3498
38968SOL     OW20308   8.367   0.910   9.339  0.2442 -0.3448  0.0280
38968SOL    HW120309   8.272   0.919   9.330  0.4770  0.7547 -1.4369
38968SOL    HW220310   8.386   0.824   9.303 -0.3905 -1.3899  2.0573
38969SOL     OW20311   5.616   4.346   5.723  0.8964  0.4280 -0.3484
38969SOL    HW120312   5.592   4.423   5.775 -1.1888 -0.2929 -0.1710
38969SOL    HW220313   5.594   4.371   5.633  0.6512  0.2210 -0.3476
38970SOL     OW20314   1.251   0.392   9.016  0.4709 -0.5179 -0.4969
38970SOL    HW120315   1.238   0.369   9.109  0.3897  0.3717 -0.2794
38970SOL    HW220316   1.253   0.308   8.971 -1.5200 -0.9166  0.0624
38971SOL     OW20317   8.075   3.641   4.128  0.2968 -0.0405  0.5658
38971SOL    HW120318   8.131   3.629   4.051 -0.4519 -2.5416  0.3821
38971SOL    HW220319   8.062   3.553   4.163 -0.7093  0.8820  2.6273
38972SOL     OW20320  10.200   4.477  10.927  0.3032  0.3681 -0.3439
38972SOL    HW120321  10.149   4.416  10.981  0.5150  1.8344  1.5649
38972SOL    HW220322  10.140   4.550  10.911  0.5984  0.4203 -1.2400
38973SOL     OW20323   5.063   9.004   6.990 -0.2050  0.2217  0.2693
38973SOL    HW120324   5.057   9.074   7.054 -2.5441 -0.8716  1.2960
38973SOL    HW220325   5.109   8.934   7.035 -1.2205 -0.2820  0.5439
38974SOL     OW20326   4.443   3.522   5.695 -0.3377  0.4756 -0.5063
38974SOL    HW120327   4.532   3.509   5.662 -0.3752 -0.5828 -0.2185
38974SOL    HW220328   4.453   3.526   5.790 -0.3391  2.5984 -0.5761
38975SOL     OW20329   8.524   5.568   2.575  0.4114  0.4082  0.5830
38975SOL    HW120330   8.499   5.499   2.637  1.7383 -0.3807  0.2600
38975SOL    HW220331   8.501   5.534   2.489 -0.1314  0.9252  0.5147
38976SOL     OW20332   5.861   2.882   2.820 -0.2434 -0.1477  0.1130
38976SOL    HW120333   5.855   2.794   2.859  0.0794 -0.7026 -1.0405
38976SOL    HW220334   5.839   2.942   2.891 -2.0237 -1.2387  0.5257
38977SOL     OW20335   9.853   0.211   1.159  0.0472  0.3336  0.2499
38977SOL    HW120336   9.895   0.277   1.215  0.0011  0.0782  0.5871
38977SOL    HW220337   9.910   0.205   1.083  1.4619 -1.0947  1.3740
38978SOL     OW20338  10.149   3.667   2.745 -0.3793 -0.1628 -0.4664
38978SOL    HW120339  10.191   3.748   2.775  1.3512 -0.4368 -2.0504
38978SOL    HW220340  10.056   3.687   2.744  0.0666  2.0198 -1.3823
38979SOL     OW20341   7.229   2.932   4.042  0.4811  0.0365  0.3449
38979SOL    HW120342   7.143   2.952   4.078  0.1234 -0.2130 -0.3499
38979SOL    HW220343   7.242   2.839   4.062  0.6088  0.0907  0.5038
38980SOL     OW20344   7.949   2.273   9.383 -0.0036  0.1345  0.7128
38980SOL    HW120345   8.043   2.283   9.400  0.1376 -0.3000  0.2027
38980SOL    HW220346   7.934   2.324   9.303 -0.4521  1.2676  1.5135
38981SOL     OW20347   2.558   9.865   5.548  0.5705 -0.1780 -0.0701
38981SOL    HW120348   2.529   9.811   5.475 -1.9557  0.8777  0.1263
38981SOL    HW220349   2.653   9.870   5.537  0.5725 -2.5135 -1.5418
38982SOL     OW20350   8.521   2.373   3.059 -0.0038 -1.0461 -0.8750
38982SOL    HW120351   8.555   2.295   3.103  0.0561 -0.7363 -0.3737
38982SOL    HW220352   8.589   2.439   3.070 -0.9021 -0.3246  0.4317
38983SOL     OW20353   5.613   3.987  10.184  0.5065  0.0910  0.1859
38983SOL    HW120354   5.647   4.065  10.228  0.7231 -0.0211  0.2182
38983SOL    HW220355   5.624   3.916  10.248  1.1776 -0.1464 -0.1916
38984SOL     OW20356   4.762  10.449  10.441  0.2240  0.4897 -0.3850
38984SOL    HW120357   4.824  10.379  10.422  1.0434  1.1527 -0.1783
38984SOL    HW220358   4.749  10.444  10.536 -0.9932 -0.4299 -0.5871
38985SOL     OW20359  10.219   5.685   5.680  1.1414  0.5100 -0.3540
38985SOL    HW120360  10.205   5.777   5.699 -1.9923 -0.0576  0.3604
38985SOL    HW220361  10.246   5.646   5.763  0.8964  0.5213 -0.2667
38986SOL     OW20362   7.943   2.092   5.493 -0.1204 -0.7078 -0.2055
38986SOL    HW120363   7.894   2.032   5.437 -1.3968 -0.8263  1.0058
38986SOL    HW220364   7.898   2.176   5.483 -0.7314 -0.8765  1.1197
38987SOL     OW20365   6.070   8.786   5.629  0.1679  0.0763  0.7099
38987SOL    HW120366   6.152   8.818   5.591  0.4095 -2.1795 -0.7515
38987SOL    HW220367   6.006   8.855   5.610  1.1179  0.6282 -0.5581
38988SOL     OW20368   8.028   0.097   4.017 -0.1626 -0.1640 -0.3287
38988SOL    HW120369   7.997   0.130   4.101  2.1740  2.2815 -0.3425
38988SOL    HW220370   8.062   0.010   4.036  0.9555  0.6313  1.4396
38989SOL     OW20371   7.986   2.987   6.778 -0.2922 -0.6137 -0.2980
38989SOL    HW120372   7.900   3.000   6.818 -0.3121 -1.0726 -0.1854
38989SOL    HW220373   7.994   2.892   6.768  0.3422 -0.5961 -0.0023
38990SOL     OW20374   9.619   3.872   5.503  0.1348  0.1778 -0.0068
38990SOL    HW120375   9.621   3.802   5.437  0.2657  0.8960 -0.7661
38990SOL    HW220376   9.680   3.843   5.570  0.6429 -0.1669 -0.6043
38991SOL     OW20377   5.904   5.919   5.987  0.0256 -0.5860 -0.2622
38991SOL    HW120378   5.910   5.959   5.901 -0.1120  0.9583  0.4358
38991SOL    HW220379   5.907   5.825   5.970 -1.5976 -0.3397 -2.0641
38992SOL     OW20380   1.659   7.365   4.149  0.1169 -0.0245 -0.0013
38992SOL    HW120381   1.667   7.350   4.243 -0.2284 -0.1624  0.0077
38992SOL    HW220382   1.626   7.454   4.141  1.3517  0.4375 -0.0297
38993SOL     OW20383   9.821   7.349  10.021 -0.3513 -0.1609  0.1803
38993SOL    HW120384   9.790   7.439  10.028  3.0760  1.2567 -1.5343
38993SOL    HW220385   9.897   7.345  10.080  2.4694 -0.4367 -3.2666
38994SOL     OW20386   2.492   7.696   7.349  0.2634 -0.0732 -0.1127
38994SOL    HW120387   2.396   7.696   7.353  0.2616 -0.9193 -0.0698
38994SOL    HW220388   2.511   7.710   7.256  0.0923 -0.0759 -0.1498
38995SOL     OW20389   4.515   3.856   8.500 -0.7274  0.0144  0.3831
38995SOL    HW120390   4.453   3.928   8.484 -1.7922 -0.5952  1.7503
38995SOL    HW220391   4.473   3.779   8.462 -0.2760 -0.1951  0.3003
38996SOL     OW20392  10.707   1.136   8.556 -0.1713 -0.3614  0.2250
38996SOL    HW120393  10.638   1.202   8.543  0.3377  0.2962  0.8084
38996SOL    HW220394  10.692   1.104   8.645 -0.2268 -0.8075  0.0521
38997SOL     OW20395   2.677   8.392   5.635 -0.1168 -0.4889 -0.1285
38997SOL    HW120396   2.643   8.478   5.660 -0.0791 -0.7401  0.8278
38997SOL    HW220397   2.693   8.398   5.541  0.6745  0.8266  0.0859
38998SOL     OW20398   6.441   7.101   3.197  0.1519 -0.3995  0.6385
38998SOL    HW120399   6.466   7.193   3.199  1.7964 -0.8293  0.7509
38998SOL    HW220400   6.523   7.054   3.181 -0.4033 -1.9506  2.1983
38999SOL     OW20401   8.898   2.196   5.808 -0.3887 -0.1412  0.2671
38999SOL    HW120402   8.818   2.171   5.763 -0.4358 -0.9187  0.7776
38999SOL    HW220403   8.898   2.146   5.889  1.5578 -1.6382 -0.6087
39000SOL     OW20404   8.975   1.645   1.833 -0.0182 -0.4824 -0.1120
39000SOL    HW120405   8.926   1.638   1.751 -0.5791 -1.2972  0.2911
39000SOL    HW220406   8.915   1.614   1.901  0.3494  0.4289  0.6480
39001SOL     OW20407   9.211   8.448   0.390 -0.1292  0.4054 -0.6567
39001SOL    HW120408   9.274   8.376   0.395 -0.3103  0.2029 -1.1849
39001SOL    HW220409   9.261   8.526   0.413  0.3451  0.2643 -1.1919
39002SOL     OW20410   4.222   1.839   4.719 -0.0892  0.4076 -0.0760
39002SOL    HW120411   4.275   1.830   4.798 -1.0580  1.6502  0.7469
39002SOL    HW220412   4.190   1.751   4.701  2.6711 -0.4611 -0.9079
39003SOL     OW20413   0.237  10.023   7.019  0.5146 -0.3250  0.2569
39003SOL    HW120414   0.149  10.012   6.982  1.1933 -2.7514 -0.6764
39003SOL    HW220415   0.295   9.980   6.956  2.2637  0.2604  1.4485
39004SOL     OW20416   0.812   6.043   0.069  0.0976 -0.3906 -0.2679
39004SOL    HW120417   0.718   6.046   0.051  0.4023  0.1987 -1.8001
39004SOL    HW220418   0.820   6.076   0.158 -1.2061 -1.0833  0.1227
39005SOL     OW20419   7.052   6.996   4.005  0.2821  0.4107  0.0498
39005SOL    HW120420   7.147   6.997   4.016  0.4611  2.1386 -1.3915
39005SOL    HW220421   7.027   7.088   4.003 -1.1392  0.0229 -1.8627
39006SOL     OW20422  10.165   8.322   0.915  0.1737 -0.2674  0.0636
39006SOL    HW120423  10.074   8.315   0.942  0.0067  2.9437  0.5398
39006SOL    HW220424  10.192   8.410   0.943  2.6017 -0.1331 -2.4750
39007SOL     OW20425   8.516   7.054   0.753 -0.2727 -0.1016 -0.4417
39007SOL    HW120426   8.542   7.146   0.754 -1.8294  0.3550 -0.4455
39007SOL    HW220427   8.538   7.023   0.841  0.4845  0.2067 -0.5166
39008SOL     OW20428  10.863   6.325   1.080 -0.3660 -0.1558 -0.4759
39008SOL    HW120429  10.909   6.253   1.038  1.3240  0.4259  0.3416
39008SOL    HW220430  10.796   6.282   1.134  0.5848 -1.1169 -0.0451
39009SOL     OW20431   1.245   6.515   9.305  0.2408 -0.1525 -0.5264
39009SOL    HW120432   1.262   6.433   9.258 -0.6361 -0.0525 -1.0391
39009SOL    HW220433   1.226   6.487   9.395 -0.3024 -0.5375 -0.7554
39010SOL     OW20434   5.863  10.696   3.820 -0.6036  0.0531 -0.3344
39010SOL    HW120435   5.801  10.623   3.824  1.0894 -1.3881  0.0728
39010SOL    HW220436   5.940  10.659   3.779  0.4433  1.4938  0.3181
39011SOL     OW20437   7.870   9.188   1.347 -0.9333 -0.0489  0.3019
39011SOL    HW120438   7.777   9.166   1.339 -0.6054 -1.1388 -0.6922
39011SOL    HW220439   7.916   9.106   1.328  0.2148  0.2897  1.5493
39012SOL     OW20440  10.372  10.675   4.998  0.3891 -0.4070  0.7493
39012SOL    HW120441  10.345  10.612   4.932 -0.2994  0.3726  0.2731
39012SOL    HW220442  10.340  10.639   5.081  1.6750 -1.6283  0.7354
39013SOL     OW20443   6.609   5.846   5.765 -0.3809  0.0741 -0.3833
39013SOL    HW120444   6.583   5.848   5.857 -0.4380  0.7607 -0.4115
39013SOL    HW220445   6.588   5.757   5.736 -1.7212  0.2952 -0.1235
39014SOL     OW20446   5.843   3.937   8.046  0.4543 -0.1443  0.0869
39014SOL    HW120447   5.824   4.030   8.062  0.4439 -0.2569  0.7813
39014SOL    HW220448   5.828   3.895   8.131 -1.4500 -1.0871 -0.6772
39015SOL     OW20449   2.985   0.772   7.186 -0.9061 -0.2582  0.1899
39015SOL    HW120450   2.958   0.688   7.148  0.6312 -1.4085  1.5348
39015SOL    HW220451   3.015   0.749   7.275  0.6057  1.5400  0.1807
39016SOL     OW20452   1.222   5.476   6.271  0.1045 -0.2834 -0.2103
39016SOL    HW120453   1.271   5.411   6.221  0.4462 -1.1921  1.2941
39016SOL    HW220454   1.147   5.428   6.306 -0.0190  0.3053  0.3389
39017SOL     OW20455   3.512   1.973   0.321  0.1344  0.1685  0.4051
39017SOL    HW120456   3.519   1.882   0.293 -2.9125  0.1856 -0.6042
39017SOL    HW220457   3.527   1.971   0.415  0.8850 -1.2561  0.2597
39018SOL     OW20458   9.781   0.677   0.232  0.2426  0.5495 -0.0407
39018SOL    HW120459   9.825   0.746   0.281  2.1247 -0.6964  0.0751
39018SOL    HW220460   9.819   0.595   0.265  0.3417 -0.3942 -2.3447
39019SOL     OW20461   9.209   2.211   9.121 -0.0431  0.5973  0.5049
39019SOL    HW120462   9.126   2.184   9.082 -0.0187  0.7829  0.3200
39019SOL    HW220463   9.185   2.245   9.207 -0.2678  1.3916  0.1430
39020SOL     OW20464   7.810   7.889   6.254 -0.0517  0.2244 -0.0883
39020SOL    HW120465   7.819   7.855   6.343  1.1217  0.9332  0.0773
39020SOL    HW220466   7.743   7.834   6.213  1.8272 -2.2756  0.1559
39021SOL     OW20467   2.826   8.029   5.564 -0.4955 -0.0596  0.4289
39021SOL    HW120468   2.813   7.945   5.608 -2.5322  0.4623  0.8844
39021SOL    HW220469   2.906   8.064   5.602 -0.7577 -0.8640  1.7518
39022SOL     OW20470  10.294   2.690   5.806  0.0341  0.5515  0.3318
39022SOL    HW120471  10.317   2.724   5.719  0.7890  0.1651  0.3789
39022SOL    HW220472  10.363   2.627   5.826 -0.7814 -0.2291  0.7064
39023SOL     OW20473   0.446   6.906  10.336 -0.4287  0.7376  0.1942
39023SOL    HW120474   0.375   6.847  10.360 -1.5452  1.7948 -0.4435
39023SOL    HW220475   0.415   6.993  10.364  0.9314  1.1106  0.5917
39024SOL     OW20476   8.817   2.716   0.592 -0.1063  0.3968 -0.0517
39024SOL    HW120477   8.775   2.636   0.561  0.1609  0.2421 -0.0046
39024SOL    HW220478   8.752   2.755   0.652  0.0762 -0.1710  0.5196
39025SOL     OW20479   1.084   5.559   7.969  0.4582  0.3076 -0.0110
39025SOL    HW120480   1.054   5.477   7.931  2.6965 -0.5581  0.0530
39025SOL    HW220481   1.101   5.616   7.894  0.6372  0.1112 -0.1183
39026SOL     OW20482   1.344   6.060   5.829 -0.5206 -0.1416 -0.0618
39026SOL    HW120483   1.407   6.080   5.760  1.1606 -0.1594  1.4316
39026SOL    HW220484   1.317   5.970   5.813  0.9029 -0.6018  0.0831
39027SOL     OW20485   9.400   2.192   4.898  0.5412 -0.2259  0.6630
39027SOL    HW120486   9.438   2.166   4.982  3.5583  0.2655 -0.5067
39027SOL    HW220487   9.474   2.218   4.845 -1.4225  0.3724 -1.8821
39028SOL     OW20488   6.026   3.851   7.892  0.0052  0.0376  0.4366
39028SOL    HW120489   5.957   3.889   7.946  0.0420  0.4125  0.2210
39028SOL    HW220490   6.100   3.910   7.904  0.6394 -0.9573  1.5271
39029SOL     OW20491   6.905   6.611   8.075  0.2762 -0.5483  0.4504
39029SOL    HW120492   6.887   6.565   8.157  2.4786 -0.5211  0.9590
39029SOL    HW220493   7.000   6.617   8.070  0.1250  0.9084 -1.3155
39030SOL     OW20494   1.310   2.518   7.163  0.9331  0.3722  0.6582
39030SOL    HW120495   1.293   2.424   7.169  0.8913  0.3717  0.5236
39030SOL    HW220496   1.342   2.542   7.250 -1.7678  0.7808  1.5942
39031SOL     OW20497   9.820   5.031   4.475  0.5880 -0.1632 -0.1958
39031SOL    HW120498   9.728   5.030   4.501  0.4518  1.4009 -0.5321
39031SOL    HW220499   9.834   4.947   4.433 -0.5947 -0.5659  0.1866
39032SOL     OW20500   5.939   4.845   5.934 -0.0869  0.7537  0.0960
39032SOL    HW120501   5.894   4.909   5.879 -1.2943  1.2998  1.7006
39032SOL    HW220502   6.032   4.860   5.917 -0.3934  2.2604 -0.2870
39033SOL     OW20503   8.406  10.748   5.349 -0.1053  0.0079  0.1826
39033SOL    HW120504   8.418  10.734   5.443 -0.1272  0.7296  0.2897
39033SOL    HW220505   8.477  10.807   5.324  0.7185 -1.2416 -0.5125
39034SOL     OW20506   5.546   8.388   5.499 -0.4265 -0.2076 -0.0260
39034SOL    HW120507   5.527   8.457   5.435  1.7478  0.6539  0.2128
39034SOL    HW220508   5.503   8.418   5.579 -1.8046 -0.5057 -0.6357
39035SOL     OW20509   0.511   9.171   4.659 -0.6348 -0.1680 -0.5023
39035SOL    HW120510   0.493   9.172   4.753 -0.9663 -0.6944 -0.5576
39035SOL    HW220511   0.606   9.156   4.653 -0.8796 -2.0196 -0.2603
39036SOL     OW20512   7.923   0.457   6.872  0.2475 -0.2250 -0.2410
39036SOL    HW120513   7.901   0.548   6.894  1.9824 -0.1991  1.5335
39036SOL    HW220514   8.011   0.463   6.834 -0.3581 -0.9709 -1.7705
39037SOL     OW20515   2.966   4.416   9.881 -0.1349 -0.0527 -0.1560
39037SOL    HW120516   3.050   4.412   9.926 -0.5337 -3.0811  0.3900
39037SOL    HW220517   2.901   4.412   9.950 -0.7361 -3.0231 -0.8133
39038SOL     OW20518   4.319   2.993   1.253 -0.0804 -0.4177  0.1024
39038SOL    HW120519   4.304   2.951   1.337  2.5648  1.1035  1.3796
39038SOL    HW220520   4.258   3.067   1.251  0.2633 -0.1174  0.9241
39039SOL     OW20521   2.804   0.641   2.223  0.2496 -0.0271 -0.0121
39039SOL    HW120522   2.850   0.724   2.215  0.8118 -0.1820  1.3718
39039SOL    HW220523   2.730   0.648   2.163  0.4903  1.3321 -0.1625
39040SOL     OW20524   3.100   2.769  10.016  0.3124 -0.9297 -0.1651
39040SOL    HW120525   3.109   2.733   9.928  0.7415  2.0367 -1.4233
39040SOL    HW220526   3.062   2.856  10.002 -1.4128 -1.1457  2.7378
39041SOL     OW20527  10.510   6.678   8.678 -0.2050  0.1277  0.4710
39041SOL    HW120528  10.479   6.759   8.717 -0.2009  1.1534 -1.5587
39041SOL    HW220529  10.503   6.693   8.583 -1.0245 -2.5513  0.0508
39042SOL     OW20530   9.339   8.433   8.773  0.1205  0.0352 -0.1963
39042SOL    HW120531   9.367   8.505   8.829  1.2301  0.1077 -0.8402
39042SOL    HW220532   9.263   8.468   8.725 -0.8199 -0.0277  1.2315
39043SOL     OW20533   2.018   2.396   3.070  0.3676  0.4367 -0.1970
39043SOL    HW120534   2.022   2.416   3.164 -0.4355  1.5571 -0.3824
39043SOL    HW220535   2.014   2.301   3.066  1.7343  0.3238  0.8472
39044SOL     OW20536   9.315   8.981   2.195  0.3571  0.3810 -0.0468
39044SOL    HW120537   9.231   8.980   2.149  0.3579  1.3368 -0.0613
39044SOL    HW220538   9.310   9.058   2.252  1.2252  0.4339 -0.0482
39045SOL     OW20539  10.238   0.721   5.451  0.2463 -0.0186  0.9970
39045SOL    HW120540  10.155   0.728   5.404 -0.2202 -0.5895  1.7302
39045SOL    HW220541  10.227   0.646   5.509  0.7123  0.8585  2.2411
39046SOL     OW20542   2.442   7.373   4.461 -0.0757  0.2000 -0.2718
39046SOL    HW120543   2.470   7.464   4.456 -0.0781  0.1029 -2.1630
39046SOL    HW220544   2.350   7.377   4.487  0.0345  0.7131  0.0475
39047SOL     OW20545  10.368   7.750   5.329  0.3849  0.4735  0.5271
39047SOL    HW120546  10.273   7.737   5.332  0.3547  0.6336  0.2373
39047SOL    HW220547  10.396   7.741   5.420  0.1706 -0.1783  0.5376
39048SOL     OW20548   9.126   5.161   6.154 -0.1470  0.4461 -0.1979
39048SOL    HW120549   9.069   5.151   6.230  1.0245  1.1089  0.8016
39048SOL    HW220550   9.199   5.102   6.170 -0.2017  0.1136 -1.1260
39049SOL     OW20551   5.076   8.706   7.308  0.1036 -0.2231  0.3381
39049SOL    HW120552   5.114   8.620   7.328 -2.3067 -1.1357  1.2429
39049SOL    HW220553   5.080   8.753   7.391  0.2062  0.0615  0.1725
39050SOL     OW20554   0.696   9.495   8.863 -0.7525  0.3806  0.2993
39050SOL    HW120555   0.749   9.483   8.784  0.1474  1.3228  0.7575
39050SOL    HW220556   0.748   9.455   8.933 -1.6411 -0.6390  0.4007
39051SOL     OW20557   1.817  10.432   3.375  0.4706 -0.0637 -0.1949
39051SOL    HW120558   1.871  10.508   3.353  1.5821 -0.4130  1.2609
39051SOL    HW220559   1.864  10.357   3.337  0.6472 -0.2914  0.4693
39052SOL     OW20560   1.982   8.690  10.440 -0.4405  1.2528 -0.5447
39052SOL    HW120561   2.062   8.705  10.490  0.0080 -1.1200 -0.5310
39052SOL    HW220562   1.998   8.733  10.356  1.6985 -0.9848 -1.3088
39053SOL     OW20563   4.673   6.718   8.923 -0.4524  0.0481  0.1768
39053SOL    HW120564   4.637   6.681   8.842 -0.0934  1.7162 -0.7599
39053SOL    HW220565   4.767   6.702   8.916 -0.0965  2.4255 -0.9496
39054SOL     OW20566   8.500   1.052   7.966  0.4593  0.4774  0.2006
39054SOL    HW120567   8.486   0.961   7.993 -3.6202  0.5100 -1.4352
39054SOL    HW220568   8.491   1.103   8.046  3.5583 -0.5208  1.2722
39055SOL     OW20569   7.373   4.151   8.477 -0.3472  1.2233  0.7770
39055SOL    HW120570   7.329   4.122   8.397  2.0016 -1.8761  0.5207
39055SOL    HW220571   7.430   4.222   8.448 -0.4263  0.9489 -0.0759
39056SOL     OW20572   6.229   3.521   0.093 -0.0815  0.3821 -0.0174
39056SOL    HW120573   6.134   3.513   0.084 -0.1353  1.5463 -0.5145
39056SOL    HW220574   6.242   3.546   0.185 -0.2656  0.2884  0.0330
39057SOL     OW20575   6.228   1.062   2.152 -0.0876 -0.1305 -0.1813
39057SOL    HW120576   6.277   1.011   2.216 -2.0353 -1.9431 -0.0947
39057SOL    HW220577   6.188   1.133   2.204 -1.0950 -1.1885  0.5181
39058SOL     OW20578   5.866   5.800   3.138 -0.1411 -0.0105  0.0677
39058SOL    HW120579   5.933   5.732   3.134  1.5361  1.5775  0.4794
39058SOL    HW220580   5.860   5.834   3.049 -1.4192 -1.1106 -0.2676
39059SOL     OW20581   6.410   5.397   0.197  0.2914  0.5922  0.0530
39059SOL    HW120582   6.471   5.343   0.147 -2.6287 -2.6605 -0.2380
39059SOL    HW220583   6.430   5.377   0.289 -0.0170 -0.0954 -0.0280
39060SOL     OW20584   3.257   3.037   4.547 -0.3308 -0.6088  0.6980
39060SOL    HW120585   3.249   3.126   4.583  0.8443 -0.3095  0.2352
39060SOL    HW220586   3.226   3.044   4.457 -1.7370 -1.0205  1.1250
39061SOL     OW20587   5.331   3.410   5.104 -0.2104 -0.4891  0.1479
39061SOL    HW120588   5.359   3.331   5.150 -1.1179 -1.1089 -0.3444
39061SOL    HW220589   5.244   3.430   5.140 -1.1095 -1.2210 -1.5654
39062SOL     OW20590   5.112  10.082   0.408 -0.0295 -0.5861  0.3631
39062SOL    HW120591   5.094  10.041   0.493 -0.9285 -0.5287  0.2110
39062SOL    HW220592   5.027  10.083   0.364  0.6644 -1.7588 -1.0571
39063SOL     OW20593   2.972   6.628   9.337  0.3632 -0.1428  0.3940
39063SOL    HW120594   2.957   6.722   9.343 -0.1452 -0.0371 -2.0466
39063SOL    HW220595   2.970   6.597   9.428 -3.9843  1.5098  0.9593
39064SOL     OW20596   1.149   3.971  10.091  0.1089 -0.2642 -0.1824
39064SOL    HW120597   1.153   4.067  10.095 -2.0085 -0.0261 -2.3912
39064SOL    HW220598   1.079   3.948  10.151 -0.0593 -0.3338 -0.4033
39065SOL     OW20599   9.426   9.012   4.656  0.6662 -0.8370 -0.0521
39065SOL    HW120600   9.519   9.019   4.676  0.4099  1.8407  0.4162
39065SOL    HW220601   9.383   9.050   4.733 -0.8225 -2.3561 -0.1176
39066SOL     OW20602   7.346   2.743   0.785  0.2540 -0.3431 -0.3293
39066SOL    HW120603   7.357   2.771   0.876 -1.2891 -0.1920 -0.1790
39066SOL    HW220604   7.435   2.733   0.752  0.8280 -1.0644  1.4008
39067SOL     OW20605   8.540   5.054   0.999  0.2074 -0.2355  0.1297
39067SOL    HW120606   8.514   5.066   0.908 -0.4367 -1.9709  0.0618
39067SOL    HW220607   8.471   4.999   1.037  0.8043 -0.0839  1.4858
39068SOL     OW20608   0.208   7.349   2.138 -0.2166  0.3472  0.1114
39068SOL    HW120609   0.191   7.409   2.065  0.5831  1.2300  0.6393
39068SOL    HW220610   0.285   7.300   2.112  1.2369  2.0168  1.1695
39069SOL     OW20611   5.661   9.770   3.150  0.1045 -0.3256 -0.0612
39069SOL    HW120612   5.712   9.697   3.113  0.2096  0.4545 -1.4692
39069SOL    HW220613   5.728   9.833   3.177 -0.0444 -0.1924 -0.0076
39070SOL     OW20614   8.622  10.444   0.629  0.1656 -0.4172  0.5516
39070SOL    HW120615   8.612  10.526   0.678 -1.4995  1.8369 -3.3128
39070SOL    HW220616   8.533  10.424   0.599  1.1626 -1.4609 -1.8184
39071SOL     OW20617   8.731   7.567   8.652  0.2170  0.3184  0.7267
39071SOL    HW120618   8.757   7.549   8.562  0.4168 -0.8429  1.0014
39071SOL    HW220619   8.812   7.595   8.695  0.7294 -1.8060  1.2075
39072SOL     OW20620   6.844   6.031   1.769  0.3963 -0.0452 -0.1186
39072SOL    HW120621   6.894   5.975   1.709 -1.6189  1.2565 -3.1677
39072SOL    HW220622   6.886   6.116   1.762  0.6658 -0.0778  1.0156
39073SOL     OW20623  10.184   5.681   2.149 -0.1100  0.0823 -0.6681
39073SOL    HW120624  10.112   5.672   2.212  0.6394  1.2292  0.3780
39073SOL    HW220625  10.162   5.760   2.099  0.9218  1.0590  0.3707
39074SOL     OW20626   5.830   2.469  10.555 -0.4075  0.1553  0.3691
39074SOL    HW120627   5.878   2.446  10.475  0.0565 -0.7656  0.9035
39074SOL    HW220628   5.814   2.385  10.598 -0.5553  0.6602  1.3049
39075SOL     OW20629   8.568   7.496   3.149 -0.3354  0.2281  0.5150
39075SOL    HW120630   8.475   7.496   3.172 -0.4736  0.2274 -0.0459
39075SOL    HW220631   8.587   7.405   3.126 -0.4317  0.4245 -0.3303
39076SOL     OW20632   4.103   7.382   8.143  0.0847  0.0050  0.1102
39076SOL    HW120633   4.145   7.306   8.183  1.2059 -0.0311 -1.1156
39076SOL    HW220634   4.141   7.457   8.189  1.9979  0.0069 -1.3964
39077SOL     OW20635   4.328   1.869   2.413  0.4139 -0.2299  0.0211
39077SOL    HW120636   4.294   1.936   2.472 -2.5181 -0.2437 -1.5748
39077SOL    HW220637   4.256   1.807   2.402  1.8537 -1.7267 -1.3691
39078SOL     OW20638   3.314  10.305   2.401  0.1790  0.4702 -0.1652
39078SOL    HW120639   3.380  10.338   2.462 -1.4038  1.2331  1.1902
39078SOL    HW220640   3.348  10.220   2.372  1.2180  0.3419  1.3609
39079SOL     OW20641   1.568   8.699   9.682  0.4710  0.2423  0.1969
39079SOL    HW120642   1.480   8.707   9.717  0.6298  0.9140  0.4512
39079SOL    HW220643   1.617   8.653   9.751 -0.4899 -3.3155 -1.3571
39080SOL     OW20644   8.019   8.546   8.004  0.2158 -0.0690 -0.0853
39080SOL    HW120645   8.067   8.496   8.070 -1.8190 -0.1193  1.4135
39080SOL    HW220646   7.968   8.481   7.957 -0.7100  0.3250  0.3674
39081SOL     OW20647   7.840   2.226   2.596  0.1030 -0.4663 -0.3372
39081SOL    HW120648   7.754   2.266   2.584  0.2593 -0.3456 -1.0734
39081SOL    HW220649   7.861   2.187   2.511  0.5332 -0.9722 -0.0038
39082SOL     OW20650   0.407   4.535   4.123  0.7751  0.2520 -0.2666
39082SOL    HW120651   0.499   4.508   4.122  0.3933 -1.0723 -0.2915
39082SOL    HW220652   0.384   4.541   4.216  0.0560 -2.3529 -0.2453
39083SOL     OW20653   3.657   5.252   3.730  0.2330  0.1468  0.0393
39083SOL    HW120654   3.661   5.320   3.663  0.9323  1.3045  1.2203
39083SOL    HW220655   3.749   5.226   3.742  0.0258 -0.6096 -0.0007
39084SOL     OW20656   3.862   7.871  10.645  0.1611 -0.0231 -0.0204
39084SOL    HW120657   3.893   7.943  10.699  0.2019  0.0284 -0.1118
39084SOL    HW220658   3.821   7.811  10.707  0.1989  0.0396  0.0663
39085SOL     OW20659   2.202   7.742   8.893 -0.5105  0.3360 -0.4444
39085SOL    HW120660   2.245   7.809   8.946 -1.2752  0.7229 -0.3065
39085SOL    HW220661   2.168   7.679   8.957 -0.6066  0.3059 -0.5241
39086SOL     OW20662   1.009   8.330   3.437 -0.0269  0.4284 -0.4260
39086SOL    HW120663   1.013   8.409   3.491  0.4756 -0.7931  1.3457
39086SOL    HW220664   1.060   8.352   3.359 -1.8812  2.6828 -1.0661
39087SOL     OW20665   2.265   1.316   9.327 -0.2683  0.1361  0.3620
39087SOL    HW120666   2.287   1.234   9.370 -1.0455  1.1314  2.7137
39087SOL    HW220667   2.339   1.374   9.345 -0.2258  0.3074 -0.3330
39088SOL     OW20668   1.898   4.810   1.413 -0.6169  0.0281 -0.3332
39088SOL    HW120669   1.878   4.890   1.365 -0.5805  0.5127  0.4463
39088SOL    HW220670   1.964   4.836   1.477  0.0632 -0.8256 -0.6677
39089SOL     OW20671   4.099   2.838   9.368 -0.4364  0.3078  0.1394
39089SOL    HW120672   4.176   2.818   9.421 -0.5651  1.3884  0.7542
39089SOL    HW220673   4.091   2.934   9.373 -3.1737  0.0374  1.9877
39090SOL     OW20674   1.689   5.323   9.985 -0.2505 -0.0381  0.1148
39090SOL    HW120675   1.624   5.254   9.993 -0.1434  0.0619  2.0980
39090SOL    HW220676   1.638   5.402   9.967 -0.4133 -0.5035 -1.5567
39091SOL     OW20677   7.619   5.264   1.570 -0.3293 -0.5837  0.3516
39091SOL    HW120678   7.661   5.218   1.643 -1.9274 -1.5896  0.6527
39091SOL    HW220679   7.688   5.273   1.505  0.1713 -2.8712  0.5393
39092SOL     OW20680   5.585  10.181   8.739 -0.1928  0.1268  0.3266
39092SOL    HW120681   5.606  10.245   8.670 -0.2467  0.5868  0.7325
39092SOL    HW220682   5.616  10.222   8.820  0.4125 -0.6754  0.5072
39093SOL     OW20683   2.026   7.388   4.309 -1.2746  0.5223 -0.3825
39093SOL    HW120684   1.970   7.395   4.231  1.0143  0.3985 -2.1138
39093SOL    HW220685   2.085   7.463   4.302 -0.0445 -0.3569  0.4173
39094SOL     OW20686   2.118   6.943   2.936 -0.1437 -0.6829 -0.0547
39094SOL    HW120687   2.092   6.866   2.885 -0.5367  0.6842 -1.9246
39094SOL    HW220688   2.057   6.944   3.010 -2.1188 -0.4292 -1.6527
39095SOL     OW20689   9.314   7.200   1.733 -0.2099  0.1866  0.2463
39095SOL    HW120690   9.347   7.139   1.799 -0.3850  0.7306  0.8462
39095SOL    HW220691   9.356   7.283   1.754 -1.4995  0.7550  0.6803
39096SOL     OW20692   0.970   0.776   8.673  0.4519  0.0882  0.5423
39096SOL    HW120693   1.020   0.842   8.626  0.2432  0.3254  0.6512
39096SOL    HW220694   0.955   0.706   8.609 -1.0435  1.0317 -0.1699
39097SOL     OW20695   1.238   0.517   0.189 -0.5093 -0.1744 -0.4530
39097SOL    HW120696   1.185   0.518   0.269  1.3382 -0.2028  0.7968
39097SOL    HW220697   1.244   0.608   0.162  0.1556  0.0123  0.3187
39098SOL     OW20698  10.807   1.180   4.332 -0.1888  0.3426 -0.2884
39098SOL    HW120699  10.822   1.268   4.366  1.3631  0.4969 -1.2791
39098SOL    HW220700  10.716   1.181   4.302 -0.0684  1.7618 -0.6714
39099SOL     OW20701   2.702   1.141   5.370  0.2651 -0.2505  0.0769
39099SOL    HW120702   2.764   1.174   5.305  1.5810 -2.1417  0.3409
39099SOL    HW220703   2.625   1.117   5.319  0.8227 -0.5570 -0.6304
39100SOL     OW20704  10.649   9.717   2.434  0.0969  0.0231  0.4109
39100SOL    HW120705  10.718   9.778   2.406  0.3492 -0.3319  0.2622
39100SOL    HW220706  10.618   9.753   2.517  0.0804  0.4888  0.2037
39101SOL     OW20707   1.687   2.540  10.308 -0.0676 -0.0802 -0.1258
39101SOL    HW120708   1.721   2.481  10.241 -0.4500 -1.7423  1.1170
39101SOL    HW220709   1.625   2.486  10.358 -0.3749  1.3624  1.0700
39102SOL     OW20710   6.094   3.890   8.371  0.2414 -0.4785 -0.6948
39102SOL    HW120711   6.033   3.859   8.303 -1.5955  0.3513  0.5579
39102SOL    HW220712   6.134   3.968   8.333 -1.5068  0.5526 -0.4655
39103SOL     OW20713   4.905   3.199   4.203  0.6781  0.4841  0.5908
39103SOL    HW120714   4.926   3.111   4.235 -0.9774 -0.2546 -0.3534
39103SOL    HW220715   4.850   3.236   4.271 -1.4902 -0.4919 -0.5981
39104SOL     OW20716   6.471   1.002   9.850 -0.3149  0.3565 -1.0645
39104SOL    HW120717   6.502   0.935   9.790  1.5488 -0.0015  0.2514
39104SOL    HW220718   6.458   1.079   9.796  1.4706  0.0798 -1.9241
39105SOL     OW20719   9.917   5.458   0.884 -0.0406 -0.4612 -0.0148
39105SOL    HW120720   9.898   5.431   0.975 -2.7185  0.9255 -0.1051
39105SOL    HW220721   9.867   5.538   0.872  1.4434  0.1676 -2.2994
39106SOL     OW20722   5.408   5.082   0.692  0.8123  0.3474  0.1025
39106SOL    HW120723   5.408   5.092   0.597  1.6006  1.2516  0.2027
39106SOL    HW220724   5.318   5.057   0.713  0.2956  1.4717 -0.7398
39107SOL     OW20725   1.227   8.504   6.672 -0.0860 -0.5278 -0.5402
39107SOL    HW120726   1.205   8.517   6.765 -1.1043 -1.4377 -0.6405
39107SOL    HW220727   1.276   8.582   6.648  0.4917 -0.4393  0.8612
39108SOL     OW20728   8.152   3.837   6.312  0.4654  0.3072  0.4520
39108SOL    HW120729   8.188   3.753   6.285  3.4898  2.2380 -1.8587
39108SOL    HW220730   8.186   3.850   6.401  0.6359 -0.5471  0.5168
39109SOL     OW20731   7.698   8.249   5.108  0.4809  0.1568  0.9334
39109SOL    HW120732   7.652   8.206   5.036  0.9998 -1.8679  1.7929
39109SOL    HW220733   7.636   8.315   5.140  0.0065  0.6423 -0.9339
39110SOL     OW20734   3.110   2.022   6.074  0.0525  0.2470  0.2521
39110SOL    HW120735   3.197   2.054   6.100 -0.0747 -0.6337  1.8687
39110SOL    HW220736   3.128   1.962   6.002  0.7807  0.2500  0.4204
39111SOL     OW20737   7.873   1.278   5.593 -0.8339  0.0771 -0.6314
39111SOL    HW120738   7.888   1.335   5.517  0.4428 -1.1793 -1.3492
39111SOL    HW220739   7.908   1.193   5.566  0.0479 -0.2727  1.5404
39112SOL     OW20740   7.188   1.202   0.368  0.4510  0.1956  0.1877
39112SOL    HW120741   7.277   1.168   0.374  0.0670 -0.6633  1.1163
39112SOL    HW220742   7.196   1.281   0.314  1.7784  0.1487  0.3005
39113SOL     OW20743   7.728   4.138   1.711 -0.1754 -0.0730  0.3384
39113SOL    HW120744   7.675   4.121   1.633 -1.7263  3.9347  0.4378
39113SOL    HW220745   7.683   4.090   1.781 -0.3262 -1.4299 -0.6621
39114SOL     OW20746   2.992   5.818   3.215 -0.3189 -0.3475  0.2971
39114SOL    HW120747   3.087   5.816   3.223 -0.4174 -2.0463  1.3783
39114SOL    HW220748   2.970   5.734   3.175 -1.4386 -0.4713  1.1388
39115SOL     OW20749   7.665   5.091   6.951 -0.0764  0.1028 -0.3402
39115SOL    HW120750   7.690   5.183   6.954  0.8824 -0.1415 -0.6039
39115SOL    HW220751   7.744   5.046   6.922 -1.3149 -0.5047 -2.9202
39116SOL     OW20752  10.838   7.355   8.211  0.4831 -0.0564  0.0928
39116SOL    HW120753  10.753   7.368   8.169  0.8179 -0.3616 -0.6922
39116SOL    HW220754  10.890   7.430   8.182  0.5021  0.0913  0.5121
39117SOL     OW20755  10.952   9.248   5.180  0.5318 -0.2934 -0.1392
39117SOL    HW120756  10.964   9.257   5.274 -0.2039 -1.0062  0.0317
39117SOL    HW220757  10.874   9.300   5.160  0.2988 -0.6747 -0.2405
39118SOL     OW20758   6.604   5.012   8.891 -0.2257 -0.1841 -0.7208
39118SOL    HW120759   6.647   5.097   8.884  0.9951 -0.9166 -2.2430
39118SOL    HW220760   6.660   4.961   8.949 -1.9673  0.6475  1.7741
39119SOL     OW20761   9.355  10.279   3.886  0.2071  0.6882 -0.1350
39119SOL    HW120762   9.396  10.338   3.823 -0.2401  0.4341 -0.6691
39119SOL    HW220763   9.426  10.223   3.917  0.7510  1.8830  0.8149
39120SOL     OW20764   6.197   7.343   7.468 -0.2407  0.0418 -0.3385
39120SOL    HW120765   6.175   7.350   7.375  0.0857  0.7379 -0.3645
39120SOL    HW220766   6.268   7.279   7.471  0.1005  0.4035 -0.6265
39121SOL     OW20767   0.863   0.621  10.881 -0.0125  0.1996 -0.7563
39121SOL    HW120768   0.797   0.555  10.861  0.3991  0.1853 -2.1457
39121SOL    HW220769   0.912   0.631  10.799  2.2985 -0.4692  0.4901
39122SOL     OW20770   4.993   2.093   5.542 -0.3002  0.2401 -0.5681
39122SOL    HW120771   5.016   2.111   5.633 -2.0950  1.7589 -0.4019
39122SOL    HW220772   4.974   2.179   5.504 -0.4668 -0.4662 -2.1249
39123SOL     OW20773   5.159   3.632   3.324 -0.3245  0.1631 -0.8318
39123SOL    HW120774   5.092   3.659   3.261 -0.1533  0.5963 -0.8274
39123SOL    HW220775   5.170   3.708   3.382  0.1019  0.0567 -0.7722
39124SOL     OW20776   1.087   3.039   8.819  0.2939  0.1301  0.0383
39124SOL    HW120777   1.079   3.100   8.745 -0.5374 -1.2475 -1.0379
39124SOL    HW220778   1.049   3.086   8.893 -0.1049  1.0151 -0.7177
39125SOL     OW20779   8.615   3.500   6.723 -0.8096 -0.0973  0.8967
39125SOL    HW120780   8.616   3.465   6.634 -0.4527  1.1017  0.4192
39125SOL    HW220781   8.674   3.442   6.772  0.7072  0.5304 -0.1573
39126SOL     OW20782   6.567  10.034   5.767 -0.4121  0.2487  0.6448
39126SOL    HW120783   6.577   9.950   5.723  0.6777  0.4410  0.5074
39126SOL    HW220784   6.657  10.064   5.782 -0.7865  2.2887 -1.0646
39127SOL     OW20785   8.996   5.458   1.324  0.0622  0.9774 -0.4960
39127SOL    HW120786   8.964   5.439   1.412 -1.2643  0.1379 -1.1390
39127SOL    HW220787   8.930   5.516   1.286 -0.0156  0.3459 -1.3519
39128SOL     OW20788   1.283   9.622   5.291  0.2209 -0.7084 -0.3416
39128SOL    HW120789   1.301   9.645   5.382 -1.2397 -2.0027  0.3038
39128SOL    HW220790   1.201   9.573   5.295  0.6674 -1.6550 -2.2418
39129SOL     OW20791   4.985   5.386   5.069 -0.8014  0.1149 -0.6714
39129SOL    HW120792   4.913   5.411   5.127 -0.1287 -1.2028  0.7612
39129SOL    HW220793   5.019   5.304   5.106  1.2026  0.5191 -1.5347
39130SOL     OW20794  10.219  10.727   9.871 -0.4115  0.3760  0.3333
39130SOL    HW120795  10.252  10.662   9.933 -3.3410 -0.1517  1.4236
39130SOL    HW220796  10.186  10.799   9.927 -1.2876  0.7642 -0.6627
39131SOL     OW20797   3.613   1.420   9.564  0.6550 -0.2642  0.2238
39131SOL    HW120798   3.593   1.465   9.646  1.2054  1.2346 -0.4445
39131SOL    HW220799   3.559   1.465   9.499 -2.0952 -3.3761  0.1871
39132SOL     OW20800   8.769   1.693   6.052 -0.6763 -0.6802  0.2820
39132SOL    HW120801   8.816   1.704   5.969 -1.0342  1.1504  0.2876
39132SOL    HW220802   8.681   1.665   6.027 -0.5920 -0.7600  0.0797
39133SOL     OW20803   6.986   1.340   7.016 -0.1186  0.3227  0.1962
39133SOL    HW120804   6.919   1.272   7.011 -0.3866  0.6938 -1.7669
39133SOL    HW220805   6.950   1.404   7.078 -1.8041  0.7085 -1.1307
39134SOL     OW20806   8.232   6.563   4.472 -0.0316 -0.2768  0.1269
39134SOL    HW120807   8.308   6.504   4.471  0.0857 -0.1062 -1.0809
39134SOL    HW220808   8.162   6.511   4.513  0.2258 -1.0561 -0.4093
39135SOL     OW20809   1.607   8.671   8.430  0.3835 -0.1431  0.3096
39135SOL    HW120810   1.561   8.678   8.514 -1.2738 -0.1185 -0.5938
39135SOL    HW220811   1.589   8.754   8.386  2.5920  0.5096  0.5791
39136SOL     OW20812   9.286   0.598   6.270  0.1258 -0.2443  0.0818
39136SOL    HW120813   9.378   0.624   6.269  0.1234 -0.2389 -0.8816
39136SOL    HW220814   9.264   0.589   6.363  0.8855  0.5060  0.3417
39137SOL     OW20815   3.710   4.479   4.268 -0.0078 -0.6397 -0.1741
39137SOL    HW120816   3.786   4.533   4.289 -0.3622 -0.6308  1.1322
39137SOL    HW220817   3.710   4.475   4.173  0.1711  1.4646 -0.3034
39138SOL     OW20818   8.839   3.768   4.345  0.8313  0.0151 -0.3780
39138SOL    HW120819   8.890   3.734   4.419 -0.3339  0.8413  0.8302
39138SOL    HW220820   8.762   3.712   4.341  0.7310  0.1807 -0.7801
39139SOL     OW20821   7.190   1.592   0.890 -0.0150  0.3975 -0.0945
39139SOL    HW120822   7.193   1.606   0.985 -2.1773  1.1715 -0.1163
39139SOL    HW220823   7.194   1.497   0.879 -1.1266  0.2260  0.8654
39140SOL     OW20824   7.753   7.332   5.218 -0.3022 -0.3357 -0.3948
39140SOL    HW120825   7.708   7.393   5.159  0.4202 -0.2528 -0.8724
39140SOL    HW220826   7.686   7.305   5.281 -0.7890  0.4779 -0.5532
39141SOL     OW20827   5.989   5.236   9.699 -0.0783 -0.2021  0.3424
39141SOL    HW120828   6.037   5.265   9.777  1.2977  3.3436 -1.7010
39141SOL    HW220829   6.050   5.178   9.654  0.4075  0.3562  0.2708
39142SOL     OW20830   5.413   7.047   6.219  0.3925  0.1009  0.7972
39142SOL    HW120831   5.373   7.104   6.285  0.6909  1.7485 -0.4165
39142SOL    HW220832   5.507   7.062   6.228  0.4189  0.5425 -0.1734
39143SOL     OW20833   8.530   1.704   3.074 -0.6840 -0.4085  0.0442
39143SOL    HW120834   8.511   1.686   2.982  0.9377 -0.6693 -0.2419
39143SOL    HW220835   8.466   1.772   3.098 -1.5223 -0.7750 -1.0861
39144SOL     OW20836   7.373   6.546   0.195  0.0233 -0.0967  0.0682
39144SOL    HW120837   7.372   6.499   0.112 -0.3933  0.3630 -0.1902
39144SOL    HW220838   7.280   6.558   0.216  0.0972 -2.0383  1.6353
39145SOL     OW20839   1.943   9.670   3.451  0.4521  0.4399 -0.4446
39145SOL    HW120840   1.915   9.736   3.514  1.5206  0.4186  0.0646
39145SOL    HW220841   2.021   9.707   3.409  1.5731 -0.8133  0.4487
39146SOL     OW20842   6.864   3.935   3.491  0.0464  0.3401 -0.6917
39146SOL    HW120843   6.886   3.981   3.409  0.3495  0.5655 -0.4853
39146SOL    HW220844   6.917   3.855   3.489 -1.0365 -0.3656 -1.4012
39147SOL     OW20845   4.667   8.798   0.187 -0.3615 -0.3682 -0.0214
39147SOL    HW120846   4.609   8.799   0.263 -0.2203  0.3411  0.0808
39147SOL    HW220847   4.695   8.889   0.176  1.6520 -0.8764  0.6365
39148SOL     OW20848   2.431   6.536  10.785 -0.2717 -0.5869  0.2440
39148SOL    HW120849   2.347   6.544  10.829 -0.4829 -0.4441 -0.1783
39148SOL    HW220850   2.435   6.612  10.727 -0.2778 -1.0966 -0.4438
39149SOL     OW20851   8.706  10.489   6.561 -0.2069  0.0480  0.6164
39149SOL    HW120852   8.776  10.534   6.514  1.1298  0.2842  2.7709
39149SOL    HW220853   8.679  10.418   6.503  1.5922  0.1759 -0.3890
39150SOL     OW20854   7.374   2.608   3.812  0.5966  0.1049 -0.7588
39150SOL    HW120855   7.296   2.664   3.813  0.9896  0.6538  0.3370
39150SOL    HW220856   7.340   2.519   3.827  0.1492  0.2860 -0.6937
39151SOL     OW20857   7.512  10.499   7.940  0.0767 -0.5395  0.4651
39151SOL    HW120858   7.525  10.493   8.035  0.8030  1.2198  0.4900
39151SOL    HW220859   7.515  10.408   7.910  2.1231 -0.9639  1.8352
39152SOL     OW20860   3.016   8.232   9.717 -0.4318  0.6711 -0.0486
39152SOL    HW120861   2.999   8.292   9.789  1.1378 -0.3729  1.2421
39152SOL    HW220862   3.098   8.263   9.679  0.1497 -0.3491  0.3387
39153SOL     OW20863   9.788   3.809   0.540 -0.0432 -0.4384 -0.8241
39153SOL    HW120864   9.731   3.886   0.538  1.0977  0.5135  1.5676
39153SOL    HW220865   9.729   3.735   0.526 -1.4663  0.7051 -1.0033
39154SOL     OW20866   7.057  10.453   8.789 -0.1853  0.6885  0.0509
39154SOL    HW120867   7.007  10.405   8.723  1.3241  0.1066 -0.7045
39154SOL    HW220868   7.146  10.418   8.782  0.0062  0.6224  2.4117
39155SOL     OW20869   3.834   9.819   9.844  0.5165  0.8177 -0.1378
39155SOL    HW120870   3.928   9.830   9.838  0.5378  1.2083  0.7558
39155SOL    HW220871   3.820   9.725   9.836  0.9086  0.8358 -1.0773
39156SOL     OW20872   5.163   5.480   2.286  0.3860 -0.0739 -0.3330
39156SOL    HW120873   5.243   5.451   2.242 -0.1741 -0.2974 -1.2036
39156SOL    HW220874   5.097   5.416   2.260  0.1264 -0.3974  1.1016
39157SOL     OW20875   2.211   2.008   9.117  0.7814 -0.5745 -0.1183
39157SOL    HW120876   2.288   2.028   9.171 -0.6687 -0.1063  1.8369
39157SOL    HW220877   2.142   1.988   9.180 -1.1029  0.4480 -1.7916
39158SOL     OW20878   8.848   0.959   1.308  0.3284 -0.0160 -0.1791
39158SOL    HW120879   8.759   0.929   1.326  0.8868 -0.6551  1.6350
39158SOL    HW220880   8.869   1.018   1.381  2.5140 -2.3515  1.1722
39159SOL     OW20881   7.430   4.837   0.049  0.5957  0.2577 -0.2057
39159SOL    HW120882   7.438   4.743   0.031  0.5864  0.7201 -2.8635
39159SOL    HW220883   7.336   4.855   0.040  0.5655  0.4812  0.5374
39160SOL     OW20884  10.370   1.422   6.210 -0.2837  0.0068 -0.0195
39160SOL    HW120885  10.434   1.490   6.231 -1.0341  0.9486 -0.8037
39160SOL    HW220886  10.292   1.446   6.259 -0.6176 -0.1898 -0.4590
39161SOL     OW20887   8.926   4.403   3.524 -0.0732  0.4662  0.0370
39161SOL    HW120888   8.958   4.493   3.517 -1.4183  0.8831 -0.9829
39161SOL    HW220889   8.930   4.383   3.617  1.2420  1.1998  0.1530
39162SOL     OW20890  10.189   1.997   3.475  0.0800 -0.4020 -0.3864
39162SOL    HW120891  10.127   2.065   3.501 -1.1208 -0.9892 -1.6900
39162SOL    HW220892  10.136   1.917   3.469  0.4182 -0.4071 -4.0763
39163SOL     OW20893   4.124   3.030   7.120  0.1127  0.3686 -0.7374
39163SOL    HW120894   4.178   3.049   7.044  1.2344 -2.0317 -0.5931
39163SOL    HW220895   4.073   2.952   7.095 -1.5004  1.1518 -0.0048
39164SOL     OW20896   6.431   3.831   8.378  0.2204  0.1005 -0.6221
39164SOL    HW120897   6.398   3.741   8.374  1.4482 -0.3679 -0.4742
39164SOL    HW220898   6.387   3.877   8.306 -1.4185 -0.2729  0.1178
39165SOL     OW20899   0.489   5.016   8.478  0.6406 -0.1601  0.0842
39165SOL    HW120900   0.572   4.968   8.479  0.8452  0.1851 -0.1039
39165SOL    HW220901   0.509   5.097   8.431 -0.7464 -1.7406 -3.3938
39166SOL     OW20902   2.345   6.842   3.441 -0.1054  0.7095  0.1330
39166SOL    HW120903   2.304   6.928   3.455  0.4377  0.9679  0.1366
39166SOL    HW220904   2.429   6.847   3.486 -0.4111 -0.1060  0.8120
39167SOL     OW20905   8.888   5.766   3.859 -0.1050 -0.2210  0.0567
39167SOL    HW120906   8.889   5.674   3.835  0.1956 -0.2154  0.0554
39167SOL    HW220907   8.799   5.795   3.839 -0.4751 -0.7403  0.9139
39168SOL     OW20908   3.056   9.431   7.714 -0.2806  0.1555  0.1035
39168SOL    HW120909   3.100   9.503   7.760 -1.1737  0.5479  0.3558
39168SOL    HW220910   3.011   9.382   7.783 -1.4978  0.6539 -0.3235
39169SOL     OW20911   9.513   4.768   4.701 -0.4243 -0.5649  0.0569
39169SOL    HW120912   9.573   4.814   4.760 -1.3694  0.2482  0.4028
39169SOL    HW220913   9.522   4.676   4.724  1.0284 -0.5088 -0.2080
39170SOL     OW20914   9.121   8.489   8.054 -0.3103  0.2966 -0.1021
39170SOL    HW120915   9.030   8.459   8.053 -0.8970  1.9913  0.5208
39170SOL    HW220916   9.148   8.482   8.146 -0.4081  1.5067  0.0240
39171SOL     OW20917   2.263   2.308   0.921  0.2622 -0.0447 -0.1077
39171SOL    HW120918   2.254   2.231   0.977  1.0874  1.1909  1.8179
39171SOL    HW220919   2.356   2.332   0.929  0.8701 -0.9506 -3.5966
39172SOL     OW20920   4.102   1.023   3.073 -0.2161  0.3719  0.8352
39172SOL    HW120921   4.111   1.092   3.139 -2.5597  1.0668  0.4885
39172SOL    HW220922   4.091   0.943   3.124  2.5560  0.2061  1.2426
39173SOL     OW20923  10.624   0.237   4.225  0.0203  0.4039  0.5274
39173SOL    HW120924  10.658   0.325   4.241  1.7212 -0.0616 -0.3951
39173SOL    HW220925  10.695   0.179   4.251 -1.0051 -0.6899  0.9107
39174SOL     OW20926  10.086   7.125   0.749  0.5741 -0.0080 -0.1461
39174SOL    HW120927   9.998   7.090   0.731  0.5145 -0.2660  0.6256
39174SOL    HW220928  10.109   7.173   0.669  0.7836 -2.0656 -1.3344
39175SOL     OW20929   2.274   3.027   7.744  0.0596 -0.3569 -0.3773
39175SOL    HW120930   2.183   3.056   7.736  0.0130 -0.6113 -0.7554
39175SOL    HW220931   2.324   3.107   7.759 -0.4518 -0.3909  1.7039
39176SOL     OW20932   9.565   8.887   3.920  0.3412 -0.4549 -0.6937
39176SOL    HW120933   9.498   8.825   3.951  0.0528 -0.7912 -1.9643
39176SOL    HW220934   9.568   8.873   3.825  2.2899 -0.5270 -0.6394
39177SOL     OW20935   6.498   8.407   8.762 -0.1425  0.3521 -0.0174
39177SOL    HW120936   6.459   8.470   8.822 -1.5876  0.5224 -1.1031
39177SOL    HW220937   6.425   8.356   8.729  0.8520 -0.9761 -0.2232
39178SOL     OW20938   1.151  10.256   2.333 -0.2767 -0.3590 -0.1789
39178SOL    HW120939   1.062  10.244   2.365 -0.1696 -0.4205  0.1029
39178SOL    HW220940   1.162  10.351   2.327 -0.5596 -0.3658 -0.7847
39179SOL     OW20941   5.031   5.606   1.786 -0.4557 -0.3123 -0.5791
39179SOL    HW120942   4.999   5.687   1.826 -1.7380 -0.8903 -0.4213
39179SOL    HW220943   5.124   5.602   1.810 -1.5123 -1.4527  3.7000
39180SOL     OW20944  10.454   8.305   1.412 -0.0974 -0.0751 -0.2945
39180SOL    HW120945  10.445   8.400   1.421  0.1594 -0.1720  1.1115
39180SOL    HW220946  10.458   8.273   1.502  1.8785 -1.2227 -0.7666
39181SOL     OW20947   8.817  10.095   5.760 -0.5744  0.1916  0.2206
39181SOL    HW120948   8.814  10.124   5.852 -0.3551  1.3448 -0.1253
39181SOL    HW220949   8.781  10.169   5.711 -0.2752 -0.2509 -0.6670
39182SOL     OW20950   7.626   5.183   0.279 -0.1667  0.6107  0.0992
39182SOL    HW120951   7.636   5.208   0.371 -2.1547  0.1548  0.4677
39182SOL    HW220952   7.611   5.088   0.281  0.0737  0.5531 -0.7101
39183SOL     OW20953   0.544  10.403   7.264  0.1886 -0.0297  0.0014
39183SOL    HW120954   0.488  10.454   7.322  0.6940  1.4482 -0.7955
39183SOL    HW220955   0.505  10.315   7.265 -0.8300  0.4162  1.1839
39184SOL     OW20956   6.602   9.593   9.413  0.1320  0.2601  0.0886
39184SOL    HW120957   6.560   9.602   9.327  2.3119 -3.2810 -1.4719
39184SOL    HW220958   6.662   9.667   9.418 -1.1031  1.3529 -0.7404
39185SOL     OW20959   5.403   1.043   2.865  0.2278 -0.7318 -0.8766
39185SOL    HW120960   5.339   1.067   2.932 -0.6094 -0.5531 -1.7359
39185SOL    HW220961   5.461   1.119   2.860  1.5581 -1.5803  1.1306
39186SOL     OW20962   9.525   6.996  10.734  0.0612  0.2682  0.2021
39186SOL    HW120963   9.601   7.052  10.720  1.3876 -2.3057 -3.5301
39186SOL    HW220964   9.558   6.921  10.783 -0.0757 -0.7656 -1.2616
39187SOL     OW20965   7.892   0.227   0.155  0.5812  0.2580  0.0299
39187SOL    HW120966   7.900   0.138   0.122 -0.6870 -0.0843  0.6134
39187SOL    HW220967   7.801   0.234   0.185  0.4561  1.9606 -0.6516
39188SOL     OW20968  10.974   1.547   8.707 -0.5202 -0.3206  0.0052
39188SOL    HW120969  10.880   1.548   8.721 -0.4571 -0.3506  0.4676
39188SOL    HW220970  10.994   1.457   8.681 -0.8093  0.0512 -1.5069
39189SOL     OW20971   6.239   3.823   3.443  0.4074 -0.2731 -0.0947
39189SOL    HW120972   6.166   3.884   3.450  0.3999 -0.2931  0.0050
39189SOL    HW220973   6.287   3.834   3.525  1.2375  0.6615 -0.6997
39190SOL     OW20974  10.961   1.353   0.650 -0.7376  0.1559  0.3225
39190SOL    HW120975  10.980   1.365   0.743 -0.3331  0.6558  0.1789
39190SOL    HW220976  11.000   1.269   0.627 -0.1154  0.4225  0.4119
39191SOL     OW20977   0.081  10.421   7.182 -0.1569  0.4375  0.0824
39191SOL    HW120978   0.085  10.370   7.264 -2.1632  2.1493  1.2911
39191SOL    HW220979   0.094  10.356   7.113 -0.4527 -1.3736  1.6891
39192SOL     OW20980   3.190   9.770  10.833  0.0098 -0.1273  0.6700
39192SOL    HW120981   3.247   9.821  10.891  0.2310 -1.4776  1.6861
39192SOL    HW220982   3.115   9.827  10.816  1.0914  1.1945  0.3219
39193SOL     OW20983   1.572   2.857   0.239 -0.1538 -0.2847  0.0327
39193SOL    HW120984   1.640   2.879   0.175 -0.7419  2.8772  0.4319
39193SOL    HW220985   1.509   2.929   0.233 -0.8901 -0.6060  3.2347
39194SOL     OW20986   7.085   4.503   2.737 -0.1530  0.6476 -0.5593
39194SOL    HW120987   7.129   4.499   2.652 -0.0247  1.8001 -0.5569
39194SOL    HW220988   7.044   4.589   2.738  0.1026  0.7581  0.6832
39195SOL     OW20989   8.662   8.856   6.353 -0.1336 -0.1048 -0.0903
39195SOL    HW120990   8.671   8.866   6.259 -0.1124  2.7224  0.1953
39195SOL    HW220991   8.584   8.802   6.364  0.3240 -1.1365 -1.7278
39196SOL     OW20992   9.432   3.440  10.974 -0.2903 -0.0426  0.0158
39196SOL    HW120993   9.386   3.488  11.043  0.8958 -0.2721  0.9786
39196SOL    HW220994   9.470   3.364  11.018  1.9313  0.7209 -0.5195
39197SOL     OW20995  10.973   5.522   0.537 -0.5633  0.6072 -0.4206
39197SOL    HW120996  10.915   5.449   0.561 -2.2161  2.0272  0.0069
39197SOL    HW220997  11.025   5.538   0.616 -2.6991  2.1884  0.7138
39198SOL     OW20998   7.060   1.139   7.797 -0.1847  0.6270 -0.0739
39198SOL    HW120999   7.147   1.161   7.766  0.0309 -0.1787 -0.0522
39198SOL    HW221000   7.001   1.168   7.728  0.1890  0.0991 -0.6220
39199SOL     OW21001   7.562   3.824   1.607  0.5375 -0.6745  0.0195
39199SOL    HW121002   7.532   3.906   1.566  2.4360  0.7930  1.5069
39199SOL    HW221003   7.485   3.792   1.653  0.4061  1.6030  1.4801
39200SOL     OW21004   2.122   5.304   8.408  0.5050  0.3471 -0.7336
39200SOL    HW121005   2.102   5.380   8.353 -0.2828  1.7358  1.3915
39200SOL    HW221006   2.217   5.295   8.403  0.5223  0.9210 -1.7031
39201SOL     OW21007   8.907   7.426   4.710  0.3009 -0.6777  0.4337
39201SOL    HW121008   8.920   7.339   4.674  0.4027  0.1411 -1.5704
39201SOL    HW221009   8.928   7.486   4.638 -3.0724  0.9224  0.6604
39202SOL     OW21010   1.165   1.148  10.744 -0.5198 -0.0144  0.6818
39202SOL    HW121011   1.140   1.061  10.774 -0.9074  0.0502  0.5446
39202SOL    HW221012   1.212   1.133  10.662  0.6277 -0.2010  1.3637
39203SOL     OW21013   7.379   8.073   8.673  0.3868 -0.1832  0.0624
39203SOL    HW121014   7.358   7.987   8.709  0.0376 -0.1937 -0.1694
39203SOL    HW221015   7.437   8.055   8.599 -1.2577 -0.3398 -1.2010
39204SOL     OW21016   5.524   9.910   9.553 -0.4385 -0.2620 -0.0174
39204SOL    HW121017   5.565   9.824   9.552 -1.6144 -0.8322 -0.0038
39204SOL    HW221018   5.460   9.907   9.482  1.0619  1.3785 -1.5054
39205SOL     OW21019   9.690   0.382   8.460  0.2497  0.0063 -0.3455
39205SOL    HW121020   9.625   0.437   8.503  2.2270  0.7393  1.8182
39205SOL    HW221021   9.740   0.442   8.405 -0.1982 -0.3535 -1.1474
39206SOL     OW21022   0.761   5.535   0.937  0.4825 -0.1856  0.1757
39206SOL    HW121023   0.824   5.519   0.866 -0.5409  1.7640 -1.2164
39206SOL    HW221024   0.800   5.606   0.988  0.3338 -0.3046  0.4536
39207SOL     OW21025   0.945   6.842   5.328  0.3002 -0.2381 -0.0255
39207SOL    HW121026   0.999   6.765   5.342 -0.4939 -0.9186 -0.6466
39207SOL    HW221027   0.974   6.905   5.394  0.9033 -1.0932  0.5243
39208SOL     OW21028   3.890   7.916   2.112 -0.1057 -0.0906  0.3999
39208SOL    HW121029   3.923   7.990   2.060 -1.7745  1.2265  1.1826
39208SOL    HW221030   3.886   7.843   2.049 -1.7020  1.3695 -1.2351
39209SOL     OW21031   1.458   9.519   3.032  0.4077 -0.3868  0.4552
39209SOL    HW121032   1.378   9.545   2.987  0.1571 -0.3588  0.9141
39209SOL    HW221033   1.526   9.576   2.996  0.0965  0.0425  0.5542
39210SOL     OW21034   7.641   3.077   0.175 -1.0514 -0.4184  0.2853
39210SOL    HW121035   7.623   3.171   0.170  0.3727  0.0600  3.2095
39210SOL    HW221036   7.648   3.050   0.084 -1.1807  2.3754 -0.6221
39211SOL     OW21037   3.653   0.160   0.381  0.6344  0.0802  0.2360
39211SOL    HW121038   3.674   0.250   0.356 -0.0587  0.2061  0.0834
39211SOL    HW221039   3.559   0.162   0.400  0.8991 -0.2789  1.6677
39212SOL     OW21040   4.233   3.875   2.575 -0.8453 -0.1639  0.2384
39212SOL    HW121041   4.142   3.887   2.550 -1.3325 -1.0314  1.5465
39212SOL    HW221042   4.231   3.808   2.644  0.5451  1.3568  1.8116
39213SOL     OW21043  10.063   5.407   5.636 -0.3457  0.1072  0.0535
39213SOL    HW121044  10.084   5.494   5.601  0.6681 -0.9733 -2.1166
39213SOL    HW221045   9.968   5.399   5.623 -0.3658  0.6995 -0.1879
39214SOL     OW21046   5.671   0.691   9.786  0.1527 -0.2901 -0.6799
39214SOL    HW121047   5.589   0.665   9.746  0.3309 -0.7911 -0.7191
39214SOL    HW221048   5.671   0.787   9.781 -0.9335 -0.2291  0.3354
39215SOL     OW21049   3.216   1.489   5.047 -0.4783 -0.3729  0.3238
39215SOL    HW121050   3.296   1.505   4.998 -0.8061  3.2679  0.8540
39215SOL    HW221051   3.233   1.523   5.135 -2.7209  0.8643  0.3284
39216SOL     OW21052   4.244   6.043  10.566  0.8963 -0.4525  0.1425
39216SOL    HW121053   4.259   6.031  10.473  1.8179  0.3382  0.1770
39216SOL    HW221054   4.188   5.970  10.592  1.3034 -1.1228 -0.8620
39217SOL     OW21055   9.968   7.765   9.292  0.1570 -0.2623  0.4161
39217SOL    HW121056   9.907   7.693   9.311 -0.5534  0.5948  1.4300
39217SOL    HW221057  10.001   7.792   9.378  0.0058  0.9845  0.0962
39218SOL     OW21058   6.821   7.161   3.344 -0.3017 -0.1020  0.4053
39218SOL    HW121059   6.907   7.149   3.384 -0.2597 -2.7823 -0.4116
39218SOL    HW221060   6.768   7.202   3.413  2.0040  3.0841  0.4052
39219SOL     OW21061   0.471   0.257   7.998  0.1131  0.5126 -0.3587
39219SOL    HW121062   0.382   0.288   7.981 -0.2759 -0.9087 -0.9660
39219SOL    HW221063   0.461   0.185   8.060  0.6848 -0.6377 -1.5635
39220SOL     OW21064   1.456   9.953   6.883  0.6240 -0.3683 -0.4339
39220SOL    HW121065   1.451   9.957   6.788  1.3413  0.3639 -0.4460
39220SOL    HW221066   1.422   9.866   6.905  0.4109 -0.5238 -1.3467
39221SOL     OW21067   5.663   6.588   8.367  0.1056 -0.3051  0.0135
39221SOL    HW121068   5.753   6.554   8.369  0.6907  1.1926  1.0716
39221SOL    HW221069   5.646   6.606   8.275  2.4412  3.1634  0.1502
39222SOL     OW21070   7.737  10.376   2.056  0.1916 -0.0168  0.3203
39222SOL    HW121071   7.772  10.372   1.967 -0.3244 -0.9466  0.1506
39222SOL    HW221072   7.795  10.319   2.107  1.1740  1.4187  0.8230
39223SOL     OW21073   9.589  10.293   5.344 -0.0229 -0.3532  0.1059
39223SOL    HW121074   9.633  10.236   5.281 -0.5521  0.1390 -0.7187
39223SOL    HW221075   9.496  10.270   5.337 -0.3446  1.1531 -0.8305
39224SOL     OW21076   0.129   9.006   4.652  0.0258  0.5261  0.1723
39224SOL    HW121077   0.098   9.095   4.636  0.0018  0.4208 -0.3620
39224SOL    HW221078   0.147   8.970   4.565 -0.3359 -0.1232  0.3579
39225SOL     OW21079   5.847   2.388   0.648 -0.0626  0.3640 -0.3256
39225SOL    HW121080   5.772   2.404   0.706 -0.1530  0.2511 -0.4114
39225SOL    HW221081   5.921   2.382   0.707 -0.3914 -1.3887 -0.0600
39226SOL     OW21082   7.380   6.707  10.898  0.5868  0.3051 -0.0930
39226SOL    HW121083   7.442   6.722  10.969  1.8076 -3.7340 -0.1860
39226SOL    HW221084   7.432   6.716  10.818  0.5697 -0.7292 -0.2370
39227SOL     OW21085   6.685   2.713   7.347 -0.1250 -0.0278 -0.3812
39227SOL    HW121086   6.758   2.774   7.358 -0.0970 -0.1849  0.3290
39227SOL    HW221087   6.608   2.763   7.373 -0.1861 -0.0639 -0.4946
39228SOL     OW21088   7.763   6.277   6.810  0.0329  0.1966  0.4146
39228SOL    HW121089   7.804   6.358   6.837 -1.6531  1.1218  0.3122
39228SOL    HW221090   7.831   6.230   6.762  1.4732  0.8604  1.7802
39229SOL     OW21091   9.353   0.178   9.065 -0.2860 -0.6427 -0.6160
39229SOL    HW121092   9.265   0.216   9.071  0.7464  2.1024 -2.1128
39229SOL    HW221093   9.362   0.153   8.973  1.3907  1.3999 -1.0342
39230SOL     OW21094   2.128  10.250   3.695 -0.5876 -0.1358  0.1389
39230SOL    HW121095   2.089  10.336   3.708 -0.5489 -0.0745 -0.1381
39230SOL    HW221096   2.200  10.266   3.633 -0.2954 -0.2900  0.4357
39231SOL     OW21097   1.608   3.720   5.277  0.0541 -0.2146 -0.8316
39231SOL    HW121098   1.587   3.671   5.197 -1.7377 -1.9748  0.6404
39231SOL    HW221099   1.703   3.726   5.277  0.3282 -3.4249 -1.2947
39232SOL     OW21100   4.301   4.666   8.683 -0.2257 -0.0860 -0.2523
39232SOL    HW121101   4.252   4.653   8.764 -1.2179  0.1606 -0.8048
39232SOL    HW221102   4.346   4.583   8.668 -0.5514 -0.3423  0.1980
39233SOL     OW21103   6.335   4.165   7.282 -0.1882  0.8148  0.1408
39233SOL    HW121104   6.417   4.183   7.327  0.7527 -0.1695 -1.1601
39233SOL    HW221105   6.347   4.200   7.194 -0.7577 -0.2877 -0.3898
39234SOL     OW21106   6.803   8.899   6.793 -0.4594 -0.7164  0.2863
39234SOL    HW121107   6.810   8.995   6.801 -2.0897 -0.3805 -1.7753
39234SOL    HW221108   6.877   8.874   6.738  0.7917 -0.8454  1.9967
39235SOL     OW21109   1.710   5.226   2.457 -0.1910  0.0955  0.3873
39235SOL    HW121110   1.797   5.195   2.483  0.2088  1.4401  0.6939
39235SOL    HW221111   1.723   5.264   2.370 -0.2605  1.1500  0.8245
39236SOL     OW21112   8.587   1.283   1.767 -0.0338 -0.2997 -0.3085
39236SOL    HW121113   8.576   1.211   1.705  1.3794 -0.1483 -0.7565
39236SOL    HW221114   8.606   1.359   1.712 -0.2641  0.1480  0.2265
39237SOL     OW21115   9.793   9.030   8.542  1.2823  0.0764 -0.3105
39237SOL    HW121116   9.717   9.046   8.486 -0.9074 -2.8357  1.6271
39237SOL    HW221117   9.842   8.961   8.497 -0.8107 -2.7119  1.4857
39238SOL     OW21118   8.907   0.724   0.404 -0.3828 -0.0626 -0.6074
39238SOL    HW121119   8.859   0.743   0.323  0.2191  0.4355 -0.8454
39238SOL    HW221120   8.995   0.702   0.375 -0.0761  0.4466 -0.0605
39239SOL     OW21121   8.212   1.775   4.890  0.0465  0.4827  0.1417
39239SOL    HW121122   8.296   1.763   4.847 -0.2563 -0.3884 -0.2244
39239SOL    HW221123   8.201   1.870   4.895  0.7114  0.5958 -0.4678
39240SOL     OW21124   6.741   0.578   1.243  0.3161 -0.0400  0.0365
39240SOL    HW121125   6.653   0.606   1.217 -0.3639 -1.3542  0.8087
39240SOL    HW221126   6.781   0.546   1.162 -0.2372 -0.2019 -0.1793
39241SOL     OW21127   2.191   4.013   4.874 -0.0597  0.2530 -0.3097
39241SOL    HW121128   2.154   3.962   4.945 -0.2258 -1.2864 -1.4800
39241SOL    HW221129   2.277   4.039   4.905  0.1311 -0.9640  0.1886
39242SOL     OW21130   7.281   0.258   8.585  0.0459 -0.1091  0.1757
39242SOL    HW121131   7.260   0.252   8.492  2.5450 -0.7538 -0.3884
39242SOL    HW221132   7.220   0.197   8.627 -1.3341  0.4479 -0.9926
39243SOL     OW21133   9.793   2.753   4.946  0.1464  0.2177 -0.4899
39243SOL    HW121134   9.816   2.753   4.853  1.6296  1.1231 -0.1450
39243SOL    HW221135   9.860   2.807   4.987 -0.5140 -0.1459  1.1114
39244SOL     OW21136   1.995   4.856   8.909  0.6572 -0.3932  0.5204
39244SOL    HW121137   2.052   4.922   8.948 -0.2062  0.0712  1.0188
39244SOL    HW221138   2.032   4.772   8.935  1.3294 -0.0992  0.5102
39245SOL     OW21139   1.374  10.750   5.513  0.4172  0.3957  0.1940
39245SOL    HW121140   1.430  10.828   5.509 -0.8586  1.4513  1.7401
39245SOL    HW221141   1.290  10.784   5.547 -0.6904 -1.3753 -0.7189
39246SOL     OW21142   8.216   2.697   8.566  0.0188 -0.0331  0.0079
39246SOL    HW121143   8.311   2.705   8.552 -0.4561  1.3677 -2.8600
39246SOL    HW221144   8.207   2.623   8.625  2.9341 -0.0149  0.5758
39247SOL     OW21145   1.081   9.635   0.608 -0.2096 -0.5017  0.3832
39247SOL    HW121146   1.004   9.619   0.553 -1.4371  0.4489  1.7852
39247SOL    HW221147   1.151   9.654   0.545 -1.6526  0.8450 -0.8704
39248SOL     OW21148   1.342   7.504  10.584 -0.3402 -0.4181  0.2112
39248SOL    HW121149   1.417   7.540  10.536 -1.3847 -0.5419 -1.5720
39248SOL    HW221150   1.380   7.466  10.663  1.4618 -0.3633 -0.6048
39249SOL     OW21151   2.511   5.506   1.444 -0.0736 -0.0997 -0.0282
39249SOL    HW121152   2.539   5.535   1.530  3.4262  2.8248 -2.0329
39249SOL    HW221153   2.502   5.586   1.393 -1.9611 -1.7645 -2.4563
39250SOL     OW21154   2.588   1.176   7.762 -0.0206 -0.5279 -0.4741
39250SOL    HW121155   2.606   1.198   7.671  0.0993  0.0077 -0.3203
39250SOL    HW221156   2.560   1.084   7.759  1.8389 -1.1104 -0.8200
39251SOL     OW21157   2.254   0.431   3.242  0.1057  0.3893 -0.5786
39251SOL    HW121158   2.214   0.465   3.322  0.1342 -1.9796  0.4754
39251SOL    HW221159   2.345   0.413   3.267  0.4768  0.9133 -1.5317
39252SOL     OW21160   7.063   7.791   2.384 -0.6340  0.9652  0.3142
39252SOL    HW121161   7.149   7.813   2.419 -0.7153  0.1654  1.0462
39252SOL    HW221162   7.001   7.823   2.450 -1.0014  3.2448 -1.0957
39253SOL     OW21163   5.057   3.834   9.458  0.0891  0.6386 -0.5030
39253SOL    HW121164   5.138   3.884   9.470  0.1384  0.4584 -0.0823
39253SOL    HW221165   5.075   3.778   9.382  0.8152 -0.2985  0.3303
39254SOL     OW21166   8.724  10.577   2.978  0.3551  0.2110  0.5104
39254SOL    HW121167   8.795  10.615   3.030 -0.1758 -0.3151  1.6207
39254SOL    HW221168   8.654  10.642   2.982 -0.4348 -0.7166  2.1442
39255SOL     OW21169   2.387   9.132   9.224  0.5134 -0.0410 -0.7251
39255SOL    HW121170   2.303   9.116   9.180  0.2130 -1.5634  0.3765
39255SOL    HW221171   2.452   9.127   9.153 -0.4668  3.3288 -1.9796
39256SOL     OW21172   9.336   9.211   2.330  0.4240  0.4341 -0.3022
39256SOL    HW121173   9.327   9.219   2.425  1.1723  0.5395 -0.2384
39256SOL    HW221174   9.417   9.258   2.309  2.0811 -2.4016 -0.5634
39257SOL     OW21175   0.455   4.288   1.427  0.4214  0.3366  0.1942
39257SOL    HW121176   0.432   4.202   1.392 -0.6604  0.3608  0.8151
39257SOL    HW221177   0.433   4.282   1.520 -0.5471  1.5877  0.0620
39258SOL     OW21178   5.841   8.089   7.797 -0.8542 -0.6032 -0.5908
39258SOL    HW121179   5.919   8.045   7.829 -0.6009 -0.0908 -0.4934
39258SOL    HW221180   5.848   8.178   7.831 -2.1274 -0.9110  0.5122
39259SOL     OW21181   7.149   8.726  10.599 -0.2433  0.1616  0.1662
39259SOL    HW121182   7.074   8.698  10.651 -0.4366  0.0625 -0.1677
39259SOL    HW221183   7.213   8.656  10.608 -1.5173 -1.4078 -2.3590
39260SOL     OW21184   4.194  10.595   1.822 -1.1003  0.3124  0.6165
39260SOL    HW121185   4.282  10.588   1.785 -2.0140  0.8324 -1.7457
39260SOL    HW221186   4.207  10.636   1.908  0.9642  0.1280  0.4172
39261SOL     OW21187   0.077   7.077   9.757  0.3723 -0.4326 -0.0598
39261SOL    HW121188   0.015   7.006   9.772 -0.4310  0.0759 -0.9328
39261SOL    HW221189   0.160   7.044   9.792 -0.2126 -1.4121  0.4246
39262SOL     OW21190   7.757   3.349   6.689  0.1361  0.3290 -0.6318
39262SOL    HW121191   7.837   3.302   6.663  0.6749  0.8515  0.0373
39262SOL    HW221192   7.767   3.360   6.784 -1.6854 -1.3535 -0.2238
39263SOL     OW21193   5.878   3.368   7.515 -0.5036 -0.2431  0.0149
39263SOL    HW121194   5.815   3.437   7.534  0.7081 -0.0585  3.7972
39263SOL    HW221195   5.907   3.338   7.601  0.3535 -4.2456 -1.5620
39264SOL     OW21196   5.733   9.423  10.758  0.0397  0.4827  0.3456
39264SOL    HW121197   5.754   9.507  10.799  1.9992  0.3634 -0.3705
39264SOL    HW221198   5.793   9.417  10.684 -0.6074 -1.2110 -0.0550
39265SOL     OW21199   8.750   3.396   2.031  0.5034  0.1512 -0.0868
39265SOL    HW121200   8.789   3.362   2.112  0.2834  0.2048  0.0408
39265SOL    HW221201   8.669   3.346   2.020  0.0847  0.7740  0.2048
39266SOL     OW21202   3.415   4.523   7.049  0.3347 -0.1332 -0.2021
39266SOL    HW121203   3.472   4.587   7.092 -2.0642  2.7572 -1.1284
39266SOL    HW221204   3.417   4.548   6.956 -1.6261 -0.5745 -0.3849
39267SOL     OW21205   6.042   3.591   9.558 -0.2117 -0.4924  0.7172
39267SOL    HW121206   6.003   3.577   9.645 -0.3339  1.7932  1.0681
39267SOL    HW221207   5.974   3.638   9.509 -0.1262 -1.7353 -0.6091
39268SOL     OW21208   5.010   6.665   1.579  0.0168  0.5849  0.0680
39268SOL    HW121209   4.928   6.618   1.565  0.6007 -0.7251  0.8990
39268SOL    HW221210   4.994   6.718   1.656 -0.1317  0.5097  0.0891
39269SOL     OW21211   2.555   8.426   1.287  0.5160 -0.2609 -0.4948
39269SOL    HW121212   2.644   8.402   1.313  0.2917  0.1843  0.6894
39269SOL    HW221213   2.553   8.522   1.292  0.2707 -0.1963 -1.5420
39270SOL     OW21214   9.743   7.653   5.763  0.0874  0.7333  0.3921
39270SOL    HW121215   9.743   7.688   5.674 -0.8072 -0.3059 -0.0203
39270SOL    HW221216   9.780   7.565   5.754 -2.9078 -0.6082  0.5308
39271SOL     OW21217   3.723   9.958   5.500 -0.4166 -0.5158 -0.3999
39271SOL    HW121218   3.747  10.018   5.570  0.5138 -0.0091 -1.1392
39271SOL    HW221219   3.739   9.871   5.536 -0.2056 -0.2606  0.1166
39272SOL     OW21220  10.542   6.703   6.707  0.3275  0.7884  0.2113
39272SOL    HW121221  10.477   6.691   6.638  0.8180  1.0311 -0.3001
39272SOL    HW221222  10.556   6.615   6.742  0.2839  0.6211 -0.1900
39273SOL     OW21223   9.943   8.054   2.477  0.1501  0.4352  0.1790
39273SOL    HW121224   9.896   8.126   2.519  0.1695 -0.1277  1.1903
39273SOL    HW221225  10.024   8.045   2.528  0.2056 -0.2205 -0.0194
39274SOL     OW21226   1.961   5.303   8.628 -0.0232 -0.2902 -0.1011
39274SOL    HW121227   1.878   5.348   8.610  0.1824  0.2214  0.1982
39274SOL    HW221228   2.010   5.308   8.546 -0.5936 -1.2598 -0.5015
39275SOL     OW21229  10.903   4.604  10.297 -0.7110  0.1133 -0.0022
39275SOL    HW121230  10.984   4.656  10.300 -0.2368 -0.5954 -0.3609
39275SOL    HW221231  10.872   4.611  10.207 -1.0257  0.3545  0.1257
39276SOL     OW21232   7.567   2.595   4.723  0.5458  0.1974 -0.2928
39276SOL    HW121233   7.625   2.634   4.789  0.1826  2.1228 -1.0841
39276SOL    HW221234   7.514   2.532   4.772  0.8823  0.9694  1.0750
39277SOL     OW21235   1.603   1.048   3.751  0.8017 -0.2635 -0.9738
39277SOL    HW121236   1.672   0.990   3.720  2.3423  0.7616  0.4339
39277SOL    HW221237   1.642   1.136   3.746  0.3544  0.1241  1.8265
39278SOL     OW21238   8.207   1.817   7.866 -0.0587 -0.3799 -0.0084
39278SOL    HW121239   8.159   1.741   7.832  0.6282 -0.9912  0.3942
39278SOL    HW221240   8.144   1.889   7.859 -1.1743 -1.2559  0.8712
39279SOL     OW21241   0.547   7.138   9.749 -0.1769 -0.5410 -0.1574
39279SOL    HW121242   0.483   7.071   9.726 -1.6422  1.1741 -1.2552
39279SOL    HW221243   0.512   7.219   9.711  2.1243  0.6404  0.1165
39280SOL     OW21244   3.267   8.763   1.506 -0.5099  0.1694  0.5853
39280SOL    HW121245   3.311   8.682   1.481  0.2881  0.0454  2.3209
39280SOL    HW221246   3.338   8.825   1.523 -1.0468  0.5017  1.6673
39281SOL     OW21247   9.809   0.173   1.594  0.3268 -0.5410  0.2893
39281SOL    HW121248   9.835   0.188   1.685 -2.9188 -0.1512  1.2105
39281SOL    HW221249   9.776   0.083   1.593 -0.1132 -0.3744 -0.3591
39282SOL     OW21250   6.936   5.094   0.628 -0.2214 -0.2913 -0.6046
39282SOL    HW121251   6.984   5.067   0.706  0.3077  1.3353 -0.3671
39282SOL    HW221252   6.908   5.184   0.646 -1.4149 -0.4349 -1.6648
39283SOL     OW21253   8.186   3.468   4.983  0.3806  0.4158  0.0473
39283SOL    HW121254   8.139   3.439   5.061  0.2608  1.4739  0.3720
39283SOL    HW221255   8.143   3.422   4.911  0.1856 -0.2010  0.5489
39284SOL     OW21256   6.765   2.945   7.794  0.6133 -0.4485 -1.0639
39284SOL    HW121257   6.699   2.878   7.807 -0.9342  1.0152 -1.1680
39284SOL    HW221258   6.726   3.005   7.731  2.1653  0.2754 -1.3528
39285SOL     OW21259   7.689   9.804   5.159  0.3452  0.7665  0.2939
39285SOL    HW121260   7.668   9.848   5.077 -1.1671  0.1325  0.3218
39285SOL    HW221261   7.672   9.870   5.226 -0.3427  0.6655  0.2245
39286SOL     OW21262  10.156   0.713   0.198  0.2769  0.0057 -0.2062
39286SOL    HW121263  10.125   0.628   0.232 -0.1313  0.2821  0.1136
39286SOL    HW221264  10.235   0.731   0.247  0.9461 -0.6936 -1.0081
39287SOL     OW21265   1.317   7.204   5.318  0.1855 -0.4890 -0.1945
39287SOL    HW121266   1.239   7.208   5.263  0.2924  1.3113 -0.2362
39287SOL    HW221267   1.333   7.295   5.343  0.2518 -1.2696  2.6734
39288SOL     OW21268   3.461   9.125   5.723 -0.3232  0.0669 -0.1263
39288SOL    HW121269   3.484   9.217   5.710  3.8097 -0.9196 -0.4670
39288SOL    HW221270   3.398   9.106   5.654 -0.5913  2.3963 -0.5698
39289SOL     OW21271   7.285   8.556   6.222 -0.1637  0.6810  0.3397
39289SOL    HW121272   7.208   8.501   6.211  0.7634 -0.5549 -0.0694
39289SOL    HW221273   7.266   8.611   6.298 -0.5150 -1.2100  1.6307
39290SOL     OW21274  10.687   0.836   2.362 -0.2041  0.2396  0.5752
39290SOL    HW121275  10.655   0.904   2.302  1.3268 -0.3960 -1.0008
39290SOL    HW221276  10.619   0.830   2.429 -0.3742  3.3496  0.7754
39291SOL     OW21277   4.843   9.634   3.976 -0.2768 -0.5805  0.3692
39291SOL    HW121278   4.833   9.546   4.013 -0.9942 -0.9564 -0.7105
39291SOL    HW221279   4.826   9.623   3.883  0.4901  0.5563  0.0851
39292SOL     OW21280   1.797   8.865   9.337  0.4379 -0.1882 -1.0672
39292SOL    HW121281   1.713   8.822   9.356  0.3636  1.5587  3.2485
39292SOL    HW221282   1.846   8.800   9.288 -1.5054 -3.3833  0.9795
39293SOL     OW21283   6.423   8.298  10.372 -0.1652 -0.0242  0.0796
39293SOL    HW121284   6.361   8.289  10.300  0.5754 -0.8243 -0.4705
39293SOL    HW221285   6.371   8.280  10.450 -0.4610 -1.4476 -0.4312
39294SOL     OW21286   9.425   1.193   9.663 -0.2284 -0.0985  0.2100
39294SOL    HW121287   9.377   1.151   9.734  0.4994 -0.2431  0.6249
39294SOL    HW221288   9.509   1.217   9.702  0.4213 -0.7465 -0.7706
39295SOL     OW21289   6.042   4.126   3.171  0.2507 -0.5403 -0.0625
39295SOL    HW121290   6.075   4.189   3.235  1.0505 -0.3840 -0.6209
39295SOL    HW221291   6.002   4.057   3.223  1.0208 -0.4777  0.6131
39296SOL     OW21292   8.874   1.507   9.774 -0.2892 -0.2671 -0.7198
39296SOL    HW121293   8.863   1.495   9.680 -1.7140  1.2894 -0.7754
39296SOL    HW221294   8.869   1.602   9.787  1.3639 -0.3461  0.7593
39297SOL     OW21295   3.422   1.591   1.121 -0.2246 -0.8353 -0.2679
39297SOL    HW121296   3.420   1.672   1.071 -0.5265 -0.3878  0.4579
39297SOL    HW221297   3.490   1.605   1.187  0.7477 -1.7380 -1.0713
39298SOL     OW21298   8.058   3.377   8.627  0.5585 -0.0684 -0.4818
39298SOL    HW121299   8.078   3.304   8.686 -0.8470 -0.0246  0.0789
39298SOL    HW221300   8.002   3.338   8.560 -0.3752  0.5175 -0.0639
39299SOL     OW21301   4.687   1.327   9.835  0.2175  0.1035  0.1708
39299SOL    HW121302   4.704   1.351   9.926 -0.4763  0.2919  0.2509
39299SOL    HW221303   4.763   1.359   9.787 -0.2322  1.5869  0.4243
39300SOL     OW21304   5.981   2.415   0.009 -0.2987  0.2290  0.0559
39300SOL    HW121305   6.003   2.361  -0.067 -2.6227 -0.1075 -0.4214
39300SOL    HW221306   6.037   2.492   0.000  3.4495 -2.2489  1.0217
39301SOL     OW21307   3.061   1.815   4.806  0.4919  0.9177  0.0604
39301SOL    HW121308   2.986   1.872   4.819 -0.0956  0.2878 -0.5392
39301SOL    HW221309   3.107   1.816   4.890 -0.5674  0.7594  0.6461
39302SOL     OW21310   8.554   0.986   5.190 -0.0466  0.8603  0.6900
39302SOL    HW121311   8.619   1.035   5.141  0.7928  0.7169  1.6492
39302SOL    HW221312   8.507   1.052   5.241 -1.5911  1.1319 -1.0421
39303SOL     OW21313   4.834   2.046  10.229  0.2857  0.3303  0.1649
39303SOL    HW121314   4.922   2.027  10.196  0.2179 -1.0132  0.7357
39303SOL    HW221315   4.816   1.976  10.293 -1.0185  0.8404  0.3769
39304SOL     OW21316   6.313   1.270   7.139 -0.3203  0.2015 -0.3710
39304SOL    HW121317   6.308   1.325   7.217 -0.3830  0.1048 -0.3063
39304SOL    HW221318   6.305   1.331   7.066  1.4922  0.5080 -0.3459
39305SOL     OW21319  10.742   5.058   6.339 -0.3271  0.3102  0.7312
39305SOL    HW121320  10.749   5.005   6.259  0.7137 -0.5556  1.3872
39305SOL    HW221321  10.716   5.145   6.307  0.2470  0.0254 -0.5706
39306SOL     OW21322   5.349   3.796   7.495  0.2481 -0.3318 -0.0947
39306SOL    HW121323   5.430   3.785   7.446  0.4647  0.1914  0.1450
39306SOL    HW221324   5.336   3.713   7.540  0.8175 -0.3034  0.1196
39307SOL     OW21325   9.123   2.637   9.398 -0.2063  0.2336 -0.3175
39307SOL    HW121326   9.106   2.549   9.365 -2.0557  0.5885 -0.3387
39307SOL    HW221327   9.084   2.638   9.486  0.9456  0.6285  0.2040
39308SOL     OW21328   8.651   6.943   3.056  0.0968 -0.3158  0.4181
39308SOL    HW121329   8.635   6.850   3.074 -0.0532 -0.8119 -2.0309
39308SOL    HW221330   8.580   6.968   2.996  0.5763  1.1710  0.4541
39309SOL     OW21331   4.680   1.572   4.057 -0.4718  0.3813 -0.5359
39309SOL    HW121332   4.587   1.554   4.043 -0.1306 -0.6232 -1.6080
39309SOL    HW221333   4.688   1.667   4.049 -1.2361  0.3694 -1.4726
39310SOL     OW21334   9.582   5.876   3.119  0.0530 -0.6482 -0.0414
39310SOL    HW121335   9.526   5.893   3.043  0.1707 -0.8318 -0.1703
39310SOL    HW221336   9.598   5.781   3.116  1.0928 -0.4656 -0.5006
39311SOL     OW21337   1.511   4.183   3.622 -0.3143 -0.2639 -0.3546
39311SOL    HW121338   1.559   4.263   3.598  0.7557 -0.6382  0.5228
39311SOL    HW221339   1.467   4.157   3.541  0.7838  0.2076 -1.1180
39312SOL     OW21340   8.596   1.620   4.736  0.5309 -0.2031 -0.0244
39312SOL    HW121341   8.529   1.559   4.704  0.0333  0.7519 -0.8304
39312SOL    HW221342   8.660   1.624   4.665  2.5189 -2.6718  1.5584
39313SOL     OW21343   9.274   3.609   9.683 -0.1920 -0.2215 -0.6935
39313SOL    HW121344   9.293   3.518   9.661  0.1042 -0.2400 -0.3598
39313SOL    HW221345   9.330   3.660   9.624 -0.7248 -0.2430 -1.2296
39314SOL     OW21346   1.828   4.683  10.448  0.3488  0.5059 -0.0279
39314SOL    HW121347   1.795   4.597  10.474  1.4183  0.3818  0.9830
39314SOL    HW221348   1.923   4.676  10.459  0.5056  1.5842 -0.6425
39315SOL     OW21349  10.137   6.156   8.568  0.3273 -0.3158 -1.0730
39315SOL    HW121350  10.185   6.238   8.576 -1.0462  0.6680 -2.6046
39315SOL    HW221351  10.201   6.094   8.534  1.2042  0.2716 -0.5226
39316SOL     OW21352   3.280   1.289   4.492 -0.0271 -0.1185  0.3888
39316SOL    HW121353   3.232   1.290   4.575 -0.3966  0.1627  0.1699
39316SOL    HW221354   3.296   1.197   4.475 -0.8776 -0.2340  0.2318
39317SOL     OW21355   7.670   0.313  10.358  0.9072 -0.0636  0.3209
39317SOL    HW121356   7.586   0.269  10.375  0.6136 -0.3880 -1.9168
39317SOL    HW221357   7.650   0.406  10.368  0.9432 -0.2604  2.5313
39318SOL     OW21358   7.176  10.936   2.869  0.0153 -0.0398 -0.0754
39318SOL    HW121359   7.167  10.996   2.795 -0.2327 -0.2094 -0.1840
39318SOL    HW221360   7.203  10.853   2.830  0.0468 -0.0834  0.0394
39319SOL     OW21361   4.267   0.332   2.379  0.2293 -0.1283  0.2054
39319SOL    HW121362   4.280   0.238   2.388  2.1228 -0.0043 -0.9081
39319SOL    HW221363   4.304   0.369   2.459  1.2472 -0.2131 -0.2172
39320SOL     OW21364   7.836   5.763  10.455 -0.0908 -0.1830  0.5146
39320SOL    HW121365   7.790   5.708  10.391 -1.7552 -0.3764  1.8248
39320SOL    HW221366   7.922   5.723  10.464 -0.3455 -0.9886 -0.5452
39321SOL     OW21367   5.099   4.354   0.090 -0.3736  0.3015  0.9909
39321SOL    HW121368   5.163   4.409   0.135 -1.4493 -0.5001  3.6246
39321SOL    HW221369   5.122   4.360  -0.002  2.5421  1.2516  1.7323
39322SOL     OW21370  10.949   2.230   4.599 -0.2491 -0.1616 -0.1282
39322SOL    HW121371  10.946   2.138   4.624  1.0890 -0.2700 -0.3249
39322SOL    HW221372  10.867   2.246   4.552 -0.2965 -1.3435 -0.4396
39323SOL     OW21373   3.551   3.297   3.112  0.4114 -0.2194 -0.0367
39323SOL    HW121374   3.500   3.272   3.034  1.1389  0.6409 -0.8034
39323SOL    HW221375   3.488   3.293   3.184 -0.3154 -0.8627 -0.6934
39324SOL     OW21376   3.720   9.279  10.429  0.3475  0.0300  0.3139
39324SOL    HW121377   3.740   9.283  10.523  0.8127  0.7533  0.1797
39324SOL    HW221378   3.633   9.319  10.422 -0.9285 -2.5156  0.7964
39325SOL     OW21379   7.609  10.332   0.690  0.4277  0.2939 -0.0578
39325SOL    HW121380   7.633  10.315   0.781 -0.1898 -0.7073 -0.0791
39325SOL    HW221381   7.692  10.336   0.644  0.6670 -1.0225  0.2376
39326SOL     OW21382   3.950   3.814   2.981  0.7585  0.0164 -0.0487
39326SOL    HW121383   3.874   3.838   2.928  1.5564  0.8404 -0.8591
39326SOL    HW221384   4.009   3.889   2.973  2.2023 -1.1343 -0.5055
39327SOL     OW21385  10.479   8.966   1.467  0.4179  0.4654  0.3019
39327SOL    HW121386  10.388   8.996   1.463  0.2158 -0.1196  0.3215
39327SOL    HW221387  10.529   9.042   1.496 -0.2788  0.3614  1.7999
39328SOL     OW21388   8.910   7.343   5.800  0.2753  0.0997  0.0341
39328SOL    HW121389   8.983   7.297   5.760  0.2580 -0.8107  1.0195
39328SOL    HW221390   8.889   7.291   5.878  0.4294  1.9344  1.3233
39329SOL     OW21391   2.654  10.321   9.578  0.3063 -0.0922 -0.0293
39329SOL    HW121392   2.683  10.395   9.526  1.1528 -0.1292  0.3797
39329SOL    HW221393   2.725  10.258   9.572  0.3410 -0.1639  1.0273
39330SOL     OW21394   0.611   9.972   8.224 -0.1224 -0.0011 -0.3163
39330SOL    HW121395   0.558   9.893   8.211  1.2239 -1.0438  0.4496
39330SOL    HW221396   0.554  10.030   8.275 -0.5204 -1.1292  0.5451
39331SOL     OW21397   0.963   9.705   8.820  0.5370  0.2271 -0.2856
39331SOL    HW121398   0.975   9.695   8.914  2.5870 -0.0996 -0.5491
39331SOL    HW221399   1.050   9.689   8.783  0.0776  1.7761 -2.1211
39332SOL     OW21400  10.528   4.769  10.136 -0.8146  0.0796 -0.3570
39332SOL    HW121401  10.449   4.745  10.088 -1.4278 -1.5615  1.4014
39332SOL    HW221402  10.599   4.759  10.072 -1.7439 -0.9660 -1.2391
39333SOL     OW21403   6.928   4.389   0.086  0.4530  0.0204  0.6079
39333SOL    HW121404   6.901   4.377  -0.005  2.0605  3.0231 -0.3627
39333SOL    HW221405   6.874   4.463   0.117  0.6734 -0.2873  1.7444
39334SOL     OW21406   1.525   3.565   5.063  0.5529  0.0383 -0.4722
39334SOL    HW121407   1.488   3.517   5.137 -0.0752  0.3116 -0.6140
39334SOL    HW221408   1.522   3.502   4.991  0.1975  0.1198 -0.5289
39335SOL     OW21409   9.589   2.638   0.208 -0.1476 -0.0264 -0.0372
39335SOL    HW121410   9.655   2.620   0.275  1.4336 -0.2469 -1.6154
39335SOL    HW221411   9.626   2.602   0.128 -2.2442 -0.2298 -0.9458
39336SOL     OW21412   4.228   5.514   2.484 -0.3229  0.3502 -0.3694
39336SOL    HW121413   4.181   5.597   2.488  0.2586  0.7256 -1.2769
39336SOL    HW221414   4.243   5.499   2.390  0.2626 -0.3881 -0.1637
39337SOL     OW21415   0.615  10.925   2.671  0.0634 -0.0145  0.1326
39337SOL    HW121416   0.637  11.001   2.725  0.3123  0.9752 -1.3432
39337SOL    HW221417   0.699  10.898   2.633 -0.4498  0.6738 -1.5289
39338SOL     OW21418   3.505   5.384   4.592 -0.2396  0.1456  0.3014
39338SOL    HW121419   3.538   5.369   4.680  0.1852 -2.0661 -0.1912
39338SOL    HW221420   3.570   5.344   4.535  0.0333  2.4843 -1.0937
39339SOL     OW21421   8.153   7.313  10.621 -0.3557  0.0343  0.4711
39339SOL    HW121422   8.129   7.233  10.667 -2.8596  0.0377 -0.7357
39339SOL    HW221423   8.132   7.296  10.529  1.3197  1.2494 -0.1833
39340SOL     OW21424   8.356   2.875   6.773 -0.1291  0.0687 -0.6508
39340SOL    HW121425   8.448   2.860   6.794 -0.4715 -1.8223 -0.4126
39340SOL    HW221426   8.335   2.958   6.815  0.6009 -1.0961  2.1184
39341SOL     OW21427   8.448   4.156   5.753 -0.2005  0.0988 -0.0399
39341SOL    HW121428   8.507   4.209   5.806  0.4012  1.4051 -1.9505
39341SOL    HW221429   8.385   4.120   5.815  1.5071  0.1599  1.7858
39342SOL     OW21430  10.717   6.766   1.830 -0.8155  0.0291 -0.2059
39342SOL    HW121431  10.799   6.757   1.783 -1.2330  1.2583 -1.1875
39342SOL    HW221432  10.649   6.746   1.765 -1.2772 -1.9206  0.8394
39343SOL     OW21433   5.006   6.217   9.768 -0.1068 -0.1109 -0.2634
39343SOL    HW121434   4.952   6.138   9.766 -0.2073 -0.0100 -2.6653
39343SOL    HW221435   5.050   6.218   9.684  1.9405  1.0162  0.7815
39344SOL     OW21436   3.090   0.151   9.470  0.4238  0.2484  0.2245
39344SOL    HW121437   3.011   0.200   9.447  0.1902 -0.4359 -0.4737
39344SOL    HW221438   3.113   0.103   9.390  0.8069 -0.5607  0.8059
39345SOL     OW21439   2.359   7.317   2.981 -0.0880  0.2311  0.4653
39345SOL    HW121440   2.303   7.356   3.048  1.6627  0.6720  1.7214
39345SOL    HW221441   2.435   7.284   3.030 -0.6678 -3.1603 -0.8008
39346SOL     OW21442   2.003  10.326   8.946  0.0039 -0.3843  0.4674
39346SOL    HW121443   2.088  10.369   8.953 -0.1488 -0.0278  0.1313
39346SOL    HW221444   1.946  10.390   8.903  0.1167 -1.4038 -1.2316
39347SOL     OW21445   0.868   1.014   2.033 -0.3052  0.0231 -0.1603
39347SOL    HW121446   0.904   0.929   2.059 -1.0861  0.4253  2.4004
39347SOL    HW221447   0.941   1.060   1.992  1.0652 -0.6253  1.5157
39348SOL     OW21448   6.727   9.276   4.768 -0.5557 -0.0053  0.2174
39348SOL    HW121449   6.739   9.349   4.828 -0.5887  1.5634 -1.6243
39348SOL    HW221450   6.721   9.317   4.681  0.0560 -2.2360 -0.9247
39349SOL     OW21451   2.558   3.831   7.976 -0.0183  0.1871 -0.0549
39349SOL    HW121452   2.490   3.868   8.033  0.0187 -0.8692  0.7082
39349SOL    HW221453   2.609   3.906   7.946 -1.0627  0.9170 -0.0205
39350SOL     OW21454   0.366  10.235   8.085  0.4167  0.7666 -0.3393
39350SOL    HW121455   0.420  10.284   8.024 -0.1219  3.0838  0.9919
39350SOL    HW221456   0.290  10.291   8.100 -2.1949 -2.2233 -1.8230
39351SOL     OW21457   6.883   3.308   2.076  0.0725 -0.3285  0.0412
39351SOL    HW121458   6.832   3.376   2.031  2.0341  0.6000 -0.8100
39351SOL    HW221459   6.914   3.250   2.006 -2.0573 -2.4854  0.8089
39352SOL     OW21460   9.987  10.647   8.263 -1.0855 -0.0825  0.1892
39352SOL    HW121461  10.034  10.577   8.216 -2.2318 -0.7299  0.0011
39352SOL    HW221462   9.909  10.663   8.210 -2.0957 -0.4123  1.5656
39353SOL     OW21463   5.613   4.396   1.191  0.2941  0.6820  0.0728
39353SOL    HW121464   5.706   4.378   1.208  0.0053  0.8598  1.9747
39353SOL    HW221465   5.584   4.322   1.138  0.8974 -0.7646  1.7126
39354SOL     OW21466   8.535   3.220   2.033 -0.8406  0.1886  0.2705
39354SOL    HW121467   8.490   3.268   2.102 -2.3833  0.9747 -1.2364
39354SOL    HW221468   8.504   3.130   2.042  0.0967 -0.0108  1.5180
39355SOL     OW21469   7.474   0.380   7.867 -0.4454 -0.0221 -0.5305
39355SOL    HW121470   7.513   0.460   7.902  0.9875 -1.2678  0.7654
39355SOL    HW221471   7.380   0.390   7.885 -0.0274  0.4252  1.5981
39356SOL     OW21472   6.281   7.665   3.052 -0.0500 -0.2859  0.4137
39356SOL    HW121473   6.262   7.713   2.971  0.5020 -2.1957 -0.9001
39356SOL    HW221474   6.336   7.724   3.103 -0.1952  0.8495 -0.7098
39357SOL     OW21475   1.246   0.655   5.441  0.5189 -0.2895  0.2871
39357SOL    HW121476   1.231   0.703   5.360  0.0082 -0.3032  0.3676
39357SOL    HW221477   1.286   0.719   5.500 -0.2405  0.0692  0.4238
39358SOL     OW21478  10.125   5.636   6.669 -0.2380 -0.4233  1.2587
39358SOL    HW121479  10.154   5.547   6.687  4.3156  0.7360  0.3397
39358SOL    HW221480  10.195   5.674   6.615 -3.4575  2.7868 -0.9388
39359SOL     OW21481   4.619  10.470   1.344 -0.0455  0.0782  0.3260
39359SOL    HW121482   4.703  10.495   1.306 -0.5375  0.8659 -0.2378
39359SOL    HW221483   4.575  10.422   1.275 -0.3385  0.2411  0.4005
39360SOL     OW21484   2.658   1.340  10.268 -0.1090 -0.0236 -0.1354
39360SOL    HW121485   2.628   1.286  10.195  0.3498 -0.8696  0.2973
39360SOL    HW221486   2.749   1.312  10.282  0.3677  1.3558 -0.3743
39361SOL     OW21487   8.030   1.884  10.212  0.0544  0.0585  0.5055
39361SOL    HW121488   7.965   1.918  10.273  1.0499  0.2844  1.4579
39361SOL    HW221489   8.114   1.898  10.256  0.6579 -1.4839 -0.0920
39362SOL     OW21490  10.768   2.574   1.900 -0.7701  0.1033  0.0847
39362SOL    HW121491  10.757   2.555   1.807 -1.4910 -2.3526  0.6403
39362SOL    HW221492  10.863   2.576   1.913 -0.6760 -2.0602 -0.2267
39363SOL     OW21493   1.281   7.054   7.289  0.2394  0.4175  0.5651
39363SOL    HW121494   1.364   7.102   7.284  0.6608 -0.2996  0.6009
39363SOL    HW221495   1.276   7.006   7.207 -0.3981  0.8666  0.3371
39364SOL     OW21496   8.286   8.089   5.600  0.3606  0.3822 -0.1411
39364SOL    HW121497   8.202   8.048   5.621  0.0896  1.3223  0.6816
39364SOL    HW221498   8.350   8.018   5.604 -0.2948 -0.2119 -0.1043
39365SOL     OW21499   6.604   3.204   5.499  0.6740 -0.4859  0.5819
39365SOL    HW121500   6.538   3.273   5.492  2.0690  0.7163 -1.0819
39365SOL    HW221501   6.614   3.172   5.409  1.2322 -1.7521  1.0810
39366SOL     OW21502   5.528   4.497   1.865  0.5136  0.7150 -0.1017
39366SOL    HW121503   5.464   4.459   1.804  1.3458  1.6270 -1.5863
39366SOL    HW221504   5.611   4.491   1.819  1.4739 -0.2018  1.7044
39367SOL     OW21505   6.096   9.408   1.565 -0.3481 -0.4020  0.2501
39367SOL    HW121506   6.063   9.497   1.578  0.5104 -0.4048  2.9031
39367SOL    HW221507   6.057   9.358   1.637  2.7144 -1.1281  1.4799
39368SOL     OW21508   4.086   9.255   2.678  0.0930 -0.0330 -0.2082
39368SOL    HW121509   4.074   9.200   2.600 -2.5075  0.1665  0.0238
39368SOL    HW221510   4.115   9.339   2.643  1.6450 -0.7492 -0.7353
39369SOL     OW21511   3.899   0.073   9.624  0.0028 -0.5751 -0.2758
39369SOL    HW121512   3.957   0.007   9.661  1.2577  0.9896  0.5930
39369SOL    HW221513   3.812   0.047   9.654  0.6032 -1.2732  0.9043
39370SOL     OW21514   0.523  10.972   3.975 -0.4839  0.5600  0.1619
39370SOL    HW121515   0.493  10.883   3.957 -0.6354  0.8133 -0.8639
39370SOL    HW221516   0.576  10.964   4.055 -1.2858 -0.2831  0.6093
39371SOL     OW21517   1.790   8.416   3.449 -0.0961 -0.9237  0.0122
39371SOL    HW121518   1.805   8.430   3.356 -0.9778 -2.7467 -0.4438
39371SOL    HW221519   1.875   8.390   3.484  0.4667  0.7865 -0.0669
39372SOL     OW21520  10.398   4.121   1.120 -0.4616 -0.2532 -0.3700
39372SOL    HW121521  10.438   4.034   1.112 -0.1105 -0.1024 -0.2748
39372SOL    HW221522  10.434   4.156   1.202 -0.7560 -0.1000 -0.3081
39373SOL     OW21523   8.349   8.642   8.620  0.6682  0.1968 -0.2440
39373SOL    HW121524   8.380   8.580   8.553  0.5643  0.1773 -0.2756
39373SOL    HW221525   8.258   8.617   8.635  1.0669 -0.6349  0.8618
39374SOL     OW21526   8.944   4.042   4.877  0.4325  0.3810 -0.0229
39374SOL    HW121527   8.849   4.045   4.873  0.3156 -1.5034  0.4591
39374SOL    HW221528   8.964   3.951   4.902  2.3224  0.9460  0.6599
39375SOL     OW21529   9.540   4.727  10.234 -0.1668  0.1384  0.1733
39375SOL    HW121530   9.592   4.743  10.155 -1.3357  1.0187 -0.4288
39375SOL    HW221531   9.452   4.708  10.202 -1.1820  2.6435  1.3244
39376SOL     OW21532   9.598   8.162   6.491 -0.5152 -0.5904 -0.9504
39376SOL    HW121533   9.554   8.193   6.570 -1.5467 -3.0142 -0.5367
39376SOL    HW221534   9.662   8.098   6.523  0.1334 -0.4525 -1.9422
39377SOL     OW21535   9.628   0.835   5.973  0.1317 -0.1135  0.0251
39377SOL    HW121536   9.560   0.899   5.995  0.7107  0.6889 -0.5381
39377SOL    HW221537   9.707   0.868   6.015  0.4381 -0.4591 -0.2726
39378SOL     OW21538   8.671   3.192   4.095 -0.3047 -0.1409  0.1469
39378SOL    HW121539   8.707   3.171   4.181 -0.6291 -1.0797  0.0557
39378SOL    HW221540   8.621   3.114   4.070  1.0311 -0.4793 -1.5673
39379SOL     OW21541   2.909   1.549   5.655 -0.3619 -0.1794  0.4323
39379SOL    HW121542   2.888   1.498   5.577  3.0533 -0.3625 -0.4207
39379SOL    HW221543   2.920   1.485   5.725 -1.3354 -0.1663  0.6098
39380SOL     OW21544   5.853   0.645   4.463 -0.3865  0.0391 -0.1992
39380SOL    HW121545   5.929   0.588   4.478  0.0754  0.5910 -0.3804
39380SOL    HW221546   5.892   0.727   4.432 -0.8667  1.2047  2.1396
39381SOL     OW21547   1.096   0.874  10.808  0.4224 -0.1820  0.4010
39381SOL    HW121548   1.158   0.833  10.747  2.0158 -0.1066  1.9366
39381SOL    HW221549   1.010   0.841  10.781  1.3086 -1.6176 -0.6980
39382SOL     OW21550   4.443   7.424   8.227  0.4830 -0.3299 -0.3955
39382SOL    HW121551   4.409   7.423   8.137  0.8198  0.3576 -0.5302
39382SOL    HW221552   4.537   7.406   8.217  0.4658 -0.5533 -0.1571
39383SOL     OW21553   1.196   1.725   6.407 -0.6244 -0.0051 -0.7100
39383SOL    HW121554   1.256   1.651   6.397  0.7231  1.1422 -1.3302
39383SOL    HW221555   1.165   1.719   6.497 -1.2932 -1.8850 -1.0520
39384SOL     OW21556   8.631   2.270   4.255 -0.0892 -0.6415 -0.0523
39384SOL    HW121557   8.623   2.360   4.286  0.3744 -0.6506  0.0931
39384SOL    HW221558   8.543   2.233   4.265 -0.1634 -0.3551  0.3559
39385SOL     OW21559   7.310   1.942   2.579  0.8532 -0.0880 -0.2288
39385SOL    HW121560   7.265   1.954   2.496 -0.8340 -3.0037  0.2200
39385SOL    HW221561   7.274   2.010   2.636 -1.2073 -0.8649 -0.5839
39386SOL     OW21562   9.740   0.168   4.754  0.4334 -0.3567  0.0608
39386SOL    HW121563   9.647   0.157   4.734  0.0875  3.1314 -0.4969
39386SOL    HW221564   9.744   0.248   4.806  3.1216 -0.6524  0.3724
39387SOL     OW21565   9.109   1.581   8.456  0.3556  0.3324 -0.3594
39387SOL    HW121566   9.017   1.588   8.429  0.4487 -1.0511 -1.1216
39387SOL    HW221567   9.109   1.607   8.548 -0.8606  0.0220 -0.2616
39388SOL     OW21568   4.028   7.629   4.967  0.7431 -0.4052 -0.7074
39388SOL    HW121569   3.943   7.587   4.956  2.4462 -4.0028 -0.8477
39388SOL    HW221570   4.040   7.681   4.887 -0.4179 -1.4815 -1.6030
39389SOL     OW21571   0.036   9.164   6.948  0.0107  0.7132  0.2249
39389SOL    HW121572  -0.050   9.189   6.914  0.1355  2.1420  0.9600
39389SOL    HW221573   0.017   9.106   7.021 -0.3060  0.3671 -0.1281
39390SOL     OW21574  10.279   5.131   3.069  0.0636  0.0419  0.2257
39390SOL    HW121575  10.303   5.055   3.123  1.3099 -0.2338 -0.6890
39390SOL    HW221576  10.306   5.107   2.980 -0.8403  0.9907 -0.3132
39391SOL     OW21577   7.633   5.596   4.844  0.2420  0.1502 -0.2857
39391SOL    HW121578   7.714   5.562   4.807 -0.2603 -0.4132 -0.8805
39391SOL    HW221579   7.564   5.544   4.803 -0.3334 -0.4496  1.3912
39392SOL     OW21580   0.949  10.144   7.949  0.4818 -0.8707 -0.3909
39392SOL    HW121581   1.000  10.066   7.974 -0.3879 -1.7922 -1.4463
39392SOL    HW221582   0.989  10.173   7.867  1.4405  0.4006  0.5110
39393SOL     OW21583   8.627   0.989   1.999  0.2770 -0.7324  0.2237
39393SOL    HW121584   8.539   0.958   1.979  0.2912  0.3376 -1.6610
39393SOL    HW221585   8.681   0.910   2.002 -0.0049 -1.0985 -2.7659
39394SOL     OW21586   7.171   3.198  10.279  0.3718 -0.1379 -0.1229
39394SOL    HW121587   7.158   3.268  10.216 -1.4185 -0.0948  0.2835
39394SOL    HW221588   7.184   3.242  10.362 -2.8244 -0.2877  0.5077
39395SOL     OW21589   5.402   7.139  10.337  0.2611  0.4197  0.3328
39395SOL    HW121590   5.336   7.075  10.366  1.7792 -1.2985  0.0722
39395SOL    HW221591   5.382   7.217  10.388 -2.4799  0.2041 -0.3101
39396SOL     OW21592   3.604   1.839   8.970  0.3992 -0.6301 -0.4141
39396SOL    HW121593   3.601   1.750   9.003 -0.8832 -0.6872 -0.6520
39396SOL    HW221594   3.515   1.856   8.939  0.4732  0.9269  0.1690
39397SOL     OW21595   5.624   9.603   1.607 -0.3023  0.0392 -0.3904
39397SOL    HW121596   5.564   9.639   1.542 -1.2509 -0.7670  0.0133
39397SOL    HW221597   5.599   9.647   1.689 -0.7117 -0.6958 -0.1166
39398SOL     OW21598   9.303   4.455   9.039 -0.1311  0.0327 -0.4570
39398SOL    HW121599   9.348   4.373   9.018 -0.4702 -0.6346  1.2872
39398SOL    HW221600   9.215   4.443   9.004  0.3827  0.4646 -1.9455
39399SOL     OW21601   3.731   5.066   4.120  0.0175  0.5541  0.2646
39399SOL    HW121602   3.680   5.092   4.197  0.2452 -0.1793  0.6696
39399SOL    HW221603   3.821   5.094   4.141 -0.2418  2.0103 -0.5254
39400SOL     OW21604   1.257   5.906   2.347 -0.3794 -0.0835 -0.4156
39400SOL    HW121605   1.233   5.875   2.434 -1.1102  0.8676 -0.2593
39400SOL    HW221606   1.237   5.833   2.289  2.6365 -1.6928  0.5105
39401SOL     OW21607   5.601  10.305   4.913 -0.7379 -0.3569  0.3064
39401SOL    HW121608   5.645  10.347   4.839 -0.7267  0.8841  1.0081
39401SOL    HW221609   5.672  10.273   4.968 -0.7460 -0.9578 -0.0219
39402SOL     OW21610  10.951   0.535   6.144  0.2340  0.5988  0.0089
39402SOL    HW121611  10.962   0.460   6.085  2.2413  1.0037 -0.1630
39402SOL    HW221612  10.985   0.610   6.095 -0.7296  1.4505  0.6046
39403SOL     OW21613   4.633  10.717   0.199 -0.0665  0.4388 -0.5071
39403SOL    HW121614   4.628  10.799   0.247 -2.7879  1.0966 -1.7774
39403SOL    HW221615   4.589  10.653   0.256 -1.7728  0.8466 -1.3232
39404SOL     OW21616   5.629   8.378   8.072  0.8626  0.4553  0.1483
39404SOL    HW121617   5.590   8.297   8.105 -1.4539  1.0331 -1.0513
39404SOL    HW221618   5.659   8.355   7.984 -0.1426  0.9816 -0.3387
39405SOL     OW21619   4.647   7.068   2.003  0.3095  0.4830  0.0871
39405SOL    HW121620   4.609   6.981   1.990  0.0125  0.6970 -0.4999
39405SOL    HW221621   4.585   7.112   2.061  0.2862  0.4149  0.1146
39406SOL     OW21622   6.538   9.539   1.389  0.1912  0.0352 -0.0655
39406SOL    HW121623   6.475   9.500   1.449 -1.2179  0.3851 -1.2859
39406SOL    HW221624   6.510   9.630   1.380  0.4276  0.0043 -1.1988
39407SOL     OW21625   2.901   6.551   7.187 -0.4384  0.2308 -0.2178
39407SOL    HW121626   2.994   6.535   7.171 -0.2187  0.1449  1.0742
39407SOL    HW221627   2.867   6.581   7.103  0.1061 -2.6415 -1.5308
39408SOL     OW21628   5.562   9.172   9.048 -0.5584  0.6342  0.0048
39408SOL    HW121629   5.497   9.218   9.101 -1.3503 -0.3554 -0.0976
39408SOL    HW221630   5.511   9.112   8.994  0.5495 -1.1692  0.9324
39409SOL     OW21631  10.096   4.944  10.335 -0.0352  0.2876  0.3092
39409SOL    HW121632  10.096   4.948  10.239  1.3200  0.6087  0.3094
39409SOL    HW221633  10.178   4.987  10.360 -1.9426  3.2923  1.7383
39410SOL     OW21634   6.211  10.297   9.267 -0.4515 -0.4632  0.0814
39410SOL    HW121635   6.219  10.381   9.312  2.1387 -1.7337  2.1100
39410SOL    HW221636   6.157  10.243   9.325  1.3337 -1.5019  0.8153
39411SOL     OW21637   2.577   1.040   1.100 -0.2496  0.2146 -0.0406
39411SOL    HW121638   2.487   1.050   1.130 -0.4528 -1.4205 -0.0592
39411SOL    HW221639   2.623   1.117   1.133 -1.7367  1.2369 -0.3372
39412SOL     OW21640   7.640   0.912   2.059 -0.0332 -0.7265  0.3555
39412SOL    HW121641   7.550   0.935   2.034  0.6818 -0.2947 -1.9211
39412SOL    HW221642   7.633   0.824   2.096 -1.6557  0.0404  1.9649
39413SOL     OW21643   2.291   1.164   0.322  0.2389  0.0133  0.4909
39413SOL    HW121644   2.279   1.219   0.400 -1.5482  1.5765 -0.8238
39413SOL    HW221645   2.237   1.087   0.339 -1.4879  1.1050  0.1536
39414SOL     OW21646   7.653   7.757   1.373  0.0456 -0.3090  0.3549
39414SOL    HW121647   7.567   7.719   1.358  0.0871 -0.4553  0.4813
39414SOL    HW221648   7.711   7.708   1.314 -0.2164  0.8481 -0.8835
39415SOL     OW21649   7.570   7.250   5.408 -0.3811  0.0507 -0.2314
39415SOL    HW121650   7.580   7.309   5.484 -1.5176  0.3325 -0.2979
39415SOL    HW221651   7.580   7.162   5.445  0.4184  0.2420  0.0209
39416SOL     OW21652   2.725   5.695   8.143 -0.7406  0.4308  0.1482
39416SOL    HW121653   2.808   5.647   8.144 -0.7794  0.3628  2.0584
39416SOL    HW221654   2.747   5.780   8.106 -0.3595 -0.5003 -1.8231
39417SOL     OW21655   0.717   3.173   6.910 -0.3894 -0.0380  0.0582
39417SOL    HW121656   0.729   3.260   6.949  1.1272  0.2099 -0.9020
39417SOL    HW221657   0.766   3.177   6.828  1.5894 -2.5417  1.0592
39418SOL     OW21658   2.751   6.895   3.690 -0.0740  0.0871 -0.0432
39418SOL    HW121659   2.735   6.801   3.694 -1.5414  0.2808 -1.3080
39418SOL    HW221660   2.678   6.934   3.737  1.6402  0.5297  2.3772
39419SOL     OW21661   8.724   4.333   2.659 -0.6066 -0.0379 -0.2149
39419SOL    HW121662   8.794   4.347   2.722  0.0089 -0.6723 -0.7417
39419SOL    HW221663   8.703   4.420   2.626 -1.0405  0.3148  0.9655
39420SOL     OW21664   8.075   4.684   5.750  0.1547 -0.3531 -0.2769
39420SOL    HW121665   8.040   4.616   5.692  0.6725  0.0198 -1.0440
39420SOL    HW221666   8.167   4.661   5.761  0.2643  0.0639 -0.3094
39421SOL     OW21667   9.116   1.997   7.780 -0.0334 -0.2494  0.0338
39421SOL    HW121668   9.160   2.040   7.707  0.5791  0.3709  0.7524
39421SOL    HW221669   9.048   2.059   7.807  0.7281  0.1982  0.9515
39422SOL     OW21670   7.464   6.231   6.381 -0.4926 -0.3747  0.1773
39422SOL    HW121671   7.547   6.266   6.352 -0.4974  0.2145  0.8704
39422SOL    HW221672   7.431   6.295   6.444 -1.9477 -0.0882 -0.8542
39423SOL     OW21673   5.079  10.254   5.906 -0.0860 -0.2404 -0.1372
39423SOL    HW121674   4.996  10.280   5.945  1.1168  2.7194  0.5984
39423SOL    HW221675   5.098  10.321   5.841  1.4598 -1.1912 -0.7090
39424SOL     OW21676   9.754   6.579   3.409 -0.0528  0.6658 -0.3975
39424SOL    HW121677   9.815   6.509   3.385 -0.3465  0.6640 -1.1472
39424SOL    HW221678   9.803   6.632   3.472 -0.6882 -1.6103  2.1270
39425SOL     OW21679   3.871   9.587   1.040  0.2012  0.2450  0.6163
39425SOL    HW121680   3.835   9.499   1.050  0.9122 -0.1028  0.1629
39425SOL    HW221681   3.840   9.616   0.955  0.9629 -0.0499  0.2287
39426SOL     OW21682   5.218   8.405  10.775  0.4064 -0.8242 -0.7389
39426SOL    HW121683   5.313   8.398  10.779  0.5033  1.0928  1.1178
39426SOL    HW221684   5.202   8.490  10.733 -0.5066 -1.3059 -1.3874
39427SOL     OW21685   5.113   9.592   2.246 -0.7817  0.3163  0.2363
39427SOL    HW121686   5.198   9.576   2.206 -1.6278 -1.1250 -1.0422
39427SOL    HW221687   5.098   9.516   2.302 -0.8691  0.9627  1.1005
39428SOL     OW21688   4.349   4.220   4.817  0.8307  0.0089 -0.2251
39428SOL    HW121689   4.355   4.274   4.739 -0.8764 -0.4928 -0.7270
39428SOL    HW221690   4.329   4.132   4.784 -2.5959  0.3131  0.8539
39429SOL     OW21691   3.214  10.652  10.904 -0.1344  0.3358  0.0724
39429SOL    HW121692   3.145  10.718  10.899 -0.3277  0.1690  0.4811
39429SOL    HW221693   3.248  10.645  10.815  0.0294  1.1364  0.0652
39430SOL     OW21694   5.252   1.317   7.947 -0.4464 -0.0797 -0.6199
39430SOL    HW121695   5.172   1.267   7.959 -0.7553  0.1774 -1.5429
39430SOL    HW221696   5.246   1.389   8.010 -0.2429 -0.8987  0.3461
39431SOL     OW21697   5.735   4.082   5.722 -0.4315 -0.0788  0.6295
39431SOL    HW121698   5.650   4.038   5.731 -0.7995  0.4009 -0.4647
39431SOL    HW221699   5.715   4.166   5.680  0.7739 -0.6540 -1.1470
39432SOL     OW21700   9.978   1.706   0.141 -0.0839  0.1264 -0.5345
39432SOL    HW121701  10.003   1.623   0.101  0.4962  0.5715 -1.1091
39432SOL    HW221702  10.044   1.768   0.111 -0.1736  0.6748  0.3668
39433SOL     OW21703   4.996   0.903   8.071  0.1971 -0.4043  0.0178
39433SOL    HW121704   5.076   0.853   8.059  2.2372  2.9741 -0.9993
39433SOL    HW221705   4.963   0.919   7.983 -0.0637  0.6554  0.3038
39434SOL     OW21706   3.869   3.864   3.247 -0.2574 -0.6924 -0.2203
39434SOL    HW121707   3.929   3.871   3.172  1.2720 -0.4477  0.9964
39434SOL    HW221708   3.786   3.838   3.208  0.0694  1.0558 -2.1911
39435SOL     OW21709   4.944   6.402   2.636 -0.9063 -0.2117  1.0352
39435SOL    HW121710   4.877   6.338   2.614 -1.6607 -0.3677  3.5723
39435SOL    HW221711   5.027   6.353   2.628 -1.3092 -0.8728  0.8202
39436SOL     OW21712   2.664   4.334   4.366 -0.0029 -0.1274  0.1856
39436SOL    HW121713   2.575   4.300   4.367 -0.0288 -0.0840 -0.4848
39436SOL    HW221714   2.709   4.283   4.298 -0.2009  1.5570 -1.2509
39437SOL     OW21715   1.340   6.643   7.469  0.2379  0.2830 -0.2559
39437SOL    HW121716   1.382   6.559   7.491 -2.7677 -1.6480 -1.4853
39437SOL    HW221717   1.382   6.670   7.387  1.9155  0.4779  0.6649
39438SOL     OW21718   5.358   0.441   5.644 -0.1347 -0.0143 -0.2227
39438SOL    HW121719   5.443   0.410   5.614  0.5259  0.5647  1.0125
39438SOL    HW221720   5.321   0.366   5.691  0.7696  0.5068  1.3692
39439SOL     OW21721   5.999   3.999   2.064 -0.2176 -0.2218  0.4289
39439SOL    HW121722   5.921   4.007   2.009 -0.8644 -0.4060  1.3026
39439SOL    HW221723   5.973   4.038   2.147  0.9434  0.6163  0.4157
39440SOL     OW21724   5.267   1.729   1.176 -0.3860 -0.0371  0.2013
39440SOL    HW121725   5.301   1.720   1.087 -0.8182 -0.0024  0.0278
39440SOL    HW221726   5.239   1.641   1.200 -1.7436  0.2265 -0.3132
39441SOL     OW21727   3.567   1.902   2.518  0.2250  0.6020  0.1291
39441SOL    HW121728   3.567   1.808   2.536  1.4310  1.0580  2.8518
39441SOL    HW221729   3.650   1.919   2.475  0.3025  0.5134  0.2445
39442SOL     OW21730   8.607   1.012   3.475  0.8062 -0.5038 -0.4665
39442SOL    HW121731   8.570   1.090   3.433 -0.0306 -0.8520 -0.3706
39442SOL    HW221732   8.624   1.039   3.565 -2.1754 -1.2654  0.3765
39443SOL     OW21733   3.612   2.721   1.470 -0.1217 -0.4657  0.3579
39443SOL    HW121734   3.602   2.775   1.549  1.9966 -0.2451  0.5190
39443SOL    HW221735   3.652   2.640   1.502  0.1552 -0.6269 -0.3923
39444SOL     OW21736   8.016   0.408   7.526 -0.1999 -0.0657  0.7174
39444SOL    HW121737   7.981   0.321   7.504  0.1029  0.4928 -2.1515
39444SOL    HW221738   8.111   0.395   7.528 -0.1203  0.3137 -0.3350
39445SOL     OW21739   5.417   1.161   8.517 -0.0158 -0.0520  0.4493
39445SOL    HW121740   5.414   1.251   8.548  1.4541 -0.5169  2.0656
39445SOL    HW221741   5.505   1.151   8.481  0.1147 -1.0538  1.0256
39446SOL     OW21742   3.902   2.589  10.677  0.0497  0.0139 -0.4809
39446SOL    HW121743   3.975   2.645  10.651  0.6022  0.3812  1.7845
39446SOL    HW221744   3.927   2.502  10.648  1.0742  0.2494 -0.3306
39447SOL     OW21745   0.020   6.642   9.954  0.5212 -0.0940  0.3121
39447SOL    HW121746   0.058   6.564   9.915 -0.1423  0.2683 -1.0816
39447SOL    HW221747   0.059   6.647  10.041  0.6173 -1.9320  0.3835
39448SOL     OW21748   2.514   2.624   9.984  0.3943  0.1944  0.0074
39448SOL    HW121749   2.608   2.643   9.981  0.6124 -0.9279 -0.5763
39448SOL    HW221750   2.508   2.532   9.960 -0.9071  0.4120 -0.5219
39449SOL     OW21751   9.742   9.231  10.104  0.7457  0.5350  0.3612
39449SOL    HW121752   9.683   9.170  10.148  0.7520  0.7480  0.6620
39449SOL    HW221753   9.829   9.201  10.128  0.7925 -0.3577 -0.8461
39450SOL     OW21754   9.909   1.785   5.007 -0.3744  0.2378 -0.3467
39450SOL    HW121755   9.825   1.739   5.005 -0.2072 -0.3808  3.4735
39450SOL    HW221756   9.890   1.869   5.047  0.4668  1.0298 -1.5482
39451SOL     OW21757   8.405   9.408   9.987  0.6063  0.5964 -0.1087
39451SOL    HW121758   8.340   9.424   9.919 -0.5152  0.4329  0.9244
39451SOL    HW221759   8.445   9.324   9.964 -1.9450 -0.9962  1.1442
39452SOL     OW21760   3.651   4.440   6.831 -0.0650  0.1166 -0.5362
39452SOL    HW121761   3.663   4.370   6.766  1.7733  0.2098 -0.3163
39452SOL    HW221762   3.573   4.487   6.801 -0.7483 -1.4190 -1.2330
39453SOL     OW21763   4.549   3.422   1.643  0.4636 -0.4404 -0.2519
39453SOL    HW121764   4.540   3.461   1.729  1.2698 -0.1367 -0.2953
39453SOL    HW221765   4.533   3.494   1.582 -1.3366 -0.9365 -0.3737
39454SOL     OW21766   8.838   0.265   2.707  0.0100 -0.1477  0.3020
39454SOL    HW121767   8.772   0.332   2.685 -1.2347 -1.0282  1.2819
39454SOL    HW221768   8.917   0.315   2.725 -0.3269  0.9217 -1.0983
39455SOL     OW21769   2.699   7.364   3.258  0.5896 -0.5553  0.1147
39455SOL    HW121770   2.737   7.437   3.209  0.0878 -0.7786 -0.6178
39455SOL    HW221771   2.761   7.348   3.329 -0.0715  1.6180  1.2225
39456SOL     OW21772   6.362   6.152   7.380 -0.0611  0.1042  0.5854
39456SOL    HW121773   6.410   6.206   7.317 -2.6514 -0.8280 -2.3120
39456SOL    HW221774   6.365   6.202   7.462  2.1879  2.0312 -0.6214
39457SOL     OW21775   7.840   1.306   0.254 -0.2904  1.4549 -0.2563
39457SOL    HW121776   7.793   1.268   0.180  0.4773  0.9137 -0.4748
39457SOL    HW221777   7.841   1.237   0.320  1.4800  0.9302 -0.8146
39458SOL     OW21778  10.568   7.504   0.720  0.0979  0.1557 -1.0837
39458SOL    HW121779  10.514   7.583   0.727  0.4820  0.3501 -0.3453
39458SOL    HW221780  10.626   7.521   0.646 -0.3781  0.2263 -1.4479
39459SOL     OW21781   3.791   6.424   6.205  0.4550 -0.0301  0.1195
39459SOL    HW121782   3.860   6.360   6.189 -0.5026 -1.2930  0.9822
39459SOL    HW221783   3.713   6.372   6.226 -0.2252  1.4140  1.3184
39460SOL     OW21784   3.230   9.279   2.304  0.1642  0.1659  0.2087
39460SOL    HW121785   3.219   9.320   2.218  0.6872  0.5900  0.3449
39460SOL    HW221786   3.175   9.331   2.363  0.7683  0.6204  0.3671
39461SOL     OW21787   4.307   7.037   8.589 -0.6539 -0.0783  0.3190
39461SOL    HW121788   4.401   7.048   8.598 -0.5143 -1.1141  0.2707
39461SOL    HW221789   4.274   7.121   8.559  0.2201  0.3692  0.6208
39462SOL     OW21790   4.156   9.415   6.026 -0.2513  0.1897  0.8456
39462SOL    HW121791   4.224   9.462   6.075  0.3512  3.0988 -2.6132
39462SOL    HW221792   4.103   9.484   5.986 -2.2797 -2.0779 -0.5215
39463SOL     OW21793   6.827   0.273   3.914  0.2441  0.4609 -0.6571
39463SOL    HW121794   6.796   0.241   3.829 -1.6082 -2.8992  1.2017
39463SOL    HW221795   6.901   0.215   3.936 -2.1664 -1.7607  2.0315
39464SOL     OW21796   7.954   0.487   0.940  0.6128  0.0857  0.2214
39464SOL    HW121797   7.978   0.400   0.909 -0.3161  0.3920 -1.3729
39464SOL    HW221798   7.924   0.534   0.862  2.5800  2.3648  0.7580
39465SOL     OW21799   8.734  10.970   3.160  0.0329 -0.5158  0.5400
39465SOL    HW121800   8.661  11.032   3.166 -0.4062 -1.1049  1.4937
39465SOL    HW221801   8.784  10.998   3.084 -2.3193 -1.3390 -1.3641
39466SOL     OW21802   5.313   0.397   1.496 -0.1085  0.3351  0.0901
39466SOL    HW121803   5.328   0.348   1.577 -1.1141 -0.9698 -0.5005
39466SOL    HW221804   5.244   0.460   1.519  0.9730  1.2922  0.7649
39467SOL     OW21805   6.616   4.004   9.273 -0.2077  0.0908 -0.4976
39467SOL    HW121806   6.629   3.963   9.359  1.0539  1.8519  0.1842
39467SOL    HW221807   6.522   4.001   9.259 -0.4303 -0.1278  1.0013
39468SOL     OW21808   6.394   4.135   1.210 -0.0439  0.0951  0.0867
39468SOL    HW121809   6.450   4.084   1.151  0.2179  0.6179 -0.1149
39468SOL    HW221810   6.386   4.220   1.169 -2.0310 -0.3595 -0.5246
39469SOL     OW21811   0.232   5.217   9.565 -0.4522  0.0112 -0.0633
39469SOL    HW121812   0.261   5.294   9.517  0.9402  0.6020  1.6765
39469SOL    HW221813   0.288   5.214   9.642 -1.6048 -1.8001  0.7439
39470SOL     OW21814   0.588   4.825   9.322  0.3946  0.2678 -0.4794
39470SOL    HW121815   0.604   4.730   9.323  0.0213  0.1820 -1.6656
39470SOL    HW221816   0.545   4.842   9.406  0.7116 -0.5725 -0.1377
39471SOL     OW21817   0.626   0.069   8.673  0.2915 -0.1820  0.0073
39471SOL    HW121818   0.620   0.012   8.750 -0.6346  0.0089  0.0852
39471SOL    HW221819   0.568   0.029   8.608  0.1060  0.3350 -0.1508
39472SOL     OW21820   8.590  10.888   2.312 -0.3601  0.2619 -0.5585
39472SOL    HW121821   8.677  10.858   2.285 -0.1483  1.5411 -1.2999
39472SOL    HW221822   8.583  10.860   2.403 -0.1930 -2.0999 -1.2319
39473SOL     OW21823   1.383   5.931   1.682  0.6562 -0.2761  0.0008
39473SOL    HW121824   1.300   5.910   1.638  0.9207 -2.4932  0.5056
39473SOL    HW221825   1.368   6.017   1.721 -1.0755 -0.2064 -0.7667
39474SOL     OW21826   7.104   8.107   8.594  0.2535  0.2327  0.0531
39474SOL    HW121827   7.076   8.074   8.679 -1.0938 -0.5413 -0.6586
39474SOL    HW221828   7.199   8.100   8.594  0.0621 -2.9573  0.2219
39475SOL     OW21829   2.876   4.124   2.876 -0.0807 -0.1707  0.2054
39475SOL    HW121830   2.826   4.091   2.802 -0.8333 -0.2147  0.7306
39475SOL    HW221831   2.967   4.101   2.856 -0.2532 -0.0040 -0.7938
39476SOL     OW21832   7.884   0.940   5.774 -0.0053 -0.6493 -0.0864
39476SOL    HW121833   7.897   0.929   5.868  0.3917  2.2959  0.2428
39476SOL    HW221834   7.792   0.966   5.766  0.0854 -0.4491 -0.4624
39477SOL     OW21835   6.456   6.945   9.746 -0.3696  0.2441 -0.6967
39477SOL    HW121836   6.502   6.862   9.759 -0.2261 -0.1535 -3.4098
39477SOL    HW221837   6.375   6.935   9.796 -0.6957 -1.8467 -1.5739
39478SOL     OW21838   8.905   3.774   3.019  0.3402 -0.3128  0.0760
39478SOL    HW121839   8.851   3.817   2.954  0.2690 -1.2961 -0.5269
39478SOL    HW221840   8.988   3.823   3.019 -0.0204  0.2939 -0.0391
39479SOL     OW21841  10.876   9.231   3.499 -0.0680 -0.5516 -0.1575
39479SOL    HW121842  10.960   9.258   3.535  0.5739 -0.9142 -1.3625
39479SOL    HW221843  10.832   9.313   3.476 -0.7344 -0.2914  1.9813
39480SOL     OW21844   3.194   7.150   3.535  0.0390 -0.1519  0.1578
39480SOL    HW121845   3.196   7.210   3.461 -0.8278  0.7338  0.8299
39480SOL    HW221846   3.101   7.141   3.556  0.1959 -1.3344  0.3861
39481SOL     OW21847   8.417   7.408   5.864 -0.1775 -0.5997  0.5996
39481SOL    HW121848   8.322   7.414   5.864 -0.1307  0.2175  0.7462
39481SOL    HW221849   8.447   7.499   5.859  0.5932 -0.8741  0.1193
39482SOL     OW21850   8.458   6.604   9.359  0.1468 -0.7162  0.3694
39482SOL    HW121851   8.452   6.513   9.328 -0.3672 -0.3683 -0.5665
39482SOL    HW221852   8.462   6.656   9.279 -0.7870  0.1724  0.8976
39483SOL     OW21853   9.981   9.611   5.622  0.6788 -0.4500  0.2124
39483SOL    HW121854  10.030   9.542   5.578 -2.0796 -1.6732 -1.0791
39483SOL    HW221855  10.001   9.691   5.572  1.4492 -0.8879 -0.1947
39484SOL     OW21856   4.407  10.711   4.897  0.2410  0.1406 -0.8236
39484SOL    HW121857   4.498  10.696   4.924 -0.1525  0.1571  0.5147
39484SOL    HW221858   4.414  10.783   4.834  1.1128  0.4566 -0.3847
39485SOL     OW21859   2.487   0.498   8.841 -0.0238 -0.0776 -0.2614
39485SOL    HW121860   2.529   0.562   8.899  0.6153 -0.7304  0.0021
39485SOL    HW221861   2.397   0.492   8.873  0.0661  0.2733  0.0588
39486SOL     OW21862   6.796   2.012   1.468 -0.0470 -0.3707 -0.6743
39486SOL    HW121863   6.776   2.098   1.430  3.0199 -0.3733 -2.4986
39486SOL    HW221864   6.837   2.032   1.552  0.8181 -0.0170 -1.1719
39487SOL     OW21865   0.369   6.531   7.487 -0.0073  0.3771  0.0467
39487SOL    HW121866   0.437   6.598   7.481  1.4645 -1.1023  0.0074
39487SOL    HW221867   0.294   6.570   7.441  0.9506  1.8268 -0.3436
39488SOL     OW21868   4.802   7.072   4.488 -0.3263 -0.6725 -0.2927
39488SOL    HW121869   4.869   7.050   4.553  0.0130  1.8309  0.2560
39488SOL    HW221870   4.743   7.131   4.535 -1.0645 -0.2293 -1.7717
39489SOL     OW21871   6.244   3.830   4.509 -0.1398 -0.4638  0.3503
39489SOL    HW121872   6.151   3.817   4.530 -0.5315 -0.8460 -1.5645
39489SOL    HW221873   6.270   3.748   4.466  0.4507  0.5516 -1.2593
39490SOL     OW21874   2.826   7.601   7.783 -0.4994  0.1139  0.1181
39490SOL    HW121875   2.842   7.520   7.734 -2.6777  0.3663 -1.0814
39490SOL    HW221876   2.905   7.653   7.770  0.9836 -1.8342  0.9889
39491SOL     OW21877  10.174   5.453   7.494 -0.1434 -0.2483 -0.0119
39491SOL    HW121878  10.153   5.541   7.463  1.2101 -0.0672 -0.4739
39491SOL    HW221879  10.110   5.396   7.452 -0.7057  0.4647 -0.1163
39492SOL     OW21880   4.332   4.040   1.247 -0.1967 -0.1784  0.3033
39492SOL    HW121881   4.378   4.097   1.308 -0.9673  0.2628  0.4855
39492SOL    HW221882   4.239   4.061   1.260 -0.5137 -1.6424  0.5543
39493SOL     OW21883   3.456   4.951   5.023 -0.0465  0.8115  0.3322
39493SOL    HW121884   3.429   5.015   5.089 -0.2861 -0.2792  1.2992
39493SOL    HW221885   3.393   4.962   4.951  0.5655  2.4043  0.0195
39494SOL     OW21886   7.569   3.528   9.121 -0.2501  0.6303 -0.0414
39494SOL    HW121887   7.581   3.610   9.170  2.3330  1.3186 -1.6959
39494SOL    HW221888   7.658   3.503   9.096 -1.1069 -2.2178 -0.3383
39495SOL     OW21889   5.750   6.075   1.853  0.0200  0.6443  0.4465
39495SOL    HW121890   5.811   6.003   1.838  1.6413  2.1418 -0.4045
39495SOL    HW221891   5.712   6.058   1.939  2.0289 -0.0514  1.2124
39496SOL     OW21892   4.149   6.382   0.414 -0.4959  0.4321 -0.0864
39496SOL    HW121893   4.059   6.353   0.432 -0.3308  0.0509  0.1418
39496SOL    HW221894   4.142   6.433   0.333 -1.2149  2.0444  0.9730
39497SOL     OW21895   9.013   7.675   8.259 -0.3803  0.0929 -0.2401
39497SOL    HW121896   9.090   7.667   8.314 -0.6749 -1.2374 -0.0188
39497SOL    HW221897   9.003   7.770   8.246  0.8932  0.3041  0.2684
39498SOL     OW21898   3.071   2.039   3.699 -0.0750 -0.0536 -0.3321
39498SOL    HW121899   3.086   1.987   3.778  1.4486 -1.6236 -1.6169
39498SOL    HW221900   3.022   2.116   3.729 -0.6720 -1.2890  1.9086
39499SOL     OW21901   8.531   7.672   5.826 -0.1054  0.4266 -0.4709
39499SOL    HW121902   8.569   7.677   5.738  0.1858  0.7648 -0.3283
39499SOL    HW221903   8.606   7.652   5.883 -0.2114  0.7017 -0.2358
39500SOL     OW21904   0.019   1.296  10.817 -0.7564 -0.2840  0.0417
39500SOL    HW121905  -0.026   1.251  10.889 -0.5445 -0.0747  0.3066
39500SOL    HW221906   0.031   1.228  10.750  1.2724 -1.1067  1.2103
39501SOL     OW21907  10.079   2.155   7.252  0.5405  0.0843  0.4834
39501SOL    HW121908  10.096   2.134   7.344 -0.2039  1.8695  1.0456
39501SOL    HW221909  10.166   2.169   7.214  0.8202 -0.1732  1.0322
39502SOL     OW21910   8.847   3.203   1.489  0.2042  0.0005 -0.0121
39502SOL    HW121911   8.852   3.246   1.574 -1.1431 -0.1616  0.1541
39502SOL    HW221912   8.864   3.273   1.425 -0.5114  0.4824  0.3199
39503SOL     OW21913  10.600   2.738   2.789  0.9816  0.0447  0.0309
39503SOL    HW121914  10.562   2.670   2.732 -1.2329  1.4291 -0.2275
39503SOL    HW221915  10.551   2.817   2.766  1.3992  1.0509  2.5068
39504SOL     OW21916   9.075   9.892   9.112 -0.0655 -0.1475 -0.3718
39504SOL    HW121917   9.076   9.960   9.045  0.8734  1.5568  1.3189
39504SOL    HW221918   9.161   9.897   9.153 -0.5617 -1.2633  0.8528
39505SOL     OW21919   6.210   5.154   6.207 -0.5562 -0.1718 -0.3572
39505SOL    HW121920   6.180   5.212   6.278  0.2978 -0.1049 -0.0452
39505SOL    HW221921   6.150   5.080   6.210 -1.0707  0.2504 -0.1355
39506SOL     OW21922   6.837   8.970   5.879  0.5549  0.3377  0.2378
39506SOL    HW121923   6.919   8.924   5.863  0.2368 -0.5445  1.1006
39506SOL    HW221924   6.857   9.032   5.949  0.4030 -0.1213  0.6915
39507SOL     OW21925  10.192   2.754   7.293 -0.2988  0.0696 -0.1226
39507SOL    HW121926  10.215   2.677   7.345  1.6511 -0.7184 -2.0424
39507SOL    HW221927  10.157   2.817   7.356 -0.2844 -1.7443  1.7323
39508SOL     OW21928   6.753   8.660   2.439  0.2681  0.5131  0.3563
39508SOL    HW121929   6.756   8.720   2.515  0.8731  1.1445 -0.1585
39508SOL    HW221930   6.665   8.624   2.441  0.2832  0.5196  1.3772
39509SOL     OW21931   1.325   7.065  10.647  0.2194  0.0486  0.2155
39509SOL    HW121932   1.405   7.104  10.682  0.0855  0.0547  0.5209
39509SOL    HW221933   1.325   6.975  10.680 -0.1972  0.2281  0.7176
39510SOL     OW21934   7.071   5.142   4.609 -0.2949  0.2673  0.3947
39510SOL    HW121935   7.062   5.181   4.522  0.9506  1.0624  0.6049
39510SOL    HW221936   7.045   5.210   4.670  2.5027  1.0633  0.7926
39511SOL     OW21937   9.784   8.361   4.223  0.4930  0.4644  0.2387
39511SOL    HW121938   9.740   8.432   4.176  0.5714 -0.1940 -0.8592
39511SOL    HW221939   9.868   8.399   4.249  0.6868  0.6670 -0.6567
39512SOL     OW21940   5.230   5.021   1.944  0.6186 -0.3189  0.0637
39512SOL    HW121941   5.189   5.033   2.030 -0.2008 -0.0635 -0.3643
39512SOL    HW221942   5.270   5.106   1.925  3.1163 -1.1554  1.3977
39513SOL     OW21943   6.107   0.529   8.867  0.1326 -0.2568  0.2817
39513SOL    HW121944   6.058   0.463   8.818 -1.1711  1.1801 -0.3662
39513SOL    HW221945   6.042   0.570   8.923  0.8252  0.8875  0.2605
39514SOL     OW21946   4.941   5.485   0.953  0.4914  0.0213 -1.0184
39514SOL    HW121947   4.923   5.561   1.009  2.6602  0.6587 -1.1381
39514SOL    HW221948   4.907   5.411   1.002 -1.5661  1.0411 -0.8502
39515SOL     OW21949   2.767   0.024   9.311 -0.1077  0.3464 -0.3699
39515SOL    HW121950   2.684   0.067   9.331 -0.0840  0.6636 -0.9427
39515SOL    HW221951   2.828   0.096   9.296  0.4483  0.1201  0.7569
39516SOL     OW21952   4.751   9.177   1.863  0.1815 -1.2172  0.1288
39516SOL    HW121953   4.834   9.180   1.816  0.3620 -0.7968  0.4709
39516SOL    HW221954   4.721   9.268   1.865  0.4672 -1.1432  1.3486
39517SOL     OW21955   1.132   7.460   4.013 -0.1103 -0.2356 -0.3189
39517SOL    HW121956   1.203   7.429   4.069  0.2131 -0.5738 -0.9112
39517SOL    HW221957   1.052   7.440   4.061 -0.0342 -3.9468 -1.6223
39518SOL     OW21958   8.534   8.025   4.715  0.3593 -0.4682 -0.6958
39518SOL    HW121959   8.551   7.931   4.709  0.6045 -0.6155  1.8954
39518SOL    HW221960   8.532   8.044   4.809 -2.7163  1.5683 -1.0761
39519SOL     OW21961   2.577   9.054   5.867 -0.2711 -0.3457  0.1633
39519SOL    HW121962   2.625   9.117   5.813  0.0064  0.9779  1.8768
39519SOL    HW221963   2.645   9.012   5.920 -0.6844 -0.6204  0.4728
39520SOL     OW21964   2.285   7.986   0.621  0.5921 -0.0233 -0.2875
39520SOL    HW121965   2.327   7.901   0.637  1.8634  0.5446 -0.6148
39520SOL    HW221966   2.308   8.008   0.531  1.0824  1.1469  0.1228
39521SOL     OW21967   1.147   9.102   5.018 -0.0644 -0.0943  0.0857
39521SOL    HW121968   1.225   9.047   5.022 -1.5639 -2.2680  0.5312
39521SOL    HW221969   1.147   9.137   4.930  1.5135  0.0667  0.1390
39522SOL     OW21970   2.424   1.340   6.883 -0.2103 -0.6207  0.1271
39522SOL    HW121971   2.477   1.356   6.805 -0.5811  1.5056  0.3010
39522SOL    HW221972   2.418   1.244   6.888  0.5229 -0.8026 -1.9602
39523SOL     OW21973   9.092   6.448   5.068 -0.3500 -0.2180  0.1297
39523SOL    HW121974   9.039   6.480   4.995  0.8643  0.5417 -0.4371
39523SOL    HW221975   9.046   6.478   5.146  0.3878  2.3828 -0.3761
39524SOL     OW21976   1.840   3.889   9.740 -0.2334  0.7174 -0.1291
39524SOL    HW121977   1.810   3.846   9.660  1.5741 -0.2812 -0.2993
39524SOL    HW221978   1.817   3.827   9.810  0.4369  0.4496 -0.1462
39525SOL     OW21979   2.085   4.933   0.269 -0.5502 -0.4209 -0.3484
39525SOL    HW121980   2.103   4.841   0.246  0.3879 -0.5055  0.6821
39525SOL    HW221981   2.158   4.982   0.230 -0.6152 -0.2038 -0.1947
39526SOL     OW21982   0.877   3.792   7.819 -0.2053 -0.0312 -0.6147
39526SOL    HW121983   0.888   3.697   7.826  0.6052 -0.1465 -3.0914
39526SOL    HW221984   0.932   3.817   7.746 -1.9903  2.0802 -1.2804
39527SOL     OW21985   3.907   4.937   3.570  0.1788  0.3458 -0.4397
39527SOL    HW121986   3.908   5.030   3.547  0.9089  0.7716  1.2077
39527SOL    HW221987   3.855   4.933   3.650  2.4250 -0.2709  1.0281
39528SOL     OW21988  10.237   8.717   0.284  0.2655 -0.2190 -0.5684
39528SOL    HW121989  10.309   8.698   0.345 -0.9477 -0.5024  0.8030
39528SOL    HW221990  10.227   8.812   0.287 -0.3755 -0.3074  0.3744
39529SOL     OW21991   0.025   6.786   5.987 -0.4964  0.4068 -0.0238
39529SOL    HW121992   0.036   6.881   5.977  2.7536  0.2421  1.2106
39529SOL    HW221993   0.072   6.749   5.913 -2.2734 -0.2592 -0.8369
39530SOL     OW21994   6.548   0.959  10.917  1.0031 -0.6694  0.1730
39530SOL    HW121995   6.592   1.043  10.908 -0.7286  0.3726  1.1434
39530SOL    HW221996   6.528   0.951  11.010 -0.6247 -1.2161 -0.1971
39531SOL     OW21997   8.205   2.614  10.911  0.4152 -0.1180  0.1841
39531SOL    HW121998   8.264   2.551  10.951  1.9623 -0.7366 -2.9192
39531SOL    HW221999   8.225   2.697  10.954  3.0768 -0.4650 -0.3546
39532SOL     OW22000   8.934  10.501   6.091  0.2975 -0.4136  0.2690
39532SOL    HW122001   8.863  10.452   6.134  0.6278 -0.4756  0.7364
39532SOL    HW222002   8.962  10.565   6.156 -0.9131  1.1788 -0.7475
39533SOL     OW22003  10.394   8.326   0.505  0.0725 -0.0472 -0.2559
39533SOL    HW122004  10.392   8.284   0.591 -0.1753 -0.4966 -0.4768
39533SOL    HW222005  10.487   8.341   0.487  0.3178 -2.3458 -1.0547
39534SOL     OW22006   6.198   1.348   0.710  0.4201  0.3543  1.0625
39534SOL    HW122007   6.175   1.259   0.736  1.6798 -0.0713  0.7844
39534SOL    HW222008   6.266   1.337   0.644  0.7063  1.5301  1.1389
39535SOL     OW22009   7.870   1.707   6.549 -0.0953  0.2073 -0.5373
39535SOL    HW122010   7.942   1.705   6.486  1.3917 -0.2021  1.1032
39535SOL    HW222011   7.893   1.778   6.608  1.1548 -2.4911  2.4098
39536SOL     OW22012   3.336   9.023   4.901 -0.5578  0.2143 -0.3946
39536SOL    HW122013   3.411   8.965   4.886 -1.1215 -0.3294 -1.0746
39536SOL    HW222014   3.333   9.032   4.996  0.1740 -0.0201 -0.3385
39537SOL     OW22015   5.997   4.917   7.162 -0.2618 -0.6074 -0.2342
39537SOL    HW122016   5.912   4.878   7.139 -0.4731  0.0913 -0.6492
39537SOL    HW222017   6.015   4.980   7.092 -0.4072  0.7764  0.9398
39538SOL     OW22018   5.348   8.657  10.927  0.3618 -0.8225  0.1208
39538SOL    HW122019   5.383   8.739  10.892 -0.2632  0.4611  2.4521
39538SOL    HW222020   5.338   8.601  10.849  1.9181  0.8541 -1.3459
39539SOL     OW22021  10.202   3.095   3.334  0.3710  0.5223  0.4112
39539SOL    HW122022  10.207   3.014   3.285  0.0146  0.5948  0.2494
39539SOL    HW222023  10.158   3.071   3.416  0.6209  0.4759  0.5333
39540SOL     OW22024   1.876   3.486   6.355 -0.4577 -0.1229  0.3778
39540SOL    HW122025   1.874   3.551   6.425 -2.1971  2.0829 -1.6198
39540SOL    HW222026   1.969   3.469   6.340 -0.0608 -0.5296  3.0833
39541SOL     OW22027   7.392   3.742   0.173 -0.2591 -0.3008 -0.1600
39541SOL    HW122028   7.317   3.800   0.161 -0.1582  0.6085  3.2469
39541SOL    HW222029   7.357   3.665   0.217  0.4928 -0.6384 -0.1423
39542SOL     OW22030   5.067  10.427   9.169  0.6165 -0.5721 -0.0623
39542SOL    HW122031   5.029  10.398   9.252  1.2652  2.3875  1.3310
39542SOL    HW222032   5.005  10.492   9.136  1.0694 -0.7164 -1.2167
39543SOL     OW22033   0.152   3.397   8.005 -0.0209  0.4370  0.2390
39543SOL    HW122034   0.073   3.435   8.043  0.6009  2.6861 -0.6569
39543SOL    HW222035   0.224   3.438   8.052  0.6930  1.4148 -1.6605
39544SOL     OW22036   5.653   8.383   2.220  0.3342  0.4144 -0.1582
39544SOL    HW122037   5.648   8.291   2.195  0.1015  0.4242 -0.1518
39544SOL    HW222038   5.648   8.382   2.315 -0.6977  0.4961 -0.2044
39545SOL     OW22039   9.125   3.667   9.135  0.2411  0.3538 -0.5876
39545SOL    HW122040   9.029   3.670   9.125  0.0889  1.4174  0.9808
39545SOL    HW222041   9.142   3.715   9.216  1.9689 -1.5390  0.2066
39546SOL     OW22042   0.365   3.783   8.231 -0.0965  0.5439  0.1825
39546SOL    HW122043   0.409   3.774   8.316 -1.7614  1.6585  1.1905
39546SOL    HW222044   0.360   3.694   8.197  2.5305  0.3321  0.2406
39547SOL     OW22045   6.738   4.363   9.405 -0.2304 -0.0140  0.2865
39547SOL    HW122046   6.773   4.279   9.377 -0.8768  0.3890 -1.7888
39547SOL    HW222047   6.670   4.340   9.470 -1.5071 -1.1940 -1.4198
39548SOL     OW22048   5.400   9.881   0.691  0.1846 -0.6167  0.3839
39548SOL    HW122049   5.416   9.800   0.739 -0.2439 -0.9319 -0.0027
39548SOL    HW222050   5.362   9.940   0.756 -0.0347 -0.9164  0.5281
39549SOL     OW22051   6.572   8.430   6.847 -0.3732 -0.2500  0.1385
39549SOL    HW122052   6.594   8.467   6.932 -0.2987 -0.4114  0.1891
39549SOL    HW222053   6.490   8.382   6.862 -1.7676  1.8701 -0.4395
39550SOL     OW22054   7.267   5.979   9.949 -0.0976 -0.2082 -0.3277
39550SOL    HW122055   7.235   6.069   9.951 -1.1516 -0.5299 -1.6749
39550SOL    HW222056   7.270   5.957   9.856  1.0068 -1.2654 -0.0441
39551SOL     OW22057  10.251   8.547   0.585  0.4303  0.2860 -0.6323
39551SOL    HW122058  10.301   8.618   0.546  0.8104 -0.0329 -0.7335
39551SOL    HW222059  10.273   8.470   0.532  1.0479 -0.1758  0.2621
39552SOL     OW22060   5.224   2.542   3.796 -0.2763  0.1417  0.3907
39552SOL    HW122061   5.250   2.489   3.871  0.1471  0.0712  0.1909
39552SOL    HW222062   5.209   2.478   3.726  1.1830  0.3575 -0.1312
39553SOL     OW22063   6.294   6.927   2.703 -0.3308  0.0679 -0.0445
39553SOL    HW122064   6.370   6.954   2.652  0.1324 -1.5588 -0.2729
39553SOL    HW222065   6.324   6.931   2.794 -0.7649  1.7905  0.0311
39554SOL     OW22066   5.277   9.911   8.711  0.2667  0.1272  0.4125
39554SOL    HW122067   5.340   9.840   8.706 -0.2953 -0.2218 -2.4107
39554SOL    HW222068   5.313   9.980   8.655 -2.3877 -0.5857 -2.3268
39555SOL     OW22069  10.000  10.201   1.009 -0.9802 -0.0467  0.2967
39555SOL    HW122070  10.013  10.259   0.933 -1.9516  0.2814  0.3675
39555SOL    HW222071   9.946  10.130   0.976  1.0317 -1.4606 -0.0340
39556SOL     OW22072   1.928  10.542   4.224  0.4987 -0.4037 -0.6641
39556SOL    HW122073   1.939  10.449   4.247  1.6971 -0.3045 -0.8101
39556SOL    HW222074   1.844  10.545   4.179  1.6865 -1.9134 -3.1433
39557SOL     OW22075   8.428   3.785   8.142 -0.4649 -0.0110  0.1393
39557SOL    HW122076   8.402   3.847   8.210 -1.5104  0.0183 -0.2734
39557SOL    HW222077   8.353   3.781   8.083  1.0240  1.1621 -1.9169
39558SOL     OW22078   4.028   0.496   1.119 -0.7246 -0.1159  0.3000
39558SOL    HW122079   4.079   0.539   1.051 -2.2618  0.3185 -0.6104
39558SOL    HW222080   4.075   0.514   1.200 -1.0007  2.8168 -0.1385
39559SOL     OW22081   9.843   9.457   6.784  0.1530 -0.2252 -0.1288
39559SOL    HW122082   9.761   9.424   6.747  0.5332 -0.5304 -0.7049
39559SOL    HW222083   9.911   9.400   6.748  0.5446 -0.4659  0.9690
39560SOL     OW22084   6.458   8.456   5.021  0.3371 -0.1145 -0.6036
39560SOL    HW122085   6.432   8.516   4.952 -2.6427  1.0021  1.3577
39560SOL    HW222086   6.451   8.508   5.102 -0.6598 -2.5925  0.9644
39561SOL     OW22087   4.476   7.540   1.581  0.5150 -0.1997 -0.1126
39561SOL    HW122088   4.519   7.624   1.598  0.7695 -0.2515 -0.4758
39561SOL    HW222089   4.532   7.497   1.516  0.1213 -0.4360 -0.3024
39562SOL     OW22090   1.664   3.219   0.906  0.5818 -0.1762  0.7015
39562SOL    HW122091   1.666   3.292   0.845 -0.8637 -0.1058  0.7407
39562SOL    HW222092   1.696   3.255   0.989 -0.3898  0.4880  0.7933
39563SOL     OW22093   6.612   0.194   9.334 -1.0118  0.3591 -0.4856
39563SOL    HW122094   6.598   0.264   9.397  0.0383  1.1776 -1.1609
39563SOL    HW222095   6.684   0.143   9.370 -0.0861  1.1125 -1.2626
39564SOL     OW22096   7.557   5.843   5.301 -0.5950  0.8173  0.3234
39564SOL    HW122097   7.637   5.891   5.326  1.4974 -1.8327 -0.9830
39564SOL    HW222098   7.587   5.779   5.237 -3.6994 -0.7278  0.3234
39565SOL     OW22099   8.351  10.782   5.062 -0.2770  0.1821 -0.3458
39565SOL    HW122100   8.372  10.746   5.148 -1.4083 -0.9842 -0.5431
39565SOL    HW222101   8.417  10.745   5.003  0.3785  0.8255 -0.0216
39566SOL     OW22102   6.640   4.585   4.302 -0.3291 -0.3575 -0.3937
39566SOL    HW122103   6.562   4.533   4.284 -0.4306 -0.0266 -0.9315
39566SOL    HW222104   6.698   4.526   4.350 -0.3205 -1.0553 -1.2529
39567SOL     OW22105   9.600   7.238   9.095 -0.3134 -0.0564  0.0711
39567SOL    HW122106   9.575   7.159   9.047  0.6830 -0.1748 -0.2533
39567SOL    HW222107   9.686   7.261   9.061 -1.4696  2.3835 -1.3274
39568SOL     OW22108   6.586   8.152   9.051  0.4485  0.2800  0.1573
39568SOL    HW122109   6.670   8.126   9.090  0.1340 -3.5589 -1.5139
39568SOL    HW222110   6.610   8.186   8.964  0.1788 -3.5456 -1.5297
39569SOL     OW22111   4.699   4.576   1.262 -0.0880 -0.0697 -0.2248
39569SOL    HW122112   4.621   4.630   1.250  0.1296  0.6349  1.4222
39569SOL    HW222113   4.769   4.639   1.283  0.1262 -0.9864  1.9370
39570SOL     OW22114   8.972   2.046   9.457 -0.5396 -0.0716 -0.2358
39570SOL    HW122115   9.056   2.000   9.463  0.2387  1.3169 -0.3858
39570SOL    HW222116   8.995   2.137   9.437 -2.0811  0.3163 -0.3330
39571SOL     OW22117   9.050   0.092   3.161  0.6248 -0.7577  0.2043
39571SOL    HW122118   9.045   0.027   3.232  0.2922 -0.0945  0.7922
39571SOL    HW222119   8.988   0.160   3.187  0.8017 -0.3204 -0.5309
39572SOL     OW22120   1.434   3.558   7.827  0.1867  0.1232 -0.4708
39572SOL    HW122121   1.486   3.614   7.769  2.1777 -0.0982  1.0878
39572SOL    HW222122   1.428   3.606   7.909 -2.1541  0.1741 -0.6225
39573SOL     OW22123   0.103   7.524   5.012  0.2110  0.1595  0.1342
39573SOL    HW122124   0.156   7.456   5.054  1.5990  1.0689 -0.1140
39573SOL    HW222125   0.112   7.600   5.070  1.5775  1.2131 -1.4170
39574SOL     OW22126   5.318   7.695   4.954 -0.4530  0.5368  0.0376
39574SOL    HW122127   5.333   7.645   4.874  1.4574 -1.9795  1.9147
39574SOL    HW222128   5.223   7.700   4.962 -0.6668 -1.9760 -0.6987
39575SOL     OW22129   7.398   5.548   9.122 -0.2008  0.2060 -0.3430
39575SOL    HW122130   7.380   5.464   9.163 -0.1651  0.3381 -0.0498
39575SOL    HW222131   7.438   5.526   9.038 -0.2104 -0.0698 -0.2768
39576SOL     OW22132  10.477   2.687   8.999  0.2041 -0.3107 -0.3166
39576SOL    HW122133  10.529   2.622   8.951  0.1692  1.9277 -3.5629
39576SOL    HW222134  10.393   2.688   8.953  0.0757  1.6881 -0.0619
39577SOL     OW22135   2.796   3.497   7.521 -0.5850  0.4252 -0.1985
39577SOL    HW122136   2.767   3.557   7.453 -1.5165  1.4471  1.0575
39577SOL    HW222137   2.870   3.542   7.563 -0.9049  0.4410  0.3572
39578SOL     OW22138   4.598   7.050   9.233 -0.8247 -0.1243  0.6004
39578SOL    HW122139   4.624   7.058   9.142 -0.8323 -0.0837  0.6006
39578SOL    HW222140   4.605   6.957   9.253 -2.4806 -0.3619  0.0712
39579SOL     OW22141   7.524   7.009   1.168  0.4706 -0.0706 -0.1536
39579SOL    HW122142   7.562   6.992   1.254  1.3015  1.8174 -0.1194
39579SOL    HW222143   7.599   7.009   1.108  0.0206 -0.3522 -0.7231
39580SOL     OW22144   7.903   5.040   9.145 -0.0364  0.1094 -0.0554
39580SOL    HW122145   7.986   5.061   9.188  0.8715 -1.5647 -0.9296
39580SOL    HW222146   7.898   4.944   9.149 -0.1435 -0.0647 -3.2436
39581SOL     OW22147   7.444   2.073   0.116  0.0900 -0.8019 -0.3075
39581SOL    HW122148   7.494   2.013   0.061  0.6536 -0.7393  0.1292
39581SOL    HW222149   7.509   2.131   0.154 -0.5791  0.8702 -1.6669
39582SOL     OW22150   9.151   9.636   9.184 -0.5903 -0.5442  0.0840
39582SOL    HW122151   9.107   9.607   9.263 -0.8931 -0.2596  0.0255
39582SOL    HW222152   9.136   9.731   9.182  1.9936 -0.0701  1.2712
39583SOL     OW22153   3.850   7.551   3.502  0.0883 -0.0481  0.2286
39583SOL    HW122154   3.785   7.500   3.550 -0.9580 -0.0177 -1.1139
39583SOL    HW222155   3.893   7.604   3.568 -0.8960 -0.4620  1.2120
39584SOL     OW22156   9.512   4.380   5.372  0.5514 -0.1539 -0.1641
39584SOL    HW122157   9.439   4.363   5.432 -1.5428  0.8501 -2.3613
39584SOL    HW222158   9.586   4.335   5.412 -1.0983 -0.6535  2.4719
39585SOL     OW22159   1.115   8.342   6.896  0.5980  0.0754  0.1478
39585SOL    HW122160   1.070   8.379   6.971  0.2643  0.8781 -0.4386
39585SOL    HW222161   1.046   8.297   6.847  0.8403 -0.5748  0.3945
39586SOL     OW22162   9.046   3.601   1.741 -0.2792  0.4771  0.2038
39586SOL    HW122163   9.072   3.509   1.737 -0.2120  0.3946  2.0097
39586SOL    HW222164   8.984   3.605   1.814 -1.0304  1.6960 -0.4841
39587SOL     OW22165   0.402   4.906  10.413  0.0218  0.6543 -0.0315
39587SOL    HW122166   0.489   4.946  10.413  0.1946  0.2804  0.0241
39587SOL    HW222167   0.354   4.952  10.483  0.1868  0.8383 -0.0397
39588SOL     OW22168   9.183  10.562   6.265 -0.0884  0.0715 -0.2830
39588SOL    HW122169   9.247  10.595   6.329  0.6267  0.8120 -1.3682
39588SOL    HW222170   9.147  10.640   6.224 -1.0516 -0.3790 -0.3256
39589SOL     OW22171   6.483   5.372   4.677 -0.0735 -0.3589 -0.7943
39589SOL    HW122172   6.577   5.390   4.683  0.0195 -1.5278  1.8386
39589SOL    HW222173   6.477   5.276   4.679 -1.4956 -0.2758  3.0611
39590SOL     OW22174   7.023   7.515   7.900 -0.1100  0.2394 -0.3276
39590SOL    HW122175   6.992   7.456   7.969 -1.1981 -0.6430 -1.5448
39590SOL    HW222176   7.076   7.459   7.842  0.9931  1.0234 -0.0866
39591SOL     OW22177   5.904   6.570  10.947  0.6161 -0.7349  0.1796
39591SOL    HW122178   5.884   6.482  10.978  1.6075 -1.0743 -0.1498
39591SOL    HW222179   5.910   6.623  11.026  1.9517 -1.3560  0.4926
39592SOL     OW22180   3.788   5.410   7.086  0.0627  0.1733 -0.3355
39592SOL    HW122181   3.775   5.318   7.062 -0.7829  0.5552 -1.3924
39592SOL    HW222182   3.788   5.410   7.182 -2.5749 -0.5815 -0.2980
39593SOL     OW22183   6.376   1.823   8.044  0.4268 -0.7793  0.4518
39593SOL    HW122184   6.298   1.773   8.067 -0.3130  0.5910  0.9658
39593SOL    HW222185   6.387   1.886   8.115  0.9048  0.2851 -0.5318
39594SOL     OW22186   0.738   5.039   0.285  0.1730  0.3369 -0.3122
39594SOL    HW122187   0.685   5.092   0.225  0.7480  1.0015 -0.2468
39594SOL    HW222188   0.695   4.954   0.286 -1.0247  0.9268 -0.0933
39595SOL     OW22189   3.816   7.594   3.906  0.0986  0.5337  0.1409
39595SOL    HW122190   3.777   7.674   3.940  0.7690  0.9965 -0.1703
39595SOL    HW222191   3.743   7.547   3.866 -0.1540  1.3669 -0.3856
39596SOL     OW22192   1.586   2.468   4.712  0.0718  0.2902 -0.4869
39596SOL    HW122193   1.526   2.472   4.786  0.1622 -1.3373 -0.3219
39596SOL    HW222194   1.608   2.560   4.694 -2.7818  0.9549 -0.8187
39597SOL     OW22195   6.941   7.558   2.305 -0.2717 -0.3169  0.2488
39597SOL    HW122196   6.967   7.510   2.383 -2.7932 -0.9352  0.7563
39597SOL    HW222197   6.958   7.649   2.325 -1.7178 -0.3869  1.8883
39598SOL     OW22198   8.122   6.202   3.661 -0.2001 -0.1493 -0.9422
39598SOL    HW122199   8.032   6.227   3.644 -0.3720 -0.0995 -0.0011
39598SOL    HW222200   8.148   6.255   3.737 -0.0510 -1.5965  0.0585
39599SOL     OW22201   1.298   3.377   3.838  0.7645 -0.2841  0.8219
39599SOL    HW122202   1.257   3.381   3.751  0.9335  0.6335  0.7770
39599SOL    HW222203   1.328   3.467   3.854  3.6269 -1.1207  0.4093
39600SOL     OW22204   7.003   7.036   9.882  0.2382 -0.4019  0.2931
39600SOL    HW122205   7.056   7.088   9.942  1.6031 -0.9319 -0.4272
39600SOL    HW222206   6.916   7.036   9.921  0.8397  0.2076  1.6765
39601SOL     OW22207   6.717   2.536   4.039 -0.2711 -0.0920  0.4732
39601SOL    HW122208   6.686   2.574   4.121 -0.2015 -0.2776  0.5855
39601SOL    HW222209   6.643   2.484   4.007 -1.5189  2.6330 -1.2681
39602SOL     OW22210  10.741   3.409   7.585  0.0843 -0.0627 -0.3163
39602SOL    HW122211  10.739   3.483   7.524 -0.6832  0.5988  0.5057
39602SOL    HW222212  10.697   3.338   7.537 -2.3533  1.0396  0.1768
39603SOL     OW22213   0.596   3.990   2.647  0.1149  1.3278  0.2720
39603SOL    HW122214   0.514   4.025   2.611 -1.9123 -1.6709  1.7882
39603SOL    HW222215   0.646   4.068   2.671 -2.4449  3.2397 -0.3510
39604SOL     OW22216   4.085   3.741  10.477  0.0610 -0.8144  0.2639
39604SOL    HW122217   4.170   3.754  10.520  1.9292  0.5979 -3.6687
39604SOL    HW222218   4.035   3.820  10.498  0.1924 -1.0509  1.4912
39605SOL     OW22219   4.758   4.927   0.469  0.2674  0.3600 -0.1376
39605SOL    HW122220   4.799   4.903   0.552  0.0438 -2.3668 -0.7593
39605SOL    HW222221   4.814   4.885   0.403  0.1222  2.0295 -1.3462
39606SOL     OW22222  10.682   2.472   8.463 -0.3120 -0.9378 -0.6261
39606SOL    HW122223  10.743   2.429   8.523  1.7435  1.0469 -1.1987
39606SOL    HW222224  10.661   2.405   8.398  1.0946 -1.7335 -0.2749
39607SOL     OW22225   6.542   0.448   3.824  1.2704  0.2402 -0.7429
39607SOL    HW122226   6.525   0.518   3.887  0.9283 -0.1335 -0.4134
39607SOL    HW222227   6.562   0.372   3.878  1.6531  0.0864 -1.1013
39608SOL     OW22228   2.963   3.050   8.659  0.2161  0.4327 -0.0173
39608SOL    HW122229   3.026   2.983   8.633  1.6270  0.8873  2.1681
39608SOL    HW222230   3.012   3.110   8.714 -1.4936  2.2766 -0.4269
39609SOL     OW22231   9.425  10.680   7.784  0.5711 -0.4954  0.6356
39609SOL    HW122232   9.329  10.686   7.780  0.5332 -1.8248 -0.8233
39609SOL    HW222233   9.441  10.626   7.862  0.0061 -2.5214 -0.6115
39610SOL     OW22234   0.074   6.456   9.325 -0.3969 -0.3079 -0.4091
39610SOL    HW122235   0.127   6.446   9.246 -1.4399  1.0676 -1.3182
39610SOL    HW222236   0.128   6.508   9.384 -0.6899  1.0690 -1.3243
39611SOL     OW22237   3.121   6.956   6.199 -0.6557  0.1574 -0.0677
39611SOL    HW122238   3.075   6.997   6.272  0.8282  1.2065  0.3080
39611SOL    HW222239   3.070   6.978   6.122 -1.1051  0.8196  0.4146
39612SOL     OW22240   8.434   4.835   8.119 -0.1440 -0.1163  0.0644
39612SOL    HW122241   8.418   4.924   8.152 -1.7926 -0.0462 -0.8563
39612SOL    HW222242   8.373   4.826   8.046  0.2544 -1.8975 -0.0583
39613SOL     OW22243   4.894   7.941   6.584 -0.4674 -0.2354  0.2572
39613SOL    HW122244   4.936   7.855   6.591  0.6296  0.2276 -0.4620
39613SOL    HW222245   4.921   7.974   6.498 -2.6211 -0.0704 -0.3865
39614SOL     OW22246   8.187   8.724  10.911  0.2691  0.1056  0.5002
39614SOL    HW122247   8.092   8.723  10.917  0.1897  1.7469 -0.0475
39614SOL    HW222248   8.209   8.652  10.852 -0.4566 -1.7237  2.4160
39615SOL     OW22249   0.246   6.588   8.385  0.0594 -0.2136 -0.1310
39615SOL    HW122250   0.267   6.506   8.341  1.7311  0.4367 -0.5764
39615SOL    HW222251   0.185   6.564   8.454  0.4272 -1.8014 -0.3536
39616SOL     OW22252   4.556   3.121   3.427  0.2905  0.3268 -0.1523
39616SOL    HW122253   4.544   3.028   3.408 -0.1925 -0.0909  2.0511
39616SOL    HW222254   4.649   3.130   3.448 -0.0891 -0.1136  1.8371
39617SOL     OW22255   8.569   3.239   7.434  0.3633  0.2420  0.2878
39617SOL    HW122256   8.662   3.255   7.418  0.2770  3.6985  2.5356
39617SOL    HW222257   8.568   3.183   7.512  0.5560 -2.0604 -1.3318
39618SOL     OW22258   2.607   2.722  10.555 -0.1779 -0.5163 -0.0819
39618SOL    HW122259   2.560   2.724  10.472  0.2130 -2.3126 -0.3632
39618SOL    HW222260   2.679   2.783  10.544 -0.7610  0.0675 -0.6716
39619SOL     OW22261   7.887   3.983   0.302  0.1982  0.0237  0.7487
39619SOL    HW122262   7.978   3.976   0.332  0.1966 -0.3346  0.6706
39619SOL    HW222263   7.889   3.949   0.213  0.2322  1.2238  0.2757
39620SOL     OW22264   9.012   8.008   3.938 -0.1057 -0.2067  0.1780
39620SOL    HW122265   9.008   8.008   4.033 -0.4083  0.6909  0.1622
39620SOL    HW222266   8.955   8.080   3.911 -0.6432 -0.9525 -0.7064
39621SOL     OW22267   3.087  10.451   5.246 -0.0111  0.5401  0.2237
39621SOL    HW122268   3.049  10.450   5.333  2.1131  1.5702  1.1954
39621SOL    HW222269   3.092  10.359   5.221 -3.0727  0.3725  0.0490
39622SOL     OW22270   2.393   4.098   8.533 -0.5448  0.6676  0.5026
39622SOL    HW122271   2.310   4.074   8.574 -0.2334 -0.0392  0.7302
39622SOL    HW222272   2.428   4.168   8.588 -0.8832  0.8060  0.5410
39623SOL     OW22273   7.963   4.662   3.355  0.4801  0.3927 -0.0120
39623SOL    HW122274   8.045   4.684   3.310  0.5352  1.9651  0.7887
39623SOL    HW222275   7.895   4.676   3.289  0.6464  1.6995  0.0635
39624SOL     OW22276   1.110   0.269  10.359 -0.1471 -0.0323  0.0383
39624SOL    HW122277   1.020   0.288  10.332  0.3238  1.7948 -0.3531
39624SOL    HW222278   1.159   0.270  10.277  0.4421  0.3123  0.3939
39625SOL     OW22279  10.123   1.203   8.604 -0.2264  0.1294  0.5473
39625SOL    HW122280  10.166   1.153   8.535  0.6644 -0.6003  1.6198
39625SOL    HW222281  10.184   1.202   8.677 -0.7497  1.7049  1.0394
39626SOL     OW22282   9.945   9.861   2.698  0.2284  0.0436  0.2188
39626SOL    HW122283   9.859   9.902   2.700  0.5736  0.7661  0.3465
39626SOL    HW222284   9.929   9.774   2.661 -0.4989  0.3034 -0.0932
39627SOL     OW22285   3.522   2.642   0.492  0.4561 -0.0193  0.0606
39627SOL    HW122286   3.505   2.608   0.580 -1.9733 -0.0166 -0.3570
39627SOL    HW222287   3.584   2.581   0.454 -0.2055 -1.2890  0.9968
39628SOL     OW22288   2.511   2.084  10.688 -0.3989 -0.2110  0.5518
39628SOL    HW122289   2.477   2.019  10.627  0.2612 -1.2168  1.2388
39628SOL    HW222290   2.467   2.064  10.771 -0.4327  0.4241  0.6885
39629SOL     OW22291   6.240   6.990   8.523 -0.4989  0.0828  0.0282
39629SOL    HW122292   6.335   6.989   8.511 -0.4801 -1.3924  0.2915
39629SOL    HW222293   6.228   7.007   8.617 -0.4828 -1.0665  0.2342
39630SOL     OW22294   9.468   8.913   5.124 -0.1329  0.2203 -0.2243
39630SOL    HW122295   9.524   8.850   5.168  0.4160 -0.1984 -1.5143
39630SOL    HW222296   9.465   8.884   5.033 -1.2953  1.0493 -0.4673
39631SOL     OW22297   6.683   3.662   6.005 -0.0174 -0.0910 -0.3102
39631SOL    HW122298   6.647   3.731   5.950 -1.0424 -1.0494 -0.8768
39631SOL    HW222299   6.622   3.656   6.079  0.2791 -0.1244 -0.0681
39632SOL     OW22300  10.691  10.597   4.767  0.3875 -0.7715 -0.1232
39632SOL    HW122301  10.784  10.582   4.749  0.8647  1.6636  0.1046
39632SOL    HW222302  10.667  10.527   4.828  2.1462 -1.2740  0.0305
39633SOL     OW22303   3.166   2.376   6.353 -0.3021 -0.1457  0.4818
39633SOL    HW122304   3.138   2.296   6.398  0.4092 -0.0590  1.1055
39633SOL    HW222305   3.262   2.373   6.357 -0.2706  0.8366  0.7136
39634SOL     OW22306   7.693   4.208   4.138  0.5118 -0.0617  0.5745
39634SOL    HW122307   7.650   4.147   4.199 -0.4991 -0.1395 -0.2109
39634SOL    HW222308   7.640   4.204   4.059  0.4511  1.8166  0.5005
39635SOL     OW22309   5.974   3.426   4.401 -0.4778  0.0255 -0.0508
39635SOL    HW122310   5.893   3.456   4.443 -1.4584 -1.3248 -0.9524
39635SOL    HW222311   6.011   3.363   4.462 -0.6273 -0.0941 -0.0816
39636SOL     OW22312   4.384   5.296   6.158  0.1062 -0.4662 -0.7248
39636SOL    HW122313   4.348   5.369   6.107 -0.3035 -0.1679  0.0022
39636SOL    HW222314   4.419   5.337   6.237  1.8546 -0.7687 -1.3099
39637SOL     OW22315   2.757   7.799   7.108 -0.3219 -0.2493 -0.0588
39637SOL    HW122316   2.706   7.869   7.068  1.0687 -1.0082 -3.3049
39637SOL    HW222317   2.694   7.727   7.118 -0.7834  0.0804 -0.5263
39638SOL     OW22318   0.285   6.176   6.873 -0.0505 -0.0770 -0.1024
39638SOL    HW122319   0.257   6.212   6.957  1.0473 -1.2590  0.7973
39638SOL    HW222320   0.280   6.081   6.884  0.6821 -0.2568 -1.1675
39639SOL     OW22321  10.848   8.024   5.575 -0.6254 -0.2750  0.0559
39639SOL    HW122322  10.869   8.102   5.524 -2.1363 -0.3200 -0.6579
39639SOL    HW222323  10.897   8.034   5.657 -0.5313  1.2368 -0.1834
39640SOL     OW22324   5.333  10.056   2.791  0.4307 -0.6253 -0.0096
39640SOL    HW122325   5.346  10.092   2.879  2.1668 -0.8881 -0.1248
39640SOL    HW222326   5.421  10.030   2.763  0.0735  0.4692 -2.2732
39641SOL     OW22327   5.706   0.662   0.422  0.2035 -0.7506  0.0911
39641SOL    HW122328   5.742   0.713   0.495 -1.8175 -0.0183  0.6399
39641SOL    HW222329   5.731   0.711   0.344  1.7318 -1.1253  0.3355
39642SOL     OW22330   3.554   4.100   4.598 -0.4636  0.5842  0.0896
39642SOL    HW122331   3.560   4.027   4.660  0.9744  0.1435 -0.5631
39642SOL    HW222332   3.495   4.070   4.530 -0.8927  0.5279  0.4802
39643SOL     OW22333   0.920   3.695   0.503 -0.0799  0.3707 -0.5594
39643SOL    HW122334   0.976   3.767   0.530 -1.2416  1.3905 -0.8313
39643SOL    HW222335   0.980   3.629   0.469  0.9333  1.5007 -0.9852
39644SOL     OW22336   3.823  10.010   1.597  0.2862  0.0219  0.5001
39644SOL    HW122337   3.803   9.997   1.690  1.0152  1.8702  0.9370
39644SOL    HW222338   3.891   9.945   1.578 -0.7693 -1.2227  0.9164
39645SOL     OW22339   6.199   8.681   6.869 -0.5207  0.3948  0.6858
39645SOL    HW122340   6.184   8.611   6.932 -2.3771  1.2087  1.1843
39645SOL    HW222341   6.151   8.653   6.791  0.7253 -0.0108  0.0517
39646SOL     OW22342   9.246   0.211   2.690 -0.0908  0.0465  0.2521
39646SOL    HW122343   9.267   0.270   2.762  1.3265 -0.9813  0.6912
39646SOL    HW222344   9.231   0.269   2.616  2.1528  0.9352  0.4545
39647SOL     OW22345   6.892   5.275   2.958 -0.0948  0.5910 -0.0042
39647SOL    HW122346   6.964   5.338   2.953 -0.9508  1.6331  0.5818
39647SOL    HW222347   6.866   5.276   3.050  0.2416 -1.0398  0.1203
39648SOL     OW22348   7.762  10.834   7.799 -0.0451  0.1216  0.1229
39648SOL    HW122349   7.715  10.812   7.879 -1.1955 -1.9016 -1.0529
39648SOL    HW222350   7.746  10.928   7.786 -1.4983  0.0368  1.1974
39649SOL     OW22351   0.102   1.274   8.346 -0.2283  0.1983 -0.3236
39649SOL    HW122352   0.104   1.181   8.368  1.6170  0.3818  0.3866
39649SOL    HW222353   0.078   1.318   8.427  2.5837  0.5847  0.3401
39650SOL     OW22354   5.488   5.925   5.874  0.4115 -0.1010  0.0293
39650SOL    HW122355   5.458   5.841   5.908  0.2601  0.2329  0.7180
39650SOL    HW222356   5.462   5.989   5.940 -1.4058  0.7679 -1.5075
39651SOL     OW22357   0.359  10.693   8.000  0.4608  0.0411 -0.2929
39651SOL    HW122358   0.290  10.636   8.034 -1.1892  2.3954  0.4735
39651SOL    HW222359   0.437  10.671   8.052 -0.0651 -1.6884 -0.2279
39652SOL     OW22360   1.504   7.406   6.368  0.4305  0.9328 -0.2447
39652SOL    HW122361   1.415   7.370   6.370  0.4564  0.8279 -1.1335
39652SOL    HW222362   1.561   7.329   6.362  0.5611  1.0338 -0.2994
39653SOL     OW22363   6.711   0.224   6.919  0.0399  0.4251 -0.1432
39653SOL    HW122364   6.737   0.191   7.005 -0.1469  0.1060 -0.2048
39653SOL    HW222365   6.785   0.203   6.862 -0.6826 -1.2672 -0.5051
39654SOL     OW22366  10.182   8.782   8.286  0.4056 -0.2319  0.3793
39654SOL    HW122367  10.167   8.787   8.380  2.0305  3.3076  0.5168
39654SOL    HW222368  10.277   8.788   8.276  0.2325 -0.1568 -1.4824
39655SOL     OW22369   0.581   2.282   9.193  0.4868  0.1093 -0.4670
39655SOL    HW122370   0.565   2.205   9.247 -1.3501  0.1110 -0.9751
39655SOL    HW222371   0.673   2.277   9.170  0.2955 -2.1016 -0.7710
39656SOL     OW22372   1.699   0.350   6.708 -0.0522  0.4862  0.5163
39656SOL    HW122373   1.687   0.255   6.710 -2.1825  0.7239 -0.2687
39656SOL    HW222374   1.615   0.386   6.735  0.1207  2.1803 -1.0730
39657SOL     OW22375   9.448   0.920   0.530  0.1727  0.0456  0.1426
39657SOL    HW122376   9.459   0.856   0.601 -3.2167  0.0549  0.7913
39657SOL    HW222377   9.425   1.001   0.574 -0.6673  0.3864 -0.8953
39658SOL     OW22378  10.408   0.324   0.600  0.3320  0.2743 -0.6148
39658SOL    HW122379  10.413   0.412   0.637  0.3298  1.1811 -2.6874
39658SOL    HW222380  10.460   0.328   0.520  0.3535 -1.6198 -0.7270
39659SOL     OW22381   4.008   5.806   5.304 -0.0261 -0.1647 -0.1419
39659SOL    HW122382   4.007   5.901   5.314 -0.5190 -0.1289 -0.4951
39659SOL    HW222383   4.069   5.775   5.371 -0.0385  0.3817  0.1238
39660SOL     OW22384   9.074   4.046   2.801 -0.3173  0.7667  0.8416
39660SOL    HW122385   9.045   4.110   2.866 -1.4300  0.4988  0.6132
39660SOL    HW222386   9.125   4.098   2.738  0.5555  1.0635  1.7748
39661SOL     OW22387   7.607   8.084   7.036 -0.0926 -0.5305  1.1314
39661SOL    HW122388   7.517   8.080   7.004  1.2192  1.2905 -3.1303
39661SOL    HW222389   7.655   8.025   6.978  1.7300 -0.2430  2.3304
39662SOL     OW22390   6.362   0.765   3.897  0.1007 -0.3315 -0.2946
39662SOL    HW122391   6.394   0.732   3.981  1.4729 -1.4797 -1.2290
39662SOL    HW222392   6.274   0.797   3.915  0.6029 -0.0123  1.7076
39663SOL     OW22393   2.324   3.398   0.864 -0.4255  0.1358  0.7295
39663SOL    HW122394   2.408   3.355   0.879 -0.8064 -1.5187 -1.4674
39663SOL    HW222395   2.261   3.326   0.857 -1.5194  1.1792 -0.5691
39664SOL     OW22396   6.496   5.588   5.686  0.1701  0.3351 -0.1396
39664SOL    HW122397   6.459   5.508   5.725  0.2990 -0.0031 -0.7080
39664SOL    HW222398   6.536   5.559   5.604 -0.5712  1.1268 -0.8011
39665SOL     OW22399   0.594   6.916   3.324 -0.5115  0.6170  0.5194
39665SOL    HW122400   0.525   6.860   3.289 -0.7296 -0.0824  2.0325
39665SOL    HW222401   0.583   6.912   3.419  0.6002  1.7925  0.7198
39666SOL     OW22402   7.750  10.167  10.053 -0.3385 -1.3030 -0.5121
39666SOL    HW122403   7.794  10.098  10.104  1.2777 -0.4340 -0.6885
39666SOL    HW222404   7.811  10.186   9.982 -1.9239 -1.4561 -1.9447
39667SOL     OW22405   7.587   9.897   5.419  0.0473  0.1582  0.3134
39667SOL    HW122406   7.597   9.802   5.421 -0.8240  0.0624  0.4088
39667SOL    HW222407   7.499   9.912   5.453 -1.5273  0.7456 -3.7162
39668SOL     OW22408   4.552   5.699   5.219 -0.6831 -0.1642  0.3036
39668SOL    HW122409   4.647   5.707   5.231 -0.6176 -0.4471 -0.0217
39668SOL    HW222410   4.517   5.687   5.307 -0.5942  1.7228  0.6155
39669SOL     OW22411   8.631   3.738   0.924 -0.0113  0.6261 -0.1897
39669SOL    HW122412   8.717   3.734   0.883  0.2040  0.1512  0.2978
39669SOL    HW222413   8.618   3.831   0.943  0.5610  0.6577  0.0741
39670SOL     OW22414   5.541   2.837   7.444 -0.7102 -0.7119  0.0751
39670SOL    HW122415   5.481   2.763   7.441 -0.4042 -0.9627  0.1402
39670SOL    HW222416   5.605   2.814   7.511  0.8000 -1.4769 -1.5685
39671SOL     OW22417   9.796   4.057   2.492 -0.3295  0.4237  0.9695
39671SOL    HW122418   9.861   3.999   2.452 -0.4812  0.5243  0.5796
39671SOL    HW222419   9.816   4.053   2.586  2.4433  3.0982  0.5959
39672SOL     OW22420   0.412   9.107   8.768 -0.3231  0.1837 -0.3446
39672SOL    HW122421   0.337   9.097   8.827 -0.1367  0.0977 -0.1238
39672SOL    HW222422   0.418   9.201   8.753  0.5665  0.3393  0.9786
39673SOL     OW22423   0.724   6.423   6.401 -0.3089 -0.4144  0.0740
39673SOL    HW122424   0.705   6.387   6.488  0.6096 -1.5406 -0.1714
39673SOL    HW222425   0.753   6.512   6.417  4.0453 -1.9369  1.3514
39674SOL     OW22426   2.333   6.817   9.747  0.0549  0.0130 -0.2014
39674SOL    HW122427   2.396   6.768   9.693 -0.2291  0.4504 -0.9364
39674SOL    HW222428   2.313   6.758   9.820  1.0920 -0.2475 -0.1189
39675SOL     OW22429   8.009   7.796   7.871 -0.1780 -0.0474  0.2473
39675SOL    HW122430   7.993   7.759   7.957 -1.2218  0.9124  0.4710
39675SOL    HW222431   7.939   7.860   7.858  1.5378  1.8323 -0.1390
39676SOL     OW22432   8.007   4.255  10.317  0.0062 -0.4816 -0.2121
39676SOL    HW122433   8.060   4.193  10.367  2.2808  0.4505 -1.3863
39676SOL    HW222434   7.961   4.307  10.384 -0.0234 -1.8049  0.8107
39677SOL     OW22435  10.097   3.613   5.674  0.8224  0.3581 -0.2740
39677SOL    HW122436  10.185   3.649   5.676  0.4450  1.4324 -2.2547
39677SOL    HW222437  10.056   3.652   5.597 -1.5723  0.3099  0.9202
39678SOL     OW22438   0.979   3.532   3.787  0.3049 -0.0077  0.3964
39678SOL    HW122439   1.049   3.586   3.824 -0.9858  1.0811  1.3104
39678SOL    HW222440   0.994   3.536   3.692  1.9975 -0.5263  0.6366
39679SOL     OW22441   8.611   6.107  10.339 -0.8654 -0.1080 -0.1236
39679SOL    HW122442   8.680   6.169  10.363 -1.1146  0.2278 -0.2766
39679SOL    HW222443   8.621   6.035  10.401  0.0192 -0.3486 -0.5438
39680SOL     OW22444   9.111   3.963   8.851  0.0094  0.0426  0.0005
39680SOL    HW122445   9.078   3.989   8.765  0.3426  0.3254 -0.0465
39680SOL    HW222446   9.124   3.869   8.845  0.8797  0.1899 -0.5550
39681SOL     OW22447   6.799   8.889   5.624 -0.0546  0.8839  0.6191
39681SOL    HW122448   6.790   8.927   5.711  1.4820  0.6570  0.8778
39681SOL    HW222449   6.870   8.826   5.632 -0.0775  0.6677 -0.7405
39682SOL     OW22450   1.545   8.735   9.410 -0.0925 -0.6420 -0.2234
39682SOL    HW122451   1.571   8.736   9.502  1.6313  3.7237 -0.6331
39682SOL    HW222452   1.450   8.752   9.413  0.3448  2.0367  0.7742
39683SOL     OW22453  10.756  10.196   6.589 -0.1075  0.2144  0.0671
39683SOL    HW122454  10.744  10.291   6.591  0.0766  0.3180 -2.3430
39683SOL    HW222455  10.824  10.181   6.523 -0.8191 -1.6520 -0.2900
39684SOL     OW22456   4.576   6.763   5.807 -0.2015  0.4999 -0.0194
39684SOL    HW122457   4.586   6.711   5.887 -1.8250  2.4602  1.4958
39684SOL    HW222458   4.649   6.825   5.810 -0.5361  0.8833  0.1826
39685SOL     OW22459   6.394  10.392   1.469 -0.0942 -0.1683  0.3103
39685SOL    HW122460   6.417  10.299   1.474 -0.7425 -0.2706  1.6619
39685SOL    HW222461   6.463  10.436   1.519 -0.6180 -0.0847  0.9702
39686SOL     OW22462   2.012   0.411   1.212 -0.1019 -0.2759 -0.4785
39686SOL    HW122463   2.071   0.451   1.147 -0.5808 -0.1930 -0.8658
39686SOL    HW222464   1.934   0.388   1.162 -1.3549  1.7308  0.4558
39687SOL     OW22465   7.902   0.656  10.323  0.0355  0.7556  0.6458
39687SOL    HW122466   7.958   0.733  10.316 -0.2181  0.8370 -0.6620
39687SOL    HW222467   7.896   0.623  10.233 -1.2720  0.2199  0.9218
39688SOL     OW22468   3.359   0.266   8.882  0.4604  0.0387 -0.5595
39688SOL    HW122469   3.275   0.311   8.879  0.2380 -0.3512 -0.2044
39688SOL    HW222470   3.408   0.301   8.808  0.5425  1.3686  0.1113
39689SOL     OW22471   9.559   6.826   9.613 -0.0348 -1.0822 -0.1831
39689SOL    HW122472   9.620   6.898   9.629 -1.8755  0.2163  1.2539
39689SOL    HW222473   9.577   6.762   9.682  1.0230 -1.6323 -0.9534
39690SOL     OW22474   1.727   4.185   4.229  0.2676  0.3309 -0.2810
39690SOL    HW122475   1.799   4.191   4.293  1.1519  0.0762 -1.2427
39690SOL    HW222476   1.742   4.257   4.169  0.2497 -0.2860 -1.0313
39691SOL     OW22477   8.891   0.124   4.395  0.2949  0.4720 -0.4055
39691SOL    HW122478   8.892   0.220   4.396 -0.5972  0.4885 -0.6897
39691SOL    HW222479   8.813   0.100   4.445  0.7064 -0.1184 -0.0380
39692SOL     OW22480   4.562   3.930   6.967  0.0713  0.1297  0.5448
39692SOL    HW122481   4.644   3.964   7.001  0.3416  2.0896 -1.9177
39692SOL    HW222482   4.536   3.993   6.900 -2.9846 -0.9280  0.6485
39693SOL     OW22483   7.381   2.947   8.382 -0.1202 -0.0813  0.2228
39693SOL    HW122484   7.365   2.914   8.293 -0.1048  1.4746 -0.3753
39693SOL    HW222485   7.369   2.871   8.438 -0.5253 -1.0039 -1.0797
39694SOL     OW22486   2.882   8.470   4.015 -0.1104  0.5178  0.1130
39694SOL    HW122487   2.917   8.557   4.031  0.1929  0.6050 -0.9296
39694SOL    HW222488   2.957   8.420   3.982  0.3336 -0.8699  3.1094
39695SOL     OW22489   3.792   9.308  10.703 -0.4791  0.2188  0.2924
39695SOL    HW122490   3.742   9.261  10.769 -0.7792 -1.0775 -0.8424
39695SOL    HW222491   3.766   9.399  10.713 -1.1793 -0.1007  1.3701
39696SOL     OW22492   8.362  10.053   8.289  0.0365  0.0279  0.2645
39696SOL    HW122493   8.359  10.148   8.296  1.2918  0.2014 -1.3960
39696SOL    HW222494   8.275  10.024   8.319 -0.3018  1.6689  0.9074
39697SOL     OW22495  10.943   7.947   4.935  0.3303  0.1137 -0.0887
39697SOL    HW122496  10.857   7.905   4.927  0.6246 -0.5217  0.0396
39697SOL    HW222497  10.927   8.027   4.984  0.2237 -1.2779  2.1995
39698SOL     OW22498   2.397   9.002   8.854  0.0631  0.0228  0.0492
39698SOL    HW122499   2.413   9.051   8.774 -1.2633  1.2625  0.5155
39698SOL    HW222500   2.303   8.984   8.853  0.1608 -0.5992  0.9734
39699SOL     OW22501   5.632   5.619   0.423 -0.2158 -0.1352 -0.7350
39699SOL    HW122502   5.581   5.565   0.484  0.4085 -1.5327 -1.4245
39699SOL    HW222503   5.702   5.655   0.478 -0.1186 -0.7480 -0.4414
39700SOL     OW22504   7.668   9.734   3.305 -0.1693 -0.4268 -0.2542
39700SOL    HW122505   7.660   9.792   3.229 -2.7008 -0.4404 -0.0289
39700SOL    HW222506   7.664   9.646   3.268 -1.0790 -0.4335 -0.1502
39701SOL     OW22507   7.239   8.286   8.275 -0.0735  0.3724  0.3307
39701SOL    HW122508   7.259   8.330   8.192 -0.0667  0.5310  0.4166
39701SOL    HW222509   7.312   8.225   8.287 -1.3924 -1.5597 -1.1018
39702SOL     OW22510  10.688   4.593   4.084  0.2719  0.3907  0.0651
39702SOL    HW122511  10.673   4.517   4.141  1.3116  1.1777  1.4358
39702SOL    HW222512  10.653   4.667   4.134  0.9250  1.0519 -0.4523
39703SOL     OW22513   5.876   6.253   7.893  0.2644  0.4595 -0.7981
39703SOL    HW122514   5.808   6.317   7.912  0.7752  0.5121  0.9815
39703SOL    HW222515   5.831   6.169   7.888  0.0906  0.4482  0.7003
39704SOL     OW22516   8.316   9.496   4.160  0.6967 -0.0895 -0.2450
39704SOL    HW122517   8.288   9.426   4.218 -1.5482  0.7009 -0.3232
39704SOL    HW222518   8.283   9.471   4.074  0.7173  0.6032 -0.4588
39705SOL     OW22519   7.399   5.745   7.378  0.5922  0.3806  0.1460
39705SOL    HW122520   7.313   5.782   7.355  0.2119  0.2539  1.3294
39705SOL    HW222521   7.438   5.810   7.437  1.0349  0.1265  0.1332
39706SOL     OW22522   4.239   1.045   0.015 -0.4093  0.4742 -0.3419
39706SOL    HW122523   4.329   1.013   0.024 -0.2970  1.5437  2.7470
39706SOL    HW222524   4.188   0.991   0.075 -1.4757  1.2836 -0.5124
39707SOL     OW22525   8.567   2.091   4.857  0.6897 -0.3324  0.1254
39707SOL    HW122526   8.655   2.125   4.872  0.8526 -1.2000  1.2898
39707SOL    HW222527   8.519   2.114   4.937 -0.0805 -0.0221 -0.4298
39708SOL     OW22528   2.260   4.611   2.971 -0.1036 -0.5237 -0.6568
39708SOL    HW122529   2.279   4.704   2.966  0.8089 -0.6392  0.3641
39708SOL    HW222530   2.328   4.576   3.030 -1.1643 -1.6156 -0.0662
39709SOL     OW22531  10.642   0.228   8.533  0.4841  0.3819 -0.4707
39709SOL    HW122532  10.611   0.184   8.454 -0.1735  1.9536 -1.0939
39709SOL    HW222533  10.566   0.232   8.590  1.0837 -1.2254  0.4963
39710SOL     OW22534   3.384   3.934   7.681  0.2285  0.7392  0.2691
39710SOL    HW122535   3.369   3.946   7.587 -0.2512  1.2201  0.4092
39710SOL    HW222536   3.405   3.840   7.690  1.8715  1.0163 -0.5165
39711SOL     OW22537   0.206   4.306   0.851 -0.0920  0.5369  0.4972
39711SOL    HW122538   0.262   4.354   0.790  0.5380 -0.3108  0.4131
39711SOL    HW222539   0.229   4.341   0.938  0.0395  0.7028  0.3956
39712SOL     OW22540   5.877   3.192   5.384  0.3656 -0.4587 -0.2600
39712SOL    HW122541   5.901   3.186   5.292  1.5973 -0.2797  0.0466
39712SOL    HW222542   5.951   3.155   5.431  0.3579  0.7491  0.7356
39713SOL     OW22543   7.293   7.831   8.800 -0.1863  0.5351  0.3143
39713SOL    HW122544   7.243   7.778   8.738  1.2452 -1.9542  1.2126
39713SOL    HW222545   7.233   7.847   8.873 -0.5521 -0.0846  0.1505
39714SOL     OW22546   8.321   8.473   5.614  0.0832 -0.4486 -0.5140
39714SOL    HW122547   8.315   8.427   5.531  0.0727 -0.7594 -0.3406
39714SOL    HW222548   8.358   8.409   5.675 -2.1930 -0.9897  0.3292
39715SOL     OW22549   5.384   0.552   9.786  0.5123 -0.3458 -0.1767
39715SOL    HW122550   5.292   0.567   9.765  0.5964 -0.1408 -0.4016
39715SOL    HW222551   5.399   0.599   9.868  0.2041 -1.0746  0.3095
39716SOL     OW22552   5.591   8.760   4.764  0.7360  0.4748  0.5866
39716SOL    HW122553   5.615   8.802   4.847  4.0829 -1.1748  0.5237
39716SOL    HW222554   5.546   8.680   4.791  0.3803  0.7271  0.7615
39717SOL     OW22555   8.114   0.097   5.497 -0.4492  0.6417 -0.0716
39717SOL    HW122556   8.039   0.043   5.523 -0.4498  0.4868 -0.4005
39717SOL    HW222557   8.154   0.050   5.424  0.1310  0.5853  0.2794
39718SOL     OW22558   1.141   5.779   5.206  0.2683  0.2378 -0.3046
39718SOL    HW122559   1.064   5.757   5.154  0.2526 -0.6723  0.0861
39718SOL    HW222560   1.215   5.756   5.150  0.2495  1.3266 -0.7660
39719SOL     OW22561   4.809   5.921   3.802  0.2887  0.1199  0.0633
39719SOL    HW122562   4.803   5.946   3.894 -0.2410  0.5425 -0.0842
39719SOL    HW222563   4.723   5.883   3.782  0.0910  0.8282 -0.4840
39720SOL     OW22564   5.152   2.994   1.209  0.1680 -0.4880 -0.2184
39720SOL    HW122565   5.178   3.085   1.198  1.8270 -0.8970  0.2317
39720SOL    HW222566   5.148   2.959   1.120  1.5690 -0.5234 -0.2754
39721SOL     OW22567   8.132   5.263  10.004  0.4074  0.4100  0.0580
39721SOL    HW122568   8.065   5.266   9.935  0.4552  1.7329  0.0484
39721SOL    HW222569   8.098   5.200  10.067  0.9246 -1.7228 -1.7337
39722SOL     OW22570   5.537   1.231   5.215 -0.1897 -0.5933 -0.7954
39722SOL    HW122571   5.484   1.228   5.135  1.1321  3.3353 -1.9576
39722SOL    HW222572   5.483   1.280   5.277  1.1025  1.4387 -1.2431
39723SOL     OW22573  10.010   9.275   5.753 -0.3045 -0.4554 -0.2533
39723SOL    HW122574  10.069   9.298   5.825  0.3033 -0.4142 -0.7729
39723SOL    HW222575   9.926   9.259   5.797 -0.4125  1.4357  0.2583
39724SOL     OW22576   1.520   2.570   5.169 -0.1978 -0.5248 -0.0281
39724SOL    HW122577   1.509   2.642   5.107 -0.2382 -0.7391 -0.2711
39724SOL    HW222578   1.443   2.576   5.226 -0.4731 -0.7067 -0.3841
39725SOL     OW22579   7.536   2.643   8.389 -0.1958 -0.8133  0.7668
39725SOL    HW122580   7.624   2.630   8.425  0.2303 -0.7272 -0.2261
39725SOL    HW222581   7.485   2.680   8.462  0.5262 -1.0947  1.4122
39726SOL     OW22582   6.516   9.026   7.160  0.2907  0.6692  0.0192
39726SOL    HW122583   6.470   9.017   7.077 -1.1170  0.5160  0.7881
39726SOL    HW222584   6.465   9.090   7.209  2.4874  2.5926 -0.1389
39727SOL     OW22585   1.414   9.533   0.031  0.1036  0.0491 -0.2217
39727SOL    HW122586   1.424   9.563   0.122 -0.9743  0.3632 -0.2050
39727SOL    HW222587   1.342   9.585  -0.004  0.0283 -0.5954 -1.0379
39728SOL     OW22588   1.258   0.567   7.825 -0.1067  0.1806 -0.2013
39728SOL    HW122589   1.245   0.662   7.830 -0.6258  0.1120 -0.1743
39728SOL    HW222590   1.306   0.554   7.744  0.9799  0.5653  0.3744
39729SOL     OW22591   8.550   3.456   1.346  0.9591 -0.2285 -0.5122
39729SOL    HW122592   8.518   3.505   1.422  0.4897 -1.5676  0.1662
39729SOL    HW222593   8.565   3.523   1.280 -0.1802  0.7858  0.2190
39730SOL     OW22594   4.143   1.639   3.843 -0.1788 -0.2002 -0.0096
39730SOL    HW122595   4.152   1.646   3.748 -1.7195 -0.1692 -0.1774
39730SOL    HW222596   4.048   1.640   3.858  0.0729  1.2328  1.6393
39731SOL     OW22597   6.997   0.212   1.404  0.2297 -0.1374 -0.2036
39731SOL    HW122598   7.018   0.131   1.450  1.4523  0.8000  0.9146
39731SOL    HW222599   7.078   0.235   1.358  0.0018  0.6446 -0.2191
39732SOL     OW22600   1.989   1.941  10.818 -0.0631  0.1251 -0.2465
39732SOL    HW122601   2.016   1.875  10.754 -0.4566 -2.5824  2.2348
39732SOL    HW222602   1.904   1.910  10.850  0.6966  0.6703  2.4560
39733SOL     OW22603   5.127   2.807   2.461  0.0894 -0.7219 -0.8819
39733SOL    HW122604   5.082   2.891   2.450 -0.0261 -1.0653 -3.4070
39733SOL    HW222605   5.141   2.776   2.372  1.6572 -2.5920 -0.0219
39734SOL     OW22606   6.480   1.685   9.255  0.3642  0.4337 -0.6377
39734SOL    HW122607   6.493   1.668   9.162  0.5207  0.0060 -0.5406
39734SOL    HW222608   6.532   1.763   9.273 -0.5462  1.1528 -1.1447
39735SOL     OW22609   0.891   6.566   9.606 -0.8007 -0.5262  0.3365
39735SOL    HW122610   0.809   6.573   9.655 -1.0711 -1.0729 -0.0324
39735SOL    HW222611   0.952   6.524   9.666 -0.2924  1.3817  1.2028
39736SOL     OW22612   9.498   6.833   6.627 -0.9264 -0.0265 -0.2350
39736SOL    HW122613   9.420   6.886   6.616 -0.7279  0.6216  1.2912
39736SOL    HW222614   9.530   6.856   6.714 -0.4696 -2.1622  0.1916
39737SOL     OW22615   9.448   0.607   4.731 -0.4146 -1.0234 -0.3166
39737SOL    HW122616   9.541   0.632   4.730 -0.2397 -1.5472  1.2659
39737SOL    HW222617   9.438   0.551   4.654 -0.2187  1.7779 -2.4301
39738SOL     OW22618  10.649   7.430   7.806  0.0089  0.4975 -0.3653
39738SOL    HW122619  10.586   7.493   7.773  0.2898  0.8660 -0.2033
39738SOL    HW222620  10.729   7.480   7.820  0.1090  0.2022  0.1746
39739SOL     OW22621   8.314   9.432   3.443  0.5681 -0.0679 -0.3282
39739SOL    HW122622   8.312   9.483   3.362  1.4145 -1.3952 -1.2013
39739SOL    HW222623   8.403   9.444   3.476  0.4102 -0.0293  0.0880
39740SOL     OW22624   6.225   0.436   3.063  0.3776  0.2850  0.3147
39740SOL    HW122625   6.315   0.405   3.060  0.9843  1.8400  1.3757
39740SOL    HW222626   6.172   0.357   3.060  1.7833 -0.6531 -0.2689
39741SOL     OW22627  10.576  10.746   7.885  0.0403 -0.0914  0.2872
39741SOL    HW122628  10.526  10.752   7.966  1.1281  0.0637  0.9479
39741SOL    HW222629  10.561  10.829   7.841  1.5408  0.8621  1.5477
39742SOL     OW22630   7.837   3.093   3.295 -0.1424  0.0003  0.1363
39742SOL    HW122631   7.766   3.142   3.255 -0.0941  1.0263  1.2859
39742SOL    HW222632   7.794   3.016   3.335 -0.4291 -0.0562 -0.2834
39743SOL     OW22633   1.298   4.025   5.680  0.4089  0.4662  0.5460
39743SOL    HW122634   1.212   4.065   5.672 -0.2947 -1.1192 -0.0555
39743SOL    HW222635   1.301   3.990   5.769 -0.2367 -0.9068  0.0547
39744SOL     OW22636   8.430   5.733   2.342  0.4641 -0.2473  0.0161
39744SOL    HW122637   8.488   5.659   2.322  0.1285 -0.4881 -0.0798
39744SOL    HW222638   8.489   5.803   2.369  0.9514  0.0849 -1.8381
39745SOL     OW22639   3.791   7.610  10.413 -0.1610 -1.2776  0.4126
39745SOL    HW122640   3.761   7.562  10.335  1.4189  0.7211 -1.4717
39745SOL    HW222641   3.745   7.694  10.409  1.5181 -0.3433  0.4775
39746SOL     OW22642   2.061   0.042   9.188  0.5691  0.1238 -0.3823
39746SOL    HW122643   2.122  -0.008   9.242  0.2130  0.1226  0.0224
39746SOL    HW222644   1.974   0.020   9.223  0.4548  1.7855  0.4718
39747SOL     OW22645   3.357   7.478   5.242  0.0881  0.1851  0.0165
39747SOL    HW122646   3.270   7.469   5.281  0.8669 -1.1200  1.5178
39747SOL    HW222647   3.361   7.409   5.176  0.4891 -0.6961  0.9461
39748SOL     OW22648   9.082   6.963   2.311  0.1573 -0.2760 -0.0375
39748SOL    HW122649   9.170   6.975   2.348  0.6410 -1.1457 -0.8570
39748SOL    HW222650   9.038   6.904   2.373  0.5315 -0.7274 -0.2009
39749SOL     OW22651   2.029  10.277   0.541 -0.5388 -0.1982 -0.6015
39749SOL    HW122652   2.111  10.303   0.581 -0.3497 -0.7005 -0.6605
39749SOL    HW222653   2.002  10.353   0.489 -0.1039 -0.0403 -0.5988
39750SOL     OW22654  10.183   3.164   1.754  0.4469 -0.1020 -0.5656
39750SOL    HW122655  10.114   3.104   1.780  0.5134 -1.0176 -2.4298
39750SOL    HW222656  10.202   3.141   1.663  2.7325  0.5840 -0.2938
39751SOL     OW22657   2.132  10.892  10.461 -0.2061  0.0929 -0.0306
39751SOL    HW122658   2.145  10.923  10.371 -0.2504 -2.1353 -0.8314
39751SOL    HW222659   2.040  10.865  10.463 -0.2548  0.3109  0.7595
39752SOL     OW22660   4.540   3.702   0.759  0.0159  0.1222 -0.3819
39752SOL    HW122661   4.498   3.760   0.696 -0.1284  0.5145  0.0781
39752SOL    HW222662   4.634   3.721   0.749 -0.0296  0.4143 -0.2451
39753SOL     OW22663   2.414   4.574   6.854 -0.0655  0.0756  0.1980
39753SOL    HW122664   2.341   4.512   6.849 -0.3706  0.2865  1.8940
39753SOL    HW222665   2.463   4.559   6.773 -0.9020 -1.4147 -0.0526
39754SOL     OW22666   1.527   1.732   8.881  0.2254 -0.3200 -0.9327
39754SOL    HW122667   1.529   1.825   8.903  0.5349 -0.4652 -0.3198
39754SOL    HW222668   1.619   1.709   8.868  0.2435 -0.7682 -0.0599
39755SOL     OW22669   3.551   0.889   2.561 -0.5054 -0.0294  0.0208
39755SOL    HW122670   3.527   0.966   2.510  1.1500  1.0750  0.9062
39755SOL    HW222671   3.627   0.852   2.516  0.8331  0.8274  1.5411
39756SOL     OW22672   9.451   5.487  10.669 -0.0695  0.4874  0.0034
39756SOL    HW122673   9.537   5.448  10.650 -0.9703 -1.3111 -0.5149
39756SOL    HW222674   9.451   5.569  10.619  0.8135 -0.1905 -1.1557
39757SOL     OW22675   2.459   5.221   0.771  0.0500 -0.1688 -0.1402
39757SOL    HW122676   2.434   5.313   0.759  1.4099  0.2222 -0.0197
39757SOL    HW222677   2.424   5.177   0.694 -1.6557  0.2291  0.3888
39758SOL     OW22678   3.397   4.258   7.135  0.2273 -0.0286 -0.1896
39758SOL    HW122679   3.411   4.344   7.095 -0.8290 -0.1523 -0.8509
39758SOL    HW222680   3.397   4.197   7.062 -0.3457 -0.4307  0.1391
39759SOL     OW22681   2.307   3.670   5.507  0.2156 -0.6993  0.0299
39759SOL    HW122682   2.250   3.625   5.570 -0.6362 -1.1822 -1.0697
39759SOL    HW222683   2.373   3.605   5.485 -0.9722 -1.4165 -1.5028
39760SOL     OW22684   0.290   9.984   1.047  0.0261  0.4553 -0.0725
39760SOL    HW122685   0.231   9.985   1.122  0.7831 -0.4635  0.5351
39760SOL    HW222686   0.374  10.016   1.081  0.2424  0.4972 -0.6293
39761SOL     OW22687   1.079   7.817   2.000 -0.1826  0.3280  0.4865
39761SOL    HW122688   1.086   7.840   2.093  2.3709  2.1916 -0.1358
39761SOL    HW222689   1.031   7.889   1.961  0.2261  0.3680  0.0559
39762SOL     OW22690   9.223   8.527  10.257 -0.3433 -0.2075  0.0521
39762SOL    HW122691   9.284   8.455  10.242  0.1908 -0.4863  3.3386
39762SOL    HW222692   9.138   8.492  10.232  0.1688 -1.3503 -0.1115
39763SOL     OW22693   1.107   3.486   5.686 -0.3667  0.7316 -0.5672
39763SOL    HW122694   1.053   3.436   5.624  0.5003  0.9599 -1.5155
39763SOL    HW222695   1.049   3.500   5.761 -0.1999 -2.8856  0.3255
39764SOL     OW22696   7.058   4.910  10.540  0.2217 -0.1604  0.6097
39764SOL    HW122697   7.044   4.960  10.620  0.5449  0.0345  0.5470
39764SOL    HW222698   7.115   4.965  10.486 -1.1578  0.3395 -0.3705
39765SOL     OW22699   4.015   7.169   6.257 -0.5440  0.0548 -0.4012
39765SOL    HW122700   3.979   7.225   6.188 -1.5875  0.3731  0.3991
39765SOL    HW222701   4.003   7.080   6.225 -1.7328  0.1748 -0.2797
39766SOL     OW22702   2.925   8.557   6.581  0.0362 -0.0404  0.3185
39766SOL    HW122703   3.014   8.551   6.616  0.4044 -2.3053 -0.8974
39766SOL    HW222704   2.868   8.539   6.656  0.6240  0.3815  0.8735
39767SOL     OW22705   2.997   8.669   1.858  0.4166  0.0014 -0.3438
39767SOL    HW122706   2.979   8.762   1.842 -0.1130 -0.1787 -0.7897
39767SOL    HW222707   2.936   8.645   1.928  1.2000  0.2235  0.4283
39768SOL     OW22708   2.870   1.617   4.895 -0.3387  0.2134  0.1159
39768SOL    HW122709   2.934   1.667   4.845  0.8417 -0.7758  0.6047
39768SOL    HW222710   2.827   1.681   4.952  0.7835  0.7514  0.3515
39769SOL     OW22711  10.450   5.742   9.192  0.1791  0.6277  0.1143
39769SOL    HW122712  10.460   5.702   9.105 -1.5538 -0.9764  0.6155
39769SOL    HW222713  10.538   5.744   9.228  0.8674  0.9281 -1.5041
39770SOL     OW22714   6.450  10.443   1.205  0.1416  0.2465  0.1168
39770SOL    HW122715   6.427  10.440   1.298  1.9445 -0.3379  0.5640
39770SOL    HW222716   6.425  10.531   1.176  0.1277  0.6358  1.3114
39771SOL     OW22717   3.176   6.467   9.830 -0.1911 -0.0590 -0.0022
39771SOL    HW122718   3.233   6.391   9.825 -0.8832 -0.5193 -1.2992
39771SOL    HW222719   3.215   6.530   9.768  0.3923  0.6635  1.0806
39772SOL     OW22720   6.827   0.022   8.313 -0.0116 -0.2792 -0.0348
39772SOL    HW122721   6.786  -0.063   8.298 -1.0304 -0.0614  1.3429
39772SOL    HW222722   6.914   0.001   8.346 -0.8887 -0.8484  2.0327
39773SOL     OW22723   0.631   3.688   3.388 -0.5668 -0.6242  0.1355
39773SOL    HW122724   0.536   3.703   3.386 -0.5785 -0.7417 -3.4364
39773SOL    HW222725   0.640   3.593   3.394 -0.7239 -0.7657 -1.6400
39774SOL     OW22726   7.754   2.824   4.582  0.1402 -0.7040  0.3561
39774SOL    HW122727   7.676   2.789   4.625  0.5233 -0.7553  1.0052
39774SOL    HW222728   7.735   2.815   4.488 -0.2484 -1.5823  0.5115
39775SOL     OW22729   0.636   8.778   1.425  0.8100 -0.0769  0.7084
39775SOL    HW122730   0.611   8.870   1.421  0.7839 -0.1333 -0.8008
39775SOL    HW222731   0.555   8.732   1.448  0.9240  0.3200  1.8915
39776SOL     OW22732   9.879   7.500   9.321  0.3355 -0.1102  0.1191
39776SOL    HW122733   9.905   7.410   9.305 -0.5166 -0.5213  1.0666
39776SOL    HW222734   9.790   7.506   9.287 -0.1919 -0.0510  1.4926
39777SOL     OW22735   2.005   9.328   0.228 -0.7784 -0.3199  0.2440
39777SOL    HW122736   1.918   9.364   0.213 -1.1663 -0.2222  2.4565
39777SOL    HW222737   1.991   9.235   0.241 -0.8481 -0.0127  2.5881
39778SOL     OW22738   7.839   6.133   3.535  0.5280  0.3235  0.2672
39778SOL    HW122739   7.878   6.057   3.578 -0.5982  0.7169  2.0350
39778SOL    HW222740   7.756   6.100   3.500 -1.0216  1.1897  2.9416
39779SOL     OW22741   2.844   8.271  10.067  0.2954  0.1383 -0.3374
39779SOL    HW122742   2.795   8.237  10.142  1.9501  1.0507  1.1877
39779SOL    HW222743   2.917   8.209  10.057  2.3393  2.1971  1.3608
39780SOL     OW22744  10.331   0.492   0.344 -0.3468 -0.0230 -0.1762
39780SOL    HW122745  10.346   0.531   0.430  0.4298 -0.9026  0.1035
39780SOL    HW222746  10.419   0.477   0.309 -0.6567  1.3279 -1.5995
39781SOL     OW22747   9.134   3.333   5.044 -0.2665 -0.2103 -0.3400
39781SOL    HW122748   9.214   3.284   5.064  0.4378  0.4812 -1.4113
39781SOL    HW222749   9.101   3.294   4.964  0.1934  0.9282 -1.0973
39782SOL     OW22750   9.475   5.492   6.851 -0.1649 -0.1024 -0.7382
39782SOL    HW122751   9.424   5.426   6.898 -0.2771  1.1766  1.0060
39782SOL    HW222752   9.418   5.521   6.780 -1.8467  1.1923  1.0873
39783SOL     OW22753   7.082   6.341   2.002 -0.1842  0.3515  0.2128
39783SOL    HW122754   7.112   6.334   2.093 -0.1653  0.4373  0.2134
39783SOL    HW222755   6.989   6.359   2.009 -0.7031 -2.1043  0.1877
39784SOL     OW22756  10.312   1.796   2.474 -0.0863  0.3452  0.2038
39784SOL    HW122757  10.255   1.869   2.447  1.0487  0.6385 -1.4554
39784SOL    HW222758  10.253   1.720   2.476 -0.6733  0.7659 -0.8491
39785SOL     OW22759   2.303   3.856   5.985  0.1768  0.2324 -0.1378
39785SOL    HW122760   2.298   3.887   6.075 -0.1448  1.3485 -0.5336
39785SOL    HW222761   2.392   3.820   5.977 -0.3730 -1.4874  1.1216
39786SOL     OW22762   1.749   6.292   8.095 -0.7514 -0.1316  0.2529
39786SOL    HW122763   1.816   6.357   8.073  0.0905 -1.2671 -0.6414
39786SOL    HW222764   1.784   6.247   8.172 -0.3171 -0.9562 -0.4227
39787SOL     OW22765   9.829   8.289  10.395  0.3437  0.0648 -0.5454
39787SOL    HW122766   9.841   8.384  10.401 -0.1848  0.1880 -1.3864
39787SOL    HW222767   9.764   8.268  10.462 -0.9882  0.5736 -1.6545
39788SOL     OW22768   3.284   6.041   1.142 -0.0699 -0.7619 -0.0034
39788SOL    HW122769   3.322   6.015   1.059  1.7024  2.1184 -0.1536
39788SOL    HW222770   3.328   6.123   1.165 -3.0862  0.4084  1.9842
39789SOL     OW22771  10.026   0.721  10.731  0.1371  0.6660 -0.0583
39789SOL    HW122772  10.055   0.791  10.673 -0.1653  0.6851 -0.1899
39789SOL    HW222773  10.107   0.682  10.764  0.3620  3.1649  2.5662
39790SOL     OW22774   0.811   1.081   6.216 -0.5161 -0.0734 -0.4972
39790SOL    HW122775   0.719   1.090   6.240 -0.2084  1.8038  0.0656
39790SOL    HW222776   0.848   1.024   6.284 -0.8671  0.6774  0.3335
39791SOL     OW22777   6.220   6.588   1.752 -0.7425 -0.0804 -0.3508
39791SOL    HW122778   6.182   6.650   1.814 -2.2249  0.0883 -1.3986
39791SOL    HW222779   6.279   6.534   1.805 -0.4075  1.4008  0.7985
39792SOL     OW22780   9.537   9.882   2.122 -0.3468 -0.3141 -0.0426
39792SOL    HW122781   9.457   9.914   2.163 -0.7615  0.4293 -1.3847
39792SOL    HW222782   9.574   9.960   2.079  0.3845 -0.9440 -0.5677
39793SOL     OW22783   7.032   3.019   6.231  0.6897 -0.2923  0.1363
39793SOL    HW122784   7.117   2.986   6.257 -0.1638 -2.2538  0.5080
39793SOL    HW222785   7.003   2.959   6.162 -0.1565  0.6688 -0.3580
39794SOL     OW22786   6.385  10.812   0.914  0.1450  0.5863 -0.3146
39794SOL    HW122787   6.323  10.870   0.957 -0.9711 -0.9361  0.1823
39794SOL    HW222788   6.438  10.776   0.984  1.7609  2.0713 -0.7670
39795SOL     OW22789   1.013   9.884   2.641 -0.2411  0.1767 -0.0993
39795SOL    HW122790   1.080   9.831   2.683 -1.0803 -1.3819 -0.6877
39795SOL    HW222791   1.061   9.942   2.582  0.4444 -2.5525 -2.2945
39796SOL     OW22792   2.700   0.790   8.299 -0.3760 -0.2491 -0.1021
39796SOL    HW122793   2.769   0.762   8.360 -0.2825 -1.4786 -0.7497
39796SOL    HW222794   2.666   0.871   8.337  0.9810  0.0319  0.5743
39797SOL     OW22795   9.669   0.636   2.326 -0.0263 -0.6278  0.0983
39797SOL    HW122796   9.602   0.703   2.336  1.6912  1.0168  0.8202
39797SOL    HW222797   9.751   0.679   2.351  1.3136 -2.5929 -0.7525
39798SOL     OW22798   3.794  10.275  10.302 -0.2465 -0.2576 -0.0149
39798SOL    HW122799   3.730  10.230  10.246  0.8947 -1.1638 -0.6059
39798SOL    HW222800   3.765  10.256  10.391 -1.0652 -0.2949 -0.2848
39799SOL     OW22801   2.282   7.489   1.698  0.1703 -0.3466  0.1895
39799SOL    HW122802   2.198   7.460   1.734  0.3887 -1.9687 -0.5410
39799SOL    HW222803   2.264   7.574   1.659 -0.6122  0.3417  2.0103
39800SOL     OW22804   1.407   7.555   1.508 -0.0283 -0.0616 -0.4423
39800SOL    HW122805   1.377   7.640   1.542  0.0711  0.4416 -1.5961
39800SOL    HW222806   1.481   7.577   1.451  1.3135 -1.1078  0.8427
39801SOL     OW22807   5.246   8.501   2.598  0.1367  0.0977 -0.0181
39801SOL    HW122808   5.172   8.495   2.537  1.1659  1.0367 -1.3809
39801SOL    HW222809   5.248   8.593   2.623 -0.2423 -0.2704  1.4165
39802SOL     OW22810   7.863   0.735   7.328  0.6933  0.1146 -0.4654
39802SOL    HW122811   7.841   0.825   7.307  1.6565  0.7319  1.1304
39802SOL    HW222812   7.782   0.697   7.361  1.7039  2.2242  4.8927
39803SOL     OW22813   4.676   2.354   9.891  0.0512  0.2325  0.2392
39803SOL    HW122814   4.609   2.402   9.841 -0.8342 -2.1055 -0.8531
39803SOL    HW222815   4.738   2.323   9.825  1.6793  1.4699  1.1461
39804SOL     OW22816   5.992  10.048   6.171 -0.0063 -0.1149  0.1687
39804SOL    HW122817   6.035  10.112   6.228 -1.2408  0.3838  0.5678
39804SOL    HW222818   5.913  10.093   6.141  0.2069 -0.6868 -1.2682
39805SOL     OW22819   0.321   5.904   9.910 -0.6152 -0.0158  0.1805
39805SOL    HW122820   0.328   5.905  10.006 -1.9925  1.5062  0.2766
39805SOL    HW222821   0.234   5.869   9.893  0.4217 -2.3328 -0.6063
39806SOL     OW22822   8.594   5.830   8.674  0.2672  0.4507 -0.5769
39806SOL    HW122823   8.624   5.781   8.751  1.3702  2.9948  0.6799
39806SOL    HW222824   8.639   5.789   8.601  0.1401 -1.2451  0.2749
39807SOL     OW22825   3.418   4.354   8.592  0.3944 -0.3204 -1.3239
39807SOL    HW122826   3.469   4.394   8.521 -1.0636 -0.8190 -2.6739
39807SOL    HW222827   3.444   4.404   8.670  2.6075 -0.2805 -2.0380
39808SOL     OW22828   2.374   1.663   8.928 -0.5212  0.3475  0.0192
39808SOL    HW122829   2.297   1.719   8.937  1.5696  3.2301  0.4246
39808SOL    HW222830   2.350   1.602   8.858 -2.5385  2.3272 -1.0859
39809SOL     OW22831   8.527   9.792   3.905  0.2204  0.1842 -0.8214
39809SOL    HW122832   8.538   9.877   3.862  1.0722  0.7521  0.4882
39809SOL    HW222833   8.467   9.810   3.978 -0.6787 -0.6240 -1.3615
39810SOL     OW22834   8.283  10.557   9.604 -0.3001 -0.0675  0.0394
39810SOL    HW122835   8.280  10.541   9.698  0.3386 -0.4772 -0.0141
39810SOL    HW222836   8.203  10.516   9.571 -2.0776  2.6220  0.7784
39811SOL     OW22837   1.288  10.384   6.509  0.1366 -0.4558  0.4845
39811SOL    HW122838   1.224  10.316   6.485 -0.4452  0.7068 -1.3986
39811SOL    HW222839   1.234  10.461   6.529  0.9050  0.4376 -0.8068
39812SOL     OW22840   5.926   7.759   3.585  0.7147 -0.2049 -0.2614
39812SOL    HW122841   5.855   7.768   3.522  0.8809 -0.6047 -0.5086
39812SOL    HW222842   5.922   7.668   3.613  0.5008  0.0337  0.4724
39813SOL     OW22843   7.355   8.490   2.920 -0.1510 -0.0907 -0.1012
39813SOL    HW122844   7.427   8.540   2.960  0.3064 -0.2626 -0.6891
39813SOL    HW222845   7.276   8.532   2.952  0.2085 -0.1287  0.8485
39814SOL     OW22846   2.358   6.511   1.532  0.1001 -0.0256  0.1700
39814SOL    HW122847   2.288   6.561   1.490 -1.9312 -1.5802  1.6008
39814SOL    HW222848   2.321   6.424   1.545  3.1832 -1.6369 -1.2744
39815SOL     OW22849   7.580   3.792   9.810 -0.0357  0.1116  0.4498
39815SOL    HW122850   7.521   3.836   9.749  1.3872 -1.3389 -2.0741
39815SOL    HW222851   7.529   3.718   9.843  0.0404 -0.6323 -1.0483
39816SOL     OW22852   9.657   3.519   2.799  0.5160  0.2812 -0.1501
39816SOL    HW122853   9.741   3.498   2.758  0.3174 -0.2002 -0.3207
39816SOL    HW222854   9.676   3.592   2.858  1.0570  0.1651 -0.1777
39817SOL     OW22855   2.319   9.691   6.988  0.3292 -0.2810  0.5494
39817SOL    HW122856   2.388   9.696   6.922  0.8097 -0.9341  1.0013
39817SOL    HW222857   2.320   9.776   7.031 -1.1211  0.7739 -1.4152
39818SOL     OW22858   9.739   5.168  10.305  0.2945 -0.2151 -0.4446
39818SOL    HW122859   9.656   5.139  10.268 -0.2948 -1.7204  1.9253
39818SOL    HW222860   9.720   5.254  10.342 -0.4816 -0.9736  0.9444
39819SOL     OW22861   4.015   3.886   4.924 -0.0171 -0.3195 -0.0708
39819SOL    HW122862   3.935   3.855   4.881  0.3161 -0.8678 -0.2940
39819SOL    HW222863   4.029   3.824   4.996  1.1119 -1.1806 -1.0232
39820SOL     OW22864   5.044   8.372   5.268 -0.0756 -0.0935 -0.1670
39820SOL    HW122865   5.100   8.446   5.293  0.5393 -1.2828  2.0802
39820SOL    HW222866   4.979   8.366   5.338  0.0037 -1.8006 -0.2121
39821SOL     OW22867   0.492   1.244  10.928  0.1796 -0.8345  0.0205
39821SOL    HW122868   0.421   1.193  10.889 -0.1039 -0.7885  0.4767
39821SOL    HW222869   0.449   1.298  10.995  0.7608 -1.4334  0.8910
39822SOL     OW22870   6.265   9.761   7.220  0.4905 -0.0366 -0.4042
39822SOL    HW122871   6.309   9.845   7.221  1.1884 -0.3154 -3.1393
39822SOL    HW222872   6.318   9.705   7.277  0.3140  1.2028  1.0034
39823SOL     OW22873  10.593   7.606   8.993 -0.3311  0.4893  0.8678
39823SOL    HW122874  10.668   7.645   9.036 -0.6830  0.9991  1.0139
39823SOL    HW222875  10.602   7.632   8.901 -1.2442  1.9575  1.1914
39824SOL     OW22876   7.590   5.914   6.292 -0.0568  0.4620  0.2141
39824SOL    HW122877   7.502   5.895   6.260  0.1060  0.7116 -0.3844
39824SOL    HW222878   7.635   5.953   6.217  0.2600  1.2457  0.8077
39825SOL     OW22879   7.244  10.418   1.578  0.3383 -0.3151 -0.2537
39825SOL    HW122880   7.215  10.369   1.655 -0.1862  0.3440 -0.0193
39825SOL    HW222881   7.315  10.474   1.611  0.6842 -0.6418 -0.4383
39826SOL     OW22882   0.414   6.457   3.327 -0.1193  0.4450 -0.0613
39826SOL    HW122883   0.452   6.412   3.403 -1.7857 -1.7850 -0.5086
39826SOL    HW222884   0.482   6.450   3.259 -0.2783 -1.2749 -0.0626
39827SOL     OW22885   3.165   3.111   9.033  0.2388  0.3333 -0.5654
39827SOL    HW122886   3.154   3.066   9.116  0.7080  0.5824 -0.3685
39827SOL    HW222887   3.219   3.187   9.053  1.8271 -0.5411 -1.3989
39828SOL     OW22888   5.602   3.755   7.382  0.3802 -0.2029  0.3555
39828SOL    HW122889   5.697   3.763   7.397  0.1449 -1.6439  3.0127
39828SOL    HW222890   5.590   3.779   7.291  3.2470  0.5801  0.1324
39829SOL     OW22891  10.345   7.788  10.309  0.4258  0.6270 -0.0793
39829SOL    HW122892  10.356   7.797  10.404  1.5487  2.2066 -0.3294
39829SOL    HW222893  10.422   7.740  10.281  0.0795  0.1368 -0.1912
39830SOL     OW22894   7.842  10.227   0.332  0.0676  0.2375  0.1762
39830SOL    HW122895   7.875  10.264   0.250 -1.6241  1.5074  0.0313
39830SOL    HW222896   7.749  10.214   0.316 -0.5249  1.6616  2.2906
39831SOL     OW22897  10.957   9.604   4.336 -0.2091  0.4140  0.1888
39831SOL    HW122898  11.024   9.561   4.281  0.4215  0.7139  0.7257
39831SOL    HW222899  10.899   9.647   4.273  0.2999  0.4398 -0.2686
39832SOL     OW22900   1.025  10.483   5.144 -0.2157 -0.3305  0.1505
39832SOL    HW122901   1.020  10.393   5.112  0.2180 -0.3080  0.0109
39832SOL    HW222902   1.034  10.473   5.239  2.0728 -0.5148 -0.0464
39833SOL     OW22903   1.555   3.880   3.762 -0.3990 -0.1520 -0.0079
39833SOL    HW122904   1.473   3.927   3.752 -0.9141 -0.8942  0.6063
39833SOL    HW222905   1.596   3.920   3.839 -0.8796 -0.7607  0.5697
39834SOL     OW22906   7.615   5.313   3.838  0.7416  0.1659  0.2065
39834SOL    HW122907   7.614   5.320   3.742 -0.3185  2.4730  0.3505
39834SOL    HW222908   7.697   5.267   3.857  0.2377 -1.7084 -1.8619
39835SOL     OW22909   3.185   7.521   7.355  0.2991 -0.5548 -0.1527
39835SOL    HW122910   3.274   7.497   7.330  1.2686  0.6430  2.0013
39835SOL    HW222911   3.156   7.450   7.411  0.8255  0.1933  1.0993
39836SOL     OW22912   7.014  10.355   0.480 -0.5527 -0.4077  0.6758
39836SOL    HW122913   7.102  10.320   0.463 -0.8322 -1.2866  0.9627
39836SOL    HW222914   7.028  10.426   0.543 -0.0554 -0.6058  0.7932
39837SOL     OW22915   2.141   7.336   9.367  0.0917  0.2589 -0.3070
39837SOL    HW122916   2.162   7.314   9.457 -1.7423 -1.2470 -0.2208
39837SOL    HW222917   2.222   7.318   9.318  0.9320  0.5958  0.9390
39838SOL     OW22918   4.640   2.176   4.636 -0.7309  0.0052  0.2392
39838SOL    HW122919   4.546   2.192   4.632 -0.4819  1.2576 -0.5972
39838SOL    HW222920   4.679   2.262   4.650  0.2911 -0.5286  0.7567
39839SOL     OW22921   0.102   5.743   8.726  0.4715  0.5859 -0.5945
39839SOL    HW122922   0.158   5.718   8.800 -3.6150 -1.6215  1.9367
39839SOL    HW222923   0.071   5.831   8.748  0.8828  0.7673 -0.7321
39840SOL     OW22924   4.021  10.766   4.056 -0.0831 -0.1814  0.5694
39840SOL    HW122925   4.024  10.796   3.965  1.7103 -0.7233  0.4153
39840SOL    HW222926   4.008  10.672   4.050 -0.4575 -0.1490  0.8859
39841SOL     OW22927   0.980   1.252   4.153 -0.5452 -0.0976  0.6034
39841SOL    HW122928   0.955   1.324   4.096  1.0570  1.0150  1.2590
39841SOL    HW222929   0.994   1.293   4.238  2.4167 -0.8027  0.5020
39842SOL     OW22930  10.944   3.121   7.542  1.0051  0.7067  0.4320
39842SOL    HW122931  10.944   3.210   7.577  0.8569  0.9763 -0.2408
39842SOL    HW222932  10.902   3.129   7.456 -0.8555 -0.3530  1.2083
39843SOL     OW22933   6.403   8.093   3.645  0.5845  0.3076  0.3076
39843SOL    HW122934   6.361   8.084   3.560  2.1627  1.3588 -0.6205
39843SOL    HW222935   6.411   8.003   3.677  0.3200 -0.1347 -0.8263
39844SOL     OW22936   0.455   3.119   2.334  0.4158 -0.3730  0.3666
39844SOL    HW122937   0.403   3.071   2.269  1.3635  2.2179 -2.4316
39844SOL    HW222938   0.545   3.114   2.301  0.9853  0.5401  1.7633
39845SOL     OW22939   5.659   5.437   5.704  0.0811  0.5040 -0.2657
39845SOL    HW122940   5.685   5.407   5.792  0.1420  0.9580 -0.1258
39845SOL    HW222941   5.571   5.472   5.716 -0.1777 -0.0473 -0.5250
39846SOL     OW22942   5.162   3.207   3.319  0.0564 -0.1129  0.6784
39846SOL    HW122943   5.187   3.208   3.411 -0.2941 -1.1426  0.7838
39846SOL    HW222944   5.201   3.287   3.283  1.2062 -0.3179  1.4423
39847SOL     OW22945   6.965  10.310  10.005 -0.5794 -0.2740 -0.4738
39847SOL    HW122946   6.926  10.393  10.034 -0.9202  0.1893 -2.1880
39847SOL    HW222947   6.957  10.252  10.080 -0.5233  1.1934  0.6805
39848SOL     OW22948   2.526   7.595   2.512 -0.2755 -0.2694 -0.3336
39848SOL    HW122949   2.559   7.558   2.430 -0.3513 -0.2691 -0.3642
39848SOL    HW222950   2.586   7.562   2.579 -0.9563 -1.2829 -0.2288
39849SOL     OW22951   2.094   7.131   2.346  0.0231  0.2224  0.1442
39849SOL    HW122952   2.121   7.142   2.255 -0.1018  3.4194  0.4117
39849SOL    HW222953   2.143   7.055   2.377  1.3409  0.1036 -2.1007
39850SOL     OW22954   3.948   2.637   5.322 -0.1993  0.4100  0.0279
39850SOL    HW122955   3.979   2.550   5.294 -0.9315 -0.4226  1.7269
39850SOL    HW222956   3.869   2.651   5.270 -0.8528 -0.5697  0.7275
39851SOL     OW22957   5.761   1.507   5.222  0.1087 -0.5940 -0.2920
39851SOL    HW122958   5.776   1.416   5.197 -0.1303 -0.7236  0.0385
39851SOL    HW222959   5.789   1.558   5.146  0.0997 -0.9505 -0.5325
39852SOL     OW22960   5.254   0.198   7.475  0.1941  0.2457 -0.2206
39852SOL    HW122961   5.192   0.127   7.495  2.6668 -1.7300  0.5877
39852SOL    HW222962   5.256   0.250   7.555  1.6698 -1.3217  0.8090
39853SOL     OW22963   4.848   0.648   9.510 -0.1014 -0.1275  0.3777
39853SOL    HW122964   4.888   0.591   9.576  0.1294  0.1012  0.4385
39853SOL    HW222965   4.757   0.658   9.538  0.1052  0.3156  0.8977
39854SOL     OW22966  10.607   0.102   1.493 -0.5205  0.0402 -0.4660
39854SOL    HW122967  10.573   0.075   1.578 -1.4281 -0.0756 -0.8663
39854SOL    HW222968  10.576   0.191   1.481 -1.6267 -0.4490 -1.3261
39855SOL     OW22969   4.023   0.051   2.293 -0.1708 -0.0244  0.0967
39855SOL    HW122970   4.069   0.125   2.333 -1.9274  0.8782  0.4950
39855SOL    HW222971   4.018  -0.015   2.363  2.1574 -0.8999 -0.5170
39856SOL     OW22972   7.095   1.181   1.884 -0.4467 -0.1372  0.1591
39856SOL    HW122973   7.095   1.254   1.946 -1.1290  0.4100 -0.4731
39856SOL    HW222974   7.163   1.123   1.916 -1.3168 -0.2496  1.8824
39857SOL     OW22975   4.668   9.038   3.328 -0.0336 -0.2793 -0.3434
39857SOL    HW122976   4.623   9.121   3.340  0.5554  0.1778 -1.2459
39857SOL    HW222977   4.616   8.992   3.262  0.1849 -0.2095 -0.5680
39858SOL     OW22978   2.252   1.773  10.678 -0.3017  0.1628 -0.3426
39858SOL    HW122979   2.185   1.738  10.619 -1.7192  1.5470  0.4242
39858SOL    HW222980   2.306   1.829  10.622  0.6797 -1.4816 -1.1068
39859SOL     OW22981   4.849   3.703   7.027  0.2025 -0.3362 -0.6569
39859SOL    HW122982   4.791   3.739   7.094  0.6465  0.0932 -0.4999
39859SOL    HW222983   4.929   3.681   7.075  0.3615 -0.4413 -0.9684
39860SOL     OW22984   2.917   6.380   2.176  0.1710  0.3078 -0.5571
39860SOL    HW122985   3.009   6.365   2.195 -0.3490 -1.1391  0.9039
39860SOL    HW222986   2.881   6.417   2.257 -0.7912 -0.2777 -0.7039
39861SOL     OW22987   7.471   3.147   1.688 -0.8661  0.3850 -0.3351
39861SOL    HW122988   7.554   3.123   1.728 -0.3897  1.2566 -0.7873
39861SOL    HW222989   7.418   3.180   1.761 -0.5856  0.4249 -0.1508
39862SOL     OW22990   7.932   5.896   3.655  0.0400 -0.3297 -0.2455
39862SOL    HW122991   8.019   5.897   3.615 -0.5739 -0.0195 -1.5668
39862SOL    HW222992   7.950   5.881   3.748  1.4559 -1.2221 -0.6366
39863SOL     OW22993   0.190   9.982   2.768  0.3783  0.2839 -0.3076
39863SOL    HW122994   0.175  10.066   2.811  1.9621  0.7074 -0.5533
39863SOL    HW222995   0.250   9.935   2.826  0.0008 -0.4256 -0.4822
39864SOL     OW22996   5.099   4.333   4.970 -0.0114  0.1672  0.0371
39864SOL    HW122997   5.079   4.314   5.062 -0.7199 -1.5790 -0.4471
39864SOL    HW222998   5.080   4.426   4.959  0.1227  0.3978  1.6647
39865SOL     OW22999   2.495   1.424   9.069 -0.2166 -0.4937 -0.3399
39865SOL    HW123000   2.464   1.510   9.042 -0.6327 -0.4910  0.1363
39865SOL    HW223001   2.441   1.362   9.021 -0.4198 -0.4882 -0.1203
39866SOL     OW23002   7.576   0.031   0.629  0.2639  0.0686 -0.2426
39866SOL    HW123003   7.631   0.107   0.609 -0.3483 -0.0453 -2.5219
39866SOL    HW223004   7.530   0.055   0.710  0.2391  2.0400 -0.8126
39867SOL     OW23005   4.318   7.821   9.448 -0.0520  0.0304  0.1184
39867SOL    HW123006   4.352   7.755   9.388  0.6484 -0.0592  0.6145
39867SOL    HW223007   4.290   7.771   9.525 -0.6879  0.1778 -0.0082
39868SOL     OW23008   0.979   8.563   5.646 -0.8068  0.1300  0.0244
39868SOL    HW123009   0.943   8.641   5.688  0.8463  1.1327 -0.3714
39868SOL    HW223010   0.995   8.502   5.718 -2.0317  0.1801  0.3443
39869SOL     OW23011   4.428   6.828   6.132 -0.0082  0.6239 -0.9215
39869SOL    HW123012   4.389   6.898   6.184  1.4664  1.2335 -0.6141
39869SOL    HW223013   4.483   6.873   6.068  0.3653 -0.2287 -1.2034
39870SOL     OW23014  10.284   1.061   6.964  0.4453  0.2815 -0.2033
39870SOL    HW123015  10.335   1.085   6.887  0.0953 -0.1793 -0.5806
39870SOL    HW223016  10.201   1.107   6.954  1.3808  2.3578  1.2359
39871SOL     OW23017   0.916   1.648   8.811 -0.4072 -0.0237  0.0226
39871SOL    HW123018   0.830   1.671   8.776  0.4022  1.1325 -1.2235
39871SOL    HW223019   0.897   1.585   8.880 -2.2105 -0.3816 -0.7663
39872SOL     OW23020   7.009   3.957   7.766  0.0118  0.6271  0.5321
39872SOL    HW123021   6.986   3.892   7.832 -0.9640 -0.0975 -0.4965
39872SOL    HW223022   7.104   3.960   7.767  0.0980 -1.3632  0.1044
39873SOL     OW23023  10.077   7.142   1.049  0.1369  0.0307 -0.6488
39873SOL    HW123024  10.088   7.051   1.077  0.8383  0.8584  1.9554
39873SOL    HW223025  10.064   7.137   0.955 -2.1757 -2.9357 -0.2462
39874SOL     OW23026   8.226   8.349   0.931 -0.4229  0.6003 -0.1346
39874SOL    HW123027   8.148   8.377   0.979 -0.8567 -0.6684 -0.0864
39874SOL    HW223028   8.297   8.357   0.995 -0.5659  1.4752 -0.0883
39875SOL     OW23029   7.211   6.431   4.679 -0.0470 -0.1799  1.0524
39875SOL    HW123030   7.267   6.409   4.753  1.1883 -0.2188  0.1349
39875SOL    HW223031   7.125   6.394   4.701  0.8191 -1.9622  1.5701
39876SOL     OW23032   7.114   8.160   6.171 -0.5991  0.1810  0.4749
39876SOL    HW123033   7.147   8.138   6.084  0.2351 -0.2914  0.9071
39876SOL    HW223034   7.029   8.115   6.176 -0.5499  0.0339 -0.0184
39877SOL     OW23035   6.026   1.511   7.428 -0.4681 -0.9028 -0.3161
39877SOL    HW123036   6.038   1.539   7.519  0.3422 -3.0469  0.2519
39877SOL    HW223037   6.036   1.416   7.430 -0.7466 -1.0072 -2.6067
39878SOL     OW23038   6.600   7.095   2.826 -0.5839 -0.8656 -0.4223
39878SOL    HW123039   6.658   7.073   2.752  1.7644  2.5565  0.2782
39878SOL    HW223040   6.533   7.151   2.788 -0.7955 -1.1127 -0.4115
39879SOL     OW23041   6.409   3.839   2.493 -0.0029  0.2906 -0.3218
39879SOL    HW123042   6.331   3.875   2.536  0.7492  1.6217 -0.0344
39879SOL    HW223043   6.375   3.770   2.436 -1.2534 -0.0026  0.7511
39880SOL     OW23044   2.760   6.640   6.904 -0.3850 -0.6500  0.1675
39880SOL    HW123045   2.735   6.558   6.861  0.3390 -0.8246  0.0767
39880SOL    HW223046   2.831   6.675   6.850 -2.0199  1.0629 -0.9526
39881SOL     OW23047   1.316   3.357   3.523  0.2321 -0.7689  0.1015
39881SOL    HW123048   1.273   3.309   3.452 -0.4605 -2.2251  1.4405
39881SOL    HW223049   1.403   3.318   3.529  0.9071  0.5678 -1.0957
39882SOL     OW23050   0.370   9.454   0.952  0.4863 -0.3278  0.2025
39882SOL    HW123051   0.375   9.507   0.872 -0.4717 -1.9816 -0.9802
39882SOL    HW223052   0.456   9.467   0.994 -0.2523  3.3615  0.7706
39883SOL     OW23053  10.979   5.222   3.980 -0.0825  0.0919 -0.6664
39883SOL    HW123054  10.895   5.201   3.938 -0.2129 -0.8053  0.0232
39883SOL    HW223055  11.040   5.158   3.945  0.2505  0.5842 -0.9732
39884SOL     OW23056   7.078   6.398   9.143  0.5997 -0.8088  0.3359
39884SOL    HW123057   7.148   6.432   9.199 -0.3548  1.8430  0.0060
39884SOL    HW223058   7.112   6.315   9.109  2.6778 -0.6379  1.9134
39885SOL     OW23059   1.520   8.095   3.431 -0.6116  0.4455 -0.3556
39885SOL    HW123060   1.427   8.116   3.434 -0.7211 -0.2619  1.9645
39885SOL    HW223061   1.555   8.133   3.512  0.3220 -2.9315  0.8940
39886SOL     OW23062   0.516   5.172   7.468  0.3199  0.0697  0.7130
39886SOL    HW123063   0.450   5.150   7.402  0.8362  0.5520  0.0276
39886SOL    HW223064   0.510   5.101   7.532 -0.7730  0.0449  0.5899
39887SOL     OW23065   8.411   3.650   3.090 -0.2887  0.2188 -0.0493
39887SOL    HW123066   8.495   3.694   3.107  0.2030 -0.7946  0.2469
39887SOL    HW223067   8.386   3.615   3.176 -0.4539 -0.4198 -0.3532
39888SOL     OW23068  10.307   2.893   8.908  0.1720 -0.3540  0.2965
39888SOL    HW123069  10.267   2.980   8.918 -1.3566 -0.8492 -1.2615
39888SOL    HW223070  10.394   2.911   8.874 -0.1445  0.5757 -0.0487
39889SOL     OW23071   7.208   4.658   6.495  0.5373 -0.3594  0.1903
39889SOL    HW123072   7.185   4.566   6.508  2.1120 -0.8817 -0.5790
39889SOL    HW223073   7.206   4.696   6.583  0.1602 -1.1961  0.5482
39890SOL     OW23074   6.565   0.452   3.519  0.2379  0.6976  0.0724
39890SOL    HW123075   6.503   0.501   3.464 -0.8159 -1.8902 -1.1245
39890SOL    HW223076   6.515   0.433   3.599 -0.7546 -1.8167 -1.0930
39891SOL     OW23077   9.216   8.059   3.315  0.3518 -0.5066 -0.1467
39891SOL    HW123078   9.219   8.134   3.374  2.0753 -0.3751 -0.3559
39891SOL    HW223079   9.146   8.079   3.253 -0.0705  0.3151  0.5879
39892SOL     OW23080   3.490   2.157   1.152 -0.0804 -0.4935 -0.0120
39892SOL    HW123081   3.548   2.150   1.228 -0.9641  0.1744  0.7358
39892SOL    HW223082   3.428   2.085   1.163 -0.8895  0.2722  0.4982
39893SOL     OW23083   0.117  10.092   4.965  0.3731  0.7338 -0.2069
39893SOL    HW123084   0.112  10.187   4.954 -0.8838  0.7395  0.4234
39893SOL    HW223085   0.162  10.062   4.886  1.2285  1.8927 -0.1827
39894SOL     OW23086   7.416  10.918   8.916  0.2192  0.1066  0.0450
39894SOL    HW123087   7.362  10.974   8.972  1.3758  2.3656 -1.0197
39894SOL    HW223088   7.360  10.899   8.840 -0.0494  0.1862  0.2214
39895SOL     OW23089   0.400   0.775  10.005 -0.1158  0.4929  0.2060
39895SOL    HW123090   0.381   0.856   9.957 -0.1156 -0.1495 -0.8820
39895SOL    HW223091   0.376   0.705   9.944  0.9239 -0.3258  0.7340
39896SOL     OW23092   3.889   3.294   7.127 -0.3785  0.1928  0.0175
39896SOL    HW123093   3.842   3.297   7.211  1.5414  0.7688  1.0997
39896SOL    HW223094   3.951   3.222   7.137  1.3648  1.6593 -0.0668
39897SOL     OW23095   0.411   9.955   8.001 -0.2396  0.4494  0.6648
39897SOL    HW123096   0.393  10.046   8.025  0.9750  0.7955  0.3048
39897SOL    HW223097   0.500   9.957   7.967 -0.4142 -0.7871  0.1304
39898SOL     OW23098   8.218   2.831   9.270  0.4577 -0.2627 -0.6836
39898SOL    HW123099   8.225   2.841   9.365  2.9593  1.1289 -0.9572
39898SOL    HW223100   8.169   2.749   9.257  0.7418 -0.8505  1.7853
39899SOL     OW23101   7.580   1.159   6.872  0.2568 -0.1670 -0.6356
39899SOL    HW123102   7.494   1.118   6.859  0.0459  0.2897 -0.7172
39899SOL    HW223103   7.589   1.218   6.797  0.5131  0.0048 -0.4697
39900SOL     OW23104   0.810   8.606   5.439  1.0031 -0.0353 -0.6241
39900SOL    HW123105   0.740   8.544   5.460 -0.1135  1.5717  0.5406
39900SOL    HW223106   0.880   8.586   5.502  0.4190  0.2624  0.1221
39901SOL     OW23107   9.541   1.137   7.706 -0.3114 -0.2993  0.2747
39901SOL    HW123108   9.630   1.122   7.673 -0.3388 -0.6934  0.3685
39901SOL    HW223109   9.494   1.057   7.683 -0.7969  0.1432 -0.2817
39902SOL     OW23110   7.912  10.309   1.848 -0.3020 -0.5405 -0.6070
39902SOL    HW123111   7.966  10.373   1.801 -0.5226  0.8013  0.9174
39902SOL    HW223112   7.973  10.268   1.910 -0.6264 -0.3397 -0.1571
39903SOL     OW23113   4.836   0.690   6.683  0.1090 -0.1527 -0.3078
39903SOL    HW123114   4.763   0.629   6.673  0.3450 -0.6682  0.9895
39903SOL    HW223115   4.846   0.730   6.597 -0.6933 -1.2276 -0.9128
39904SOL     OW23116   5.517   6.487   3.114 -0.0352 -0.5218  0.2841
39904SOL    HW123117   5.536   6.576   3.085  1.0273 -0.6155  0.6552
39904SOL    HW223118   5.434   6.494   3.162  0.6728  0.5023  1.3865
39905SOL     OW23119   4.020   4.763   5.267  0.1598 -0.0177  0.1355
39905SOL    HW123120   3.936   4.719   5.258 -0.1632  0.7016 -0.3565
39905SOL    HW223121   4.077   4.718   5.204  0.1812 -0.5791  0.5503
39906SOL     OW23122   5.237   1.044   6.760  0.5293  0.1818  0.0393
39906SOL    HW123123   5.247   1.140   6.760  0.5012  0.1829  0.8427
39906SOL    HW223124   5.318   1.012   6.799  0.0797 -0.0747  0.7715
39907SOL     OW23125   3.598   6.876   4.529 -0.1154 -0.4729  0.0625
39907SOL    HW123126   3.624   6.962   4.560 -1.0776 -0.8150  1.9298
39907SOL    HW223127   3.550   6.837   4.603 -0.7350 -2.1323 -1.1607
39908SOL     OW23128   9.248   5.630   8.811 -0.3137  0.4446 -0.1375
39908SOL    HW123129   9.251   5.566   8.740  0.4586 -0.4480  0.6781
39908SOL    HW223130   9.160   5.621   8.849  0.1176 -0.8505  0.5997
39909SOL     OW23131   8.055   4.290   8.703 -0.0404  0.0695 -0.0847
39909SOL    HW123132   8.003   4.365   8.675  0.4032  0.4638  0.1353
39909SOL    HW223133   8.141   4.327   8.724  0.0966 -0.4547  0.2973
39910SOL     OW23134   6.406   8.219   7.526 -0.3819  0.0714 -0.4317
39910SOL    HW123135   6.384   8.130   7.554 -1.9404 -0.0039 -1.8585
39910SOL    HW223136   6.443   8.209   7.438  0.3267  0.7482 -0.2222
39911SOL     OW23137  10.620   9.158   9.736 -0.1906  0.4076 -0.3643
39911SOL    HW123138  10.582   9.077   9.702 -0.7605  0.6113 -0.2228
39911SOL    HW223139  10.667   9.131   9.815  1.3456 -0.1048 -1.4387
39912SOL     OW23140   1.958   5.073   2.710 -0.1496  0.7025 -0.0336
39912SOL    HW123141   1.898   5.000   2.695 -0.8545  1.2411  0.1609
39912SOL    HW223142   1.990   5.096   2.623 -1.3715  1.3891 -0.3079
39913SOL     OW23143   3.625   0.601   7.151  0.2727  0.0928 -0.6004
39913SOL    HW123144   3.668   0.516   7.138  1.1440  0.2744  0.9712
39913SOL    HW223145   3.567   0.587   7.226 -3.0621 -0.3533 -3.1340
39914SOL     OW23146  10.687   2.452   7.524  0.0339  0.5732  0.1324
39914SOL    HW123147  10.750   2.524   7.527 -0.4660  1.0428 -0.7288
39914SOL    HW223148  10.687   2.423   7.433 -0.3709  0.0071  0.3069
39915SOL     OW23149   3.874   8.941   1.923 -0.0162  0.2336  0.1576
39915SOL    HW123150   3.859   9.021   1.872  2.2262  0.2386 -0.5736
39915SOL    HW223151   3.827   8.956   2.006 -1.4197  1.3764 -0.8233
39916SOL     OW23152  10.079  10.796   3.268 -0.3038 -0.1974 -0.1188
39916SOL    HW123153   9.991  10.775   3.299 -0.5447  0.9761  0.0169
39916SOL    HW223154  10.115  10.713   3.239 -1.1313 -0.8359  0.6661
39917SOL     OW23155   9.673   0.480   7.805 -0.4090  0.4514  0.0107
39917SOL    HW123156   9.633   0.446   7.725 -0.4590 -1.2795  0.7379
39917SOL    HW223157   9.763   0.501   7.781 -0.6813  0.7780 -0.7175
39918SOL     OW23158   2.943   1.806   8.094 -0.0633  0.6684  0.3257
39918SOL    HW123159   2.879   1.751   8.140  0.7546  0.7632  1.5881
39918SOL    HW223160   2.890   1.863   8.038 -0.9372 -1.1414 -0.7062
39919SOL     OW23161  10.959  10.620   4.566  0.5898  1.0108 -0.1919
39919SOL    HW123162  10.984  10.690   4.627  1.4771 -0.5805  1.2949
39919SOL    HW223163  11.002  10.542   4.600 -3.0418 -0.9697  0.0443
39920SOL     OW23164   4.579   3.000   2.107  0.6664  0.7357 -0.3358
39920SOL    HW123165   4.588   2.973   2.016 -0.9800  1.9200 -0.8821
39920SOL    HW223166   4.516   2.938   2.144  1.5953  0.0429  0.1010
39921SOL     OW23167   5.387  10.197   0.439 -0.3505  0.0737  0.3495
39921SOL    HW123168   5.411  10.104   0.434 -0.1636  0.1239  0.3200
39921SOL    HW223169   5.292  10.198   0.427 -0.2287 -0.0253 -0.6305
39922SOL     OW23170   2.711   3.864   9.508  0.3555  0.8090  0.7962
39922SOL    HW123171   2.625   3.836   9.475 -0.3780  1.5427  2.0467
39922SOL    HW223172   2.768   3.863   9.431 -0.6999  0.0148  0.0152
39923SOL     OW23173  10.810   5.041   0.586 -0.3735 -0.4524  0.2680
39923SOL    HW123174  10.763   5.009   0.663 -1.3529 -0.2183 -0.2178
39923SOL    HW223175  10.752   5.020   0.512 -0.1529  0.6872 -0.2477
39924SOL     OW23176   6.994   3.333   2.845  0.4239  0.2728  0.2180
39924SOL    HW123177   7.026   3.264   2.787 -2.5363  0.0812 -1.2721
39924SOL    HW223178   6.990   3.291   2.931 -1.6779 -1.6081 -0.7245
39925SOL     OW23179   5.176   1.550   8.968  0.0282 -0.4006  0.4097
39925SOL    HW123180   5.256   1.596   8.943 -0.4622  1.1264  1.6216
39925SOL    HW223181   5.181   1.544   9.063 -1.3451 -0.2544  0.4900
39926SOL     OW23182   5.031   9.311   2.202 -0.4562  0.2078  0.1037
39926SOL    HW123183   5.057   9.219   2.198 -2.4057 -0.3696  0.2641
39926SOL    HW223184   4.976   9.318   2.280 -0.5746  1.4476 -0.0776
39927SOL     OW23185   8.832   8.187   3.891 -0.4974 -0.3495 -0.3187
39927SOL    HW123186   8.748   8.141   3.883 -0.1286 -2.1051  4.5092
39927SOL    HW223187   8.816   8.254   3.957  1.2988  0.8499 -1.0794
39928SOL     OW23188   2.299   7.905   4.662  0.0530  0.3843 -0.3648
39928SOL    HW123189   2.371   7.889   4.723 -0.7182  3.5266  1.5248
39928SOL    HW223190   2.220   7.892   4.715 -0.7249 -0.3567 -1.6796
39929SOL     OW23191   5.303   1.823   1.712  0.3980 -0.3515  0.4410
39929SOL    HW123192   5.286   1.795   1.802 -0.6302 -1.7501 -0.1812
39929SOL    HW223193   5.247   1.768   1.658  1.1971  0.2998 -1.0887
39930SOL     OW23194   3.297   5.095   1.162 -0.3002 -0.0786  0.5732
39930SOL    HW123195   3.335   5.007   1.155 -0.5183 -0.2949  1.9486
39930SOL    HW223196   3.211   5.086   1.121  0.5327  0.0535 -1.2514
39931SOL     OW23197   5.350   0.112   9.939 -0.1199 -0.1850 -0.3232
39931SOL    HW123198   5.417   0.168   9.902  1.1120 -1.2170  0.3024
39931SOL    HW223199   5.325   0.053   9.868 -0.6281  0.4312 -0.6589
39932SOL     OW23200   7.960   2.484   0.503  0.0588 -0.0851  0.5342
39932SOL    HW123201   7.930   2.507   0.415 -0.2666  1.0840  0.9459
39932SOL    HW223202   7.880   2.481   0.556  0.2470 -0.8265  0.7886
39933SOL     OW23203   5.297   6.626   3.993  0.3535  0.4410  0.3192
39933SOL    HW123204   5.368   6.576   3.951 -0.2566 -0.0045 -0.1985
39933SOL    HW223205   5.299   6.598   4.084 -1.6645 -2.5636 -0.4832
39934SOL     OW23206   9.878   8.102   8.142  0.3554  0.5781  0.1084
39934SOL    HW123207   9.891   8.162   8.068  3.0496 -1.2467 -0.9509
39934SOL    HW223208   9.966   8.079   8.170 -0.6523 -1.5840  1.5943
39935SOL     OW23209   4.679   2.718   8.290 -0.1413 -0.4933 -0.4140
39935SOL    HW123210   4.676   2.809   8.319  0.8627 -1.1267  1.7757
39935SOL    HW223211   4.766   2.707   8.252 -0.0561 -0.7065 -0.1530
39936SOL     OW23212   7.142   3.607   2.814 -0.0276 -0.3213 -0.1771
39936SOL    HW123213   7.134   3.656   2.732 -0.3760  1.4803  0.9201
39936SOL    HW223214   7.121   3.670   2.883  2.2353 -1.2410  1.4503
39937SOL     OW23215   6.169   7.116   1.957 -0.1793  0.0829  0.4335
39937SOL    HW123216   6.220   7.104   2.037 -0.0930 -0.0237  0.3627
39937SOL    HW223217   6.195   7.203   1.925 -0.1653  0.0985  0.4877
39938SOL     OW23218   8.629   8.413   7.748  0.2829 -0.5340  0.2542
39938SOL    HW123219   8.606   8.427   7.656  0.7792 -1.1555  0.0305
39938SOL    HW223220   8.614   8.320   7.762 -2.0460 -0.0024  1.4556
39939SOL     OW23221   6.146   9.717   6.804  0.3995  0.0834 -0.0755
39939SOL    HW123222   6.068   9.766   6.778  1.0668  1.3983  0.3449
39939SOL    HW223223   6.127   9.688   6.893  0.2553  0.1385 -0.0878
39940SOL     OW23224   2.781   0.587   7.108 -0.7288 -0.4504  0.5364
39940SOL    HW123225   2.731   0.518   7.151  0.0232 -1.5434 -0.3003
39940SOL    HW223226   2.715   0.647   7.073 -1.3938 -0.9033  1.0118
39941SOL     OW23227   7.641   1.690   3.593  0.7083  0.6346  0.3883
39941SOL    HW123228   7.547   1.676   3.596  0.3902  2.9985  2.4315
39941SOL    HW223229   7.654   1.753   3.522  0.7606  0.3279  0.1234
39942SOL     OW23230   9.973   5.425   4.570 -0.1955  0.0003  0.5885
39942SOL    HW123231   9.935   5.485   4.634 -1.3467  0.2150 -0.2670
39942SOL    HW223232   9.898   5.394   4.519  0.5566 -1.1092  0.1415
39943SOL     OW23233   8.931   3.981  10.406  0.2519  0.4842 -0.5694
39943SOL    HW123234   8.862   3.988  10.340  0.0498 -0.5806 -0.4773
39943SOL    HW223235   8.944   3.887  10.417  1.3908  0.6787 -0.2415
39944SOL     OW23236   1.637   7.975   5.490 -0.4953 -0.2291 -0.3734
39944SOL    HW123237   1.598   7.931   5.565 -1.6266  1.1150 -0.1430
39944SOL    HW223238   1.594   8.061   5.487  1.6916  0.9058 -0.7422
39945SOL     OW23239   4.246   2.928   3.905 -0.2412  0.2940  0.0874
39945SOL    HW123240   4.293   2.881   3.974 -0.4798 -0.1528 -0.0555
39945SOL    HW223241   4.157   2.938   3.940 -0.8542 -1.5209 -0.9030
39946SOL     OW23242   2.338   0.688   3.485 -0.1403  0.3108 -0.2798
39946SOL    HW123243   2.412   0.722   3.535  0.3490 -1.4872  0.2453
39946SOL    HW223244   2.372   0.678   3.396  0.3745 -0.8667  0.0411
39947SOL     OW23245   5.159  10.625  10.439 -0.0580  0.1512  0.4402
39947SOL    HW123246   5.122  10.644  10.353 -0.6636  0.4734  0.7701
39947SOL    HW223247   5.120  10.690  10.497 -0.5592 -0.7854  1.1786
39948SOL     OW23248   8.400   2.091   0.121  0.0040  0.2520 -0.1856
39948SOL    HW123249   8.476   2.121   0.073 -0.5661 -0.4334 -1.5396
39948SOL    HW223250   8.434   2.022   0.179  0.3272 -0.3970 -1.1432
39949SOL     OW23251   2.128   0.927   8.373  0.0772 -0.2038 -0.1859
39949SOL    HW123252   2.203   0.970   8.413 -0.4848  0.5122  0.1115
39949SOL    HW223253   2.056   0.943   8.434 -0.4467 -0.3848 -0.7554
39950SOL     OW23254   2.081   8.100   0.115  0.3133 -0.5217 -0.9997
39950SOL    HW123255   2.049   8.053   0.192  3.1921 -0.6748  0.1687
39950SOL    HW223256   2.083   8.192   0.142  0.6326 -0.4916 -1.1179
39951SOL     OW23257   3.291   8.407  10.957 -0.0886  0.0565 -0.0974
39951SOL    HW123258   3.349   8.484  10.954  0.9425 -0.6953  0.3011
39951SOL    HW223259   3.238   8.420  11.035 -0.5089  0.7850 -0.4993
39952SOL     OW23260   7.592   7.663  10.338  0.2718 -0.1756  0.7749
39952SOL    HW123261   7.588   7.685  10.246 -0.3949 -0.5268  0.7101
39952SOL    HW223262   7.536   7.586  10.346  0.5615 -0.3252  1.4196
39953SOL     OW23263   8.989   1.981   1.860 -0.0192  0.1072  0.2197
39953SOL    HW123264   9.014   1.889   1.872 -0.1109 -0.0794 -0.9809
39953SOL    HW223265   8.933   2.000   1.935  1.4111 -0.3034  1.4075
39954SOL     OW23266   3.589   6.411   9.691  0.5126  0.0297  0.2562
39954SOL    HW123267   3.511   6.391   9.743  0.6194 -0.6896  0.1392
39954SOL    HW223268   3.587   6.506   9.681 -0.9149 -0.0750 -0.6109
39955SOL     OW23269   0.090   0.878   8.922 -0.2541 -0.1459  0.0521
39955SOL    HW123270   0.049   0.933   8.855  1.7179  0.5044 -0.6541
39955SOL    HW223271   0.033   0.802   8.929 -1.7008  0.8525 -0.7300
39956SOL     OW23272   6.154   7.292   8.347 -0.3062 -0.0620 -0.0261
39956SOL    HW123273   6.217   7.281   8.276 -0.6708 -0.4838 -0.2940
39956SOL    HW223274   6.115   7.205   8.358 -0.2887  0.0146  0.6552
39957SOL     OW23275   6.403   1.336   3.650 -0.4375  0.5539 -0.3547
39957SOL    HW123276   6.415   1.428   3.626 -0.0281  0.2351 -1.3790
39957SOL    HW223277   6.484   1.312   3.696  0.0575  0.3016 -1.3526
39958SOL     OW23278   9.083   7.226   4.026 -0.5957  0.3668 -0.0041
39958SOL    HW123279   9.172   7.258   4.010 -0.5692  0.7052  0.8100
39958SOL    HW223280   9.086   7.188   4.114 -1.3896  0.8750  0.2514
39959SOL     OW23281   6.902  10.793  10.341 -0.2899 -0.5216  0.2375
39959SOL    HW123282   6.890  10.699  10.354 -2.6225 -0.2678  0.1018
39959SOL    HW223283   6.813  10.828  10.332  0.5409  1.7235  0.4236
39960SOL     OW23284   1.598  10.534   1.266 -0.0270  0.0919 -0.0142
39960SOL    HW123285   1.675  10.488   1.233  0.6840  1.5760 -0.4683
39960SOL    HW223286   1.553  10.470   1.321  0.5885 -1.3444 -1.1640
39961SOL     OW23287   8.706   5.428   2.798  0.3917  0.3850  0.3826
39961SOL    HW123288   8.788   5.465   2.765  0.4407  0.9680  1.1258
39961SOL    HW223289   8.723   5.334   2.805 -0.1336  0.0162 -2.6897
39962SOL     OW23290   1.144   3.505   9.826  0.8010  0.3335  0.0633
39962SOL    HW123291   1.171   3.417   9.850  1.2026  0.5264  0.3155
39962SOL    HW223292   1.201   3.528   9.753  0.2346  0.1208 -0.4475
39963SOL     OW23293   5.498   2.122   5.825  0.0501  0.0153  0.2671
39963SOL    HW123294   5.579   2.078   5.800  0.2443 -0.4423  1.6491
39963SOL    HW223295   5.524   2.182   5.894 -1.1442 -1.7661  2.3291
39964SOL     OW23296   7.193   3.533   3.969  0.6443 -0.6657  0.1075
39964SOL    HW123297   7.153   3.510   4.053  0.9381  0.8268  0.6682
39964SOL    HW223298   7.280   3.564   3.992  0.8262 -0.5258 -0.7747
39965SOL     OW23299   0.315   7.499   0.891  0.3364 -0.5317 -0.4986
39965SOL    HW123300   0.317   7.503   0.987  1.2446  0.1751 -0.5411
39965SOL    HW223301   0.280   7.412   0.872 -1.8826  0.0953  0.4617
39966SOL     OW23302   9.603   6.465   4.246  0.2763  0.6136  0.4281
39966SOL    HW123303   9.579   6.494   4.333 -0.1531  1.4336  0.0391
39966SOL    HW223304   9.520   6.440   4.205  0.4044  0.8112  0.0440
39967SOL     OW23305   5.197   2.236   9.812  0.0658 -0.2582  0.2144
39967SOL    HW123306   5.211   2.329   9.826 -0.4961 -0.4477  2.2241
39967SOL    HW223307   5.277   2.206   9.768  0.2480  1.1465 -0.4336
39968SOL     OW23308   9.512   4.255   8.002  0.2237  0.1719  0.8192
39968SOL    HW123309   9.447   4.280   8.068  0.5141 -0.0866  1.2039
39968SOL    HW223310   9.504   4.322   7.934 -1.1184 -0.3872  0.3942
39969SOL     OW23311   3.164   3.833   8.938  0.5588  0.1274 -0.1653
39969SOL    HW123312   3.144   3.917   8.979  2.3965  1.1544 -1.2724
39969SOL    HW223313   3.248   3.808   8.975  1.6898  0.5137 -2.3828
39970SOL     OW23314   1.233   2.002   0.065 -0.0998 -0.2582 -0.1555
39970SOL    HW123315   1.158   1.962   0.021  0.0673 -0.2284 -0.4749
39970SOL    HW223316   1.202   2.022   0.153 -1.3872  2.4921 -1.1880
39971SOL     OW23317   4.852   0.831   4.658  0.0859 -0.0932 -0.2024
39971SOL    HW123318   4.849   0.878   4.741 -0.3700 -0.1585 -0.1790
39971SOL    HW223319   4.830   0.897   4.592 -0.5164 -0.2590 -0.1729
39972SOL     OW23320   2.703   3.942  10.887 -0.3448 -0.2108  0.3173
39972SOL    HW123321   2.772   3.940  10.954  0.8701  2.7895 -0.7741
39972SOL    HW223322   2.655   3.860  10.901  0.8906 -0.4587  3.7589
39973SOL     OW23323   0.478   6.753   5.443 -0.4157  0.0958  0.1107
39973SOL    HW123324   0.564   6.793   5.435 -0.1210 -0.9142 -2.0825
39973SOL    HW223325   0.452   6.733   5.353 -2.0351 -1.4962  0.8925
39974SOL     OW23326   9.087   5.207   0.488  0.5251 -0.1517 -0.3418
39974SOL    HW123327   9.026   5.136   0.507  0.2434  0.8698  2.7778
39974SOL    HW223328   9.035   5.271   0.439  0.3733 -1.3620 -1.7979
39975SOL     OW23329   5.801   8.964   7.688  0.1090 -0.1507 -0.4300
39975SOL    HW123330   5.745   8.942   7.762 -0.1742  0.3544 -0.4936
39975SOL    HW223331   5.856   9.036   7.719 -0.8175  0.8471 -1.0816
39976SOL     OW23332   2.591   1.680   1.916 -0.2124  0.3138  0.0932
39976SOL    HW123333   2.681   1.692   1.887  0.2979  0.1784  1.6143
39976SOL    HW223334   2.597   1.625   1.994 -1.8033 -1.8064 -1.2278
39977SOL     OW23335   3.492   3.669   1.249  0.3329  0.1095 -0.1766
39977SOL    HW123336   3.438   3.600   1.211 -1.6359  1.4871  0.0805
39977SOL    HW223337   3.523   3.720   1.175  2.8866 -1.7785 -0.4800
39978SOL     OW23338   7.503   7.633   8.824  0.2449  0.5124 -0.5452
39978SOL    HW123339   7.449   7.701   8.862 -0.5077 -0.5122  0.2589
39978SOL    HW223340   7.441   7.572   8.784  0.7666 -0.7527  0.5281
39979SOL     OW23341   2.215   3.200   7.184 -0.0842  0.1987  0.2118
39979SOL    HW123342   2.210   3.168   7.275 -1.5693 -1.2424 -0.3523
39979SOL    HW223343   2.163   3.138   7.134  0.2376  1.3231 -1.5581
39980SOL     OW23344  10.428   1.353   6.663  0.1812 -0.0477  0.3833
39980SOL    HW123345  10.335   1.332   6.651  0.7592 -1.7561 -1.3950
39980SOL    HW223346  10.437   1.442   6.630 -0.9267  0.3858  1.1936
39981SOL     OW23347   9.460  10.118   0.543  0.1376  0.4246 -0.2529
39981SOL    HW123348   9.464  10.068   0.461 -0.9059 -0.1414  0.0250
39981SOL    HW223349   9.511  10.066   0.605 -0.5180 -0.0627 -0.1018
39982SOL     OW23350   7.137   6.782   7.785  0.2167  0.3257 -0.4956
39982SOL    HW123351   7.076   6.851   7.810  2.4001  2.1973 -0.1773
39982SOL    HW223352   7.177   6.812   7.703  0.5693 -0.9568 -0.8159
39983SOL     OW23353   8.784   7.692  10.280 -0.4092 -0.0606 -0.0711
39983SOL    HW123354   8.766   7.682  10.373 -0.7507  1.5514  0.0465
39983SOL    HW223355   8.709   7.653  10.236 -0.0370 -1.2292  0.3105
39984SOL     OW23356   9.762  10.297   0.559  0.4460 -0.0688  0.2007
39984SOL    HW123357   9.752  10.367   0.623 -2.0000 -1.2173  1.1490
39984SOL    HW223358   9.679  10.298   0.510  1.2077 -0.9680 -1.1337
39985SOL     OW23359   8.722   6.516  10.471  0.2309  0.6610  0.1645
39985SOL    HW123360   8.756   6.589  10.521 -0.5403  1.8743 -1.0364
39985SOL    HW223361   8.633   6.503  10.504  0.1540  0.6640 -0.0392
39986SOL     OW23362   5.622   6.428   1.609  0.1505 -0.1057 -0.1538
39986SOL    HW123363   5.529   6.422   1.631  0.5595 -0.8553  1.4859
39986SOL    HW223364   5.649   6.337   1.597  0.8070  0.0581  0.0505
39987SOL     OW23365   9.724   2.161   9.227 -0.0397  0.3520  0.7888
39987SOL    HW123366   9.633   2.165   9.199 -0.1742 -0.2428  1.1410
39987SOL    HW223367   9.773   2.136   9.148 -0.2065  0.4453  0.6565
39988SOL     OW23368  10.559   3.455   0.653 -0.0824  0.2406  0.0302
39988SOL    HW123369  10.590   3.366   0.637 -0.3769 -0.2745  2.2094
39988SOL    HW223370  10.479   3.462   0.601  0.9181 -0.1206 -1.6031
39989SOL     OW23371   7.791  10.383   4.077  1.0771  0.9508  0.0022
39989SOL    HW123372   7.704  10.350   4.056  0.8718  0.1154  2.0414
39989SOL    HW223373   7.774  10.463   4.128  1.5418  2.0744 -1.5637
39990SOL     OW23374   8.227  10.911   5.880  0.2726  0.7208  0.1865
39990SOL    HW123375   8.280  10.885   5.804 -1.5180 -0.7309 -0.6059
39990SOL    HW223376   8.286  10.964   5.933  2.1398  0.1732 -1.2774
39991SOL     OW23377   4.567   0.695   3.598 -0.2383 -0.7256 -0.4772
39991SOL    HW123378   4.551   0.623   3.659  1.9066 -1.1970 -0.4232
39991SOL    HW223379   4.634   0.662   3.539  1.9965  1.7526  0.5574
39992SOL     OW23380   2.023   4.107   8.174 -0.3072 -0.0895  0.2554
39992SOL    HW123381   2.002   4.108   8.080  0.3113 -0.3315  0.1085
39992SOL    HW223382   2.095   4.169   8.182 -0.3297 -0.1042  0.5670
39993SOL     OW23383   6.380   4.961  10.412 -0.5167 -0.4204 -0.6689
39993SOL    HW123384   6.331   5.043  10.409  1.7741  1.0459  0.3305
39993SOL    HW223385   6.360   4.925  10.498  2.0173  1.4377  0.7710
39994SOL     OW23386  10.656   8.271   4.390 -0.0680  0.6316  0.3321
39994SOL    HW123387  10.565   8.296   4.372  0.2751  0.8718 -1.1060
39994SOL    HW223388  10.659   8.178   4.371  0.2558  0.8514 -0.6958
39995SOL     OW23389   7.553   3.907   2.295  0.4775 -0.3307  0.2682
39995SOL    HW123390   7.555   3.992   2.250 -3.4900 -0.5135 -0.4533
39995SOL    HW223391   7.551   3.842   2.225  0.3784 -0.9013  0.7963
39996SOL     OW23392   6.815   3.804  10.661  0.7498 -0.1100 -0.3113
39996SOL    HW123393   6.724   3.829  10.648  0.1692 -0.5303  2.5931
39996SOL    HW223394   6.856   3.815  10.575 -1.7697  1.1429 -1.3866
39997SOL     OW23395   2.894   3.477   2.013  0.8348 -0.2060  0.2773
39997SOL    HW123396   2.846   3.530   1.949 -0.5408 -0.0817  1.3741
39997SOL    HW223397   2.894   3.531   2.093  0.4102 -1.3826  1.0798
39998SOL     OW23398   2.182   1.159   1.565 -0.0530  0.1985  0.5398
39998SOL    HW123399   2.098   1.185   1.525  0.0973  0.6843  0.5406
39998SOL    HW223400   2.180   1.200   1.652  1.2248  2.2033 -0.3491
39999SOL     OW23401   6.294   1.905   2.610  0.0233 -0.2974 -0.2927
39999SOL    HW123402   6.225   1.839   2.614 -1.0025  0.7818 -0.0797
39999SOL    HW223403   6.276   1.964   2.683  1.1742 -0.0111 -0.2322
40000SOL     OW23404   4.982   8.153   3.466 -0.7432 -0.0956  0.0728
40000SOL    HW123405   5.039   8.079   3.444 -0.4753 -0.0563  0.6351
40000SOL    HW223406   4.918   8.116   3.528  2.1413  1.1689  4.0010
40001SOL     OW23407   0.585   9.007  10.103 -0.0043 -0.0077  0.2081
40001SOL    HW123408   0.619   9.026  10.190  0.0903 -0.4249  0.2611
40001SOL    HW223409   0.594   8.913  10.093  0.1731  0.0610 -0.3317
40002SOL     OW23410   7.944  10.610  10.554 -0.0776 -0.7383  0.2010
40002SOL    HW123411   7.995  10.634  10.632  1.8608 -0.4594 -1.1255
40002SOL    HW223412   7.917  10.519  10.571  1.0920 -0.9885  0.8211
40003SOL     OW23413   2.821   7.456   6.483  0.1428  0.4020 -0.3717
40003SOL    HW123414   2.771   7.459   6.402 -1.8807 -0.6094  0.7798
40003SOL    HW223415   2.835   7.363   6.500 -0.3197  0.5411  0.9000
40004SOL     OW23416   3.364   1.734   2.262 -0.1119 -0.2690 -0.2826
40004SOL    HW123417   3.424   1.662   2.282 -0.0048 -0.3223 -0.7727
40004SOL    HW223418   3.421   1.807   2.240 -0.2173  0.2663  1.2289
40005SOL     OW23419   1.907   0.304   4.115 -0.4310  0.2467 -0.0117
40005SOL    HW123420   1.987   0.275   4.073 -0.1086  1.2148 -0.0754
40005SOL    HW223421   1.902   0.252   4.195 -0.2184 -0.4614 -0.4523
40006SOL     OW23422  10.516  10.911   3.853  0.4370 -0.0993 -0.6089
40006SOL    HW123423  10.423  10.935   3.848  0.6670  1.0475  0.4338
40006SOL    HW223424  10.524  10.869   3.939  1.2725  1.5308  0.1137
40007SOL     OW23425   0.522   5.836   1.474 -0.5606 -0.0685  0.1885
40007SOL    HW123426   0.440   5.884   1.487 -1.0651 -1.1653  1.2427
40007SOL    HW223427   0.588   5.904   1.461 -1.2964  0.9010  1.4083
40008SOL     OW23428   7.909   7.711  10.926  0.8532  0.4188 -0.2261
40008SOL    HW123429   7.900   7.657  11.004  0.6613  0.4041 -0.2594
40008SOL    HW223430   7.942   7.651  10.859  2.1445  0.6890  0.1523
40009SOL     OW23431   5.796  10.268  10.838  0.1486 -0.9919 -0.5806
40009SOL    HW123432   5.868  10.262  10.900  0.7861  0.5946 -1.1338
40009SOL    HW223433   5.718  10.275  10.892  0.5661 -1.0988  0.0411
40010SOL     OW23434   0.636   6.363   2.648  0.5725  0.5469 -0.1998
40010SOL    HW123435   0.706   6.393   2.707  1.1419  0.6521 -0.9319
40010SOL    HW223436   0.587   6.442   2.627  0.7289  0.6010 -0.3543
40011SOL     OW23437   1.417   3.687   7.265 -0.3843 -0.7241  0.4710
40011SOL    HW123438   1.471   3.607   7.264 -0.6478 -0.9355 -2.0616
40011SOL    HW223439   1.343   3.666   7.208 -1.4969  0.6754  1.3619
40012SOL     OW23440   6.087   9.964   7.070 -0.5429 -0.0244 -0.4222
40012SOL    HW123441   6.177   9.939   7.088 -1.2183 -2.3526 -0.1625
40012SOL    HW223442   6.079  10.053   7.105  1.4930 -0.0048  0.0117
40013SOL     OW23443   4.472   9.912   9.869 -0.4009  0.2138  0.0907
40013SOL    HW123444   4.510   9.885   9.953 -0.3293  1.3233  0.4295
40013SOL    HW223445   4.456   9.830   9.822 -0.0561 -0.3966  1.0211
40014SOL     OW23446  10.686  10.857   6.431 -0.4459 -0.4436  0.2106
40014SOL    HW123447  10.604  10.891   6.395 -0.5413  0.7202  1.5292
40014SOL    HW223448  10.739  10.837   6.354 -1.7967 -0.8196 -0.6463
40015SOL     OW23449   7.682  10.803   4.025  0.0878 -0.3871  0.1381
40015SOL    HW123450   7.692  10.895   3.999  0.9867 -1.1448 -2.2651
40015SOL    HW223451   7.589  10.795   4.047  0.0194  1.1081  0.4624
40016SOL     OW23452  10.837   6.088   4.469 -0.0320 -0.0882 -0.1378
40016SOL    HW123453  10.877   6.079   4.556 -0.1533 -2.0684 -0.2490
40016SOL    HW223454  10.840   6.181   4.450  1.0229  0.2351  1.5203
40017SOL     OW23455   6.994   4.815   4.238  0.3288 -0.0314  0.3037
40017SOL    HW123456   6.981   4.806   4.143 -1.7100 -0.0512  0.5527
40017SOL    HW223457   7.078   4.860   4.246  0.7863 -0.4860 -1.4940
40018SOL     OW23458   6.875   4.390   1.620 -0.3288  0.7168 -0.0849
40018SOL    HW123459   6.861   4.313   1.676  0.2396  0.5941 -0.1107
40018SOL    HW223460   6.813   4.455   1.653 -0.8431  0.2364 -0.0878
40019SOL     OW23461   3.736   1.584   1.999  0.0608  0.4932 -0.0084
40019SOL    HW123462   3.644   1.605   1.989 -0.0004  0.9982  1.4316
40019SOL    HW223463   3.752   1.512   1.938 -1.5937 -0.4874  0.6826
40020SOL     OW23464  10.830   8.922   8.283  0.1236  0.0568 -0.1865
40020SOL    HW123465  10.787   8.972   8.353 -0.9846 -1.6641  0.3874
40020SOL    HW223466  10.892   8.866   8.329 -1.1009 -1.5872 -0.4843
40021SOL     OW23467  10.965   3.656   1.322 -0.1159  0.0025 -0.0746
40021SOL    HW123468  10.934   3.576   1.281 -1.2023  0.3108  0.1319
40021SOL    HW223469  10.934   3.651   1.412  1.1586 -0.0686  0.3767
40022SOL     OW23470   0.258   7.992  10.146  0.1309  0.1799 -0.7314
40022SOL    HW123471   0.195   7.937  10.192  0.3594  1.7874  1.6173
40022SOL    HW223472   0.205   8.066  10.115  0.2031 -0.2995 -2.0059
40023SOL     OW23473   7.893   2.166   0.579  0.0794 -0.1320  0.0836
40023SOL    HW123474   7.830   2.213   0.633 -0.5666 -0.3051 -0.5075
40023SOL    HW223475   7.955   2.233   0.549 -0.6493  0.2827 -0.4960
40024SOL     OW23476   3.680   0.661   1.289  0.4071  0.1838 -0.5643
40024SOL    HW123477   3.647   0.632   1.374 -0.7415 -0.2416 -1.1396
40024SOL    HW223478   3.607   0.708   1.249  0.8049  0.0661 -1.4590
40025SOL     OW23479  10.777   2.335   2.959 -0.5294 -0.3199 -0.0454
40025SOL    HW123480  10.764   2.319   2.866  3.9192 -1.7742 -0.5370
40025SOL    HW223481  10.783   2.248   2.998 -0.1642  0.2717  1.2432
40026SOL     OW23482   0.729   9.610   3.057 -0.0212 -0.1076  0.4554
40026SOL    HW123483   0.636   9.589   3.053 -0.0127  0.0489 -0.6148
40026SOL    HW223484   0.732   9.705   3.042  0.5428 -0.5920 -2.7737
40027SOL     OW23485   0.183   9.727   8.161  0.1511  0.1649  0.3913
40027SOL    HW123486   0.103   9.720   8.109  0.9479  0.0156 -0.8599
40027SOL    HW223487   0.184   9.817   8.193  0.0131  0.4912 -0.4954
40028SOL     OW23488   0.530   5.373  10.710  0.3683 -0.2509  0.4570
40028SOL    HW123489   0.574   5.358  10.793  1.4830 -0.6139 -0.1758
40028SOL    HW223490   0.497   5.462  10.715 -0.8421 -0.7717  1.8455
40029SOL     OW23491   6.553   4.456   7.285 -0.3071  0.0556 -0.0580
40029SOL    HW123492   6.503   4.494   7.213 -1.5511  1.6023  1.5867
40029SOL    HW223493   6.495   4.464   7.361  1.3617 -0.6649  1.3120
40030SOL     OW23494   7.807   5.283   4.069  0.0062  0.3238  0.1275
40030SOL    HW123495   7.717   5.263   4.095  1.1980 -2.6016  2.4170
40030SOL    HW223496   7.803   5.371   4.032 -3.6873  0.4483  0.6195
40031SOL     OW23497   1.490  10.848   4.550 -0.4896 -0.1647 -0.0840
40031SOL    HW123498   1.499  10.810   4.462 -2.4648 -1.9913  0.4374
40031SOL    HW223499   1.565  10.814   4.598  0.4197  0.5689 -0.9512
40032SOL     OW23500   7.086   0.321   7.732  0.1375 -1.2543 -0.1981
40032SOL    HW123501   6.998   0.346   7.705 -0.0571 -0.5677  1.0648
40032SOL    HW223502   7.117   0.264   7.661 -0.6650 -0.1295 -1.4910
40033SOL     OW23503   8.104   5.349   2.266  0.2395  0.4852  0.2078
40033SOL    HW123504   8.045   5.421   2.290  0.3585  0.0866  1.7208
40033SOL    HW223505   8.057   5.303   2.197 -0.2773  1.4367 -0.0880
40034SOL     OW23506   9.821   6.632   4.639  0.5899 -0.0735 -0.0318
40034SOL    HW123507   9.778   6.688   4.575  0.9331 -0.9844 -1.0750
40034SOL    HW223508   9.913   6.629   4.611  0.8872  0.0859  0.9104
40035SOL     OW23509   5.307  10.189   5.638 -0.1737  0.0093  0.0673
40035SOL    HW123510   5.246  10.257   5.613 -0.1638  0.1075  0.3115
40035SOL    HW223511   5.252  10.117   5.669 -0.2737 -0.8929 -2.1284
40036SOL     OW23512   6.206   8.080  10.628 -0.5614  0.1997  0.3101
40036SOL    HW123513   6.249   8.159  10.661  0.4738 -0.0964 -0.3064
40036SOL    HW223514   6.275   8.034  10.579 -1.7250 -0.0135 -1.1466
40037SOL     OW23515   3.907   4.643   1.004  0.2800 -0.3260  0.4198
40037SOL    HW123516   4.001   4.660   0.993  0.5063 -0.8121  1.4739
40037SOL    HW223517   3.877   4.716   1.059 -0.1418  0.2823 -0.6001
40038SOL     OW23518   6.761   8.469   4.276  0.2658  0.0950  0.1789
40038SOL    HW123519   6.817   8.545   4.294  2.1304 -1.3784  0.8782
40038SOL    HW223520   6.761   8.420   4.358  0.9268 -1.7801 -0.8977
40039SOL     OW23521   6.735   7.634   5.505  0.3074 -0.4353 -0.3391
40039SOL    HW123522   6.666   7.572   5.483 -0.2061 -1.0447  2.7608
40039SOL    HW223523   6.816   7.584   5.497  0.0233 -1.0354  0.5360
40040SOL     OW23524   8.068   2.870   7.991  0.0743  0.1059 -0.3208
40040SOL    HW123525   8.110   2.939   8.041  1.0614  0.3339 -1.4355
40040SOL    HW223526   7.989   2.848   8.040 -0.1559  1.9030  0.1181
40041SOL     OW23527   2.728   0.378   8.917 -0.4089 -0.1385 -0.2265
40041SOL    HW123528   2.645   0.423   8.898  0.1594  0.6707 -0.8457
40041SOL    HW223529   2.716   0.290   8.882 -0.8294  0.1290 -0.7683
40042SOL     OW23530  10.088  10.759   8.846 -0.6054  0.1688  0.0026
40042SOL    HW123531  10.032  10.753   8.769  0.5045  2.0225 -0.9922
40042SOL    HW223532  10.133  10.675   8.850  0.8748  0.7875 -2.6250
40043SOL     OW23533   4.944   9.068   5.393  0.3490 -0.1874  0.6638
40043SOL    HW123534   4.860   9.048   5.353  1.1327 -0.1429 -1.0735
40043SOL    HW223535   4.928   9.065   5.487 -2.0313  1.6935  0.3616
40044SOL     OW23536  10.754   6.259   7.756 -0.4301  0.1800  0.3927
40044SOL    HW123537  10.692   6.236   7.825 -1.3074  0.2508 -0.3619
40044SOL    HW223538  10.834   6.282   7.803 -1.4260  1.5697  1.4867
40045SOL     OW23539  10.729   2.358   6.227  0.2226  0.0078  0.5706
40045SOL    HW123540  10.696   2.287   6.282 -1.4049  0.6667  0.4670
40045SOL    HW223541  10.811   2.324   6.192 -0.0679 -1.4640  1.2487
40046SOL     OW23542   1.005  10.607   8.851 -0.0311 -0.1251 -0.2605
40046SOL    HW123543   1.084  10.594   8.903  1.2785 -0.5130 -2.2844
40046SOL    HW223544   0.993  10.524   8.805  0.9145  1.3104 -3.2760
40047SOL     OW23545   8.785   5.500   0.822 -0.1459 -0.0651  0.5133
40047SOL    HW123546   8.776   5.405   0.825 -1.1395  0.0529  1.7437
40047SOL    HW223547   8.715   5.532   0.878 -0.2653  1.4292 -0.4671
40048SOL     OW23548   2.735   9.280  10.214  0.1659  0.4398 -0.0888
40048SOL    HW123549   2.720   9.366  10.175 -0.6853 -0.1522 -1.0820
40048SOL    HW223550   2.828   9.279  10.236 -0.1354  2.2108  1.3770
40049SOL     OW23551   3.214  10.147   9.266 -0.4113 -0.0818  0.7693
40049SOL    HW123552   3.163  10.188   9.336 -0.5428  0.1668  0.5293
40049SOL    HW223553   3.181  10.187   9.185 -0.6764 -0.8105  0.5157
40050SOL     OW23554   4.169   4.883   3.635 -0.3926  0.2547 -0.6770
40050SOL    HW123555   4.176   4.790   3.618 -1.9543  0.2183 -1.1831
40050SOL    HW223556   4.080   4.906   3.610 -0.1645  1.8000 -0.1566
40051SOL     OW23557   6.191   3.225   4.873 -0.0587  0.4237  0.6348
40051SOL    HW123558   6.282   3.198   4.885 -0.7055 -1.6951  1.0130
40051SOL    HW223559   6.195   3.296   4.809  1.7435 -0.4372 -0.2261
40052SOL     OW23560   6.376   3.644   9.968  0.3546 -0.4478 -0.0950
40052SOL    HW123561   6.398   3.713  10.031 -0.5517 -0.5031  0.2897
40052SOL    HW223562   6.314   3.588  10.015  0.5609 -1.1476 -0.6403
40053SOL     OW23563   2.138   2.433   4.599  0.2245  0.2813  0.5167
40053SOL    HW123564   2.170   2.414   4.687  1.5762 -0.0344 -0.0363
40053SOL    HW223565   2.082   2.358   4.578 -2.0222  1.4696  1.9979
40054SOL     OW23566   4.221   8.010   0.501 -0.1394  0.0431  0.3374
40054SOL    HW123567   4.246   7.917   0.506 -1.0263 -0.2217  0.0202
40054SOL    HW223568   4.126   8.009   0.509 -0.4523  0.6553 -2.6609
40055SOL     OW23569   6.144   5.877   2.860 -0.5090 -0.2865 -0.1360
40055SOL    HW123570   6.180   5.920   2.783 -0.3050 -1.3794 -0.6652
40055SOL    HW223571   6.217   5.827   2.896 -0.5646  0.3310  0.8530
40056SOL     OW23572   6.729   9.623   9.044  0.7262 -0.3959 -0.1852
40056SOL    HW123573   6.744   9.678   9.121  0.2097 -1.1764  0.4792
40056SOL    HW223574   6.657   9.666   8.997  1.2535  0.2553 -0.4111
40057SOL     OW23575   6.308  10.780   5.845  0.6609 -0.0057 -0.3009
40057SOL    HW123576   6.328  10.852   5.905 -0.2020  0.4817 -0.5739
40057SOL    HW223577   6.389  10.765   5.797  1.0223  0.3760  0.1885
40058SOL     OW23578   0.237   8.880   4.406 -0.0481 -0.1304 -0.2621
40058SOL    HW123579   0.165   8.860   4.346 -0.9727 -0.8457  1.0703
40058SOL    HW223580   0.258   8.797   4.449  0.3328  0.4435  0.6939
40059SOL     OW23581   1.395   4.252   3.863 -0.1502  0.1600  0.2497
40059SOL    HW123582   1.405   4.181   3.927 -0.1467 -0.1263 -0.0679
40059SOL    HW223583   1.441   4.221   3.785 -1.4507 -0.1272 -0.4037
40060SOL     OW23584   8.709   2.617   2.714 -0.1702  0.3141 -0.0545
40060SOL    HW123585   8.652   2.678   2.666 -0.1596  0.1421 -0.2897
40060SOL    HW223586   8.755   2.569   2.645  0.2546  0.4483  0.1349
40061SOL     OW23587   8.264   6.082   8.432 -0.4546  0.2648 -0.1554
40061SOL    HW123588   8.355   6.103   8.410  0.2883 -2.0522  0.5142
40061SOL    HW223589   8.224   6.166   8.453  1.3470  1.4002 -1.1346
40062SOL     OW23590   2.801   1.809  10.474  0.4149  0.3499 -0.0113
40062SOL    HW123591   2.771   1.900  10.468  1.2609  0.5275 -1.9813
40062SOL    HW223592   2.821   1.784  10.383  2.9631 -0.8437  0.8070
40063SOL     OW23593   3.832   3.934   8.446 -0.1216 -0.4301 -0.0217
40063SOL    HW123594   3.757   3.876   8.463 -0.4670  0.2933  1.0093
40063SOL    HW223595   3.799   4.021   8.467  1.1874 -0.1741  0.9811
40064SOL     OW23596   2.873   7.656   0.938 -0.2236 -0.1528  0.0920
40064SOL    HW123597   2.878   7.668   0.843  0.7111  0.4222  0.1948
40064SOL    HW223598   2.829   7.573   0.950  0.4121 -0.6454 -0.8749
40065SOL     OW23599   6.397   2.165   7.802 -0.0946 -0.1435 -0.0516
40065SOL    HW123600   6.414   2.214   7.721  1.1185 -1.0132 -0.3439
40065SOL    HW223601   6.432   2.222   7.871 -1.6733  0.8683 -0.0665
40066SOL     OW23602   8.381   5.699   2.788  0.1344  0.2834 -0.4657
40066SOL    HW123603   8.415   5.710   2.700  0.6441 -0.1609 -0.3238
40066SOL    HW223604   8.428   5.624   2.824 -1.0032 -0.3604 -0.2771
40067SOL     OW23605   4.219   8.102   7.807  0.0523 -0.2516  0.8434
40067SOL    HW123606   4.251   8.101   7.898 -1.4118 -0.7694  1.3739
40067SOL    HW223607   4.162   8.179   7.804  1.7212  0.9710 -0.2381
40068SOL     OW23608   4.061   4.236   6.844  0.3422  0.2816 -0.1459
40068SOL    HW123609   3.979   4.196   6.814  1.2565  0.3542 -2.8873
40068SOL    HW223610   4.110   4.163   6.882  0.4092 -0.4517 -1.6218
40069SOL     OW23611   6.222   6.453  10.926 -0.6649  0.2310 -0.1118
40069SOL    HW123612   6.287   6.455  10.997 -0.3713  0.4870 -0.3863
40069SOL    HW223613   6.215   6.544  10.897 -0.1886  0.0161 -0.9401
40070SOL     OW23614   0.045   2.354   7.637  0.3062  0.1825 -0.1563
40070SOL    HW123615   0.007   2.433   7.596  0.2317  0.0029 -0.4354
40070SOL    HW223616   0.015   2.282   7.582  1.2588  0.0585 -0.5277
40071SOL     OW23617  10.483  10.600   3.139  0.4641 -0.6275  0.3637
40071SOL    HW123618  10.465  10.688   3.107  0.5943 -0.1472  1.6320
40071SOL    HW223619  10.495  10.548   3.059  3.1083  1.0412 -0.3826
40072SOL     OW23620   7.917   9.683   7.278  0.5239  0.3825  0.5261
40072SOL    HW123621   7.846   9.683   7.214  0.5528 -1.6760  0.4673
40072SOL    HW223622   7.917   9.594   7.314  1.7393  0.9620  2.0111
40073SOL     OW23623   9.442   2.119   5.194  0.0003  0.3161  0.5605
40073SOL    HW123624   9.513   2.148   5.252 -0.4791 -1.0358  1.8367
40073SOL    HW223625   9.447   2.024   5.196 -2.5557  0.1773  1.5516
40074SOL     OW23626   0.152   9.882   7.273 -0.1798 -0.3574 -0.2310
40074SOL    HW123627   0.148   9.791   7.244  0.4309 -0.6296  0.5322
40074SOL    HW223628   0.195   9.928   7.201  0.8348 -0.9293 -0.0053
40075SOL     OW23629   0.534   6.469   5.468 -0.4622 -0.0971  0.5790
40075SOL    HW123630   0.533   6.564   5.477 -1.1227 -0.0831  0.3820
40075SOL    HW223631   0.450   6.440   5.503 -0.6926 -0.5222 -0.3005
40076SOL     OW23632   2.126   9.288   9.092 -0.5513  0.5890 -0.1721
40076SOL    HW123633   2.109   9.361   9.152 -2.0851  0.3692 -0.3221
40076SOL    HW223634   2.114   9.325   9.005 -0.2945  0.4143 -0.2827
40077SOL     OW23635   0.950   4.469   4.047  0.2816  0.0182  0.0028
40077SOL    HW123636   0.975   4.490   3.957  0.1720  0.5281  0.0894
40077SOL    HW223637   1.020   4.508   4.101  0.7899 -1.0057  0.0943
40078SOL     OW23638   9.506   9.100   0.102  0.3652 -0.5184 -0.4495
40078SOL    HW123639   9.580   9.039   0.096  0.2735 -0.8070  1.0700
40078SOL    HW223640   9.438   9.060   0.048  0.0694 -2.1495  1.0913
40079SOL     OW23641   1.658   7.893   8.539 -0.3225  0.4666 -0.1506
40079SOL    HW123642   1.653   7.817   8.480 -1.0749  1.5123 -1.4859
40079SOL    HW223643   1.731   7.874   8.597 -0.8001 -1.4965 -0.1477
40080SOL     OW23644   7.004   5.306   7.373 -0.3447  0.3402  0.3368
40080SOL    HW123645   7.033   5.278   7.459 -2.9497  1.4622  1.6353
40080SOL    HW223646   6.928   5.250   7.354 -1.5181  1.9947  0.0479
40081SOL     OW23647   6.567   2.381   4.746 -0.7721  0.0468  0.2833
40081SOL    HW123648   6.614   2.459   4.718 -1.7844  0.6126  0.1311
40081SOL    HW223649   6.526   2.406   4.829 -2.0178  0.0577 -0.3160
40082SOL     OW23650   0.612   3.419   3.461  0.3494  0.0563  0.0728
40082SOL    HW123651   0.523   3.386   3.445 -0.1108  0.8866  0.8624
40082SOL    HW223652   0.658   3.345   3.500 -0.6524  0.3147  1.7602
40083SOL     OW23653   7.599   8.462   8.292  0.2099  0.5590  0.1589
40083SOL    HW123654   7.547   8.448   8.372 -1.2618  2.1510 -0.4833
40083SOL    HW223655   7.684   8.424   8.312 -0.5261 -0.1776  2.0387
40084SOL     OW23656   6.925   4.797   6.693  0.0967 -1.1238 -0.2734
40084SOL    HW123657   7.012   4.818   6.660  0.8809 -1.9201  1.2517
40084SOL    HW223658   6.871   4.786   6.615  1.1258  0.3562 -1.2113
40085SOL     OW23659   0.789   4.816   5.615 -0.6776 -0.8694 -0.1044
40085SOL    HW123660   0.837   4.879   5.669 -0.4780  0.4769 -1.8407
40085SOL    HW223661   0.787   4.736   5.668  1.1945 -0.1519  1.0832
40086SOL     OW23662   2.986   4.550   5.615  0.1238  0.0728 -0.4560
40086SOL    HW123663   2.942   4.487   5.672 -1.1131 -0.5413 -2.0613
40086SOL    HW223664   3.060   4.501   5.578 -0.1967 -0.1113 -0.8566
40087SOL     OW23665   9.645  10.325   1.253  0.0529 -0.4259 -0.2439
40087SOL    HW123666   9.550  10.335   1.248 -0.0842 -0.2470  2.0327
40087SOL    HW223667   9.666  10.255   1.191 -1.8187 -1.8841  0.7396
40088SOL     OW23668   6.863   4.378  10.581 -0.1039 -0.1649  0.3179
40088SOL    HW123669   6.837   4.333  10.661 -1.4307 -0.2661 -0.1598
40088SOL    HW223670   6.782   4.418  10.548  0.7417  1.2207 -0.1177
40089SOL     OW23671   8.366   0.620   5.327  0.5964  0.2781  0.5529
40089SOL    HW123672   8.356   0.602   5.420  3.1035 -1.1292  0.5906
40089SOL    HW223673   8.419   0.548   5.294  1.3008  1.7354 -1.6043
40090SOL     OW23674   8.567   0.339   7.364 -0.0341 -0.4614  0.4187
40090SOL    HW123675   8.556   0.420   7.414  2.7804 -1.5613  2.8853
40090SOL    HW223676   8.661   0.324   7.362 -0.3422 -2.4370 -2.1266
40091SOL     OW23677  10.100   9.042   0.061  0.3470  0.7570  0.1559
40091SOL    HW123678  10.178   9.005   0.103  0.0394 -1.8018 -1.4013
40091SOL    HW223679  10.043   8.966   0.046 -0.8017  2.0341 -2.1401
40092SOL     OW23680   1.712   4.807   4.109 -0.0749 -0.1751  0.1328
40092SOL    HW123681   1.637   4.752   4.131  0.2376 -1.8934 -2.8659
40092SOL    HW223682   1.689   4.848   4.026  2.1052 -0.4423 -0.6535
40093SOL     OW23683   1.068   0.316   5.693  0.0550 -0.6401  0.4659
40093SOL    HW123684   1.043   0.258   5.765  0.3112  1.2107  2.0861
40093SOL    HW223685   1.156   0.286   5.668  0.7169 -0.1706  2.1457
40094SOL     OW23686   7.644   1.225   4.682  0.0047  0.3044  0.1493
40094SOL    HW123687   7.587   1.299   4.705  0.4888  1.3546 -1.9251
40094SOL    HW223688   7.599   1.180   4.611  0.2448 -0.7777  0.6642
40095SOL     OW23689   7.182   7.278   5.520  1.0045  0.7654  0.1397
40095SOL    HW123690   7.216   7.362   5.552  0.9319  0.3661  1.2931
40095SOL    HW223691   7.180   7.222   5.598 -0.3901  0.1707 -0.3022
40096SOL     OW23692   3.282   2.351   0.703  0.0155  0.0552 -0.4316
40096SOL    HW123693   3.309   2.335   0.613 -0.2510 -0.2521 -0.4565
40096SOL    HW223694   3.345   2.302   0.756 -0.0810 -0.1090 -0.4672
40097SOL     OW23695   9.667   7.707   1.258 -0.5993  0.2489 -0.2300
40097SOL    HW123696   9.603   7.675   1.195 -0.9385 -1.0046  0.7414
40097SOL    HW223697   9.665   7.644   1.330  0.7868  0.8960  0.4093
40098SOL     OW23698   8.842   1.341   1.401  0.2011  0.0567  0.1045
40098SOL    HW123699   8.845   1.258   1.448 -2.2519 -0.2440 -0.2347
40098SOL    HW223700   8.841   1.316   1.308  2.9849  0.6029 -0.1410
40099SOL     OW23701   5.413   1.165   8.122 -0.3836 -0.7542  0.3408
40099SOL    HW123702   5.358   1.162   8.201 -0.6059 -0.5962  0.1928
40099SOL    HW223703   5.419   1.258   8.100 -0.5016 -0.8165  0.0468
40100SOL     OW23704   7.798   6.379  10.224  0.2684  0.1135 -0.2319
40100SOL    HW123705   7.748   6.353  10.301 -1.0019 -0.4227 -1.2352
40100SOL    HW223706   7.809   6.299  10.173  1.8727  0.2848 -0.1878
40101SOL     OW23707  10.319   2.556   9.869  0.2636  0.2242 -0.7360
40101SOL    HW123708  10.255   2.490   9.895 -0.5404  1.6131  0.8984
40101SOL    HW223709  10.403   2.510   9.869 -0.3065 -0.8455  0.1827
40102SOL     OW23710   9.118   1.772   0.929 -0.3679  0.0889 -0.0457
40102SOL    HW123711   9.071   1.735   0.855 -2.2350  0.7417  0.7931
40102SOL    HW223712   9.179   1.703   0.955  0.6813  0.0242 -2.4699
40103SOL     OW23713   5.597   4.440   8.953 -0.5381 -0.0796 -0.2074
40103SOL    HW123714   5.629   4.363   8.906 -1.9949  0.3483 -1.9516
40103SOL    HW223715   5.653   4.511   8.923  0.0133 -0.2191  0.4731
40104SOL     OW23716   5.500   5.075   5.978  0.7055  0.6283 -0.7229
40104SOL    HW123717   5.517   5.155   6.028 -2.0918  0.0585  1.3059
40104SOL    HW223718   5.566   5.012   6.008  0.0483  0.7924  1.1348
40105SOL     OW23719   8.767   2.868   8.189 -0.0239  0.8402 -0.2918
40105SOL    HW123720   8.784   2.828   8.274  0.7899  0.1849 -0.7484
40105SOL    HW223721   8.787   2.961   8.201 -0.3023  0.8173  0.3381
40106SOL     OW23722   0.336   2.138   9.680  0.0596 -0.2239 -0.1181
40106SOL    HW123723   0.340   2.122   9.774  0.3658  1.8168  0.2404
40106SOL    HW223724   0.424   2.169   9.657 -0.3269  0.3326 -0.8660
40107SOL     OW23725   8.361   0.703   9.931 -0.4030  0.2619  0.2275
40107SOL    HW123726   8.284   0.759   9.923 -1.9031 -1.6757  0.8908
40107SOL    HW223727   8.385   0.681   9.841 -0.4868  1.0149  0.0144
40108SOL     OW23728   4.626   6.689   7.613  0.2718  0.9622  0.2079
40108SOL    HW123729   4.708   6.640   7.601 -0.1444 -0.0022  1.2305
40108SOL    HW223730   4.627   6.716   7.705 -0.9127  0.2707  0.4369
40109SOL     OW23731   2.798   7.477   4.655 -0.1295  0.4044  0.5001
40109SOL    HW123732   2.800   7.414   4.727 -0.4478 -0.8436 -0.5521
40109SOL    HW223733   2.780   7.424   4.578 -2.1636  2.0041 -0.1780
40110SOL     OW23734  10.280   4.150   6.175  0.5024  0.1712  0.4325
40110SOL    HW123735  10.372   4.169   6.161  0.6611 -0.0183  1.2286
40110SOL    HW223736  10.279   4.064   6.217  0.0329  0.9105  1.9424
40111SOL     OW23737   8.110   5.572   8.864  0.5711 -0.3898 -0.3992
40111SOL    HW123738   8.123   5.503   8.799  1.9125 -1.6900  1.2238
40111SOL    HW223739   8.180   5.635   8.847  0.4376 -0.3226 -0.7089
40112SOL     OW23740   2.377   9.661  10.020  0.5994 -0.6660 -0.0648
40112SOL    HW123741   2.311   9.729  10.005  0.7257 -0.8878 -1.6543
40112SOL    HW223742   2.357   9.628  10.108 -0.1547  0.6512  0.2664
40113SOL     OW23743   7.387   0.264   9.019  0.0579 -0.5655 -0.7129
40113SOL    HW123744   7.358   0.332   9.080  0.2156 -1.1537  0.0237
40113SOL    HW223745   7.463   0.224   9.061 -0.8596 -2.1162 -0.4912
40114SOL     OW23746   0.226  10.050   1.900  0.0572 -0.3143 -0.2843
40114SOL    HW123747   0.202  10.141   1.916 -2.2553 -0.6018 -1.9458
40114SOL    HW223748   0.203  10.035   1.808  0.7913 -2.4650 -0.1374
40115SOL     OW23749  10.896  10.338   2.213  0.9387 -0.4591 -0.7315
40115SOL    HW123750  10.954  10.271   2.248  3.5662  1.2198 -1.7203
40115SOL    HW223751  10.892  10.319   2.119  0.3752 -0.1876 -0.7662
40116SOL     OW23752   4.746   8.082   9.426  0.4260  0.0731  0.5739
40116SOL    HW123753   4.823   8.130   9.398  0.2653  0.0049  0.0030
40116SOL    HW223754   4.693   8.073   9.347 -0.4240  0.5903  1.0738
40117SOL     OW23755   5.688   3.885   8.502 -0.2877 -0.0516  0.1152
40117SOL    HW123756   5.764   3.852   8.550  0.3233 -0.8440 -1.3507
40117SOL    HW223757   5.614   3.838   8.540  0.2579 -1.1051 -0.1022
40118SOL     OW23758   1.393   3.789   8.469 -0.1699  0.0044  0.2605
40118SOL    HW123759   1.350   3.706   8.449  1.4324 -0.8668  0.3618
40118SOL    HW223760   1.360   3.812   8.556 -1.4786  0.0649 -0.2330
40119SOL     OW23761   2.537   2.317   0.975 -0.0346 -0.2339  0.2604
40119SOL    HW123762   2.624   2.276   0.973  1.2599  2.2761  2.1203
40119SOL    HW223763   2.524   2.340   1.067 -1.6412  1.5714 -0.3914
40120SOL     OW23764   6.213   2.500   3.971 -0.2722 -0.4073  0.0983
40120SOL    HW123765   6.186   2.418   3.929 -0.7770  0.1237 -0.6196
40120SOL    HW223766   6.275   2.473   4.038 -0.4689 -1.3878 -0.1088
40121SOL     OW23767  10.473   9.210   3.141 -0.5167 -0.3580 -0.0927
40121SOL    HW123768  10.505   9.160   3.066  0.6490 -2.1030  1.5187
40121SOL    HW223769  10.548   9.263   3.168 -1.0192  0.4763 -0.3148
40122SOL     OW23770   1.683   0.586   2.871  0.3027  0.2269 -0.2380
40122SOL    HW123771   1.714   0.604   2.960 -1.9975 -1.6984  1.0206
40122SOL    HW223772   1.677   0.673   2.830 -0.4767  1.3557  2.1489
40123SOL     OW23773   3.648   8.876   3.271  0.1403 -0.5285 -0.3000
40123SOL    HW123774   3.663   8.971   3.267  0.5335 -0.5073  1.3619
40123SOL    HW223775   3.735   8.838   3.263 -0.0960 -0.7831 -1.7413
40124SOL     OW23776   3.732   6.665   2.987 -0.1850  0.5018  0.1349
40124SOL    HW123777   3.792   6.700   2.922 -0.8969 -0.8827 -1.2876
40124SOL    HW223778   3.660   6.728   2.991  0.0165  0.7526 -0.1767
40125SOL     OW23779   8.492   1.985   5.931  0.3585 -0.3534 -0.1311
40125SOL    HW123780   8.440   1.996   5.851  1.5823 -0.7785 -1.0068
40125SOL    HW223781   8.579   1.960   5.899  0.6903 -1.1356  1.3661
40126SOL     OW23782   6.672   8.914   2.035 -0.4584  0.4989  0.1051
40126SOL    HW123783   6.710   8.888   1.951  0.7453  0.9627  0.4965
40126SOL    HW223784   6.584   8.944   2.013 -0.0667  0.8423 -1.0244
40127SOL     OW23785   2.367   1.928  10.505  0.4535 -0.5227  0.6273
40127SOL    HW123786   2.354   1.865  10.434 -0.0048 -0.9594  1.0976
40127SOL    HW223787   2.364   2.014  10.462 -0.9139 -0.7362  0.2854
40128SOL     OW23788   6.524   9.111   8.186 -0.1030 -1.0192  0.2290
40128SOL    HW123789   6.436   9.106   8.223 -0.6941 -2.3698 -1.2904
40128SOL    HW223790   6.514   9.164   8.107  0.7786  0.2294  0.9323
40129SOL     OW23791  10.734   5.296   8.770 -0.5518 -0.4400  0.1616
40129SOL    HW123792  10.660   5.235   8.767 -1.3550  0.5463 -0.7946
40129SOL    HW223793  10.752   5.316   8.678 -0.8840  1.4315  0.4759
40130SOL     OW23794   1.601   6.553   7.808 -0.3580  0.1829 -0.2246
40130SOL    HW123795   1.547   6.538   7.730  0.8382 -1.5661 -0.7435
40130SOL    HW223796   1.580   6.479   7.866 -0.3069  0.7975  0.5908
40131SOL     OW23797   5.362   2.540   0.727 -0.2145 -0.3623  0.2467
40131SOL    HW123798   5.336   2.462   0.678 -1.0635 -0.1908  0.4072
40131SOL    HW223799   5.288   2.557   0.786  0.0154  0.4821  0.3000
40132SOL     OW23800   4.137   2.846   1.786  0.1913  0.2449  0.2998
40132SOL    HW123801   4.058   2.822   1.738  0.1681 -0.2648  0.5921
40132SOL    HW223802   4.113   2.839   1.878 -0.0709  2.2374  0.4110
40133SOL     OW23803   1.099   6.686   1.655 -0.5680 -0.3773  0.1511
40133SOL    HW123804   1.094   6.780   1.668 -2.2705 -0.4085 -0.1667
40133SOL    HW223805   1.188   6.662   1.684 -0.8300  1.0137  2.1744
40134SOL     OW23806   9.995  10.397   2.281 -0.6439  0.4320  0.0619
40134SOL    HW123807  10.074  10.345   2.296 -0.1946  1.2470  0.6209
40134SOL    HW223808  10.028  10.480   2.246 -1.3167  0.4889 -0.4385
40135SOL     OW23809   0.369   1.937  10.638 -0.3466 -0.0125  0.0461
40135SOL    HW123810   0.422   2.004  10.595 -0.8030  0.8150  0.7667
40135SOL    HW223811   0.283   1.945  10.597 -1.0250  1.3626  1.6978
40136SOL     OW23812   7.938   3.064   9.407 -0.3751  0.6051  0.3294
40136SOL    HW123813   7.880   3.039   9.478  0.8884  2.6456  2.1397
40136SOL    HW223814   8.017   3.097   9.450  1.5599 -0.6986 -2.0430
40137SOL     OW23815   7.702   1.737   7.536 -0.0590 -0.0473  0.2308
40137SOL    HW123816   7.736   1.663   7.485 -0.4294 -0.6277  0.8201
40137SOL    HW223817   7.687   1.701   7.624 -0.5566  0.6449  0.4334
40138SOL     OW23818  10.280   7.995   3.590  0.5035  0.2349  0.3612
40138SOL    HW123819  10.195   7.952   3.601  1.4276 -1.1931  2.1744
40138SOL    HW223820  10.336   7.927   3.552  0.4636  1.6465 -2.3556
40139SOL     OW23821   5.477   8.676  10.070  0.0004  0.6870  0.6019
40139SOL    HW123822   5.417   8.751  10.064 -0.0150  0.9100  3.0748
40139SOL    HW223823   5.421   8.601  10.088  0.3241  0.7191  1.8264
40140SOL     OW23824  10.150   0.274   0.731  0.1714 -0.4327  0.6446
40140SOL    HW123825  10.101   0.322   0.665  1.8399  1.8766  1.0190
40140SOL    HW223826  10.230   0.246   0.686  0.5039 -0.3827  1.1909
40141SOL     OW23827   0.218   8.604   0.905  0.5048 -0.3393 -0.0517
40141SOL    HW123828   0.186   8.529   0.854 -0.5338 -0.3719  0.6477
40141SOL    HW223829   0.270   8.564   0.976 -0.4193 -0.4200  0.5825
40142SOL     OW23830   2.773  10.830   2.151 -0.6064 -0.0626  0.4695
40142SOL    HW123831   2.790  10.890   2.078 -0.2767  0.0169  0.6125
40142SOL    HW223832   2.756  10.887   2.226  2.0359 -0.1434  1.1494
40143SOL     OW23833   9.919   3.116  10.420  0.0782 -0.0732  0.0193
40143SOL    HW123834   9.905   3.208  10.442 -0.3649  0.0388 -0.7199
40143SOL    HW223835   9.831   3.082  10.401  0.4004 -0.2732 -1.1357
40144SOL     OW23836   8.461   0.070   3.708 -0.2497  0.0764 -0.3137
40144SOL    HW123837   8.535   0.124   3.680  0.0034 -0.5156 -0.7909
40144SOL    HW223838   8.488   0.032   3.791 -1.2739  2.3982  1.1485
40145SOL     OW23839   5.838  10.454   7.058 -0.1528 -0.2564  0.4035
40145SOL    HW123840   5.878  10.538   7.033 -0.1898 -0.7141 -1.2867
40145SOL    HW223841   5.818  10.463   7.151 -1.2926  2.0884 -0.0208
40146SOL     OW23842   2.457   3.733   2.780 -0.6406 -0.0002 -0.1534
40146SOL    HW123843   2.527   3.687   2.825  0.5446  0.8616 -1.1037
40146SOL    HW223844   2.384   3.671   2.780  0.4670 -1.3223 -0.1338
40147SOL     OW23845   7.952   9.841   3.274  0.5114  0.5042 -0.0043
40147SOL    HW123846   7.882   9.787   3.237  1.6036 -0.3381 -0.8869
40147SOL    HW223847   8.009   9.860   3.200 -0.5219  3.9943  0.0116
40148SOL     OW23848   1.303   5.268   4.292 -0.2301 -0.2973  0.6234
40148SOL    HW123849   1.394   5.270   4.322 -0.6489  1.2034  1.8608
40148SOL    HW223850   1.271   5.182   4.319  1.4132 -1.7256 -1.7274
40149SOL     OW23851   2.836   3.199   1.945  0.5185  0.5347  0.3735
40149SOL    HW123852   2.832   3.295   1.941  1.1805  0.6304  1.6808
40149SOL    HW223853   2.929   3.179   1.936  0.4902  0.0696  1.0819
40150SOL     OW23854   7.413   2.984   8.839  0.1330 -0.4996 -0.1055
40150SOL    HW123855   7.455   2.912   8.886  0.6320 -1.4034 -1.8897
40150SOL    HW223856   7.460   3.062   8.866  0.5429 -1.0368  0.7376
40151SOL     OW23857   3.357   3.315   0.392 -0.4898 -0.4600 -0.0696
40151SOL    HW123858   3.413   3.387   0.366 -0.9783 -0.5894 -1.5239
40151SOL    HW223859   3.321   3.341   0.477  0.4569  0.3573  0.0776
40152SOL     OW23860   9.900   4.386   4.064 -0.0463  0.0501 -0.1731
40152SOL    HW123861   9.951   4.451   4.014 -2.2164  1.7097 -0.2868
40152SOL    HW223862   9.884   4.428   4.148 -3.6568  0.7573 -1.1452
40153SOL     OW23863   9.521   1.389   1.773  0.3679  0.2560 -0.2525
40153SOL    HW123864   9.504   1.313   1.717  1.4181  0.6188 -1.0792
40153SOL    HW223865   9.525   1.353   1.862 -0.4197 -0.4591 -0.5041
40154SOL     OW23866   4.789  10.479   2.911 -0.5233 -0.2197 -0.1126
40154SOL    HW123867   4.754  10.481   2.822 -1.3621 -2.0658  0.1456
40154SOL    HW223868   4.719  10.517   2.965  0.0049  0.9446 -0.2431
40155SOL     OW23869   3.660  10.407   1.212 -0.1083 -0.2298  0.0673
40155SOL    HW123870   3.682  10.500   1.205  3.0783 -1.0380 -1.4102
40155SOL    HW223871   3.640  10.395   1.305  0.5719  1.7337  0.4989
40156SOL     OW23872   9.617   6.406  10.792 -0.0079 -0.3702 -0.0260
40156SOL    HW123873   9.674   6.331  10.811 -1.9070 -1.4504  1.5815
40156SOL    HW223874   9.569   6.380  10.713 -1.5318 -1.3891  1.2090
40157SOL     OW23875   2.981   4.151   0.316  0.0800 -0.0959 -0.0166
40157SOL    HW123876   2.888   4.127   0.314  0.5274 -1.9901 -2.8994
40157SOL    HW223877   3.015   4.108   0.394 -0.5598 -3.4292 -1.4759
40158SOL     OW23878   9.956   0.194   9.141  0.0211  0.0944 -0.0391
40158SOL    HW123879   9.985   0.112   9.100 -0.8034  0.9513 -2.4399
40158SOL    HW223880   9.875   0.216   9.094  1.0876  3.1122 -0.5416
40159SOL     OW23881   7.461   6.021   5.067 -0.3996  0.0533 -0.5962
40159SOL    HW123882   7.497   5.961   5.132  1.3381  0.1792 -1.3823
40159SOL    HW223883   7.419   6.089   5.117 -0.5580 -0.7365  0.3570
40160SOL     OW23884   8.132   4.820   4.475 -0.3755  0.1052 -0.1843
40160SOL    HW123885   8.103   4.765   4.548  1.6264  0.4942  0.9562
40160SOL    HW223886   8.163   4.758   4.409  0.9216 -0.1927  0.6822
40161SOL     OW23887   5.893   3.043   8.755  0.4920 -0.1162 -0.2067
40161SOL    HW123888   5.822   2.990   8.720  0.1818 -0.6310  1.1430
40161SOL    HW223889   5.869   3.133   8.734 -1.0998 -0.2006  1.1412
40162SOL     OW23890   5.331   5.260   5.295 -0.3929 -0.3471  0.4417
40162SOL    HW123891   5.265   5.252   5.226 -0.8541  1.4507  0.6419
40162SOL    HW223892   5.287   5.229   5.374 -1.1038  1.0467  0.6178
40163SOL     OW23893   2.829   2.858   6.103  0.5974 -0.6515  0.1877
40163SOL    HW123894   2.842   2.870   6.197 -3.0108  1.1318  0.5593
40163SOL    HW223895   2.833   2.763   6.090 -0.0884 -1.0048  2.3466
40164SOL     OW23896   6.963   2.444   2.130 -0.2747  0.1624 -0.7218
40164SOL    HW123897   6.876   2.406   2.120 -0.6228  0.9179 -0.5970
40164SOL    HW223898   6.955   2.501   2.207  0.5588 -0.4268 -0.1841
40165SOL     OW23899   1.143   9.931  10.855 -0.4637  0.6470 -0.3186
40165SOL    HW123900   1.066   9.932  10.912  0.3591  2.4199  0.8020
40165SOL    HW223901   1.108   9.908  10.769 -2.0348  0.0264  0.4542
40166SOL     OW23902   2.854   0.127   2.544  0.2197  0.1165  0.3167
40166SOL    HW123903   2.925   0.185   2.515  1.0505 -0.6165  0.8655
40166SOL    HW223904   2.845   0.145   2.638  1.4404 -1.6548  0.7823
40167SOL     OW23905   0.947   8.843   5.782 -0.4588 -0.1532 -0.5690
40167SOL    HW123906   0.883   8.875   5.718 -1.3775 -2.0795 -0.6514
40167SOL    HW223907   0.911   8.870   5.866 -0.2105  0.7560 -0.7507
40168SOL     OW23908   9.414   8.885   5.632 -0.1280 -0.7632 -0.3197
40168SOL    HW123909   9.336   8.874   5.687 -0.6987  1.2803 -0.6761
40168SOL    HW223910   9.409   8.813   5.569 -2.2547 -0.1141 -0.9258
40169SOL     OW23911   4.285   3.926   8.181  0.0079 -0.2466 -0.7135
40169SOL    HW123912   4.369   3.938   8.137 -0.2386 -1.1167 -1.4466
40169SOL    HW223913   4.268   3.831   8.175 -1.4953  0.0481 -1.4719
40170SOL     OW23914   8.685   7.895   1.178  0.0700  0.4439 -0.1163
40170SOL    HW123915   8.712   7.929   1.264  0.8785  1.5116 -0.7772
40170SOL    HW223916   8.764   7.857   1.141 -0.3224 -0.1732 -0.3230
40171SOL     OW23917   9.029   3.192   4.792 -0.0812 -0.1505  0.2929
40171SOL    HW123918   9.084   3.114   4.796  0.2832  0.0971  0.1138
40171SOL    HW223919   8.947   3.162   4.752  0.2793 -0.3137 -0.3247
40172SOL     OW23920   7.398  10.128   2.687 -0.1686  0.0488 -0.1327
40172SOL    HW123921   7.452  10.197   2.725 -2.2830  1.4364  0.4481
40172SOL    HW223922   7.412  10.135   2.593 -0.0051  0.9794 -0.0438
40173SOL     OW23923   4.004   5.080   4.711 -0.5344 -0.3755  0.2604
40173SOL    HW123924   4.037   5.120   4.630  0.2048 -1.6129 -0.0732
40173SOL    HW223925   3.927   5.131   4.733  0.1319  0.9330 -0.3967
40174SOL     OW23926  10.793  10.165   1.767 -0.3758 -0.2262  0.4726
40174SOL    HW123927  10.796  10.105   1.842 -2.0154  0.2477  0.9416
40174SOL    HW223928  10.715  10.137   1.718 -1.1636  1.5160  0.7064
40175SOL     OW23929   6.902  10.622   8.972  0.0230 -0.4321  0.7747
40175SOL    HW123930   6.956  10.581   8.905  0.6718  0.0157  1.0230
40175SOL    HW223931   6.865  10.699   8.929 -1.2304 -1.2911  0.2947
40176SOL     OW23932  10.614   9.575   4.797  0.3765  1.1107 -0.3176
40176SOL    HW123933  10.575   9.641   4.854 -0.0497  0.0627  0.6196
40176SOL    HW223934  10.596   9.492   4.841 -0.8808  0.1859 -2.4821
40177SOL     OW23935   7.400   8.053   6.289  0.0548 -0.2516 -0.0499
40177SOL    HW123936   7.465   8.082   6.225 -0.0620  0.1111 -0.0057
40177SOL    HW223937   7.316   8.082   6.254  0.0123  0.1354  0.3696
40178SOL     OW23938   9.849   9.814   3.322 -0.4465 -0.1140 -0.0586
40178SOL    HW123939   9.793   9.776   3.391 -0.4306 -0.8636 -0.4501
40178SOL    HW223940   9.878   9.739   3.271  1.2739  0.2268  0.3934
40179SOL     OW23941   7.058   1.814  10.617 -0.0633  0.5577 -0.1942
40179SOL    HW123942   7.099   1.736  10.580  1.1742  1.7328 -1.3767
40179SOL    HW223943   7.095   1.823  10.704 -0.4260 -0.3292  0.0538
40180SOL     OW23944   1.301   7.148   8.331 -0.3492 -0.1495  0.6759
40180SOL    HW123945   1.379   7.201   8.345 -0.3106 -0.8806  3.4306
40180SOL    HW223946   1.329   7.079   8.270  0.5784  0.7908  0.0278
40181SOL     OW23947   8.424   7.344   1.116  0.6160  0.7044  0.1442
40181SOL    HW123948   8.331   7.323   1.113  0.6863 -0.0374  2.1015
40181SOL    HW223949   8.430   7.435   1.088 -0.6366  0.6133 -0.4384
40182SOL     OW23950   3.201   2.295   1.200 -0.2232 -0.4974  0.0976
40182SOL    HW123951   3.198   2.344   1.117  1.6435 -2.1548 -1.0065
40182SOL    HW223952   3.283   2.323   1.241  0.2935 -1.8183 -0.0077
40183SOL     OW23953   8.810   7.936   4.609  0.0663 -0.5257 -0.0566
40183SOL    HW123954   8.751   7.992   4.660 -1.6254 -1.1545 -1.2762
40183SOL    HW223955   8.759   7.857   4.591  1.2941 -1.1037 -1.0961
40184SOL     OW23956   0.208   1.864   5.646  0.1704  0.3734  0.4706
40184SOL    HW123957   0.144   1.796   5.665  0.4227 -0.2011 -0.6522
40184SOL    HW223958   0.157   1.934   5.606  0.2622 -0.2155 -0.7223
40185SOL     OW23959   8.170   1.642   2.963 -0.6105 -0.3363  0.2261
40185SOL    HW123960   8.172   1.690   3.046 -0.5427  0.4345 -0.2067
40185SOL    HW223961   8.212   1.702   2.901 -1.8758 -0.3360 -0.6492
40186SOL     OW23962   5.006   8.133   1.101  0.2610  0.5092  0.7779
40186SOL    HW123963   4.927   8.182   1.082  0.4352 -0.1469 -1.7870
40186SOL    HW223964   4.975   8.049   1.136 -0.3087 -0.6547 -2.3540
40187SOL     OW23965   3.353   0.922   7.333  0.9717  0.5311  0.0345
40187SOL    HW123966   3.343   0.847   7.391  1.1531 -0.2025 -0.8680
40187SOL    HW223967   3.264   0.944   7.306  0.9184  0.6440  0.3031
40188SOL     OW23968   9.445   2.866   0.195 -0.0893 -0.3839  0.5256
40188SOL    HW123969   9.493   2.787   0.220  1.5817 -0.3668 -2.4887
40188SOL    HW223970   9.353   2.844   0.211  0.3804 -2.8481 -0.0478
40189SOL     OW23971  10.413   1.236   7.855 -0.0833  0.5049 -0.9024
40189SOL    HW123972  10.496   1.191   7.865  0.5366  1.7913 -0.1716
40189SOL    HW223973  10.431   1.307   7.794 -0.7329  0.5499 -1.0444
40190SOL     OW23974   8.137   7.134   2.433 -0.6910  0.7649 -0.5309
40190SOL    HW123975   8.065   7.077   2.406  0.3801 -1.0642  0.4226
40190SOL    HW223976   8.103   7.180   2.510 -0.6990 -0.4413  0.2030
40191SOL     OW23977   2.390   5.617   0.778  0.3511  0.8527 -0.0210
40191SOL    HW123978   2.339   5.689   0.816 -0.7561  0.2502 -0.3511
40191SOL    HW223979   2.346   5.599   0.695 -0.2526 -1.1615  0.7038
40192SOL     OW23980  10.009   6.152   8.855  0.5957 -0.2295 -0.1402
40192SOL    HW123981  10.061   6.151   8.774  0.4068  3.0241 -0.3783
40192SOL    HW223982   9.937   6.091   8.837  1.9036 -1.4337 -1.4704
40193SOL     OW23983   0.594  10.628   6.746  0.1976  0.6344  0.3560
40193SOL    HW123984   0.527  10.667   6.690  0.2967  0.1253 -0.1269
40193SOL    HW223985   0.546  10.567   6.801  0.4039 -0.6164 -0.8087
40194SOL     OW23986   3.719   9.374  10.093  0.0197  0.0718  0.4081
40194SOL    HW123987   3.728   9.336  10.181 -0.8874 -0.1499  0.4036
40194SOL    HW223988   3.809   9.383  10.062  0.3027 -0.8066  0.9555
40195SOL     OW23989   5.982   2.117   9.481  0.1725 -0.0410  0.1728
40195SOL    HW123990   6.016   2.204   9.460  0.3924 -0.6301 -2.0613
40195SOL    HW223991   6.014   2.099   9.569 -0.9212  2.6432  1.1562
40196SOL     OW23992   7.453   0.400   7.355 -0.4566  0.6669  0.1079
40196SOL    HW123993   7.368   0.377   7.392  0.6307  0.8646  2.8545
40196SOL    HW223994   7.478   0.323   7.303 -0.8309 -0.7972  2.0304
40197SOL     OW23995   2.228  10.191   4.672 -0.8162  0.0250 -0.6824
40197SOL    HW123996   2.162  10.198   4.741 -0.4216 -1.1237 -0.1723
40197SOL    HW223997   2.294  10.132   4.709 -0.5740 -0.5573 -2.0244
40198SOL     OW23998   9.558   7.985   2.102  0.0318  0.1935  0.2171
40198SOL    HW123999   9.611   7.944   2.172  2.4130 -0.0329 -1.6576
40198SOL    HW224000   9.524   7.911   2.052 -0.3947  0.3842  0.2275
40199SOL     OW24001   5.829   5.822   8.093  0.0961  0.4803 -0.1603
40199SOL    HW124002   5.921   5.843   8.110  0.3092 -0.5880  0.0408
40199SOL    HW224003   5.816   5.845   8.001  0.7894 -0.0956 -0.4118
40200SOL     OW24004   3.014   3.856   4.664 -0.0916 -0.2541 -0.3534
40200SOL    HW124005   3.031   3.807   4.584  0.7222 -0.7206  0.1017
40200SOL    HW224006   2.964   3.796   4.719 -2.5635  0.8224 -1.3559
40201SOL     OW24007   7.830   7.631   9.786  0.6431  0.1593 -0.2004
40201SOL    HW124008   7.859   7.569   9.852 -0.0117  0.3814  0.3034
40201SOL    HW224009   7.907   7.646   9.731  0.7194 -1.3704 -0.5407
40202SOL     OW24010   1.213   5.776   5.484  0.4488 -0.3725  0.0588
40202SOL    HW124011   1.305   5.761   5.462  0.5760 -0.4216  0.6046
40202SOL    HW224012   1.168   5.781   5.400  0.9426 -0.4122 -0.2072
40203SOL     OW24013   0.578   2.959  10.902  0.2197 -0.1177  0.0449
40203SOL    HW124014   0.643   2.890  10.889  0.9912  0.6893 -0.4269
40203SOL    HW224015   0.568   2.965  10.997 -1.2074 -2.1199  0.0420
40204SOL     OW24016  10.021   0.360   9.614 -0.5190 -0.7556  0.2720
40204SOL    HW124017  10.090   0.333   9.553 -0.2235  1.8290 -0.6220
40204SOL    HW224018   9.945   0.307   9.590  0.9986 -3.2817  0.9476
40205SOL     OW24019   3.103   0.165   0.783  0.1005  0.5783  0.9227
40205SOL    HW124020   3.107   0.106   0.858 -0.0168 -0.8441 -0.1544
40205SOL    HW224021   3.013   0.155   0.750  0.6854 -0.2177 -0.4883
40206SOL     OW24022   0.233   6.290   0.174 -0.2148 -1.0121 -0.0854
40206SOL    HW124023   0.304   6.351   0.154 -1.4908  1.1923  1.8988
40206SOL    HW224024   0.168   6.305   0.106 -0.2661 -0.6101  0.0556
40207SOL     OW24025   7.560  10.107   3.171 -0.1561  0.0283 -0.1588
40207SOL    HW124026   7.481  10.060   3.198 -0.2653  0.7330  0.7738
40207SOL    HW224027   7.548  10.123   3.077 -0.8338 -0.4135 -0.1511
40208SOL     OW24028   9.928  10.568   1.239  0.2814 -0.1609  0.3183
40208SOL    HW124029   9.910  10.662   1.228  2.1034  0.3032  1.0798
40208SOL    HW224030   9.848  10.533   1.278 -0.9732  0.7923 -1.3631
40209SOL     OW24031   1.760   4.488   2.799  0.9948  0.0805  0.2584
40209SOL    HW124032   1.715   4.571   2.816  1.7754  0.5248  0.1826
40209SOL    HW224033   1.696   4.421   2.823  1.4651  0.6918  3.5104
40210SOL     OW24034   8.458   4.815   2.955 -0.0916 -0.4728  0.2196
40210SOL    HW124035   8.483   4.813   3.048 -0.5138 -0.3694  0.3368
40210SOL    HW224036   8.375   4.861   2.954  0.2839  0.2091 -0.2967
40211SOL     OW24037   4.149   6.372   9.799  0.7526  0.0825  0.3451
40211SOL    HW124038   4.093   6.355   9.724 -2.0639 -0.6149  2.5189
40211SOL    HW224039   4.192   6.288   9.817 -0.7059 -0.5131  1.1605
40212SOL     OW24040   1.524   8.669  10.926  0.1856 -0.1213 -0.4154
40212SOL    HW124041   1.538   8.582  10.962 -1.0187 -0.0131  0.3682
40212SOL    HW224042   1.494   8.721  11.001  0.7491  0.9233 -0.9063
40213SOL     OW24043   1.671   0.449   1.846 -0.0455  0.1243  0.4161
40213SOL    HW124044   1.664   0.544   1.858 -2.1108  0.0801 -0.2411
40213SOL    HW224045   1.606   0.429   1.780  1.5392 -1.5508 -0.6716
40214SOL     OW24046   4.297   9.600  10.641 -0.6799 -0.1142  0.2297
40214SOL    HW124047   4.350   9.667  10.684 -0.9448  1.0833 -1.2669
40214SOL    HW224048   4.333   9.517  10.672 -0.5524  0.7169  2.3541
40215SOL     OW24049   7.989   8.681   1.438  0.2835  0.3768  0.4193
40215SOL    HW124050   7.934   8.689   1.360  0.2495 -2.8743  0.0713
40215SOL    HW224051   8.076   8.708   1.408 -0.4424  2.6033  0.2065
40216SOL     OW24052   1.315   0.757   0.457 -1.2343  0.3308 -0.2888
40216SOL    HW124053   1.356   0.673   0.476 -0.1895  0.8282 -0.2610
40216SOL    HW224054   1.234   0.757   0.508 -0.9279 -0.3981  0.2085
40217SOL     OW24055   6.983   3.586   8.709 -0.3107 -0.2620 -0.4372
40217SOL    HW124056   6.944   3.566   8.795  1.5159  2.1767  1.0312
40217SOL    HW224057   7.057   3.527   8.702 -2.3672 -2.7675 -1.8666
40218SOL     OW24058  10.419   6.971  10.023  0.2054  0.0507 -0.2616
40218SOL    HW124059  10.340   6.961  10.077  0.6728  0.4822  0.5124
40218SOL    HW224060  10.469   6.891  10.041  1.1517  0.9637  1.2777
40219SOL     OW24061  10.758   7.752   9.702 -0.7504  0.0836 -0.5225
40219SOL    HW124062  10.762   7.675   9.645  1.5440 -0.3328  0.1568
40219SOL    HW224063  10.835   7.744   9.759 -1.5847  1.8410  0.9007
40220SOL     OW24064   6.467   2.507   7.719 -0.0897  0.1829  0.6124
40220SOL    HW124065   6.435   2.532   7.805 -0.0500  1.0973  0.3668
40220SOL    HW224066   6.390   2.512   7.662 -0.0097  0.0662  0.4930
40221SOL     OW24067   8.582   6.442   7.046 -0.2058  0.2741  0.1134
40221SOL    HW124068   8.551   6.369   7.100 -1.1037  0.3353 -0.3221
40221SOL    HW224069   8.673   6.455   7.074 -0.2740 -0.5213  0.7199
40222SOL     OW24070   2.160   3.572   7.653  0.1442  0.0657 -0.3645
40222SOL    HW124071   2.224   3.526   7.708 -1.5924 -0.2004  1.5024
40222SOL    HW224072   2.205   3.650   7.623  1.4169 -0.2196  0.7549
40223SOL     OW24073   7.266   5.765   7.708  0.0851  0.1353 -0.2168
40223SOL    HW124074   7.281   5.766   7.803 -0.4754  0.5497 -0.1283
40223SOL    HW224075   7.350   5.788   7.670  0.2279  0.3043  0.1948
40224SOL     OW24076   0.630   0.386   6.354  0.5362  0.7432 -0.0206
40224SOL    HW124077   0.542   0.380   6.319  0.4639  2.3703 -0.1308
40224SOL    HW224078   0.651   0.479   6.352  2.3979  0.3333 -0.3412
40225SOL     OW24079   1.047   0.210   0.418 -0.3759 -0.0182  0.0569
40225SOL    HW124080   1.100   0.134   0.392 -0.7556 -0.1976 -0.2138
40225SOL    HW224081   1.048   0.209   0.513 -0.4647 -0.4318  0.0570
40226SOL     OW24082   9.634   2.118   7.417  0.1451  1.0366 -0.3077
40226SOL    HW124083   9.708   2.094   7.474  1.4312  4.1525 -0.5408
40226SOL    HW224084   9.652   2.073   7.334 -1.0029 -2.3909  1.1886
40227SOL     OW24085   7.201   3.312  10.506 -0.6344 -0.5201  0.8776
40227SOL    HW124086   7.114   3.345  10.527 -2.0462 -2.4384 -1.6622
40227SOL    HW224087   7.225   3.257  10.580 -1.9444 -0.6081  1.2403
40228SOL     OW24088   7.072   3.347   0.400 -0.0600 -0.2279 -0.1618
40228SOL    HW124089   7.099   3.380   0.486  1.3753  0.3211 -0.7902
40228SOL    HW224090   7.051   3.255   0.414 -0.2395 -0.0335  0.8568
40229SOL     OW24091   7.095   6.902   5.910  0.0228  0.2751  0.5287
40229SOL    HW124092   7.149   6.870   5.983  2.5570  2.0091 -0.4970
40229SOL    HW224093   7.092   6.829   5.849 -0.6671 -0.6005  1.5871
40230SOL     OW24094   0.869   5.998   2.069  0.9211 -0.2334 -0.4876
40230SOL    HW124095   0.827   6.013   1.984  1.6139  2.1677 -0.4674
40230SOL    HW224096   0.956   6.037   2.059  1.7934 -1.8452  0.6545
40231SOL     OW24097   0.284   2.773   0.753  0.3798  0.3150  0.7792
40231SOL    HW124098   0.200   2.818   0.743 -0.1132 -0.3221  2.0397
40231SOL    HW224099   0.331   2.792   0.671 -0.7044  1.2559  0.3664
40232SOL     OW24100   7.841   7.614   1.181 -0.3766  0.1780  0.0870
40232SOL    HW124101   7.859   7.604   1.087  0.4661  0.6086  0.2046
40232SOL    HW224102   7.912   7.566   1.224  1.0386  2.6427  0.5593
40233SOL     OW24103   9.405   1.644   9.823 -0.0386  0.5793 -0.4120
40233SOL    HW124104   9.477   1.620   9.882  1.4083  2.9762 -1.1228
40233SOL    HW224105   9.393   1.568   9.767  2.0201  0.1894 -0.3521
40234SOL     OW24106   9.136   7.929   8.916  0.0168  0.4375  0.5676
40234SOL    HW124107   9.174   7.859   8.864 -1.5743 -1.8188  2.3333
40234SOL    HW224108   9.208   7.989   8.933  1.7696 -1.5745  0.3564
40235SOL     OW24109   7.290   8.563   5.770  0.7687 -0.1649 -0.1240
40235SOL    HW124110   7.375   8.603   5.753  0.5683  1.4242  2.2699
40235SOL    HW224111   7.241   8.630   5.819 -0.2461 -2.6096  2.4025
40236SOL     OW24112   1.759   1.915   3.409  0.2094  0.1104  0.0998
40236SOL    HW124113   1.681   1.954   3.370  0.5828  0.7763  0.0088
40236SOL    HW224114   1.778   1.838   3.355 -2.8809 -2.5811  2.6593
40237SOL     OW24115   7.151   7.223  10.445  0.3730  0.0180 -0.0037
40237SOL    HW124116   7.224   7.230  10.384  0.4173  2.4023  0.2574
40237SOL    HW224117   7.075   7.253  10.395 -0.2919 -1.5759  0.0028
40238SOL     OW24118   6.190   3.310   1.892  0.3174 -0.2639  0.1726
40238SOL    HW124119   6.108   3.273   1.857  0.3793 -1.6270  1.4232
40238SOL    HW224120   6.162   3.370   1.960  0.2627  1.3190 -1.2074
40239SOL     OW24121   7.311   5.413   2.263 -0.1878  0.1320  0.0409
40239SOL    HW124122   7.376   5.406   2.193  0.3791 -1.3930  0.6976
40239SOL    HW224123   7.256   5.487   2.238  1.8848  1.5373 -0.4658
40240SOL     OW24124   4.745   2.541   0.313 -0.0232 -0.2616  0.2162
40240SOL    HW124125   4.721   2.539   0.221 -3.7020 -1.9214  1.1137
40240SOL    HW224126   4.744   2.634   0.336 -3.0482 -0.0565 -0.5235
40241SOL     OW24127   2.911   7.994   4.183  0.2270 -0.0541 -0.2093
40241SOL    HW124128   2.855   8.068   4.162  0.1892  0.3561  1.2670
40241SOL    HW224129   2.992   8.035   4.214 -0.2725 -0.6160  1.8634
40242SOL     OW24130   8.970   7.136   8.892  0.1896 -0.1557 -0.1489
40242SOL    HW124131   8.919   7.205   8.849 -0.0673 -0.2594 -0.0158
40242SOL    HW224132   9.030   7.184   8.950  1.0681  0.0123 -1.1865
40243SOL     OW24133   8.873   0.826   0.652  0.1206 -0.0215 -0.3528
40243SOL    HW124134   8.961   0.828   0.688  0.8443  0.6286 -2.0908
40243SOL    HW224135   8.881   0.775   0.572 -1.3377 -0.9990  0.1051
40244SOL     OW24136   4.794   4.316   2.073  0.1536 -0.2656 -0.3256
40244SOL    HW124137   4.748   4.376   2.132 -1.1461 -0.7893 -0.7797
40244SOL    HW224138   4.885   4.345   2.076 -0.5373  2.1551 -1.0104
40245SOL     OW24139   0.603   7.462   6.250 -0.0245  0.3494 -0.2932
40245SOL    HW124140   0.580   7.544   6.293 -1.1422 -0.0122 -0.1960
40245SOL    HW224141   0.576   7.473   6.159 -2.6096 -0.8556  0.2802
40246SOL     OW24142   5.657   2.860   2.108 -0.0183  0.2281  0.3645
40246SOL    HW124143   5.714   2.838   2.181 -1.4175  1.2253  1.7841
40246SOL    HW224144   5.568   2.857   2.144 -0.7425  0.6502 -1.3051
40247SOL     OW24145   5.740   2.184   6.379 -0.0107  0.1959 -0.1788
40247SOL    HW124146   5.683   2.259   6.359  0.3421  0.5290  0.0796
40247SOL    HW224147   5.706   2.114   6.323  0.5816  0.9622 -1.5181
40248SOL     OW24148   9.431   6.648   7.280 -0.2825 -0.0280  0.0969
40248SOL    HW124149   9.449   6.735   7.315  3.5302 -0.6031 -0.2133
40248SOL    HW224150   9.428   6.592   7.357 -0.9912  0.1151  0.1723
40249SOL     OW24151   2.569  10.194   9.922 -0.3288 -0.8020 -0.4863
40249SOL    HW124152   2.651  10.190   9.873 -0.2776 -1.2494 -0.3626
40249SOL    HW224153   2.540  10.103   9.929 -1.8633 -0.4513 -2.2364
40250SOL     OW24154   5.412   1.481   7.169  0.1205 -0.8991  0.0523
40250SOL    HW124155   5.340   1.543   7.160  0.8918  0.1316  0.8076
40250SOL    HW224156   5.461   1.512   7.245  2.4451 -0.4172 -1.5635
40251SOL     OW24157   9.595  10.374   7.314  0.7712  0.0515 -0.1870
40251SOL    HW124158   9.545  10.447   7.276  1.5403  0.9710  0.5367
40251SOL    HW224159   9.553  10.358   7.398  0.2647 -0.7064 -0.5827
40252SOL     OW24160   8.266   1.941   1.965 -0.2336 -0.0426 -0.1623
40252SOL    HW124161   8.215   1.973   1.890  1.4602  0.0352 -1.3049
40252SOL    HW224162   8.231   1.853   1.981 -2.4074  0.9285  0.6647
40253SOL     OW24163   2.376   1.802   6.957 -0.3399 -0.3616  0.3754
40253SOL    HW124164   2.319   1.727   6.942 -0.9013 -0.1391  1.3949
40253SOL    HW224165   2.336   1.873   6.907 -1.8392  0.2011  2.3088
40254SOL     OW24166   8.146   2.220   8.573  0.2001  0.1718  0.7063
40254SOL    HW124167   8.150   2.135   8.528 -2.1554  0.6568 -0.4741
40254SOL    HW224168   8.166   2.199   8.664 -0.3731 -1.6727  0.4367
40255SOL     OW24169   5.734   4.101   3.697 -0.0931  0.1952 -0.5619
40255SOL    HW124170   5.646   4.129   3.672  0.4560  1.4345 -1.1443
40255SOL    HW224171   5.728   4.085   3.791 -0.9216  0.3536 -0.5856
40256SOL     OW24172   7.324   8.407   1.433 -0.0538  0.0361  0.1825
40256SOL    HW124173   7.275   8.460   1.495  1.9388  0.3570  1.5560
40256SOL    HW224174   7.401   8.378   1.483  1.5067  0.1435 -2.0842
40257SOL     OW24175  10.651   8.121   6.118  0.0451  0.7118  0.0137
40257SOL    HW124176  10.623   8.142   6.207  1.6090  2.0726  0.2108
40257SOL    HW224177  10.577   8.073   6.081 -1.0473  1.0193  1.6995
40258SOL     OW24178   0.148   8.564   9.479 -0.1438  0.3457 -0.6170
40258SOL    HW124179   0.062   8.590   9.445 -0.6187 -3.2997 -2.4640
40258SOL    HW224180   0.128   8.505   9.551  0.7821 -0.4663 -1.0077
40259SOL     OW24181   9.264   9.292   2.597 -0.0966  0.4841 -0.4329
40259SOL    HW124182   9.196   9.253   2.652  1.7211  0.2527  1.7398
40259SOL    HW224183   9.255   9.386   2.612  0.7450  0.3899  0.7175
40260SOL     OW24184   0.451   1.803   1.882  0.0716 -0.1274  0.3531
40260SOL    HW124185   0.375   1.782   1.827  1.6920 -2.3003 -1.1168
40260SOL    HW224186   0.423   1.779   1.971 -1.5698  0.7796  0.1138
40261SOL     OW24187  10.917   3.743   8.627  0.2692 -0.2712  0.2740
40261SOL    HW124188  11.008   3.717   8.646  0.3657 -0.2092 -0.0961
40261SOL    HW224189  10.912   3.744   8.531 -0.2713 -0.7807  0.2974
40262SOL     OW24190   7.919   0.355   1.392 -0.1200 -0.6532  0.2981
40262SOL    HW124191   7.925   0.418   1.320 -1.1792 -0.8153  0.0567
40262SOL    HW224192   7.988   0.382   1.453 -1.0560  1.2015  0.5645
40263SOL     OW24193   7.187   6.409   6.367 -0.1714  0.0306 -0.0141
40263SOL    HW124194   7.158   6.336   6.421 -1.2910  1.4406  1.3369
40263SOL    HW224195   7.154   6.388   6.279 -0.3030 -1.1716  0.3139
40264SOL     OW24196   0.181   3.938   7.853  0.6802  0.0751 -0.1877
40264SOL    HW124197   0.127   3.978   7.785  0.7839 -2.3391 -1.7393
40264SOL    HW224198   0.236   4.010   7.884 -1.0089  1.7573 -1.0012
40265SOL     OW24199   0.437   8.065   8.191 -0.0812 -0.1008 -0.3462
40265SOL    HW124200   0.421   8.075   8.285 -1.4622 -0.7966 -0.4976
40265SOL    HW224201   0.530   8.084   8.181  0.0588  0.0947  1.1491
40266SOL     OW24202   7.439   7.826   9.264  0.2903 -0.0103  0.1631
40266SOL    HW124203   7.385   7.841   9.341 -0.5328 -0.4272 -0.3364
40266SOL    HW224204   7.387   7.768   9.208  1.4590 -0.8517 -0.0780
40267SOL     OW24205   6.593   0.661   9.900 -0.4087 -0.1224  0.2614
40267SOL    HW124206   6.581   0.730   9.966 -1.0866  0.4359 -0.4333
40267SOL    HW224207   6.506   0.623   9.890  0.0763 -1.5001  1.0710
40268SOL     OW24208   8.746  10.168   3.733  0.2303 -0.4571 -0.0492
40268SOL    HW124209   8.680  10.228   3.699  2.5133  1.4724 -1.2091
40268SOL    HW224210   8.773  10.206   3.816 -0.0121 -1.1463  0.3437
40269SOL     OW24211   6.499   3.189   1.088 -0.3062 -0.2643 -0.1089
40269SOL    HW124212   6.460   3.112   1.130 -0.1288  0.1629  0.8569
40269SOL    HW224213   6.499   3.168   0.994 -0.4554 -1.3491  0.1250
40270SOL     OW24214   6.613   8.223   3.808  0.1279  0.9229 -0.2212
40270SOL    HW124215   6.672   8.261   3.872  1.2829  1.9850 -1.8740
40270SOL    HW224216   6.654   8.241   3.723 -0.8069 -1.4112 -1.2058
40271SOL     OW24217   8.206  10.512   5.492 -0.4819  0.1706 -0.7825
40271SOL    HW124218   8.292  10.471   5.492 -0.0425  1.0450 -0.0710
40271SOL    HW224219   8.158  10.467   5.562 -0.0854  0.6915 -0.1675
40272SOL     OW24220   2.747   4.720   0.506  0.6011 -0.0358 -0.0861
40272SOL    HW124221   2.794   4.736   0.424  0.7479 -1.6401 -0.3452
40272SOL    HW224222   2.815   4.724   0.573  0.8599 -0.7764 -0.2894
40273SOL     OW24223   7.995   5.738   7.380 -0.2756 -0.0353  0.5589
40273SOL    HW124224   7.974   5.776   7.294 -1.1904  0.2107  0.8865
40273SOL    HW224225   7.962   5.649   7.375  2.0404 -0.8964 -0.2786
40274SOL     OW24226   0.792   4.162   5.813  0.1394  0.4924  0.0682
40274SOL    HW124227   0.757   4.093   5.870  1.0581  0.2176  0.3089
40274SOL    HW224228   0.751   4.242   5.845 -0.9229  0.0658 -0.2041
40275SOL     OW24229  10.421   6.465   2.074 -0.0681 -0.5206 -0.0707
40275SOL    HW124230  10.480   6.401   2.033 -0.4342 -0.6630 -0.3730
40275SOL    HW224231  10.479   6.529   2.115  0.3327 -1.9380  1.6440
40276SOL     OW24232   1.921   4.445   2.114  0.2837  0.1410  0.1721
40276SOL    HW124233   1.830   4.469   2.098  0.4553  0.1705 -0.7997
40276SOL    HW224234   1.953   4.512   2.175 -0.5112 -0.2309  1.0097
40277SOL     OW24235   7.815   1.112   6.146 -0.3955  0.8048  0.8510
40277SOL    HW124236   7.842   1.030   6.105  1.1089  0.4643  2.4838
40277SOL    HW224237   7.719   1.108   6.146 -0.3486 -0.6437  0.3303
40278SOL     OW24238   6.518   9.555   7.644  0.1551  0.2389 -0.1515
40278SOL    HW124239   6.447   9.491   7.645 -0.4525  0.8849  1.2671
40278SOL    HW224240   6.502   9.608   7.723  0.3834  2.3869 -1.5048
40279SOL     OW24241   0.865   1.835   3.334 -0.0687  0.4086 -0.6081
40279SOL    HW124242   0.886   1.743   3.350 -0.4310  0.6493  1.4926
40279SOL    HW224243   0.809   1.859   3.408  0.6414  2.5180 -0.7327
40280SOL     OW24244   4.107   8.522   1.892 -0.1086  0.1561  0.3962
40280SOL    HW124245   4.030   8.466   1.896 -1.5458  1.9541 -1.2235
40280SOL    HW224246   4.146   8.503   1.806  0.3092  0.4783  0.5105
40281SOL     OW24247   9.871   5.259   0.687 -0.3496 -0.9623 -0.1679
40281SOL    HW124248   9.920   5.319   0.744  1.4002 -0.0326 -2.5643
40281SOL    HW224249   9.779   5.277   0.707  0.1935  0.8174  0.8576
40282SOL     OW24250   6.282   0.921   5.495  0.4995 -0.1102 -0.1525
40282SOL    HW124251   6.226   0.947   5.568 -1.0371 -1.0817 -0.9579
40282SOL    HW224252   6.221   0.891   5.427  2.0056 -1.5714 -0.8956
40283SOL     OW24253   2.812   2.610   0.872 -0.5321  0.8284 -0.7790
40283SOL    HW124254   2.754   2.677   0.836  2.0467  3.3242 -0.4538
40283SOL    HW224255   2.848   2.649   0.951 -1.1217 -2.0846  1.0001
40284SOL     OW24256   6.171   2.411   6.617  0.2032  0.5730 -0.2434
40284SOL    HW124257   6.151   2.329   6.573  1.9326  0.1163 -0.2224
40284SOL    HW224258   6.158   2.478   6.550  0.0070  0.1583 -0.6233
40285SOL     OW24259   6.119   8.465   4.954  0.1870 -0.7025 -0.3722
40285SOL    HW124260   6.088   8.417   4.878  0.5458  0.3688 -1.1974
40285SOL    HW224261   6.157   8.546   4.919 -1.6720  0.8649  1.0817
40286SOL     OW24262   4.818   9.631   5.897 -0.5337 -0.0016  0.9654
40286SOL    HW124263   4.790   9.544   5.925  1.5656 -0.8330  0.5807
40286SOL    HW224264   4.739   9.683   5.899 -2.0760 -2.2295  0.0369
40287SOL     OW24265   2.628   0.416   7.248  0.5448  0.3226 -0.5532
40287SOL    HW124266   2.560   0.454   7.304 -0.2629  0.5879 -1.7029
40287SOL    HW224267   2.642   0.328   7.285  0.5962  0.7763  0.5381
40288SOL     OW24268   8.127   8.113   9.753 -0.0947 -0.1834  0.5367
40288SOL    HW124269   8.191   8.091   9.686  0.4221  1.2036  0.5647
40288SOL    HW224270   8.179   8.137   9.830 -0.6685 -0.1972  0.9396
40289SOL     OW24271   9.553   1.280   2.019  0.5256 -0.3725  0.2642
40289SOL    HW124272   9.514   1.194   2.032 -0.2435  0.0507  0.7858
40289SOL    HW224273   9.493   1.341   2.064  0.0203  0.6572 -1.7669
40290SOL     OW24274   2.384   7.153  10.667 -0.0912 -0.3825  0.4572
40290SOL    HW124275   2.429   7.087  10.721 -0.9185 -1.2134  0.1352
40290SOL    HW224276   2.448   7.176  10.600  0.9193  0.5960  1.7252
40291SOL     OW24277   4.088   7.375   9.433  0.2475  0.3349 -0.1837
40291SOL    HW124278   4.112   7.416   9.516 -0.4168  1.0620 -0.3359
40291SOL    HW224279   4.102   7.443   9.367 -0.6773  0.2580 -0.4697
40292SOL     OW24280   0.621   8.370   2.732  0.3062  0.1741  0.4768
40292SOL    HW124281   0.530   8.392   2.750  0.7622  1.5138  1.1945
40292SOL    HW224282   0.671   8.445   2.765  1.5412  0.2322 -1.4358
40293SOL     OW24283   6.010   1.572   1.658 -0.2262  0.1595 -0.4142
40293SOL    HW124284   5.946   1.566   1.587 -0.0775 -1.5227 -0.4219
40293SOL    HW224285   5.977   1.510   1.724  0.2323  0.8936  0.5102
40294SOL     OW24286   4.606   4.514   4.798  0.1974  0.1020  0.3631
40294SOL    HW124287   4.602   4.422   4.772  1.0808 -0.0172  0.6240
40294SOL    HW224288   4.515   4.545   4.794 -0.2854 -1.1452  1.5992
40295SOL     OW24289   7.934   3.066   5.712 -0.1985 -0.4144  0.1730
40295SOL    HW124290   7.912   3.153   5.680 -0.7875 -1.2989 -1.9020
40295SOL    HW224291   8.000   3.034   5.651 -0.4367 -1.6508  0.5501
40296SOL     OW24292   8.008   4.798   9.451  0.3849 -0.0662 -0.5474
40296SOL    HW124293   7.953   4.734   9.496 -0.2353 -0.3181 -1.6282
40296SOL    HW224294   8.012   4.872   9.511  0.9991 -1.0602  0.6570
40297SOL     OW24295   4.711  10.824  10.071  0.1872  0.0986  0.1050
40297SOL    HW124296   4.701  10.746  10.126 -4.0698  1.6683  1.7581
40297SOL    HW224297   4.758  10.886  10.127 -1.9208  0.8235  1.1067
40298SOL     OW24298   9.034   2.149   3.448  0.3851  0.0758  0.7076
40298SOL    HW124299   9.125   2.155   3.419  0.0483 -2.7722 -1.0877
40298SOL    HW224300   9.039   2.104   3.532  0.6812  0.6040  0.9771
40299SOL     OW24301   9.979   7.128   7.686  0.0892 -0.1177  0.4905
40299SOL    HW124302   9.956   7.101   7.775 -0.0894  1.6549  0.9961
40299SOL    HW224303  10.033   7.056   7.653 -1.7580 -1.8804  1.1718
40300SOL     OW24304  10.819  10.586   3.132 -0.2801  0.3944  0.4938
40300SOL    HW124305  10.893  10.584   3.192  0.4456  0.4802 -0.3781
40300SOL    HW224306  10.742  10.575   3.187  0.2461  2.3461  1.6423
40301SOL     OW24307   5.647   7.486  10.192 -0.0482 -0.1004  0.2414
40301SOL    HW124308   5.655   7.564  10.247 -1.1953 -1.9482  3.1449
40301SOL    HW224309   5.556   7.487  10.161 -0.2886 -0.6769  0.9156
40302SOL     OW24310   6.281   1.098   8.621 -0.3010  0.2135  0.1886
40302SOL    HW124311   6.295   1.067   8.531  0.3591  0.7749  0.0988
40302SOL    HW224312   6.233   1.026   8.663 -1.0871  0.1678 -0.7604
40303SOL     OW24313   2.090  10.757   7.027 -0.1519  0.1168  0.5568
40303SOL    HW124314   2.042  10.785   6.948 -0.6891 -1.2549  0.3848
40303SOL    HW224315   2.108  10.838   7.074 -0.6352  0.8669 -0.5246
40304SOL     OW24316   1.678   1.549   2.042 -0.3091 -0.6290 -0.6093
40304SOL    HW124317   1.749   1.608   2.068 -0.8925  0.2447 -0.9444
40304SOL    HW224318   1.721   1.467   2.018  0.5663 -0.1676 -0.6245
40305SOL     OW24319   5.883  10.928   1.579 -0.0638  0.3217  0.5433
40305SOL    HW124320   5.815  10.867   1.607 -1.3329  0.5378 -1.9443
40305SOL    HW224321   5.915  10.892   1.496  0.6445  1.8935  0.1079
40306SOL     OW24322  10.509   7.430   7.030  0.0305 -0.5273  0.0489
40306SOL    HW124323  10.536   7.343   7.000  1.8520  0.5599 -1.5950
40306SOL    HW224324  10.584   7.486   7.009 -1.5661  1.6399  0.0403
40307SOL     OW24325   8.400   5.182   4.787 -0.7344 -0.2799  0.3942
40307SOL    HW124326   8.322   5.131   4.763  0.2903 -2.1181  0.8754
40307SOL    HW224327   8.429   5.221   4.704 -2.5411  0.9914  0.3270
40308SOL     OW24328   1.398   1.941   7.077  0.5537 -0.3281 -0.2248
40308SOL    HW124329   1.466   1.876   7.059 -0.7109 -1.3741 -1.2912
40308SOL    HW224330   1.437   2.024   7.050  1.9461 -0.7101  0.5405
40309SOL     OW24331   2.996   5.954   2.072 -0.0859  0.0456 -0.5681
40309SOL    HW124332   2.942   6.031   2.090 -0.5899 -0.4990  0.2887
40309SOL    HW224333   3.085   5.989   2.066 -0.3015  0.6921 -0.0847
40310SOL     OW24334   4.050   8.833   1.731  0.5410  0.3356  0.1305
40310SOL    HW124335   4.008   8.764   1.781  1.6528 -1.8214 -1.8296
40310SOL    HW224336   4.018   8.914   1.771 -2.0081 -1.2639  1.4696
40311SOL     OW24337   4.202   5.757   5.506 -0.6330 -0.5792  0.2191
40311SOL    HW124338   4.279   5.700   5.503  1.4001  2.0957 -1.2863
40311SOL    HW224339   4.207   5.798   5.592  1.1678  1.4816 -0.7966
40312SOL     OW24340   1.360   4.650   5.557  0.2168 -0.3512  0.5127
40312SOL    HW124341   1.409   4.711   5.613  0.4792  0.0534 -0.1520
40312SOL    HW224342   1.269   4.661   5.585  0.4340 -0.6934  1.3666
40313SOL     OW24343   7.034   4.932   6.921  0.1231 -0.5238  0.5200
40313SOL    HW124344   6.994   4.886   6.847  2.1216  2.5363 -2.6212
40313SOL    HW224345   6.969   4.999   6.945 -0.3930 -1.3188  1.3952
40314SOL     OW24346   9.361   5.826  10.951 -0.7432  0.2897 -0.0010
40314SOL    HW124347   9.298   5.895  10.930 -0.7641  0.6418  1.1753
40314SOL    HW224348   9.446   5.861  10.922 -0.8470  0.5465  0.0054
40315SOL     OW24349  10.228   4.611   0.354  0.3705  0.1100 -0.3434
40315SOL    HW124350  10.321   4.590   0.361  0.2311 -0.6357 -0.6509
40315SOL    HW224351  10.219   4.649   0.266  0.5540  1.0760  0.0587
40316SOL     OW24352   7.601   7.092   7.880 -0.1900  0.4645 -0.2282
40316SOL    HW124353   7.578   7.135   7.797 -1.1782  0.7501  0.1799
40316SOL    HW224354   7.693   7.115   7.894 -0.2657  1.1645 -0.8035
40317SOL     OW24355   6.393  10.585   5.135 -0.2047 -0.1058  0.1143
40317SOL    HW124356   6.421  10.612   5.048  1.4316  0.2875  0.7414
40317SOL    HW224357   6.444  10.507   5.154  1.4099  1.2694  1.7394
40318SOL     OW24358   4.862   4.462   6.398 -0.4092 -0.6863  0.1195
40318SOL    HW124359   4.886   4.421   6.316  0.8939  0.6770 -0.1964
40318SOL    HW224360   4.766   4.455   6.401 -0.5402 -0.1137 -1.8642
40319SOL     OW24361  10.235   3.937   0.168  0.0818 -0.4263 -0.0851
40319SOL    HW124362  10.315   3.954   0.119 -0.0247 -0.2353 -0.1947
40319SOL    HW224363  10.247   3.983   0.252 -0.9528  1.7517 -1.0847
40320SOL     OW24364   2.108   8.613   8.894  0.1346  0.2854  0.0855
40320SOL    HW124365   2.162   8.674   8.945  0.5153 -0.7354  0.9191
40320SOL    HW224366   2.160   8.533   8.889  1.0160  1.0104 -3.6858
40321SOL     OW24367   3.246   1.018   2.957 -0.4028 -0.2194  0.4833
40321SOL    HW124368   3.264   1.058   2.872 -2.9011 -1.8138 -0.8834
40321SOL    HW224369   3.228   0.926   2.936  1.5437 -1.2531  3.0808
40322SOL     OW24370   2.042   0.031   0.743 -0.3771 -0.3102 -0.5733
40322SOL    HW124371   1.949   0.045   0.759 -0.0395 -0.3464  1.5521
40322SOL    HW224372   2.086   0.087   0.807  1.0851  0.3100 -2.0790
40323SOL     OW24373   2.332   8.725   2.977  0.2880  0.0500  0.2938
40323SOL    HW124374   2.323   8.819   2.961 -0.3559  0.1123  1.0070
40323SOL    HW224375   2.406   8.717   3.038  0.5882  0.0632 -0.0678
40324SOL     OW24376   9.788   2.250  10.841  0.2340 -0.1982  0.3126
40324SOL    HW124377   9.863   2.283  10.792 -0.0751  0.6437  0.3982
40324SOL    HW224378   9.760   2.171  10.793  1.8052 -1.1151  0.8723
40325SOL     OW24379   0.266   4.846   8.026  0.6543  0.3378 -0.0809
40325SOL    HW124380   0.307   4.905   8.089 -1.5884  0.6610  1.1182
40325SOL    HW224381   0.173   4.867   8.030 -0.1008 -2.7645 -0.2131
40326SOL     OW24382   7.075  10.962   7.862 -0.4751  0.2796  0.6953
40326SOL    HW124383   7.120  10.877   7.863  0.8471  0.9573 -0.1574
40326SOL    HW224384   6.990  10.944   7.902  0.1818 -1.2317  1.4678
40327SOL     OW24385  10.310   5.221   7.600  0.4181 -0.2813 -0.0914
40327SOL    HW124386  10.312   5.258   7.689  0.9312  1.0026 -0.6237
40327SOL    HW224387  10.224   5.246   7.566  1.0205  1.0695 -0.6946
40328SOL     OW24388   4.584   3.485   5.281 -0.0537 -0.3911 -0.4521
40328SOL    HW124389   4.630   3.401   5.292  0.8222 -0.1102 -1.7909
40328SOL    HW224390   4.583   3.499   5.186 -0.6118  0.8840 -0.2620
40329SOL     OW24391   2.016   9.073   6.602 -0.2717 -0.4903  0.7028
40329SOL    HW124392   1.942   9.081   6.661  0.1430  0.0771  1.1571
40329SOL    HW224393   2.046   9.164   6.588  1.3855 -0.8334  1.8725
40330SOL     OW24394   5.073   3.625  10.206  0.2625 -0.2143  0.1963
40330SOL    HW124395   5.135   3.630  10.134 -0.0401 -0.1596 -0.0632
40330SOL    HW224396   4.987   3.618  10.164  0.0841 -0.1912  0.5483
40331SOL     OW24397   0.033   6.792   8.054 -0.1356  0.4527 -0.9759
40331SOL    HW124398   0.114   6.745   8.075  0.8025  0.7720 -3.6851
40331SOL    HW224399  -0.020   6.727   8.008 -1.7615  0.0452  1.3572
40332SOL     OW24400   9.260   7.269   2.515  0.0513  0.2793 -0.2076
40332SOL    HW124401   9.307   7.193   2.549  1.4989  1.2436  0.0057
40332SOL    HW224402   9.169   7.256   2.544 -0.1626 -2.3858 -1.9802
40333SOL     OW24403   7.909   3.918   8.346 -0.3528  0.1268  0.2692
40333SOL    HW124404   7.832   3.877   8.386  0.6295 -1.8784  0.1345
40333SOL    HW224405   7.892   3.914   8.252 -0.2254 -0.0078  0.2532
40334SOL     OW24406   8.235  10.366   4.126 -0.0455 -0.2234  0.3381
40334SOL    HW124407   8.274  10.436   4.073 -2.6555  0.1445 -1.1809
40334SOL    HW224408   8.173  10.412   4.183 -0.5750 -1.1215  0.4907
40335SOL     OW24409  10.665  10.759  10.975  0.2377  0.4377 -0.4513
40335SOL    HW124410  10.756  10.730  10.977  0.8570  2.3822  1.0651
40335SOL    HW224411  10.649  10.783  10.884  0.2289 -2.8806 -1.3961
40336SOL     OW24412   4.977   1.725  10.596 -0.3458 -0.1404 -0.5269
40336SOL    HW124413   4.909   1.780  10.556 -1.3834 -0.4708  0.7829
40336SOL    HW224414   4.932   1.646  10.625  0.1667  0.5790  2.3578
40337SOL     OW24415   7.142   9.978   3.358  0.4651 -0.3210 -0.4553
40337SOL    HW124416   7.182  10.051   3.406 -2.0443  0.0753  1.1135
40337SOL    HW224417   7.101  10.020   3.282  0.0186 -0.2529 -0.1771
40338SOL     OW24418   2.965   9.722   2.143  0.8105  0.0505 -0.1435
40338SOL    HW124419   3.049   9.710   2.187  0.8786  1.3413  0.0978
40338SOL    HW224420   2.907   9.755   2.212  0.8862  1.9804 -0.9926
40339SOL     OW24421   8.612   5.985   6.028 -0.4202 -0.7467  0.3195
40339SOL    HW124422   8.525   6.021   6.045  0.3061  0.9995  0.4962
40339SOL    HW224423   8.610   5.898   6.066 -1.1879  0.3567  2.9339
40340SOL     OW24424   8.177   3.260   9.055 -0.2357 -0.1630 -0.4048
40340SOL    HW124425   8.164   3.345   9.096 -0.7375 -0.9088  1.0152
40340SOL    HW224426   8.181   3.198   9.128  0.5134 -1.3124 -1.3955
40341SOL     OW24427   5.117   9.923   1.055  0.3008  0.5579  0.1380
40341SOL    HW124428   5.100   9.830   1.070  1.3476  0.4907  0.9714
40341SOL    HW224429   5.031   9.965   1.065  0.0801 -0.1376  1.2899
40342SOL     OW24430   0.090   0.543   4.955 -0.0675 -0.1773  0.4232
40342SOL    HW124431   0.074   0.526   5.048  0.9861  0.5527  0.7474
40342SOL    HW224432   0.119   0.634   4.952 -1.0085  0.0858 -0.7386
40343SOL     OW24433   1.676   6.238   5.296 -0.0019  0.1665  0.1064
40343SOL    HW124434   1.611   6.212   5.231  0.8457 -1.2184 -0.2200
40343SOL    HW224435   1.741   6.287   5.247  0.6194 -0.8478 -0.0974
40344SOL     OW24436   7.837  10.037   4.118 -0.0732  0.3566  0.1016
40344SOL    HW124437   7.756  10.088   4.127 -0.4010 -0.2118  0.4541
40344SOL    HW224438   7.897  10.095   4.070 -0.7483  0.7200 -0.3226
40345SOL     OW24439   6.547   0.746   8.491  0.0406  0.2377  0.3453
40345SOL    HW124440   6.489   0.820   8.478 -0.6021 -0.3182 -0.0184
40345SOL    HW224441   6.558   0.740   8.585 -1.2849 -0.2323  0.4895
40346SOL     OW24442   4.804   0.980   8.804 -0.6225 -0.8569 -0.2445
40346SOL    HW124443   4.774   0.931   8.880  2.9481 -0.3843  1.5659
40346SOL    HW224444   4.820   0.913   8.737 -2.8922 -1.3531 -0.3495
40347SOL     OW24445   9.967   1.628   7.837  0.2218 -0.0412  0.0839
40347SOL    HW124446   9.954   1.647   7.930 -1.9634 -2.3757  0.2980
40347SOL    HW224447   9.903   1.684   7.792  0.0342 -0.2323  0.1123
40348SOL     OW24448   4.336   8.018   9.198 -0.2150  0.1234 -0.2494
40348SOL    HW124449   4.428   8.021   9.174 -0.4541 -1.0154 -1.3518
40348SOL    HW224450   4.335   7.984   9.287  0.3214 -2.1121 -1.0664
40349SOL     OW24451   8.140   9.714   7.126  0.5578 -0.5466 -1.0226
40349SOL    HW124452   8.078   9.667   7.182  0.6831  1.3739  0.7640
40349SOL    HW224453   8.107   9.700   7.038 -0.0104 -3.0783 -0.4659
40350SOL     OW24454   7.488   0.416   6.877  0.2689  0.0748 -0.1413
40350SOL    HW124455   7.541   0.338   6.897  0.8261  0.6920  0.8408
40350SOL    HW224456   7.551   0.488   6.877 -0.7828  1.0745  2.7669
40351SOL     OW24457   8.036   4.009   6.939 -0.0362  0.6212  0.0358
40351SOL    HW124458   8.010   4.047   6.855 -0.4460  0.6034  0.1544
40351SOL    HW224459   7.954   3.986   6.981  0.1855  0.2557  0.2709
40352SOL     OW24460   0.273   4.589   8.825  0.1283 -0.0652 -0.2261
40352SOL    HW124461   0.241   4.622   8.908  3.4211  1.3650  0.5448
40352SOL    HW224462   0.304   4.500   8.844 -0.7727 -0.4032 -0.3358
40353SOL     OW24463   2.012   3.938   3.385 -0.3654 -0.4459 -0.3389
40353SOL    HW124464   2.040   3.856   3.343 -0.0589 -0.3639 -0.2974
40353SOL    HW224465   1.922   3.921   3.413 -0.6614 -0.4096 -1.2662
40354SOL     OW24466   2.404   9.106   8.602  0.2559  1.0136 -0.4523
40354SOL    HW124467   2.445   9.079   8.520  0.5211 -0.0730  0.0358
40354SOL    HW224468   2.317   9.138   8.576  0.1649  0.2431 -1.0983
40355SOL     OW24469   5.139   5.246  10.241  0.1194 -0.2156  0.2669
40355SOL    HW124470   5.092   5.174  10.282 -1.5110  1.3084  1.1756
40355SOL    HW224471   5.193   5.282  10.311  1.4803 -1.0035 -0.3754
40356SOL     OW24472   6.043   9.458   9.571 -0.4652  0.4038 -0.3790
40356SOL    HW124473   6.031   9.363   9.562 -0.2406  0.3305  0.0777
40356SOL    HW224474   6.138   9.470   9.576 -0.4894  0.6638 -0.5228
40357SOL     OW24475   2.640  10.354   8.759  0.1672  0.1642 -0.3345
40357SOL    HW124476   2.722  10.309   8.738  0.6043  0.4082  0.7497
40357SOL    HW224477   2.650  10.377   8.852 -1.1432  0.1798 -0.1915
40358SOL     OW24478   9.987   2.173   1.054  0.0101 -0.0320  0.2874
40358SOL    HW124479   9.953   2.093   1.091  0.7777  0.6849  2.5963
40358SOL    HW224480  10.082   2.167   1.065 -0.0076  1.8113  1.8661
40359SOL     OW24481   9.915   8.467  10.768 -0.5882 -0.0365  0.0118
40359SOL    HW124482   9.919   8.560  10.746 -0.3379 -0.1661 -0.5121
40359SOL    HW224483   9.959   8.423  10.695  1.7516 -0.3763  1.5465
40360SOL     OW24484   3.382   5.431   0.787 -0.5397 -0.2882 -0.2048
40360SOL    HW124485   3.464   5.481   0.797  0.0108 -1.1503 -0.3916
40360SOL    HW224486   3.392   5.385   0.704 -1.6263  0.3488 -0.6992
40361SOL     OW24487   6.884   8.239   5.031  0.1940 -0.3760  0.0002
40361SOL    HW124488   6.792   8.236   5.057  0.0512  1.5363 -0.2522
40361SOL    HW224489   6.881   8.251   4.936  0.6874  1.2771  0.1820
40362SOL     OW24490  10.472  10.135   8.803  0.2220  0.0276  0.1907
40362SOL    HW124491  10.396  10.157   8.856  0.0695  0.6722 -0.2970
40362SOL    HW224492  10.539  10.110   8.867 -0.2052  0.0368  0.6489
40363SOL     OW24493   8.309   2.354   5.270  0.1917 -0.7924  0.4271
40363SOL    HW124494   8.300   2.447   5.290 -0.7126 -0.9651  0.8024
40363SOL    HW224495   8.223   2.317   5.287  0.7060 -1.8076  0.8269
40364SOL     OW24496   1.739   4.626   0.931  0.1036 -0.2697  0.5528
40364SOL    HW124497   1.818   4.668   0.898  0.0256  0.2060  0.9511
40364SOL    HW224498   1.751   4.533   0.914  0.2927 -0.0861 -0.3255
40365SOL     OW24499   2.814   3.600   5.559  0.4979 -0.0252 -0.2128
40365SOL    HW124500   2.893   3.551   5.580 -0.6395 -2.3517 -1.1875
40365SOL    HW224501   2.757   3.590   5.635  0.7268  0.7887  0.0704
40366SOL     OW24502   9.465   1.068   6.955 -0.3722  0.6839 -0.2008
40366SOL    HW124503   9.440   1.099   7.042  1.4609  1.5571  0.0386
40366SOL    HW224504   9.501   0.981   6.969  2.3370  1.8525  0.2936
40367SOL     OW24505   2.142   1.909   3.043 -0.4021  0.3523  0.3177
40367SOL    HW124506   2.205   1.891   2.972 -1.0679 -1.4621  0.1423
40367SOL    HW224507   2.162   1.843   3.109  1.5664  3.3045  2.8134
40368SOL     OW24508   0.977   4.828  10.090  0.4156  0.0880  0.1740
40368SOL    HW124509   0.972   4.919  10.118  0.4226  0.2225 -0.2664
40368SOL    HW224510   0.983   4.832   9.995  0.7278 -0.3644  0.1739
40369SOL     OW24511   5.642   1.651   8.998 -0.2552  0.1981  0.2176
40369SOL    HW124512   5.698   1.631   8.922 -1.3965  0.6173 -0.7504
40369SOL    HW224513   5.692   1.716   9.048 -0.0153  0.8177 -0.8083
40370SOL     OW24514  10.028   1.480  10.401 -0.4127 -0.0584  0.3692
40370SOL    HW124515  10.029   1.426  10.321 -0.7963 -0.5931  0.7259
40370SOL    HW224516   9.942   1.465  10.439 -0.3969  0.5582  0.6458
40371SOL     OW24517  10.532   1.998   9.026 -0.8813  0.2648  0.1022
40371SOL    HW124518  10.506   2.072   9.081 -2.0311  1.1238 -1.5239
40371SOL    HW224519  10.452   1.945   9.019 -0.3891 -0.5009  0.3023
40372SOL     OW24520   9.843   7.508   4.693  0.2332  0.1390  0.2488
40372SOL    HW124521   9.801   7.595   4.696  1.5350  0.8127 -0.6928
40372SOL    HW224522   9.786   7.453   4.748 -2.6066  0.7099 -1.9975
40373SOL     OW24523   8.319   0.789   3.733 -0.2199 -0.4524 -0.5585
40373SOL    HW124524   8.391   0.835   3.776 -0.6068  0.2232 -0.6301
40373SOL    HW224525   8.302   0.840   3.653 -1.7792  0.2721  0.2148
40374SOL     OW24526   0.298   0.308   1.773  0.3797  0.4018 -0.0837
40374SOL    HW124527   0.242   0.309   1.696 -1.3453 -1.2637  1.0784
40374SOL    HW224528   0.388   0.307   1.739 -0.3290  1.0944 -2.0045
40375SOL     OW24529   0.865   1.337  10.419  0.2676  0.1965 -0.0162
40375SOL    HW124530   0.779   1.347  10.379 -0.1263 -0.5311  0.6407
40375SOL    HW224531   0.853   1.369  10.508  1.6235  3.6891 -0.9867
40376SOL     OW24532   9.514   9.023   3.160  0.5084  0.5106  0.0989
40376SOL    HW124533   9.502   9.096   3.099  2.3457 -0.1502 -1.0667
40376SOL    HW224534   9.564   8.958   3.111  0.6362 -0.7012  1.8000
40377SOL     OW24535   5.170   1.827   6.287  0.2698  0.0633 -0.2128
40377SOL    HW124536   5.220   1.839   6.207  1.6400  1.9608  0.8798
40377SOL    HW224537   5.230   1.785   6.348 -0.5119 -0.6592  0.0734
40378SOL     OW24538   3.288   1.655   0.015  0.0896  0.6464  0.5310
40378SOL    HW124539   3.210   1.647  -0.040  1.1437 -0.8840 -0.7722
40378SOL    HW224540   3.347   1.587  -0.016  0.5395 -0.5909  3.9001
40379SOL     OW24541   5.918   9.925  10.127  0.0329  0.7794  0.2882
40379SOL    HW124542   5.878   9.860  10.184 -1.3997  1.3941  0.0182
40379SOL    HW224543   5.845   9.960  10.076  1.3422 -0.0282 -2.2195
40380SOL     OW24544   3.377   2.897   9.300  0.2395 -0.1601 -0.5431
40380SOL    HW124545   3.305   2.869   9.244  0.5956  0.9473 -1.5815
40380SOL    HW224546   3.336   2.955   9.364  0.0881 -0.1289 -0.6675
40381SOL     OW24547   2.472   4.762  10.772  0.1620 -0.4868 -0.4118
40381SOL    HW124548   2.415   4.689  10.795  0.2169 -0.0267  1.2669
40381SOL    HW224549   2.412   4.835  10.755  0.0530 -1.1524 -3.1003
40382SOL     OW24550   0.976   2.005   0.793 -0.5513 -0.1046 -0.4068
40382SOL    HW124551   1.037   1.934   0.813 -1.2590  0.0618  2.4833
40382SOL    HW224552   0.892   1.961   0.781 -0.7619  0.1183  0.2363
40383SOL     OW24553   3.180   3.880   7.013  0.7912 -0.5105  0.1907
40383SOL    HW124554   3.227   3.797   7.023  1.0180 -0.3788  0.2098
40383SOL    HW224555   3.189   3.923   7.098  1.0505 -0.2683  0.0415
40384SOL     OW24556   2.947   7.074   3.519  0.3398 -0.3392  0.1078
40384SOL    HW124557   2.960   7.056   3.425  0.9460  0.3900  0.0506
40384SOL    HW224558   2.897   6.999   3.550 -0.5890 -0.1816 -0.9767
40385SOL     OW24559   9.224   4.646   1.865  0.3275  0.5742  0.2574
40385SOL    HW124560   9.276   4.630   1.786  1.1410 -0.7610  1.0297
40385SOL    HW224561   9.133   4.644   1.835  0.6038 -0.5747 -0.5636
40386SOL     OW24562   0.007   2.857   8.588 -0.3730  0.2815 -0.2381
40386SOL    HW124563  -0.060   2.893   8.529 -0.7983  0.9439  0.6499
40386SOL    HW224564  -0.029   2.774   8.617  0.9771 -1.3508 -2.9648
40387SOL     OW24565   3.244   9.545   0.955 -0.2668 -0.2897 -0.4815
40387SOL    HW124566   3.310   9.605   0.920 -0.9418 -0.2256 -1.6820
40387SOL    HW224567   3.288   9.500   1.027  1.3110 -0.7861 -1.7392
40388SOL     OW24568   1.985   1.777   4.310 -0.1712 -0.2777 -0.2243
40388SOL    HW124569   1.915   1.714   4.293 -0.0818 -0.1397 -1.1089
40388SOL    HW224570   2.055   1.724   4.348 -0.7590 -0.4113  0.6727
40389SOL     OW24571   2.545   9.045   2.248 -0.1077  0.0112  0.6959
40389SOL    HW124572   2.469   8.990   2.226 -1.5341  1.6868  1.2719
40389SOL    HW224573   2.530   9.126   2.199  0.9035  0.6528  1.4500
40390SOL     OW24574   8.029   6.735   6.102 -0.3663 -0.5115 -0.1023
40390SOL    HW124575   7.981   6.699   6.176 -1.0991 -0.6288 -0.6223
40390SOL    HW224576   8.121   6.734   6.129 -0.4927 -1.7740  0.2895
40391SOL     OW24577   2.408   8.555   7.088  0.2890  0.5817 -0.2931
40391SOL    HW124578   2.362   8.628   7.129  1.4441  0.9064  0.4338
40391SOL    HW224579   2.357   8.537   7.009 -1.4082  0.5676  0.7757
40392SOL     OW24580  10.290   9.095   3.835 -0.0695  0.0962 -0.4835
40392SOL    HW124581  10.354   9.025   3.848  0.2289  0.2289 -1.2165
40392SOL    HW224582  10.291   9.144   3.918 -0.9106 -1.2772  0.3417
40393SOL     OW24583  10.047  10.255   3.668  0.5572 -0.2774 -0.1553
40393SOL    HW124584  10.027  10.183   3.728 -2.0020  1.6075  1.3617
40393SOL    HW224585  10.043  10.334   3.722  1.6678  1.1826 -2.1043
40394SOL     OW24586   3.665   5.027   6.418  0.0853 -0.2181 -0.0185
40394SOL    HW124587   3.732   4.977   6.370 -0.3246 -0.5835 -0.2132
40394SOL    HW224588   3.606   5.060   6.351 -0.8293 -1.2323  0.2585
40395SOL     OW24589   1.901   3.286   6.158  0.2015  0.2645 -0.0369
40395SOL    HW124590   1.975   3.247   6.205  2.3842  2.5969 -1.4687
40395SOL    HW224591   1.850   3.331   6.226 -0.4802 -2.1405  1.0947
40396SOL     OW24592   3.121   1.742   9.452  0.3378 -0.1782  0.7197
40396SOL    HW124593   3.059   1.796   9.403 -0.6176 -2.7476 -1.0203
40396SOL    HW224594   3.207   1.770   9.422  0.0108  2.3167  1.9735
40397SOL     OW24595   3.177   5.198   8.245 -0.6759  0.6184 -0.2159
40397SOL    HW124596   3.106   5.192   8.181  0.6566 -2.0655 -1.5165
40397SOL    HW224597   3.220   5.113   8.241  0.9657  1.2610  2.5098
40398SOL     OW24598  10.001   9.687   9.157  0.3788  0.5009  0.3918
40398SOL    HW124599   9.947   9.677   9.235 -1.2409 -2.9240 -1.0807
40398SOL    HW224600   9.997   9.781   9.137 -3.4478  0.6360  1.4408
40399SOL     OW24601   2.605  10.424   9.015 -0.3377 -0.0281  0.3166
40399SOL    HW124602   2.590  10.518   9.006 -0.3104 -0.0469  0.0604
40399SOL    HW224603   2.542  10.396   9.081 -0.1722  0.2137  0.5789
40400SOL     OW24604   9.855   5.029   0.232  1.2158  0.3776 -0.0758
40400SOL    HW124605   9.809   4.956   0.190  2.2116  0.3707 -1.1912
40400SOL    HW224606   9.792   5.064   0.295 -0.1582  0.1177 -1.2850
40401SOL     OW24607   2.681   4.119   6.558 -0.4137 -0.1474 -0.4908
40401SOL    HW124608   2.679   4.166   6.475  2.4117 -1.6787 -1.5018
40401SOL    HW224609   2.702   4.186   6.623  1.2751  0.4084 -1.5853
40402SOL     OW24610   2.172   0.177   8.946 -0.4195 -0.6456 -0.2874
40402SOL    HW124611   2.147   0.116   9.017  0.0510  0.0231  0.4642
40402SOL    HW224612   2.207   0.121   8.878  0.5871 -1.1812  0.6520
40403SOL     OW24613   1.699   9.722   7.896 -0.6963  0.2143  0.1908
40403SOL    HW124614   1.643   9.739   7.972 -0.6843  0.8147  0.0723
40403SOL    HW224615   1.639   9.696   7.826 -0.6926 -0.4805  0.4522
40404SOL     OW24616   9.115   2.108   3.922  0.5551 -0.3481  0.1336
40404SOL    HW124617   9.129   2.048   3.995  0.1078  1.1474  1.4793
40404SOL    HW224618   9.022   2.131   3.927  0.9348  1.1856  0.1974
40405SOL     OW24619   2.829   3.226   4.931  0.1109  0.2219  0.5616
40405SOL    HW124620   2.813   3.158   4.996 -0.2151  0.8103  1.1001
40405SOL    HW224621   2.858   3.178   4.853 -1.6143 -0.6592  0.4311
40406SOL     OW24622  10.798   5.702   6.595  0.5607  0.8961 -0.5511
40406SOL    HW124623  10.842   5.712   6.510  1.4705  0.8982 -0.0753
40406SOL    HW224624  10.816   5.784   6.641  1.1422  0.3641  0.1536
40407SOL     OW24625   3.183   3.982   8.525 -0.3562  0.1092 -0.0576
40407SOL    HW124626   3.197   3.908   8.584 -0.1282 -0.6612 -1.0661
40407SOL    HW224627   3.129   3.946   8.455  1.7893  0.2631 -1.8352
40408SOL     OW24628   3.604   6.994   3.068 -0.0182  0.1228  0.5039
40408SOL    HW124629   3.643   6.980   2.981 -3.1940  2.4987 -1.4300
40408SOL    HW224630   3.679   7.011   3.125  2.1541 -1.1748 -1.8188
40409SOL     OW24631   6.854   0.511   8.051  0.3381  0.2124 -0.5070
40409SOL    HW124632   6.795   0.580   8.082 -1.2486 -0.6505 -1.5067
40409SOL    HW224633   6.914   0.555   7.991 -1.4723  0.5319 -2.1342
40410SOL     OW24634   2.784   3.564   4.320  0.0835  0.1602  0.3903
40410SOL    HW124635   2.783   3.641   4.263 -0.6284 -1.7605 -2.2961
40410SOL    HW224636   2.874   3.532   4.315 -0.2070 -0.5499 -0.4521
40411SOL     OW24637   0.819   6.729   9.986  0.0829  0.0746  0.5393
40411SOL    HW124638   0.891   6.666   9.975  1.0497  1.1825  0.3658
40411SOL    HW224639   0.840   6.799   9.925 -1.2100  0.3721  0.4398
40412SOL     OW24640   7.072   2.907   0.874 -0.2506 -0.6642 -0.1019
40412SOL    HW124641   7.105   2.995   0.893  0.1847 -0.8019 -0.2085
40412SOL    HW224642   6.994   2.921   0.822  1.0372 -0.3939 -2.0121
40413SOL     OW24643   8.336   6.433   6.055 -0.5296 -0.1169  0.0495
40413SOL    HW124644   8.328   6.337   6.055  0.5587 -0.2227  1.0894
40413SOL    HW224645   8.343   6.456   6.148  2.2215  0.6983 -0.3323
40414SOL     OW24646   8.181   0.312   4.557  0.2859 -0.3049  0.1711
40414SOL    HW124647   8.168   0.233   4.610  2.3555 -1.0897 -0.4560
40414SOL    HW224648   8.104   0.315   4.500  0.0864 -1.7777  0.3283
40415SOL     OW24649   3.169   3.542  10.337 -0.3429 -0.2671  0.0753
40415SOL    HW124650   3.162   3.633  10.309  0.9254 -0.3867 -0.6658
40415SOL    HW224651   3.128   3.491  10.267 -0.7100 -0.2911  0.3092
40416SOL     OW24652   0.927   4.043   1.197  0.6613 -0.1045 -0.2103
40416SOL    HW124653   1.015   4.055   1.233  0.6102  4.2508 -1.2633
40416SOL    HW224654   0.870   4.091   1.257 -0.5849 -0.1938 -1.2937
40417SOL     OW24655  10.436   8.285   9.028  0.0724 -0.1153 -0.2468
40417SOL    HW124656  10.436   8.277   9.124  2.4189  2.0551 -0.0104
40417SOL    HW224657  10.380   8.361   9.011 -0.0426 -0.2776 -0.5924
40418SOL     OW24658   7.939   6.306   3.334  0.3640 -0.1559 -0.2133
40418SOL    HW124659   7.936   6.235   3.398 -1.5232 -1.5514 -1.7816
40418SOL    HW224660   8.019   6.290   3.284  0.0053 -1.1433 -0.4912
40419SOL     OW24661   7.717   3.289   6.062 -0.1215  0.1334  0.6432
40419SOL    HW124662   7.734   3.218   6.000  0.6608  0.0313  0.9717
40419SOL    HW224663   7.693   3.244   6.144 -2.1327  0.2706  0.1572
40420SOL     OW24664   6.012   0.233   3.578  0.5735 -0.1736  0.8048
40420SOL    HW124665   6.004   0.295   3.650 -1.1868 -0.8459  1.2086
40420SOL    HW224666   6.006   0.287   3.499  1.8722  0.4860  1.1499
40421SOL     OW24667   7.329   6.701   8.301  0.3265 -0.1732  0.1206
40421SOL    HW124668   7.323   6.779   8.246 -0.5470 -0.3283 -0.0161
40421SOL    HW224669   7.244   6.658   8.290  0.8933 -1.2805 -0.0145
40422SOL     OW24670   1.001   4.574   2.221  0.3195  0.5900 -0.2339
40422SOL    HW124671   0.974   4.491   2.261 -2.3753  1.1577 -0.7655
40422SOL    HW224672   1.037   4.624   2.293  0.1668 -0.3129  0.4844
40423SOL     OW24673   2.382   4.728   8.224 -0.2843 -0.2030  0.0244
40423SOL    HW124674   2.362   4.802   8.167  0.2785  0.3169  0.5010
40423SOL    HW224675   2.296   4.695   8.252 -0.5287  1.5362  1.4363
40424SOL     OW24676   6.185   9.828   2.172 -0.1323 -0.5260 -0.1442
40424SOL    HW124677   6.230   9.744   2.181 -0.8841 -0.7537  1.6300
40424SOL    HW224678   6.092   9.806   2.183 -0.4078  0.4086 -0.5981
40425SOL     OW24679   1.559   5.027   9.565  0.2977  0.0450  0.1695
40425SOL    HW124680   1.512   5.110   9.558  0.8886  0.3222 -0.5102
40425SOL    HW224681   1.639   5.039   9.514  0.3146 -0.9921 -0.0685
40426SOL     OW24682   5.625   4.667   3.954  0.7995 -0.0897  0.2881
40426SOL    HW124683   5.549   4.677   4.010  0.7416  0.1947  0.1582
40426SOL    HW224684   5.684   4.739   3.980  0.9650 -0.2252  0.2952
40427SOL     OW24685   3.443   1.228   3.104  0.4100  0.5091  0.2979
40427SOL    HW124686   3.380   1.238   3.033  1.5792  0.8619 -0.6956
40427SOL    HW224687   3.406   1.280   3.176 -0.7703  0.1441 -0.0428
40428SOL     OW24688   2.990   0.367  10.063 -0.5389 -0.1431  0.2777
40428SOL    HW124689   3.079   0.341  10.040  0.0285  2.3882 -0.5989
40428SOL    HW224690   2.933   0.305  10.017  0.7465 -0.3188 -1.1093
40429SOL     OW24691   1.437   7.799   0.839  0.0026  0.5902 -0.2646
40429SOL    HW124692   1.399   7.789   0.752  1.3375 -0.3003 -0.7547
40429SOL    HW224693   1.454   7.893   0.847  0.9507  0.5303 -1.4313
40430SOL     OW24694   0.644   8.761   9.343  0.1847 -0.1769  0.3727
40430SOL    HW124695   0.552   8.787   9.347  0.0060 -0.6975 -0.3931
40430SOL    HW224696   0.692   8.842   9.361 -0.4158  0.1988  0.2958
40431SOL     OW24697   6.170   6.418   3.673  0.3037 -0.1591 -0.3212
40431SOL    HW124698   6.076   6.440   3.674  0.1416 -0.8322  1.6239
40431SOL    HW224699   6.211   6.489   3.624 -0.8948  1.6312  1.2019
40432SOL     OW24700   8.686   7.360   6.320 -0.0871  0.3857  0.1375
40432SOL    HW124701   8.606   7.385   6.274  1.1790 -1.0556 -2.9337
40432SOL    HW224702   8.748   7.431   6.301 -0.2386  0.9218  1.5576
40433SOL     OW24703   9.727   8.841   8.305 -0.5094  0.1166  0.0324
40433SOL    HW124704   9.637   8.861   8.333 -0.0940  0.7386  0.9412
40433SOL    HW224705   9.757   8.776   8.368 -1.0994 -1.7765 -1.6210
40434SOL     OW24706   7.492   8.220   7.613 -0.0643  0.5089  0.1926
40434SOL    HW124707   7.479   8.156   7.683  2.0563  0.1979  0.3314
40434SOL    HW224708   7.427   8.195   7.547  0.5852 -1.6881  0.3215
40435SOL     OW24709  10.860   3.628   5.276  0.2175 -0.0949 -0.4003
40435SOL    HW124710  10.780   3.631   5.224 -0.7020 -1.0845  0.9086
40435SOL    HW224711  10.912   3.559   5.236  0.1033  0.0761 -0.8403
40436SOL     OW24712  10.888   7.289   2.789 -0.0680 -0.5419  0.3873
40436SOL    HW124713  10.874   7.334   2.872  1.7516  0.0724  0.3747
40436SOL    HW224714  10.973   7.321   2.758  0.0443 -2.0240 -0.8894
40437SOL     OW24715   1.542   6.989   0.036  0.1142  0.0420  0.0823
40437SOL    HW124716   1.635   7.012   0.032  0.8098 -2.4364  1.0294
40437SOL    HW224717   1.508   7.013  -0.050  1.5800  1.1303 -0.2252
40438SOL     OW24718   9.027   1.011   5.117  0.2000 -0.5248  0.1880
40438SOL    HW124719   8.978   0.946   5.066 -0.5663 -0.5149  0.9060
40438SOL    HW224720   9.054   0.964   5.196 -1.1199  0.2406  1.1351
40439SOL     OW24721   4.291   3.785   7.557  0.2001 -0.5360 -0.3703
40439SOL    HW124722   4.264   3.762   7.645 -0.1185  0.1105 -0.2921
40439SOL    HW224723   4.383   3.762   7.553 -0.0128 -1.4421 -0.1759
40440SOL     OW24724   7.594   3.420   5.032 -0.0605 -0.1376 -0.6255
40440SOL    HW124725   7.547   3.477   4.971  0.3304 -0.2639 -1.0442
40440SOL    HW224726   7.560   3.444   5.118  0.0094  0.6269 -0.8123
40441SOL     OW24727   5.638   4.215   5.417  0.5154 -0.2817  0.2364
40441SOL    HW124728   5.549   4.242   5.394 -0.4785 -1.9037  1.9923
40441SOL    HW224729   5.656   4.139   5.362  0.0406 -1.1250  1.2116
40442SOL     OW24730   2.056   0.692   5.451  0.5095 -0.2183 -0.0435
40442SOL    HW124731   2.088   0.762   5.508  1.7107 -0.8186  0.0382
40442SOL    HW224732   1.980   0.730   5.407  0.3129  0.6640  1.0320
40443SOL     OW24733  10.107   6.887   1.770 -0.7731  0.4366 -0.2665
40443SOL    HW124734  10.013   6.902   1.758 -0.5471  2.0609 -0.1011
40443SOL    HW224735  10.129   6.937   1.849  0.2583  0.1371 -0.3616
40444SOL     OW24736   0.843   1.513   5.780  0.3652 -0.3794 -0.3413
40444SOL    HW124737   0.916   1.476   5.828 -0.8042  0.2001  1.9689
40444SOL    HW224738   0.848   1.473   5.693  0.5318 -4.1010  1.3115
40445SOL     OW24739   6.127   6.617   8.543 -0.8720  0.3936 -0.0493
40445SOL    HW124740   6.215   6.648   8.566  0.9163 -3.2962 -1.4366
40445SOL    HW224741   6.097   6.676   8.474  1.6318  0.2054 -1.3528
40446SOL     OW24742   0.064   0.782   7.069 -0.0943 -0.0796  0.0628
40446SOL    HW124743   0.005   0.733   7.126 -1.9573  1.2619 -0.6199
40446SOL    HW224744   0.045   0.874   7.089  1.9572  0.3739 -0.0106
40447SOL     OW24745   4.744   3.012   5.445 -0.3308  0.0737  0.9804
40447SOL    HW124746   4.782   3.091   5.408 -3.3247  1.1774  0.0950
40447SOL    HW224747   4.736   3.030   5.539 -2.0821  1.3095  0.6071
40448SOL     OW24748   0.613  10.560   1.123 -0.7927 -0.2193 -0.4837
40448SOL    HW124749   0.688  10.545   1.066 -0.2049 -0.3742  0.3286
40448SOL    HW224750   0.623  10.651   1.153 -0.4523 -0.5176  0.3189
40449SOL     OW24751   9.257   4.267   2.315  0.3026  0.4033 -0.4360
40449SOL    HW124752   9.283   4.248   2.225  0.8778 -0.9142 -0.0061
40449SOL    HW224753   9.172   4.225   2.325  0.8286 -0.5741  0.0178
40450SOL     OW24754   9.323   1.107   6.401  0.1690 -1.0796 -0.0669
40450SOL    HW124755   9.318   1.196   6.366 -1.8820 -2.0429 -2.4042
40450SOL    HW224756   9.264   1.108   6.476 -0.9704 -0.7973 -0.9392
40451SOL     OW24757   0.324   3.647   4.718  0.3996  0.0805  0.5509
40451SOL    HW124758   0.245   3.684   4.678  0.7201 -0.5369 -0.6917
40451SOL    HW224759   0.292   3.603   4.797 -0.0951  2.2272  1.5660
40452SOL     OW24760   1.282   2.391   9.783 -0.0559 -0.0211  0.4711
40452SOL    HW124761   1.219   2.419   9.716 -0.3527  0.9579  1.1482
40452SOL    HW224762   1.245   2.311   9.820 -0.1280 -0.3021 -0.2082
40453SOL     OW24763  10.744   3.663  10.441 -0.4186 -0.1836  0.5764
40453SOL    HW124764  10.742   3.571  10.467  0.8399 -0.2638  0.4025
40453SOL    HW224765  10.777   3.662  10.352  0.5875  0.5221  0.9424
40454SOL     OW24766   4.914   0.228   4.564 -0.0479  0.0110 -0.2624
40454SOL    HW124767   4.942   0.168   4.496  0.1214 -0.3998  0.1640
40454SOL    HW224768   4.941   0.315   4.534 -0.7058 -0.0721 -1.0963
40455SOL     OW24769   8.503   1.360   7.274 -0.4264 -0.0811  0.0615
40455SOL    HW124770   8.563   1.420   7.317 -0.5454 -0.4480  0.7413
40455SOL    HW224771   8.474   1.300   7.343 -2.9633  1.1715  0.1130
40456SOL     OW24772   1.341   0.490   7.574  0.0832  0.3901 -0.1331
40456SOL    HW124773   1.417   0.434   7.561 -0.2323 -0.3394  1.0542
40456SOL    HW224774   1.267   0.429   7.582 -0.4193  1.0210  0.0968
40457SOL     OW24775   1.203   0.845   2.125  0.1852  0.0677 -0.7055
40457SOL    HW124776   1.109   0.839   2.111 -0.1102 -0.2462  1.2589
40457SOL    HW224777   1.222   0.777   2.189  1.6341  0.5928 -0.5625
40458SOL     OW24778   9.680   7.070   4.872 -0.0066 -0.2862 -0.0074
40458SOL    HW124779   9.760   7.020   4.859 -1.1027 -2.1053  0.0653
40458SOL    HW224780   9.615   7.005   4.900 -1.2212  1.3320  1.0511
40459SOL     OW24781   0.521   9.455   2.877  0.0387  0.0560 -0.4798
40459SOL    HW124782   0.515   9.385   2.942 -1.9904 -0.8411 -1.6086
40459SOL    HW224783   0.525   9.410   2.793  2.0957  1.2347 -1.0599
40460SOL     OW24784   6.146   4.538   9.842  0.3401  0.1895 -0.2791
40460SOL    HW124785   6.173   4.567   9.755 -0.7549  0.1919 -0.6170
40460SOL    HW224786   6.096   4.612   9.878 -1.5617 -0.8471 -0.7320
40461SOL     OW24787   9.656   1.058   5.599  0.0795  0.2032 -0.2045
40461SOL    HW124788   9.649   0.966   5.574  0.4854  0.7213 -2.3798
40461SOL    HW224789   9.695   1.057   5.686  1.4243 -1.6397 -0.7941
40462SOL     OW24790   8.708  10.490   2.115  0.1166 -0.2909  0.0515
40462SOL    HW124791   8.677  10.446   2.037 -0.4679  2.8872 -1.5941
40462SOL    HW224792   8.631  10.497   2.171 -0.4581  1.0825 -0.8869
40463SOL     OW24793   9.395   4.397   9.964  0.1462 -0.5134  0.1614
40463SOL    HW124794   9.469   4.340   9.987  0.6026  0.4896  1.1774
40463SOL    HW224795   9.347   4.347   9.897  1.0166 -1.7271  0.4236
40464SOL     OW24796   3.177   7.625  10.019  0.0264 -0.5509  0.0727
40464SOL    HW124797   3.101   7.682  10.009  0.5758  0.1674  0.0170
40464SOL    HW224798   3.148   7.541   9.981 -0.4906 -0.0673 -0.6197
40465SOL     OW24799   2.098   8.544   7.241 -0.7986 -0.5150  0.3263
40465SOL    HW124800   2.178   8.493   7.231 -0.8653 -0.6582  0.5159
40465SOL    HW224801   2.091   8.595   7.160 -0.2379 -0.1037  0.5338
40466SOL     OW24802   3.056   5.586  10.614 -0.3146 -0.1220  0.2057
40466SOL    HW124803   3.146   5.611  10.591 -0.1043 -1.1760 -0.1640
40466SOL    HW224804   3.059   5.490  10.621 -1.7575 -0.3130 -1.4182
40467SOL     OW24805   9.463   2.185   9.150  0.0156 -0.4543  0.2644
40467SOL    HW124806   9.376   2.187   9.109  0.5994  1.0734 -0.9473
40467SOL    HW224807   9.447   2.208   9.241 -1.0736 -2.0539  0.5040
40468SOL     OW24808   3.315   6.488   4.911 -0.0373  0.0100  0.4318
40468SOL    HW124809   3.292   6.517   4.999  0.6883 -1.8513  1.2763
40468SOL    HW224810   3.406   6.516   4.900 -0.0635  0.0636  0.3497
40469SOL     OW24811   7.067   1.553   9.608  0.4134  0.1612 -0.5666
40469SOL    HW124812   7.137   1.611   9.636 -0.4775  0.9929 -0.0513
40469SOL    HW224813   7.092   1.467   9.643  0.4922  0.7243  0.7547
40470SOL     OW24814   1.213   6.516   0.992 -0.3857  0.2206 -0.5685
40470SOL    HW124815   1.257   6.494   1.074 -0.0535  0.0723 -0.7828
40470SOL    HW224816   1.192   6.609   0.999 -2.1907 -0.2516  0.5260
40471SOL     OW24817   9.483   0.956   2.088 -0.2603  0.4744  0.4493
40471SOL    HW124818   9.469   0.931   2.180  0.0606 -0.3632  0.2794
40471SOL    HW224819   9.570   0.923   2.067 -0.2203  0.9006 -0.0836
40472SOL     OW24820   2.096   1.195   1.813 -0.1658 -0.0512 -0.0881
40472SOL    HW124821   2.071   1.108   1.845  0.4062 -0.5382 -0.9476
40472SOL    HW224822   2.017   1.248   1.824 -1.1166 -1.1797 -1.3213
40473SOL     OW24823   1.333   4.522  10.857 -0.7258 -0.5830 -0.0751
40473SOL    HW124824   1.428   4.533  10.865 -0.7712  0.8236 -1.1561
40473SOL    HW224825   1.298   4.559  10.938 -0.5580  3.0259 -1.5187
40474SOL     OW24826   7.640   2.284   6.969  0.4766  0.3143  0.0677
40474SOL    HW124827   7.593   2.201   6.973 -0.3309  0.7242 -0.6784
40474SOL    HW224828   7.571   2.351   6.972  0.8561  0.8994 -2.7497
40475SOL     OW24829   3.275   4.506   6.173 -0.4886  0.0244 -0.0743
40475SOL    HW124830   3.254   4.589   6.131  1.5113  0.0015 -1.1676
40475SOL    HW224831   3.335   4.462   6.113 -3.1463 -3.2082 -0.5515
40476SOL     OW24832   3.546   1.204   2.434 -0.1547  0.3953  0.8337
40476SOL    HW124833   3.556   1.230   2.342 -1.1548 -0.4037  0.4914
40476SOL    HW224834   3.629   1.163   2.456 -0.9404 -2.0941 -0.6256
40477SOL     OW24835   7.009  10.512   5.201 -0.1083 -0.4992 -0.1257
40477SOL    HW124836   7.032  10.436   5.255  0.4229  0.1297  0.5360
40477SOL    HW224837   7.006  10.585   5.262 -2.3316 -0.2653 -0.4659
40478SOL     OW24838   2.039   1.955   7.323  0.5045 -0.7759 -0.3721
40478SOL    HW124839   2.032   2.044   7.289  0.7555 -0.9950 -1.0158
40478SOL    HW224840   2.128   1.927   7.300  1.0818 -0.5328  1.4762
40479SOL     OW24841   0.994   2.259   2.184  0.0641 -0.1926  0.4052
40479SOL    HW124842   1.022   2.172   2.211 -1.7019 -0.7256  0.5943
40479SOL    HW224843   1.036   2.319   2.246  0.2082 -1.0131  1.1048
40480SOL     OW24844   5.503   9.434  10.094  0.3899  0.0278  0.1350
40480SOL    HW124845   5.444   9.386  10.036  1.4351  0.8036 -1.6534
40480SOL    HW224846   5.505   9.523  10.056  1.2379  0.4985  1.2675
40481SOL     OW24847  10.905   4.564   5.936 -0.9245 -0.2299 -0.1367
40481SOL    HW124848  10.882   4.606   5.853  0.9374 -0.7029 -0.9188
40481SOL    HW224849  10.944   4.634   5.989 -0.6249 -0.2845 -0.2835
40482SOL     OW24850   8.223   0.085   1.933  0.2983  0.8660 -0.1296
40482SOL    HW124851   8.266   0.132   1.862 -0.3100 -0.5907 -1.4867
40482SOL    HW224852   8.292   0.074   1.999  0.8668  2.2167 -0.4617
40483SOL     OW24853   2.480   8.414   0.998  0.2982 -0.5411  0.0555
40483SOL    HW124854   2.500   8.504   0.973 -1.5800 -0.3072 -0.6872
40483SOL    HW224855   2.513   8.405   1.088 -0.1958  1.1225  0.4070
40484SOL     OW24856   5.995   9.959   6.611  0.0805  0.0758 -0.1263
40484SOL    HW124857   6.038  10.038   6.644  0.9377 -1.2550  2.0312
40484SOL    HW224858   5.913   9.991   6.573 -0.4504  1.8384  2.3697
40485SOL     OW24859   1.351   5.094  10.425  0.7376 -0.3942 -0.3141
40485SOL    HW124860   1.416   5.140  10.479  0.2127  0.9752 -0.8315
40485SOL    HW224861   1.327   5.157  10.357 -1.1776 -0.8705 -0.1104
40486SOL     OW24862  10.408   2.776   0.435 -0.1222 -0.9865  0.0963
40486SOL    HW124863  10.318   2.807   0.435 -0.1416 -1.0303  0.5438
40486SOL    HW224864  10.402   2.683   0.458  0.1265 -0.6651  1.5650
40487SOL     OW24865   1.836   0.301   3.830  0.1948  0.4238  0.0038
40487SOL    HW124866   1.840   0.308   3.925 -1.1742 -0.0716  0.1032
40487SOL    HW224867   1.746   0.325   3.807  0.2018 -0.4943 -1.0660
40488SOL     OW24868   7.088   5.695   9.472  0.3571 -0.4295  0.6709
40488SOL    HW124869   7.019   5.761   9.465  0.9695  0.1159 -0.3275
40488SOL    HW224870   7.152   5.720   9.406  0.8414 -1.7439  0.6211
40489SOL     OW24871   0.492   6.095   6.604 -0.6388 -0.2636 -0.3367
40489SOL    HW124872   0.399   6.114   6.590 -0.3138  0.7798 -1.1341
40489SOL    HW224873   0.532   6.103   6.517 -0.2145 -3.1679 -0.4599
40490SOL     OW24874   8.468  10.808   9.984  0.0898  1.1210 -0.0868
40490SOL    HW124875   8.493  10.899   9.967  0.1565  1.1018 -0.0968
40490SOL    HW224876   8.519  10.783  10.061 -0.1729  1.1961  0.1111
40491SOL     OW24877   5.035   3.141   1.662  0.3618  0.4653 -0.0111
40491SOL    HW124878   5.029   3.064   1.605 -1.7557  3.2098 -3.7007
40491SOL    HW224879   5.123   3.175   1.646 -0.0642  0.9644 -1.3982
40492SOL     OW24880   8.010   9.488   6.917 -0.2769 -0.6974 -0.0500
40492SOL    HW124881   7.916   9.474   6.914 -0.0765 -1.6662 -2.8234
40492SOL    HW224882   8.023   9.577   6.883 -0.1753 -0.6356  0.1467
40493SOL     OW24883   1.040   3.916   9.156  0.2557  0.1909  0.1130
40493SOL    HW124884   1.027   3.826   9.125 -1.0178  0.2532  0.4088
40493SOL    HW224885   1.115   3.910   9.215  0.8358 -0.4767 -0.6710
40494SOL     OW24886  10.804   4.134   3.053 -0.4757  0.0687  0.6204
40494SOL    HW124887  10.793   4.118   3.147 -0.0850  1.7169  0.9518
40494SOL    HW224888  10.885   4.087   3.030 -0.2471  0.1725  1.2212
40495SOL     OW24889   5.843   4.480   6.490  0.7987  0.3557  0.4593
40495SOL    HW124890   5.797   4.480   6.406  0.7135  1.2490  0.5025
40495SOL    HW224891   5.934   4.458   6.466  0.2616 -1.9158  0.4413
40496SOL     OW24892   0.834   2.631   5.684 -0.1456 -0.1156 -0.2400
40496SOL    HW124893   0.754   2.615   5.734 -1.5301 -0.6004 -2.5269
40496SOL    HW224894   0.896   2.566   5.718 -1.4599 -1.3067 -0.0413
40497SOL     OW24895   2.159   8.783   3.497 -0.5977  0.0439 -0.5517
40497SOL    HW124896   2.138   8.707   3.444 -0.0209 -0.6911  0.2678
40497SOL    HW224897   2.084   8.841   3.487 -1.1545 -0.7453 -0.9643
40498SOL     OW24898  10.963   4.392   1.029  0.4383 -0.1978  0.1037
40498SOL    HW124899  10.957   4.297   1.028  1.3930 -0.2741  0.4741
40498SOL    HW224900  10.978   4.416   0.937 -0.4400 -0.3546 -0.0821
40499SOL     OW24901   7.337   1.796   3.709 -0.7934  0.0830 -0.5145
40499SOL    HW124902   7.325   1.744   3.630  0.0707 -0.7767 -0.0893
40499SOL    HW224903   7.366   1.882   3.677 -2.2764  0.3440 -1.2131
40500SOL     OW24904   3.798   7.039   1.705  0.7433  0.1049  0.3416
40500SOL    HW124905   3.736   6.972   1.679 -0.2559  0.6503  1.2694
40500SOL    HW224906   3.828   7.012   1.792  2.8392 -0.8631 -0.6402
40501SOL     OW24907   2.859   8.602   2.199  0.3482  0.4249 -0.0484
40501SOL    HW124908   2.766   8.588   2.214  0.3370 -0.2812 -0.7447
40501SOL    HW224909   2.869   8.698   2.197 -0.7151  0.5301 -2.0760
40502SOL     OW24910   0.744   7.635   5.148 -0.0429 -0.1131 -0.1535
40502SOL    HW124911   0.699   7.719   5.144 -1.5633 -0.9446 -1.0241
40502SOL    HW224912   0.827   7.650   5.103 -1.1372  0.4490 -2.0422
40503SOL     OW24913   0.023   6.069   4.983  0.1998 -0.0224  0.4882
40503SOL    HW124914  -0.015   6.155   4.963  1.0668  0.6045  1.4142
40503SOL    HW224915  -0.043   6.006   4.955  0.0284  0.9063 -1.2569
40504SOL     OW24916   8.547   5.435   3.787 -0.6133  0.5019  0.1068
40504SOL    HW124917   8.527   5.502   3.722  0.5650 -1.1201 -1.9795
40504SOL    HW224918   8.527   5.353   3.744  2.3452 -0.7352  0.9541
40505SOL     OW24919  10.424   0.546   2.542 -0.0345  0.1461  0.3627
40505SOL    HW124920  10.339   0.503   2.549  0.1737 -0.0709  1.6384
40505SOL    HW224921  10.436   0.589   2.627  2.2189 -1.8423  1.0970
40506SOL     OW24922   5.642   8.157   6.500  0.2062 -0.3101 -0.0782
40506SOL    HW124923   5.615   8.185   6.587 -1.6282 -1.3634 -0.2797
40506SOL    HW224924   5.676   8.069   6.513  0.6219 -0.1887 -0.3252
40507SOL     OW24925   8.070   4.105   4.453 -0.3872  0.2608 -0.4551
40507SOL    HW124926   8.135   4.104   4.524  0.0546 -0.5076 -0.8562
40507SOL    HW224927   7.993   4.146   4.491 -0.9715 -2.2608  1.2049
40508SOL     OW24928   8.109   1.043   3.955 -0.6258  0.4024 -0.1231
40508SOL    HW124929   8.091   0.988   3.878 -0.6771  0.1725  0.0507
40508SOL    HW224930   8.074   0.993   4.028  1.8979 -0.7084  0.3930
40509SOL     OW24931   5.683   2.195   9.498  0.3412  0.5915  0.3589
40509SOL    HW124932   5.776   2.172   9.503  0.1642 -0.1865  0.1438
40509SOL    HW224933   5.657   2.207   9.589  0.8067  1.4647  0.3855
40510SOL     OW24934   0.583   4.507   4.690 -0.0461 -0.6326  0.4816
40510SOL    HW124935   0.646   4.502   4.618 -1.0979  2.0508 -0.7183
40510SOL    HW224936   0.515   4.445   4.667  1.3139 -2.3251  0.9436
40511SOL     OW24937   4.173   0.909   0.254  0.1788  0.1425  0.2041
40511SOL    HW124938   4.157   0.997   0.286 -0.8480 -0.2761  0.8483
40511SOL    HW224939   4.238   0.872   0.314 -2.1978 -0.8582  2.2230
40512SOL     OW24940   7.780   8.734   0.343  0.1069 -0.1651 -0.7408
40512SOL    HW124941   7.838   8.671   0.386 -0.2748 -1.0056 -1.4180
40512SOL    HW224942   7.767   8.698   0.255 -0.0329  0.9275 -1.1758
40513SOL     OW24943   5.803   1.492   1.844 -0.0590 -0.0565 -0.2287
40513SOL    HW124944   5.863   1.452   1.907  0.0995  1.7069  0.7833
40513SOL    HW224945   5.826   1.585   1.844 -2.3541  0.5595 -0.2602
40514SOL     OW24946   5.345   3.055   4.267  0.1401  0.3423  0.3075
40514SOL    HW124947   5.270   3.009   4.231  1.1279 -0.3117 -0.9435
40514SOL    HW224948   5.331   3.147   4.242 -2.6504  1.1218  4.1720
40515SOL     OW24949   1.051   1.657   2.542  0.1080  0.3478  0.6304
40515SOL    HW124950   0.997   1.622   2.472  0.8245  0.5295 -0.0143
40515SOL    HW224951   1.028   1.750   2.547 -0.1023  0.2881  0.7869
40516SOL     OW24952  10.641   0.427   5.749 -0.1069 -0.0886 -0.6315
40516SOL    HW124953  10.586   0.455   5.676  0.2103 -0.3351 -0.9661
40516SOL    HW224954  10.730   0.447   5.720  0.0056 -0.0512 -0.2532
40517SOL     OW24955   9.909   3.332   6.236  0.1827 -0.0326  0.1291
40517SOL    HW124956   9.949   3.320   6.150 -0.2134 -0.5406  0.0114
40517SOL    HW224957   9.816   3.346   6.217  0.6342  3.4401  0.2529
40518SOL     OW24958   8.368   3.802   0.339 -0.1930  0.1922  0.0464
40518SOL    HW124959   8.396   3.710   0.348 -2.6151 -0.6428 -0.7007
40518SOL    HW224960   8.424   3.836   0.269  0.6217 -0.7549  0.2114
40519SOL     OW24961   3.721   3.878   2.805 -0.5788  0.0138 -0.5824
40519SOL    HW124962   3.745   3.838   2.722 -1.8640 -1.5464 -0.2095
40519SOL    HW224963   3.715   3.972   2.785  4.9679  0.4740 -0.8664
40520SOL     OW24964   6.704   6.074  10.573 -0.1987  0.3196  0.0005
40520SOL    HW124965   6.638   6.021  10.619  0.1531  0.1168  0.2760
40520SOL    HW224966   6.697   6.047  10.482  0.6507 -0.9104  0.2924
40521SOL     OW24967   8.950   4.755   1.869 -0.0786 -0.2610  0.5190
40521SOL    HW124968   8.857   4.742   1.887  0.0023  0.2726  1.3613
40521SOL    HW224969   8.953   4.838   1.821 -0.2439 -1.4214 -1.5715
40522SOL     OW24970   5.637   9.281   1.227  0.2146 -0.5073  0.0174
40522SOL    HW124971   5.666   9.325   1.307 -0.7609 -0.7128  0.4993
40522SOL    HW224972   5.544   9.303   1.220  0.2072 -0.7884 -0.8635
40523SOL     OW24973   2.843   1.612   2.586  0.0492 -0.0489  0.6148
40523SOL    HW124974   2.816   1.523   2.563 -0.1277 -0.1880  1.3661
40523SOL    HW224975   2.906   1.601   2.657  0.8286  0.3692 -0.0037
40524SOL     OW24976  10.884   8.595   7.772  0.0054 -0.3512  0.1069
40524SOL    HW124977  10.963   8.629   7.814  0.3561  1.3410 -1.8487
40524SOL    HW224978  10.860   8.518   7.825  2.5037 -0.4495  1.1732
40525SOL     OW24979   2.335  10.002   2.108  0.1038  0.2964 -0.3300
40525SOL    HW124980   2.308  10.057   2.034 -2.5220 -0.0377  0.3364
40525SOL    HW224981   2.329   9.913   2.075  1.2363  0.2312 -0.4050
40526SOL     OW24982   8.878   5.658   6.044 -0.1865 -0.5105  0.9359
40526SOL    HW124983   8.962   5.704   6.052  0.0003 -0.8387  0.8479
40526SOL    HW224984   8.897   5.568   6.072 -0.1978 -0.9354 -0.3939
40527SOL     OW24985   2.012   3.686   9.110  0.0736 -0.5094 -0.1582
40527SOL    HW124986   2.043   3.595   9.112 -1.2752 -0.9665  0.4747
40527SOL    HW224987   2.032   3.716   9.021  1.7729 -0.9712  0.0421
40528SOL     OW24988   4.857   7.458   1.449  0.1710  0.6556 -0.1736
40528SOL    HW124989   4.912   7.519   1.399 -0.1763  1.7163  0.7308
40528SOL    HW224990   4.778   7.447   1.396  0.7254  0.0645 -0.8949
40529SOL     OW24991   9.432   6.151   6.709 -0.5119 -0.3418  0.6074
40529SOL    HW124992   9.483   6.195   6.777 -0.8021  0.4347  0.3239
40529SOL    HW224993   9.342   6.177   6.726 -0.6172 -0.3603  0.0842
40530SOL     OW24994   5.856   2.180   5.270 -0.2056  0.0852 -0.3111
40530SOL    HW124995   5.820   2.260   5.309  0.1519 -0.3661  0.9539
40530SOL    HW224996   5.929   2.210   5.216  0.2090  0.5729  0.5110
40531SOL     OW24997  10.058   9.498   1.588  0.1278  0.7251 -0.2132
40531SOL    HW124998  10.119   9.561   1.550  0.0460  0.9844  0.0734
40531SOL    HW224999   9.972   9.538   1.575  0.2207  1.5716  1.6358
40532SOL     OW25000  10.879   0.325   8.386 -0.3534  0.8078 -0.2080
40532SOL    HW125001  10.817   0.275   8.439 -0.2021  0.4598 -0.3569
40532SOL    HW225002  10.836   0.410   8.373  0.9406  2.0373  3.0426
40533SOL     OW25003   8.648   1.959  10.406 -0.3265 -0.0398 -0.2111
40533SOL    HW125004   8.636   2.053  10.420 -0.9805 -0.1646  0.0575
40533SOL    HW225005   8.699   1.954  10.325  2.3195  0.6329  1.3697
40534SOL     OW25006   9.010   6.214   5.394  0.2382 -0.0408 -0.0625
40534SOL    HW125007   9.038   6.266   5.469  0.4263 -0.9103  0.4822
40534SOL    HW225008   8.959   6.142   5.432 -1.5886  0.7463 -0.9331
40535SOL     OW25009   0.525  10.313   8.475  0.0419  0.8739 -0.4729
40535SOL    HW125010   0.485  10.324   8.561 -0.3208  1.4901 -0.7168
40535SOL    HW225011   0.614  10.281   8.494 -0.8930 -1.4992  0.0316
40536SOL     OW25012   9.746  10.020   5.635 -0.6305  0.0574 -0.1905
40536SOL    HW125013   9.741  10.115   5.621 -1.3049 -0.1379 -1.3394
40536SOL    HW225014   9.698  10.005   5.716 -0.1874  0.7475  0.2008
40537SOL     OW25015   4.951   4.345  10.686  0.1695  0.3791  0.3969
40537SOL    HW125016   4.928   4.263  10.644 -0.3000  0.4937  0.4278
40537SOL    HW225017   4.867   4.384  10.710  0.2519  2.2064 -2.1382
40538SOL     OW25018   2.063   3.141   4.993  0.3852 -0.5900  0.0789
40538SOL    HW125019   2.156   3.137   4.974  0.3560  3.3997 -1.3532
40538SOL    HW225020   2.058   3.185   5.078 -0.1818 -0.2819 -0.1089
40539SOL     OW25021   1.779   5.757   4.821 -0.2190 -0.0807 -0.6157
40539SOL    HW125022   1.760   5.715   4.737 -0.4411  0.4021 -0.8077
40539SOL    HW225023   1.696   5.759   4.867  0.2358 -1.9415  0.3558
40540SOL     OW25024   9.590   9.712   8.483 -0.0288 -0.4015 -0.1882
40540SOL    HW125025   9.645   9.671   8.415  1.8638  0.5869  0.6955
40540SOL    HW225026   9.580   9.644   8.550 -1.1399 -1.0781 -1.0237
40541SOL     OW25027   0.553   7.558   9.525  0.4911  0.1023  0.2963
40541SOL    HW125028   0.614   7.592   9.591  0.3024 -0.1297  0.5876
40541SOL    HW225029   0.522   7.637   9.480  1.6835  0.1618 -0.4482
40542SOL     OW25030   5.378   5.711   4.391  0.3724  0.2356 -0.4838
40542SOL    HW125031   5.407   5.725   4.301  2.7654  0.3699  0.2614
40542SOL    HW225032   5.374   5.616   4.400  1.2044  0.1946 -0.4411
40543SOL     OW25033   1.437   2.572   3.854 -0.2970 -0.5687  0.0615
40543SOL    HW125034   1.434   2.532   3.767 -0.5523 -0.2274 -0.0890
40543SOL    HW225035   1.504   2.640   3.845 -1.3186  0.4044 -0.2728
40544SOL     OW25036   0.555   1.649   8.196 -0.7422  0.6980 -0.6083
40544SOL    HW125037   0.607   1.587   8.249 -0.5378  1.3700 -0.0150
40544SOL    HW225038   0.621   1.702   8.151 -0.9143 -0.0530 -1.7702
40545SOL     OW25039   8.351   3.262  10.840  0.1682  0.0529  0.1466
40545SOL    HW125040   8.334   3.238  10.931 -0.5541  0.7341  0.1967
40545SOL    HW225041   8.283   3.217  10.790 -0.5925  1.1702  0.1447
40546SOL     OW25042   6.489   1.746   6.815 -0.1263  0.0765 -0.2649
40546SOL    HW125043   6.491   1.657   6.851 -1.4200  0.7411  1.5389
40546SOL    HW225044   6.461   1.734   6.724 -0.2252 -1.3716 -0.0596
40547SOL     OW25045   5.558   6.320   7.878  0.2725  0.1031  0.4215
40547SOL    HW125046   5.568   6.276   7.794  1.1213 -0.2877  0.7214
40547SOL    HW225047   5.487   6.273   7.921  0.4619 -0.2899  0.3045
40548SOL     OW25048   7.325   6.401   3.883 -0.4961 -0.0835 -0.1205
40548SOL    HW125049   7.278   6.407   3.966 -0.5628 -1.4829 -0.0460
40548SOL    HW225050   7.258   6.375   3.819 -0.2940  0.2259 -0.4562
40549SOL     OW25051   6.426   2.597   7.022 -0.1881  0.0173 -0.2452
40549SOL    HW125052   6.475   2.678   7.031 -3.3712  1.8876  1.1179
40549SOL    HW225053   6.434   2.573   6.930  0.5099  2.0431 -0.7233
40550SOL     OW25054   5.665   3.322   9.307 -1.1272  0.3891  0.3207
40550SOL    HW125055   5.673   3.382   9.381 -1.4199  1.7937 -0.7856
40550SOL    HW225056   5.611   3.368   9.243 -0.7889 -0.7665 -0.8317
40551SOL     OW25057   0.050   7.779   0.807  0.1821  0.3633 -0.1736
40551SOL    HW125058  -0.028   7.804   0.758  0.2709  1.3382  0.1727
40551SOL    HW225059   0.109   7.853   0.798  0.6472  0.0737  0.4501
40552SOL     OW25060   3.035   6.603  10.770  0.2005  0.5437  0.0693
40552SOL    HW125061   2.981   6.678  10.745 -0.0237 -0.1238 -1.5039
40552SOL    HW225062   3.090   6.635  10.841  0.3776  2.3186 -0.8506
40553SOL     OW25063   4.456   6.150   4.964 -0.0433  0.7324  0.1822
40553SOL    HW125064   4.501   6.199   5.033 -0.4804  0.0849  0.9345
40553SOL    HW225065   4.460   6.059   4.993  0.2679  0.3892 -0.9312
40554SOL     OW25066   5.023   2.693   3.871  0.1901  0.5697 -0.6517
40554SOL    HW125067   4.956   2.633   3.840  0.6801  0.0199 -0.6587
40554SOL    HW225068   5.106   2.648   3.854  0.4819  0.4186  1.1088
40555SOL     OW25069   6.263   1.120   6.823  0.2904 -0.0534 -0.6860
40555SOL    HW125070   6.291   1.106   6.732 -0.2637 -1.5398 -0.6565
40555SOL    HW225071   6.330   1.075   6.875  0.8795  1.2340 -0.3310
40556SOL     OW25072   0.870   7.132   3.380 -0.4513 -0.2892  0.1580
40556SOL    HW125073   0.783   7.139   3.340 -1.4237 -1.2051  2.0034
40556SOL    HW225074   0.916   7.212   3.354 -2.0229  0.4268 -0.4703
40557SOL     OW25075   2.103   1.508   0.354  0.5145  0.1153  0.2080
40557SOL    HW125076   2.046   1.438   0.321 -1.0786  1.4868 -0.0386
40557SOL    HW225077   2.169   1.463   0.407 -1.9709 -1.3710  2.1378
40558SOL     OW25078   7.319   9.456  10.416 -0.0876  0.1234 -0.0587
40558SOL    HW125079   7.306   9.371  10.458  0.3254 -0.5472 -1.2860
40558SOL    HW225080   7.351   9.512  10.487 -0.7034 -0.6454  0.8384
40559SOL     OW25081   4.660   7.149   9.475  0.1351  0.3054 -0.8227
40559SOL    HW125082   4.653   7.060   9.509  2.0559  0.2717 -0.4451
40559SOL    HW225083   4.638   7.141   9.382  0.6138 -0.6387 -0.8695
40560SOL     OW25084   6.811   5.425   5.672 -0.2653  0.1415  0.4081
40560SOL    HW125085   6.841   5.495   5.730  0.5116  0.4441 -0.3526
40560SOL    HW225086   6.764   5.470   5.602  0.0866 -0.1095  0.0094
40561SOL     OW25087   3.979   3.914   5.816 -0.0469 -0.4857  0.2685
40561SOL    HW125088   4.013   4.003   5.814 -0.2644 -0.4283 -2.4487
40561SOL    HW225089   4.055   3.860   5.839  0.0518  0.3993  2.0667
40562SOL     OW25090   3.026   5.025   3.499 -0.2061  0.2690  0.5791
40562SOL    HW125091   3.052   5.010   3.408 -1.7198 -1.0652  0.3547
40562SOL    HW225092   2.996   5.116   3.501  0.4067  0.4881 -0.1151
40563SOL     OW25093   7.108   0.225   0.249  0.5349 -0.1920 -0.7338
40563SOL    HW125094   7.118   0.267   0.164  0.8892 -1.0606 -1.1264
40563SOL    HW225095   7.028   0.262   0.285  0.8317  0.8037 -1.0778
40564SOL     OW25096   1.426   0.712   4.031  0.0341  0.2942  0.0419
40564SOL    HW125097   1.379   0.789   4.001  0.8656  0.6052 -0.4702
40564SOL    HW225098   1.360   0.659   4.076 -1.5593 -0.7779 -3.3889
40565SOL     OW25099   4.606   8.119   8.187 -0.2403 -0.5197 -0.6172
40565SOL    HW125100   4.680   8.072   8.148  0.6921 -0.8678  1.4548
40565SOL    HW225101   4.546   8.050   8.214  0.0954 -0.4095  0.4291
40566SOL     OW25102   3.146   4.686   3.384  0.1338  0.2582 -0.2220
40566SOL    HW125103   3.112   4.747   3.318 -0.5405  1.8718  1.5656
40566SOL    HW225104   3.213   4.636   3.337 -1.1660  0.5183 -2.4441
40567SOL     OW25105   6.532   8.776   2.833 -0.3366  0.1420 -0.3153
40567SOL    HW125106   6.555   8.804   2.922  1.7351 -0.5646 -0.6011
40567SOL    HW225107   6.545   8.854   2.779  0.3351  0.0395 -0.3031
40568SOL     OW25108   9.910   4.740   7.595 -0.4284  0.1760  0.0476
40568SOL    HW125109   9.875   4.675   7.534  1.5289  0.2890 -1.2518
40568SOL    HW225110   9.952   4.805   7.538 -1.0224  1.7679  1.4028
40569SOL     OW25111   8.132   1.119   5.195 -0.1582  0.3560  0.4529
40569SOL    HW125112   8.061   1.102   5.133  1.5631 -0.0664 -1.4591
40569SOL    HW225113   8.120   1.210   5.221 -3.2467 -0.6043  2.6355
40570SOL     OW25114   0.777   4.452   1.122  0.0569  0.3281 -0.2239
40570SOL    HW125115   0.707   4.422   1.064  0.8795 -1.1190 -0.5012
40570SOL    HW225116   0.760   4.408   1.205  0.0521  0.7930  0.0235
40571SOL     OW25117  10.417   1.618   3.139 -0.3429  0.3475 -0.2650
40571SOL    HW125118  10.449   1.530   3.159 -2.8913 -0.8050 -1.0261
40571SOL    HW225119  10.469   1.676   3.195  1.0201 -1.6822  0.6278
40572SOL     OW25120   5.412   8.538   2.144  0.1627  0.1908  0.2590
40572SOL    HW125121   5.435   8.630   2.156  1.8318 -0.4392  2.0375
40572SOL    HW225122   5.488   8.490   2.176  0.1921 -1.7938 -2.6195
40573SOL     OW25123   9.637   5.892   5.396 -0.5890  0.1676  0.1072
40573SOL    HW125124   9.629   5.913   5.489  2.4932 -0.3015  0.5447
40573SOL    HW225125   9.560   5.840   5.376 -1.0502 -0.1390  2.5333
40574SOL     OW25126  10.702   7.350   2.068  0.0756 -0.4113 -0.0296
40574SOL    HW125127  10.735   7.353   1.978  0.4094 -1.1223  0.0606
40574SOL    HW225128  10.656   7.266   2.074  1.2562 -1.0174  0.8540
40575SOL     OW25129   5.030  10.281   0.681 -0.0857 -0.6694 -0.0694
40575SOL    HW125130   5.045  10.230   0.602  2.1772  0.1861 -0.2332
40575SOL    HW225131   4.957  10.237   0.725 -0.4568 -1.9619 -1.9201
40576SOL     OW25132   6.360  10.152   1.639  0.1055  0.6850 -0.5680
40576SOL    HW125133   6.411  10.084   1.685 -0.7515  0.0699 -0.5265
40576SOL    HW225134   6.367  10.229   1.696 -0.5831  0.0535  0.3821
40577SOL     OW25135   2.883   7.330   3.454 -0.0245 -0.1397  0.4184
40577SOL    HW125136   2.929   7.252   3.485  1.8024  0.4443 -0.7776
40577SOL    HW225137   2.834   7.361   3.530  0.6356 -1.4556  1.3844
40578SOL     OW25138   2.642   1.731   9.060  0.1179 -0.2620 -0.0686
40578SOL    HW125139   2.556   1.726   9.018  0.2775  1.6395 -0.6421
40578SOL    HW225140   2.690   1.656   9.026  0.4739  1.5855 -3.7887
40579SOL     OW25141   8.326   8.684   6.451 -0.4573  0.3114  0.2725
40579SOL    HW125142   8.366   8.739   6.519 -1.2913 -0.1384  1.1334
40579SOL    HW225143   8.232   8.692   6.465 -0.6105 -0.7011 -0.0910
40580SOL     OW25144   2.441   2.889   7.316  0.1134  0.6073 -0.2951
40580SOL    HW125145   2.440   2.828   7.390 -1.1433  0.8371 -0.1057
40580SOL    HW225146   2.388   2.963   7.345  0.1348  0.9819 -1.1904
40581SOL     OW25147   2.605   0.122   7.949  0.1305  0.9439 -0.3362
40581SOL    HW125148   2.622   0.210   7.984 -1.8499  0.8874  0.8751
40581SOL    HW225149   2.580   0.070   8.026  1.0234 -0.6127 -1.0856
40582SOL     OW25150   5.581   6.881   4.124  0.0292 -0.3589 -0.1914
40582SOL    HW125151   5.548   6.807   4.073  2.7401  0.5904 -3.5637
40582SOL    HW225152   5.676   6.869   4.126  0.2768  1.5615  1.5865
40583SOL     OW25153   0.561   0.673   2.527 -0.8841 -0.0257  0.0395
40583SOL    HW125154   0.590   0.757   2.562 -0.5391  0.4155 -1.2652
40583SOL    HW225155   0.518   0.630   2.600  1.0330  0.2888  1.3778
40584SOL     OW25156   4.762   6.538   9.292  0.6718 -0.0129 -0.2795
40584SOL    HW125157   4.700   6.531   9.363  0.8493  1.5098  0.0544
40584SOL    HW225158   4.733   6.473   9.227 -0.5707 -0.1119  0.3664
40585SOL     OW25159   1.565   9.197   7.350  0.4552 -0.6270  0.4422
40585SOL    HW125160   1.511   9.119   7.353 -0.6625  0.1448  0.8560
40585SOL    HW225161   1.607   9.202   7.436  0.4561 -0.7172  0.4466
40586SOL     OW25162   5.477   9.528   9.273  0.2764  0.4544  0.6894
40586SOL    HW125163   5.567   9.497   9.281  0.2967  0.1783 -0.5142
40586SOL    HW225164   5.429   9.452   9.242 -0.0688  1.0487 -0.2480
40587SOL     OW25165   9.031   9.380   5.573  0.3120  0.2803 -0.3948
40587SOL    HW125166   9.003   9.472   5.568  0.3259  0.3298  0.4309
40587SOL    HW225167   9.113   9.383   5.622 -0.8903 -0.4301  1.6922
40588SOL     OW25168  10.954   5.299  10.600  0.1674  0.0016 -0.2981
40588SOL    HW125169  11.038   5.310  10.644 -0.0364  2.7459 -0.5086
40588SOL    HW225170  10.891   5.291  10.672  0.7829 -4.1907 -0.1206
40589SOL     OW25171   8.006   9.385   1.819 -0.2743  0.1690  0.0352
40589SOL    HW125172   7.976   9.375   1.729 -0.1301 -0.4835  0.0605
40589SOL    HW225173   8.061   9.463   1.817 -1.6221  1.1412 -0.0953
40590SOL     OW25174   8.516   3.700   6.237 -0.1783 -0.0358  0.7021
40590SOL    HW125175   8.549   3.630   6.181 -1.2822 -0.4083  0.4962
40590SOL    HW225176   8.421   3.686   6.239 -0.3333  1.0437  1.2167
40591SOL     OW25177   5.144   0.767  10.916 -0.1845 -0.4524 -0.0264
40591SOL    HW125178   5.049   0.774  10.906 -0.2797 -0.2920  0.8933
40591SOL    HW225179   5.180   0.798  10.833 -0.9494 -1.0052 -0.5671
40592SOL     OW25180   4.380   4.516  10.487 -0.4821 -0.0280 -0.7416
40592SOL    HW125181   4.357   4.467  10.408 -0.8657 -1.4139  0.2179
40592SOL    HW225182   4.469   4.488  10.508 -0.8213 -0.5899 -0.0081
40593SOL     OW25183   2.088   0.237   9.789 -0.1187  0.2037 -0.6784
40593SOL    HW125184   2.058   0.271   9.873 -1.4066 -0.3267 -0.9053
40593SOL    HW225185   2.102   0.314   9.735  0.1498  0.5159 -0.1751
40594SOL     OW25186   5.706   6.825   1.923  0.4596 -0.1949  0.3079
40594SOL    HW125187   5.659   6.862   1.998 -0.7039 -0.5001 -0.2639
40594SOL    HW225188   5.775   6.888   1.905 -0.6437  1.0125  0.2263
40595SOL     OW25189   0.386  10.427   2.058  0.3535  0.2970  0.5899
40595SOL    HW125190   0.326  10.490   2.099  0.0015  0.4395 -0.1440
40595SOL    HW225191   0.334  10.384   1.991  1.3876  1.2650 -0.8620
40596SOL     OW25192   3.118   6.378   5.646  0.0832  0.4082 -0.7148
40596SOL    HW125193   3.135   6.471   5.630 -0.3171  0.8436  1.1755
40596SOL    HW225194   3.197   6.346   5.690 -1.2889  0.8537  2.1977
40597SOL     OW25195   2.318   2.613   4.136 -0.3050 -0.2395  0.3907
40597SOL    HW125196   2.234   2.653   4.119  0.4097  0.6378 -1.1300
40597SOL    HW225197   2.381   2.664   4.086  0.7319 -2.7751 -1.0123
40598SOL     OW25198   1.880   5.536   4.966  0.3252  0.5442 -0.2008
40598SOL    HW125199   1.887   5.475   4.893  0.2615 -0.7190  0.8099
40598SOL    HW225200   1.844   5.616   4.929  0.0651 -0.1672 -1.4918
40599SOL     OW25201   7.082   5.572   7.625  0.6463 -0.0634  0.1878
40599SOL    HW125202   7.146   5.639   7.647  1.5733 -0.8429 -0.1115
40599SOL    HW225203   7.099   5.551   7.533  1.0177 -1.4144  0.5513
40600SOL     OW25204   3.849   0.550   2.460 -0.1977 -0.3262  0.3052
40600SOL    HW125205   3.816   0.627   2.505 -2.0512  0.3363 -2.1024
40600SOL    HW225206   3.775   0.489   2.459 -0.0584 -0.4719 -1.4808
40601SOL     OW25207  10.838   0.077   4.340  0.6523  0.0164 -0.6550
40601SOL    HW125208  10.899   0.123   4.398 -0.0372 -1.0524  0.9654
40601SOL    HW225209  10.871  -0.013   4.338 -1.6848 -0.9582  1.4893
40602SOL     OW25210   6.971   5.517   9.758  0.0720  0.1742 -0.1938
40602SOL    HW125211   6.989   5.602   9.717  0.4911 -0.0007 -0.3784
40602SOL    HW225212   6.941   5.462   9.685 -1.5057  0.5402  0.1565
40603SOL     OW25213   0.897   6.680   0.153 -0.5118  0.2918  0.0743
40603SOL    HW125214   0.910   6.651   0.243 -3.4988 -0.2867  0.3694
40603SOL    HW225215   0.887   6.600   0.102  0.4108  0.6301 -0.6512
40604SOL     OW25216   2.947   1.519   4.556 -0.6231  0.3009 -0.1183
40604SOL    HW125217   3.003   1.589   4.590 -0.1788 -0.3162  0.4225
40604SOL    HW225218   2.985   1.495   4.472  0.4108 -0.6992  0.6367
40605SOL     OW25219   4.588   5.504   4.953  0.0013  0.1745 -0.4131
40605SOL    HW125220   4.594   5.443   4.880  2.5882  0.7739 -0.7607
40605SOL    HW225221   4.501   5.488   4.991 -0.3837 -1.8815 -2.0608
40606SOL     OW25222   6.344   2.488   4.196  0.1137 -0.2353 -0.3869
40606SOL    HW125223   6.417   2.550   4.193  1.6663 -1.7497  3.4142
40606SOL    HW225224   6.289   2.519   4.268 -1.4635 -0.8074 -1.3140
40607SOL     OW25225   0.745   1.666   5.567  0.3954  0.0989  0.4417
40607SOL    HW125226   0.676   1.732   5.581  1.4568  1.0781  1.1174
40607SOL    HW225227   0.753   1.621   5.651 -2.7524 -3.3245 -0.9500
40608SOL     OW25228   9.624   6.500   8.331 -0.1980  0.4259  0.4591
40608SOL    HW125229   9.631   6.404   8.338 -0.6172  0.1832 -2.0726
40608SOL    HW225230   9.534   6.520   8.354 -0.2327  0.1853  0.5322
40609SOL     OW25231   2.313   1.003   0.082  0.0593  0.2713  0.1718
40609SOL    HW125232   2.358   1.083   0.108 -0.4787 -0.1710  2.5980
40609SOL    HW225233   2.381   0.937   0.079  0.4244  0.6890 -1.3729
40610SOL     OW25234   7.322   6.984   4.108  0.9853 -0.5375  0.5164
40610SOL    HW125235   7.301   6.926   4.182  2.3498 -1.9789 -0.2234
40610SOL    HW225236   7.417   6.981   4.101  0.9485  0.5197 -0.5776
40611SOL     OW25237  10.605   1.093   8.808  0.1287 -0.0826  0.5754
40611SOL    HW125238  10.653   1.086   8.891  2.3583  2.3622 -0.4674
40611SOL    HW225239  10.537   1.158   8.826 -0.2154 -0.5141  0.8506
40612SOL     OW25240   6.832   0.350   0.572  0.0279  0.0691  0.4733
40612SOL    HW125241   6.746   0.309   0.569  0.5129 -0.9383  0.0008
40612SOL    HW225242   6.874   0.311   0.649  0.5143 -0.3819 -0.0143
40613SOL     OW25243   9.844   8.754   3.646  0.2482 -0.5307 -0.2248
40613SOL    HW125244   9.793   8.831   3.672 -1.0162 -0.8790 -1.5891
40613SOL    HW225245   9.921   8.790   3.602  0.5730 -0.0210  0.7419
40614SOL     OW25246   7.268   7.581   0.128 -1.3382  0.2148  0.4169
40614SOL    HW125247   7.217   7.590   0.048  0.4671  0.4841 -0.7498
40614SOL    HW225248   7.349   7.630   0.110 -0.5059 -0.5140  2.0493
40615SOL     OW25249   5.476   6.274   1.266  0.2739  0.2601 -0.3363
40615SOL    HW125250   5.529   6.347   1.235  0.9264  0.8399  2.1226
40615SOL    HW225251   5.533   6.197   1.255  0.8016  0.5743  0.1803
40616SOL     OW25252   8.090   4.610   2.456 -0.0053 -0.1844 -0.0532
40616SOL    HW125253   8.017   4.551   2.477 -0.8609  0.5820 -0.8305
40616SOL    HW225254   8.121   4.640   2.541 -2.1119  1.2988  0.2363
40617SOL     OW25255   8.682   2.375   3.963  0.0332  0.1329  0.2938
40617SOL    HW125256   8.658   2.354   4.053  0.9948  0.1708  0.5638
40617SOL    HW225257   8.670   2.470   3.956 -0.8908  0.0074  0.1187
40618SOL     OW25258   7.916   9.358   9.494  0.5122 -0.0648 -0.2048
40618SOL    HW125259   7.882   9.270   9.475  0.1120  0.0302  0.0418
40618SOL    HW225260   7.900   9.408   9.414 -0.4413  0.1219  0.0848
40619SOL     OW25261   0.318   5.049   2.295 -0.5842 -0.2416  0.5129
40619SOL    HW125262   0.372   4.970   2.306  0.9504  0.6583 -0.3977
40619SOL    HW225263   0.244   5.035   2.354  1.8712 -0.4178  3.6873
40620SOL     OW25264   6.462   4.742   7.512 -0.1438 -0.3315  0.0141
40620SOL    HW125265   6.523   4.720   7.583  0.9405 -0.0431 -0.8134
40620SOL    HW225266   6.414   4.661   7.496 -0.7587 -0.2626  1.4212
40621SOL     OW25267   0.510   2.800   0.548  0.0519  0.1438  0.2894
40621SOL    HW125268   0.558   2.718   0.539  0.7951  0.7285 -1.4422
40621SOL    HW225269   0.571   2.860   0.590  0.1947  0.3516 -0.2069
40622SOL     OW25270   2.560   5.866   0.655  0.1695 -0.0548  0.4899
40622SOL    HW125271   2.469   5.869   0.627  0.7806  0.3711 -1.5611
40622SOL    HW225272   2.558   5.826   0.742 -1.8953 -0.6484  0.1816
40623SOL     OW25273   9.335   5.544   9.834  1.1273  0.0712  1.0228
40623SOL    HW125274   9.316   5.607   9.903  1.4175  0.9632  0.2988
40623SOL    HW225275   9.249   5.519   9.800  1.0543  0.9481  0.5463
40624SOL     OW25276   7.548   2.680   0.222  0.4122  0.0107  0.0494
40624SOL    HW125277   7.474   2.735   0.249 -0.0049 -0.0273 -0.9999
40624SOL    HW225278   7.625   2.727   0.255  0.0437  1.0980 -0.6046
40625SOL     OW25279   5.853   5.302   9.468  0.2984 -0.0466 -0.5445
40625SOL    HW125280   5.893   5.291   9.554  1.2824  2.5998 -0.6134
40625SOL    HW225281   5.761   5.282   9.482  0.1034  2.1279  1.5788
40626SOL     OW25282   8.246   9.806   5.227  0.0940  0.8703 -0.2009
40626SOL    HW125283   8.194   9.780   5.152 -0.3724 -0.2922  0.5203
40626SOL    HW225284   8.188   9.797   5.303  0.9261  0.8494  0.4529
40627SOL     OW25285   5.822   7.430   0.030 -0.0896  0.0784  0.0542
40627SOL    HW125286   5.837   7.361   0.094 -0.3815  2.2485  2.5480
40627SOL    HW225287   5.807   7.384  -0.052 -0.9056 -2.8241  1.7712
40628SOL     OW25288   9.244   1.319   8.123  0.5934 -0.2723 -0.3085
40628SOL    HW125289   9.322   1.308   8.069  1.2027  1.8956  0.0689
40628SOL    HW225290   9.182   1.366   8.066  1.5919  2.9044  1.0777
40629SOL     OW25291   5.602  10.013   4.255 -0.0692  0.1880 -0.4809
40629SOL    HW125292   5.569  10.039   4.341 -2.3635 -2.2917 -0.5627
40629SOL    HW225293   5.524  10.001   4.202  1.2826  0.4768 -2.5926
40630SOL     OW25294   3.911   1.135   9.556  0.1952  0.7293 -0.0301
40630SOL    HW125295   3.937   1.054   9.512  0.9577  1.0627 -0.1928
40630SOL    HW225296   3.918   1.115   9.649 -1.1272  0.1186 -0.0563
40631SOL     OW25297   3.073   5.858   5.911 -0.3933  0.1053  0.6097
40631SOL    HW125298   3.111   5.805   5.841  1.0932  1.2972  0.4829
40631SOL    HW225299   2.981   5.869   5.886  0.5090  1.9652 -2.1107
40632SOL     OW25300   0.029   2.570   6.852  0.1848 -0.5186  0.0632
40632SOL    HW125301   0.037   2.546   6.760 -0.1820 -0.5471  0.0379
40632SOL    HW225302   0.077   2.652   6.861 -1.9244  0.8280 -0.6795
40633SOL     OW25303   9.264   0.694  10.144  0.2355 -0.4653  0.2674
40633SOL    HW125304   9.190   0.693  10.084 -0.9294  0.0488  1.6730
40633SOL    HW225305   9.281   0.602  10.165  1.3966 -0.7303 -1.7303
40634SOL     OW25306   4.150   4.152   5.741  0.3984  0.3473 -0.6913
40634SOL    HW125307   4.183   4.198   5.818 -1.6551  0.9768 -0.1403
40634SOL    HW225308   4.164   4.213   5.669 -1.6713  1.6436 -0.0736
40635SOL     OW25309   5.365   3.061   7.250 -0.7460  0.3894 -0.0007
40635SOL    HW125310   5.300   3.075   7.181 -0.4029 -2.0528 -0.8502
40635SOL    HW225311   5.428   3.132   7.239 -2.4722  1.9493 -0.0806
40636SOL     OW25312   1.357   8.346   1.584  0.1114  0.5768  0.6922
40636SOL    HW125313   1.264   8.349   1.560  0.3983  0.8668 -0.4587
40636SOL    HW225314   1.371   8.423   1.639 -0.6323 -0.2378  2.0273
40637SOL     OW25315   7.668   8.447   8.945 -0.3178  0.2353  0.1239
40637SOL    HW125316   7.658   8.370   8.888  0.9969 -0.3177  0.6258
40637SOL    HW225317   7.749   8.488   8.915  0.7519 -0.4457  2.0363
40638SOL     OW25318   0.565  10.371   0.576  0.0444 -0.4535 -0.0666
40638SOL    HW125319   0.547  10.333   0.490 -1.1663 -0.4863  0.2009
40638SOL    HW225320   0.607  10.455   0.557  0.2517 -0.6928 -0.6785
40639SOL     OW25321   8.204   1.521   4.860  0.0064  0.5505  0.3607
40639SOL    HW125322   8.141   1.507   4.931  1.3435  0.4814  1.5490
40639SOL    HW225323   8.214   1.616   4.854 -0.4433  0.5772 -0.0562
40640SOL     OW25324   8.744   1.016   6.197 -0.0705  0.3957 -0.3055
40640SOL    HW125325   8.672   0.969   6.155  0.2771  1.3901 -2.0749
40640SOL    HW225326   8.765   1.086   6.136  0.9997  1.3981  1.1951
40641SOL     OW25327   8.525   4.707   6.684  0.2217 -0.1940 -0.2024
40641SOL    HW125328   8.613   4.669   6.685 -0.1066 -1.0198 -1.0173
40641SOL    HW225329   8.478   4.660   6.753  0.3852  0.1456  0.1366
40642SOL     OW25330   8.891   7.460   1.540  0.1542 -0.5430  0.0198
40642SOL    HW125331   8.800   7.452   1.512 -0.6570 -2.9209  3.0221
40642SOL    HW225332   8.888   7.514   1.618  1.1457 -1.5221  0.7631
40643SOL     OW25333   9.420   4.390   9.684 -0.2014  0.6984  0.9880
40643SOL    HW125334   9.330   4.371   9.658  0.4878 -0.0812 -0.9457
40643SOL    HW225335   9.471   4.319   9.644  1.4985  2.2166  0.4121
40644SOL     OW25336   4.746   1.973   7.959 -0.1502  0.4433 -0.5406
40644SOL    HW125337   4.692   2.012   8.028  0.9959 -1.6865  1.6400
40644SOL    HW225338   4.836   1.982   7.991  0.3635 -0.9855 -1.5380
40645SOL     OW25339   8.796   4.395   9.513 -0.1398  0.6494  0.0103
40645SOL    HW125340   8.760   4.403   9.425  0.5694  0.9451 -0.2576
40645SOL    HW225341   8.797   4.484   9.547 -2.4870  0.2788  1.1661
40646SOL     OW25342   3.784   3.219   3.880 -0.0665  0.3037 -0.6048
40646SOL    HW125343   3.834   3.238   3.960  1.3612  1.2446 -1.7072
40646SOL    HW225344   3.836   3.152   3.835 -1.6149 -1.3010 -0.0672
40647SOL     OW25345   2.260   2.634   2.626 -0.1801 -0.0080 -0.0457
40647SOL    HW125346   2.213   2.642   2.543  0.4865 -0.3028 -0.4549
40647SOL    HW225347   2.304   2.549   2.621  1.8136  1.0286 -0.4118
40648SOL     OW25348   8.419  10.396   7.500 -0.2457 -0.3469 -0.0307
40648SOL    HW125349   8.416  10.487   7.530  0.7251 -0.6390  1.0068
40648SOL    HW225350   8.476  10.398   7.423 -1.4107  0.1477 -0.8934
40649SOL     OW25351   7.324   2.600   1.212  0.0402  0.0336  0.6247
40649SOL    HW125352   7.401   2.638   1.169  0.7507 -2.2485 -0.2489
40649SOL    HW225353   7.250   2.631   1.159  0.7981 -1.6415 -1.5111
40650SOL     OW25354   6.460   9.240   7.419  0.2652  0.3351  0.1697
40650SOL    HW125355   6.483   9.300   7.348 -3.4029  1.4478 -0.2166
40650SOL    HW225356   6.394   9.288   7.470  0.9133 -1.4666  2.7952
40651SOL     OW25357   1.116   3.864   7.458 -0.0919  0.4836 -0.5137
40651SOL    HW125358   1.074   3.785   7.493 -0.7289  0.5133 -1.2162
40651SOL    HW225359   1.073   3.936   7.503  0.3729  0.4405  0.0034
40652SOL     OW25360   8.784   8.680   2.643 -0.0282 -0.2435  0.2851
40652SOL    HW125361   8.698   8.642   2.658 -0.3032  1.1162  2.3628
40652SOL    HW225362   8.808   8.720   2.727  1.6932  1.2155 -0.8531
40653SOL     OW25363   9.538   0.708   3.069  0.1458  0.6285  0.2562
40653SOL    HW125364   9.534   0.784   3.010 -2.2686  0.3799  0.0481
40653SOL    HW225365   9.499   0.637   3.020 -1.2167  0.2286  1.8679
40654SOL     OW25366   0.628  10.742   6.473  0.4718  0.2419 -0.5726
40654SOL    HW125367   0.577  10.800   6.529  0.4241  0.4354 -0.8165
40654SOL    HW225368   0.623  10.656   6.516 -0.5224  0.1332 -0.8933
40655SOL     OW25369   5.218   5.217   6.226  0.0770 -0.1087  0.0456
40655SOL    HW125370   5.151   5.244   6.289  0.6883  2.4212 -0.3101
40655SOL    HW225371   5.233   5.125   6.245 -1.3199  0.0564  2.1620
40656SOL     OW25372   2.832   3.469   4.639 -0.4683  0.2820 -0.7509
40656SOL    HW125373   2.926   3.488   4.632 -0.1977 -0.8485 -0.2165
40656SOL    HW225374   2.808   3.440   4.551 -0.4824  1.2703 -1.0829
40657SOL     OW25375   8.697   0.022   8.221  0.4054  0.5279 -0.0306
40657SOL    HW125376   8.761  -0.024   8.276  0.5338  0.4134 -0.2731
40657SOL    HW225377   8.619   0.029   8.275  0.2921 -0.2276 -0.0885
40658SOL     OW25378   7.868   8.236   1.366  0.5732 -0.5361 -0.3649
40658SOL    HW125379   7.814   8.162   1.337 -1.1516  0.5764 -0.0786
40658SOL    HW225380   7.903   8.208   1.450 -1.0091 -0.6132  0.2945
40659SOL     OW25381   1.932   5.928   6.683 -0.1788 -0.2298  0.0351
40659SOL    HW125382   1.910   5.883   6.602 -0.8600  0.2767 -0.0691
40659SOL    HW225383   1.995   5.871   6.727 -1.4452 -1.5519  0.1707
40660SOL     OW25384   6.562   7.191   9.671  0.2139  0.1861 -0.0426
40660SOL    HW125385   6.607   7.186   9.756 -1.0991  1.1837  0.7320
40660SOL    HW225386   6.533   7.102   9.653  0.4288 -0.0140  0.5927
40661SOL     OW25387   5.207   0.989   2.700 -0.4323  0.0181  0.5440
40661SOL    HW125388   5.283   0.997   2.757 -0.5768  2.3625  0.4342
40661SOL    HW225389   5.241   0.951   2.619 -0.0899 -2.6003  1.8585
40662SOL     OW25390   3.746   2.373   0.657 -0.5782 -0.2844  0.3071
40662SOL    HW125391   3.825   2.427   0.662  0.0499 -1.1913  0.2610
40662SOL    HW225392   3.685   2.413   0.719 -0.4071  0.9577 -0.3228
40663SOL     OW25393   4.569   0.935   4.957 -0.4177  0.0718 -0.5020
40663SOL    HW125394   4.658   0.943   4.923 -1.3830  2.8534 -2.6442
40663SOL    HW225395   4.573   0.866   5.022  3.1612 -0.2931 -1.0500
40664SOL     OW25396   9.367   0.011   2.546  0.5525 -0.0072  0.3484
40664SOL    HW125397   9.352   0.063   2.624  0.4591  1.4725 -0.6308
40664SOL    HW225398   9.407   0.072   2.484  0.2588 -1.0505 -0.8960
40665SOL     OW25399   1.839   9.209   0.896 -0.1055  0.0396  0.6099
40665SOL    HW125400   1.919   9.221   0.844  0.7071 -2.9358  1.0865
40665SOL    HW225401   1.771   9.191   0.832 -0.1589  1.2976  0.2906
40666SOL     OW25402   4.428   4.616   0.382  0.2085  0.2102 -0.2856
40666SOL    HW125403   4.377   4.567   0.446 -1.1681  1.7734 -0.1565
40666SOL    HW225404   4.461   4.549   0.322 -0.2106 -1.0502  0.8555
40667SOL     OW25405   8.395   7.575   9.897  0.6295 -0.1883  0.2095
40667SOL    HW125406   8.423   7.516   9.968 -0.6350  0.4319  1.2370
40667SOL    HW225407   8.353   7.518   9.834  1.5506 -0.7165  0.0582
40668SOL     OW25408  10.322  10.214   0.562  0.5409  0.1149  0.2697
40668SOL    HW125409  10.350  10.298   0.525  2.0975 -0.7379 -0.5426
40668SOL    HW225410  10.248  10.236   0.619 -1.0459  1.6416 -2.3047
40669SOL     OW25411   5.346   3.301   4.845  0.4642  0.3842  0.7110
40669SOL    HW125412   5.315   3.327   4.932 -1.6593 -0.5809  0.3001
40669SOL    HW225413   5.284   3.343   4.784  0.8347 -0.4204 -0.2352
40670SOL     OW25414   2.773   0.126   0.977 -0.0788 -0.0611 -0.5605
40670SOL    HW125415   2.798   0.218   0.976 -1.4877  0.3328 -1.5569
40670SOL    HW225416   2.787   0.095   0.888  0.9222 -0.9723 -0.0998
40671SOL     OW25417   5.599   6.912   8.495 -0.1961  0.5785  0.2054
40671SOL    HW125418   5.554   6.907   8.410 -1.1518  2.1570  0.6065
40671SOL    HW225419   5.534   6.884   8.559 -0.3597  2.0535  0.7005
40672SOL     OW25420   1.005   6.970   1.819 -0.0876 -0.1018  0.2803
40672SOL    HW125421   0.922   6.940   1.856  0.3239 -0.2556  1.0661
40672SOL    HW225422   1.008   7.064   1.840  0.6364 -0.4043  1.5603
40673SOL     OW25423  10.453   5.769   2.179 -0.0789  0.3397 -1.1407
40673SOL    HW125424  10.427   5.857   2.207 -1.2009 -0.5332  0.6908
40673SOL    HW225425  10.371   5.729   2.148  0.1190 -0.5432 -0.5612
40674SOL     OW25426   9.831  10.371   6.760 -0.2140  0.0207  0.4729
40674SOL    HW125427   9.900  10.306   6.747 -0.5790 -0.3210  0.2345
40674SOL    HW225428   9.844  10.402   6.850  0.7191  0.5116  0.1654
40675SOL     OW25429   5.095   0.718   6.648  0.0162  0.3309 -0.2592
40675SOL    HW125430   5.148   0.640   6.664 -1.0083 -0.4142 -0.4558
40675SOL    HW225431   5.004   0.688   6.657 -0.4126  1.3056 -1.2040
40676SOL     OW25432   9.560   3.541  10.395  0.0267 -0.6248 -0.1848
40676SOL    HW125433   9.546   3.469  10.457 -1.6926 -1.2237 -1.2372
40676SOL    HW225434   9.591   3.613  10.449 -1.5570 -1.1045  1.4090
40677SOL     OW25435   9.341   5.124   0.230  0.1335  0.2558  0.3567
40677SOL    HW125436   9.341   5.114   0.325  0.7097  1.6448  0.5159
40677SOL    HW225437   9.303   5.042   0.197 -0.0635 -0.2363  1.7734
40678SOL     OW25438   3.728  10.555   1.924 -0.0023 -0.1544  0.1351
40678SOL    HW125439   3.728  10.513   1.838  0.2777  0.6732 -0.2673
40678SOL    HW225440   3.691  10.488   1.983 -0.3078 -0.6751 -0.6393
40679SOL     OW25441   2.636   1.050   0.836 -0.1793 -0.6675  0.4051
40679SOL    HW125442   2.711   0.991   0.825 -0.8676 -1.2943 -1.0719
40679SOL    HW225443   2.612   1.041   0.928  2.1456  0.2620  1.1334
40680SOL     OW25444   6.872   9.962   7.804  0.0281 -0.4817  0.4241
40680SOL    HW125445   6.878   9.907   7.725 -1.1707 -0.5534  0.3667
40680SOL    HW225446   6.794  10.015   7.789  0.4204  0.2806  1.0864
40681SOL     OW25447   3.062   3.585   3.543 -0.0164 -0.5704  0.0609
40681SOL    HW125448   2.987   3.594   3.601  0.0905 -0.3173  0.1596
40681SOL    HW225449   3.125   3.534   3.593  0.1606 -0.1697  0.2508
40682SOL     OW25450   0.508   0.273   1.586 -1.3310 -0.1329 -0.1390
40682SOL    HW125451   0.530   0.193   1.539 -0.1114 -1.1529  2.0812
40682SOL    HW225452   0.554   0.342   1.540 -1.4126 -0.8684 -1.3534
40683SOL     OW25453   6.916   9.685   4.164  0.6993 -0.5744 -0.2850
40683SOL    HW125454   7.011   9.687   4.169  0.6710 -0.1819  0.1568
40683SOL    HW225455   6.896   9.606   4.113  1.1940 -1.7425  1.2855
40684SOL     OW25456   2.518   8.441   8.429 -0.1373  0.3541  0.1052
40684SOL    HW125457   2.531   8.346   8.420  0.0655  0.6122 -2.7072
40684SOL    HW225458   2.565   8.464   8.509 -0.9638 -2.0560  1.3422
40685SOL     OW25459   5.070   8.527   0.400 -0.1952 -0.2776  0.4482
40685SOL    HW125460   5.161   8.497   0.394 -0.3167 -0.7131  0.7500
40685SOL    HW225461   5.031   8.472   0.468 -0.6021  0.1197  0.5375
40686SOL     OW25462   7.183   3.707   5.752  0.1937 -0.1358 -0.5424
40686SOL    HW125463   7.217   3.793   5.727  1.3115  0.0033  1.3711
40686SOL    HW225464   7.099   3.725   5.794 -0.7412 -0.2047 -2.3463
40687SOL     OW25465   9.592   8.139   5.175 -0.3270  0.6180  0.1036
40687SOL    HW125466   9.654   8.205   5.145  0.5703 -0.1985  0.1396
40687SOL    HW225467   9.562   8.096   5.095  0.5487 -0.2122  0.2100
40688SOL     OW25468   9.049   5.974   0.536  0.3154  0.0402  0.2891
40688SOL    HW125469   9.052   5.986   0.441 -0.3193  0.5881  0.3321
40688SOL    HW225470   9.078   6.058   0.572  0.4107 -0.1180  0.5793
40689SOL     OW25471   6.370   9.425   1.567  0.2795 -0.0810 -0.0734
40689SOL    HW125472   6.278   9.403   1.555  0.5084 -0.4729 -1.1507
40689SOL    HW225473   6.376   9.457   1.657 -0.5567 -1.9074  0.6466
40690SOL     OW25474   2.579   2.632   3.956  0.6374 -0.3123  0.0688
40690SOL    HW125475   2.671   2.606   3.961  0.7811  0.2580  0.3963
40690SOL    HW225476   2.571   2.706   4.016  0.1460  0.1554 -0.5644
40691SOL     OW25477   4.010  10.609   3.712 -0.3370  0.0666 -0.2270
40691SOL    HW125478   3.992  10.515   3.707 -1.0567  0.1773  0.2073
40691SOL    HW225479   4.103  10.615   3.735 -0.4970 -0.5504  0.6041
40692SOL     OW25480   8.232   5.103   3.173  0.3888  0.3706 -0.1723
40692SOL    HW125481   8.145   5.130   3.203  0.5610  0.4789  0.2245
40692SOL    HW225482   8.224   5.099   3.077  0.3276  1.6951 -0.2239
40693SOL     OW25483   9.441   0.814   0.779  0.0406  0.1751  0.5692
40693SOL    HW125484   9.394   0.836   0.859 -0.8853 -0.6690  0.2738
40693SOL    HW225485   9.450   0.719   0.783 -1.6306 -0.0778 -1.1991
40694SOL     OW25486   3.097   9.029   4.587 -0.0680 -0.4114  0.3432
40694SOL    HW125487   3.075   8.978   4.509  1.8114 -1.3723  0.4231
40694SOL    HW225488   3.120   8.964   4.653 -0.2698  0.4553  1.2894
40695SOL     OW25489   6.029   5.616   6.876  0.2749 -0.5011  0.1119
40695SOL    HW125490   6.102   5.564   6.910  0.2716 -0.9326 -0.5341
40695SOL    HW225491   5.970   5.552   6.837 -1.2393 -0.3097  2.0176
40696SOL     OW25492   0.881   8.266   9.843  0.2819 -0.0782  0.1339
40696SOL    HW125493   0.941   8.324   9.889  0.5532 -0.8595  0.7871
40696SOL    HW225494   0.892   8.288   9.750 -0.1679  1.4066  0.4249
40697SOL     OW25495   3.104   9.547   1.798 -0.0753 -0.3936  0.3598
40697SOL    HW125496   3.112   9.529   1.704 -1.5162  0.1822  0.1193
40697SOL    HW225497   3.187   9.589   1.821  0.1804 -0.3026 -0.7122
40698SOL     OW25498   1.764   5.853   8.364 -0.2574  0.1885 -0.2990
40698SOL    HW125499   1.805   5.876   8.280 -0.1515  0.5192 -0.1600
40698SOL    HW225500   1.686   5.909   8.369 -0.1095  0.3737 -0.0483
40699SOL     OW25501   8.820  10.795   4.067 -0.3970 -0.9046  0.2589
40699SOL    HW125502   8.876  10.820   4.141  1.2365 -2.7649 -0.2826
40699SOL    HW225503   8.788  10.708   4.089 -1.7785 -0.5240 -0.1897
40700SOL     OW25504   2.548   2.489   9.409 -0.0234 -0.4489  0.0497
40700SOL    HW125505   2.593   2.426   9.465  0.2421 -0.3771 -0.0837
40700SOL    HW225506   2.617   2.529   9.357 -0.1494  0.2088  0.3858
40701SOL     OW25507   5.836   0.622   6.729  0.0533  0.3123  0.1807
40701SOL    HW125508   5.747   0.651   6.711  0.2472  0.9523  0.2593
40701SOL    HW225509   5.835   0.600   6.822  0.2120  1.1607  0.3842
40702SOL     OW25510   5.271   1.545   9.855  0.0585 -0.3966 -0.2008
40702SOL    HW125511   5.260   1.451   9.845 -0.1127 -0.3644 -0.3188
40702SOL    HW225512   5.339   1.568   9.793  0.3027 -0.4874  0.0337
40703SOL     OW25513   5.449   4.545   8.659 -0.1049 -0.0146  0.8117
40703SOL    HW125514   5.372   4.523   8.711 -0.7751 -0.6992 -0.4301
40703SOL    HW225515   5.419   4.614   8.600  0.7411  0.9995  1.5551
40704SOL     OW25516   8.457   6.891   4.005 -0.3342  0.0215  0.0755
40704SOL    HW125517   8.502   6.887   4.089 -1.2096 -2.3687  0.4780
40704SOL    HW225518   8.460   6.983   3.980  2.4510  0.3042  1.3405
40705SOL     OW25519  10.427   7.733   6.843 -0.2714  0.5901  0.0377
40705SOL    HW125520  10.396   7.748   6.933  0.0347 -1.5516  0.5184
40705SOL    HW225521  10.520   7.712   6.853 -0.5232 -0.8758 -0.6688
40706SOL     OW25522   6.720   3.535   4.894 -0.2997  0.4543 -0.7995
40706SOL    HW125523   6.699   3.597   4.964 -3.6561 -0.0561 -1.2767
40706SOL    HW225524   6.799   3.570   4.854  0.7340  1.6524  2.1773
40707SOL     OW25525   7.641   0.185   7.935 -0.1586 -0.1474 -0.0536
40707SOL    HW125526   7.553   0.215   7.912  0.0150 -0.1153 -0.6849
40707SOL    HW225527   7.659   0.225   8.019 -1.1886 -1.0372  0.6059
40708SOL     OW25528   9.620   7.766  10.704  0.4463  0.0674 -0.0358
40708SOL    HW125529   9.651   7.783  10.792 -1.0165  1.4191  0.2434
40708SOL    HW225530   9.605   7.671  10.702  0.9229 -0.0325  1.0267
40709SOL     OW25531   6.817   6.574   9.751  0.3675  0.1202 -0.4846
40709SOL    HW125532   6.783   6.532   9.672  1.3348 -0.3811 -0.6352
40709SOL    HW225533   6.854   6.657   9.720 -0.9229  0.7799 -0.2842
40710SOL     OW25534   9.138   9.272   4.677  0.4819  0.0886 -0.0252
40710SOL    HW125535   9.087   9.235   4.605 -0.0429  0.5730  0.1006
40710SOL    HW225536   9.217   9.306   4.635  0.3028  0.1258 -0.3331
40711SOL     OW25537  10.486   8.696   1.489  0.3588  0.3318  0.2621
40711SOL    HW125538  10.561   8.676   1.433  0.0740  1.0142 -0.3655
40711SOL    HW225539  10.474   8.790   1.481 -0.2498  0.3044  0.7674
40712SOL     OW25540   7.331   9.308   3.710 -0.4064  0.5822  0.3549
40712SOL    HW125541   7.378   9.357   3.777 -0.0008  1.3043 -0.4581
40712SOL    HW225542   7.241   9.302   3.744 -0.0622  0.4242  1.2406
40713SOL     OW25543   3.084   2.820   7.011 -0.4441 -0.4256 -0.2398
40713SOL    HW125544   3.054   2.910   6.998  1.2296  0.3641  1.2143
40713SOL    HW225545   3.069   2.802   7.104  2.0443 -0.5526  0.1737
40714SOL     OW25546   0.589   2.899   3.547 -0.2410  0.3266 -0.6850
40714SOL    HW125547   0.631   2.828   3.596 -3.1804 -1.9511 -1.2992
40714SOL    HW225548   0.640   2.906   3.466  1.0375  0.0287  0.0825
40715SOL     OW25549  10.717   5.008   0.310 -0.3489 -0.2095  0.1485
40715SOL    HW125550  10.781   4.953   0.264 -0.1198  1.0587 -1.0814
40715SOL    HW225551  10.632   4.973   0.284 -0.1752 -1.2615  0.9849
40716SOL     OW25552   8.518   0.179   4.269 -0.1336  0.2952  0.0022
40716SOL    HW125553   8.425   0.202   4.268 -0.1281  0.2689 -1.2084
40716SOL    HW225554   8.529   0.117   4.198  0.8140  0.2828  0.1474
40717SOL     OW25555   9.171   0.467   5.323  0.6265 -0.1320  0.1533
40717SOL    HW125556   9.234   0.535   5.297 -2.0983  2.1964 -0.5960
40717SOL    HW225557   9.161   0.413   5.245  1.2636 -0.1495  0.0821
40718SOL     OW25558   0.507   0.917   7.734 -0.4065  0.1605 -0.7229
40718SOL    HW125559   0.560   0.846   7.771 -0.4964  0.4278 -0.0582
40718SOL    HW225560   0.570   0.971   7.685  0.1333  1.0091  0.8536
40719SOL     OW25561   0.304   1.624   9.695 -0.7062 -0.1734  0.1244
40719SOL    HW125562   0.306   1.718   9.682 -0.6323 -0.1587  0.2425
40719SOL    HW225563   0.225   1.609   9.747 -2.0626 -0.4341 -1.9505
40720SOL     OW25564   2.830  10.289   7.866 -0.1157 -0.3347 -0.5832
40720SOL    HW125565   2.906  10.334   7.828  0.6491 -0.8710  0.3162
40720SOL    HW225566   2.795  10.352   7.929 -0.3042 -0.1706 -0.8478
40721SOL     OW25567   5.946   0.723   3.175 -0.5419  0.0576  0.1106
40721SOL    HW125568   5.852   0.710   3.188 -0.8532  1.4102 -0.7307
40721SOL    HW225569   5.961   0.698   3.084  0.1706 -1.4706  0.6255
40722SOL     OW25570   9.938   9.268   7.839  0.2285 -0.2608 -0.7198
40722SOL    HW125571  10.026   9.235   7.825  0.2134 -0.2322 -0.8831
40722SOL    HW225572   9.937   9.354   7.796  0.4038  0.1510  0.0957
40723SOL     OW25573   2.765   4.039   9.707  0.1740 -0.3358 -0.5253
40723SOL    HW125574   2.745   3.969   9.645 -1.5068 -1.0198  0.7566
40723SOL    HW225575   2.813   3.995   9.777 -0.3555 -0.0966 -0.0133
40724SOL     OW25576   7.433  10.383   6.408 -0.5516 -0.2566  0.0355
40724SOL    HW125577   7.354  10.407   6.458 -0.6230  1.1326 -0.7026
40724SOL    HW225578   7.501  10.441   6.442 -0.2470 -0.3358 -0.4311
40725SOL     OW25579   9.105  10.703   9.722 -0.0726  1.0269 -0.1711
40725SOL    HW125580   9.069  10.620   9.692  0.0180  0.4148  1.3574
40725SOL    HW225581   9.198  10.685   9.735 -0.3100  0.9552  1.5267
40726SOL     OW25582   0.070   1.051   3.963 -0.0898  0.2729  0.4383
40726SOL    HW125583   0.050   1.144   3.966 -0.2598  0.3433 -1.8000
40726SOL    HW225584   0.019   1.012   4.034 -0.3168  1.8278  1.1300
40727SOL     OW25585   5.875   1.018   7.516  0.2285 -0.0979 -0.0601
40727SOL    HW125586   5.799   1.054   7.469  0.5582 -0.4290 -0.8600
40727SOL    HW225587   5.950   1.061   7.476  0.5073 -0.2506  0.2998
40728SOL     OW25588   7.179   2.032   4.331 -0.6139  0.2016  0.9065
40728SOL    HW125589   7.135   2.115   4.348  0.8303  1.3446 -0.7838
40728SOL    HW225590   7.256   2.034   4.388 -1.4918 -0.7866  2.1670
40729SOL     OW25591   7.269   0.217   7.442 -0.2317  0.1552 -0.2691
40729SOL    HW125592   7.215   0.162   7.385  2.1852  0.2973 -2.8108
40729SOL    HW225593   7.314   0.155   7.500 -1.7915 -0.0718  0.7397
40730SOL     OW25594   3.439   5.747   4.178  0.4801 -0.1626 -0.0084
40730SOL    HW125595   3.475   5.660   4.190  0.0952 -0.4542 -0.9323
40730SOL    HW225596   3.350   5.732   4.144  0.8698  0.5941 -1.3952
40731SOL     OW25597   7.885   9.698  10.639 -0.1425  0.1018  0.1550
40731SOL    HW125598   7.882   9.641  10.562 -0.9825 -1.5600  1.3914
40731SOL    HW225599   7.968   9.745  10.631  0.4327 -1.0781 -1.0336
40732SOL     OW25600   5.195   4.077   6.885  0.0531  0.3355  0.3869
40732SOL    HW125601   5.178   4.033   6.802 -2.0155  1.1931  0.3181
40732SOL    HW225602   5.275   4.126   6.870  0.1721 -0.2086 -0.8321
40733SOL     OW25603   2.208   0.876   4.184 -0.5238  0.2344 -0.4853
40733SOL    HW125604   2.222   0.949   4.123 -0.7894 -1.7250 -2.9692
40733SOL    HW225605   2.273   0.811   4.159  0.9045  0.2761  2.8732
40734SOL     OW25606   1.907   8.251   2.788 -0.2758  0.0901 -0.1877
40734SOL    HW125607   1.860   8.238   2.871 -2.7638 -0.2535 -1.6134
40734SOL    HW225608   1.973   8.182   2.788  0.9132  1.1456  2.2749
40735SOL     OW25609   8.450   1.745   6.313 -0.1148 -0.2935 -0.3162
40735SOL    HW125610   8.425   1.737   6.221 -2.6900  2.5633  0.0800
40735SOL    HW225611   8.451   1.839   6.329 -0.7032 -0.7936  2.8497
40736SOL     OW25612   3.722   5.882   1.717  0.3467 -0.9520 -0.4051
40736SOL    HW125613   3.764   5.968   1.718 -1.1085 -0.1312 -2.9953
40736SOL    HW225614   3.784   5.824   1.761  1.0441  1.5372  2.0385
40737SOL     OW25615   8.929   5.856   2.984  0.0845 -0.2121  0.6108
40737SOL    HW125616   8.945   5.912   3.060 -1.4319 -0.4092  1.0834
40737SOL    HW225617   8.974   5.901   2.912 -1.2005  1.6820  0.9618
40738SOL     OW25618   8.289  10.834   7.218  0.3311  1.2105  0.0337
40738SOL    HW125619   8.298  10.889   7.296 -2.1005  2.4216 -0.5213
40738SOL    HW225620   8.306  10.893   7.145  0.6009  0.5369 -0.4482
40739SOL     OW25621   9.128   4.430  10.488 -0.1593 -0.1325  0.1313
40739SOL    HW125622   9.123   4.525  10.493 -0.8560 -0.0670 -1.4589
40739SOL    HW225623   9.122   4.401  10.579  2.7464  1.4284  0.8767
40740SOL     OW25624   4.545  10.295   0.047  0.4604 -0.4422  0.4575
40740SOL    HW125625   4.639  10.297   0.065  0.5553 -0.2577 -0.0498
40740SOL    HW225626   4.505  10.339   0.122  0.8744  0.6270  0.0593
40741SOL     OW25627   7.207   8.011   4.071  0.0491  0.0032 -0.1448
40741SOL    HW125628   7.241   8.010   4.161 -0.2152 -0.3046 -0.0485
40741SOL    HW225629   7.113   7.999   4.081  0.1946 -1.6207 -0.5482
40742SOL     OW25630   3.292  10.943   1.695  0.1459  0.4997 -0.9654
40742SOL    HW125631   3.217  10.888   1.673 -0.3533  1.5297 -1.8400
40742SOL    HW225632   3.258  11.033   1.693  1.1056  0.8946 -0.1530
40743SOL     OW25633   9.537   0.021  10.004 -0.6533  0.5806  0.5468
40743SOL    HW125634   9.547   0.005   9.910  0.0584  1.4907  0.4575
40743SOL    HW225635   9.458   0.074  10.011 -0.5885  0.6884  0.4479
40744SOL     OW25636   8.066   2.050   3.434 -0.3485 -0.0888  0.3282
40744SOL    HW125637   8.143   2.051   3.491  0.8279  1.3175 -1.2574
40744SOL    HW225638   8.000   2.099   3.482 -0.3128 -1.3546  1.7273
40745SOL     OW25639   0.740   1.329   1.820  0.7288 -0.4401 -0.1635
40745SOL    HW125640   0.814   1.307   1.764  2.2439  0.6576  1.3644
40745SOL    HW225641   0.774   1.320   1.909 -0.8118  0.6589  0.5556
40746SOL     OW25642   9.724  10.165   2.142 -0.4436 -0.7830 -0.1991
40746SOL    HW125643   9.736  10.232   2.076 -1.3995 -0.0563  0.3558
40746SOL    HW225644   9.792  10.100   2.123  1.8320  1.3262  0.5158
40747SOL     OW25645   7.388   8.764   6.013 -0.2293  0.2889  0.1317
40747SOL    HW125646   7.448   8.830   6.047  2.1528 -0.8243 -1.7628
40747SOL    HW225647   7.388   8.695   6.080 -0.8811  1.1282  1.0040
40748SOL     OW25648   2.374   2.854   8.254  0.2540  0.6250 -0.5913
40748SOL    HW125649   2.343   2.856   8.163 -0.8349 -0.6788 -0.2589
40748SOL    HW225650   2.295   2.843   8.306  1.1403 -1.4586  0.3470
40749SOL     OW25651   5.116   2.982   4.151 -0.5205  0.0770 -0.2218
40749SOL    HW125652   5.097   2.897   4.189  0.2224  0.5204  1.1717
40749SOL    HW225653   5.133   2.964   4.058  0.2570 -1.3758  0.2005
40750SOL     OW25654   1.489   2.971  10.777  0.3541 -0.5932 -0.6208
40750SOL    HW125655   1.408   2.920  10.775  1.2479 -2.0450 -2.7088
40750SOL    HW225656   1.556   2.906  10.800  1.1482  0.2167 -0.6519
40751SOL     OW25657   9.414   3.664   2.302  0.0892  0.2921 -0.6996
40751SOL    HW125658   9.509   3.649   2.300  0.0409 -0.0762 -0.3178
40751SOL    HW225659   9.376   3.577   2.308 -0.0816  0.5188  4.4187
40752SOL     OW25660   8.720   8.334   6.340 -0.2392 -0.3649 -0.6639
40752SOL    HW125661   8.687   8.402   6.281  0.0836  0.0896 -0.3223
40752SOL    HW225662   8.641   8.292   6.374 -0.4600  0.2852 -0.3592
40753SOL     OW25663   8.016  10.130   1.511 -0.4649  0.5826  0.2752
40753SOL    HW125664   8.022  10.034   1.506 -0.6898  0.6286 -1.2944
40753SOL    HW225665   8.100  10.158   1.546 -0.7906 -0.2556  1.7621
40754SOL     OW25666   8.813   9.740  10.063  0.0585 -0.0004 -0.3032
40754SOL    HW125667   8.903   9.713  10.081  0.0570 -0.5736 -1.1682
40754SOL    HW225668   8.781   9.677   9.998 -0.5922  0.8920 -0.8543
40755SOL     OW25669   7.810   9.724   1.640 -0.3345  0.1047  0.5738
40755SOL    HW125670   7.763   9.727   1.556 -1.2411 -3.1667  0.8763
40755SOL    HW225671   7.741   9.732   1.706 -0.1488 -1.5411  0.9980
40756SOL     OW25672   4.696   0.235   4.209 -0.4548  0.2692 -0.2291
40756SOL    HW125673   4.751   0.306   4.176 -0.3530 -0.7993 -2.4730
40756SOL    HW225674   4.758   0.164   4.229 -0.7694 -0.0124 -0.2474
40757SOL     OW25675   0.571   1.360   2.972 -0.1300 -0.0113  0.3617
40757SOL    HW125676   0.547   1.374   3.063  1.0210 -1.7093  0.9636
40757SOL    HW225677   0.526   1.279   2.947 -2.5792  1.8378 -1.4253
40758SOL     OW25678   1.677  10.384  10.837 -0.0323  0.1954 -0.6182
40758SOL    HW125679   1.750  10.424  10.885 -0.2501 -1.6753  1.3286
40758SOL    HW225680   1.617  10.354  10.905 -1.2013 -0.9497 -2.1194
40759SOL     OW25681   1.161   1.736   7.748  0.0302  0.2019 -0.0079
40759SOL    HW125682   1.122   1.715   7.833  0.7150  1.7747  0.7221
40759SOL    HW225683   1.134   1.827   7.732  2.7582  1.0855  0.1829
40760SOL     OW25684   7.486   6.830  10.266 -0.4188 -0.0893  0.1153
40760SOL    HW125685   7.450   6.749  10.231 -0.0238 -0.0351 -0.4302
40760SOL    HW225686   7.432   6.850  10.342 -0.4350 -0.9351  0.3308
40761SOL     OW25687   1.942   5.836   6.176  0.2336  0.6665  0.0627
40761SOL    HW125688   2.000   5.908   6.202  0.2946  0.7371 -0.2701
40761SOL    HW225689   1.883   5.825   6.251  0.2176  1.0691  0.1111
40762SOL     OW25690  10.249   1.560   1.856  0.2181  0.1064  0.6841
40762SOL    HW125691  10.155   1.546   1.857  0.1493  0.5413  1.6893
40762SOL    HW225692  10.271   1.583   1.947  1.1859  0.6282  0.3361
40763SOL     OW25693   6.371   9.539   4.775  0.7512  0.0788  0.1430
40763SOL    HW125694   6.301   9.504   4.830  1.2251 -1.4097 -0.1826
40763SOL    HW225695   6.325   9.587   4.706  0.1117  0.6302  0.9332
40764SOL     OW25696   4.179   0.853   3.447  0.4868 -0.4947 -0.0379
40764SOL    HW125697   4.189   0.790   3.518  0.5462  0.0731  0.4525
40764SOL    HW225698   4.269   0.875   3.423  0.4546  0.2301  0.5154
40765SOL     OW25699   6.004   4.426   5.013  0.1848 -0.3562  0.4391
40765SOL    HW125700   5.932   4.363   5.018  0.0930 -0.3171 -0.3427
40765SOL    HW225701   6.065   4.397   5.081  0.5683 -1.8227 -0.4940
40766SOL     OW25702   5.592  10.141  10.264 -0.1343 -0.6415  0.0729
40766SOL    HW125703   5.617  10.113  10.353 -1.7823  2.6650  1.6395
40766SOL    HW225704   5.669  10.189  10.232 -0.5276  0.4413  0.7487
40767SOL     OW25705   7.557   1.625   8.262  0.0728 -0.0470  0.3654
40767SOL    HW125706   7.549   1.697   8.324  1.1539  0.6160 -0.2555
40767SOL    HW225707   7.647   1.629   8.231 -0.9624  0.8942 -2.7619
40768SOL     OW25708   2.295   7.187   8.673 -0.6453 -0.6350  0.7129
40768SOL    HW125709   2.226   7.252   8.658  0.2858 -0.3268 -2.4969
40768SOL    HW225710   2.376   7.231   8.649  0.1646 -2.5398 -0.1375
40769SOL     OW25711   4.543   2.439   2.959 -0.4493  0.3448  0.4566
40769SOL    HW125712   4.534   2.520   3.009 -0.1625  0.8206 -0.2398
40769SOL    HW225713   4.582   2.467   2.876  0.7871 -0.6724  0.6671
40770SOL     OW25714   1.587   7.616   6.171 -0.1712  0.3362  0.1540
40770SOL    HW125715   1.521   7.684   6.178  1.0550  1.2938  3.4573
40770SOL    HW225716   1.560   7.550   6.235  1.0800 -0.1227  0.2264
40771SOL     OW25717   6.185   3.160   3.332 -0.0580  0.1842  0.3058
40771SOL    HW125718   6.197   3.248   3.365  0.2941 -0.4152  1.8162
40771SOL    HW225719   6.271   3.118   3.344 -0.2040 -0.3451 -0.4552
40772SOL     OW25720   9.264   5.774   0.570 -0.3874  0.1961  0.5609
40772SOL    HW125721   9.191   5.836   0.580  0.5817  1.2066  1.5177
40772SOL    HW225722   9.322   5.794   0.644  0.8868 -0.5635 -0.2199
40773SOL     OW25723   4.293   2.619   5.322 -0.3035  0.0516 -0.4710
40773SOL    HW125724   4.280   2.710   5.351  1.5981  0.4071 -0.6618
40773SOL    HW225725   4.226   2.570   5.369 -1.1007  1.4961 -0.0442
40774SOL     OW25726   2.191   6.056   9.845  0.0279 -0.0552  0.2109
40774SOL    HW125727   2.216   6.144   9.872  0.2226 -0.3838  1.1313
40774SOL    HW225728   2.137   6.069   9.767  0.7380  0.8215 -0.1414
40775SOL     OW25729   3.104   4.773   7.909 -0.3619 -0.0183  0.4225
40775SOL    HW125730   3.151   4.816   7.980 -0.5870  2.3017 -0.7889
40775SOL    HW225731   3.109   4.679   7.930  1.2360  0.4893  2.4458
40776SOL     OW25732   6.979   3.839   6.173  0.0767  0.3941 -0.1733
40776SOL    HW125733   7.057   3.790   6.148 -1.3629 -0.9621 -2.1194
40776SOL    HW225734   6.963   3.814   6.264  0.0625 -1.8629 -0.7665
40777SOL     OW25735  10.542   9.455   2.399 -0.4417 -0.0554  0.2194
40777SOL    HW125736  10.477   9.458   2.329 -0.4099  1.0788  0.2324
40777SOL    HW225737  10.585   9.541   2.397  0.9412 -0.7196  0.3276
40778SOL     OW25738   2.353   8.393   4.205 -0.3003  0.0290  0.4824
40778SOL    HW125739   2.273   8.386   4.153 -0.1680  0.5040  0.2123
40778SOL    HW225740   2.385   8.303   4.212  0.3370  0.0965 -1.2782
40779SOL     OW25741   9.284   0.710   4.903  0.4882 -0.4425 -0.4993
40779SOL    HW125742   9.204   0.690   4.855  1.4113 -0.1011 -2.2004
40779SOL    HW225743   9.354   0.673   4.850  1.6273  1.0703 -0.0737
40780SOL     OW25744   9.023   9.998  10.270  0.7832  0.1672  0.0987
40780SOL    HW125745   9.008  10.087  10.238  0.2230  0.1392  0.2670
40780SOL    HW225746   9.079   9.958  10.204 -1.1026 -0.1727 -1.3260
40781SOL     OW25747   2.147   6.735   7.823  0.4975 -0.1860 -0.1046
40781SOL    HW125748   2.064   6.687   7.828  0.7069 -0.5360  0.0167
40781SOL    HW225749   2.157   6.756   7.730 -0.1457  0.5936  0.0023
40782SOL     OW25750   2.181   5.443  10.282  0.3579 -0.0886 -0.4659
40782SOL    HW125751   2.140   5.521  10.246  1.7715  0.1449 -1.6098
40782SOL    HW225752   2.118   5.372  10.265 -0.4014  0.5858 -0.4745
40783SOL     OW25753   8.206   8.178   8.954 -0.1551  0.1885 -0.3626
40783SOL    HW125754   8.277   8.219   8.905 -0.4811  0.2987 -0.7544
40783SOL    HW225755   8.131   8.182   8.894  0.2381 -2.5249 -1.0579
40784SOL     OW25756   1.734   4.145   1.913 -0.1987  0.1366  0.0613
40784SOL    HW125757   1.824   4.130   1.941 -0.0215 -3.2045 -2.0093
40784SOL    HW225758   1.738   4.226   1.861  1.0575  1.4430  2.1079
40785SOL     OW25759   4.152   6.845   8.867 -0.1497  0.1691 -0.0357
40785SOL    HW125760   4.138   6.931   8.827  0.4735  0.7570  0.9626
40785SOL    HW225761   4.247   6.837   8.872 -0.2155 -0.2847  0.4855
40786SOL     OW25762   1.004   1.898  10.061  0.4663  0.0179 -0.3072
40786SOL    HW125763   0.994   1.889  10.156  1.4684  0.7569 -0.1246
40786SOL    HW225764   1.050   1.819  10.034 -2.5179 -1.6705 -0.6353
40787SOL     OW25765   4.246   5.038   8.147  0.5057 -0.6132  0.0546
40787SOL    HW125766   4.197   5.040   8.065 -0.1342  2.6821  0.4571
40787SOL    HW225767   4.205   4.966   8.197  0.6120 -2.3498 -2.2825
40788SOL     OW25768   1.844   9.830   3.665  0.5157 -0.1901  0.0890
40788SOL    HW125769   1.769   9.841   3.724  0.9387  1.1409  0.3822
40788SOL    HW225770   1.895   9.910   3.675  1.7091 -0.8581 -0.5087
40789SOL     OW25771   3.204   9.844   2.178  0.4314 -0.0136 -0.2001
40789SOL    HW125772   3.119   9.878   2.152 -0.6530 -1.9572  0.7189
40789SOL    HW225773   3.256   9.922   2.199 -1.6879  1.1224  0.9463
40790SOL     OW25774   0.330   3.456   2.672 -0.4195 -0.3530  0.3984
40790SOL    HW125775   0.339   3.478   2.765  1.7350  2.5376 -0.4115
40790SOL    HW225776   0.244   3.416   2.665 -0.8606 -0.0828  3.5640
40791SOL     OW25777   8.206   1.256  10.352  0.0526  0.5213  0.2523
40791SOL    HW125778   8.166   1.193  10.412  2.4994  0.2073  1.6037
40791SOL    HW225779   8.171   1.341  10.380  1.0297  0.3542  2.0220
40792SOL     OW25780   3.060   7.570  10.700  0.2670 -0.0724  0.0776
40792SOL    HW125781   2.996   7.533  10.761 -0.1616  1.5390  0.6513
40792SOL    HW225782   3.011   7.636  10.651  0.7016 -1.1187 -1.7915
40793SOL     OW25783   8.606   4.198   9.565 -0.0564  1.0837 -0.3527
40793SOL    HW125784   8.549   4.220   9.639 -0.9738  0.7616 -0.9541
40793SOL    HW225785   8.682   4.256   9.574  0.7352 -0.2250  1.9029
40794SOL     OW25786   3.679   9.751   4.126  0.1754 -0.7804 -0.7366
40794SOL    HW125787   3.690   9.845   4.133 -0.9251 -0.6468 -0.8199
40794SOL    HW225788   3.769   9.717   4.123  0.5756  0.2073 -0.1509
40795SOL     OW25789   0.993   8.763   9.411  0.2078 -0.3417  0.7743
40795SOL    HW125790   0.923   8.711   9.373 -0.2216  0.4052  0.5340
40795SOL    HW225791   0.999   8.840   9.355  1.0568 -0.2865  0.9359
40796SOL     OW25792   6.868  10.382   5.527  0.3446 -0.1315 -0.1214
40796SOL    HW125793   6.775  10.386   5.551  0.9301  0.1039  2.1396
40796SOL    HW225794   6.881  10.291   5.499 -0.5491 -0.1770 -0.4099
40797SOL     OW25795   9.363   1.738   7.906 -0.0332  0.0317 -0.1772
40797SOL    HW125796   9.394   1.813   7.854  2.7339 -2.5790 -2.5398
40797SOL    HW225797   9.377   1.764   7.997 -1.4973  3.3216 -0.8519
40798SOL     OW25798   0.455   0.536   8.508 -0.2757  0.4056 -0.3500
40798SOL    HW125799   0.456   0.477   8.433  0.1661  0.9042 -0.7407
40798SOL    HW225800   0.542   0.575   8.509 -0.0944 -0.0035  0.7460
40799SOL     OW25801   7.174   6.264   3.004 -0.4701 -0.0465 -0.1553
40799SOL    HW125802   7.125   6.330   3.052 -0.3860 -0.3627  0.3656
40799SOL    HW225803   7.226   6.219   3.071  1.0491  0.7326 -0.7809
40800SOL     OW25804   7.539   8.729   4.195 -0.1768 -0.8184 -0.3206
40800SOL    HW125805   7.510   8.820   4.207 -1.0757 -1.0851 -0.5061
40800SOL    HW225806   7.563   8.700   4.282  0.6991 -0.2030 -0.3485
40801SOL     OW25807   9.343   3.672   1.809  0.0274  0.7051  0.2189
40801SOL    HW125808   9.421   3.700   1.856 -1.2241 -0.0677  2.8059
40801SOL    HW225809   9.289   3.751   1.804 -0.5539  0.4000  1.5513
40802SOL     OW25810   8.653   3.982   1.072 -0.2616  0.0597  0.8337
40802SOL    HW125811   8.738   3.941   1.053 -1.8358 -3.2216  0.5741
40802SOL    HW225812   8.638   4.040   0.997  0.4996 -1.4467 -0.5383
40803SOL     OW25813   7.702   6.463   7.398 -0.0766  0.3455 -0.5373
40803SOL    HW125814   7.726   6.371   7.409 -0.9275  0.1716 -0.0931
40803SOL    HW225815   7.607   6.462   7.387 -0.3882  1.3357  1.6511
40804SOL     OW25816   4.468   7.642   3.298 -0.6514 -0.5658 -0.6041
40804SOL    HW125817   4.506   7.572   3.244  0.9584  0.2309 -0.5030
40804SOL    HW225818   4.448   7.599   3.381 -1.3290 -1.3332 -1.1535
40805SOL     OW25819  10.898   4.313  10.673 -0.2151 -0.2370  0.6760
40805SOL    HW125820  10.948   4.395  10.669  0.5370 -0.7138  0.2600
40805SOL    HW225821  10.963   4.244  10.665 -0.8296 -0.8897  1.2233
40806SOL     OW25822   0.536   8.658   0.629  0.7003 -0.4361  0.2161
40806SOL    HW125823   0.543   8.603   0.551 -0.8886 -0.1440 -0.1682
40806SOL    HW225824   0.554   8.599   0.702 -2.7291 -1.9678 -0.0709
40807SOL     OW25825   5.436   0.081   5.448  0.2302  0.1296 -0.2681
40807SOL    HW125826   5.507   0.090   5.384  0.4228  0.1231 -0.0549
40807SOL    HW225827   5.445  -0.008   5.482  0.3182  0.2368 -0.0079
40808SOL     OW25828   1.902   0.948   8.521  0.2524 -0.1200  0.4052
40808SOL    HW125829   1.839   1.000   8.571  0.8660  2.0125 -0.9836
40808SOL    HW225830   1.855   0.924   8.441  0.9772  1.0015 -0.3781
40809SOL     OW25831   2.975   8.014   2.549  0.3377 -0.3320 -0.1454
40809SOL    HW125832   3.024   7.934   2.532  2.8263  0.9718  0.6491
40809SOL    HW225833   3.006   8.076   2.482 -1.4746  0.0387 -0.6802
40810SOL     OW25834   8.442   7.163   1.597 -0.0411 -0.2101  0.0045
40810SOL    HW125835   8.375   7.159   1.664 -1.1444  0.1798 -1.0513
40810SOL    HW225836   8.508   7.099   1.624 -0.9768 -0.7962  0.9031
40811SOL     OW25837   3.262   9.995   2.978  0.1766  0.1487  0.0805
40811SOL    HW125838   3.191  10.060   2.981 -2.3553 -2.3820 -2.1576
40811SOL    HW225839   3.324  10.030   2.914 -0.3708  1.1349  0.0751
40812SOL     OW25840   9.699   1.205   8.128  0.4210 -0.3631  0.4837
40812SOL    HW125841   9.740   1.189   8.042  1.2404 -0.5192  0.8964
40812SOL    HW225842   9.756   1.270   8.169 -1.6735  2.0506 -0.3057
40813SOL     OW25843  10.650   5.772   3.311 -0.3432  0.0453  0.0403
40813SOL    HW125844  10.588   5.718   3.360 -0.6462  0.8160  0.5197
40813SOL    HW225845  10.595   5.822   3.250  0.1118 -1.5917 -1.7701
40814SOL     OW25846   8.086   8.476   5.270 -0.2857  0.4636  0.6361
40814SOL    HW125847   8.165   8.528   5.258  1.5407 -2.7512 -2.3050
40814SOL    HW225848   8.046   8.471   5.183 -1.1900 -1.7543  1.1187
40815SOL     OW25849   6.204   7.751   2.203  0.0522  0.3337 -0.1449
40815SOL    HW125850   6.277   7.730   2.145 -0.0432  0.1752 -0.2044
40815SOL    HW225851   6.126   7.729   2.153  0.0033 -1.4407  0.6929
40816SOL     OW25852   4.384   6.964   2.486 -0.0771  0.3367  0.3197
40816SOL    HW125853   4.450   6.983   2.419 -1.5028 -1.5341 -1.7040
40816SOL    HW225854   4.430   6.911   2.551  0.4717 -0.9135 -1.0547
40817SOL     OW25855  10.025   4.540   6.225  0.1506  0.1962  0.2018
40817SOL    HW125856  10.063   4.626   6.208  0.1573  0.3259  0.8997
40817SOL    HW225857  10.091   4.478   6.192  0.2370  0.4490 -0.1088
40818SOL     OW25858   4.275   2.998   0.601 -0.1963 -0.0310  0.2050
40818SOL    HW125859   4.320   2.926   0.645  0.2556  0.0278 -0.1547
40818SOL    HW225860   4.253   3.059   0.672  2.1475  0.9332  0.1526
40819SOL     OW25861   7.090   4.183  10.245 -0.1235 -0.7196  0.2413
40819SOL    HW125862   7.130   4.135  10.172  1.0697  1.9030 -0.9030
40819SOL    HW225863   7.127   4.143  10.324 -0.4797 -2.7677 -0.6087
40820SOL     OW25864   4.566   4.561   7.819  0.5142  0.5678 -0.4430
40820SOL    HW125865   4.522   4.605   7.892  0.6990  1.3801 -0.8175
40820SOL    HW225866   4.508   4.488   7.796 -0.5465  1.5223 -0.8159
40821SOL     OW25867   2.679   9.139   1.973 -0.1947 -0.7051  0.0883
40821SOL    HW125868   2.643   9.134   1.884 -1.3691 -3.8994  0.6907
40821SOL    HW225869   2.621   9.201   2.018 -1.4199 -1.3698 -0.5416
40822SOL     OW25870   0.494  10.806   7.379  0.2692  0.0762  0.2604
40822SOL    HW125871   0.468  10.869   7.447 -1.0522  0.4212 -0.5587
40822SOL    HW225872   0.467  10.721   7.413  0.8224  0.0944  0.7577
40823SOL     OW25873   5.891   3.304   3.684 -0.0213  0.1037 -0.2515
40823SOL    HW125874   5.947   3.226   3.690 -1.1551 -0.6179  1.4306
40823SOL    HW225875   5.890   3.326   3.591 -0.0945 -2.1863 -0.8235
40824SOL     OW25876   4.134   5.747   4.367 -0.5790  0.3125  0.2012
40824SOL    HW125877   4.186   5.667   4.356 -0.4189  0.6957 -2.0243
40824SOL    HW225878   4.186   5.815   4.326 -1.2018  1.3937  1.1707
40825SOL     OW25879  10.914   6.217   2.005 -0.4545  0.6176 -0.1071
40825SOL    HW125880  10.996   6.230   1.959 -0.1870  0.4699  0.3242
40825SOL    HW225881  10.930   6.143   2.063 -1.1094  0.1324 -0.5330
40826SOL     OW25882  10.302   9.116   5.803  0.1523 -0.5886  0.2759
40826SOL    HW125883  10.248   9.052   5.758  1.2084 -1.0405 -0.3692
40826SOL    HW225884  10.240   9.177   5.842 -0.9532 -3.3066  2.9090
40827SOL     OW25885   7.870   1.030   8.664  0.6747 -0.0662  0.1747
40827SOL    HW125886   7.781   1.024   8.699  1.1153  0.0912  1.3347
40827SOL    HW225887   7.888   1.124   8.662  0.0531  0.0431 -2.0393
40828SOL     OW25888   8.818   7.202   1.848 -0.2980  0.1757 -0.1924
40828SOL    HW125889   8.778   7.145   1.782 -1.8930  0.9979  0.0445
40828SOL    HW225890   8.908   7.215   1.818 -0.9795  0.4647 -2.1475
40829SOL     OW25891   4.116  10.308   5.387  0.1656  0.2354  0.3080
40829SOL    HW125892   4.140  10.374   5.452 -0.6866  0.6596  0.1930
40829SOL    HW225893   4.170  10.330   5.311  0.1112  0.6074  0.3754
40830SOL     OW25894   9.164   3.787   0.986  0.3018  0.5142 -0.0994
40830SOL    HW125895   9.232   3.744   1.038  0.6101  0.6242 -0.4136
40830SOL    HW225896   9.204   3.801   0.900  0.2068  1.4166 -0.0036
40831SOL     OW25897   5.734   0.949   6.959 -0.3737 -0.3728  0.2708
40831SOL    HW125898   5.729   1.001   7.039 -0.3304 -0.7266  0.5058
40831SOL    HW225899   5.736   0.858   6.990  0.5729 -0.4827 -0.0812
40832SOL     OW25900   7.765   9.394   7.727  0.1000  0.2721 -0.0997
40832SOL    HW125901   7.821   9.379   7.803  0.3411  0.0958 -0.3114
40832SOL    HW225902   7.680   9.420   7.765 -0.0159 -0.5917  0.2539
40833SOL     OW25903   6.315   0.901   8.405 -0.4140  0.6145  0.1678
40833SOL    HW125904   6.244   0.836   8.401 -1.6986  1.9786  0.2158
40833SOL    HW225905   6.352   0.901   8.317  0.2264 -0.8579  0.4201
40834SOL     OW25906  10.249   1.600  10.256  0.8673  0.4417  0.6585
40834SOL    HW125907  10.174   1.565  10.305 -0.7402  0.1262 -1.9692
40834SOL    HW225908  10.219   1.685  10.225  2.1505  0.9620  0.8294
40835SOL     OW25909  10.529   1.895   2.919  0.4526  0.1582 -0.4266
40835SOL    HW125910  10.460   1.908   2.854  1.4761  0.4657 -1.4758
40835SOL    HW225911  10.508   1.958   2.989  1.7209  2.9766 -2.4747
40836SOL     OW25912   0.994   8.586   1.678 -0.4441 -0.0527 -0.6139
40836SOL    HW125913   0.906   8.599   1.713 -0.2640 -0.3908 -0.0194
40836SOL    HW225914   1.040   8.667   1.697  0.4694 -1.2035  2.4449
40837SOL     OW25915   9.570   3.356   7.323  0.6510  0.1552 -0.4660
40837SOL    HW125916   9.492   3.300   7.313  1.8646 -1.4212 -1.3564
40837SOL    HW225917   9.610   3.327   7.405  1.1148 -0.0756 -0.7705
40838SOL     OW25918  10.271   9.420   7.941  0.1383  0.2638  0.4623
40838SOL    HW125919  10.315   9.443   8.023  1.1693 -2.1700  0.6264
40838SOL    HW225920  10.256   9.504   7.897  2.9683  1.3071  1.4111
40839SOL     OW25921   8.023   8.818   6.507  0.7401 -0.1282  0.0362
40839SOL    HW125922   8.072   8.833   6.588  0.2879  1.1402  0.0836
40839SOL    HW225923   7.966   8.894   6.499 -1.3178 -1.6259  0.0310
40840SOL     OW25924   9.416   3.008   8.622 -0.1591  0.3003  0.4826
40840SOL    HW125925   9.476   2.966   8.560 -0.4340 -1.0141  1.0879
40840SOL    HW225926   9.376   3.080   8.572  0.1997 -0.2536 -0.6193
40841SOL     OW25927   5.049   4.439   2.058  0.2525 -0.0809  0.1625
40841SOL    HW125928   5.129   4.397   2.025 -0.1788 -1.6694  1.0811
40841SOL    HW225929   5.080   4.516   2.105  1.1244  0.2117 -0.8635
40842SOL     OW25930   9.261   8.884   0.993  0.2208 -0.7549 -0.0409
40842SOL    HW125931   9.302   8.800   0.973 -0.0077 -0.4763 -1.7377
40842SOL    HW225932   9.168   8.864   1.003  0.6229 -1.3118  3.3652
40843SOL     OW25933   3.159   3.103   7.462  0.4353  0.2535 -0.2318
40843SOL    HW125934   3.110   3.031   7.502 -1.4012  1.6455  0.0777
40843SOL    HW225935   3.096   3.144   7.402  1.6576  1.2052 -0.8747
40844SOL     OW25936   0.374   6.730   3.180 -0.3649 -0.0648  0.7647
40844SOL    HW125937   0.431   6.659   3.150  0.3814  0.1960  1.5580
40844SOL    HW225938   0.323   6.691   3.252 -0.1432  0.1348  1.0268
40845SOL     OW25939   0.359   8.728   1.727 -0.2471  0.1695  0.2415
40845SOL    HW125940   0.360   8.646   1.678  1.4893  0.9616 -1.0772
40845SOL    HW225941   0.293   8.714   1.795 -2.7640 -0.9249 -2.3434
40846SOL     OW25942   6.145   3.176   5.197  0.3807  0.2844 -0.0386
40846SOL    HW125943   6.209   3.106   5.185  2.2790  1.9820 -0.0451
40846SOL    HW225944   6.092   3.175   5.118  0.7628 -0.7648 -0.2840
40847SOL     OW25945   6.945   3.563   0.844  0.5820 -0.2698  0.2806
40847SOL    HW125946   6.938   3.468   0.834 -1.1486 -0.2115  0.8156
40847SOL    HW225947   6.880   3.585   0.911  1.2811  1.2386  0.4851
40848SOL     OW25948   5.933   8.967   0.216 -0.0304 -0.2483 -0.0740
40848SOL    HW125949   6.005   9.025   0.191  0.5478 -0.9367 -0.0469
40848SOL    HW225950   5.939   8.894   0.154  0.9840 -1.6294  1.5753
40849SOL     OW25951   7.186   3.539   7.114 -0.2206  0.3828  0.3782
40849SOL    HW125952   7.112   3.513   7.170 -1.3322  1.5990 -0.4901
40849SOL    HW225953   7.215   3.458   7.073 -0.9248 -0.1462  0.9173
40850SOL     OW25954   8.429  10.587   2.731  0.2314  0.1410 -0.5811
40850SOL    HW125955   8.448  10.652   2.664  2.0529 -0.8503 -1.0640
40850SOL    HW225956   8.335  10.592   2.744  0.3285  2.7689 -0.7053
40851SOL     OW25957   9.231   9.599   9.885  0.2480  0.3087 -0.0361
40851SOL    HW125958   9.293   9.561   9.947 -0.9612 -1.3784  0.1629
40851SOL    HW225959   9.283   9.621   9.808  0.8416 -2.3926 -0.4247
40852SOL     OW25960   6.069   9.741   9.451  0.0050 -0.5637  0.1179
40852SOL    HW125961   5.996   9.762   9.393 -0.2550  1.2016  1.0637
40852SOL    HW225962   6.040   9.663   9.498 -2.2386  1.3712  2.0756
40853SOL     OW25963   4.787   6.601   0.815 -0.1453  0.0996  0.4561
40853SOL    HW125964   4.833   6.566   0.739 -0.1221 -2.1242  1.4500
40853SOL    HW225965   4.722   6.535   0.837 -0.4602  0.9243  2.0929
40854SOL     OW25966   6.232   6.871   2.367 -0.2163 -0.3516 -0.0152
40854SOL    HW125967   6.160   6.835   2.419  0.9838 -0.9820  1.2372
40854SOL    HW225968   6.280   6.794   2.336 -2.0885 -0.0886 -3.8230
40855SOL     OW25969   8.199   3.182   3.467  0.2510  0.1460 -0.3153
40855SOL    HW125970   8.260   3.175   3.541  0.2249 -0.2987 -0.3361
40855SOL    HW225971   8.153   3.265   3.482  2.3213  1.5285 -1.4188
40856SOL     OW25972   8.822   8.115   7.973  0.0262  0.3390  0.1311
40856SOL    HW125973   8.882   8.041   7.983 -0.6489 -0.1494  0.6395
40856SOL    HW225974   8.784   8.104   7.886 -0.1317  0.0294  0.2345
40857SOL     OW25975   2.373   0.277   2.549  0.0229  0.9609  0.5974
40857SOL    HW125976   2.430   0.279   2.473 -0.1510 -1.7858  0.3154
40857SOL    HW225977   2.426   0.311   2.621  1.0235  1.1757 -0.2428
40858SOL     OW25978   1.343   0.987   6.630 -0.2280  0.0016  0.7683
40858SOL    HW125979   1.326   0.921   6.697 -0.5884 -1.3908 -0.6857
40858SOL    HW225980   1.265   0.986   6.575  0.3766  0.6158 -0.1077
40859SOL     OW25981   6.800   8.407   0.376 -0.6871  0.1286  0.5522
40859SOL    HW125982   6.713   8.385   0.342 -0.3875  0.3221 -0.3382
40859SOL    HW225983   6.824   8.487   0.330 -1.2696  1.7232  2.9410
40860SOL     OW25984   6.749   4.026   1.480 -0.1841  0.1689 -0.2470
40860SOL    HW125985   6.667   4.071   1.501  0.8527  1.3862  1.2322
40860SOL    HW225986   6.780   3.993   1.564 -0.6496 -2.9221 -1.2037
40861SOL     OW25987  10.524   9.677   0.333  0.1041 -0.1639  0.2376
40861SOL    HW125988  10.513   9.719   0.248  3.5715  1.6330  0.5972
40861SOL    HW225989  10.571   9.596   0.314  1.7442  0.7050  0.5039
40862SOL     OW25990   6.201   8.991   7.397 -0.0015 -0.8807  0.1892
40862SOL    HW125991   6.226   9.033   7.315 -1.7171  0.6885  0.4451
40862SOL    HW225992   6.223   9.054   7.465  0.4182 -1.7371  0.8666
40863SOL     OW25993   8.915   2.663   6.130 -0.4625 -0.0956  0.3114
40863SOL    HW125994   8.946   2.706   6.051 -0.7874  0.3601  0.4312
40863SOL    HW225995   8.868   2.586   6.099  0.2504 -0.4551  0.1014
40864SOL     OW25996   5.520   1.317   2.907  0.2546 -0.4909  0.3064
40864SOL    HW125997   5.482   1.392   2.953 -2.9813 -2.2893  0.7118
40864SOL    HW225998   5.585   1.282   2.968  0.2018  0.6554  1.0365
40865SOL     OW25999   0.589   9.635   2.192 -0.3649 -0.3678 -0.0175
40865SOL    HW126000   0.631   9.699   2.135  1.0210  0.5045  1.9145
40865SOL    HW226001   0.532   9.687   2.248  0.0835 -0.9146  0.9611
40866SOL     OW26002   5.011   7.826   2.843  0.2843 -0.2267  0.0443
40866SOL    HW126003   5.040   7.758   2.904 -0.1390  0.3262  0.8662
40866SOL    HW226004   4.942   7.784   2.791 -0.0280 -0.4106  0.6032
40867SOL     OW26005   2.062   5.349   4.054  0.4810  0.0519  0.1438
40867SOL    HW126006   2.008   5.407   4.108 -1.3662 -0.1942 -1.4071
40867SOL    HW226007   2.062   5.266   4.102 -0.3470  0.1066  0.2414
40868SOL     OW26008   4.999   6.028   5.319  0.3387 -0.2033  0.1680
40868SOL    HW126009   5.071   5.973   5.349  0.9357 -0.0141 -0.9091
40868SOL    HW226010   4.984   6.001   5.229  0.5652  1.2960 -0.3335
40869SOL     OW26011   8.779   6.129   9.141  0.0589 -0.3065  0.6881
40869SOL    HW126012   8.830   6.074   9.082  0.6424  1.0914 -0.1606
40869SOL    HW226013   8.697   6.082   9.153  0.2523 -1.0130 -0.6042
40870SOL     OW26014   2.567   6.766   7.443 -0.2649  0.2707  0.0248
40870SOL    HW126015   2.559   6.744   7.535 -1.4586 -0.7076 -0.3054
40870SOL    HW226016   2.656   6.740   7.420 -1.0468 -2.6644  0.0898
40871SOL     OW26017   5.312   6.138  10.912  0.0609 -0.3989 -0.1799
40871SOL    HW126018   5.250   6.114  10.981 -0.0484  0.0816 -0.1096
40871SOL    HW226019   5.286   6.226  10.886 -0.8909 -1.1884 -1.9502
40872SOL     OW26020   4.065   4.178   8.152 -0.4485  0.0227 -0.6401
40872SOL    HW126021   4.063   4.129   8.069 -1.4364 -0.1070 -0.5417
40872SOL    HW226022   3.980   4.221   8.156 -0.2596  0.3216  0.1394
40873SOL     OW26023  10.340   2.731   5.529  0.1386 -0.0227 -0.3359
40873SOL    HW126024  10.390   2.786   5.470  1.6539  0.3897  1.2906
40873SOL    HW226025  10.334   2.647   5.484  1.9012  0.0692 -0.7793
40874SOL     OW26026   1.432   4.305   7.689 -0.4769 -0.3523 -0.0722
40874SOL    HW126027   1.498   4.374   7.679  0.4078 -0.7430  2.6835
40874SOL    HW226028   1.483   4.225   7.703 -1.5241 -1.1349 -0.6207
40875SOL     OW26029   8.149   6.071   9.374 -0.1098  0.2751 -0.0612
40875SOL    HW126030   8.095   6.053   9.296 -0.3628  4.2779 -0.8952
40875SOL    HW226031   8.085   6.091   9.443  0.1945 -0.3005  0.3923
40876SOL     OW26032   9.770   3.405   0.321 -0.7116 -0.3857  0.4213
40876SOL    HW126033   9.698   3.408   0.384 -0.8564  0.9831  0.2111
40876SOL    HW226034   9.764   3.488   0.274  1.5398  0.1626  1.0265
40877SOL     OW26035   2.785   5.453  10.869 -0.4246  0.1586 -0.0757
40877SOL    HW126036   2.723   5.420  10.804 -1.4868  1.7336  0.1099
40877SOL    HW226037   2.772   5.548  10.868  1.3028  0.4164  0.6656
40878SOL     OW26038   7.579   8.016   8.923  0.6099 -0.9180 -0.0209
40878SOL    HW126039   7.654   7.967   8.957  1.8368  0.5729 -0.5205
40878SOL    HW226040   7.570   7.986   8.832  1.2446 -0.3717 -0.2683
40879SOL     OW26041   6.132   3.591  10.693  0.0884  0.2379  0.1348
40879SOL    HW126042   6.076   3.520  10.660  0.0441  0.8615 -1.1616
40879SOL    HW226043   6.071   3.655  10.728  0.0774  0.0766  0.4097
40880SOL     OW26044   9.941  10.737   2.047 -0.0409 -0.1892  0.1886
40880SOL    HW126045   9.900  10.723   1.962  2.4388 -0.8434 -0.9572
40880SOL    HW226046   9.939  10.832   2.059  4.2573  0.4831 -3.1301
40881SOL     OW26047   1.693  10.793   5.494 -0.5076 -0.5748 -0.1782
40881SOL    HW126048   1.670  10.871   5.544 -0.3717 -1.0096  0.5724
40881SOL    HW226049   1.669  10.814   5.403 -1.9562 -0.2586  0.2707
40882SOL     OW26050   3.150   5.567   9.839 -0.2291 -0.1841 -0.3337
40882SOL    HW126051   3.105   5.561   9.923  0.0482  0.9406 -0.1050
40882SOL    HW226052   3.087   5.532   9.776 -0.8554 -0.0094  0.1904
40883SOL     OW26053   1.978   2.305   1.762  0.7265 -0.9438  0.6567
40883SOL    HW126054   1.896   2.340   1.727  0.5347 -1.9189  0.1269
40883SOL    HW226055   1.953   2.264   1.845  0.9321  0.0388  1.2186
40884SOL     OW26056   6.211   7.664  10.696  0.2311 -0.0426  0.7505
40884SOL    HW126057   6.279   7.693  10.636 -0.2257  1.6573  1.0391
40884SOL    HW226058   6.259   7.624  10.769  0.8721  0.2557  0.4954
40885SOL     OW26059   5.627   3.923   1.084  0.4438  0.5460 -0.2555
40885SOL    HW126060   5.588   4.008   1.102 -0.4440 -0.3099  2.0470
40885SOL    HW226061   5.559   3.874   1.038  0.7659  0.8876 -1.1036
40886SOL     OW26062   5.875   9.120   1.711  0.0024 -0.0395  0.2511
40886SOL    HW126063   5.909   9.032   1.729  1.1799  0.6067  1.2496
40886SOL    HW226064   5.849   9.117   1.619  1.6731 -0.9296 -0.2219
40887SOL     OW26065   9.395   0.475   1.103 -0.0422 -0.5951 -0.5705
40887SOL    HW126066   9.446   0.398   1.078  0.7811 -0.0973 -0.4298
40887SOL    HW226067   9.372   0.461   1.195 -0.5681 -1.0352 -0.7604
40888SOL     OW26068   6.006   9.442   6.076 -0.3764 -0.3580  0.0856
40888SOL    HW126069   6.009   9.471   6.167 -1.8270  1.0285 -0.2763
40888SOL    HW226070   6.072   9.495   6.032  1.4856 -2.1811  0.6016
40889SOL     OW26071  10.636   3.032   4.116  0.0179 -0.2268 -0.0203
40889SOL    HW126072  10.651   3.011   4.208 -1.3916 -0.5578  0.1449
40889SOL    HW226073  10.678   3.117   4.104 -1.1563  0.5761  1.3414
40890SOL     OW26074   6.189   3.682   2.402  0.0200 -0.5759 -0.2395
40890SOL    HW126075   6.184   3.604   2.348 -2.4974 -0.1804 -0.6190
40890SOL    HW226076   6.111   3.679   2.458 -0.0960  1.6178 -0.2161
40891SOL     OW26077   4.953   1.020   5.684 -0.6205  0.5171 -0.1442
40891SOL    HW126078   4.860   1.043   5.683 -0.6040  0.5939 -0.0564
40891SOL    HW226079   4.988   1.055   5.602 -0.5241  1.1205  0.1501
40892SOL     OW26080   5.590   8.231   1.433  0.0268 -0.1025 -0.2538
40892SOL    HW126081   5.578   8.300   1.498 -1.6313 -0.6781  0.0720
40892SOL    HW226082   5.503   8.219   1.395  0.6812 -0.7903 -1.5486
40893SOL     OW26083   3.007   4.184   7.958 -0.0883  0.0588  0.2562
40893SOL    HW126084   3.055   4.101   7.950  1.0316  0.6037  1.1788
40893SOL    HW226085   3.033   4.218   8.044  0.6705  2.1320 -0.7602
40894SOL     OW26086   8.063  10.781   1.397  0.3137  0.5989 -0.0919
40894SOL    HW126087   8.032  10.867   1.367 -0.3165 -0.5427 -2.9076
40894SOL    HW226088   7.984  10.726   1.397  1.0329 -0.4597 -0.2178
40895SOL     OW26089  10.067   7.329   6.436  0.5820 -0.0775  0.7128
40895SOL    HW126090  10.139   7.275   6.468  0.8102  0.5876  1.3009
40895SOL    HW226091  10.044   7.289   6.352  1.6663 -0.2549  0.4950
40896SOL     OW26092   7.841   0.701   4.754 -0.3582  0.1644 -0.3460
40896SOL    HW126093   7.924   0.735   4.722 -0.3106  1.0381  0.6915
40896SOL    HW226094   7.866   0.630   4.814 -0.3268  1.1146  0.7678
40897SOL     OW26095   3.940  10.043   0.743 -0.0451  0.7085  0.0442
40897SOL    HW126096   3.884  10.003   0.809  0.3449 -1.0879 -0.6559
40897SOL    HW226097   3.885  10.108   0.700 -1.5568 -0.9055 -0.5157
40898SOL     OW26098   5.028   6.909   7.405  0.1682  0.4334  0.1489
40898SOL    HW126099   4.968   6.860   7.349  2.5095 -0.4890 -1.6017
40898SOL    HW226100   5.018   6.869   7.491 -1.0264 -0.3212 -0.3275
40899SOL     OW26101   9.340   8.799   7.463 -0.1706  0.2492  0.3351
40899SOL    HW126102   9.289   8.743   7.522  1.1800  0.9597  2.2383
40899SOL    HW226103   9.416   8.746   7.441  1.4589  1.5112  2.6946
40900SOL     OW26104   5.137   4.944   8.429 -0.1209  0.2622  0.2385
40900SOL    HW126105   5.067   5.007   8.416 -0.0055  0.1306 -1.1222
40900SOL    HW226106   5.094   4.858   8.421  0.1353  0.1823 -0.3642
40901SOL     OW26107  10.397   6.308   9.553 -0.4787  0.1744  0.4270
40901SOL    HW126108  10.471   6.254   9.577 -0.6722  0.2918  1.2844
40901SOL    HW226109  10.424   6.397   9.573 -1.0543  0.1655  1.2599
40902SOL     OW26110   2.271   5.854   6.290  0.0413 -0.2452  0.4317
40902SOL    HW126111   2.185   5.865   6.330 -1.7772 -1.0432 -3.0721
40902SOL    HW226112   2.281   5.759   6.281  0.1483 -0.0860 -1.4008
40903SOL     OW26113   2.751   8.214   1.311 -0.8664 -0.4211 -0.1770
40903SOL    HW126114   2.716   8.172   1.389  1.1033  0.3357  1.1600
40903SOL    HW226115   2.763   8.143   1.248 -0.2482 -1.4254  1.0461
40904SOL     OW26116   3.229   4.943   9.756 -0.1817  0.4831 -0.2723
40904SOL    HW126117   3.219   5.005   9.829  0.2952 -0.6536  0.7864
40904SOL    HW226118   3.170   4.871   9.779 -0.5973  0.4544 -1.4003
40905SOL     OW26119   2.564   4.450   8.276  0.4534 -0.7343  0.1478
40905SOL    HW126120   2.551   4.432   8.183 -0.3444  1.2569 -0.1631
40905SOL    HW226121   2.531   4.539   8.288  1.2924 -0.6599  2.1774
40906SOL     OW26122   6.180   5.855   7.544  0.3850  0.0954  0.2016
40906SOL    HW126123   6.211   5.837   7.455  0.1938  0.7507 -0.0036
40906SOL    HW226124   6.092   5.818   7.547  0.3589  0.1460  0.0886
40907SOL     OW26125   4.932   7.899   3.148  0.2612  0.4641 -0.0899
40907SOL    HW126126   4.998   7.853   3.097 -1.3207 -1.8293 -0.1702
40907SOL    HW226127   4.865   7.924   3.084 -0.6520 -0.4144  0.5113
40908SOL     OW26128  10.761   0.505   3.941 -0.2775 -0.3475 -0.5375
40908SOL    HW126129  10.848   0.540   3.960 -1.0803  1.1334  0.5622
40908SOL    HW226130  10.758   0.422   3.988  0.8545 -0.8223 -1.3072
40909SOL     OW26131   0.147  10.295   7.877 -0.1806  0.2666  0.2558
40909SOL    HW126132   0.085  10.358   7.842  0.8804  0.9654 -0.4058
40909SOL    HW226133   0.228  10.310   7.827  0.3664 -0.9706  0.7320
40910SOL     OW26134   6.851   5.104   0.928  0.0895 -0.6000 -0.2204
40910SOL    HW126135   6.918   5.126   0.993 -1.4220  0.6198  0.9719
40910SOL    HW226136   6.846   5.009   0.929  1.7511 -0.6936 -0.2656
40911SOL     OW26137   8.850   7.188   0.802 -0.1101 -0.1635  0.2797
40911SOL    HW126138   8.780   7.217   0.861  0.8859 -0.7507  1.7872
40911SOL    HW226139   8.852   7.253   0.733 -2.0476 -0.0460  0.2988
40912SOL     OW26140  10.864   6.401  10.090 -0.1820  0.0949  0.4122
40912SOL    HW126141  10.778   6.360  10.084  0.6739 -1.6585 -0.4536
40912SOL    HW226142  10.923   6.329  10.114  1.0559  1.2489  0.9404
40913SOL     OW26143  10.258   3.886   9.726  0.0160  0.0241  0.4080
40913SOL    HW126144  10.220   3.800   9.707 -2.3615  0.6843  1.9682
40913SOL    HW226145  10.342   3.866   9.768  1.3473 -1.4658 -2.7732
40914SOL     OW26146   2.375   8.740   7.904 -0.1460  0.7903 -0.2157
40914SOL    HW126147   2.449   8.716   7.848  0.1703  3.9901 -1.2492
40914SOL    HW226148   2.312   8.669   7.891  1.6526 -0.6594 -1.3387
40915SOL     OW26149   9.343   4.447   4.265 -0.2449  0.2706  0.3131
40915SOL    HW126150   9.326   4.540   4.277 -0.2150  0.2299  0.6731
40915SOL    HW226151   9.270   4.403   4.309 -1.6162  0.1464 -2.0001
40916SOL     OW26152   3.438   9.259  10.581 -0.3610  0.6325  0.0121
40916SOL    HW126153   3.456   9.333  10.638 -0.3544  1.2176 -0.7489
40916SOL    HW226154   3.464   9.182  10.632  1.0975  1.2494  0.1974
40917SOL     OW26155   7.932  10.621   6.059 -0.2631 -0.7054  0.2895
40917SOL    HW126156   7.882  10.591   5.983  0.0090 -2.8002  0.9045
40917SOL    HW226157   8.022  10.595   6.039  0.2864  1.3245  0.0498
40918SOL     OW26158   6.144   5.464   0.122 -0.3256  0.1090 -0.2643
40918SOL    HW126159   6.233   5.458   0.157 -0.1554  0.9708 -0.5373
40918SOL    HW226160   6.097   5.392   0.163  0.8311 -1.1522 -1.1187
40919SOL     OW26161   9.007   0.104   7.174  0.2298 -0.3801 -0.9187
40919SOL    HW126162   9.063   0.155   7.115  1.4021  0.7055  1.0546
40919SOL    HW226163   9.014   0.014   7.143  1.6862  0.0123 -1.7701
40920SOL     OW26164   3.417   7.425  10.509 -0.1495 -0.5427 -0.4418
40920SOL    HW126165   3.396   7.484  10.437  1.5503  0.0862 -0.4584
40920SOL    HW226166   3.383   7.469  10.587 -0.0281 -0.1556 -0.6071
40921SOL     OW26167   7.758   5.147   0.538 -0.1416 -0.2278 -0.4409
40921SOL    HW126168   7.715   5.104   0.612 -1.5903  1.4132 -0.2945
40921SOL    HW226169   7.826   5.202   0.578  0.1011 -0.5084 -0.4596
40922SOL     OW26170   8.570   1.713   2.768 -0.0939  0.4706  0.3153
40922SOL    HW126171   8.607   1.633   2.730  1.0392  1.0506  0.1765
40922SOL    HW226172   8.646   1.761   2.802 -0.9555  0.5008  2.3127
40923SOL     OW26173   6.828   7.683   1.726 -0.3397 -0.2242  0.5403
40923SOL    HW126174   6.825   7.779   1.719 -0.5734 -0.1835  1.2270
40923SOL    HW226175   6.785   7.663   1.809 -0.6433 -0.9495  0.2138
40924SOL     OW26176   8.782   6.730   9.281  0.0362  0.3538  0.1422
40924SOL    HW126177   8.764   6.642   9.247 -0.2808  0.4113  0.1650
40924SOL    HW226178   8.727   6.738   9.359  0.2301  0.4908  0.2657
40925SOL     OW26179   6.219  10.119   4.000 -0.6073  0.1116 -0.3178
40925SOL    HW126180   6.286  10.125   4.068 -1.2046  1.4651  0.1571
40925SOL    HW226181   6.246  10.182   3.934 -0.8689 -0.0815 -0.6119
40926SOL     OW26182  10.113   2.760   3.406 -0.5642 -0.2813 -0.0634
40926SOL    HW126183  10.101   2.844   3.451 -0.5605 -0.6582  0.6441
40926SOL    HW226184  10.200   2.731   3.432 -0.3860 -0.2950 -0.6652
40927SOL     OW26185   0.040   9.303   1.219  0.5436 -0.3490  0.4404
40927SOL    HW126186   0.125   9.257   1.222  2.5116  3.2009  3.4647
40927SOL    HW226187   0.004   9.292   1.306 -0.3879  1.2201  0.2751
40928SOL     OW26188   1.002   7.398   9.834 -0.1899  0.0680 -0.0149
40928SOL    HW126189   0.910   7.372   9.836  0.4088 -2.2359 -0.9593
40928SOL    HW226190   1.016   7.428   9.744  0.4669 -1.5093 -0.4525
40929SOL     OW26191   3.335   2.733   4.343  0.3171  0.2583 -0.3300
40929SOL    HW126192   3.317   2.811   4.291 -1.6249 -1.6000 -2.5536
40929SOL    HW226193   3.302   2.661   4.291  2.4090 -2.1357  1.4981
40930SOL     OW26194   4.556   9.950   3.784 -0.0133  0.3635 -0.0962
40930SOL    HW126195   4.565  10.045   3.772 -0.1287  0.5232  1.0348
40930SOL    HW226196   4.598   9.932   3.868  0.3221 -0.6433 -0.4713
40931SOL     OW26197   0.873   1.813   5.374  0.2672  0.3554 -0.3768
40931SOL    HW126198   0.843   1.758   5.447 -1.3118 -0.1677 -1.3989
40931SOL    HW226199   0.890   1.899   5.414 -0.3595  0.0144  0.6406
40932SOL     OW26200   4.911   5.998   1.471  0.4692  0.1564  0.5870
40932SOL    HW126201   4.878   6.072   1.522  1.9202  0.2420  1.4125
40932SOL    HW226202   4.960   5.945   1.533 -0.0049 -1.1672 -0.1438
40933SOL     OW26203  10.029   1.296   0.615  1.0959  0.1375 -0.4518
40933SOL    HW126204   9.964   1.344   0.667  0.4917  0.1747 -1.2195
40933SOL    HW226205  10.070   1.362   0.560  2.3153  0.2317  0.5474
40934SOL     OW26206   5.670   2.503   7.290  0.0707 -0.2343  0.4465
40934SOL    HW126207   5.604   2.444   7.253  0.1742 -0.8903  1.3075
40934SOL    HW226208   5.634   2.528   7.376  0.2015  0.6571  0.2474
40935SOL     OW26209   5.941   3.516   3.105  0.3765  0.2475  0.5568
40935SOL    HW126210   5.989   3.577   3.049 -0.4772  0.7979  0.4104
40935SOL    HW226211   5.983   3.432   3.090  0.2632  0.4218 -0.8068
40936SOL     OW26212  10.279  10.901   5.172 -0.4394 -0.1047  0.6448
40936SOL    HW126213  10.345  10.968   5.189 -1.8597  1.4557  0.0222
40936SOL    HW226214  10.317  10.849   5.100 -0.4940  1.6455 -0.6776
40937SOL     OW26215   4.508   7.695  10.005  0.2509  0.5230 -0.4851
40937SOL    HW126216   4.551   7.776  10.032  0.4827  0.2582 -0.0700
40937SOL    HW226217   4.466   7.718   9.921 -1.5943  1.7231  0.7136
40938SOL     OW26218   1.921   7.318   7.943 -0.3539  0.5733  0.1750
40938SOL    HW126219   1.883   7.358   8.021 -1.5838 -0.6562  0.2442
40938SOL    HW226220   2.001   7.276   7.974 -1.1268 -0.3828  0.9043
40939SOL     OW26221   1.400   1.845  10.741  0.0379  0.2350  0.2898
40939SOL    HW126222   1.423   1.830  10.833 -1.0617  0.9328  0.6900
40939SOL    HW226223   1.359   1.932  10.741 -0.2189  0.1158 -0.8152
40940SOL     OW26224   6.940   3.181   4.120  0.1519 -0.0301 -0.6528
40940SOL    HW126225   6.988   3.114   4.169 -0.9588 -0.8236 -0.6520
40940SOL    HW226226   6.921   3.249   4.185  0.5393 -0.0938 -0.4703
40941SOL     OW26227  10.223   8.651   2.122  0.2977  0.1070 -0.3728
40941SOL    HW126228  10.212   8.740   2.089  0.3714  0.6891  1.1509
40941SOL    HW226229  10.315   8.630   2.102  1.0215  1.3340  1.5250
40942SOL     OW26230   7.880   2.482   7.856  0.0046  0.0224 -0.0059
40942SOL    HW126231   7.810   2.417   7.850 -0.4666  0.5870 -0.8741
40942SOL    HW226232   7.840   2.555   7.904  0.5529 -0.3504  1.0308
40943SOL     OW26233   5.727   8.052   6.095 -0.2729  0.2113  0.3115
40943SOL    HW126234   5.641   8.049   6.137 -0.8912 -0.5996 -0.9793
40943SOL    HW226235   5.754   8.143   6.102 -0.2388  0.0477  2.6792
40944SOL     OW26236  10.923   9.540   0.683  0.3614  0.5272 -0.1455
40944SOL    HW126237  10.904   9.456   0.724  0.5851  0.0452 -1.0270
40944SOL    HW226238  10.847   9.557   0.627  0.5482  0.6756 -0.3529
40945SOL     OW26239   1.297   3.596   7.031  0.0909  0.4502  0.1118
40945SOL    HW126240   1.249   3.514   7.044 -0.7976  1.0084  0.4556
40945SOL    HW226241   1.385   3.569   7.005  0.8124 -0.6482  3.5620
40946SOL     OW26242   1.983   1.539  10.662  0.2051 -0.1698 -0.9238
40946SOL    HW126243   2.012   1.566  10.575  0.5490  0.8661 -0.4980
40946SOL    HW226244   1.914   1.474  10.646  0.2440  0.0395 -1.9592
40947SOL     OW26245   4.597   3.897   3.934  0.1928  0.1056  0.4823
40947SOL    HW126246   4.654   3.823   3.917  0.3190 -0.0710  1.6056
40947SOL    HW226247   4.583   3.938   3.849 -0.4017 -1.5817 -0.2534
40948SOL     OW26248   8.164   8.928   7.836 -0.0641 -0.0046 -0.2554
40948SOL    HW126249   8.153   8.950   7.929 -3.5123 -0.1226 -0.5784
40948SOL    HW226250   8.183   9.013   7.795  0.7435  0.1605  0.4187
40949SOL     OW26251   7.788   7.271   2.827  0.1447  0.2337 -0.3479
40949SOL    HW126252   7.811   7.360   2.800  0.5845  0.0695 -0.5232
40949SOL    HW226253   7.693   7.270   2.828  0.1150  0.3099 -1.6932
40950SOL     OW26254   1.172   3.929   4.047 -0.3362 -0.6820 -0.6975
40950SOL    HW126255   1.111   3.982   3.996  0.8582 -0.8852 -2.3533
40950SOL    HW226256   1.174   3.845   4.003  1.0130 -0.7305 -0.5619
40951SOL     OW26257   2.592  10.376   0.389  0.1683  0.5552 -0.5644
40951SOL    HW126258   2.564  10.285   0.399  0.4009  0.5201 -0.2252
40951SOL    HW226259   2.603  10.408   0.479 -1.1116  1.2846 -0.6552
40952SOL     OW26260  10.547   2.970   7.830 -0.5883  0.0606  0.0036
40952SOL    HW126261  10.514   3.012   7.750 -0.4170  0.1543 -0.0178
40952SOL    HW226262  10.477   2.911   7.856 -0.5526 -0.1311 -0.3365
40953SOL     OW26263   4.733   4.661   0.192 -0.4221 -0.0265 -0.5238
40953SOL    HW126264   4.654   4.715   0.193  0.0476  0.6762 -1.1238
40953SOL    HW226265   4.756   4.652   0.099 -0.0563 -0.6103 -0.3838
40954SOL     OW26266   3.978   0.743   2.816  0.2272  0.0343 -0.1674
40954SOL    HW126267   3.901   0.691   2.837 -0.5953  0.6870 -1.4593
40954SOL    HW226268   4.048   0.707   2.870 -0.9525 -0.6631  0.9134
40955SOL     OW26269   4.957   7.290   5.895  0.2366  0.5273  0.6052
40955SOL    HW126270   4.984   7.199   5.903 -1.7982 -0.0368  1.3083
40955SOL    HW226271   4.862   7.287   5.886  0.1729  2.5577  0.1495
40956SOL     OW26272   9.846   6.925   1.789  0.0917 -0.0287  0.1576
40956SOL    HW126273   9.821   6.859   1.853  1.1369 -1.4477 -0.8684
40956SOL    HW226274   9.763   6.954   1.752 -0.3288 -1.6915 -0.2706
40957SOL     OW26275   8.448   6.401   7.627  0.3257  0.0914  0.0041
40957SOL    HW126276   8.359   6.367   7.630  0.4165 -0.1425  0.0561
40957SOL    HW226277   8.438   6.493   7.603  0.1447 -0.2302 -1.1362
40958SOL     OW26278   8.233   0.791   7.677  0.1968 -0.1017  0.1734
40958SOL    HW126279   8.187   0.745   7.747 -1.2079  0.2159 -0.5302
40958SOL    HW226280   8.190   0.761   7.597 -0.2229  1.8390 -0.3455
40959SOL     OW26281   7.406   3.065   9.984 -0.1193 -0.4073  0.5134
40959SOL    HW126282   7.501   3.073   9.991 -0.0563  0.8192 -1.4238
40959SOL    HW226283   7.392   2.994   9.922 -0.4585  0.2842 -0.1995
40960SOL     OW26284   1.001   0.623   9.437 -0.2636 -0.0464 -0.0904
40960SOL    HW126285   1.093   0.649   9.442 -0.4171  0.3060  1.0931
40960SOL    HW226286   0.990   0.560   9.508 -1.1901  0.7321  0.4690
40961SOL     OW26287  10.711  10.467   2.366 -0.0080 -0.2873  0.7713
40961SOL    HW126288  10.642  10.442   2.305  0.8175  1.2493 -0.8415
40961SOL    HW226289  10.792  10.444   2.321  0.6183  1.0781  1.1568
40962SOL     OW26290   6.968   7.261   1.065  0.2757 -0.1090  0.5164
40962SOL    HW126291   6.980   7.166   1.054  0.2869  0.1217 -1.8509
40962SOL    HW226292   7.055   7.297   1.047 -0.1449  0.4547 -0.4286
40963SOL     OW26293   6.252  10.504   7.935  0.0456  0.1556  0.5620
40963SOL    HW126294   6.178  10.527   7.991 -0.2395 -0.1159  0.2927
40963SOL    HW226295   6.282  10.588   7.900  0.3302  0.3471  1.2469
40964SOL     OW26296   0.671   0.753   1.962  0.3205  0.0028  0.2908
40964SOL    HW126297   0.630   0.839   1.956  0.7554  0.1362 -0.8828
40964SOL    HW226298   0.618   0.705   2.026  0.2332  1.2248  1.1545
40965SOL     OW26299   8.883   4.670   3.748 -0.7978  0.1016 -0.2435
40965SOL    HW126300   8.800   4.716   3.743 -0.1230  1.4822  1.0175
40965SOL    HW226301   8.949   4.739   3.747  0.3623 -0.9870 -1.5450
40966SOL     OW26302   8.899  10.419   8.065  0.0863 -0.3675  0.0358
40966SOL    HW126303   8.953  10.497   8.065 -1.1258  0.4964  0.2044
40966SOL    HW226304   8.867  10.411   8.155  1.2724 -1.8210  0.3394
40967SOL     OW26305  10.455   0.599   2.295 -0.3358 -0.7631 -0.7055
40967SOL    HW126306  10.547   0.627   2.293 -1.1694  2.1715  0.1460
40967SOL    HW226307  10.439   0.577   2.386 -0.7984 -0.0806 -0.6168
40968SOL     OW26308   3.967   8.248   0.824  0.4889 -0.1723 -0.1183
40968SOL    HW126309   3.973   8.237   0.729  0.4567  1.0595 -0.2742
40968SOL    HW226310   4.030   8.318   0.844 -1.0616  1.0856  0.4670
40969SOL     OW26311  10.321   3.601   0.476 -0.3980 -0.2679 -0.2436
40969SOL    HW126312  10.390   3.605   0.409 -1.4296  0.9439 -1.2470
40969SOL    HW226313  10.270   3.524   0.452 -1.5946  0.9484 -1.6932
40970SOL     OW26314   4.314   5.197   9.633 -0.4517 -0.3256 -0.3561
40970SOL    HW126315   4.288   5.288   9.623 -0.4214 -0.3591 -0.7637
40970SOL    HW226316   4.328   5.185   9.727  2.1145  0.8097 -0.5585
40971SOL     OW26317   2.472   1.515   4.294  0.4328 -0.3454 -0.0387
40971SOL    HW126318   2.536   1.510   4.366  2.3774 -0.6983 -1.7512
40971SOL    HW226319   2.394   1.553   4.335  2.1511  1.3402  1.8363
40972SOL     OW26320   5.816   2.661   7.121 -0.0672  0.3539 -0.5158
40972SOL    HW126321   5.784   2.606   7.193  1.9532 -0.5399 -0.2618
40972SOL    HW226322   5.738   2.682   7.071 -1.4302  0.4549  1.5778
40973SOL     OW26323   8.488   2.488   8.493  0.0177  0.5013  0.0110
40973SOL    HW126324   8.451   2.471   8.406 -0.5703  1.5093  0.0601
40973SOL    HW226325   8.501   2.400   8.530 -0.4693  0.0810 -0.7833
40974SOL     OW26326   3.355   2.213   8.753  0.8487 -0.3728 -0.4268
40974SOL    HW126327   3.273   2.164   8.757  0.6355  0.0448  0.3675
40974SOL    HW226328   3.411   2.160   8.696  0.0213 -0.6415 -0.9946
40975SOL     OW26329   4.086   2.871   6.210  0.3569 -0.2144  0.1608
40975SOL    HW126330   4.101   2.870   6.115  1.3344  1.1150  0.2877
40975SOL    HW226331   4.165   2.910   6.246 -0.1668 -0.3805  1.5077
40976SOL     OW26332   5.903   6.451  10.294  0.1121  0.4308  0.2419
40976SOL    HW126333   5.818   6.492  10.312 -1.1392 -1.7968 -0.3271
40976SOL    HW226334   5.914   6.388  10.364  1.0250  0.3140 -0.0071
40977SOL     OW26335   5.329   9.555   7.164 -0.3981 -0.1900  0.2063
40977SOL    HW126336   5.310   9.510   7.246 -1.1997 -1.0581 -0.4438
40977SOL    HW226337   5.253   9.612   7.150  0.0266  0.4274  0.3785
40978SOL     OW26338   9.008   0.100  10.621 -0.0282 -0.0956 -0.5436
40978SOL    HW126339   8.982   0.019  10.578  0.6868 -0.3855 -0.4330
40978SOL    HW226340   8.980   0.169  10.560 -1.9790 -0.3300  0.0337
40979SOL     OW26341   5.675   2.259   2.449 -0.4103  0.0650  0.2624
40979SOL    HW126342   5.584   2.234   2.431 -0.3313  0.8374 -1.2377
40979SOL    HW226343   5.722   2.241   2.368  0.5589  0.7397  0.6685
40980SOL     OW26344   9.964   8.233   1.458 -0.3159 -0.0827 -0.4105
40980SOL    HW126345  10.011   8.298   1.406  0.3748  1.0241  1.5463
40980SOL    HW226346   9.872   8.247   1.437 -0.0590  0.4541 -1.2003
40981SOL     OW26347   9.651   1.773   1.051  0.6584 -0.2263 -0.6239
40981SOL    HW126348   9.593   1.839   1.090 -0.4127 -0.5762 -1.6095
40981SOL    HW226349   9.711   1.749   1.123  0.3036  0.9481  0.0785
40982SOL     OW26350   2.503   5.026   7.999 -0.1037  0.4967  0.6561
40982SOL    HW126351   2.483   4.937   7.971 -1.8717  0.5058  1.7890
40982SOL    HW226352   2.446   5.081   7.946  1.6040  1.0533 -0.6566
40983SOL     OW26353  10.974   3.525   9.422 -0.5409  0.0385  0.7708
40983SOL    HW126354  11.042   3.533   9.488 -1.4759  0.8889  1.6430
40983SOL    HW226355  10.967   3.431   9.406 -0.9478 -0.2499  2.5449
40984SOL     OW26356   7.465   1.457   0.710  0.6447  0.7338 -0.0197
40984SOL    HW126357   7.460   1.479   0.617  2.0300 -1.9764 -0.7473
40984SOL    HW226358   7.377   1.424   0.731  1.2334 -1.6012 -1.1405
40985SOL     OW26359   6.537   5.031   3.436  0.0742  0.1340  0.0605
40985SOL    HW126360   6.498   5.113   3.405  1.5074  1.0229  0.5491
40985SOL    HW226361   6.472   4.964   3.415 -0.9325  1.3343 -0.7418
40986SOL     OW26362   3.968   7.842   5.151  0.4068 -0.0383  0.2232
40986SOL    HW126363   4.003   7.788   5.080  0.5749  0.6367 -0.2092
40986SOL    HW226364   3.994   7.931   5.129 -1.2151  0.4262  0.1245
40987SOL     OW26365   0.756   1.379   8.033  0.2431  0.7672  0.2798
40987SOL    HW126366   0.708   1.299   8.011  0.9233  0.3862  0.1682
40987SOL    HW226367   0.717   1.446   7.976 -1.3740  0.8629  1.4564
40988SOL     OW26368   7.119  10.703   1.131  0.2850 -0.1828 -0.4963
40988SOL    HW126369   7.093  10.727   1.042  0.4919 -0.2817 -0.5828
40988SOL    HW226370   7.139  10.609   1.126  3.4430  0.4888 -1.0711
40989SOL     OW26371   9.065   9.876   9.823 -0.0167  0.0174 -0.2704
40989SOL    HW126372   9.152   9.887   9.785  0.0463 -0.2680 -0.2094
40989SOL    HW226373   9.015   9.951   9.791  0.3150  0.3008 -0.1266
40990SOL     OW26374   5.491   1.041   2.334 -0.2124  0.0705 -0.4188
40990SOL    HW126375   5.472   1.047   2.241  0.8408  0.5318 -0.6114
40990SOL    HW226376   5.580   1.006   2.338 -0.0297  0.6197  0.4094
40991SOL     OW26377   0.061   7.322   9.235 -0.5512  0.4219 -0.3400
40991SOL    HW126378  -0.033   7.307   9.222 -0.3930  0.0332 -1.0747
40991SOL    HW226379   0.092   7.242   9.275 -0.1446 -0.3080 -2.0716
40992SOL     OW26380  10.123   5.429   2.406 -0.1808 -0.4069  0.3553
40992SOL    HW126381  10.029   5.410   2.400  0.4435 -2.7697 -2.8111
40992SOL    HW226382  10.160   5.354   2.452  0.3579 -0.0186  0.5617
40993SOL     OW26383   8.354   5.048   6.908  0.4559 -0.1543  0.3733
40993SOL    HW126384   8.436   5.016   6.945  0.6920 -0.0444 -0.0567
40993SOL    HW226385   8.305   4.969   6.885  0.6301 -0.2134  0.2098
40994SOL     OW26386   1.421   5.255   9.568 -0.3583  0.0811  0.2387
40994SOL    HW126387   1.362   5.272   9.641 -0.1763  1.0896  0.1522
40994SOL    HW226388   1.440   5.341   9.531  2.0974 -0.0852  0.9949
40995SOL     OW26389   0.917  10.453   9.587  0.4492 -0.4762  0.8319
40995SOL    HW126390   0.929  10.450   9.682  2.0110 -1.1436  0.6306
40995SOL    HW226391   0.897  10.363   9.563 -2.3159  0.0945  0.7877
40996SOL     OW26392   3.029   8.643   2.958  0.3766  0.1904 -0.1146
40996SOL    HW126393   2.942   8.604   2.965  0.6189 -0.3655 -0.1766
40996SOL    HW226394   3.085   8.572   2.927  0.8116  0.6007 -0.2765
40997SOL     OW26395   0.654   9.395   0.256 -0.5330  0.2382 -0.3720
40997SOL    HW126396   0.707   9.361   0.184 -0.2665  1.0518 -0.5609
40997SOL    HW226397   0.639   9.319   0.312 -0.7702 -0.4018 -1.3004
40998SOL     OW26398   0.527   4.073   3.316  0.5805  0.4120  0.0891
40998SOL    HW126399   0.472   4.112   3.248 -0.1614 -1.7772 -0.6264
40998SOL    HW226400   0.613   4.064   3.275 -0.0132 -1.4399 -0.7852
40999SOL     OW26401   2.982   7.365   1.765 -0.3452  0.2770 -0.1392
40999SOL    HW126402   3.077   7.364   1.776 -0.2124  3.7898 -0.3156
40999SOL    HW226403   2.968   7.336   1.675  0.6522  0.7950 -0.4729
41000SOL     OW26404   2.875   5.872   6.862 -0.2293 -0.0284  0.2613
41000SOL    HW126405   2.945   5.932   6.888  1.9395 -2.6267  0.6392
41000SOL    HW226406   2.908   5.786   6.884 -2.4689 -1.5596 -2.0853
41001SOL     OW26407   3.682   1.448   1.650  0.6928 -0.7293 -0.4476
41001SOL    HW126408   3.765   1.430   1.605  1.2800 -1.4829  0.8922
41001SOL    HW226409   3.674   1.543   1.648  2.4335 -0.5297  0.8611
41002SOL     OW26410   5.777   5.097   8.134  0.0247 -0.5869  0.3957
41002SOL    HW126411   5.698   5.121   8.183 -0.2277 -0.1071 -0.2419
41002SOL    HW226412   5.838   5.168   8.154 -0.2922 -0.0604 -0.4796
41003SOL     OW26413   1.078   8.314   8.776 -0.2898 -0.4172  0.0531
41003SOL    HW126414   1.091   8.225   8.745  1.5571  0.3032 -1.2945
41003SOL    HW226415   1.139   8.323   8.849 -0.6966 -0.3432  0.3884
41004SOL     OW26416  10.176   3.063   1.494 -0.1000  0.5175  0.0330
41004SOL    HW126417  10.234   3.089   1.423 -1.6064  2.1177 -0.6618
41004SOL    HW226418  10.101   3.023   1.450 -0.3310  0.0728  0.8146
41005SOL     OW26419   1.361   8.013   1.780 -0.2634 -0.1167 -0.8196
41005SOL    HW126420   1.445   8.036   1.819 -0.2642 -1.8495  0.2807
41005SOL    HW226421   1.313   8.095   1.774  0.2658  0.3969  1.5889
41006SOL     OW26422   0.404   7.284   7.288 -0.6269  0.2672  0.1875
41006SOL    HW126423   0.433   7.240   7.368 -1.7025 -1.5365 -0.3975
41006SOL    HW226424   0.480   7.280   7.229 -0.5128 -0.2679  0.3657
41007SOL     OW26425   1.845   2.535   6.140  0.0859  0.1011 -0.0623
41007SOL    HW126426   1.757   2.533   6.177 -0.2525  0.5809 -0.8311
41007SOL    HW226427   1.839   2.597   6.068  0.7438 -0.8082 -0.9049
41008SOL     OW26428   4.823   1.828   3.660  0.4067  0.6576  0.3055
41008SOL    HW126429   4.869   1.770   3.598 -0.2812  0.6725 -0.2329
41008SOL    HW226430   4.892   1.869   3.710  0.9476  0.0562  0.0637
41009SOL     OW26431  10.208   8.137   7.055 -0.1671  0.2140 -0.2673
41009SOL    HW126432  10.178   8.057   7.012 -2.2595  0.6941  0.2315
41009SOL    HW226433  10.160   8.138   7.138 -1.0548  2.5497 -0.7615
41010SOL     OW26434   8.897   8.980   6.441 -0.1249  0.0821 -0.1789
41010SOL    HW126435   8.808   8.948   6.449 -0.2100  0.4561  0.4506
41010SOL    HW226436   8.927   8.949   6.356  0.1223 -2.4209  0.7962
41011SOL     OW26437   4.587   2.273   0.839 -0.3419  0.3280  0.1568
41011SOL    HW126438   4.590   2.334   0.914 -1.2504  0.1042  0.3716
41011SOL    HW226439   4.583   2.186   0.879 -1.5610  0.2412 -0.1597
41012SOL     OW26440   6.541   0.759   0.803 -0.5056 -0.4338  0.3052
41012SOL    HW126441   6.448   0.749   0.821 -0.9571 -0.6668 -1.9713
41012SOL    HW226442   6.581   0.678   0.835 -1.3171 -1.0067 -0.1234
41013SOL     OW26443   8.992   4.598   9.266  0.3518  0.1573 -0.3569
41013SOL    HW126444   8.901   4.570   9.258  0.5300 -0.3346 -0.6999
41013SOL    HW226445   9.029   4.542   9.333  0.3318  0.5446 -0.0210
41014SOL     OW26446   8.909   2.298   1.510 -0.0722 -0.0694 -0.1244
41014SOL    HW126447   8.847   2.368   1.532 -1.8426 -1.8233  0.5015
41014SOL    HW226448   8.950   2.276   1.594 -1.4824 -1.6460  0.1678
41015SOL     OW26449   3.318  10.724   1.909 -0.5649 -0.4919 -0.5539
41015SOL    HW126450   3.235  10.771   1.923  0.5342  0.7826  2.0218
41015SOL    HW226451   3.292  10.632   1.902 -2.3365  0.0394 -1.2052
41016SOL     OW26452   5.787   4.601   8.470  0.8014 -0.6041  0.2684
41016SOL    HW126453   5.882   4.589   8.476  0.6884 -1.0059  1.2929
41016SOL    HW226454   5.763   4.557   8.389  1.5447 -0.1538 -0.2026
41017SOL     OW26455   0.298   1.031   3.355 -0.0261 -0.1451  0.2329
41017SOL    HW126456   0.255   1.100   3.404  0.0336 -0.2882  0.4853
41017SOL    HW226457   0.313   0.961   3.419  4.8720  1.7306  1.3520
41018SOL     OW26458   8.859   1.090   0.719 -0.3573  0.2692  0.0107
41018SOL    HW126459   8.872   1.122   0.629 -1.8534  0.3283 -0.1971
41018SOL    HW226460   8.856   0.995   0.711 -0.4068  0.2703  0.0191
41019SOL     OW26461  10.740   8.673   6.431 -0.4926  0.0808 -0.0176
41019SOL    HW126462  10.695   8.678   6.347  0.0984 -3.0989 -0.5554
41019SOL    HW226463  10.831   8.694   6.411 -0.4028 -0.4029 -0.1054
41020SOL     OW26464   8.170   7.474   1.012 -0.5788  0.8313 -0.2209
41020SOL    HW126465   8.167   7.508   0.923 -1.5684  1.8544  0.1946
41020SOL    HW226466   8.120   7.392   1.008 -0.8980  1.0427 -0.5295
41021SOL     OW26467   8.984  10.719   8.398  0.3081 -0.0915  0.3959
41021SOL    HW126468   9.043  10.665   8.451 -0.6089 -1.2978  0.1950
41021SOL    HW226469   9.040  10.791   8.368  1.8050 -1.4070 -0.0927
41022SOL     OW26470   7.886   4.123   5.539  0.3441  0.1742  0.0453
41022SOL    HW126471   7.890   4.092   5.630 -1.1049 -0.1536  0.0116
41022SOL    HW226472   7.932   4.056   5.489 -1.4226 -1.1816  0.1781
41023SOL     OW26473   6.698   4.515   0.625  0.6528  0.4438  0.0463
41023SOL    HW126474   6.607   4.516   0.595  0.6678  0.2611 -0.0086
41023SOL    HW226475   6.729   4.427   0.603  1.0513  0.7361 -0.5764
41024SOL     OW26476   1.506   3.052   2.657 -0.4084  0.3970  0.4540
41024SOL    HW126477   1.451   3.119   2.697 -1.1024 -0.5545  1.1128
41024SOL    HW226478   1.524   3.085   2.568 -1.6614  0.9219  0.3893
41025SOL     OW26479   9.969   5.216   8.549  0.3732  0.1076 -0.4776
41025SOL    HW126480   9.892   5.269   8.568  0.2750 -0.5324  1.0306
41025SOL    HW226481   9.934   5.127   8.536  0.8937 -0.3247  0.9302
41026SOL     OW26482   9.579   1.261   4.677 -0.0161 -0.1157 -0.1973
41026SOL    HW126483   9.617   1.255   4.765 -0.5065  0.5083  0.0605
41026SOL    HW226484   9.622   1.336   4.637  0.4785 -0.6306 -0.6220
41027SOL     OW26485  10.584   7.418   8.116 -0.0011 -0.0526 -0.2102
41027SOL    HW126486  10.566   7.499   8.163 -1.7299  0.3457 -1.5216
41027SOL    HW226487  10.550   7.433   8.028  0.6717 -1.7993 -0.7855
41028SOL     OW26488   4.389   7.011   0.576  0.0647 -0.8165 -0.0682
41028SOL    HW126489   4.466   6.957   0.594  0.5149 -0.0914  0.2114
41028SOL    HW226490   4.328   6.988   0.646  0.4820 -0.5477  0.3959
41029SOL     OW26491   2.097   3.952   4.245 -0.0562  0.4190 -0.4664
41029SOL    HW126492   2.014   3.908   4.227 -0.5911  0.9670  0.6139
41029SOL    HW226493   2.084   3.994   4.330  2.6403 -2.7739  1.6455
41030SOL     OW26494   3.905   3.420   7.795 -0.3728 -0.1650  0.4511
41030SOL    HW126495   3.993   3.421   7.758 -0.4683  1.3012  0.2003
41030SOL    HW226496   3.866   3.339   7.763  0.6176 -0.4320 -0.0903
41031SOL     OW26497  10.242  10.979   6.565  0.0901 -0.7539 -0.1758
41031SOL    HW126498  10.243  10.989   6.661 -0.1947  1.7445 -0.3938
41031SOL    HW226499  10.163  10.928   6.547 -2.2954  2.4381  0.6824
41032SOL     OW26500   7.669   3.932   0.448 -0.3035 -0.3242 -0.5349
41032SOL    HW126501   7.748   3.960   0.402  0.5590 -1.2982  0.3371
41032SOL    HW226502   7.697   3.920   0.539 -0.9890 -2.5293 -0.5861
41033SOL     OW26503   8.566   9.147   9.556 -0.0346 -0.1791 -0.3421
41033SOL    HW126504   8.526   9.082   9.498  3.0373 -2.6479  0.1848
41033SOL    HW226505   8.603   9.095   9.628  2.2895  2.1775  0.2138
41034SOL     OW26506   1.377   8.277   6.925 -0.2957  0.3578 -0.2925
41034SOL    HW126507   1.401   8.290   6.833  1.3057 -0.5574 -0.0206
41034SOL    HW226508   1.281   8.276   6.925 -0.3159  1.1654 -1.8349
41035SOL     OW26509   9.949   7.266   7.063 -0.4304  0.3135 -0.1896
41035SOL    HW126510   9.948   7.309   7.148  1.6566  0.6582 -0.3232
41035SOL    HW226511  10.005   7.321   7.009 -0.9704 -0.4220 -1.5278
41036SOL     OW26512   5.684   3.506   0.815  0.5966  0.5948  0.1867
41036SOL    HW126513   5.745   3.571   0.779  1.7943 -0.0912  0.9716
41036SOL    HW226514   5.704   3.502   0.908  0.1632 -0.5201  0.2453
41037SOL     OW26515  10.565   6.062   1.760  0.7610  0.4554 -0.0267
41037SOL    HW126516  10.648   6.055   1.807 -0.3013 -0.7533  1.7317
41037SOL    HW226517  10.573   6.000   1.687  1.4448  0.4311  0.0679
41038SOL     OW26518   0.619   9.355   3.911 -0.1585 -0.1492  0.1735
41038SOL    HW126519   0.706   9.316   3.920 -0.2650 -0.5155 -0.4106
41038SOL    HW226520   0.628   9.442   3.952  0.5387 -0.0913 -0.0994
41039SOL     OW26521   5.775   7.821   9.200 -0.4694  0.3791  0.4010
41039SOL    HW126522   5.746   7.749   9.145 -0.6547 -0.9770  2.2229
41039SOL    HW226523   5.822   7.880   9.141 -0.5849 -1.0745 -1.1634
41040SOL     OW26524   7.665   8.991   1.957 -0.5337  0.6309 -0.1242
41040SOL    HW126525   7.736   9.054   1.969 -1.1903  1.2781  0.4196
41040SOL    HW226526   7.607   9.007   2.031 -1.0115 -0.2110 -0.3156
41041SOL     OW26527   4.671   6.725   2.355  0.1782  0.0463  0.2657
41041SOL    HW126528   4.731   6.788   2.396  0.6925  1.0027 -1.9204
41041SOL    HW226529   4.608   6.779   2.307 -0.9462 -1.0491  0.4556
41042SOL     OW26530   3.816   3.068   2.669  0.3575  0.1111  0.4225
41042SOL    HW126531   3.900   3.057   2.714 -0.5455 -1.2001  1.8162
41042SOL    HW226532   3.810   3.163   2.653  2.1973  0.1823  0.0986
41043SOL     OW26533   3.805   5.584   5.041  0.2729 -0.0375  0.0087
41043SOL    HW126534   3.786   5.675   5.065 -1.3597 -0.5700  0.8170
41043SOL    HW226535   3.789   5.581   4.947  2.3594  0.9910 -0.4106
41044SOL     OW26536   4.101   6.249   1.613  0.5394 -0.5585 -0.4367
41044SOL    HW126537   4.093   6.313   1.542 -0.0253  2.7342  2.4308
41044SOL    HW226538   4.189   6.264   1.649  1.2784 -3.0081 -1.1100
41045SOL     OW26539   8.712   0.935   3.211 -0.4073  0.0405 -0.1444
41045SOL    HW126540   8.746   1.019   3.180 -1.8721  0.6243 -0.2546
41045SOL    HW226541   8.677   0.954   3.298 -0.6811 -0.4558 -0.1444
41046SOL     OW26542   6.837   9.725   1.039  1.0115 -0.2520 -0.7095
41046SOL    HW126543   6.906   9.712   0.975 -0.2894 -0.5766 -2.0829
41046SOL    HW226544   6.805   9.637   1.058 -0.5991  0.0514 -1.8857
41047SOL     OW26545   0.446   9.810   2.352  0.0480  0.2152  0.1099
41047SOL    HW126546   0.518   9.844   2.405  0.5021 -0.1950 -0.2466
41047SOL    HW226547   0.403   9.888   2.317 -1.3501  0.5785  2.5294
41048SOL     OW26548   9.077   0.036   0.586  0.0797 -0.7446  0.0713
41048SOL    HW126549   9.036   0.079   0.511  1.4905 -0.5977 -0.6286
41048SOL    HW226550   9.028   0.069   0.662  0.6452  1.5227 -0.5160
41049SOL     OW26551   1.034   9.352  10.014 -0.3188  0.3953  0.1522
41049SOL    HW126552   0.976   9.353   9.937  0.7356  0.5385 -0.6462
41049SOL    HW226553   0.986   9.301  10.079 -0.9568 -0.2373 -0.7989
41050SOL     OW26554   0.737   4.104   7.391  0.0541 -0.2437  0.0896
41050SOL    HW126555   0.664   4.069   7.442  0.3227  0.6033  1.0616
41050SOL    HW226556   0.777   4.027   7.351 -0.7138 -0.8189  0.4151
41051SOL     OW26557   3.517   1.516   8.727  0.0745 -0.2070  0.1441
41051SOL    HW126558   3.478   1.473   8.803  0.4480 -0.3424  0.2612
41051SOL    HW226559   3.610   1.519   8.746  0.1071  0.2398 -0.0742
41052SOL     OW26560   5.743   7.718   5.091 -0.1972  0.3866 -0.0840
41052SOL    HW126561   5.686   7.643   5.110 -1.6634  1.0748 -1.7423
41052SOL    HW226562   5.727   7.779   5.163 -2.1849  0.9274 -0.9627
41053SOL     OW26563   2.433  10.798   0.103 -0.0795  0.2292 -0.0087
41053SOL    HW126564   2.368  10.800   0.033 -0.6975  2.3100  0.5767
41053SOL    HW226565   2.457  10.706   0.112 -0.5673 -0.1613 -2.4173
41054SOL     OW26566   2.216   0.507   2.672  0.3033 -0.9716  0.7106
41054SOL    HW126567   2.307   0.481   2.681  0.4293 -0.8009 -0.1017
41054SOL    HW226568   2.193   0.544   2.758  1.2576 -0.1757  0.6265
41055SOL     OW26569   0.620   4.528   0.341  0.1051 -0.0369  0.4706
41055SOL    HW126570   0.697   4.578   0.313 -0.7702 -0.1671 -2.3517
41055SOL    HW226571   0.546   4.573   0.299 -1.1511 -1.0604  1.5676
41056SOL     OW26572   4.146   4.151   0.029  0.0191  0.0290  0.2334
41056SOL    HW126573   4.206   4.202   0.084 -0.0691 -0.4810  0.8094
41056SOL    HW226574   4.060   4.170   0.065  0.0035 -0.6759  0.5679
41057SOL     OW26575   7.248   1.750   9.687  0.5407  0.1478  0.3868
41057SOL    HW126576   7.207   1.785   9.766 -0.5412  1.3046 -0.6509
41057SOL    HW226577   7.319   1.811   9.668  0.6005  0.0479  0.2927
41058SOL     OW26578  10.392   3.986   1.439 -0.5611  0.3663 -0.1896
41058SOL    HW126579  10.333   3.932   1.387 -0.1992  0.6718 -0.9277
41058SOL    HW226580  10.366   3.969   1.530 -1.3012 -0.0542 -0.4709
41059SOL     OW26581   8.905   9.563   0.720 -0.0017 -0.3705 -0.3611
41059SOL    HW126582   8.987   9.515   0.713  0.1582  0.2822 -3.6501
41059SOL    HW226583   8.837   9.496   0.727  0.6098 -0.9543 -0.0420
41060SOL     OW26584   3.209   1.945   2.378  0.1587  0.0051 -0.5453
41060SOL    HW126585   3.189   1.966   2.287 -0.1863  0.4588 -0.3668
41060SOL    HW226586   3.283   1.885   2.373  2.2556  2.5053 -1.0339
41061SOL     OW26587   2.269   1.662   5.236  0.8556  0.1241 -0.4206
41061SOL    HW126588   2.238   1.653   5.145  1.8238 -0.3009 -0.7096
41061SOL    HW226589   2.219   1.597   5.285  1.5402 -0.8160 -0.9564
41062SOL     OW26590   5.783   2.970   4.697 -0.2472  0.3717  0.2622
41062SOL    HW126591   5.789   2.887   4.745  1.4954  0.6053  0.5117
41062SOL    HW226592   5.792   2.945   4.605 -0.1109  0.2292  0.3119
41063SOL     OW26593   2.897   6.874   9.385  0.2807  0.1017 -0.0471
41063SOL    HW126594   2.962   6.941   9.363 -1.4794  1.4092 -1.4314
41063SOL    HW226595   2.891   6.876   9.480  1.2526  0.9317  0.0052
41064SOL     OW26596   2.658   6.489   3.908  0.0916  0.4862  0.4645
41064SOL    HW126597   2.689   6.402   3.883 -0.2758  0.3779  0.3883
41064SOL    HW226598   2.727   6.524   3.965 -0.6828 -0.6587  2.1448
41065SOL     OW26599   1.554   8.773   3.430 -0.0138 -0.8152  0.2324
41065SOL    HW126600   1.603   8.709   3.480  0.8651 -0.7494 -0.5402
41065SOL    HW226601   1.469   8.779   3.475  1.3207  0.4486  2.6797
41066SOL     OW26602  10.586   0.431   3.497  0.2415 -0.6537 -0.6334
41066SOL    HW126603  10.527   0.356   3.492 -0.0098 -0.4438 -0.8798
41066SOL    HW226604  10.559   0.478   3.576  0.6616 -1.0407 -0.2564
41067SOL     OW26605   1.172   8.214   6.159 -0.6192 -0.1824 -0.4613
41067SOL    HW126606   1.095   8.165   6.189  0.0568 -1.0847 -0.1905
41067SOL    HW226607   1.242   8.187   6.218  0.0306  0.2593 -1.0292
41068SOL     OW26608   5.957   1.222   6.499  0.3189  0.0419  0.3719
41068SOL    HW126609   5.871   1.180   6.503  0.3026  0.1958  2.3011
41068SOL    HW226610   6.020   1.151   6.514  0.4664  0.0994  0.0231
41069SOL     OW26611   5.551   7.189   6.763  0.2061  0.1537 -0.4763
41069SOL    HW126612   5.472   7.139   6.781  0.2286  0.0290 -0.7337
41069SOL    HW226613   5.619   7.124   6.748 -0.0301  0.2595 -2.0180
41070SOL     OW26614   5.241   2.214   8.487  0.6955  0.1119  0.7057
41070SOL    HW126615   5.299   2.280   8.526  0.7350 -0.7108  2.0550
41070SOL    HW226616   5.300   2.158   8.436  1.1340 -0.8170  2.2055
41071SOL     OW26617   1.438   3.447   2.124  0.2660 -0.0554 -0.3252
41071SOL    HW126618   1.355   3.496   2.121  0.5484  0.4245 -0.4471
41071SOL    HW226619   1.478   3.473   2.207  0.4629 -0.0042 -0.4357
41072SOL     OW26620  10.374  10.672  10.256  0.3154  0.3352  0.3399
41072SOL    HW126621  10.365  10.665  10.351 -0.3603 -2.3935  0.1013
41072SOL    HW226622  10.466  10.655  10.240  0.1138 -0.8130  0.3819
41073SOL     OW26623   8.593   3.603   9.848 -0.3407  0.1079  0.0606
41073SOL    HW126624   8.615   3.657   9.924 -1.2003  1.0431 -0.3504
41073SOL    HW226625   8.549   3.526   9.885 -0.4567  0.4025  0.5387
41074SOL     OW26626   9.684   3.439   8.841  0.1293 -0.8723  0.6603
41074SOL    HW126627   9.682   3.533   8.820  0.1795 -0.4813  2.3424
41074SOL    HW226628   9.623   3.399   8.779 -0.4303  0.3716  0.3928
41075SOL     OW26629  10.971   3.782   8.335  0.8956 -0.3131  0.3356
41075SOL    HW126630  11.047   3.726   8.351  1.7590  0.5303 -0.7109
41075SOL    HW226631  10.966   3.788   8.240 -1.1054 -1.1698  0.3653
41076SOL     OW26632   6.617   0.933   0.404 -0.0386 -0.4012  0.3927
41076SOL    HW126633   6.694   0.952   0.350  0.3530  1.1872  1.4832
41076SOL    HW226634   6.646   0.862   0.461  0.1979 -0.6748 -0.0589
41077SOL     OW26635   5.525   9.992   1.054  0.3597  0.2835 -0.1443
41077SOL    HW126636   5.562  10.054   1.116 -0.9918  0.7589  0.1995
41077SOL    HW226637   5.553  10.024   0.968  0.4124  0.8542  0.0872
41078SOL     OW26638  10.547   0.145   3.336  0.4684  0.3844 -0.0799
41078SOL    HW126639  10.628   0.123   3.381 -0.3762 -2.3116  0.2401
41078SOL    HW226640  10.478   0.113   3.394 -0.7138  0.0605 -1.6339
41079SOL     OW26641   4.991  10.633  10.173  0.2656 -0.1452 -0.0748
41079SOL    HW126642   4.913  10.581  10.191  1.1722 -0.9298  1.7798
41079SOL    HW226643   5.060  10.569  10.158  1.1166  0.5038  0.9458
41080SOL     OW26644   4.518   5.921   6.821 -0.0054  0.0601 -0.3042
41080SOL    HW126645   4.445   5.947   6.878  1.3685 -0.5100  1.8018
41080SOL    HW226646   4.586   5.986   6.837 -0.1268  0.7538 -2.4773
41081SOL     OW26647  10.581   8.439   1.153  0.1892  0.1853 -0.4616
41081SOL    HW126648  10.515   8.459   1.087  0.0512 -0.4948 -0.5279
41081SOL    HW226649  10.544   8.367   1.204 -0.2901  1.5673  1.2019
41082SOL     OW26650   7.117   4.073  10.850  0.2094 -0.5082  0.0889
41082SOL    HW126651   7.030   4.047  10.819  0.1263 -2.0695  1.5794
41082SOL    HW226652   7.137   4.153  10.800 -2.2335  0.0992 -0.0009
41083SOL     OW26653   6.993  10.742   4.079 -0.0433 -0.2296  0.3815
41083SOL    HW126654   6.904  10.711   4.096 -0.2827 -0.3585 -1.0475
41083SOL    HW226655   6.982  10.814   4.018  0.8069  0.1076  0.6174
41084SOL     OW26656   8.447   0.622   9.693 -0.0830 -0.0066  0.4037
41084SOL    HW126657   8.505   0.562   9.646  1.3212  1.2610  0.4783
41084SOL    HW226658   8.374   0.636   9.633  0.6861 -0.0334 -0.5572
41085SOL     OW26659   8.753  10.242   2.565  0.2134 -0.1978 -0.0258
41085SOL    HW126660   8.742  10.310   2.632 -2.0344  0.8660 -1.4133
41085SOL    HW226661   8.735  10.160   2.611  0.3366  0.3770  1.0601
41086SOL     OW26662   9.541   8.653   6.507 -0.0953  0.2821  0.5233
41086SOL    HW126663   9.469   8.652   6.443 -1.1628  1.3234  1.6768
41086SOL    HW226664   9.510   8.710   6.577  1.2885 -0.4068  1.7254
41087SOL     OW26665   0.457   7.011   2.391  0.3339  0.7081  0.0118
41087SOL    HW126666   0.365   7.034   2.401 -0.4855 -1.7353 -1.3784
41087SOL    HW226667   0.477   6.955   2.466 -0.1018 -0.9867 -1.1146
41088SOL     OW26668   9.563   7.840  10.267  0.4391 -0.0134  0.1416
41088SOL    HW126669   9.614   7.917  10.242  0.8275 -0.5113 -0.6045
41088SOL    HW226670   9.533   7.859  10.355  0.1251  1.2142 -0.2222
41089SOL     OW26671   1.842   8.360   2.097 -0.1134 -0.5518  0.2169
41089SOL    HW126672   1.932   8.344   2.124 -0.4825  0.2544  2.0028
41089SOL    HW226673   1.802   8.406   2.172 -1.4409  0.9059 -1.3430
41090SOL     OW26674   4.375   4.006   5.454 -0.1524 -0.0841  0.0637
41090SOL    HW126675   4.296   4.056   5.433  0.6739  1.1435 -0.1206
41090SOL    HW226676   4.378   3.938   5.386 -0.6812  0.2727 -0.3220
41091SOL     OW26677   2.371   8.918   1.970 -0.1647  0.2474 -0.3856
41091SOL    HW126678   2.332   8.948   2.052  1.1648  1.1761 -0.0644
41091SOL    HW226679   2.403   8.998   1.928  0.1095 -0.3363 -1.2907
41092SOL     OW26680   0.922   5.813   1.361  0.2042 -0.0421 -0.0640
41092SOL    HW126681   0.871   5.754   1.416 -0.5096  0.6443  0.0216
41092SOL    HW226682   0.869   5.892   1.356 -0.0146 -0.2932 -2.1917
41093SOL     OW26683   6.005   6.140   5.230  0.2956 -0.6459  0.3339
41093SOL    HW126684   6.049   6.200   5.170  0.6067  0.2618  1.4538
41093SOL    HW226685   5.927   6.112   5.183 -0.1403  1.0740 -0.0012
41094SOL     OW26686   8.424   2.611   6.759 -0.7377  0.3488 -0.4218
41094SOL    HW126687   8.457   2.555   6.829  1.2344  0.7153 -1.0401
41094SOL    HW226688   8.385   2.686   6.806 -0.9607 -0.2277  0.3239
41095SOL     OW26689   8.734   7.446   5.624 -0.6936  0.2553 -0.3271
41095SOL    HW126690   8.800   7.421   5.688 -0.5485 -1.6605 -1.1885
41095SOL    HW226691   8.702   7.363   5.588  0.3135  1.2497 -3.8045
41096SOL     OW26692   6.391   2.466  10.005  0.4522  0.0991 -0.6733
41096SOL    HW126693   6.440   2.450  10.086  0.4391  0.9459 -0.4965
41096SOL    HW226694   6.458   2.485   9.939  0.4722 -0.7342 -0.9073
41097SOL     OW26695   8.709   1.893   5.805 -0.1974  0.3669  0.5950
41097SOL    HW126696   8.721   1.958   5.736  0.2350 -0.9255 -0.5620
41097SOL    HW226697   8.786   1.836   5.798 -0.3322  0.0016  1.9071
41098SOL     OW26698   1.180   0.085   8.418 -0.1657 -0.9376 -0.1581
41098SOL    HW126699   1.161  -0.009   8.427  0.3375 -0.8993  1.3602
41098SOL    HW226700   1.154   0.123   8.501 -1.8955  0.5539 -1.3565
41099SOL     OW26701   7.780   8.601   6.162 -0.4086 -0.0890  0.1797
41099SOL    HW126702   7.702   8.653   6.181  0.2270  0.5130  1.1427
41099SOL    HW226703   7.816   8.578   6.247 -0.1749 -1.3597 -0.2459
41100SOL     OW26704   9.918  10.005   3.787 -0.2583  0.8252 -0.0590
41100SOL    HW126705   9.873   9.947   3.849  0.0289  1.7423  1.0352
41100SOL    HW226706   9.855  10.019   3.717 -0.5833 -0.2585  0.0011
41101SOL     OW26707   1.066   7.730   5.652  0.1271  0.3544  0.9015
41101SOL    HW126708   0.974   7.708   5.667  0.1757  0.4922  1.3847
41101SOL    HW226709   1.065   7.784   5.573  0.0473 -1.7237 -0.5872
41102SOL     OW26710   0.702   5.516   0.341 -0.3240  0.0574 -0.0008
41102SOL    HW126711   0.700   5.432   0.387 -1.1771 -0.8118 -1.6186
41102SOL    HW226712   0.753   5.573   0.399 -0.5398 -1.2981  1.5548
41103SOL     OW26713   4.666   7.997   6.261 -0.1597 -0.1575  0.1137
41103SOL    HW126714   4.750   8.040   6.248 -1.1321  2.1874  1.3044
41103SOL    HW226715   4.637   7.973   6.172  1.5167 -0.5560 -0.3359
41104SOL     OW26716   0.031   1.495   2.672 -0.3942 -0.2629  0.3668
41104SOL    HW126717   0.125   1.478   2.661 -0.4104 -0.1025 -0.0365
41104SOL    HW226718  -0.010   1.409   2.671 -0.4490 -0.2334 -1.3902
41105SOL     OW26719   2.880   4.799  10.055  0.2787 -0.0644  0.0368
41105SOL    HW126720   2.959   4.747  10.070  0.2533 -0.5719 -1.4788
41105SOL    HW226721   2.811   4.734  10.039 -0.1413  0.4047 -0.0889
41106SOL     OW26722   5.141   0.700   4.479  0.2110  0.0371 -0.1744
41106SOL    HW126723   5.130   0.606   4.493  0.2302  0.2745  1.6331
41106SOL    HW226724   5.194   0.729   4.554  1.0334  1.3187 -1.2309
41107SOL     OW26725   4.048   8.994  10.264  0.4341 -0.3654 -0.3204
41107SOL    HW126726   4.139   9.022  10.250 -0.3402  3.5741  1.8195
41107SOL    HW226727   4.048   8.958  10.353 -0.5588  1.9631  0.6477
41108SOL     OW26728   9.985   1.215  10.747 -0.0206 -0.4071  0.1473
41108SOL    HW126729   9.936   1.219  10.665 -1.3716  1.5545  1.0111
41108SOL    HW226730   9.931   1.162  10.805  0.7654 -1.5005 -0.1146
41109SOL     OW26731   8.839   3.413   8.028  0.6849 -0.1528  0.1021
41109SOL    HW126732   8.784   3.419   7.950  1.4135  2.5893 -0.2495
41109SOL    HW226733   8.816   3.490   8.080 -0.3953 -2.3433  3.0622
41110SOL     OW26734   7.623   2.340   6.404 -0.0416  0.1532 -0.2232
41110SOL    HW126735   7.706   2.315   6.364 -0.1397 -0.8032  0.1674
41110SOL    HW226736   7.610   2.431   6.376 -0.5428 -0.7508 -3.1291
41111SOL     OW26737   6.001   6.529   1.208  0.1963 -0.3957  0.0997
41111SOL    HW126738   5.959   6.605   1.168  0.4947 -0.2686  0.0264
41111SOL    HW226739   5.940   6.502   1.276  0.6750  0.6980  0.9865
41112SOL     OW26740   8.191   5.945   5.836 -0.2073  0.3190  0.1928
41112SOL    HW126741   8.170   6.012   5.770  3.4168 -1.4497 -2.9447
41112SOL    HW226742   8.230   5.995   5.908 -3.0820  2.1464  0.6021
41113SOL     OW26743   8.322   6.441   1.371  0.0695  0.4602  0.2782
41113SOL    HW126744   8.371   6.508   1.324  0.9994 -1.2341 -1.2369
41113SOL    HW226745   8.389   6.379   1.400 -0.8122  0.0395  1.4432
41114SOL     OW26746   2.183   3.120   5.850 -0.5365 -0.3278  0.2458
41114SOL    HW126747   2.192   3.026   5.843  0.3153 -0.1547 -1.0676
41114SOL    HW226748   2.240   3.145   5.923 -1.1065 -0.8779  0.8751
41115SOL     OW26749  10.509   9.418   0.847 -0.0122 -0.7531  0.0092
41115SOL    HW126750  10.499   9.493   0.905 -3.7145 -0.6329 -0.6642
41115SOL    HW226751  10.477   9.449   0.762 -0.9506 -2.8637 -0.4339
41116SOL     OW26752   8.583   2.545   4.265  0.0281  0.3465 -0.4115
41116SOL    HW126753   8.590   2.559   4.171 -1.1418  1.5865 -0.3282
41116SOL    HW226754   8.658   2.592   4.302 -0.4984  1.3445 -0.5983
41117SOL     OW26755   5.668   3.210   8.404 -0.3249  0.1593 -0.4379
41117SOL    HW126756   5.651   3.123   8.368  1.4750 -0.7774  0.9226
41117SOL    HW226757   5.634   3.205   8.493  0.3699  0.6507 -0.1521
41118SOL     OW26758  10.092   4.832   4.299  0.8250 -0.6189  0.2520
41118SOL    HW126759  10.147   4.904   4.330  0.3622 -0.3632  0.4780
41118SOL    HW226760  10.083   4.846   4.205  2.0487 -1.2680  0.0290
41119SOL     OW26761   4.038   0.405   3.421  0.3749 -0.1713  0.4490
41119SOL    HW126762   3.978   0.331   3.430 -0.6927  0.7679  1.2163
41119SOL    HW226763   3.985   0.481   3.443  0.8140  1.0887 -2.6591
41120SOL     OW26764   1.986   0.246   0.202  0.6138  0.5893 -0.2724
41120SOL    HW126765   1.927   0.286   0.267 -0.9113 -0.3892 -1.0127
41120SOL    HW226766   1.957   0.281   0.118  2.0580  1.2153 -0.5298
41121SOL     OW26767   6.514   1.520   7.700 -0.6645  0.0398  0.1583
41121SOL    HW126768   6.434   1.517   7.753 -0.7303  2.0437  0.1962
41121SOL    HW226769   6.578   1.564   7.755  0.4498 -1.4283  0.0645
41122SOL     OW26770  10.140   1.226   9.889  0.4052  0.1852 -0.2958
41122SOL    HW126771  10.107   1.313   9.867 -2.9033 -1.2049 -1.1454
41122SOL    HW226772  10.094   1.204   9.971  2.1085 -0.3028  0.5436
41123SOL     OW26773   9.173  10.189   4.179  0.3131  0.4345 -0.7240
41123SOL    HW126774   9.128  10.273   4.186 -0.5616 -0.0360 -0.7464
41123SOL    HW226775   9.203  10.186   4.088  0.6666  0.8778 -0.6277
41124SOL     OW26776   3.543   4.825  10.145  0.1286 -0.2380  0.1279
41124SOL    HW126777   3.558   4.901  10.089  0.1612 -0.5825 -0.3396
41124SOL    HW226778   3.540   4.751  10.084 -0.1517 -0.5792  0.5540
41125SOL     OW26779   3.176   9.652   4.958  0.0478 -0.3592 -0.1339
41125SOL    HW126780   3.226   9.720   5.003  1.0196 -0.0400 -1.6505
41125SOL    HW226781   3.131   9.698   4.887  0.8142 -1.3030 -1.2468
41126SOL     OW26782   7.679   4.428   9.822 -0.1154  0.3764 -0.5458
41126SOL    HW126783   7.596   4.423   9.870 -1.0235 -3.0082 -2.2805
41126SOL    HW226784   7.732   4.358   9.859  1.4329  1.5572 -0.4884
41127SOL     OW26785   0.958   2.887   4.472  0.0126  0.0318 -0.1470
41127SOL    HW126786   0.953   2.806   4.524  0.9338 -0.1278 -0.3101
41127SOL    HW226787   1.034   2.875   4.416 -1.7557 -0.3787 -2.5321
41128SOL     OW26788   4.534   9.853   3.522  0.4210 -0.5599 -0.1965
41128SOL    HW126789   4.544   9.863   3.616  1.7264 -1.7132 -0.2055
41128SOL    HW226790   4.554   9.939   3.486  3.1147 -0.9421  0.3417
41129SOL     OW26791   0.788   0.976   1.519  0.4618  0.2871 -0.1839
41129SOL    HW126792   0.841   0.999   1.596  0.6059  2.7244 -0.9788
41129SOL    HW226793   0.848   0.986   1.446  0.1306 -1.3727 -0.6995
41130SOL     OW26794   0.777   6.148   5.617 -0.2653 -0.4267 -0.1261
41130SOL    HW126795   0.771   6.234   5.659  1.2886 -0.0659 -0.5765
41130SOL    HW226796   0.844   6.160   5.549 -1.9022 -1.2927 -1.9410
41131SOL     OW26797   8.609   8.108   0.573  0.1796 -0.2496 -0.2539
41131SOL    HW126798   8.624   8.045   0.643  0.1358 -1.5874 -1.4413
41131SOL    HW226799   8.696   8.135   0.546  0.1912  0.5760  0.5779
41132SOL     OW26800   1.996   5.742   7.192  0.3738  0.4028  0.4552
41132SOL    HW126801   1.957   5.793   7.263  0.4632  0.8580  0.1780
41132SOL    HW226802   2.013   5.657   7.231 -2.1977 -0.2686  0.1880
41133SOL     OW26803   9.412   4.452  10.735  0.1432 -0.0019  0.5690
41133SOL    HW126804   9.373   4.369  10.707  0.2697  0.4560 -1.0508
41133SOL    HW226805   9.503   4.447  10.705 -0.2261  1.3026 -0.8234
41134SOL     OW26806  10.276   6.813   1.552  0.1179 -0.0526 -0.4181
41134SOL    HW126807  10.217   6.840   1.622  0.8372  1.2782 -0.3058
41134SOL    HW226808  10.223   6.819   1.472 -0.0407  0.6743 -0.2633
41135SOL     OW26809   2.354   4.434   6.152 -0.1783  0.0229 -0.4786
41135SOL    HW126810   2.363   4.525   6.125 -0.5079 -0.0149 -0.7218
41135SOL    HW226811   2.363   4.383   6.071  0.6757 -0.2051 -0.2484
41136SOL     OW26812   7.305   1.503   2.839  0.3896 -0.1169  0.6213
41136SOL    HW126813   7.232   1.561   2.861 -0.3479 -0.6743 -0.3173
41136SOL    HW226814   7.282   1.419   2.879  0.5579 -0.2652  0.4101
41137SOL     OW26815   9.152   4.281   0.412  0.1801  0.2102  0.1502
41137SOL    HW126816   9.171   4.352   0.473  1.8507 -0.1190  0.0627
41137SOL    HW226817   9.218   4.291   0.343 -1.0079 -0.0606 -1.0572
41138SOL     OW26818   6.360   5.609   8.996  0.1233 -0.0359 -0.2744
41138SOL    HW126819   6.329   5.519   9.008 -0.7860  0.5162  1.7862
41138SOL    HW226820   6.450   5.599   8.966  0.2344 -1.6451  0.5115
41139SOL     OW26821   6.928   6.596   5.413  0.4905  0.8763  0.1405
41139SOL    HW126822   6.936   6.644   5.331  1.2712  0.9060  0.2260
41139SOL    HW226823   7.009   6.546   5.419 -0.8728 -1.4928 -0.6017
41140SOL     OW26824   0.997   4.057   5.381 -0.4460  0.0154 -0.2423
41140SOL    HW126825   0.949   4.111   5.318 -1.0585  2.0631  1.9446
41140SOL    HW226826   0.954   3.971   5.376 -1.8492  0.7479 -1.0889
41141SOL     OW26827   0.123  10.972   4.505  0.1965 -0.2842  0.7249
41141SOL    HW126828   0.060  11.023   4.557  0.1481 -0.6812  1.0587
41141SOL    HW226829   0.203  10.974   4.557  0.2473 -0.3969  0.6487
41142SOL     OW26830  10.099   4.691   6.916 -0.3894  0.0796 -0.0554
41142SOL    HW126831  10.185   4.669   6.952 -0.3440  0.6393  0.1856
41142SOL    HW226832  10.038   4.678   6.988 -0.5431 -0.5258 -0.2863
41143SOL     OW26833   3.519   3.254   0.623 -0.3706 -0.0014 -0.8300
41143SOL    HW126834   3.531   3.160   0.611 -0.4797  0.0775 -1.5349
41143SOL    HW226835   3.557   3.294   0.545  2.2556  0.6955  0.7482
41144SOL     OW26836   7.550   8.385  10.935  0.5785 -0.0349  0.5799
41144SOL    HW126837   7.637   8.346  10.943  0.8630  0.6232  0.6606
41144SOL    HW226838   7.496   8.335  10.996  0.6086 -1.2789 -0.3684
41145SOL     OW26839   0.495   7.654   2.932  0.7116 -0.6603 -0.0287
41145SOL    HW126840   0.451   7.729   2.891 -0.3654 -2.1189 -1.5628
41145SOL    HW226841   0.426   7.592   2.951  1.7321 -1.6980  0.3539
41146SOL     OW26842   4.338   4.049   8.415  0.2074  0.2309  0.5154
41146SOL    HW126843   4.380   4.125   8.376  1.8975 -0.9359 -0.0337
41146SOL    HW226844   4.290   4.008   8.343 -4.4479  3.1751  1.7732
41147SOL     OW26845   8.968   5.041   8.429  0.0298 -0.4970 -0.2374
41147SOL    HW126846   8.896   5.040   8.366  1.4596 -1.4469 -1.9165
41147SOL    HW226847   9.032   5.101   8.391 -0.6138  1.7371  2.1231
41148SOL     OW26848   9.180   8.808   8.187  0.4017  0.0071  0.4897
41148SOL    HW126849   9.204   8.900   8.192  1.7967 -0.4078  1.8714
41148SOL    HW226850   9.132   8.800   8.104  0.5935  1.8803  0.1761
41149SOL     OW26851   3.171   7.599   2.809 -0.4874 -0.2060 -0.5945
41149SOL    HW126852   3.242   7.536   2.803 -0.8300 -0.6945  0.2501
41149SOL    HW226853   3.105   7.555   2.863 -1.3110  0.3423 -1.1474
41150SOL     OW26854   5.120   7.352   4.843  0.2441  0.2671 -0.4085
41150SOL    HW126855   5.121   7.388   4.754  1.8520 -0.5384 -0.7484
41150SOL    HW226856   5.035   7.309   4.851 -0.7413  2.0792 -0.8238
41151SOL     OW26857   7.903   1.887   1.652  0.7205 -0.2101  0.1922
41151SOL    HW126858   7.996   1.866   1.644  0.4860 -1.2535  0.1799
41151SOL    HW226859   7.863   1.850   1.573  0.3297  0.4401  0.0797
41152SOL     OW26860   7.600   3.639   3.666  0.5919 -0.2143  0.1896
41152SOL    HW126861   7.586   3.562   3.610 -0.8716 -0.9548  1.5287
41152SOL    HW226862   7.690   3.630   3.697  0.4036 -1.4450  0.4040
41153SOL     OW26863   1.728   3.495   6.794  0.0049 -0.5023 -0.0022
41153SOL    HW126864   1.711   3.487   6.888 -2.4880  0.3648 -0.3378
41153SOL    HW226865   1.816   3.459   6.783  0.5906 -0.0601  2.7378
41154SOL     OW26866   1.517   4.870   9.111  0.2822 -0.0357  0.1054
41154SOL    HW126867   1.486   4.871   9.021 -0.1347  2.1728  0.2587
41154SOL    HW226868   1.611   4.885   9.105  0.0129  1.7000  0.1197
41155SOL     OW26869   6.088   5.944   1.443  0.6852  0.4709 -0.2138
41155SOL    HW126870   6.066   6.026   1.400 -2.3812 -1.4216 -2.3709
41155SOL    HW226871   6.041   5.948   1.527 -0.7049  0.2675 -0.9757
41156SOL     OW26872   0.525   0.068   0.802 -0.3093  0.2878  0.5524
41156SOL    HW126873   0.503   0.161   0.808  1.3744  0.6960  0.6049
41156SOL    HW226874   0.516   0.034   0.891 -0.0279  0.6096  0.7014
41157SOL     OW26875   5.741   2.773   8.876 -0.3090  0.0285  0.2318
41157SOL    HW126876   5.794   2.794   8.799 -0.3683  0.5201  0.3222
41157SOL    HW226877   5.716   2.682   8.864  0.5034 -0.1928  0.1533
41158SOL     OW26878  10.103   9.124   4.158  0.0234 -0.1332  0.0776
41158SOL    HW126879  10.017   9.082   4.163 -0.6636  1.0137 -1.6231
41158SOL    HW226880  10.162   9.054   4.130 -0.7526 -0.4538 -0.7894
41159SOL     OW26881   0.052   1.198   7.501  0.2162  0.0050  0.2740
41159SOL    HW126882   0.105   1.237   7.571 -0.2651 -0.8520  1.1157
41159SOL    HW226883  -0.020   1.154   7.546  1.0666 -2.3765 -0.6359
41160SOL     OW26884   6.737   5.398   3.981 -0.6580  0.1469 -0.1480
41160SOL    HW126885   6.833   5.398   3.986 -0.6745  0.0053  0.1994
41160SOL    HW226886   6.708   5.388   4.072 -1.0322  2.8281  0.0554
41161SOL     OW26887   2.531   8.892   6.171 -0.5538  0.4965 -0.2052
41161SOL    HW126888   2.528   8.940   6.254 -1.1467  0.0127  0.0510
41161SOL    HW226889   2.620   8.907   6.138  0.2150 -0.6382  1.2957
41162SOL     OW26890  10.879   5.651   2.568 -0.6282 -0.0069  0.6640
41162SOL    HW126891  10.900   5.558   2.577 -1.3533 -0.6319 -3.2392
41162SOL    HW226892  10.785   5.656   2.582 -0.5707  0.1386  0.9882
41163SOL     OW26893  10.809   8.209   7.710  0.6536 -0.0831  0.1217
41163SOL    HW126894  10.834   8.255   7.790 -0.7046 -2.0113  1.7087
41163SOL    HW226895  10.870   8.135   7.705 -1.3086 -1.8406  1.2067
41164SOL     OW26896   3.380   9.622   2.056  0.1401 -0.2517 -0.4789
41164SOL    HW126897   3.447   9.612   2.124  0.5213 -1.4329 -1.0004
41164SOL    HW226898   3.322   9.691   2.088  0.9819  0.0062  0.4965
41165SOL     OW26899  10.970   0.919   2.413 -0.2436 -0.0219 -0.2913
41165SOL    HW126900  10.968   1.014   2.400 -0.7930 -0.0213 -0.2052
41165SOL    HW226901  10.878   0.894   2.420 -0.1195 -0.6426 -0.8894
41166SOL     OW26902   2.310   3.092   2.172  0.3130  0.3129 -0.6480
41166SOL    HW126903   2.365   3.120   2.098  0.7278 -1.2972 -0.9936
41166SOL    HW226904   2.228   3.065   2.131 -0.4360  1.9467 -0.2196
41167SOL     OW26905   7.132   6.781   5.027  0.7107 -0.6761 -0.2893
41167SOL    HW126906   7.146   6.830   5.108 -0.8854 -0.7854  0.0530
41167SOL    HW226907   7.085   6.702   5.054  0.5590 -0.9209 -1.2577
41168SOL     OW26908   7.091   3.629  10.322 -0.4419 -0.0094 -0.2432
41168SOL    HW126909   7.005   3.612  10.361 -0.6507 -0.6387 -0.9837
41168SOL    HW226910   7.136   3.682  10.388 -1.2982  0.1048  0.2626
41169SOL     OW26911   7.908   2.637  10.343 -0.4625 -0.0990 -0.0695
41169SOL    HW126912   7.836   2.650  10.405 -1.5020 -0.9722 -1.0686
41169SOL    HW226913   7.875   2.671  10.260  1.1700  1.6656 -0.0293
41170SOL     OW26914   2.247   6.913   8.568  0.1607 -0.3266 -0.5223
41170SOL    HW126915   2.264   7.003   8.542 -0.9400  0.2602  0.7532
41170SOL    HW226916   2.248   6.915   8.664  0.0547 -1.6543 -0.4867
41171SOL     OW26917   7.812   0.997   3.910 -0.0854 -0.2652  0.3510
41171SOL    HW126918   7.846   0.908   3.917 -0.0489 -0.3704 -0.9867
41171SOL    HW226919   7.886   1.049   3.877 -0.3361  0.1041  0.3620
41172SOL     OW26920   6.454   5.452   1.985 -0.2306  0.3617 -0.4967
41172SOL    HW126921   6.485   5.363   2.001  3.1364  1.1404 -2.1760
41172SOL    HW226922   6.491   5.504   2.056  0.3320  0.9086 -1.1831
41173SOL     OW26923  10.318  10.446   8.249  0.6588  0.1859  0.2354
41173SOL    HW126924  10.370  10.389   8.192  0.7333  0.2073  0.2827
41173SOL    HW226925  10.287  10.389   8.318 -0.0206  0.0099 -0.2128
41174SOL     OW26926   9.591   9.863   4.079 -0.3202 -0.6949 -0.9078
41174SOL    HW126927   9.521   9.918   4.114  1.0804  0.2759  0.4365
41174SOL    HW226928   9.579   9.779   4.122 -0.7742 -0.5868 -0.8203
41175SOL     OW26929   9.711   5.557   9.479 -0.7323  0.0534  0.1758
41175SOL    HW126930   9.785   5.497   9.470 -1.4596 -0.3820 -4.5182
41175SOL    HW226931   9.744   5.642   9.450 -1.3648  0.4827  0.6951
41176SOL     OW26932   9.681   8.376   3.431  0.0969 -0.0814  0.4851
41176SOL    HW126933   9.649   8.304   3.377 -0.5350 -1.5380  2.7112
41176SOL    HW226934   9.776   8.376   3.418  0.0126 -0.7957 -0.1505
41177SOL     OW26935   7.128   8.983   6.199  0.4774  0.1175  0.5682
41177SOL    HW126936   7.079   8.901   6.189  1.1183 -0.4208  1.6992
41177SOL    HW226937   7.171   8.974   6.284  2.0875  0.8127 -0.1590
41178SOL     OW26938   5.905   1.795   7.584 -0.4129  0.1617  0.0794
41178SOL    HW126939   5.975   1.729   7.584 -0.0911  0.4997  0.8209
41178SOL    HW226940   5.950   1.878   7.593 -0.8213  0.4956 -0.8701
41179SOL     OW26941   5.623   2.579   2.816 -0.0309  0.4305 -0.1946
41179SOL    HW126942   5.553   2.561   2.878  0.6076  0.6245  0.5853
41179SOL    HW226943   5.578   2.608   2.737 -0.8018  1.2268  0.5222
41180SOL     OW26944  10.953   5.029   8.706  0.1471  0.2528  0.0604
41180SOL    HW126945  11.028   4.982   8.670 -1.3717 -2.5879  0.4461
41180SOL    HW226946  10.879   5.001   8.651 -0.9143  1.7412  0.6979
41181SOL     OW26947   1.696   2.589   2.398 -0.2097  0.1855 -0.0509
41181SOL    HW126948   1.651   2.664   2.436 -0.8539 -1.5738  2.7600
41181SOL    HW226949   1.630   2.546   2.343 -0.1290  1.0678 -0.8523
41182SOL     OW26950  10.667   8.279   0.484  0.3964  0.0091  0.4779
41182SOL    HW126951  10.720   8.318   0.414 -0.2612  0.3555  0.1664
41182SOL    HW226952  10.724   8.284   0.562  2.8490 -4.4043 -0.8912
41183SOL     OW26953   9.645   5.629   0.007  0.4759  0.5865 -0.3524
41183SOL    HW126954   9.678   5.540  -0.005  3.7823  1.7450 -0.3611
41183SOL    HW226955   9.644   5.642   0.102 -0.8102  0.2815 -0.3135
41184SOL     OW26956   9.699   3.553   3.558  0.3703 -0.6416  0.4160
41184SOL    HW126957   9.619   3.564   3.610  0.8896  1.7738  0.7652
41184SOL    HW226958   9.757   3.501   3.613 -0.3094 -0.9127  0.8818
41185SOL     OW26959   3.239   9.105  10.929 -0.2871  0.5199 -0.7444
41185SOL    HW126960   3.211   9.031  10.984 -0.0766  0.3691 -0.8380
41185SOL    HW226961   3.261   9.065  10.845 -0.8127  0.7811 -1.0095
41186SOL     OW26962   1.081   8.014   7.312  0.0749  0.1194  0.9706
41186SOL    HW126963   1.129   7.959   7.375 -0.2183 -0.2739  0.8502
41186SOL    HW226964   1.102   8.103   7.339  0.9170 -0.0508  0.8878
41187SOL     OW26965   4.927  10.620   2.045 -0.4153  0.0206 -0.1998
41187SOL    HW126966   4.881  10.545   2.083  0.2118 -0.3001 -0.0645
41187SOL    HW226967   4.908  10.615   1.952  1.4159 -1.5942 -0.5163
41188SOL     OW26968   5.713  10.854   9.924 -0.2602  0.4308 -0.0974
41188SOL    HW126969   5.630  10.808   9.931 -0.0329 -0.2023 -1.2851
41188SOL    HW226970   5.715  10.913   9.999 -1.7226  0.3725  0.0021
41189SOL     OW26971   1.718   7.692   6.671 -0.1801  0.3293  0.3727
41189SOL    HW126972   1.772   7.726   6.600 -0.8360  0.0527 -0.2759
41189SOL    HW226973   1.689   7.769   6.719 -0.8809  0.6202 -0.5100
41190SOL     OW26974   7.476  10.186   8.501 -0.0936  0.4541  0.2620
41190SOL    HW126975   7.503  10.219   8.415 -0.2849  0.1807  0.0994
41190SOL    HW226976   7.400  10.131   8.484 -0.7206  1.1754  0.7204
41191SOL     OW26977   2.728   5.064   0.443 -0.3589  0.2255  0.2627
41191SOL    HW126978   2.778   5.006   0.387 -1.6389  0.1634 -0.8558
41191SOL    HW226979   2.737   5.150   0.402  2.1101  0.9910  2.3020
41192SOL     OW26980   8.261   6.841   4.959  0.0087  0.2013 -0.2367
41192SOL    HW126981   8.274   6.764   4.903  0.9642  0.6817 -0.7045
41192SOL    HW226982   8.348   6.860   4.994 -0.0029  1.6936 -0.9685
41193SOL     OW26983   3.992  10.463   3.055  0.0275 -0.3402 -0.2203
41193SOL    HW126984   3.994  10.457   2.960 -0.6426  1.3293 -0.3641
41193SOL    HW226985   3.979  10.557   3.073  0.2053 -0.6220  1.5064
41194SOL     OW26986   0.559   1.851   6.857 -0.0819 -0.0586  0.4762
41194SOL    HW126987   0.529   1.762   6.838  0.8884 -0.6292  1.5933
41194SOL    HW226988   0.486   1.892   6.904 -1.0672  0.2032 -1.1994
41195SOL     OW26989   4.232  10.381   8.423 -0.2946  0.0373  0.4815
41195SOL    HW126990   4.291  10.307   8.411 -0.4772 -0.4267  2.3031
41195SOL    HW226991   4.209  10.408   8.334  1.3991 -0.7735 -0.2214
41196SOL     OW26992   2.403   7.353   2.202  0.2680  0.7321 -0.0106
41196SOL    HW126993   2.387   7.320   2.290 -0.5296 -0.2724 -0.5214
41196SOL    HW226994   2.347   7.431   2.194  0.4789  0.9285  0.4220
41197SOL     OW26995   3.632   8.521   1.466  0.2139  0.3955  0.6912
41197SOL    HW126996   3.558   8.509   1.526  0.1216 -1.1688  0.3016
41197SOL    HW226997   3.706   8.483   1.512  0.7367  1.8034  1.0059
41198SOL     OW26998   6.680   2.870   1.074  0.3664 -0.2861  0.4569
41198SOL    HW126999   6.607   2.873   1.136  0.9791  2.5617  1.0991
41198SOL    HW227000   6.740   2.938   1.104  1.0621  0.6180 -2.7755
41199SOL     OW27001   1.420   8.583   9.907  0.5343 -0.2883 -1.0415
41199SOL    HW127002   1.393   8.533   9.984  0.7815  2.1097  0.6444
41199SOL    HW227003   1.515   8.573   9.905  0.7215  1.0897  0.0330
41200SOL     OW27004   6.049   4.823   2.784 -0.3196 -0.2324  0.5523
41200SOL    HW127005   6.022   4.759   2.718 -1.4577  2.0195 -1.2258
41200SOL    HW227006   6.099   4.888   2.736 -1.2130  1.4897  1.8939
41201SOL     OW27007   9.368  10.054  10.307 -0.3247  0.1445 -0.0139
41201SOL    HW127008   9.327  10.052  10.394 -1.2343  1.3527 -0.4012
41201SOL    HW227009   9.368   9.963  10.279  0.9757 -0.4086  1.7125
41202SOL     OW27010   8.895   9.725   2.583  0.2314  0.0027  0.2347
41202SOL    HW127011   8.923   9.699   2.495 -0.9733  1.1317 -0.4951
41202SOL    HW227012   8.919   9.818   2.588  0.7382 -0.1825  1.2830
41203SOL     OW27013   7.673   7.596   3.220 -0.5727 -0.1581 -0.0507
41203SOL    HW127014   7.654   7.508   3.188 -0.0995 -0.0440 -0.6452
41203SOL    HW227015   7.662   7.589   3.315 -0.9453 -0.7531 -0.1322
41204SOL     OW27016   9.704   7.952   6.185 -0.0559 -0.2161 -0.6270
41204SOL    HW127017   9.738   8.012   6.119 -2.8589 -0.5575 -2.4469
41204SOL    HW227018   9.714   7.865   6.145 -0.7696 -0.5087 -0.1704
41205SOL     OW27019   8.024   8.307   2.964  0.7865 -0.0481  0.2962
41205SOL    HW127020   8.017   8.295   2.869  1.3186  0.6456  0.1628
41205SOL    HW227021   8.118   8.321   2.979  0.6486  0.2441  0.8744
41206SOL     OW27022   5.328   4.533   0.136  0.1918  0.1175 -0.0054
41206SOL    HW127023   5.318   4.615   0.088 -1.4097  0.4248  0.8266
41206SOL    HW227024   5.403   4.491   0.096  0.3618  1.4947 -1.1632
41207SOL     OW27025  10.276   5.036   5.873 -0.5877 -0.1240 -0.0106
41207SOL    HW127026  10.236   4.952   5.853  0.5439 -0.2118 -2.0001
41207SOL    HW227027  10.362   5.014   5.909 -0.7218  0.1771  0.5118
41208SOL     OW27028   6.739   3.710   9.057  0.1685  0.0469  0.7264
41208SOL    HW127029   6.645   3.724   9.055  0.2235  0.3003 -0.1259
41208SOL    HW227030   6.777   3.797   9.046  0.5071  0.0309  1.7027
41209SOL     OW27031   2.764   1.436   7.143 -0.7001  0.2822 -0.1636
41209SOL    HW127032   2.841   1.491   7.131  0.0366 -0.5170  0.8270
41209SOL    HW227033   2.701   1.493   7.186  0.2521  0.2149  1.3517
41210SOL     OW27034   9.152   4.641   5.188  0.0314  0.2707  0.0372
41210SOL    HW127035   9.157   4.546   5.200 -0.1975  0.4332  1.5513
41210SOL    HW227036   9.078   4.669   5.242  0.0885  1.3100 -0.4040
41211SOL     OW27037   7.051   3.071   0.534  0.5147  0.0168  0.1495
41211SOL    HW127038   7.012   3.011   0.471  1.3646  0.4744 -0.8118
41211SOL    HW227039   7.129   3.026   0.566 -1.1164 -1.2073  2.6100
41212SOL     OW27040   6.866   6.745   3.676 -0.1521  0.0884 -0.0655
41212SOL    HW127041   6.853   6.810   3.746  1.0664 -0.1935  0.4338
41212SOL    HW227042   6.782   6.700   3.670 -0.5533  0.7263  0.6072
41213SOL     OW27043   9.467   7.433   0.133 -0.4486  0.1461  0.3320
41213SOL    HW127044   9.390   7.419   0.077  0.6810 -0.6091 -1.0693
41213SOL    HW227045   9.452   7.378   0.209  0.5941 -3.2559 -1.8327
41214SOL     OW27046  10.222   2.109   5.714  0.5687 -0.3666  0.2390
41214SOL    HW127047  10.177   2.129   5.796  0.4601  0.5648 -0.0454
41214SOL    HW227048  10.178   2.031   5.680  0.2607 -0.4327  0.7913
41215SOL     OW27049   2.253   6.651   0.784 -0.4223 -0.6538  0.1698
41215SOL    HW127050   2.300   6.617   0.709 -0.6188 -1.2025  0.2932
41215SOL    HW227051   2.224   6.738   0.757 -0.8765 -1.0226 -0.5550
41216SOL     OW27052   4.043   3.267   6.808 -0.3646 -0.6176 -0.4451
41216SOL    HW127053   4.077   3.191   6.761 -0.0353 -0.9653  0.3374
41216SOL    HW227054   4.119   3.301   6.856 -0.1123  1.2059 -2.1009
41217SOL     OW27055  10.851  10.475   6.958  0.4356  0.0311 -0.0648
41217SOL    HW127056  10.770  10.428   6.977  0.9303 -0.6978  0.2702
41217SOL    HW227057  10.855  10.543   7.025  1.4537 -1.6381  1.6240
41218SOL     OW27058   6.739  10.314   0.509 -0.3203 -0.1143  0.5538
41218SOL    HW127059   6.832  10.310   0.486  0.2027  0.5170  2.4311
41218SOL    HW227060   6.725  10.238   0.566 -0.9631 -0.2415  0.2275
41219SOL     OW27061   9.523   9.678   1.932  0.2206 -0.3498 -0.7509
41219SOL    HW127062   9.507   9.742   2.002 -0.0235  0.4501 -1.5299
41219SOL    HW227063   9.457   9.699   1.865  0.2486 -1.3111 -1.0817
41220SOL     OW27064   7.798   6.264   2.822  0.1863 -0.1687 -0.0431
41220SOL    HW127065   7.831   6.180   2.790 -0.1739 -0.4953  0.4382
41220SOL    HW227066   7.876   6.319   2.832  0.4993 -0.6993  0.4101
41221SOL     OW27067   5.539   4.791   7.269  0.3425 -0.1787  0.0312
41221SOL    HW127068   5.483   4.867   7.288 -1.5569 -1.4852 -0.1864
41221SOL    HW227069   5.597   4.784   7.345  0.2484  1.2219  0.2534
41222SOL     OW27070   3.136   3.427   3.775  0.1016  0.6195  0.0912
41222SOL    HW127071   3.123   3.383   3.859 -0.2334 -0.2740 -0.4205
41222SOL    HW227072   3.195   3.369   3.727 -2.4935 -0.6802 -1.6337
41223SOL     OW27073   6.242   3.671   9.347 -0.0094  0.2475 -0.1977
41223SOL    HW127074   6.191   3.681   9.427  0.0260 -1.7209  0.1102
41223SOL    HW227075   6.328   3.640   9.378  0.0034 -0.5285 -0.9846
41224SOL     OW27076   7.375   9.364   6.057 -0.1969 -0.0671 -0.0490
41224SOL    HW127077   7.316   9.331   5.989  0.5370 -3.0757  0.7106
41224SOL    HW227078   7.423   9.435   6.014 -1.4101 -0.3672 -1.9628
41225SOL     OW27079   5.135   9.943   1.342 -0.1725 -0.3685  0.0946
41225SOL    HW127080   5.171   9.948   1.254  2.3515  2.0625  1.1894
41225SOL    HW227081   5.047   9.979   1.335  0.2213  0.3257 -1.3336
41226SOL     OW27082   0.212   5.372   4.708  0.4262  0.3472 -0.3979
41226SOL    HW127083   0.150   5.403   4.642 -0.4098 -0.6137 -0.0800
41226SOL    HW227084   0.265   5.306   4.663 -0.7321 -0.9517  0.1178
41227SOL     OW27085   6.733   8.420   3.001  0.2543  0.5233  0.1552
41227SOL    HW127086   6.758   8.420   3.093 -1.1324  0.5923  0.5415
41227SOL    HW227087   6.712   8.329   2.982 -1.1604  0.7905  0.3907
41228SOL     OW27088   7.596   1.647   1.956  0.0666  0.0132  0.0964
41228SOL    HW127089   7.641   1.619   2.036  0.1694 -0.4044 -0.1048
41228SOL    HW227090   7.642   1.601   1.886 -0.5008 -0.2095 -0.1346
41229SOL     OW27091   5.432   1.340  10.545 -0.7101  0.1895 -0.4073
41229SOL    HW127092   5.515   1.374  10.578 -0.7194  0.4877 -0.6964
41229SOL    HW227093   5.375   1.338  10.622 -0.2468 -0.6059 -0.0737
41230SOL     OW27094   8.606   1.180   4.850 -0.3521 -0.2783 -0.3112
41230SOL    HW127095   8.548   1.107   4.829 -2.3390  1.4686 -0.9841
41230SOL    HW227096   8.548   1.254   4.867  1.6274  1.2486  0.0535
41231SOL     OW27097   9.002   7.063   7.206  0.6712 -0.3259 -0.1882
41231SOL    HW127098   9.040   7.138   7.160  0.6989 -0.4926 -0.4401
41231SOL    HW227099   9.072   6.998   7.208  0.4701 -0.5561 -0.4716
41232SOL     OW27100   0.225   3.493   6.496 -0.1451  0.6363 -0.4201
41232SOL    HW127101   0.140   3.520   6.461 -0.1360 -0.2882 -1.1648
41232SOL    HW227102   0.204   3.428   6.563 -0.1098  1.7196  0.6698
41233SOL     OW27103   0.840   1.744   0.037  0.9681  0.3956  0.7983
41233SOL    HW127104   0.902   1.685   0.078 -0.1322 -0.8747  0.6879
41233SOL    HW227105   0.791   1.783   0.110 -1.5751 -2.5134  0.7528
41234SOL     OW27106  10.184   4.955   9.423  0.5597  0.2057 -0.2198
41234SOL    HW127107  10.145   5.005   9.495  0.8089  1.4729 -0.9378
41234SOL    HW227108  10.121   4.962   9.351  0.6448 -0.4273 -0.3525
41235SOL     OW27109   1.754   1.132   5.155  0.1257 -0.6773  0.0472
41235SOL    HW127110   1.789   1.220   5.145  0.3113 -0.9031 -1.4253
41235SOL    HW227111   1.805   1.094   5.227 -0.2620  0.5502  0.9957
41236SOL     OW27112   9.457   1.899   0.811 -0.4794 -0.0621 -0.0061
41236SOL    HW127113   9.379   1.911   0.864 -0.6610 -0.5445 -0.1621
41236SOL    HW227114   9.481   1.807   0.823  0.6517  0.3348  0.8456
41237SOL     OW27115   9.604   6.734   3.704 -0.1171 -0.3254  0.6892
41237SOL    HW127116   9.521   6.707   3.665  1.1749 -1.2171 -1.5656
41237SOL    HW227117   9.641   6.653   3.741  1.1878 -0.6123 -1.1518
41238SOL     OW27118   2.225   4.171   0.267 -0.0891  0.1439 -0.2989
41238SOL    HW127119   2.264   4.115   0.199  0.1866 -2.1339  1.6729
41238SOL    HW227120   2.298   4.219   0.305 -0.1091  0.6862 -0.9412
41239SOL     OW27121   6.336   3.928   7.497 -0.4280  0.0158  0.1217
41239SOL    HW127122   6.244   3.940   7.474 -0.1707  0.5485 -0.6488
41239SOL    HW227123   6.349   3.985   7.573 -0.1861  1.6470 -1.1278
41240SOL     OW27124   7.498   6.335   6.642 -0.6788 -0.2407 -0.4335
41240SOL    HW127125   7.578   6.311   6.689 -0.7376  0.7180  0.1562
41240SOL    HW227126   7.508   6.428   6.623 -1.4650 -0.2139 -0.7336
41241SOL     OW27127   2.253   6.245   4.073 -0.1336 -0.5097 -0.8183
41241SOL    HW127128   2.259   6.188   3.996  1.3938  0.2152 -1.2557
41241SOL    HW227129   2.292   6.328   4.045 -1.8858  0.6170 -0.0471
41242SOL     OW27130   1.185   9.436   9.169 -0.1854  0.1298 -0.7714
41242SOL    HW127131   1.153   9.435   9.259 -2.0837 -2.3109 -1.4457
41242SOL    HW227132   1.241   9.359   9.162 -0.4982  0.0009 -1.8624
41243SOL     OW27133   4.193   4.622   5.076  0.3293  0.0219  0.1804
41243SOL    HW127134   4.208   4.626   4.982  1.0781  0.3314  0.3150
41243SOL    HW227135   4.219   4.533   5.100 -0.1311 -0.1509  0.0523
41244SOL     OW27136   3.160   6.528   7.891  0.1447  0.3434 -0.0631
41244SOL    HW127137   3.253   6.507   7.886  0.4037  1.5102 -0.3688
41244SOL    HW227138   3.157   6.614   7.933 -0.8870 -0.3615  1.3761
41245SOL     OW27139   4.903   9.377   9.951 -0.2076  0.1774  0.2176
41245SOL    HW127140   4.896   9.459   9.999 -0.8927 -1.1017  2.3401
41245SOL    HW227141   4.814   9.358   9.921  0.2928  1.2384 -2.1179
41246SOL     OW27142   7.976   9.645  10.911 -0.0571  0.0479 -0.3231
41246SOL    HW127143   8.057   9.676  10.869  0.5668 -1.1467 -0.0220
41246SOL    HW227144   7.906   9.677  10.854  0.6357  0.9576 -0.6732
41247SOL     OW27145   2.731   2.703   4.733  0.8852  0.3130 -0.2659
41247SOL    HW127146   2.688   2.654   4.803 -0.7264  1.4853 -0.3939
41247SOL    HW227147   2.786   2.639   4.688 -0.1298 -1.0419  0.4015
41248SOL     OW27148   5.100   1.930   3.435  0.2049  0.1266 -0.0054
41248SOL    HW127149   5.043   2.007   3.432  1.1228  0.8975  1.4047
41248SOL    HW227150   5.084   1.884   3.353 -0.8226  1.4926 -0.5812
41249SOL     OW27151   8.849   4.463   7.500 -0.1724  0.0908  0.5201
41249SOL    HW127152   8.855   4.378   7.457 -0.5551 -0.2073  1.0581
41249SOL    HW227153   8.782   4.511   7.451 -1.7015 -0.7901  1.6919
41250SOL     OW27154  10.454   3.680   8.968 -0.1672 -0.2208 -0.0995
41250SOL    HW127155  10.480   3.756   9.020 -1.0811 -1.2490  1.9024
41250SOL    HW227156  10.422   3.617   9.032  2.2837 -3.0470 -1.5156
41251SOL     OW27157   7.830   2.809   2.171 -0.0199 -0.4158 -0.2335
41251SOL    HW127158   7.899   2.795   2.236  1.5424  3.2110 -0.9748
41251SOL    HW227159   7.791   2.893   2.196 -2.2570 -1.0283 -1.5373
41252SOL     OW27160   0.358   4.172   6.457  0.3846  0.0779 -0.0629
41252SOL    HW127161   0.452   4.185   6.442  0.3779  0.8458  0.5509
41252SOL    HW227162   0.342   4.081   6.430  1.4817 -0.3523  0.7052
41253SOL     OW27163   0.236   2.776   0.060  0.3053 -0.4894 -0.1752
41253SOL    HW127164   0.148   2.756   0.093  1.0421 -0.6652  1.7178
41253SOL    HW227165   0.255   2.864   0.091  0.6324 -0.2864 -0.9407
41254SOL     OW27166   2.485   9.493   1.099  0.1366 -0.7152  0.3200
41254SOL    HW127167   2.580   9.479   1.090  0.0969 -0.3453 -0.6194
41254SOL    HW227168   2.477   9.553   1.173  0.6152 -1.0270  0.6307
41255SOL     OW27169   7.790   0.070  10.515  0.2160 -0.0607 -0.3124
41255SOL    HW127170   7.715   0.116  10.553  1.4143 -0.0762  2.1963
41255SOL    HW227171   7.839   0.138  10.469 -0.7902  0.1450 -1.0828
41256SOL     OW27172   2.908   8.488  10.326 -0.6206 -0.1079  0.0239
41256SOL    HW127173   2.864   8.490  10.241 -1.6264 -0.6219  0.5304
41256SOL    HW227174   2.859   8.424  10.378 -0.6148  0.9297  1.3253
41257SOL     OW27175   9.623   7.179   0.551 -0.3026  0.1166  0.0376
41257SOL    HW127176   9.661   7.266   0.545 -1.9155  0.8502  0.0057
41257SOL    HW227177   9.572   7.180   0.633  1.7504 -1.6696  1.3754
41258SOL     OW27178   7.430   9.245  10.261  0.2851  0.0792  0.3371
41258SOL    HW127179   7.489   9.266  10.188  2.2630 -0.0376  1.8502
41258SOL    HW227180   7.419   9.328  10.308  0.9021 -0.3251  1.2135
41259SOL     OW27181   0.335   9.134   2.763 -0.1089  0.0567 -0.5189
41259SOL    HW127182   0.394   9.155   2.836  0.4282  1.0119 -1.2156
41259SOL    HW227183   0.369   9.185   2.689 -0.9780 -0.4708 -1.2951
41260SOL     OW27184   9.762   7.994   2.280  0.1596  0.5436  0.0590
41260SOL    HW127185   9.820   8.046   2.335  0.2526  0.0959  0.3900
41260SOL    HW227186   9.806   7.990   2.195  1.3903 -1.1124  0.7473
41261SOL     OW27187   8.374   0.820   4.195  0.2177 -0.1398 -0.2633
41261SOL    HW127188   8.296   0.876   4.188  0.2145 -0.0302  0.6724
41261SOL    HW227189   8.447   0.878   4.176  0.1773  0.0773  0.2395
41262SOL     OW27190   3.988   0.246   0.219 -0.1203 -0.4916 -0.4560
41262SOL    HW127191   4.076   0.213   0.236 -0.4043 -0.3755  1.3491
41262SOL    HW227192   3.986   0.262   0.125  1.5183 -1.2613 -0.6377
41263SOL     OW27193   2.746   4.836   4.366  0.3617 -0.2225 -0.2789
41263SOL    HW127194   2.744   4.782   4.445 -0.6841  1.4125  0.8340
41263SOL    HW227195   2.706   4.780   4.299  0.7270 -1.4155  0.4684
41264SOL     OW27196  10.741   0.863   7.193  0.1805 -0.8331 -0.0573
41264SOL    HW127197  10.829   0.880   7.160  0.2599  2.5194  1.6238
41264SOL    HW227198  10.682   0.899   7.126  0.2192  0.3065  0.4964
41265SOL     OW27199   7.027   7.898   0.906 -0.5311  0.4283 -0.1392
41265SOL    HW127200   7.090   7.953   0.952 -0.2752  0.0703 -0.0559
41265SOL    HW227201   7.009   7.945   0.824 -0.7424  0.9083  0.1789
41266SOL     OW27202  10.591   0.853   6.691  0.0619  0.2872 -0.1637
41266SOL    HW127203  10.606   0.879   6.782  0.5753  2.0948 -0.7332
41266SOL    HW227204  10.516   0.906   6.663  0.2200  0.1188 -0.9395
41267SOL     OW27205   4.312   6.925  10.267  0.0041 -0.1950 -0.2578
41267SOL    HW127206   4.316   6.887  10.179 -0.1495 -0.4612 -0.1507
41267SOL    HW227207   4.219   6.927  10.287 -0.1598  2.2648 -1.1387
41268SOL     OW27208   8.697   2.783   7.078 -0.1013 -0.1798  0.0944
41268SOL    HW127209   8.631   2.851   7.085  0.3417  0.3870 -1.0238
41268SOL    HW227210   8.660   2.720   7.015 -0.3870 -0.8291  0.9060
41269SOL     OW27211   9.352   9.230  10.011 -0.0489  0.0100  0.0219
41269SOL    HW127212   9.328   9.199  10.098  0.2387 -0.3445 -0.0233
41269SOL    HW227213   9.420   9.169   9.982 -0.5635 -0.2337 -0.6987
41270SOL     OW27214   6.594   0.397   7.944  0.5791 -0.7035  0.5182
41270SOL    HW127215   6.669   0.417   8.000  1.0642 -2.0390  0.3693
41270SOL    HW227216   6.531   0.354   8.002  0.4127 -0.6291  0.3934
41271SOL     OW27217   8.997   5.398   6.159 -0.0296  0.3920  0.8388
41271SOL    HW127218   9.067   5.427   6.217 -1.4236  2.8387  1.3553
41271SOL    HW227219   9.023   5.309   6.133  2.5920  0.7601  2.0271
41272SOL     OW27220   6.704   8.701  10.064  0.3250  0.4155  0.2631
41272SOL    HW127221   6.752   8.696  10.147 -1.2574  1.6403  1.2827
41272SOL    HW227222   6.627   8.646  10.079  0.1895  0.3911 -0.5266
41273SOL     OW27223   2.072   3.030   2.052 -0.1818  0.0199  0.3010
41273SOL    HW127224   2.009   2.974   2.099 -1.0503 -0.1620 -1.0300
41273SOL    HW227225   2.023   3.111   2.035 -0.0858 -0.1390 -0.7818
41274SOL     OW27226   8.368   1.457   6.084 -1.1213 -0.1664 -0.1439
41274SOL    HW127227   8.359   1.548   6.055 -1.6929 -0.0719  0.3164
41274SOL    HW227228   8.316   1.407   6.021 -0.6759 -0.1939 -0.4920
41275SOL     OW27229   9.003   5.751   2.429 -0.4625  1.0102 -0.0543
41275SOL    HW127230   8.918   5.752   2.473 -0.2759  0.2988  0.3316
41275SOL    HW227231   8.987   5.700   2.349 -0.0696 -0.3311  0.7101
41276SOL     OW27232   0.397   8.385  10.831  0.3175 -0.0408 -0.4224
41276SOL    HW127233   0.454   8.309  10.831  0.2450 -0.0959 -0.2587
41276SOL    HW227234   0.370   8.395  10.923 -2.8643 -2.2187 -1.0570
41277SOL     OW27235   4.972   4.075   9.266  0.2949  0.4683  0.0753
41277SOL    HW127236   5.062   4.043   9.273 -0.1034 -0.2528  2.2664
41277SOL    HW227237   4.917   3.998   9.279 -0.6797  0.7147 -2.2862
41278SOL     OW27238   4.288   7.041   6.267 -0.0491 -0.1886  0.0540
41278SOL    HW127239   4.196   7.065   6.259 -0.2030 -0.5273  0.7247
41278SOL    HW227240   4.316   7.083   6.348  0.7439  1.0210 -0.8363
41279SOL     OW27241  10.037   2.126  10.894 -0.2585  0.3699  0.0812
41279SOL    HW127242   9.957   2.153  10.938 -1.5239  0.1398 -1.9952
41279SOL    HW227243  10.068   2.206  10.850  0.2311  0.2751  0.2521
41280SOL     OW27244  10.342   7.486   3.570 -0.1170 -0.1542 -0.3967
41280SOL    HW127245  10.340   7.577   3.541 -1.4116 -0.3935 -1.1068
41280SOL    HW227246  10.300   7.437   3.499 -0.4738 -1.1491  0.4836
41281SOL     OW27247   0.734   3.353   4.410  0.3863  0.3954  0.6905
41281SOL    HW127248   0.677   3.368   4.486 -2.1471  0.1157 -1.1058
41281SOL    HW227249   0.787   3.277   4.435 -0.3443  0.3612  2.1994
41282SOL     OW27250   0.355   9.964   5.971  0.1250  0.2784  0.2897
41282SOL    HW127251   0.326   9.968   6.062 -1.9377 -0.3067 -0.3183
41282SOL    HW227252   0.277   9.936   5.922  1.4597 -0.3489 -1.5276
41283SOL     OW27253   3.181   1.653  10.383 -0.1653  0.2741  0.0174
41283SOL    HW127254   3.174   1.713  10.308 -0.9697  2.4320  1.7554
41283SOL    HW227255   3.272   1.662  10.412 -0.3054  0.7198  0.3218
41284SOL     OW27256   1.899   8.667   1.672  0.0944 -0.3618 -0.3679
41284SOL    HW127257   1.966   8.613   1.632 -0.8038 -0.6483 -1.4974
41284SOL    HW227258   1.819   8.615   1.668 -0.4511  0.4247 -0.0680
41285SOL     OW27259   3.611   2.169   6.347 -0.1252  0.0164 -0.0941
41285SOL    HW127260   3.632   2.080   6.374 -2.1029 -0.1405  1.0081
41285SOL    HW227261   3.676   2.190   6.280  1.1448 -1.7829  0.5397
41286SOL     OW27262   4.026   4.423   7.086 -0.4531 -0.1190 -0.1358
41286SOL    HW127263   4.050   4.464   7.169 -1.9731 -0.0094  0.2723
41286SOL    HW227264   4.065   4.336   7.090 -0.5573 -0.1351  0.7226
41287SOL     OW27265   5.904   1.156  10.369 -0.0067  0.6392  0.2515
41287SOL    HW127266   5.966   1.178  10.439  0.7007  2.8683 -1.0459
41287SOL    HW227267   5.943   1.079  10.327  1.8838  1.9748 -0.5046
41288SOL     OW27268   4.097   8.407   2.732  0.0020 -0.1462  0.0544
41288SOL    HW127269   4.082   8.430   2.640  0.5851  2.4618  0.5734
41288SOL    HW227270   4.012   8.419   2.774  0.1627  0.5286  0.2012
41289SOL     OW27271  10.312   2.453   2.125 -0.2748 -0.8371 -0.6691
41289SOL    HW127272  10.387   2.478   2.070  1.4670 -2.2861  0.9852
41289SOL    HW227273  10.246   2.424   2.062  1.3034 -1.4856 -2.0779
41290SOL     OW27274   2.025   0.978  10.696 -0.9540  0.6294  0.2079
41290SOL    HW127275   2.030   1.013  10.607  0.1499  0.1237  0.0614
41290SOL    HW227276   1.933   0.989  10.721 -1.2888  0.7031 -1.0233
41291SOL     OW27277   0.209   6.804  10.449  0.0788 -0.2370  0.2142
41291SOL    HW127278   0.130   6.857  10.436 -0.1244 -0.7074 -0.4877
41291SOL    HW227279   0.196   6.763  10.535 -0.0737  0.3137  0.4573
41292SOL     OW27280   0.609   0.010   9.381 -0.0753 -0.0612 -0.5559
41292SOL    HW127281   0.625  -0.073   9.427  0.1817  0.7257  0.8029
41292SOL    HW227282   0.532   0.047   9.424  1.4759  1.7391  0.7622
41293SOL     OW27283   3.596   9.645   0.294 -0.1072 -0.4025  0.3207
41293SOL    HW127284   3.584   9.553   0.319 -3.2380  0.0062  0.5646
41293SOL    HW227285   3.642   9.684   0.368  1.5873 -1.8350  0.0593
41294SOL     OW27286   6.799   6.345   2.104 -0.2255 -0.0001  0.5227
41294SOL    HW127287   6.824   6.311   2.190  0.4205 -0.2444  0.2423
41294SOL    HW227288   6.814   6.439   2.110  1.3019 -0.2058  0.1904
41295SOL     OW27289   3.434   9.859   3.144 -0.1691  0.5085 -0.1985
41295SOL    HW127290   3.504   9.923   3.127 -1.1107  1.1144 -1.9020
41295SOL    HW227291   3.360   9.891   3.094 -1.4382 -0.5821  0.9599
41296SOL     OW27292   6.410   8.025   8.709 -0.0869 -0.2015  0.0418
41296SOL    HW127293   6.412   7.930   8.694  0.9780 -0.3588  1.0746
41296SOL    HW227294   6.384   8.034   8.801 -0.2432  0.5095 -0.0680
41297SOL     OW27295   5.860   6.287   0.775  0.3254  0.1240 -0.5813
41297SOL    HW127296   5.894   6.344   0.844  0.7423  0.0204 -0.6961
41297SOL    HW227297   5.780   6.329   0.746 -0.1064 -0.0849  0.3020
41298SOL     OW27298  10.079   7.607   0.589  0.1008 -0.1508 -0.2585
41298SOL    HW127299  10.017   7.534   0.593 -0.8841  0.5780 -2.0106
41298SOL    HW227300  10.163   7.565   0.569 -0.1375 -0.9615  0.3803
41299SOL     OW27301   7.968   4.207  10.734  0.0853  0.2500 -0.0749
41299SOL    HW127302   8.033   4.208  10.804  0.4459  1.6941 -0.4084
41299SOL    HW227303   8.015   4.171  10.658 -0.2597 -1.1559  0.3540
41300SOL     OW27304   0.038   7.865   0.374 -0.2242 -0.0674 -0.1066
41300SOL    HW127305   0.066   7.806   0.304  1.0474 -1.0631  1.2282
41300SOL    HW227306   0.067   7.823   0.455 -1.8668  0.9630  1.0515
41301SOL     OW27307   8.070   4.089   9.225 -0.2242 -0.3473 -0.1826
41301SOL    HW127308   8.160   4.057   9.235 -0.7384 -1.1307  2.1458
41301SOL    HW227309   8.047   4.067   9.135  1.9142 -0.1323 -0.8097
41302SOL     OW27310   7.974  10.952   0.066 -0.8080 -0.3398 -0.1212
41302SOL    HW127311   8.046  10.927   0.008 -1.0986 -0.7524 -0.3081
41302SOL    HW227312   7.903  10.892   0.043 -1.3429  0.3204 -0.2203
41303SOL     OW27313   5.894   8.325   7.109 -0.2451 -0.4468  0.6730
41303SOL    HW127314   5.902   8.351   7.201 -0.8331 -0.2888  0.6804
41303SOL    HW227315   5.886   8.408   7.061  2.1383 -0.4187  0.2557
41304SOL     OW27316   8.909   4.329  10.307 -0.6685 -0.2998  0.5033
41304SOL    HW127317   8.973   4.333  10.379  0.2408 -1.7255 -0.2068
41304SOL    HW227318   8.962   4.315  10.229 -1.8049 -0.8717 -0.1775
41305SOL     OW27319   8.566   3.366   3.541 -0.5218  0.2680 -0.0584
41305SOL    HW127320   8.591   3.435   3.602  0.3881 -1.5899  1.7578
41305SOL    HW227321   8.477   3.342   3.567 -1.1736  1.3092 -1.2514
41306SOL     OW27322   6.872   1.895   3.520 -0.1964  0.1735 -0.2715
41306SOL    HW127323   6.843   1.872   3.432 -0.7959 -0.9898  0.2185
41306SOL    HW227324   6.851   1.818   3.573  0.5333  0.7024  0.8064
41307SOL     OW27325   0.538   0.224   3.859 -0.4131 -0.0411 -0.0979
41307SOL    HW127326   0.539   0.273   3.942 -4.4896  1.4049 -0.8145
41307SOL    HW227327   0.549   0.133   3.886  1.3383  0.6567  1.7364
41308SOL     OW27328   8.957   5.520   2.742 -0.0236 -0.1423 -0.3515
41308SOL    HW127329   8.916   5.598   2.703  2.1182  1.1709 -0.0655
41308SOL    HW227330   9.009   5.482   2.672 -0.1760 -0.6727 -0.1771
41309SOL     OW27331   5.731   0.570   1.043  0.0791 -0.4773 -0.1880
41309SOL    HW127332   5.699   0.640   1.100  1.7585  0.0817  0.1082
41309SOL    HW227333   5.677   0.494   1.065 -0.1340  0.0733  1.2294
41310SOL     OW27334   2.608   8.672   4.475  0.1058 -0.1178 -0.2679
41310SOL    HW127335   2.601   8.757   4.433  0.3007 -0.5903 -1.2597
41310SOL    HW227336   2.662   8.620   4.416  0.0412 -0.9153  0.3632
41311SOL     OW27337   5.962  10.816   1.309  0.2952 -0.6655 -0.3668
41311SOL    HW127338   5.903  10.887   1.282  0.8813 -0.8992 -2.3097
41311SOL    HW227339   6.049  10.857   1.310  0.8741 -1.6872 -3.0669
41312SOL     OW27340   3.630   4.170   7.646 -0.1006  0.4211 -0.4443
41312SOL    HW127341   3.682   4.249   7.657  0.6877 -0.1526 -0.0879
41312SOL    HW227342   3.636   4.151   7.552 -1.7387  1.7691 -0.8585
41313SOL     OW27343   4.056   1.188   6.035 -0.1185 -0.0547  0.3264
41313SOL    HW127344   4.149   1.170   6.046 -0.2712 -1.1823 -0.1633
41313SOL    HW227345   4.051   1.250   5.962  0.3459  1.2295  1.3664
41314SOL     OW27346   4.960   0.532  10.328 -0.4812  0.0436  0.2862
41314SOL    HW127347   5.020   0.595  10.368 -1.5335  1.2975 -0.0713
41314SOL    HW227348   4.951   0.463  10.393  0.1851  0.5793  0.9546
41315SOL     OW27349   3.773   2.009   9.954 -0.4548  0.1839 -0.0937
41315SOL    HW127350   3.721   1.974  10.025 -1.0673  0.7491 -0.2577
41315SOL    HW227351   3.765   2.104   9.962 -1.7401  0.2564 -1.7760
41316SOL     OW27352   0.672   1.396  10.790  0.3233  0.1046  0.4621
41316SOL    HW127353   0.621   1.337  10.846 -2.8084 -0.6938 -3.0774
41316SOL    HW227354   0.640   1.484  10.812 -1.6250 -0.2846 -0.7163
41317SOL     OW27355   7.703   7.219   6.588  0.0632  0.8527  0.3914
41317SOL    HW127356   7.658   7.135   6.576 -0.7392  1.4692 -1.0313
41317SOL    HW227357   7.641   7.285   6.555  1.6957  1.7777 -0.9670
41318SOL     OW27358   9.032  10.326   2.673 -0.4369  0.5778  0.2578
41318SOL    HW127359   9.047  10.408   2.625  1.1519 -1.2322 -2.4313
41318SOL    HW227360   8.958  10.285   2.627 -1.7274  0.8042  2.0685
41319SOL     OW27361   6.316   1.980   3.959  0.1176 -0.7999  0.7813
41319SOL    HW127362   6.276   1.926   4.028 -2.1684 -0.2621 -0.0657
41319SOL    HW227363   6.315   1.924   3.882 -0.1674 -0.3335  0.4460
41320SOL     OW27364  10.351   6.490   1.805 -0.3139 -0.4357  0.1227
41320SOL    HW127365  10.387   6.561   1.752  1.9059 -1.1366  0.6633
41320SOL    HW227366  10.374   6.514   1.895  2.3878 -2.8974  0.1467
41321SOL     OW27367   7.755   9.559   0.370 -0.5364  0.5709  0.4553
41321SOL    HW127368   7.824   9.571   0.305 -2.0573 -0.4650 -1.4322
41321SOL    HW227369   7.800   9.557   0.454  1.7120  0.0228 -0.7261
41322SOL     OW27370   6.122   3.279   4.176 -0.4287 -0.0201  0.8315
41322SOL    HW127371   6.070   3.330   4.238 -1.4007 -0.0001  0.0276
41322SOL    HW227372   6.092   3.310   4.090  0.7975 -0.1402  0.3579
41323SOL     OW27373   9.086  10.754   4.694  0.3839  0.0294 -0.1459
41323SOL    HW127374   9.171  10.796   4.709  0.7950 -0.1026 -2.0583
41323SOL    HW227375   9.027  10.827   4.674  0.6328 -0.1130 -1.4066
41324SOL     OW27376   5.838   0.147  10.672 -0.5091  0.2293  0.4148
41324SOL    HW127377   5.832   0.227  10.725  1.7988 -0.0761  1.1982
41324SOL    HW227378   5.931   0.138  10.653 -1.0884 -0.7022 -2.1505
41325SOL     OW27379   6.931   5.386   8.585 -0.3008 -0.4181  0.3082
41325SOL    HW127380   7.019   5.417   8.605  0.0269  0.0709 -1.8181
41325SOL    HW227381   6.875   5.433   8.647  0.0165  5.7018 -3.5998
41326SOL     OW27382   7.363   9.109   0.616 -0.0014  0.0284 -0.2587
41326SOL    HW127383   7.428   9.105   0.546 -0.4591 -0.8655 -0.6416
41326SOL    HW227384   7.290   9.156   0.578  0.1302  0.3823 -0.0709
41327SOL     OW27385   9.801   3.217   7.989 -0.0411  0.2424 -0.0511
41327SOL    HW127386   9.877   3.222   7.930  0.2851  0.5538  0.3874
41327SOL    HW227387   9.786   3.308   8.016 -1.0219  0.2807 -0.6936
41328SOL     OW27388   8.560   4.764  10.302  0.1080  0.0647 -0.1069
41328SOL    HW127389   8.593   4.699  10.364 -2.4002 -0.6789  0.4944
41328SOL    HW227390   8.483   4.724  10.263 -1.4859  2.6437  0.2420
41329SOL     OW27391   8.422   2.665   9.749  0.2465  0.1074 -0.6487
41329SOL    HW127392   8.495   2.725   9.765  0.9405 -1.0733  0.6834
41329SOL    HW227393   8.431   2.642   9.656  2.3704 -1.0349 -0.2067
41330SOL     OW27394   7.415   5.071   7.083  0.3486 -0.2995 -0.1052
41330SOL    HW127395   7.503   5.070   7.045  1.0475 -1.4934  1.4481
41330SOL    HW227396   7.396   5.163   7.097  1.1380  0.0004 -0.9486
41331SOL     OW27397   2.151   7.537   9.920  0.3837  0.3349  0.5229
41331SOL    HW127398   2.060   7.549   9.894  0.6693  0.5056 -0.3916
41331SOL    HW227399   2.202   7.549   9.840  1.0395 -2.0442  0.5168
41332SOL     OW27400   1.096   9.339   3.500  0.0035 -0.2929 -0.2905
41332SOL    HW127401   1.106   9.338   3.404 -0.0578 -0.3341 -0.2962
41332SOL    HW227402   1.002   9.327   3.514  0.2474 -2.2030 -0.1805
41333SOL     OW27403   9.995   3.505   0.933  0.5425  0.5721 -0.1324
41333SOL    HW127404  10.032   3.418   0.943 -2.8273 -0.9042  0.3100
41333SOL    HW227405  10.021   3.552   1.012 -0.5851 -1.2350  1.3598
41334SOL     OW27406   5.148   0.118   2.033  0.0222 -0.4537 -0.1257
41334SOL    HW127407   5.076   0.162   1.987 -0.9846  1.0578  2.7743
41334SOL    HW227408   5.198   0.076   1.964 -2.2554  0.5245 -2.4619
41335SOL     OW27409   8.017   9.543   7.591  0.2680 -0.8222  0.1479
41335SOL    HW127410   7.943   9.504   7.544 -0.4560  1.4682 -0.6509
41335SOL    HW227411   8.033   9.483   7.664 -3.6660 -0.3229  1.4961
41336SOL     OW27412   8.373   8.394   9.706  0.7162 -0.3940  0.6815
41336SOL    HW127413   8.358   8.327   9.773 -1.4529  1.5537  2.2487
41336SOL    HW227414   8.337   8.356   9.626 -1.9765 -0.5707  1.8930
41337SOL     OW27415   3.541   2.526   9.297  0.8635 -0.0546 -0.2799
41337SOL    HW127416   3.554   2.557   9.387  0.3952  2.2925 -0.9968
41337SOL    HW227417   3.627   2.538   9.255  0.7013  0.2414 -0.5339
41338SOL     OW27418   6.643   7.788   8.848 -0.5328  0.1212 -0.3839
41338SOL    HW127419   6.575   7.740   8.801 -0.0283 -1.7596  0.7263
41338SOL    HW227420   6.604   7.810   8.932 -0.7463  1.6640 -0.8723
41339SOL     OW27421   7.788   6.633   5.897  0.2286  0.0350 -0.1552
41339SOL    HW127422   7.869   6.667   5.935 -0.7690  1.8219  0.4367
41339SOL    HW227423   7.718   6.668   5.953 -1.0105 -0.8516 -1.1034
41340SOL     OW27424   3.354   8.519  10.307  0.6093 -0.1042  0.3483
41340SOL    HW127425   3.334   8.602  10.350 -2.8736 -0.6015 -0.1567
41340SOL    HW227426   3.269   8.480  10.288  2.1086 -2.4516 -2.0802
41341SOL     OW27427   4.443   1.020   1.007 -0.5848  0.4130  0.1776
41341SOL    HW127428   4.437   1.115   0.993  3.4556  0.6809 -0.2577
41341SOL    HW227429   4.437   1.010   1.102 -3.8945  0.7617  0.0793
41342SOL     OW27430   3.285   3.035   5.158  0.3763 -0.4821  0.5857
41342SOL    HW127431   3.242   3.048   5.243  0.0854  1.6968  0.1314
41342SOL    HW227432   3.221   3.067   5.094  1.6802  0.5073 -0.2618
41343SOL     OW27433   9.826   8.464   4.908  0.1382 -0.3840 -0.3901
41343SOL    HW127434   9.917   8.475   4.881 -0.0012  0.9472 -0.3587
41343SOL    HW227435   9.827   8.388   4.967  1.0688 -0.9223 -1.0919
41344SOL     OW27436   6.531   5.040  10.777 -0.9289  0.3171 -0.0738
41344SOL    HW127437   6.542   5.130  10.747  0.4627 -0.0927 -0.7942
41344SOL    HW227438   6.612   5.019  10.824 -1.1408 -0.6369 -0.1125
41345SOL     OW27439   0.724   1.074   7.235  0.2263 -0.1409 -0.9332
41345SOL    HW127440   0.717   0.980   7.219 -0.1866 -0.0914 -1.0445
41345SOL    HW227441   0.673   1.115   7.165 -1.3622  0.0907  0.3258
41346SOL     OW27442   1.344   1.334   4.577  0.0295 -0.3300 -0.5230
41346SOL    HW127443   1.388   1.260   4.617  1.0309  0.9548  0.8276
41346SOL    HW227444   1.340   1.313   4.484 -1.1871 -2.7955  0.0604
41347SOL     OW27445   7.141   1.742   2.477 -0.4388  0.2603  0.1735
41347SOL    HW127446   7.155   1.810   2.412 -0.2341 -0.6582 -0.7685
41347SOL    HW227447   7.226   1.733   2.521 -0.5917  0.9175  0.6051
41348SOL     OW27448   5.656   4.722   9.851  0.4524  0.6125 -0.2370
41348SOL    HW127449   5.631   4.655   9.787  1.2425  0.5886 -0.5269
41348SOL    HW227450   5.744   4.747   9.825  1.0871  0.0283  1.3276
41349SOL     OW27451   3.544   6.499   1.386 -0.2076 -0.3682 -0.3774
41349SOL    HW127452   3.492   6.430   1.426  1.1334 -0.6628  0.8913
41349SOL    HW227453   3.490   6.578   1.395 -0.7051 -0.7873  0.3414
41350SOL     OW27454   7.061   5.474   3.556 -0.8996 -0.3535  0.1782
41350SOL    HW127455   7.080   5.428   3.638 -2.1722 -1.1779  0.0231
41350SOL    HW227456   6.971   5.505   3.566  0.2357  3.0383  0.6876
41351SOL     OW27457   0.114   1.797   0.468 -0.6747 -0.5144 -0.0959
41351SOL    HW127458   0.091   1.852   0.543  0.1975 -1.8278  1.1686
41351SOL    HW227459   0.125   1.858   0.396  1.4957  1.1238  1.5546
41352SOL     OW27460   8.417   0.993   4.798 -0.1623  0.6613  0.3063
41352SOL    HW127461   8.361   1.014   4.724  0.3118  0.3785 -0.1335
41352SOL    HW227462   8.380   0.913   4.835 -1.3129  1.6376  1.3098
41353SOL     OW27463   3.197   8.496   3.722  0.1392  0.7702 -0.3276
41353SOL    HW127464   3.181   8.586   3.753  1.9694  0.5713  1.2682
41353SOL    HW227465   3.170   8.441   3.795  1.6310  0.1630 -0.2179
41354SOL     OW27466   9.006   4.018   8.623  0.1492  0.2731  0.5332
41354SOL    HW127467   8.990   3.951   8.557 -0.6546 -0.9245  1.9300
41354SOL    HW227468   8.930   4.076   8.617  0.9989  1.3049 -0.9015
41355SOL     OW27469   5.268   3.891   1.374 -0.5426 -1.1519 -0.0354
41355SOL    HW127470   5.225   3.930   1.450 -0.7801  0.6052 -1.0663
41355SOL    HW227471   5.359   3.921   1.380 -0.8746  0.1247 -1.1832
41356SOL     OW27472   6.632   7.677   7.426  0.3037  0.0448 -0.0592
41356SOL    HW127473   6.637   7.758   7.376 -1.2985 -0.9085 -1.7990
41356SOL    HW227474   6.561   7.691   7.488 -0.5438 -0.3506 -0.9441
41357SOL     OW27475   4.123   2.815   3.054  0.8358  0.4262  0.2627
41357SOL    HW127476   4.100   2.740   2.999  2.2441  1.5003 -1.8813
41357SOL    HW227477   4.166   2.776   3.131  0.2713 -1.0278 -0.1389
41358SOL     OW27478   2.160   8.080   5.214 -0.1087  0.1529 -0.3707
41358SOL    HW127479   2.112   8.077   5.296  1.7028  1.3225  0.7630
41358SOL    HW227480   2.103   8.128   5.154 -0.6750  0.8911  0.7400
41359SOL     OW27481   4.576   0.678   5.507 -0.2628 -0.1357  0.6446
41359SOL    HW127482   4.645   0.612   5.499  0.2186  0.5576 -1.0890
41359SOL    HW227483   4.536   0.683   5.420 -0.0995  2.0709  0.6655
41360SOL     OW27484   2.178   8.152  10.680  0.0560  0.0558 -0.5658
41360SOL    HW127485   2.245   8.214  10.707 -0.4743  1.0719 -1.5314
41360SOL    HW227486   2.097   8.184  10.719  0.2039 -1.5168  1.1177
41361SOL     OW27487   4.131   4.837   4.746 -0.1677 -0.1719 -0.1519
41361SOL    HW127488   4.109   4.929   4.740 -1.0921 -0.3777 -0.0400
41361SOL    HW227489   4.164   4.814   4.660 -0.8130  0.0429 -0.4576
41362SOL     OW27490  10.530   7.295   0.368  0.2442  0.5679 -0.2288
41362SOL    HW127491  10.573   7.246   0.437 -1.1369 -0.4584 -0.0684
41362SOL    HW227492  10.487   7.228   0.314 -0.3807  1.4921 -0.8965
41363SOL     OW27493   1.716   0.093   8.262 -0.2687 -0.9379  0.6477
41363SOL    HW127494   1.634   0.125   8.225 -0.0788 -1.0749  0.1080
41363SOL    HW227495   1.743   0.163   8.323  0.6765  0.4454 -1.3057
41364SOL     OW27496  10.406   3.125   1.895 -0.0094 -0.4188 -0.1859
41364SOL    HW127497  10.442   3.043   1.862  1.1453  0.1646 -0.3951
41364SOL    HW227498  10.332   3.144   1.837  0.0485 -1.0390 -0.4606
41365SOL     OW27499   0.723   9.837   6.231  0.2390  0.1690 -0.6195
41365SOL    HW127500   0.750   9.793   6.312 -1.9209  0.0795  0.1024
41365SOL    HW227501   0.718   9.930   6.255 -0.8497  0.0871 -0.5041
41366SOL     OW27502   8.714   5.586   6.734  0.5321  0.5149  0.1981
41366SOL    HW127503   8.669   5.506   6.762 -0.9412  1.2330 -0.0765
41366SOL    HW227504   8.763   5.615   6.812 -1.2508  0.9301  1.1961
41367SOL     OW27505   0.122   1.078   1.769  0.0603  0.3572  0.0530
41367SOL    HW127506   0.160   1.093   1.683 -1.1883  0.7337 -0.4450
41367SOL    HW227507   0.055   1.011   1.755 -1.6541  1.9737  0.2924
41368SOL     OW27508   0.045   2.186   6.803 -0.6293  0.1018 -0.5367
41368SOL    HW127509   0.071   2.246   6.732  1.3465  1.0010  0.8836
41368SOL    HW227510   0.010   2.243   6.871  0.7455 -0.3869  0.6030
41369SOL     OW27511   9.917   9.824   4.868  0.2152  0.6125 -0.0918
41369SOL    HW127512   9.983   9.755   4.862 -0.6887 -0.2315 -0.4099
41369SOL    HW227513   9.917   9.848   4.961  1.7972  1.4431 -0.2972
41370SOL     OW27514  10.497   3.698   1.471  0.1254 -0.1608 -0.0247
41370SOL    HW127515  10.573   3.695   1.413 -0.1026  0.6495 -0.3800
41370SOL    HW227516  10.482   3.792   1.486  0.8862 -0.3806  2.2876
41371SOL     OW27517   1.659   8.960   1.349 -0.2407 -0.5945  0.0142
41371SOL    HW127518   1.571   8.938   1.382 -0.0011 -1.6581 -0.0521
41371SOL    HW227519   1.712   8.883   1.369  0.5855 -0.1221 -0.3362
41372SOL     OW27520   3.076   5.448   2.149 -0.3582 -0.2654  0.2268
41372SOL    HW127521   3.048   5.474   2.062 -0.8064  1.5617  0.9005
41372SOL    HW227522   3.002   5.397   2.183 -0.6212 -0.0865 -0.0703
41373SOL     OW27523   3.541   0.149   3.120 -0.0164  0.4135 -0.3881
41373SOL    HW127524   3.502   0.236   3.124  0.1513  0.5519 -1.5301
41373SOL    HW227525   3.475   0.095   3.076 -1.5282 -0.8530  3.2024
41374SOL     OW27526   8.955  10.751   5.648  0.2527 -0.4082  0.3625
41374SOL    HW127527   9.008  10.685   5.693  0.3815  0.7171  1.8760
41374SOL    HW227528   8.903  10.791   5.717 -0.2064  0.7303 -0.6349
41375SOL     OW27529   6.096  10.554  10.372  0.3574 -0.1262 -0.3837
41375SOL    HW127530   6.093  10.490  10.443  0.3612  0.4531  0.1417
41375SOL    HW227531   6.014  10.604  10.381 -0.2858 -0.9339 -1.6194
41376SOL     OW27532   6.165   4.536  10.689 -0.6524 -0.3005  0.0104
41376SOL    HW127533   6.147   4.477  10.762  0.3785 -0.1952  0.3460
41376SOL    HW227534   6.131   4.621  10.718  1.5623  0.1989  1.1819
41377SOL     OW27535   3.433   3.564  10.902 -0.0683 -0.0363 -0.1361
41377SOL    HW127536   3.399   3.475  10.888  0.1572  0.2031 -2.2640
41377SOL    HW227537   3.443   3.600  10.815  2.4096  1.1334  0.5932
41378SOL     OW27538   7.827   4.608   2.111  0.3405 -0.3227 -0.1202
41378SOL    HW127539   7.747   4.558   2.130  0.6576 -0.6961  0.2544
41378SOL    HW227540   7.832   4.673   2.181  0.1537 -0.0389 -0.3692
41379SOL     OW27541   8.817   3.067   8.992 -0.0369  0.4312 -0.0941
41379SOL    HW127542   8.765   2.991   8.967 -0.0285  0.6054 -0.6492
41379SOL    HW227543   8.866   3.090   8.913  0.7097  0.4074  0.3622
41380SOL     OW27544   6.384   9.250   8.642  0.9430 -0.4820  0.2965
41380SOL    HW127545   6.294   9.282   8.645  0.4502 -1.9259  1.8765
41380SOL    HW227546   6.377   9.162   8.605  1.6464 -0.7620  0.8134
41381SOL     OW27547   4.333  10.022  10.332 -0.1382 -0.0417  0.5405
41381SOL    HW127548   4.294   9.945  10.375  0.7737  0.6852  2.7655
41381SOL    HW227549   4.343  10.086  10.403 -0.3332  1.9169 -1.1628
41382SOL     OW27550   4.402   6.377   2.163  0.1208  0.1338 -0.1411
41382SOL    HW127551   4.414   6.352   2.254 -0.9441 -0.4597 -0.1528
41382SOL    HW227552   4.380   6.295   2.119 -0.3994  0.5953 -0.7428
41383SOL     OW27553   6.371   2.107   6.197 -0.0027 -0.0578  0.0700
41383SOL    HW127554   6.456   2.119   6.239  1.1053 -1.1009 -1.7831
41383SOL    HW227555   6.333   2.030   6.239  0.7239 -0.5867 -0.2302
41384SOL     OW27556   6.838   6.170   6.533  0.7041 -0.3577 -0.2216
41384SOL    HW127557   6.832   6.183   6.627  0.9717  0.0593 -0.2601
41384SOL    HW227558   6.932   6.177   6.514  0.7905 -1.6639 -0.3435
41385SOL     OW27559   1.691   0.263   9.564  0.0205 -0.0386  0.0026
41385SOL    HW127560   1.630   0.215   9.508  1.1089 -0.2248 -1.0498
41385SOL    HW227561   1.745   0.314   9.503 -0.6608  1.9985  1.0646
41386SOL     OW27562   5.440   2.928   2.578 -0.4048 -0.5614  0.0324
41386SOL    HW127563   5.389   2.899   2.653 -1.1156  0.3827 -0.0915
41386SOL    HW227564   5.382   2.985   2.529  0.1615 -0.9127 -1.0710
41387SOL     OW27565   7.462   7.799   1.014  0.3845 -0.1310 -0.5335
41387SOL    HW127566   7.453   7.761   1.102  0.5526 -1.7691 -1.2069
41387SOL    HW227567   7.412   7.741   0.957  0.0513  1.0712 -1.4947
41388SOL     OW27568   8.156   9.370  10.915  0.0276 -0.0464 -0.3965
41388SOL    HW127569   8.167   9.456  10.875 -1.2992 -1.9452 -5.1974
41388SOL    HW227570   8.239   9.326  10.900  0.3931  0.0514  1.2645
41389SOL     OW27571   1.261   1.944   1.550 -0.0720 -0.2827  0.3633
41389SOL    HW127572   1.354   1.919   1.555  0.2393  0.5252 -1.1181
41389SOL    HW227573   1.259   2.013   1.484 -1.9448 -1.2791 -0.6550
41390SOL     OW27574   8.029   8.579   9.175  0.2250 -0.3532 -0.7032
41390SOL    HW127575   8.051   8.615   9.261 -0.2642  0.3582 -0.8770
41390SOL    HW227576   8.102   8.520   9.155  0.7319  0.0782 -0.1603
41391SOL     OW27577   7.666   9.314   7.477 -0.0175 -0.6810  0.3657
41391SOL    HW127578   7.703   9.314   7.565  2.0920  1.1353 -0.4595
41391SOL    HW227579   7.619   9.397   7.470  1.6683  0.1903 -0.9207
41392SOL     OW27580   7.660   2.816   7.896 -0.1272 -0.4182  0.2272
41392SOL    HW127581   7.712   2.811   7.816 -2.1383 -2.5729 -1.0073
41392SOL    HW227582   7.604   2.892   7.883 -0.1397 -0.5015 -0.2197
41393SOL     OW27583   4.540   0.632   2.594  0.4529  0.2378  0.0922
41393SOL    HW127584   4.601   0.559   2.605  0.5205  0.2436 -0.2364
41393SOL    HW227585   4.594   0.703   2.558 -0.1044 -0.3271 -1.9310
41394SOL     OW27586   8.492   8.804   7.209  0.8183  0.3829  0.0678
41394SOL    HW127587   8.565   8.828   7.267  0.7790  0.0659  0.2508
41394SOL    HW227588   8.506   8.711   7.191  0.1614  0.1938  0.5386
41395SOL     OW27589   2.726   3.725   3.403 -0.5352  0.0945 -0.1122
41395SOL    HW127590   2.694   3.742   3.492 -0.0789 -0.1933  0.1078
41395SOL    HW227591   2.670   3.779   3.347  1.3802  3.0120  0.6379
41396SOL     OW27592   4.901   0.480   5.288  0.2449 -0.0378 -0.1144
41396SOL    HW127593   4.875   0.482   5.380  0.4165  0.3442 -0.0729
41396SOL    HW227594   4.858   0.557   5.250 -1.1398 -1.0671 -0.7089
41397SOL     OW27595  10.410   6.279   9.275 -0.6284  0.2528 -0.0797
41397SOL    HW127596  10.386   6.300   9.365 -2.3981 -2.8574  0.2644
41397SOL    HW227597  10.336   6.310   9.223 -1.9593 -2.3990  0.1392
41398SOL     OW27598   0.451   3.671   6.996 -0.0287 -1.0204  0.0826
41398SOL    HW127599   0.423   3.753   7.036  0.0765 -0.6607 -0.5766
41398SOL    HW227600   0.545   3.665   7.015 -0.0084 -0.9188  0.0164
41399SOL     OW27601   8.470   3.822   5.058 -0.4323 -0.4741  0.5790
41399SOL    HW127602   8.500   3.910   5.079  0.1178 -0.2749 -0.9772
41399SOL    HW227603   8.524   3.765   5.113 -0.0765  0.1065  0.8404
41400SOL     OW27604   9.881   0.979   3.580 -0.3460  0.1327 -0.6563
41400SOL    HW127605   9.824   0.962   3.656  1.2232 -2.3387  0.0002
41400SOL    HW227606   9.969   0.978   3.616  0.4806 -1.9006 -2.6399
41401SOL     OW27607   8.149  10.154   6.914  0.2049  0.4777 -0.0683
41401SOL    HW127608   8.216  10.137   6.847  1.2360  0.1857  1.0098
41401SOL    HW227609   8.193  10.135   6.997 -0.9533  1.1586  0.7187
41402SOL     OW27610   9.296   8.750   1.839 -0.3047 -0.4870 -1.1878
41402SOL    HW127611   9.227   8.718   1.897  1.1609  0.0746  0.9246
41402SOL    HW227612   9.255   8.823   1.792 -1.4315 -0.7513 -0.6395
41403SOL     OW27613   1.163   8.942   1.782  0.1899  0.0276  0.0899
41403SOL    HW127614   1.150   8.917   1.690 -0.6011  1.8180 -0.3008
41403SOL    HW227615   1.094   8.895   1.828 -0.6373  0.6520 -0.4979
41404SOL     OW27616  10.334   0.143   7.928 -0.7801 -1.0735 -0.2660
41404SOL    HW127617  10.333   0.059   7.884 -1.1822 -1.4930  0.5225
41404SOL    HW227618  10.282   0.129   8.007  1.3058 -0.7981  1.1933
41405SOL     OW27619   1.551   2.097   4.655  0.3603 -0.0371 -0.4038
41405SOL    HW127620   1.592   2.019   4.690 -0.2290  0.5774  1.7393
41405SOL    HW227621   1.620   2.141   4.605  1.7023 -0.0901  1.3702
41406SOL     OW27622   4.068   2.074   6.230 -0.1299  0.2629  0.2658
41406SOL    HW127623   4.043   2.147   6.173  1.7097  0.2929 -0.5525
41406SOL    HW227624   4.085   2.115   6.315 -1.0508  0.4967  0.3384
41407SOL     OW27625   6.858   1.131   0.643 -0.2464  0.1070  0.1745
41407SOL    HW127626   6.806   1.190   0.588 -1.2412  0.0710  1.0583
41407SOL    HW227627   6.803   1.116   0.720  0.5721 -0.9069  0.5663
41408SOL     OW27628   9.145   5.313   0.139  0.0562 -0.2797 -0.1633
41408SOL    HW127629   9.190   5.380   0.087  0.3205 -2.1070 -2.3559
41408SOL    HW227630   9.215   5.261   0.178 -0.1393 -1.0321 -0.8039
41409SOL     OW27631   3.561   8.195   8.379  0.2477 -0.0300 -0.3946
41409SOL    HW127632   3.486   8.229   8.428 -0.8718 -0.3268 -1.8520
41409SOL    HW227633   3.522   8.135   8.315  1.1549  3.7713 -4.7430
41410SOL     OW27634   8.069   9.186   2.413  0.2721 -0.4206 -0.4609
41410SOL    HW127635   8.066   9.114   2.475  2.9566 -0.2287 -0.0662
41410SOL    HW227636   8.040   9.147   2.330 -0.9438 -1.2573  0.3307
41411SOL     OW27637   7.401   5.540   4.127  0.2338  0.4253 -0.2259
41411SOL    HW127638   7.306   5.535   4.118  0.3067 -1.4373 -0.1277
41411SOL    HW227639   7.434   5.547   4.037 -0.0269  2.0222 -0.2114
41412SOL     OW27640   8.368   8.579   9.025  0.2251 -0.8125  0.0148
41412SOL    HW127641   8.354   8.543   9.113 -2.4840  0.7801  0.2880
41412SOL    HW227642   8.449   8.631   9.033  0.6609 -1.6458  1.2382
41413SOL     OW27643   9.571   4.647   2.783  0.3751  0.3744 -0.1631
41413SOL    HW127644   9.664   4.642   2.803 -0.1931  0.9655  2.7798
41413SOL    HW227645   9.568   4.686   2.695  2.8711  0.2664 -0.3374
41414SOL     OW27646   6.545   2.108   2.749 -0.2954 -0.1610 -0.4602
41414SOL    HW127647   6.511   2.180   2.802 -0.6213 -0.0387 -0.8329
41414SOL    HW227648   6.538   2.140   2.659  1.0203 -0.0458 -0.5247
41415SOL     OW27649   0.958   5.595  10.767 -0.1908  0.3551  0.4513
41415SOL    HW127650   1.049   5.576  10.789 -0.3781  0.6102  1.4735
41415SOL    HW227651   0.930   5.658  10.834 -1.2731 -0.1189  0.4514
41416SOL     OW27652  10.268  10.749   0.678  0.3727 -0.1517  0.3040
41416SOL    HW127653  10.296  10.670   0.725  2.8358  0.9497  0.7560
41416SOL    HW227654  10.188  10.722   0.632  0.3198 -2.4704  1.6582
41417SOL     OW27655   6.864   5.833  10.579 -0.4199 -0.2923 -0.1465
41417SOL    HW127656   6.944   5.803  10.535 -0.4642 -0.1488 -0.3276
41417SOL    HW227657   6.805   5.857  10.508 -0.2688  0.5213 -0.0055
41418SOL     OW27658   6.599   5.279   8.389  0.0029 -0.8609  0.4555
41418SOL    HW127659   6.685   5.247   8.360  0.6935  0.9503  0.4468
41418SOL    HW227660   6.596   5.259   8.482  0.8245 -0.1027  0.6492
41419SOL     OW27661   1.252   9.592   7.234  0.3202  0.7322 -0.2807
41419SOL    HW127662   1.189   9.632   7.295  0.9078  2.3992 -0.7362
41419SOL    HW227663   1.197   9.546   7.170 -0.3924  1.2072 -0.0183
41420SOL     OW27664   6.895   2.523   8.742  0.1423 -0.3209 -0.7278
41420SOL    HW127665   6.981   2.482   8.742  0.2568 -0.1047  0.7674
41420SOL    HW227666   6.839   2.460   8.787 -0.5897 -0.6395 -2.0298
41421SOL     OW27667   3.302   2.221   7.450 -0.0837 -0.2283  0.0793
41421SOL    HW127668   3.288   2.132   7.480  0.8888 -0.8549 -1.2654
41421SOL    HW227669   3.221   2.245   7.406 -0.6519 -0.1434  1.1630
41422SOL     OW27670   2.418   3.479   7.416  0.0749 -0.3849  0.1270
41422SOL    HW127671   2.326   3.469   7.391  0.1697 -0.1044 -0.3434
41422SOL    HW227672   2.417   3.548   7.482 -0.2106 -1.3326  1.1317
41423SOL     OW27673   6.868   4.120   8.116  0.4865 -0.1390  0.0266
41423SOL    HW127674   6.895   4.165   8.036 -0.0125 -2.2088 -1.3702
41423SOL    HW227675   6.773   4.112   8.108  0.3274  0.4330  1.2645
41424SOL     OW27676   8.785   9.897   2.851 -0.1528  0.4658  0.4296
41424SOL    HW127677   8.748   9.960   2.913 -1.0274  0.1716  0.2079
41424SOL    HW227678   8.880   9.911   2.857 -0.2771  0.9860  1.2469
41425SOL     OW27679   1.139   7.288   3.367  0.7017  0.2922  0.9653
41425SOL    HW127680   1.214   7.339   3.337  0.6972 -0.1273  0.2304
41425SOL    HW227681   1.141   7.208   3.314  0.7706 -0.5252  2.1819
41426SOL     OW27682   8.800   8.669  10.717  0.4040  0.6450 -0.3451
41426SOL    HW127683   8.826   8.632  10.801  0.8750  0.4529 -0.5786
41426SOL    HW227684   8.820   8.601  10.653 -0.4668  0.5706 -0.5554
41427SOL     OW27685   7.283   1.802   5.525 -0.4691 -0.3167 -0.4662
41427SOL    HW127686   7.284   1.873   5.589  0.4776 -0.1408 -0.6682
41427SOL    HW227687   7.216   1.829   5.461  0.6427  0.9179 -1.1202
41428SOL     OW27688   8.893   4.159   0.395 -0.2474 -0.2739  0.1812
41428SOL    HW127689   8.969   4.214   0.414  1.4394 -2.9078  1.3867
41428SOL    HW227690   8.903   4.136   0.302  0.7843 -1.0890  0.4824
41429SOL     OW27691   5.907   2.799   7.687  0.3906  0.3108 -0.2515
41429SOL    HW127692   5.835   2.744   7.657 -1.0215  1.4793  0.8896
41429SOL    HW227693   5.982   2.772   7.635 -1.4404  0.7157 -3.1744
41430SOL     OW27694   5.449   9.334   0.896 -0.5052  0.2313  0.0011
41430SOL    HW127695   5.356   9.314   0.899 -0.5437  0.4456  0.2299
41430SOL    HW227696   5.481   9.315   0.984 -0.4176  0.5595  0.0428
41431SOL     OW27697   1.122   5.375   2.858  0.3608 -0.2492  0.4412
41431SOL    HW127698   1.103   5.467   2.875  1.2267  0.1977 -0.9513
41431SOL    HW227699   1.174   5.375   2.778  0.5912 -1.9346  0.5636
41432SOL     OW27700   1.628   4.862  10.424  0.3428  0.4806  0.1999
41432SOL    HW127701   1.642   4.908  10.341  0.0242  0.2183 -0.0045
41432SOL    HW227702   1.700   4.799  10.428  0.9144  1.1539  0.5937
41433SOL     OW27703   8.442   6.956   5.177 -0.4523  0.4840  0.9390
41433SOL    HW127704   8.443   6.868   5.213  1.2230 -0.6638 -1.7778
41433SOL    HW227705   8.534   6.982   5.174 -0.5045  0.4522 -2.6262
41434SOL     OW27706  10.274   0.515   8.587  0.9736  0.6103 -0.4603
41434SOL    HW127707  10.192   0.547   8.550  0.6236 -0.0674 -0.2667
41434SOL    HW227708  10.334   0.590   8.581  0.4653  0.9730 -0.9778
41435SOL     OW27709   8.771   7.696   3.081  0.2024 -0.2417 -0.1009
41435SOL    HW127710   8.715   7.619   3.092 -0.3794  0.3101  0.7914
41435SOL    HW227711   8.848   7.678   3.134  0.1195 -0.2576  0.0134
41436SOL     OW27712   5.802  10.796   0.051  0.2986  0.1681  0.0013
41436SOL    HW127713   5.736  10.727   0.043  1.1211 -0.7646  1.0942
41436SOL    HW227714   5.846  10.797  -0.034  1.1552 -1.5757  0.3958
41437SOL     OW27715   9.595   9.215   1.145  0.0090  0.0353  0.3277
41437SOL    HW127716   9.535   9.153   1.104 -0.1750 -0.5445  1.4449
41437SOL    HW227717   9.682   9.179   1.127 -0.1144 -0.7825  1.3253
41438SOL     OW27718   0.703   2.312   4.803 -0.4117  0.2478 -0.1700
41438SOL    HW127719   0.609   2.318   4.785 -0.7759  0.5421  1.7912
41438SOL    HW227720   0.718   2.220   4.822 -1.1132  0.8217  3.6210
41439SOL     OW27721   7.753   2.094   3.940  0.0214  0.2214 -0.1885
41439SOL    HW127722   7.725   2.013   3.896 -1.4473 -0.1934  1.4467
41439SOL    HW227723   7.801   2.064   4.017 -0.0598  0.9213  0.1335
41440SOL     OW27724   3.477   9.512   2.996  0.3769 -0.0272 -0.1320
41440SOL    HW127725   3.545   9.445   2.988 -0.1447 -0.5950  0.1468
41440SOL    HW227726   3.522   9.595   2.980  1.1341 -0.4042  0.0648
41441SOL     OW27727   8.374   4.400   5.923 -0.2347  0.0861  0.0908
41441SOL    HW127728   8.381   4.461   5.849  0.2785  0.4794  0.4605
41441SOL    HW227729   8.426   4.441   5.992  0.8128 -1.1850  0.0645
41442SOL     OW27730   6.101   7.808   6.790  0.4175 -0.2352  0.1766
41442SOL    HW127731   6.103   7.856   6.873  1.2347  0.9562 -0.5212
41442SOL    HW227732   6.186   7.765   6.785  0.2673 -0.5231  0.0802
41443SOL     OW27733   7.909   9.363   7.332 -0.0630 -0.6049  0.0997
41443SOL    HW127734   7.952   9.279   7.311  0.5242 -0.7375  1.7148
41443SOL    HW227735   7.823   9.338   7.364 -0.3365 -0.5103 -0.5564
41444SOL     OW27736   6.148   9.841   6.255  0.3531  0.0151  0.3033
41444SOL    HW127737   6.181   9.820   6.167 -0.8974  0.9259 -0.3950
41444SOL    HW227738   6.081   9.907   6.240 -1.0010 -0.9875  1.8056
41445SOL     OW27739   7.199   1.975   6.114  0.1530 -0.0740 -0.2991
41445SOL    HW127740   7.223   2.059   6.154 -2.2447  0.1501  0.7192
41445SOL    HW227741   7.263   1.913   6.148 -0.2692  0.6332  1.8637
41446SOL     OW27742   5.673   8.057  10.857  0.2706  0.6584 -0.0274
41446SOL    HW127743   5.674   8.045  10.762  0.8992  0.1376  0.0415
41446SOL    HW227744   5.599   8.004  10.887  0.5846  0.1481 -0.1428
41447SOL     OW27745   0.583   0.758   1.210  0.4668 -0.2078 -0.4329
41447SOL    HW127746   0.597   0.672   1.169  1.2700  0.4229 -1.5163
41447SOL    HW227747   0.592   0.742   1.304  3.6107 -0.7671 -0.7882
41448SOL     OW27748   0.284   5.101   1.203 -0.3587  0.4459 -0.3168
41448SOL    HW127749   0.270   5.168   1.271  1.3411  1.3400 -0.8236
41448SOL    HW227750   0.353   5.045   1.239 -1.2492 -0.6151 -0.2251
41449SOL     OW27751   0.032   5.425   8.690 -0.0055 -0.3078  0.3245
41449SOL    HW127752   0.093   5.376   8.634 -0.5833 -0.3863 -0.2427
41449SOL    HW227753   0.008   5.501   8.637  0.1951  0.1253  0.8535
41450SOL     OW27754   9.683   9.984   4.791 -0.2315  0.7023 -0.2469
41450SOL    HW127755   9.658   9.962   4.701  1.9558  0.8928 -0.9226
41450SOL    HW227756   9.757   9.926   4.810  0.0717  1.4931  1.0300
41451SOL     OW27757   6.433   7.438   2.242 -0.0969  0.0797  0.2612
41451SOL    HW127758   6.387   7.436   2.326  0.1047 -0.0137  0.3699
41451SOL    HW227759   6.491   7.514   2.249 -0.9057  0.7593 -0.2330
41452SOL     OW27760   0.629  10.462   6.263  0.1264  0.2826 -0.1214
41452SOL    HW127761   0.636  10.375   6.223 -0.0640  0.9866 -1.6851
41452SOL    HW227762   0.555  10.454   6.324 -1.7365  0.1509 -2.3597
41453SOL     OW27763   3.109  10.072  10.576 -0.0741  0.6412  0.0420
41453SOL    HW127764   3.143  10.000  10.524  2.4885  0.2587  2.1261
41453SOL    HW227765   3.071  10.030  10.653 -0.4324  1.4053  0.2920
41454SOL     OW27766   9.768   2.535   8.986  0.6134 -0.3462  0.1685
41454SOL    HW127767   9.809   2.507   9.068 -1.1017 -0.1226  1.1197
41454SOL    HW227768   9.722   2.456   8.955 -0.6474  0.2031  0.6219
41455SOL     OW27769   9.047   3.515  10.725 -0.2170  0.1182 -0.1979
41455SOL    HW127770   8.971   3.507  10.667  1.1001 -2.6512 -1.6509
41455SOL    HW227771   9.121   3.525  10.666  0.9795 -1.2876  1.0177
41456SOL     OW27772   2.138   7.371   6.419  0.3955  0.2149 -0.3292
41456SOL    HW127773   2.107   7.282   6.406 -1.1446  0.9796 -2.0315
41456SOL    HW227774   2.085   7.405   6.491  1.1581 -0.3014  0.4915
41457SOL     OW27775   6.799   6.700   6.956 -0.1805 -0.0875  0.3886
41457SOL    HW127776   6.886   6.689   6.995 -1.0845  1.7934  3.1429
41457SOL    HW227777   6.802   6.650   6.875  3.2922 -0.5047  0.6998
41458SOL     OW27778   7.419   0.038   6.565  0.4301  0.3202  0.5049
41458SOL    HW127779   7.352  -0.014   6.520 -1.2936  0.1108  3.1787
41458SOL    HW227780   7.496   0.032   6.509 -0.9314 -1.8201 -1.2202
41459SOL     OW27781   8.385   6.304   7.232 -0.3662  0.3909  0.2622
41459SOL    HW127782   8.298   6.325   7.265 -0.0291 -0.9419  2.0880
41459SOL    HW227783   8.373   6.222   7.185 -0.1716  0.3955  0.2034
41460SOL     OW27784   6.664   4.678   7.677  0.7710  0.3129 -0.1647
41460SOL    HW127785   6.676   4.733   7.755 -0.6755  0.6447 -0.1646
41460SOL    HW227786   6.702   4.593   7.702  0.2879  0.4012  0.9173
41461SOL     OW27787   4.152   6.551   8.097  0.3548 -0.5403 -0.0380
41461SOL    HW127788   4.143   6.582   8.188  0.9158  1.1626 -0.5348
41461SOL    HW227789   4.104   6.469   8.095 -0.9560  0.1465  1.4455
41462SOL     OW27790   0.697   8.122   8.193  0.5459  0.2673 -0.1951
41462SOL    HW127791   0.675   8.215   8.183  2.0400  0.5302 -1.2785
41462SOL    HW227792   0.735   8.115   8.280 -0.3894  0.5024  0.2333
41463SOL     OW27793   3.743   6.434   8.203 -0.1470 -0.1634  0.6060
41463SOL    HW127794   3.693   6.354   8.189 -1.1009  0.8659 -2.4198
41463SOL    HW227795   3.829   6.414   8.166 -0.2889  0.0999  0.1300
41464SOL     OW27796   3.080  10.347   1.199  0.6104 -0.2657 -0.3515
41464SOL    HW127797   2.990  10.340   1.168 -0.3600 -0.1847  2.3101
41464SOL    HW227798   3.132  10.303   1.132 -1.6218 -2.0637 -0.9677
41465SOL     OW27799   2.717   6.439   6.178  0.4363 -0.0728  0.4905
41465SOL    HW127800   2.763   6.379   6.119  0.8971 -1.5689  2.3522
41465SOL    HW227801   2.787   6.479   6.230 -0.0744  0.3646  0.8423
41466SOL     OW27802   1.588  10.445   1.726 -0.3430  0.1940 -0.0342
41466SOL    HW127803   1.565  10.498   1.802  0.5265  0.0342  0.3384
41466SOL    HW227804   1.633  10.369   1.762  1.0993  0.6733 -0.7836
41467SOL     OW27805   4.308   2.465   2.227  0.6742 -0.7420  0.6485
41467SOL    HW127806   4.333   2.500   2.312 -0.1613 -2.3174  1.5495
41467SOL    HW227807   4.213   2.453   2.232  0.6443 -1.0536 -0.4277
41468SOL     OW27808   6.751  10.235   4.731  0.7123 -0.1363 -0.6877
41468SOL    HW127809   6.812  10.259   4.801  0.3496  1.8050 -1.0071
41468SOL    HW227810   6.730  10.318   4.688 -2.6807 -0.6469 -0.1597
41469SOL     OW27811   0.690   7.071   3.830 -0.5424 -0.1100  0.2468
41469SOL    HW127812   0.697   7.149   3.775  0.6748 -0.9008 -0.7694
41469SOL    HW227813   0.735   7.095   3.911  0.2926  0.0760 -0.2646
41470SOL     OW27814   8.543   2.117   7.935 -0.1503  0.3444 -0.5033
41470SOL    HW127815   8.564   2.060   7.862  1.2167  0.4526 -0.2012
41470SOL    HW227816   8.602   2.192   7.925 -1.1056  1.1541 -0.2296
41471SOL     OW27817   4.044   8.908   5.564  0.4467  0.1050 -0.4259
41471SOL    HW127818   4.119   8.929   5.509  0.2918  0.8762 -0.3542
41471SOL    HW227819   3.971   8.956   5.525 -0.0628 -0.8153 -0.6273
41472SOL     OW27820   8.144   2.199   2.521  0.2880 -0.8455  0.1806
41472SOL    HW127821   8.106   2.188   2.434 -0.4546  0.4543  0.3262
41472SOL    HW227822   8.080   2.253   2.568  1.2147 -0.6009  1.1738
41473SOL     OW27823   7.550   6.972   0.539  0.2049  0.3060 -0.2849
41473SOL    HW127824   7.488   7.028   0.585 -0.6415 -1.4969  0.8461
41473SOL    HW227825   7.499   6.933   0.468  0.4632  0.0536 -0.3327
41474SOL     OW27826   6.679   6.380   1.175 -0.3924  0.0820  0.5453
41474SOL    HW127827   6.644   6.466   1.151 -0.8802 -0.0081  0.9115
41474SOL    HW227828   6.756   6.399   1.228  0.0417  0.2872 -0.1558
41475SOL     OW27829   5.069   5.470   9.542  0.3698 -0.3937  0.4806
41475SOL    HW127830   5.046   5.559   9.569  1.0674 -0.1288  0.2045
41475SOL    HW227831   5.138   5.482   9.477 -0.2362 -1.0962 -0.2965
41476SOL     OW27832   5.901  10.323   4.265  0.2995 -0.0233  0.4253
41476SOL    HW127833   5.954  10.270   4.205  0.8626  0.1218  0.7895
41476SOL    HW227834   5.859  10.260   4.323  1.9161 -0.0100  1.6300
41477SOL     OW27835   7.949   7.273   4.870 -0.4892 -0.0016  0.0643
41477SOL    HW127836   7.957   7.242   4.960  1.0630 -0.7458 -0.3115
41477SOL    HW227837   7.942   7.368   4.878  0.0725 -0.0258  0.9434
41478SOL     OW27838   5.043  10.632   9.627 -0.5640  0.4776 -0.2348
41478SOL    HW127839   5.091  10.696   9.678  0.5840 -1.7251  1.4895
41478SOL    HW227840   5.031  10.557   9.685 -0.8059 -1.3850 -2.5848
41479SOL     OW27841   0.219   8.495   7.187  0.1109  0.5315  0.4194
41479SOL    HW127842   0.183   8.413   7.219 -0.0530 -0.6462 -2.6110
41479SOL    HW227843   0.145   8.538   7.142  1.3155  0.1183 -2.0537
41480SOL     OW27844  10.170   4.664   1.696  0.2352 -0.2082  0.2041
41480SOL    HW127845  10.169   4.652   1.791  0.3263  0.7708  0.3326
41480SOL    HW227846  10.176   4.759   1.683  0.3708 -0.3393 -0.7792
41481SOL     OW27847  10.442   1.043   5.941 -0.3312 -0.1983  0.1403
41481SOL    HW127848  10.366   1.084   5.982 -0.5421  0.2653 -0.7001
41481SOL    HW227849  10.447   0.957   5.981 -1.1083 -0.1061  0.4457
41482SOL     OW27850   0.320   4.774   4.516 -0.1488  0.1728  0.6440
41482SOL    HW127851   0.292   4.705   4.456 -2.1026  1.2993  0.1923
41482SOL    HW227852   0.303   4.739   4.603  0.7320 -0.6636  0.4861
41483SOL     OW27853   5.544  10.782   1.018 -0.6263 -0.2627  0.1808
41483SOL    HW127854   5.622  10.775   1.072 -1.2401  1.0469  1.2805
41483SOL    HW227855   5.537  10.698   0.973 -0.1668 -1.4095  2.2231
41484SOL     OW27856   6.889   6.814   2.478 -0.7456 -0.0192  0.3570
41484SOL    HW127857   6.924   6.899   2.502 -1.2090  0.0554  0.7746
41484SOL    HW227858   6.962   6.769   2.435 -0.0079 -0.0194  1.5873
41485SOL     OW27859   6.937   7.928  10.525 -0.2022 -0.1647  0.2605
41485SOL    HW127860   6.928   7.888  10.611 -0.8307 -0.3532  0.1041
41485SOL    HW227861   6.893   7.867  10.465 -1.8393  1.1230  0.1251
41486SOL     OW27862   8.072   1.954   7.386  0.1593  0.1539 -0.3111
41486SOL    HW127863   8.038   1.991   7.468  0.0709  0.0038 -0.2791
41486SOL    HW227864   8.092   1.863   7.408  0.7009  0.2766 -0.2955
41487SOL     OW27865   1.260   0.018   2.332 -0.0860  0.4175  0.3450
41487SOL    HW127866   1.332   0.078   2.314  0.9650 -1.0238 -0.3894
41487SOL    HW227867   1.223  -0.001   2.246  0.4529 -1.0081  0.4084
41488SOL     OW27868   0.900   0.547   7.852  0.1008 -0.3349  0.1799
41488SOL    HW127869   0.965   0.486   7.816 -0.2921 -0.2346 -0.7107
41488SOL    HW227870   0.817   0.499   7.847 -0.4299  0.7090 -1.7159
41489SOL     OW27871   2.470   3.006   8.532 -0.4156 -0.1916  0.0210
41489SOL    HW127872   2.488   2.949   8.607  0.8098 -0.0501 -0.1486
41489SOL    HW227873   2.455   2.945   8.459  1.6031 -0.3345 -0.3208
41490SOL     OW27874   4.888   3.011   5.114  0.1180 -0.3354  0.0022
41490SOL    HW127875   4.887   3.022   5.018 -0.0223 -2.4307 -0.2647
41490SOL    HW227876   4.798   3.029   5.141  0.0479 -0.2060 -0.3128
41491SOL     OW27877   6.721   7.452   9.836  0.0038  0.3183  0.9445
41491SOL    HW127878   6.675   7.372   9.864  0.4358  0.0429  0.8774
41491SOL    HW227879   6.810   7.441   9.869  0.5812 -0.0960 -0.6827
41492SOL     OW27880   9.550  10.319  10.883 -0.0614  0.2375 -0.1937
41492SOL    HW127881   9.509  10.338  10.967  0.5796  1.2726 -0.0976
41492SOL    HW227882   9.603  10.397  10.864 -0.7324  0.3146 -1.8810
41493SOL     OW27883   8.286   4.845   3.911  0.1959  0.0531  0.3522
41493SOL    HW127884   8.235   4.825   3.990 -1.6667  1.0601 -0.5633
41493SOL    HW227885   8.319   4.760   3.882 -1.9704 -0.8151  0.3131
41494SOL     OW27886   7.558   7.059   3.546 -0.4052 -0.1060 -0.2276
41494SOL    HW127887   7.622   7.017   3.489 -0.0822 -0.8626  0.6752
41494SOL    HW227888   7.555   7.004   3.624 -1.3453  0.5337  0.2054
41495SOL     OW27889   0.563  10.047   5.020  0.3039 -0.0864  0.2996
41495SOL    HW127890   0.533  10.125   4.973  0.6770  0.6582  1.2659
41495SOL    HW227891   0.580  10.078   5.109  0.8933 -1.1832  0.5830
41496SOL     OW27892   5.852   7.470   7.885 -0.0166 -0.5368  0.0555
41496SOL    HW127893   5.777   7.471   7.945  0.1185 -0.1679  0.2124
41496SOL    HW227894   5.912   7.536   7.919 -1.0504  1.4857 -1.9111
41497SOL     OW27895   7.049   1.565   5.425  0.2582 -0.1480  0.5676
41497SOL    HW127896   6.982   1.566   5.356  1.2460  2.7111 -0.4175
41497SOL    HW227897   7.077   1.474   5.429 -1.8977 -0.9253 -0.7643
41498SOL     OW27898   6.063   0.642   2.267  1.0052  0.0299 -0.3463
41498SOL    HW127899   6.059   0.630   2.172 -0.3714  2.0729 -0.5904
41498SOL    HW227900   6.092   0.733   2.279  1.0676 -0.1748  1.1843
41499SOL     OW27901   1.819   9.799   8.252 -0.1723  0.2165 -0.3354
41499SOL    HW127902   1.816   9.826   8.344 -0.0207 -1.5225  0.2141
41499SOL    HW227903   1.728   9.776   8.231  0.1433 -1.5297  0.0905
41500SOL     OW27904   3.297   5.494   3.747  0.9383 -0.2096 -0.2308
41500SOL    HW127905   3.381   5.533   3.724  1.0123 -0.4012 -0.2883
41500SOL    HW227906   3.313   5.399   3.745  0.6941 -0.2485 -0.3443
41501SOL     OW27907   0.055   5.385  10.313  0.1620  0.0035 -0.0211
41501SOL    HW127908  -0.035   5.387  10.283 -0.0614  0.3207  0.6722
41501SOL    HW227909   0.049   5.368  10.407  0.8748 -1.6762 -0.2585
41502SOL     OW27910   7.506   0.798   6.222 -0.2069 -0.0295  0.8016
41502SOL    HW127911   7.483   0.737   6.151 -0.7561  1.0195  0.0710
41502SOL    HW227912   7.505   0.744   6.301 -0.6346 -0.9867  0.1493
41503SOL     OW27913   6.711   4.144  10.082  0.4969  0.1375  0.1433
41503SOL    HW127914   6.742   4.229  10.049  1.9726  0.4512  2.2634
41503SOL    HW227915   6.626   4.131  10.039  0.5317  2.4036 -0.6624
41504SOL     OW27916  10.895   1.080   4.695  0.2044  0.7282  0.3309
41504SOL    HW127917  10.813   1.115   4.732  0.3174  0.3778  0.9199
41504SOL    HW227918  10.866   1.016   4.630  0.0008 -0.7157  1.8093
41505SOL     OW27919   0.427   6.738   9.351 -0.3046 -0.9481  0.0066
41505SOL    HW127920   0.480   6.815   9.368 -1.0303 -0.8309  1.8145
41505SOL    HW227921   0.393   6.751   9.262 -0.0704  0.5944  0.1301
41506SOL     OW27922   1.944   9.991   0.925  0.6284 -0.4208  0.0933
41506SOL    HW127923   2.030  10.033   0.928  1.3734 -1.9794  1.2507
41506SOL    HW227924   1.885  10.056   0.961  1.5190  0.2296  0.4118
41507SOL     OW27925   6.534   2.894   4.152 -0.4468 -0.0989 -0.3062
41507SOL    HW127926   6.473   2.884   4.079 -1.9283  0.4965  0.8344
41507SOL    HW227927   6.589   2.968   4.127 -1.5948  0.7348 -0.3731
41508SOL     OW27928   8.310   5.828   9.366 -0.3792 -0.2136  0.3235
41508SOL    HW127929   8.261   5.910   9.356  0.5770  0.4746  1.1261
41508SOL    HW227930   8.383   5.852   9.423 -0.3007 -1.7161  0.8634
41509SOL     OW27931   9.994   7.955   6.715 -0.0854 -0.0697 -0.0518
41509SOL    HW127932   9.953   7.914   6.791  0.7941 -1.0300 -0.0684
41509SOL    HW227933   9.964   8.045   6.716 -0.2197 -0.1255  1.3403
41510SOL     OW27934   4.906   4.474   9.725  0.3857 -0.0578  0.5312
41510SOL    HW127935   4.845   4.546   9.715  0.9887  0.4115  0.1862
41510SOL    HW227936   4.966   4.502   9.794  0.1074 -0.5857  0.9865
41511SOL     OW27937   6.305  10.409   6.405  0.5316  0.6844  0.0454
41511SOL    HW127938   6.357  10.412   6.485 -0.0418  1.0268  0.4089
41511SOL    HW227939   6.331  10.487   6.356 -0.3041  1.3538  0.6501
41512SOL     OW27940   6.644   3.295   5.948 -0.2041 -0.1973  0.2189
41512SOL    HW127941   6.682   3.209   5.928 -1.2328 -0.7904  0.7612
41512SOL    HW227942   6.549   3.280   5.946 -0.4260  1.2937 -1.2806
41513SOL     OW27943   9.618   8.765   3.080 -0.1404 -0.0795  0.3772
41513SOL    HW127944   9.684   8.721   3.027  0.2669  2.7241 -1.5297
41513SOL    HW227945   9.647   8.752   3.170  2.2044 -0.1333 -0.3613
41514SOL     OW27946   5.893   4.419   5.681  0.0278  0.1040  0.1509
41514SOL    HW127947   5.911   4.388   5.592  0.0200  1.0530 -0.1861
41514SOL    HW227948   5.807   4.383   5.702 -0.5113  0.8943 -0.6932
41515SOL     OW27949   8.012   2.958   4.259  0.3255  0.5129  0.4574
41515SOL    HW127950   7.956   2.887   4.229  0.8352  1.3047 -2.4746
41515SOL    HW227951   8.094   2.915   4.284  0.4461 -0.0031 -0.7986
41516SOL     OW27952   2.653   7.025   8.675 -0.2833  0.1203  0.2102
41516SOL    HW127953   2.716   7.097   8.675 -0.8043  0.5814 -0.5396
41516SOL    HW227954   2.587   7.050   8.611 -2.4738  0.7021  2.6027
41517SOL     OW27955   2.575   6.176   3.480  0.2162  0.4334 -0.0019
41517SOL    HW127956   2.530   6.202   3.400 -1.0967 -0.8234  0.3152
41517SOL    HW227957   2.543   6.088   3.499  3.3481 -0.8323 -0.1777
41518SOL     OW27958   1.300   7.951   7.909  0.3631 -0.3096  0.0604
41518SOL    HW127959   1.208   7.945   7.933 -0.2723  1.1812 -1.8731
41518SOL    HW227960   1.341   8.002   7.978 -0.9023  1.7039 -0.6535
41519SOL     OW27961   1.564   1.429   2.991 -0.2128  0.2775 -0.1319
41519SOL    HW127962   1.579   1.408   3.083  0.0379 -0.5685 -0.3644
41519SOL    HW227963   1.602   1.356   2.943 -0.0506  0.8785 -0.9217
41520SOL     OW27964   3.740  10.970   4.625 -0.5966 -0.2206 -0.2697
41520SOL    HW127965   3.820  11.020   4.608 -0.9759 -0.0289 -1.4926
41520SOL    HW227966   3.744  10.950   4.719  0.9649 -0.3588 -0.3583
41521SOL     OW27967   9.794   2.474   4.346  0.2272 -0.1423  0.0977
41521SOL    HW127968   9.801   2.447   4.254  1.1765  2.1796 -0.5568
41521SOL    HW227969   9.708   2.514   4.354  1.3757  2.6125 -0.6607
41522SOL     OW27970   0.688   8.152   5.181  0.6245 -0.0802  0.3745
41522SOL    HW127971   0.692   8.056   5.174 -0.9295 -0.1353  0.0026
41522SOL    HW227972   0.700   8.169   5.274  2.4600 -0.5272  0.2485
41523SOL     OW27973   3.909   1.171   2.977  0.1258 -0.4247  0.0440
41523SOL    HW127974   3.973   1.105   3.003  0.4043  0.2845  1.2292
41523SOL    HW227975   3.863   1.133   2.902  1.2096 -1.3793 -0.1372
41524SOL     OW27976   3.574   0.125   4.913 -0.2130 -0.5291 -0.0977
41524SOL    HW127977   3.664   0.157   4.919  0.0804 -1.1547 -0.9082
41524SOL    HW227978   3.540   0.162   4.832 -0.6489 -0.3868  0.1458
41525SOL     OW27979   1.182   2.307   1.462  0.1418 -0.0062  0.4933
41525SOL    HW127980   1.122   2.296   1.388 -0.5504  4.0778  0.3419
41525SOL    HW227981   1.266   2.275   1.429  0.3267  3.5975 -2.9180
41526SOL     OW27982   1.314   9.699   4.756  0.3293  0.0716 -0.4365
41526SOL    HW127983   1.408   9.696   4.774  0.1729  0.8944  0.5843
41526SOL    HW227984   1.275   9.648   4.827 -0.0460  0.4183 -0.3898
41527SOL     OW27985   2.249   5.081   0.104 -0.3809 -0.0134 -0.0133
41527SOL    HW127986   2.308   5.114   0.171 -0.2209 -0.3724  0.0246
41527SOL    HW227987   2.262   5.140   0.030 -1.5414  1.1983  0.7216
41528SOL     OW27988  10.179   6.132   1.386 -0.5657  0.0206  0.4094
41528SOL    HW127989  10.094   6.088   1.383 -0.1278 -0.7436 -0.5665
41528SOL    HW227990  10.169   6.207   1.328 -0.6873  0.1412  0.5837
41529SOL     OW27991   2.149   3.613   0.929  0.2720  0.1759 -0.3005
41529SOL    HW127992   2.091   3.572   0.993 -1.3439  4.4415  1.1969
41529SOL    HW227993   2.207   3.543   0.900 -1.8371 -2.8985  2.5340
41530SOL     OW27994   8.636  10.866   5.263 -0.3649  0.0870  0.0527
41530SOL    HW127995   8.651  10.960   5.253 -1.4293  0.2109 -0.3700
41530SOL    HW227996   8.722  10.831   5.287 -0.2912  1.3720  1.7472
41531SOL     OW27997   2.449   1.162   2.462 -0.3011  0.6031 -0.4924
41531SOL    HW127998   2.424   1.251   2.487  0.3905  0.5895  0.2839
41531SOL    HW227999   2.367   1.121   2.433 -0.5979  1.5230 -0.9626
41532SOL     OW28000   0.585   9.611   6.130  0.4082  0.5156  0.3829
41532SOL    HW128001   0.558   9.640   6.043  2.2843 -0.7580 -0.6733
41532SOL    HW228002   0.624   9.688   6.171  2.9163  0.2448 -1.3619
41533SOL     OW28003   5.235   8.093   7.038  0.1728 -0.1747 -0.1963
41533SOL    HW128004   5.281   8.165   7.081 -1.2611  0.5197  0.2205
41533SOL    HW228005   5.148   8.128   7.020  0.7324 -0.4538 -3.7060
41534SOL     OW28006   9.194   0.888   5.351 -0.3939 -0.7346  0.5529
41534SOL    HW128007   9.186   0.871   5.445  0.8365  1.0603  1.0001
41534SOL    HW228008   9.241   0.971   5.345 -1.7914 -0.0697 -1.6503
41535SOL     OW28009   9.314   0.396   2.236 -0.1349  0.0912  0.1534
41535SOL    HW128010   9.258   0.415   2.311  1.2563 -0.8132  1.4575
41535SOL    HW228011   9.305   0.472   2.179 -0.3432  1.3149  1.7794
41536SOL     OW28012   6.329   2.862   0.973  0.5277 -0.3706 -0.3071
41536SOL    HW128013   6.243   2.870   0.931  0.5278  0.8791 -0.0942
41536SOL    HW228014   6.374   2.796   0.922 -0.3537 -0.6151 -0.7855
41537SOL     OW28015   6.676   6.952   3.224  0.3709 -0.3268  0.0593
41537SOL    HW128016   6.718   7.015   3.282  0.6592  1.3907 -1.9171
41537SOL    HW228017   6.742   6.885   3.209  1.8865  1.4446 -1.6249
41538SOL     OW28018   7.289   0.583   7.152 -0.7352 -0.1707 -0.3195
41538SOL    HW128019   7.382   0.582   7.126  0.2461  0.4364  2.9339
41538SOL    HW228020   7.287   0.639   7.230 -3.5855 -1.4690  0.6011
41539SOL     OW28021   7.012   7.437  10.322 -0.3871  0.2887  0.4557
41539SOL    HW128022   7.076   7.482  10.268 -0.9776 -0.2746 -0.7446
41539SOL    HW228023   6.934   7.430  10.266  0.0453 -3.2009  0.1697
41540SOL     OW28024   6.311   8.915   9.158  1.0292 -0.3755  0.1284
41540SOL    HW128025   6.231   8.876   9.194  0.4323  1.3743  0.7377
41540SOL    HW228026   6.285   8.949   9.072  1.0104  0.5797  0.5117
41541SOL     OW28027   7.262  10.583   0.461 -0.2786  0.2327 -0.1367
41541SOL    HW128028   7.257  10.508   0.401  1.7870 -1.6005  1.8437
41541SOL    HW228029   7.355  10.590   0.481 -0.8254  1.4236  2.0525
41542SOL     OW28030   1.957   5.919   2.037 -0.2800  0.3667 -0.3954
41542SOL    HW128031   2.049   5.944   2.030  0.3350 -1.5561  0.5935
41542SOL    HW228032   1.918   5.949   1.955  1.5568 -0.1794 -1.4927
41543SOL     OW28033   4.208   0.016   6.472  0.0561 -0.2496 -0.6985
41543SOL    HW128034   4.220  -0.074   6.439 -0.0223 -0.9004  0.9826
41543SOL    HW228035   4.121   0.016   6.510  1.6688 -0.7838  3.2367
41544SOL     OW28036  10.808  10.630   7.183 -0.5994 -0.0362 -0.1695
41544SOL    HW128037  10.822  10.545   7.225 -1.8947 -0.1872 -0.0276
41544SOL    HW228038  10.797  10.690   7.257  3.2531  0.8319 -0.1820
41545SOL     OW28039   2.527  10.780   0.418 -0.2446  0.3722  0.0114
41545SOL    HW128040   2.559  10.799   0.329 -0.0515 -1.8102 -0.4132
41545SOL    HW228041   2.433  10.797   0.414 -0.1718  0.6696 -0.5053
41546SOL     OW28042   0.233   1.241   9.554 -0.3326 -0.4843 -0.0162
41546SOL    HW128043   0.277   1.299   9.617 -1.0795 -0.6538  0.6747
41546SOL    HW228044   0.142   1.271   9.554 -0.6544 -1.4519  0.1036
41547SOL     OW28045   3.426   3.218   1.449  0.4528 -0.4844 -0.2217
41547SOL    HW128046   3.414   3.189   1.539  0.9996  0.4244  0.1531
41547SOL    HW228047   3.343   3.197   1.405 -0.2449  0.1331  0.7823
41548SOL     OW28048  10.885   4.728   6.963 -0.6110 -0.0915  0.4039
41548SOL    HW128049  10.858   4.754   7.051 -2.7679  0.5045 -0.4052
41548SOL    HW228050  10.833   4.649   6.945 -2.9553  1.8317 -1.6894
41549SOL     OW28051   7.422   0.058   3.280 -0.5178 -0.0437 -0.8620
41549SOL    HW128052   7.434   0.129   3.343 -0.3915 -0.9125  0.1063
41549SOL    HW228053   7.386   0.100   3.202 -2.0499  0.8188  0.2976
41550SOL     OW28054   4.142   8.184  10.195  0.7170 -0.0390 -0.2043
41550SOL    HW128055   4.190   8.205  10.275 -0.4290 -0.2399  0.5430
41550SOL    HW228056   4.203   8.130  10.144  0.7655 -1.5389  1.3873
41551SOL     OW28057   5.599   1.440   3.806  0.3688 -0.0191  0.7015
41551SOL    HW128058   5.673   1.496   3.830 -0.2495  1.0518  0.1246
41551SOL    HW228059   5.594   1.447   3.711 -0.9578  0.5173  0.8055
41552SOL     OW28060   8.336   8.729   7.950  0.1891  0.3857  0.4832
41552SOL    HW128061   8.344   8.634   7.939 -1.8937  0.0841  1.2913
41552SOL    HW228062   8.245   8.748   7.927  1.1075  2.4931 -1.6244
41553SOL     OW28063   8.141   7.106   1.593 -0.2401  0.0545  0.3934
41553SOL    HW128064   8.046   7.102   1.602 -0.5817  1.1907 -2.3172
41553SOL    HW228065   8.169   7.015   1.590 -1.7275 -0.3494 -3.0021
41554SOL     OW28066   1.380   0.404   5.445  0.4693  0.6469  0.3133
41554SOL    HW128067   1.426   0.435   5.523  0.3727  0.0191  0.6212
41554SOL    HW228068   1.317   0.474   5.426  0.8277  1.0285  0.5031
41555SOL     OW28069   7.333   5.380   7.768  0.0234 -0.5095  0.1306
41555SOL    HW128070   7.337   5.285   7.778 -1.3205 -0.6708 -0.6908
41555SOL    HW228071   7.327   5.395   7.674 -1.1694  0.3062  0.3132
41556SOL     OW28072   0.093   3.071   2.255  0.8817  0.3514 -0.0135
41556SOL    HW128073   0.061   3.158   2.233 -0.3999  0.0492  0.6510
41556SOL    HW228074   0.047   3.047   2.335  0.6370 -1.2461 -0.6031
41557SOL     OW28075  10.270   4.801   2.355  0.5776  0.2475  0.3180
41557SOL    HW128076  10.189   4.755   2.375  0.6208 -0.1163 -0.3192
41557SOL    HW228077  10.267   4.815   2.260  0.7808  1.1419  0.4385
41558SOL     OW28078   7.936   9.964   7.283 -0.1744 -0.5123 -0.3439
41558SOL    HW128079   7.951   9.971   7.189  1.4532 -1.4566 -0.1581
41558SOL    HW228080   7.923   9.871   7.299 -2.2671 -0.1773  0.1216
41559SOL     OW28081   8.234   2.821   2.669  0.5098  0.2017  0.3455
41559SOL    HW128082   8.258   2.913   2.678  1.5490 -0.2881  3.0917
41559SOL    HW228083   8.150   2.815   2.714  0.5025 -0.2210  0.2710
41560SOL     OW28084   9.581   2.417   5.067  0.2357  0.6928 -0.2993
41560SOL    HW128085   9.583   2.468   4.985  0.5014  0.8333 -0.2077
41560SOL    HW228086   9.491   2.423   5.097 -0.1201 -0.2636 -1.1477
41561SOL     OW28087   6.128   0.688   4.767 -0.1268 -0.2420 -0.0769
41561SOL    HW128088   6.202   0.746   4.748  0.6328 -1.1602  0.0237
41561SOL    HW228089   6.125   0.628   4.692 -1.6050  0.6159 -0.7186
41562SOL     OW28090   7.029   4.293   5.399  0.0025  0.1977  0.3698
41562SOL    HW128091   6.938   4.284   5.371  0.6019 -2.6543 -0.7663
41562SOL    HW228092   7.076   4.320   5.320  0.2524  1.2092  0.8473
41563SOL     OW28093   3.801   2.986   3.718 -0.2171 -0.0829  0.1536
41563SOL    HW128094   3.727   2.977   3.778 -0.7425 -0.1250 -0.4916
41563SOL    HW228095   3.761   3.012   3.635  0.0734 -3.9943 -1.3007
41564SOL     OW28096   6.475   2.241   4.514  0.6126 -0.1915  0.4654
41564SOL    HW128097   6.517   2.178   4.456 -0.2378 -0.2193 -0.1317
41564SOL    HW228098   6.490   2.207   4.602 -0.6711 -1.7471  0.1046
41565SOL     OW28099  10.666   7.938   1.348 -0.2391 -0.4690  0.1335
41565SOL    HW128100  10.673   7.980   1.433 -0.3991  0.5434 -0.3504
41565SOL    HW228101  10.588   7.883   1.355  1.0548 -2.2102  1.4060
41566SOL     OW28102   5.194   8.560   5.389  0.4958  0.2467  0.0516
41566SOL    HW128103   5.282   8.596   5.379 -0.0166  1.6866  0.7562
41566SOL    HW228104   5.139   8.635   5.410 -1.0253 -0.5419 -1.0320
41567SOL     OW28105   2.015   3.287   0.822  0.8288  0.1525 -0.3203
41567SOL    HW128106   2.072   3.218   0.787  0.7961 -0.4492  0.7844
41567SOL    HW228107   1.926   3.257   0.802  0.7604 -0.8068  1.3583
41568SOL     OW28108   2.354   4.967   4.483 -0.2109  0.4388  0.0934
41568SOL    HW128109   2.321   4.884   4.518  2.4207 -1.0676 -0.8495
41568SOL    HW228110   2.325   5.033   4.546 -1.8702 -1.2569  1.1505
41569SOL     OW28111   2.505   9.800   2.764  0.3192  0.2485 -0.0202
41569SOL    HW128112   2.430   9.745   2.786  1.5643 -1.0973  0.9239
41569SOL    HW228113   2.555   9.808   2.845  0.8720  1.6840 -0.4705
41570SOL     OW28114   2.993   2.703   0.278  0.4672 -0.5681  0.1328
41570SOL    HW128115   3.083   2.708   0.310  0.1091  0.9078  0.9324
41570SOL    HW228116   3.002   2.683   0.185  1.6727  1.6165 -0.2557
41571SOL     OW28117   6.558  10.506   7.675  0.6255 -0.3022 -0.1064
41571SOL    HW128118   6.651  10.524   7.690  0.3412  0.8127  0.3652
41571SOL    HW228119   6.515  10.590   7.688 -0.3782 -0.6673 -0.9988
41572SOL     OW28120   0.231   7.713   7.137 -0.3921  0.3666  0.5350
41572SOL    HW128121   0.141   7.726   7.168 -0.8387 -0.8135 -0.2241
41572SOL    HW228122   0.284   7.721   7.216 -1.3036 -0.3807  1.2446
41573SOL     OW28123   2.810   3.093   9.084 -0.0770 -0.6120 -0.4449
41573SOL    HW128124   2.745   3.117   9.150 -0.1829  0.1139 -0.8084
41573SOL    HW228125   2.866   3.170   9.076  0.9750 -1.3077  0.0268
41574SOL     OW28126   8.390   6.295  10.620 -0.3963 -0.0053 -0.4922
41574SOL    HW128127   8.424   6.206  10.632 -0.3184  0.2830  1.6272
41574SOL    HW228128   8.456   6.351  10.659 -2.6513  0.6415  2.5620
41575SOL     OW28129   9.970   0.082   3.240  0.1792  0.9858 -0.2979
41575SOL    HW128130  10.035   0.015   3.220  0.8666  1.7610 -0.7387
41575SOL    HW228131   9.936   0.059   3.326 -1.3478 -1.2731 -1.4696
41576SOL     OW28132  10.375   5.641   0.949 -0.0727  0.2876 -0.4006
41576SOL    HW128133  10.408   5.697   0.878 -0.2338 -0.0885 -0.7742
41576SOL    HW228134  10.280   5.653   0.945 -0.2109 -0.9457 -1.2778
41577SOL     OW28135  10.246   5.091   2.468 -0.6141 -0.1467 -0.7406
41577SOL    HW128136  10.237   5.017   2.408 -0.6330 -0.6327 -0.1411
41577SOL    HW228137  10.261   5.166   2.411  0.8799 -0.8373 -1.3080
41578SOL     OW28138   0.336   1.545   0.112  0.6236 -0.4819  0.3429
41578SOL    HW128139   0.296   1.569   0.195 -0.0930 -0.7979  0.0939
41578SOL    HW228140   0.281   1.474   0.079  0.1505  0.4783 -1.0002
41579SOL     OW28141   5.350   3.448   6.710 -0.2552  0.0194  0.3085
41579SOL    HW128142   5.443   3.460   6.732 -0.1100 -1.9131  0.8212
41579SOL    HW228143   5.345   3.467   6.616  1.4193 -3.6337 -0.6053
41580SOL     OW28144   2.750   3.089   8.824  0.1282  0.6400  0.1120
41580SOL    HW128145   2.825   3.101   8.766  0.0893 -1.1038 -0.3320
41580SOL    HW228146   2.787   3.092   8.912  1.2253 -2.8990 -0.1244
41581SOL     OW28147   2.473   6.835   0.126  0.1629  0.6187  0.3596
41581SOL    HW128148   2.500   6.876   0.208 -0.5023 -1.4625  1.6369
41581SOL    HW228149   2.543   6.773   0.106  0.7239  1.6876 -1.1053
41582SOL     OW28150   7.112   3.484   9.854 -0.8397  0.0510  0.4767
41582SOL    HW128151   7.043   3.452   9.797 -0.3642 -1.0177  0.4712
41582SOL    HW228152   7.150   3.559   9.808  0.2979 -1.4884 -1.1747
41583SOL     OW28153   6.385   7.987   0.132  0.0599  0.5718  0.2016
41583SOL    HW128154   6.309   7.947   0.090 -0.4365 -0.2718  1.8605
41583SOL    HW228155   6.421   7.918   0.187  1.8990  1.0350 -0.3883
41584SOL     OW28156   4.337   1.424   3.464  0.1024 -0.1411  0.6147
41584SOL    HW128157   4.423   1.435   3.505  2.0411  0.1126 -3.2938
41584SOL    HW228158   4.320   1.330   3.468  1.1892 -0.3555  0.1720
41585SOL     OW28159   1.749   7.326   4.404 -0.1171 -0.4746 -0.4801
41585SOL    HW128160   1.839   7.353   4.388 -0.0950 -0.8680 -1.0541
41585SOL    HW228161   1.756   7.257   4.470 -0.1067  0.3350  0.3763
41586SOL     OW28162   1.121   6.624   6.359  0.4834 -0.1902 -0.6141
41586SOL    HW128163   1.139   6.648   6.268 -2.4186 -0.5020 -1.3358
41586SOL    HW228164   1.174   6.546   6.375 -0.6383 -1.4585 -2.7979
41587SOL     OW28165   7.748   8.848   9.822 -0.1797 -0.5248  0.5272
41587SOL    HW128166   7.677   8.889   9.773  0.8015  0.2661 -0.2523
41587SOL    HW228167   7.704   8.786   9.880 -1.5705  0.5004  0.6055
41588SOL     OW28168   7.814   9.943   8.493  0.0380 -0.1731  0.3939
41588SOL    HW128169   7.881   9.875   8.502 -1.6734 -2.3473 -2.5602
41588SOL    HW228170   7.752   9.925   8.563 -0.5202 -1.8275 -0.4982
41589SOL     OW28171   9.048   9.010   1.423 -0.2054  0.2576  0.3059
41589SOL    HW128172   9.011   9.097   1.412  1.1309  0.5786 -1.8689
41589SOL    HW228173   9.142   9.025   1.436 -0.3474 -0.7165  2.8446
41590SOL     OW28174   3.515   9.895   4.382  0.5502  0.3687  0.3846
41590SOL    HW128175   3.437   9.949   4.384 -0.3955 -0.6458 -4.2975
41590SOL    HW228176   3.585   9.955   4.354  0.6832  0.4441  0.8793
41591SOL     OW28177   7.518   7.124   2.823 -0.0516  0.0338 -0.2222
41591SOL    HW128178   7.466   7.044   2.813 -0.6982  0.8560 -4.0542
41591SOL    HW228179   7.453   7.192   2.842  0.0900  0.3418 -0.8486
41592SOL     OW28180   5.364   2.333   4.879  0.7528  0.2527  0.1989
41592SOL    HW128181   5.276   2.296   4.865 -0.1780  2.1720  0.7416
41592SOL    HW228182   5.387   2.306   4.967  0.9769 -0.7772 -0.1699
41593SOL     OW28183   0.497   9.839   9.798 -0.6978 -0.3388  0.1358
41593SOL    HW128184   0.403   9.859   9.802  0.1703  3.9360  1.6438
41593SOL    HW228185   0.538   9.908   9.850  3.2421 -2.7520  0.4214
41594SOL     OW28186   1.208   2.944   9.539  0.2995  0.3143  0.1971
41594SOL    HW128187   1.252   2.874   9.586  0.6977  1.1785  1.1422
41594SOL    HW228188   1.121   2.949   9.578 -0.1383 -0.4129 -0.6631
41595SOL     OW28189   5.560   7.960   7.961 -0.2041 -0.8500  0.1789
41595SOL    HW128190   5.492   7.940   7.897  0.7295  1.2975 -1.5853
41595SOL    HW228191   5.603   7.877   7.977  1.5086 -1.0053 -4.4080
41596SOL     OW28192   9.610   6.470   3.835 -0.2554  0.0261 -0.1003
41596SOL    HW128193   9.612   6.412   3.759  1.7884 -1.6890  1.1886
41596SOL    HW228194   9.533   6.441   3.885 -0.0874 -0.6183 -0.2071
41597SOL     OW28195  10.158  10.756   5.444  0.8657  0.4175  0.4614
41597SOL    HW128196  10.208  10.730   5.521  0.8716 -1.8578 -0.2835
41597SOL    HW228197  10.088  10.691   5.436 -0.0453  1.4849 -0.5914
41598SOL     OW28198   5.955   3.056   3.382 -0.0930 -0.4606 -0.4250
41598SOL    HW128199   5.899   3.039   3.306  1.1273 -2.1496 -0.9747
41598SOL    HW228200   6.039   3.083   3.345 -0.3398  1.5181  0.3857
41599SOL     OW28201   4.750   8.990   6.246 -0.2099 -0.0752 -0.3427
41599SOL    HW128202   4.733   9.058   6.311  0.6755 -1.0257  0.9003
41599SOL    HW228203   4.827   9.020   6.198 -0.5056  0.3360 -0.5667
41600SOL     OW28204   7.914   3.327   9.229 -0.4879  0.1310 -0.0518
41600SOL    HW128205   7.967   3.350   9.305  1.4001  0.1315 -1.3180
41600SOL    HW228206   7.877   3.241   9.249 -0.3200  0.3055  1.0115
41601SOL     OW28207   6.523   6.150  10.178 -0.2081  0.6869 -0.2132
41601SOL    HW128208   6.489   6.130  10.265  0.2533  0.0651 -0.1716
41601SOL    HW228209   6.618   6.139  10.186 -0.0621  1.7080 -0.5079
41602SOL     OW28210   6.164   7.699   6.165  0.1129 -0.0907 -0.0316
41602SOL    HW128211   6.194   7.770   6.107  1.6165 -1.8384 -1.4529
41602SOL    HW228212   6.070   7.696   6.151  0.0115  1.6464  0.0682
41603SOL     OW28213  10.087   3.823   7.682 -0.4254 -0.1659  0.6494
41603SOL    HW128214  10.115   3.882   7.752 -0.5323  0.3912  0.2311
41603SOL    HW228215  10.166   3.809   7.630 -0.6919  0.6156  0.0316
41604SOL     OW28216   8.586   9.148   3.658 -0.0520 -0.4980  0.3535
41604SOL    HW128217   8.558   9.065   3.697 -0.5758  0.1612  1.3901
41604SOL    HW228218   8.591   9.209   3.732  3.2591 -0.3587  0.0844
41605SOL     OW28219   2.197   2.028   9.876  0.0046  0.3177 -0.1139
41605SOL    HW128220   2.151   1.947   9.898  0.7021 -0.7315 -2.4104
41605SOL    HW228221   2.272   1.999   9.825  1.8382  2.2192  1.4325
41606SOL     OW28222   9.479   5.935   9.448 -0.2644 -0.1571  0.3257
41606SOL    HW128223   9.486   6.000   9.519  1.6422  0.0681 -0.0271
41606SOL    HW228224   9.544   5.964   9.384 -1.5348 -0.7193 -1.2431
41607SOL     OW28225   9.439  10.653   8.830  0.0887 -0.0378 -0.2989
41607SOL    HW128226   9.436  10.730   8.886  3.3507  0.5211 -0.7934
41607SOL    HW228227   9.403  10.682   8.746 -1.3298  0.1351  0.3554
41608SOL     OW28228   3.712   2.614   5.157  0.1368  0.1001  0.1410
41608SOL    HW128229   3.711   2.572   5.071 -0.4120  0.2064  0.0950
41608SOL    HW228230   3.647   2.566   5.208 -0.8874  1.2265 -0.0734
41609SOL     OW28231   2.804   3.543   1.001 -0.1974 -0.2261  0.1322
41609SOL    HW128232   2.779   3.458   1.037 -0.7301  0.3890  1.2399
41609SOL    HW228233   2.899   3.542   1.002 -0.2017 -0.8206  0.1245
41610SOL     OW28234   5.634   1.790   1.406 -0.3469  0.0750 -0.0431
41610SOL    HW128235   5.623   1.850   1.479  1.2309  1.2153 -0.7146
41610SOL    HW228236   5.644   1.847   1.330 -0.2198 -1.0765 -0.8980
41611SOL     OW28237   7.500   7.597   1.630  0.0699  0.1660  0.0983
41611SOL    HW128238   7.444   7.638   1.695 -0.6785 -0.6354 -0.0303
41611SOL    HW228239   7.443   7.535   1.585  0.7381  0.2667 -0.9013
41612SOL     OW28240   8.807   3.763   1.320  0.4940  0.2635  0.1427
41612SOL    HW128241   8.718   3.736   1.296 -0.2647  1.5873  1.3611
41612SOL    HW228242   8.824   3.839   1.264  0.1881  1.0465  1.1008
41613SOL     OW28243   5.711   5.210   1.393  0.3264  0.2341 -0.2337
41613SOL    HW128244   5.633   5.171   1.432 -0.2024  1.1924 -0.3211
41613SOL    HW228245   5.780   5.145   1.407 -0.6934 -1.0320 -0.9786
41614SOL     OW28246  10.490   7.959   6.498 -0.2294  0.0348 -0.3822
41614SOL    HW128247  10.538   8.040   6.476 -0.5154  0.1487 -0.5985
41614SOL    HW228248  10.537   7.890   6.451 -0.1792  0.1255 -0.4674
41615SOL     OW28249   6.142   9.375   8.604 -0.1417  0.0187  0.2826
41615SOL    HW128250   6.051   9.360   8.579 -0.5069  1.3346  0.7460
41615SOL    HW228251   6.147   9.470   8.617  1.6058  0.0942 -0.9246
41616SOL     OW28252   5.736   7.167   6.016  0.1335  0.2789  0.1799
41616SOL    HW128253   5.827   7.145   5.996  0.8219  3.2824 -0.1637
41616SOL    HW228254   5.687   7.088   5.993  2.6120 -1.3050  0.1748
41617SOL     OW28255   0.481   8.878   7.436 -0.2242  0.1638  0.1411
41617SOL    HW128256   0.409   8.817   7.421  1.4093 -2.0536  1.1319
41617SOL    HW228257   0.536   8.835   7.501  2.1847  1.6708 -0.8512
41618SOL     OW28258   9.000   4.881  10.071 -0.9451  0.0367  0.3335
41618SOL    HW128259   8.988   4.938  10.146 -1.2355  0.7870 -0.2762
41618SOL    HW228260   8.953   4.924  10.000  0.2952 -0.0840 -0.5796
41619SOL     OW28261   1.717   8.155   7.524  0.8899 -0.2343 -0.2172
41619SOL    HW128262   1.800   8.113   7.500 -0.0106 -1.6760 -0.8038
41619SOL    HW228263   1.650   8.092   7.501 -0.3301  0.4967  1.2446
41620SOL     OW28264   0.362   9.899   2.964  0.2118 -0.1694  0.2505
41620SOL    HW128265   0.446   9.871   3.002 -0.4088 -0.8712  1.1208
41620SOL    HW228266   0.321   9.819   2.933  0.7380  0.4207 -2.0063
41621SOL     OW28267   7.357   6.281  10.581  0.3151 -0.0567 -0.7563
41621SOL    HW128268   7.335   6.190  10.562  1.3526 -0.2934 -0.8327
41621SOL    HW228269   7.282   6.331  10.548 -0.9563 -0.9799  0.6721
41622SOL     OW28270   8.239  10.120   3.369  0.0151  0.6094  0.3995
41622SOL    HW128271   8.196  10.085   3.447  0.5934 -0.8585  0.0721
41622SOL    HW228272   8.185  10.090   3.296  0.3960  0.5823  0.1271
41623SOL     OW28273   7.469  10.161  10.831  0.1628 -0.1654  0.1661
41623SOL    HW128274   7.373  10.162  10.838  0.0511 -0.5673 -1.1339
41623SOL    HW228275   7.498  10.115  10.909 -0.6076  1.4374  1.4440
41624SOL     OW28276   1.994   6.856   5.691 -0.1323  0.2681 -0.0890
41624SOL    HW128277   1.964   6.855   5.781  1.7202  1.8660  0.5885
41624SOL    HW228278   1.945   6.927   5.650 -0.6218 -0.1416 -0.2153
41625SOL     OW28279   7.310   8.049   6.982 -0.2809  0.3930  0.3811
41625SOL    HW128280   7.270   8.010   7.060 -0.5307  1.9940  1.0661
41625SOL    HW228281   7.266   8.133   6.972  0.5925  0.7201 -0.8062
41626SOL     OW28282   3.544   0.779   4.989  0.0437 -0.7407  0.2996
41626SOL    HW128283   3.583   0.703   4.945  1.3208  0.3943 -0.5918
41626SOL    HW228284   3.552   0.760   5.082  0.1823 -1.7847  0.0798
41627SOL     OW28285   2.183   8.403   4.633 -0.2948 -0.0265  0.3021
41627SOL    HW128286   2.216   8.375   4.718 -1.8346 -0.1765  0.8728
41627SOL    HW228287   2.261   8.415   4.579  0.5598 -2.3175  0.9895
41628SOL     OW28288   0.952   0.989   5.981 -0.2650 -0.4412  0.8979
41628SOL    HW128289   0.949   1.021   6.071 -0.3421 -0.0371  0.7534
41628SOL    HW228290   0.878   1.032   5.938  2.7542  3.4679 -0.6927
41629SOL     OW28291   6.505   3.759   5.426 -0.0346 -0.4851 -0.1130
41629SOL    HW128292   6.422   3.714   5.406 -0.4031  0.2808 -0.3161
41629SOL    HW228293   6.572   3.693   5.411 -0.5021 -0.6706 -1.4086
41630SOL     OW28294   3.289   2.455  10.592 -0.2603  0.1486 -0.3792
41630SOL    HW128295   3.244   2.375  10.616 -1.5068  0.7047 -0.8340
41630SOL    HW228296   3.380   2.428  10.578 -0.8914 -1.3850 -1.6652
41631SOL     OW28297   3.441   7.033   4.090  0.0777 -0.5415  0.4607
41631SOL    HW128298   3.508   7.070   4.147 -2.2357  2.7663  1.1697
41631SOL    HW228299   3.368   7.012   4.148 -0.9470 -0.5371 -0.7782
41632SOL     OW28300   2.720   8.444   0.675 -0.4765 -0.6512 -0.1233
41632SOL    HW128301   2.805   8.422   0.636 -0.4591  0.6468 -0.8570
41632SOL    HW228302   2.658   8.385   0.633 -0.7287  1.8533 -3.4279
41633SOL     OW28303   5.489   0.824   5.856 -0.3648  0.9154 -0.2112
41633SOL    HW128304   5.570   0.840   5.807 -0.0578  1.0770  0.3465
41633SOL    HW228305   5.516   0.825   5.948 -0.9788  0.8352 -0.0287
41634SOL     OW28306   2.478   5.025   8.570 -0.3327  0.0888  0.2639
41634SOL    HW128307   2.438   4.994   8.652  0.4392 -0.7382  0.3287
41634SOL    HW228308   2.429   5.105   8.549  0.1496  0.8908  2.0915
41635SOL     OW28309   5.673   7.574   8.725 -0.4474 -0.0036 -0.2816
41635SOL    HW128310   5.616   7.573   8.802 -0.6251  1.8925 -0.3723
41635SOL    HW228311   5.730   7.498   8.736 -2.9297 -1.9359 -0.1508
41636SOL     OW28312   0.459   6.456   9.631  0.5654  0.3717 -0.3389
41636SOL    HW128313   0.504   6.378   9.662 -0.8520  0.9688  3.5375
41636SOL    HW228314   0.523   6.527   9.642  0.7961  0.2425 -0.8531
41637SOL     OW28315   4.959   4.511   2.739 -0.4792  0.4823  0.3389
41637SOL    HW128316   5.031   4.447   2.737 -1.5707 -0.7405 -1.0672
41637SOL    HW228317   4.993   4.583   2.792  2.7718  1.0439 -2.3203
41638SOL     OW28318   3.903   1.410   0.158 -0.6645  0.2885 -0.1367
41638SOL    HW128319   3.912   1.401   0.253  0.6984  0.7580 -0.2138
41638SOL    HW228320   3.974   1.357   0.123 -1.9874 -0.9783 -0.9346
41639SOL     OW28321   3.616   1.902   0.582 -0.3718  0.0806  0.3034
41639SOL    HW128322   3.700   1.925   0.542 -0.2547  1.7645  1.4435
41639SOL    HW228323   3.635   1.824   0.633  0.1540 -0.3900 -0.5890
41640SOL     OW28324   1.698   2.476   8.390  0.8664 -0.1670 -0.2400
41640SOL    HW128325   1.705   2.560   8.344  0.5019 -0.7524 -1.3803
41640SOL    HW228326   1.787   2.459   8.422  1.3337 -0.2068 -1.5362
41641SOL     OW28327   0.026   9.055   5.790  0.0117 -0.3043 -0.0248
41641SOL    HW128328   0.012   9.146   5.818 -0.8502 -0.5376  0.3413
41641SOL    HW228329  -0.059   9.028   5.755  0.6547 -0.5290 -1.4068
41642SOL     OW28330   1.221   6.401   4.230 -0.0752  0.3983  0.4616
41642SOL    HW128331   1.133   6.370   4.252 -0.3900  1.1925  0.3720
41642SOL    HW228332   1.279   6.327   4.248 -0.7163  0.0039  0.9121
41643SOL     OW28333   2.691   7.106   4.588 -0.4331 -0.5442  0.3667
41643SOL    HW128334   2.724   7.182   4.541  2.7324 -0.1673  2.9845
41643SOL    HW228335   2.606   7.133   4.622  1.1299  2.3172  2.1903
41644SOL     OW28336   1.764   9.773   0.970  0.2782 -0.4167 -0.0002
41644SOL    HW128337   1.799   9.849   0.924  0.4720  0.3434  1.3745
41644SOL    HW228338   1.825   9.757   1.042 -0.5544 -0.9429  0.6098
41645SOL     OW28339   4.854   0.677   1.338 -0.1079 -0.1678  0.4979
41645SOL    HW128340   4.850   0.769   1.365  0.6031  0.0094  0.0009
41645SOL    HW228341   4.791   0.670   1.267 -0.7394 -0.2483  1.0586
41646SOL     OW28342   5.673   5.640   5.199 -0.2967 -0.9314 -0.3461
41646SOL    HW128343   5.760   5.630   5.160 -0.2963  1.1931 -0.9965
41646SOL    HW228344   5.690   5.664   5.290 -0.2301 -2.0688 -0.0583
41647SOL     OW28345   6.063   1.772  10.302  0.1270  0.4028  0.2523
41647SOL    HW128346   6.087   1.787  10.211  0.5857 -0.9393  0.1336
41647SOL    HW228347   5.999   1.700  10.298  1.3719 -0.7680  1.0997
41648SOL     OW28348   2.645  10.094   2.796  0.5311 -0.1591 -0.1663
41648SOL    HW128349   2.706  10.021   2.800  0.5215 -0.1491  0.1869
41648SOL    HW228350   2.561  10.056   2.820  0.2493 -0.3368 -1.4100
41649SOL     OW28351   4.539   1.982   9.599 -0.0248  0.1203  0.4127
41649SOL    HW128352   4.544   1.931   9.519  1.0411 -0.8897  1.1092
41649SOL    HW228353   4.486   1.928   9.659 -3.2065  2.0793 -0.4705
41650SOL     OW28354   1.495   0.019   5.335 -0.3363  0.3713  0.1878
41650SOL    HW128355   1.574   0.002   5.283 -0.2526  0.8955  0.1372
41650SOL    HW228356   1.444   0.079   5.280  0.7110  2.6224  1.6000
41651SOL     OW28357   1.998   2.909   1.033  0.3213 -0.2534  0.8450
41651SOL    HW128358   1.908   2.937   1.017 -0.0169  0.0678  3.1262
41651SOL    HW228359   1.990   2.840   1.099  1.7268 -0.5997  0.6691
41652SOL     OW28360   8.858   5.762   9.446 -0.5955 -0.2333  0.5429
41652SOL    HW128361   8.823   5.771   9.535  0.4987  1.0661  0.8442
41652SOL    HW228362   8.935   5.707   9.456  0.1736  0.8390  0.5672
41653SOL     OW28363   5.259  10.035   0.871  0.8576  0.3664 -0.3495
41653SOL    HW128364   5.197  10.007   0.939 -0.1987  1.1385 -0.9701
41653SOL    HW228365   5.263  10.130   0.880  2.9904  0.2093  0.5415
41654SOL     OW28366   1.728   5.942   0.411  0.4363 -0.1392  0.6329
41654SOL    HW128367   1.689   5.959   0.326 -0.2613 -0.1264  0.9500
41654SOL    HW228368   1.769   5.855   0.402 -2.8584 -1.8540  1.3744
41655SOL     OW28369   0.073   5.071  10.788  0.4220 -0.0195 -0.5671
41655SOL    HW128370   0.087   5.159  10.822  0.2057  0.6355 -2.1359
41655SOL    HW228371   0.135   5.063  10.716  0.9027 -1.3954 -0.0109
41656SOL     OW28372   6.583   8.507   2.769  0.0216  0.1457 -0.3031
41656SOL    HW128373   6.653   8.469   2.822 -2.3139 -1.2970  1.8453
41656SOL    HW228374   6.570   8.594   2.805 -0.7071 -0.3656  0.6725
41657SOL     OW28375   1.176   1.937   2.968  0.1587 -0.0643  0.5720
41657SOL    HW128376   1.202   1.923   3.059  0.4175  1.8952  0.8360
41657SOL    HW228377   1.173   2.032   2.959  0.3870 -0.2324 -1.5483
41658SOL     OW28378   1.414   7.915   9.332 -0.3078 -0.0083  0.1681
41658SOL    HW128379   1.396   7.970   9.408 -2.0300 -0.4476  0.1003
41658SOL    HW228380   1.342   7.852   9.330  0.2773 -0.6660 -1.2287
41659SOL     OW28381   2.602  10.301   2.602  0.3356  0.0377 -0.4051
41659SOL    HW128382   2.628  10.257   2.683 -0.4140  3.1235  1.5982
41659SOL    HW228383   2.667  10.273   2.538  1.8378 -1.3046  1.6327
41660SOL     OW28384   1.003   4.317  10.630  0.0581 -0.2834 -0.2218
41660SOL    HW128385   1.038   4.270  10.707  0.2852  1.4159  0.7466
41660SOL    HW228386   0.918   4.349  10.658  0.5130  1.0900 -0.3694
41661SOL     OW28387   1.515   4.283   8.132  0.0057 -0.6487 -0.2878
41661SOL    HW128388   1.472   4.302   8.049  0.4118 -1.5630 -0.7084
41661SOL    HW228389   1.460   4.326   8.198  1.2683  2.6796 -1.2664
41662SOL     OW28390   4.277   8.235   9.666 -0.1323  0.6668  0.4286
41662SOL    HW128391   4.316   8.278   9.742  1.8476  1.9414 -1.2644
41662SOL    HW228392   4.343   8.172   9.638 -1.4285 -0.7972  0.5749
41663SOL     OW28393   6.687   3.572   5.382 -0.1192  0.6580  0.0833
41663SOL    HW128394   6.771   3.535   5.355  0.4580  0.1982  2.4301
41663SOL    HW228395   6.625   3.499   5.375  0.1664  0.3593  0.6321
41664SOL     OW28396   6.069   7.998   8.696 -0.3627  0.0336 -0.1324
41664SOL    HW128397   6.122   8.013   8.618  0.1837 -1.6897 -0.1082
41664SOL    HW228398   5.984   8.036   8.675  0.2576  0.9791 -0.9585
41665SOL     OW28399   4.610   3.009   4.808 -0.0305 -0.3138 -0.1434
41665SOL    HW128400   4.590   2.949   4.736 -0.0002 -0.7503  0.2079
41665SOL    HW228401   4.601   2.955   4.887 -2.0724  0.6525  0.3355
41666SOL     OW28402   5.830   0.213   6.082 -0.2174  0.3926  0.1662
41666SOL    HW128403   5.858   0.303   6.069  3.3270 -0.3591  1.9306
41666SOL    HW228404   5.872   0.164   6.011 -0.7459 -0.1044  0.1915
41667SOL     OW28405   0.627   8.273   3.075 -0.1792 -0.3573  0.1596
41667SOL    HW128406   0.630   8.317   3.160 -4.4905  2.2436 -0.8515
41667SOL    HW228407   0.647   8.343   3.012 -0.9790 -1.2699 -1.1309
41668SOL     OW28408   2.226   3.576   3.108  0.8773 -0.1635 -0.0815
41668SOL    HW128409   2.254   3.668   3.110 -0.5960  0.2662  1.4557
41668SOL    HW228410   2.304   3.528   3.080  1.6292  1.5603 -1.0362
41669SOL     OW28411   1.972   8.801   2.222  0.5552 -0.0313 -0.0584
41669SOL    HW128412   1.884   8.783   2.189  1.2136  0.6130 -2.2761
41669SOL    HW228413   2.000   8.878   2.173  2.1057  0.1668  1.1119
41670SOL     OW28414   3.730   6.133   1.315  0.0706 -0.0493 -0.5067
41670SOL    HW128415   3.809   6.082   1.332 -0.4474 -0.4609  0.7295
41670SOL    HW228416   3.704   6.166   1.401 -1.6084 -0.6855 -0.7517
41671SOL     OW28417   5.434   5.467   8.728  0.1375 -0.0237 -0.0024
41671SOL    HW128418   5.434   5.444   8.821 -2.9231 -1.4113 -0.2700
41671SOL    HW228419   5.525   5.457   8.700  1.0670  0.2894  2.7964
41672SOL     OW28420   8.784   8.629   4.120  0.8716  0.1112  0.1790
41672SOL    HW128421   8.797   8.637   4.025  0.9936  0.6917  0.2426
41672SOL    HW228422   8.730   8.705   4.143 -1.7796 -1.7007  0.1023
41673SOL     OW28423   1.292   5.351   8.034  0.3971 -0.0672 -0.5382
41673SOL    HW128424   1.366   5.353   7.974  0.2600 -0.3351 -0.7160
41673SOL    HW228425   1.283   5.442   8.064 -0.5626  0.3962 -2.1879
41674SOL     OW28426   6.009   6.624   4.775 -0.7333 -0.2604 -0.1721
41674SOL    HW128427   5.918   6.597   4.787 -0.2646 -1.7407  0.0936
41674SOL    HW228428   6.056   6.584   4.848 -0.0816  1.5929  0.4508
41675SOL     OW28429   0.916   1.457  10.664 -0.4067 -0.4784  0.7236
41675SOL    HW128430   0.970   1.414  10.730 -0.3914 -0.8756  0.4610
41675SOL    HW228431   0.826   1.441  10.693 -0.3903 -0.1849  0.9350
41676SOL     OW28432   8.181   5.904   2.916  0.0295  0.3697  0.3988
41676SOL    HW128433   8.109   5.852   2.880  1.0685  0.3817 -1.8172
41676SOL    HW228434   8.260   5.860   2.883  1.0185  0.6793  2.3344
41677SOL     OW28435   5.852   5.319   0.592 -0.2660 -0.1672  0.0228
41677SOL    HW128436   5.760   5.338   0.577  0.2357  0.8684 -1.9132
41677SOL    HW228437   5.898   5.397   0.563  1.2624 -0.8895  0.4457
41678SOL     OW28438  10.110   0.422   4.011  0.0883 -0.4064  0.1876
41678SOL    HW128439  10.179   0.472   3.968  0.2324 -0.7102  0.0612
41678SOL    HW228440  10.050   0.488   4.045  0.8041 -0.1169  0.9043
41679SOL     OW28441   6.453  10.861  10.407  0.3357 -0.5423  0.0122
41679SOL    HW128442   6.380  10.871  10.468  0.8115 -1.5057  0.7507
41679SOL    HW228443   6.415  10.821  10.330  0.0230 -0.7309  0.2668
41680SOL     OW28444   5.055   1.100   3.263 -0.5782  0.2802  0.1611
41680SOL    HW128445   4.970   1.073   3.300  0.0398 -0.1403  1.3126
41680SOL    HW228446   5.096   1.019   3.235 -0.0763  0.3626  0.6555
41681SOL     OW28447   8.284  10.947   0.689 -0.5310 -0.6612 -0.0060
41681SOL    HW128448   8.202  10.995   0.674  0.6696  1.0387 -1.2348
41681SOL    HW228449   8.320  10.932   0.602  0.9890 -0.5107  0.5903
41682SOL     OW28450   1.133   5.300   9.394 -0.3528 -0.5982 -0.4696
41682SOL    HW128451   1.219   5.296   9.353 -0.1307 -0.6698 -0.0018
41682SOL    HW228452   1.112   5.208   9.414 -0.4468 -0.5620 -0.4005
41683SOL     OW28453   9.040   0.710   6.849  0.3979 -0.3022  0.4814
41683SOL    HW128454   9.133   0.699   6.870  0.8960  0.0033 -1.5199
41683SOL    HW228455   9.035   0.698   6.754 -1.6742 -0.7388  0.6256
41684SOL     OW28456   7.247  10.687   9.178  0.1152 -0.2096  0.3045
41684SOL    HW128457   7.321  10.682   9.238 -0.5060 -0.2924  1.0659
41684SOL    HW228458   7.234  10.597   9.147 -0.8648 -0.5315  1.6320
41685SOL     OW28459   0.172   5.804   1.205 -0.5518 -0.1846  0.6327
41685SOL    HW128460   0.150   5.802   1.112 -0.8905 -2.7861  0.7364
41685SOL    HW228461   0.091   5.782   1.250 -0.2568  0.5301  1.5297
41686SOL     OW28462  10.855   0.148   8.200 -0.0550  0.7463  0.4171
41686SOL    HW128463  10.868   0.204   8.277 -1.0382  1.4469  0.0828
41686SOL    HW228464  10.860   0.208   8.126  1.4325 -0.0056 -0.1231
41687SOL     OW28465  10.347   7.682   7.101 -0.0560 -0.0395 -0.0332
41687SOL    HW128466  10.403   7.605   7.091  1.6101  1.2987 -1.4814
41687SOL    HW228467  10.381   7.726   7.178  0.6499  0.5544 -0.6722
41688SOL     OW28468   0.543   5.404   8.644  0.3045 -0.2219 -0.3976
41688SOL    HW128469   0.612   5.346   8.612 -1.1203 -0.9010 -2.3464
41688SOL    HW228470   0.462   5.368   8.608 -1.0163  0.9145  1.3379
41689SOL     OW28471  10.073   9.489   0.623  0.0357 -0.2031 -0.8359
41689SOL    HW128472  10.006   9.455   0.682 -0.0571 -2.9703 -2.4637
41689SOL    HW228473  10.146   9.428   0.631  0.7541  0.4537 -2.1571
41690SOL     OW28474   0.457   7.316   4.388  0.2696  1.0004  0.1397
41690SOL    HW128475   0.418   7.403   4.391 -3.6427 -0.6386  0.0628
41690SOL    HW228476   0.420   7.270   4.464  0.9879 -1.0708 -0.7196
41691SOL     OW28477   9.670   9.119   6.631 -0.4335 -0.7104  0.7702
41691SOL    HW128478   9.646   9.201   6.674  0.7833  0.7736 -1.2947
41691SOL    HW228479   9.589   9.091   6.588 -0.6174 -0.1076  0.7200
41692SOL     OW28480   9.102   4.437  10.870  0.2435 -0.1414  0.1323
41692SOL    HW128481   9.047   4.491  10.812  0.3626 -0.9654 -0.7551
41692SOL    HW228482   9.123   4.360  10.818 -0.5234 -1.4009  1.6414
41693SOL     OW28483   4.549   3.684   1.553  0.4667  0.1590 -0.1754
41693SOL    HW128484   4.486   3.751   1.527 -0.3788 -0.1240  1.1051
41693SOL    HW228485   4.626   3.733   1.583  0.8594  0.5040 -1.7251
41694SOL     OW28486   4.744   2.679   2.254  0.5237  0.8053  0.2891
41694SOL    HW128487   4.799   2.681   2.175 -0.5157  1.8566 -0.4225
41694SOL    HW228488   4.655   2.687   2.220 -0.0558 -0.4914  1.4633
41695SOL     OW28489   3.329   9.659  10.514  0.0532  0.1021  0.5074
41695SOL    HW128490   3.421   9.634  10.519 -0.1442 -0.6233  0.5981
41695SOL    HW228491   3.285   9.603  10.578 -0.5781 -0.1641 -0.1545
41696SOL     OW28492   3.622  10.365   3.519  0.2134 -0.5694  0.4508
41696SOL    HW128493   3.530  10.352   3.494  0.2259  1.8106 -0.9870
41696SOL    HW228494   3.671  10.308   3.461 -0.3488 -2.1219  1.4586
41697SOL     OW28495   5.089   1.284   9.857  0.0126  0.2824  0.4309
41697SOL    HW128496   5.059   1.318   9.940  1.6567  0.8852  0.7981
41697SOL    HW228497   5.046   1.338   9.791  0.6196  1.4283  0.9578
41698SOL     OW28498   6.067   0.085   9.635 -0.1757 -0.1270  0.5460
41698SOL    HW128499   6.076   0.017   9.702  0.0440  1.5406  2.2398
41698SOL    HW228500   6.119   0.053   9.561  0.3515 -1.5569  1.5196
41699SOL     OW28501   1.743   1.719   2.328  0.2164 -0.3809  0.0830
41699SOL    HW128502   1.785   1.633   2.341  0.3533 -0.3822 -0.3782
41699SOL    HW228503   1.815   1.777   2.303  0.0346 -0.2524 -0.1393
41700SOL     OW28504   9.301   4.252   8.739  0.2233 -0.0725 -0.3679
41700SOL    HW128505   9.365   4.224   8.673  0.4424  1.2597 -0.7465
41700SOL    HW228506   9.217   4.220   8.705  0.6265 -1.4845 -0.0684
41701SOL     OW28507   1.458  10.075   5.270  0.1614  0.1760 -0.2137
41701SOL    HW128508   1.383  10.020   5.292 -0.7438  0.9270 -1.4002
41701SOL    HW228509   1.460  10.076   5.175  0.6863  1.4909 -0.1980
41702SOL     OW28510   9.063   9.533  10.142  0.0160 -0.5041 -0.4042
41702SOL    HW128511   9.087   9.467  10.208  0.1921 -1.9089 -1.8411
41702SOL    HW228512   9.132   9.526  10.076 -1.4786 -0.8486 -1.9530
41703SOL     OW28513   0.676   7.999   4.381  0.3819  0.1676 -0.7200
41703SOL    HW128514   0.612   7.981   4.312  0.3779 -1.4398 -0.3088
41703SOL    HW228515   0.627   7.990   4.462  0.3287  2.3132 -0.4866
41704SOL     OW28516   3.391   1.347   0.160 -0.4244 -0.1833 -0.4955
41704SOL    HW128517   3.472   1.387   0.128  0.7020 -0.5582  1.7161
41704SOL    HW228518   3.403   1.253   0.145 -0.2070 -0.2869  0.2586
41705SOL     OW28519  10.164   5.194   4.628  0.2311  0.5013 -0.0254
41705SOL    HW128520  10.254   5.217   4.650  0.3205  0.1988 -0.0819
41705SOL    HW228521  10.130   5.270   4.581  0.9751 -0.0455 -1.4706
41706SOL     OW28522   9.480   7.408   6.340 -0.0155 -0.4321  0.2115
41706SOL    HW128523   9.563   7.413   6.389  0.2284  4.1656 -0.3968
41706SOL    HW228524   9.506   7.422   6.248 -1.2977 -0.5170 -0.1734
41707SOL     OW28525  10.938   2.082   8.484  0.3026 -0.3355  0.0237
41707SOL    HW128526  10.949   1.987   8.480  0.6489 -0.2806 -0.4600
41707SOL    HW228527  11.019   2.115   8.523  0.4589 -0.1943 -0.4079
41708SOL     OW28528   6.311   9.856   9.389 -0.4941 -0.7870  0.1630
41708SOL    HW128529   6.330   9.895   9.474 -1.3909 -0.8083  0.3736
41708SOL    HW228530   6.227   9.812   9.400 -2.5077  2.3749 -1.7424
41709SOL     OW28531   1.806   4.482   9.245  0.1657  0.2584  0.1974
41709SOL    HW128532   1.724   4.503   9.202  1.0257 -1.3312 -2.3263
41709SOL    HW228533   1.840   4.567   9.274 -0.9390  1.2665 -1.3763
41710SOL     OW28534   0.879  10.549  10.118  0.2096  1.1247 -0.2521
41710SOL    HW128535   0.890  10.604  10.195  1.2991  2.6191 -1.4532
41710SOL    HW228536   0.968  10.524  10.093 -0.2005 -0.1919 -0.4422
41711SOL     OW28537   8.363   7.525   2.025  0.0277  0.3701  0.3290
41711SOL    HW128538   8.355   7.515   1.930  1.7765  0.7408  0.1129
41711SOL    HW228539   8.369   7.435   2.058 -2.8007  0.1408  0.3530
41712SOL     OW28540   2.205   3.421   1.442 -0.0168  0.5862  0.1676
41712SOL    HW128541   2.279   3.361   1.437  0.4821  1.2949 -1.6554
41712SOL    HW228542   2.130   3.366   1.465  1.2654  0.0644  3.3660
41713SOL     OW28543   4.471   6.449   4.962  0.5220  0.3871  0.0151
41713SOL    HW128544   4.494   6.379   4.901 -0.1241  0.1730  0.0166
41713SOL    HW228545   4.419   6.510   4.911  0.7766  0.6871  0.1104
41714SOL     OW28546   6.950   1.431   2.910  0.2151  0.2083 -0.7942
41714SOL    HW128547   6.996   1.511   2.883 -0.7469  0.7877 -0.7403
41714SOL    HW228548   6.979   1.364   2.848  0.3634  0.8034 -1.3718
41715SOL     OW28549   8.637   0.803   8.910  0.0159  0.3448  0.1265
41715SOL    HW128550   8.699   0.817   8.839  1.1506 -0.0290  1.0101
41715SOL    HW228551   8.559   0.851   8.885  0.5500  0.5410 -1.1760
41716SOL     OW28552   2.351   9.786   5.712  0.6641  0.0732 -0.0503
41716SOL    HW128553   2.289   9.761   5.644  1.2969 -0.0426 -0.5792
41716SOL    HW228554   2.424   9.826   5.666  0.2742  1.6693  0.6867
41717SOL     OW28555   5.180  10.795   9.200 -0.0382  0.1294 -0.5031
41717SOL    HW128556   5.265  10.755   9.179  0.0265  0.3902 -0.7440
41717SOL    HW228557   5.132  10.792   9.117 -0.9031 -1.5861  0.0459
41718SOL     OW28558   8.851   6.645   1.022  0.0553 -0.2382  0.3037
41718SOL    HW128559   8.855   6.607   1.110  1.0921  1.4460  1.0011
41718SOL    HW228560   8.759   6.634   0.996  0.1700 -2.5762  0.7375
41719SOL     OW28561   3.127   3.349   5.839 -0.2921  0.3407  0.1536
41719SOL    HW128562   3.086   3.295   5.907 -0.2348  1.4650  1.0840
41719SOL    HW228563   3.194   3.291   5.801  0.4826  0.0683  1.8540
41720SOL     OW28564   3.909   7.530   7.708 -0.0939  0.6103  0.2180
41720SOL    HW128565   3.985   7.578   7.740  0.7134 -1.4029  1.3735
41720SOL    HW228566   3.934   7.499   7.621  1.5999 -2.6109  1.7816
41721SOL     OW28567   1.109   2.545   3.244 -0.2198 -0.1681  0.3442
41721SOL    HW128568   1.114   2.471   3.304  1.2754 -1.1722 -0.9689
41721SOL    HW228569   1.113   2.622   3.300  1.9536 -1.0750  1.4839
41722SOL     OW28570   9.973   3.027   5.921 -0.1032 -0.7304 -0.3914
41722SOL    HW128571   9.987   3.117   5.949 -1.5485 -0.6223  0.0046
41722SOL    HW228572  10.058   2.984   5.935  0.2851  0.2958  0.4340
41723SOL     OW28573   8.675   8.805   1.333 -0.3282  0.0483  0.2154
41723SOL    HW128574   8.678   8.876   1.398  1.5750 -0.3432  0.6013
41723SOL    HW228575   8.756   8.756   1.348 -0.1305 -0.3901 -2.0868
41724SOL     OW28576  10.325   1.821   6.148  0.0394 -0.4352 -0.1865
41724SOL    HW128577  10.276   1.785   6.074 -0.8004  0.8504 -0.2776
41724SOL    HW228578  10.268   1.890   6.182  0.2781 -1.1957  1.8366
41725SOL     OW28579   4.204   5.746   2.738 -0.4161  0.5825 -0.0667
41725SOL    HW128580   4.128   5.690   2.748  0.8146 -0.8837  1.4982
41725SOL    HW228581   4.188   5.795   2.657 -4.2979  2.4146  1.7087
41726SOL     OW28582   1.804   3.139  10.339 -0.4290  0.2830  0.6554
41726SOL    HW128583   1.878   3.141  10.278 -0.7187 -1.2916  0.2399
41726SOL    HW228584   1.792   3.231  10.365  1.4951  0.5948  0.5258
41727SOL     OW28585   2.900   1.884   1.258 -0.1538 -0.2785 -0.0476
41727SOL    HW128586   2.823   1.840   1.222  0.0835 -0.2903 -0.5635
41727SOL    HW228587   2.955   1.901   1.181 -0.2213  0.8824  0.1619
41728SOL     OW28588   4.087   6.176   0.829  0.1762 -0.1014  0.2202
41728SOL    HW128589   4.020   6.212   0.887  0.3718 -1.1579  1.1235
41728SOL    HW228590   4.040   6.152   0.749 -0.4898 -0.6890  0.7843
41729SOL     OW28591   9.759   2.100   3.978  0.0335  0.0505 -0.2509
41729SOL    HW128592   9.681   2.147   3.950 -0.5524 -0.9409 -0.3129
41729SOL    HW228593   9.785   2.050   3.900 -0.1577 -0.7981  0.2298
41730SOL     OW28594   5.825   4.761   0.842 -0.1939  0.1114 -0.0052
41730SOL    HW128595   5.865   4.841   0.876  0.1635  0.4703 -1.2383
41730SOL    HW228596   5.861   4.690   0.896 -2.4720  0.9979  2.8047
41731SOL     OW28597   0.298   4.055   0.836  0.3078 -0.2050  0.0099
41731SOL    HW128598   0.354   4.049   0.913 -0.0559 -0.3319  0.2682
41731SOL    HW228599   0.240   4.129   0.853  0.8985  0.4111 -0.5959
41732SOL     OW28600   7.230   7.375   7.705 -0.1924  0.0820 -0.1268
41732SOL    HW128601   7.233   7.356   7.612 -1.0751  0.3972 -0.2251
41732SOL    HW228602   7.205   7.292   7.746 -0.1470  0.0334 -0.1984
41733SOL     OW28603   6.120   6.141   3.660  0.5804  0.6292 -0.2692
41733SOL    HW128604   6.158   6.226   3.683  0.3983  0.4177  0.8406
41733SOL    HW228605   6.136   6.132   3.566  2.1395  1.1293 -0.0722
41734SOL     OW28606   3.479   1.121  10.915 -0.5986 -0.1446 -0.0313
41734SOL    HW128607   3.568   1.087  10.914 -0.4075  0.3341  0.7798
41734SOL    HW228608   3.469   1.163  10.829 -0.4684 -1.2655 -0.6078
41735SOL     OW28609  10.825   0.187   1.357 -0.1201  0.1313  0.0464
41735SOL    HW128610  10.871   0.122   1.304 -0.5079  0.3109 -0.5211
41735SOL    HW228611  10.767   0.136   1.413  0.6005 -0.0834  0.5991
41736SOL     OW28612   8.280   8.721   5.971 -0.1312  0.0723 -0.0196
41736SOL    HW128613   8.292   8.736   5.878 -1.2662 -0.4400 -0.2524
41736SOL    HW228614   8.185   8.721   5.984  0.0270  0.7593  1.2366
41737SOL     OW28615   8.749   6.880   9.946  0.2020  0.0919 -0.7087
41737SOL    HW128616   8.658   6.852   9.943 -0.2820  1.7576 -1.7970
41737SOL    HW228617   8.779   6.877   9.856  1.1596 -0.2067 -0.3898
41738SOL     OW28618   6.531   7.495   5.942 -0.2210 -0.0992 -0.0188
41738SOL    HW128619   6.548   7.587   5.926 -0.9556  0.0790  0.2009
41738SOL    HW228620   6.440   7.482   5.916 -0.9204 -0.1718  2.3509
41739SOL     OW28621   5.527  10.390   5.231 -0.0063 -0.2363  0.6718
41739SOL    HW128622   5.496  10.299   5.238  0.0142 -0.4295 -1.5067
41739SOL    HW228623   5.498  10.431   5.313 -2.0278 -1.6076  0.6835
41740SOL     OW28624   4.494   7.362   6.200  0.4506  0.0896  0.0222
41740SOL    HW128625   4.462   7.446   6.234 -0.5737 -0.0479 -0.5779
41740SOL    HW228626   4.425   7.332   6.141  2.4768  0.6392 -2.7100
41741SOL     OW28627   3.407  10.602   0.905  0.1985  0.0764 -0.4496
41741SOL    HW128628   3.343  10.667   0.935  0.7765  1.1689 -1.4899
41741SOL    HW228629   3.404  10.609   0.810  3.3250  1.6727 -0.5153
41742SOL     OW28630   2.440   0.462   9.687  0.1811  0.2957  0.6779
41742SOL    HW128631   2.388   0.460   9.767 -2.9209 -0.4079 -1.3125
41742SOL    HW228632   2.441   0.372   9.657  2.0678  0.4111  0.3358
41743SOL     OW28633   8.495   0.120   4.740  0.5490  0.0011 -0.3596
41743SOL    HW128634   8.484   0.039   4.690  0.2250  0.1496 -0.5265
41743SOL    HW228635   8.431   0.112   4.811 -0.0835  0.5042 -0.8729
41744SOL     OW28636   3.769   0.590   2.918 -0.3907  0.3264 -0.2070
41744SOL    HW128637   3.785   0.513   2.972  0.4822  0.8077  0.2360
41744SOL    HW228638   3.700   0.638   2.964  0.9350  1.1654  0.9486
41745SOL     OW28639   4.363   6.163   5.303 -0.3100  0.4333 -0.3938
41745SOL    HW128640   4.403   6.189   5.386  0.1084 -0.6970 -0.2333
41745SOL    HW228641   4.372   6.068   5.301 -1.4490  0.3299 -1.1552
41746SOL     OW28642   7.086  10.797   5.302  0.5128  0.1485  0.5316
41746SOL    HW128643   7.118  10.887   5.310  0.2753  0.2978 -0.1299
41746SOL    HW228644   7.030  10.784   5.378 -0.5684  1.0314 -0.1026
41747SOL     OW28645   7.897  10.491   5.489  0.2715 -0.2808 -0.5363
41747SOL    HW128646   7.965  10.464   5.551 -0.1704  0.6332  0.3768
41747SOL    HW228647   7.839  10.415   5.482 -0.5034  0.0991  1.3557
41748SOL     OW28648   7.772   7.853   2.843 -0.5054  0.1977  0.0976
41748SOL    HW128649   7.815   7.778   2.883 -0.7428 -0.2347 -0.4531
41748SOL    HW228650   7.754   7.913   2.916  0.4212  0.0850  0.4198
41749SOL     OW28651   6.242   2.081   1.291 -0.3287 -0.4422 -0.1452
41749SOL    HW128652   6.250   2.021   1.217  0.0249 -0.2892 -0.2325
41749SOL    HW228653   6.312   2.145   1.278 -1.4573  0.6871 -0.6960
41750SOL     OW28654   5.489   8.385   2.777  0.2410 -0.1120 -0.2233
41750SOL    HW128655   5.448   8.435   2.707 -1.5820 -0.8650  0.2705
41750SOL    HW228656   5.466   8.294   2.759  0.0728 -0.3497  1.1370
41751SOL     OW28657   8.902   8.102   0.865  0.0874 -0.0815 -0.8409
41751SOL    HW128658   8.827   8.064   0.820  0.5939 -1.5187 -0.5102
41751SOL    HW228659   8.919   8.043   0.939  0.7685  0.9069 -0.1872
41752SOL     OW28660   5.352   9.907   8.968  0.3101 -0.2065 -0.2696
41752SOL    HW128661   5.323   9.911   8.877  1.3790 -1.1859 -0.6693
41752SOL    HW228662   5.392   9.820   8.977 -1.0694 -0.6827  1.5353
41753SOL     OW28663   0.807   9.696   2.604 -0.1104  0.5030 -0.1703
41753SOL    HW128664   0.817   9.638   2.528  0.0058 -0.1481  0.3349
41753SOL    HW228665   0.897   9.708   2.637 -0.1134  1.1210 -0.3800
41754SOL     OW28666   4.751   0.108   4.888  0.0135  0.4082  0.2732
41754SOL    HW128667   4.740   0.048   4.962  1.3211 -0.2314 -0.0397
41754SOL    HW228668   4.809   0.176   4.921 -0.1915  0.6467  0.1402
41755SOL     OW28669   0.034   0.032   9.125 -0.4523 -0.4809 -0.7398
41755SOL    HW128670  -0.023  -0.033   9.165  1.4994 -1.5514  0.3718
41755SOL    HW228671   0.070   0.081   9.199  1.4823 -1.0444 -1.2781
41756SOL     OW28672   5.560   8.438   3.950  0.1341  0.0360 -0.3398
41756SOL    HW128673   5.537   8.404   3.863 -1.2258 -0.8353  0.3431
41756SOL    HW228674   5.527   8.528   3.949  1.3835  0.5009 -1.2116
41757SOL     OW28675   8.004   1.473   1.513  0.2927  0.4239 -0.3326
41757SOL    HW128676   8.093   1.456   1.546 -0.7478 -2.8254  0.9235
41757SOL    HW228677   7.951   1.484   1.592 -0.6715  1.0672 -1.0648
41758SOL     OW28678   0.798   4.665   7.462 -0.5121 -0.1259  0.6294
41758SOL    HW128679   0.817   4.590   7.405 -0.7427 -0.9729  1.6571
41758SOL    HW228680   0.878   4.717   7.460 -0.7514  0.2015 -0.9943
41759SOL     OW28681   6.688   2.728   3.867  0.2375 -0.3180 -0.4005
41759SOL    HW128682   6.662   2.665   3.800 -3.3354  1.3876 -0.7435
41759SOL    HW228683   6.703   2.674   3.945 -1.6629 -1.7701 -0.9725
41760SOL     OW28684   0.909   8.750   1.404 -0.3451  0.4858 -0.3165
41760SOL    HW128685   0.818   8.781   1.397 -0.4368  0.5252  0.8978
41760SOL    HW228686   0.902   8.656   1.416 -0.2741  0.6147  0.7785
41761SOL     OW28687   6.031   8.059   1.091  0.3926  0.5167  0.0954
41761SOL    HW128688   5.951   8.110   1.091 -0.4943 -0.8535 -0.1945
41761SOL    HW228689   6.048   8.038   0.999  1.4268  1.3182  0.0896
41762SOL     OW28690  10.687   0.570   9.797  0.1180  0.0140  0.2134
41762SOL    HW128691  10.692   0.604   9.886 -2.8584  0.5074  0.2338
41762SOL    HW228692  10.596   0.582   9.771  0.7281 -0.9147 -2.5995
41763SOL     OW28693   0.238   7.564   1.163  0.2680  0.0233 -0.5616
41763SOL    HW128694   0.150   7.538   1.136  0.4486 -0.2473 -0.8791
41763SOL    HW228695   0.236   7.660   1.158  0.0653  0.0084 -0.7996
41764SOL     OW28696   7.789   2.837   1.411  0.6305 -0.4251  0.9299
41764SOL    HW128697   7.724   2.907   1.417  0.4061 -0.7339  2.3142
41764SOL    HW228698   7.871   2.881   1.394 -0.0887 -0.0963 -1.8646
41765SOL     OW28699   8.298   0.365   5.131  0.2863  0.2727 -0.2725
41765SOL    HW128700   8.307   0.414   5.049  2.9754 -0.1633 -0.2698
41765SOL    HW228701   8.382   0.375   5.174 -0.5364 -0.9349  1.6595
41766SOL     OW28702   0.574   9.944   7.129  0.1420  0.4143 -0.3192
41766SOL    HW128703   0.599  10.006   7.060  1.6040 -0.6339 -0.7596
41766SOL    HW228704   0.512   9.885   7.086  2.3418 -1.2743 -1.2640
41767SOL     OW28705   0.963   1.104   1.693  0.5042 -0.0153  0.0424
41767SOL    HW128706   1.047   1.122   1.736  0.1577  0.6496  0.4490
41767SOL    HW228707   0.951   1.178   1.633  0.8506 -0.7977 -1.0058
41768SOL     OW28708   8.801   6.967   5.398 -0.8808 -0.6680  1.0726
41768SOL    HW128709   8.753   7.010   5.327  0.9185 -0.5530 -0.1304
41768SOL    HW228710   8.785   6.874   5.386 -0.5228 -0.6538  0.4443
41769SOL     OW28711  10.214   1.964   4.822  0.6574  0.2396 -0.0211
41769SOL    HW128712  10.170   2.038   4.862  1.7444 -0.0495  1.7676
41769SOL    HW228713  10.276   2.003   4.760  0.1595  0.7584 -0.1918
41770SOL     OW28714   7.279   7.782   5.867 -0.1456 -0.9400 -0.5212
41770SOL    HW128715   7.245   7.870   5.852  1.3931 -0.8051 -3.5769
41770SOL    HW228716   7.202   7.728   5.882 -1.2138  0.6148 -0.3239
41771SOL     OW28717   9.575   8.779   9.691  0.6773 -0.1757 -0.0129
41771SOL    HW128718   9.487   8.747   9.708  0.5979 -0.4515 -0.9092
41771SOL    HW228719   9.626   8.700   9.672  0.9022  0.0571 -0.3903
41772SOL     OW28720   6.674   5.732   2.401  0.0625  0.3434  0.5685
41772SOL    HW128721   6.743   5.787   2.438 -0.3776  0.3234  1.4405
41772SOL    HW228722   6.610   5.723   2.472  0.6371 -2.1788  0.8327
41773SOL     OW28723   9.390   3.156   9.895 -0.1338  0.0948  0.3222
41773SOL    HW128724   9.373   3.095   9.823  0.5092  0.5096 -0.1860
41773SOL    HW228725   9.326   3.133   9.962 -0.7827 -0.2511 -0.4150
41774SOL     OW28726  10.664   2.096   6.345  0.2660  0.0475  0.2068
41774SOL    HW128727  10.690   2.020   6.292 -0.2443  0.7498 -1.0532
41774SOL    HW228728  10.615   2.058   6.418  1.6524 -0.9894  0.6305
41775SOL     OW28729   8.912   2.790   8.904  0.3814 -0.2071 -0.0634
41775SOL    HW128730   8.922   2.713   8.848 -0.0257  0.7702 -1.4970
41775SOL    HW228731   8.823   2.821   8.888 -0.4493 -1.0476  2.6304
41776SOL     OW28732   1.123   2.548   3.674 -0.1527 -0.3285 -0.1036
41776SOL    HW128733   1.146   2.635   3.706 -0.2087  0.2528 -1.5861
41776SOL    HW228734   1.185   2.531   3.604 -0.1758 -1.4669  0.1471
41777SOL     OW28735   1.511   8.182   9.201 -0.2063 -0.0349  0.0708
41777SOL    HW128736   1.575   8.180   9.130  0.4061 -1.7857  0.6465
41777SOL    HW228737   1.533   8.260   9.251  0.9541 -0.1644 -0.2197
41778SOL     OW28738  10.370   2.677   9.245 -0.0851  0.0916  0.1844
41778SOL    HW128739  10.331   2.590   9.255 -1.5321  0.7581  0.5658
41778SOL    HW228740  10.406   2.678   9.157  0.6606 -1.1651  0.4598
41779SOL     OW28741   6.748   7.815   2.466 -0.3917 -0.1266 -0.2719
41779SOL    HW128742   6.663   7.834   2.507  0.4601  1.6232  0.7843
41779SOL    HW228743   6.812   7.839   2.533  0.9675 -0.6619 -1.3520
41780SOL     OW28744   5.362   8.949   1.948 -0.2744 -0.6286  0.3828
41780SOL    HW128745   5.442   8.917   1.907  0.1302  1.4336 -0.4834
41780SOL    HW228746   5.296   8.944   1.879 -0.1558  0.5958  0.1755
41781SOL     OW28747   5.908   0.614   9.050 -0.2640 -0.3063 -0.4324
41781SOL    HW128748   5.832   0.672   9.042 -0.3886 -0.3386  0.4015
41781SOL    HW228749   5.871   0.527   9.064 -0.0841 -0.7388 -2.5110
41782SOL     OW28750   3.122  10.085   1.559  0.4767  0.3960 -0.2313
41782SOL    HW128751   3.101  10.149   1.490  0.0644  1.8097  1.1691
41782SOL    HW228752   3.181  10.023   1.517  0.3617  1.3306 -1.8211
41783SOL     OW28753   1.632   9.591   1.265 -0.2490  0.2678 -0.4390
41783SOL    HW128754   1.555   9.645   1.247 -1.7690 -1.7069 -0.0272
41783SOL    HW228755   1.648   9.546   1.182 -0.5589 -0.5545 -0.0601
41784SOL     OW28756   7.613   2.254   8.044  0.0607 -0.5782  0.2349
41784SOL    HW128757   7.666   2.281   7.969 -1.0726  0.5665 -0.1805
41784SOL    HW228758   7.550   2.192   8.008 -1.0065  0.5882  0.0675
41785SOL     OW28759   6.649   0.741   4.158  0.1220 -0.4939 -0.4799
41785SOL    HW128760   6.713   0.710   4.095  1.0526 -0.3469  0.3870
41785SOL    HW228761   6.700   0.781   4.228 -0.8298 -1.6056  0.9003
41786SOL     OW28762   9.602   2.188   6.216  0.0774  0.2897 -0.1552
41786SOL    HW128763   9.581   2.257   6.154 -1.0407 -0.1937 -0.3177
41786SOL    HW228764   9.520   2.172   6.263  0.1951 -1.2442 -0.4396
41787SOL     OW28765   7.705   1.226   4.301  0.1990  0.1848 -0.4116
41787SOL    HW128766   7.669   1.171   4.371 -0.6292  0.7694 -0.3717
41787SOL    HW228767   7.799   1.228   4.318  0.2560 -1.3279 -0.4889
41788SOL     OW28768   3.544   7.057  10.630 -0.6928 -0.4335  0.3728
41788SOL    HW128769   3.563   7.115  10.704 -2.8352 -1.6154  1.8823
41788SOL    HW228770   3.598   6.980  10.646 -0.2673 -0.2102  0.0463
41789SOL     OW28771   0.301   5.979   1.461  0.7584  0.0352 -0.5895
41789SOL    HW128772   0.301   6.075   1.454  1.3189  0.0230 -0.8160
41789SOL    HW228773   0.280   5.949   1.372 -2.3709 -0.0288  0.1180
41790SOL     OW28774   0.361   5.635   7.024  0.4012 -0.0422 -0.1649
41790SOL    HW128775   0.359   5.539   7.016  1.3377 -0.0322 -0.5295
41790SOL    HW228776   0.418   5.652   7.099 -1.9213  0.1577  1.6410
41791SOL     OW28777   5.176   8.816   0.966  0.0469  0.6466 -0.0714
41791SOL    HW128778   5.091   8.776   0.947  0.2759  1.0651 -2.0826
41791SOL    HW228779   5.222   8.815   0.882  2.0716  0.3580  0.9989
41792SOL     OW28780   0.691   5.846   6.714 -0.0820 -0.2458 -0.0382
41792SOL    HW128781   0.685   5.937   6.686  1.1024 -0.9045 -2.6804
41792SOL    HW228782   0.628   5.800   6.659  0.9202 -1.3250 -0.3172
41793SOL     OW28783   7.597   4.262   3.178  0.6654  0.0125  0.8124
41793SOL    HW128784   7.544   4.338   3.202  2.1804  0.8965  1.4563
41793SOL    HW228785   7.594   4.259   3.083  1.6593  1.6689  0.7158
41794SOL     OW28786   8.580  10.014   6.031 -0.1339 -0.3012 -0.5883
41794SOL    HW128787   8.565   9.950   6.101 -2.2085  1.2538  0.4575
41794SOL    HW228788   8.669  10.045   6.046  0.0009 -1.1299  0.4207
41795SOL     OW28789   7.580   9.192   0.385  0.2226 -0.2945  0.2977
41795SOL    HW128790   7.522   9.170   0.312 -0.7976 -1.3522  1.3999
41795SOL    HW228791   7.655   9.134   0.376 -0.8639 -1.8991  1.2344
41796SOL     OW28792   9.818   3.724   2.211  0.4798 -0.5924  0.3571
41796SOL    HW128793   9.762   3.768   2.147 -1.0787 -3.6597 -0.5039
41796SOL    HW228794   9.903   3.716   2.167 -0.0322 -0.9350 -0.6025
41797SOL     OW28795   3.792   1.168   2.516 -0.0954  0.2187  0.1116
41797SOL    HW128796   3.830   1.166   2.604  1.4334  2.4291 -0.4589
41797SOL    HW228797   3.846   1.231   2.468 -0.3693 -1.5969 -2.6785
41798SOL     OW28798   3.837   4.340   7.766 -0.4115 -0.1573 -0.0350
41798SOL    HW128799   3.896   4.317   7.838 -1.0323 -0.1053  0.4988
41798SOL    HW228800   3.891   4.390   7.705  0.1592 -0.3412  0.3205
41799SOL     OW28801   2.759   8.447   6.792  0.3808 -0.4066 -0.2951
41799SOL    HW128802   2.733   8.357   6.770  1.2731 -0.9121  0.6438
41799SOL    HW228803   2.836   8.436   6.848  0.3422  0.9483  0.0384
41800SOL     OW28804   0.713   1.507   5.270  0.1658  0.3241  0.1286
41800SOL    HW128805   0.636   1.481   5.321 -0.4866  0.3390 -0.8292
41800SOL    HW228806   0.780   1.527   5.336  0.3932 -2.8221  0.9765
41801SOL     OW28807   0.677  10.794   1.503 -0.1072  0.5067  0.4819
41801SOL    HW128808   0.727  10.713   1.495  0.3401  1.0249 -2.8255
41801SOL    HW228809   0.585  10.766   1.499 -0.0269 -0.1046  2.6361
41802SOL     OW28810   6.770   9.423   5.586 -0.5249  0.4127  0.5557
41802SOL    HW128811   6.684   9.390   5.561 -1.4199  1.7339  1.8195
41802SOL    HW228812   6.832   9.363   5.545 -2.0369 -0.3262 -0.6858
41803SOL     OW28813   0.637   4.429   8.520  0.1334  0.7582 -0.3971
41803SOL    HW128814   0.690   4.363   8.475  0.7127 -0.5424  2.0987
41803SOL    HW228815   0.567   4.449   8.459  2.4617  1.1783 -3.0434
41804SOL     OW28816   2.707   9.102   5.442  0.3105 -0.5785 -0.1629
41804SOL    HW128817   2.630   9.045   5.450  0.3715 -0.5196  0.9665
41804SOL    HW228818   2.778   9.052   5.482  0.1880  0.6006  1.6154
41805SOL     OW28819   8.865   7.692   1.338  0.0372 -0.4458 -0.2922
41805SOL    HW128820   8.810   7.688   1.259 -2.3745  1.1584  1.2369
41805SOL    HW228821   8.822   7.634   1.400  1.6258 -1.2891  0.0417
41806SOL     OW28822   8.583   3.473  10.777 -0.2162  0.1056  0.1363
41806SOL    HW128823   8.604   3.395  10.727  1.2379  0.5661 -0.0119
41806SOL    HW228824   8.636   3.465  10.857  1.9951  2.1452 -1.0358
41807SOL     OW28825   0.723   1.606   0.425  0.3519 -0.4343 -0.2725
41807SOL    HW128826   0.675   1.559   0.356  1.2420 -1.2615 -0.3433
41807SOL    HW228827   0.689   1.569   0.507 -1.1125  0.9469 -0.2305
41808SOL     OW28828   4.856   4.992   9.242 -0.1587  0.2136  0.4919
41808SOL    HW128829   4.807   4.929   9.296  1.3624 -1.3999  0.0485
41808SOL    HW228830   4.790   5.053   9.211 -1.4863 -0.3894  2.0235
41809SOL     OW28831   9.945   8.429   6.895 -0.0707 -0.1931 -1.1211
41809SOL    HW128832  10.020   8.480   6.863  0.4090 -1.2395 -1.6585
41809SOL    HW228833   9.977   8.389   6.977  0.0156 -0.7737 -1.4381
41810SOL     OW28834   2.651  10.126   6.211 -0.3464 -0.0762  0.0855
41810SOL    HW128835   2.606  10.079   6.282 -2.2163  2.0604  0.3626
41810SOL    HW228836   2.728  10.163   6.253  0.5072 -1.8180  0.1345
41811SOL     OW28837  10.009   1.996   0.756 -0.3856  0.9155  0.5975
41811SOL    HW128838   9.985   1.968   0.844 -1.5092  0.3721  0.1332
41811SOL    HW228839  10.094   2.038   0.766  0.2138 -0.5097  1.7120
41812SOL     OW28840   8.830   1.109   1.534  0.1392  0.0456 -0.1452
41812SOL    HW128841   8.735   1.101   1.520  0.3960 -1.7530 -0.9774
41812SOL    HW228842   8.840   1.111   1.629 -0.6994 -0.2040 -0.0469
41813SOL     OW28843   7.713   3.122   0.452 -0.1709  0.5321  0.4433
41813SOL    HW128844   7.632   3.171   0.460  0.2428  1.3707 -0.4844
41813SOL    HW228845   7.694   3.053   0.389 -0.0492  0.9629 -0.0633
41814SOL     OW28846   5.991   5.563   9.147  0.1408 -0.2331 -0.0532
41814SOL    HW128847   6.015   5.577   9.055 -0.8565 -1.3282 -0.5016
41814SOL    HW228848   6.065   5.595   9.197  0.6151  0.5502 -1.2439
41815SOL     OW28849  10.777   5.324   3.565  0.2842  0.1973  0.8270
41815SOL    HW128850  10.756   5.264   3.636 -2.0371  0.3223  0.2804
41815SOL    HW228851  10.739   5.407   3.592  0.8452  0.6617  0.1929
41816SOL     OW28852  10.571   0.946   4.466  0.3015  0.0649  0.2086
41816SOL    HW128853  10.525   0.867   4.440  0.9935  0.3476 -1.9641
41816SOL    HW228854  10.502   1.012   4.476 -0.0089 -0.1239 -0.6497
41817SOL     OW28855   9.897   7.036   7.925  0.6184 -0.5400 -1.0713
41817SOL    HW128856   9.933   7.108   7.978 -1.6068  0.4664 -0.8684
41817SOL    HW228857   9.899   6.960   7.983  4.2291 -1.0145 -1.7105
41818SOL     OW28858   7.002   3.808   4.481 -0.0439 -0.7220  0.0458
41818SOL    HW128859   6.937   3.875   4.501  1.6868  1.0129 -0.0022
41818SOL    HW228860   7.011   3.811   4.385  0.8649 -0.2182  0.1413
41819SOL     OW28861   0.873   4.252   3.757 -0.4635 -0.8542 -0.0417
41819SOL    HW128862   0.845   4.236   3.667 -0.6770  0.9264 -0.3153
41819SOL    HW228863   0.946   4.314   3.748 -0.4564 -0.7021  1.0067
41820SOL     OW28864   8.127   8.807   3.331 -0.2383  0.1802 -0.1379
41820SOL    HW128865   8.174   8.879   3.374 -0.7999  0.2738  0.3276
41820SOL    HW228866   8.193   8.738   3.321  0.0105  0.3264  0.4757
41821SOL     OW28867   4.552   8.453   3.547  0.0707 -0.9000  0.3960
41821SOL    HW128868   4.644   8.459   3.521 -0.4277 -1.3596 -1.5571
41821SOL    HW228869   4.512   8.534   3.514  0.0950  0.1171  2.7403
41822SOL     OW28870   7.545   4.421   4.324 -0.1011  0.4424 -0.8108
41822SOL    HW128871   7.528   4.481   4.397 -1.0798  0.7766 -1.2982
41822SOL    HW228872   7.627   4.377   4.347  0.6330  1.9812 -0.4606
41823SOL     OW28873   6.674   3.593   9.629 -0.5168  0.5739  0.3137
41823SOL    HW128874   6.752   3.633   9.591 -0.7611  2.1218  1.3877
41823SOL    HW228875   6.702   3.504   9.651  1.0318  1.1762  0.9101
41824SOL     OW28876   7.265   7.561   3.205  0.1846  0.1365  0.4615
41824SOL    HW128877   7.204   7.510   3.259  1.0053  1.0882  2.3596
41824SOL    HW228878   7.256   7.650   3.238 -0.1790  0.9731 -1.8555
41825SOL     OW28879   7.555   8.967   0.198 -1.0735 -0.1357  0.3972
41825SOL    HW128880   7.529   9.026   0.128  0.1596 -0.0776 -0.0070
41825SOL    HW228881   7.644   8.940   0.176 -0.3382  0.5563  2.3610
41826SOL     OW28882   6.051   0.686   1.980  0.2590 -0.2839  0.2528
41826SOL    HW128883   6.143   0.675   2.007  0.2826 -0.1379  0.2360
41826SOL    HW228884   6.038   0.620   1.913  0.6749  0.4144 -0.5276
41827SOL     OW28885   2.294   5.275  10.890  0.1819  0.1091 -0.4701
41827SOL    HW128886   2.370   5.330  10.910  0.0427  0.5467 -1.1412
41827SOL    HW228887   2.229   5.335  10.855  0.6587 -0.7294 -2.8931
41828SOL     OW28888   8.995   6.855   0.302 -0.1431  0.4609 -0.3164
41828SOL    HW128889   8.910   6.900   0.299  0.7901  2.2675 -0.5452
41828SOL    HW228890   9.022   6.850   0.210 -0.2509 -0.5883 -0.2870
41829SOL     OW28891   3.185   5.181   9.906  0.2382  0.0232  0.1712
41829SOL    HW128892   3.099   5.225   9.899  0.2986  0.2168  0.6177
41829SOL    HW228893   3.190   5.153   9.997  0.6796  0.0700  0.1625
41830SOL     OW28894   9.590   1.452   9.560  1.0083 -0.0068  0.4424
41830SOL    HW128895   9.580   1.466   9.466 -0.2177 -3.3777 -0.0156
41830SOL    HW228896   9.501   1.435   9.591  1.7782 -2.3213  1.5233
41831SOL     OW28897   9.065  10.002   3.536 -0.2961 -0.1119  0.1971
41831SOL    HW128898   9.112  10.017   3.618 -0.0331  3.8748 -0.5698
41831SOL    HW228899   9.125   9.951   3.482  1.1207  0.6528  1.0368
41832SOL     OW28900   5.971   9.319   6.939  0.0790  0.2658  0.1817
41832SOL    HW128901   5.910   9.253   6.906 -1.2434  2.0145 -0.9681
41832SOL    HW228902   5.981   9.298   7.032 -1.4168 -0.7191  0.1479
41833SOL     OW28903   4.622   9.724   1.845 -0.0351 -0.8263 -0.3057
41833SOL    HW128904   4.545   9.728   1.902  0.9671  0.2084  1.0204
41833SOL    HW228905   4.588   9.731   1.756 -1.5635 -1.6299  0.2127
41834SOL     OW28906   0.793   1.572   8.424  0.2847  0.2121 -0.1926
41834SOL    HW128907   0.881   1.545   8.451  0.7773  1.1695 -0.7876
41834SOL    HW228908   0.760   1.498   8.374  0.8728 -0.0510 -0.1998
41835SOL     OW28909   6.390   4.871   9.140 -0.2809 -0.3622 -0.0918
41835SOL    HW128910   6.452   4.942   9.122  0.7457 -1.4045 -0.6959
41835SOL    HW228911   6.304   4.912   9.130  0.2579  0.1712 -3.1607
41836SOL     OW28912   6.872   7.095   4.249  0.2347 -0.0454 -0.0473
41836SOL    HW128913   6.887   7.055   4.334 -0.1440 -3.1686 -1.3695
41836SOL    HW228914   6.952   7.077   4.199 -0.3845 -0.1450 -1.0309
41837SOL     OW28915   2.816   7.245  10.478 -0.2212  0.1160 -0.5172
41837SOL    HW128916   2.796   7.227  10.386  2.1124  0.9889 -1.2470
41837SOL    HW228917   2.881   7.177  10.501 -0.0280  0.5315  0.1660
41838SOL     OW28918   1.880   6.856   7.178  0.2983  0.0054 -0.3712
41838SOL    HW128919   1.876   6.793   7.251  2.4486 -1.9747 -1.8859
41838SOL    HW228920   1.810   6.830   7.119 -0.3059  0.5063  0.1174
41839SOL     OW28921   2.192  10.788  10.931  0.2657  0.1651 -0.2074
41839SOL    HW128922   2.197  10.719  10.865 -1.8091  0.0642 -0.2664
41839SOL    HW228923   2.152  10.862  10.886  0.5407  0.7218  0.4429
41840SOL     OW28924   9.606   3.777   2.549  0.1932  0.5146 -0.6198
41840SOL    HW128925   9.557   3.696   2.539  1.2909 -0.4073  1.2555
41840SOL    HW228926   9.677   3.770   2.484  0.8032 -0.4403  0.1286
41841SOL     OW28927   4.665   5.198   9.973  0.3911 -0.3313  0.3257
41841SOL    HW128928   4.741   5.255   9.961 -0.8341  1.1968 -0.3996
41841SOL    HW228929   4.700   5.110   9.964  2.0081  0.3612 -0.4619
41842SOL     OW28930   8.204   5.085   1.737  1.2740  0.2882 -0.3629
41842SOL    HW128931   8.255   5.149   1.787  0.9791  2.2076 -2.4631
41842SOL    HW228932   8.118   5.087   1.778  1.7772 -0.1265  0.7450
41843SOL     OW28933   4.517   9.819   9.587  0.5856 -0.1663 -0.3164
41843SOL    HW128934   4.544   9.801   9.497 -1.3339  1.1657 -1.1890
41843SOL    HW228935   4.454   9.891   9.579  2.0697  1.4893  2.3020
41844SOL     OW28936   3.403   9.592   1.774  0.3626  0.0611  0.0896
41844SOL    HW128937   3.402   9.606   1.869 -0.2441  3.8400 -0.4014
41844SOL    HW228938   3.495   9.577   1.752  0.7706  1.1451  1.0378
41845SOL     OW28939   1.048   3.680   5.881  0.1808  0.1663 -0.1115
41845SOL    HW128940   1.116   3.671   5.815  1.1714 -1.6193  1.0909
41845SOL    HW228941   0.976   3.724   5.836  0.5470 -1.6423 -2.5837
41846SOL     OW28942   0.731   5.306  10.530  0.1914  0.1682 -0.1924
41846SOL    HW128943   0.707   5.220  10.497  0.5045  0.7080 -1.8785
41846SOL    HW228944   0.663   5.327  10.595  0.3022 -1.4666  0.4760
41847SOL     OW28945   6.357   5.288   8.964 -0.2818 -0.3276  0.6945
41847SOL    HW128946   6.282   5.250   9.010 -0.1642 -0.6559  0.6168
41847SOL    HW228947   6.362   5.238   8.882 -1.8902  1.7300 -0.7248
41848SOL     OW28948  10.453   6.909   3.270 -0.3557 -0.7959 -0.0099
41848SOL    HW128949  10.486   6.890   3.358  0.8785  4.7193  0.9122
41848SOL    HW228950  10.360   6.927   3.283 -0.3827 -0.9499  0.0098
41849SOL     OW28951   7.134   6.544   1.613 -0.1700  0.3075  0.1347
41849SOL    HW128952   7.055   6.489   1.618  0.5953 -1.0633 -2.2074
41849SOL    HW228953   7.101   6.632   1.595 -1.1690 -0.2906 -1.0278
41850SOL     OW28954   0.457   9.513   0.393  0.2995 -1.1098  0.0862
41850SOL    HW128955   0.464   9.483   0.484  1.1760 -0.7882  0.1293
41850SOL    HW228956   0.515   9.456   0.344  1.5909  0.1868  0.0912
41851SOL     OW28957   9.590   5.186   1.993 -0.3067  0.0301 -0.5395
41851SOL    HW128958   9.564   5.200   2.084 -1.8062 -0.7286 -0.8384
41851SOL    HW228959   9.619   5.095   1.989  0.0725  0.1563 -0.7534
41852SOL     OW28960   1.259   9.727   6.877  0.3612 -0.3609  0.5089
41852SOL    HW128961   1.226   9.682   6.798 -1.2812  1.8121 -0.0696
41852SOL    HW228962   1.333   9.673   6.905  0.4315 -1.6730 -2.0189
41853SOL     OW28963   9.781   9.329   0.334  0.7907 -0.1790 -0.0305
41853SOL    HW128964   9.843   9.271   0.289 -2.3246 -3.0381 -0.8266
41853SOL    HW228965   9.763   9.285   0.417  1.3145  1.6681  1.0925
41854SOL     OW28966   2.894   2.769   5.145 -0.0575  0.5691  0.5697
41854SOL    HW128967   2.904   2.716   5.224 -0.4656 -0.9144 -0.3416
41854SOL    HW228968   2.929   2.714   5.075 -0.3598  1.5692 -0.3853
41855SOL     OW28969   6.852   3.918   5.188 -0.2400  0.2375 -0.4263
41855SOL    HW128970   6.914   3.964   5.132  0.1988  0.0454 -0.0908
41855SOL    HW228971   6.791   3.986   5.217  0.0231  0.4868 -0.4575
41856SOL     OW28972  10.292  10.546  10.735  0.7853 -0.6026  0.2887
41856SOL    HW128973  10.286  10.458  10.696  1.2234 -0.4487 -0.1313
41856SOL    HW228974  10.303  10.605  10.661 -0.7581 -0.0607  0.4853
41857SOL     OW28975   6.190  10.734   3.448  0.1456  0.1967  0.0693
41857SOL    HW128976   6.277  10.759   3.478 -0.2045  0.8676  0.5220
41857SOL    HW228977   6.131  10.796   3.490 -0.6362 -0.8061  0.4553
41858SOL     OW28978   0.643   1.022   9.661 -0.6003  0.4881  0.0726
41858SOL    HW128979   0.633   0.977   9.745  1.2889 -1.7410 -0.8156
41858SOL    HW228980   0.558   1.061   9.644 -1.0742  0.8369  2.9331
41859SOL     OW28981   7.531   1.661   2.993 -0.0051 -0.6497  0.0432
41859SOL    HW128982   7.545   1.738   2.939 -0.7901 -1.7613 -1.8301
41859SOL    HW228983   7.566   1.588   2.941 -2.2615 -1.9643  0.2629
41860SOL     OW28984   2.037   9.817   4.153  0.1135 -0.1049 -0.3880
41860SOL    HW128985   2.021   9.740   4.209  0.5383 -0.3112 -0.5433
41860SOL    HW228986   1.964   9.818   4.092  1.2032 -1.6539 -1.7844
41861SOL     OW28987   1.942   1.646   4.009 -0.5269 -0.6398  0.1908
41861SOL    HW128988   1.946   1.740   4.030 -1.6644 -0.1829 -1.5150
41861SOL    HW228989   2.012   1.607   4.061  1.0128  1.3979 -0.2698
41862SOL     OW28990   7.028   2.060   9.227 -0.3704 -0.5505 -0.3352
41862SOL    HW128991   7.097   2.123   9.210 -0.8865  1.0020  2.9898
41862SOL    HW228992   7.074   1.979   9.250  0.4520  0.9244  3.5083
41863SOL     OW28993   5.568   5.394  10.116  0.5980 -0.2079 -0.2475
41863SOL    HW128994   5.530   5.354  10.194 -0.1004  1.4380  0.2853
41863SOL    HW228995   5.661   5.400  10.135  0.2316  1.5537  1.1176
41864SOL     OW28996   1.909   0.354   3.324 -0.1398 -0.0773 -0.7878
41864SOL    HW128997   1.875   0.287   3.384 -1.7936 -0.1792 -1.8242
41864SOL    HW228998   1.995   0.376   3.360 -0.3709 -1.3958  0.6362
41865SOL     OW28999   7.542  10.616   0.803  0.1366 -0.3939  0.5861
41865SOL    HW129000   7.558  10.625   0.709  0.3097  2.0253  0.8096
41865SOL    HW229001   7.449  10.596   0.810  0.2209 -1.0416 -0.1211
41866SOL     OW29002   2.038   6.668   1.682  0.5467  0.0078 -0.0418
41866SOL    HW129003   2.111   6.681   1.621  1.5031 -0.1616  1.0527
41866SOL    HW229004   2.075   6.618   1.754 -1.3671 -2.5840 -0.8005
41867SOL     OW29005   6.604  10.543   1.606 -0.7547 -0.1372 -0.4936
41867SOL    HW129006   6.673  10.581   1.552 -0.4872 -0.9914 -0.7600
41867SOL    HW229007   6.649  10.477   1.659 -1.1160  0.3000  0.3652
41868SOL     OW29008   8.441   4.390  10.297 -0.1061 -0.0640 -0.1215
41868SOL    HW129009   8.385   4.464  10.272  0.6306 -0.5289 -3.5078
41868SOL    HW229010   8.490   4.420  10.373 -2.1068  1.7766  0.4763
41869SOL     OW29011   4.033   5.481   5.138  0.6191  0.6472  0.1800
41869SOL    HW129012   3.948   5.500   5.099  1.5882  0.0656 -2.3453
41869SOL    HW229013   4.092   5.544   5.098  1.6813 -0.0037  0.6935
41870SOL     OW29014   9.252   3.350   6.414 -0.1169 -0.1831  0.2120
41870SOL    HW129015   9.216   3.438   6.399  1.8954  0.6482  0.0929
41870SOL    HW229016   9.176   3.296   6.433 -1.5586  1.2786 -1.1971
41871SOL     OW29017   3.030   2.906   8.240 -0.4607  0.0539 -0.2917
41871SOL    HW129018   3.041   2.994   8.206  1.1560  0.2317  0.6459
41871SOL    HW229019   3.111   2.888   8.288 -1.1921 -1.5393  0.3988
41872SOL     OW29020  10.358   6.934   9.758  0.1851 -0.6219  0.3003
41872SOL    HW129021  10.392   6.955   9.845 -1.1215 -0.2421  0.7310
41872SOL    HW229022  10.436   6.915   9.705  0.8608 -2.8809  2.0653
41873SOL     OW29023   6.600   4.457   9.796  0.0272  0.2171  0.0293
41873SOL    HW129024   6.671   4.517   9.775  0.8018 -0.8598 -0.5045
41873SOL    HW229025   6.634   4.404   9.868  0.0045 -0.7080 -0.6331
41874SOL     OW29026   4.791   4.077   7.020 -0.1201  0.6167  0.0937
41874SOL    HW129027   4.818   4.140   6.953  1.6049 -0.0677  0.1161
41874SOL    HW229028   4.869   4.065   7.075 -0.5648 -1.1498  0.3706
41875SOL     OW29029   7.581   3.103   8.485 -0.4297 -0.5839 -0.2867
41875SOL    HW129030   7.649   3.087   8.420  0.5429 -2.0706  1.0765
41875SOL    HW229031   7.510   3.044   8.461 -1.5488  1.3910 -2.0671
41876SOL     OW29032  10.704   4.858   8.121  0.2821 -0.4081  0.8531
41876SOL    HW129033  10.631   4.801   8.094  0.1310  0.0249  0.3346
41876SOL    HW229034  10.708   4.848   8.216 -1.1236  0.3642  1.0131
41877SOL     OW29035   1.621   8.562   2.995  0.1539 -0.3221  0.5109
41877SOL    HW129036   1.576   8.626   3.049  0.1288  1.0987 -1.1498
41877SOL    HW229037   1.672   8.510   3.056 -0.3367  0.8699  1.9493
41878SOL     OW29038   9.994   1.704   6.458  0.2343  0.1565  0.0846
41878SOL    HW129039  10.038   1.731   6.539  0.4307 -1.6288  0.5837
41878SOL    HW229040   9.917   1.655   6.487  0.6129 -0.9862 -0.8112
41879SOL     OW29041   6.764   1.177   7.012  1.0477 -0.0322  0.0682
41879SOL    HW129042   6.706   1.233   6.959  0.6052  0.5741  1.1799
41879SOL    HW229043   6.717   1.166   7.095  1.9468 -0.6079  0.5043
41880SOL     OW29044  10.367   8.769  10.839 -0.3155 -0.1460 -0.1183
41880SOL    HW129045  10.297   8.813  10.790 -1.9748 -2.1997  0.3409
41880SOL    HW229046  10.321   8.709  10.897  1.7989 -0.4310  1.2948
41881SOL     OW29047   9.394   9.077   0.481  0.1978 -0.4405  0.4509
41881SOL    HW129048   9.403   9.083   0.576  0.9124 -1.3989  0.4508
41881SOL    HW229049   9.391   9.168   0.452  1.0559 -0.1225  1.3057
41882SOL     OW29050   8.387   3.383   9.869  0.2319 -0.0161  0.0646
41882SOL    HW129051   8.340   3.310   9.910  0.6580 -0.0424  0.5073
41882SOL    HW229052   8.323   3.423   9.811 -0.9171  1.1374  2.0769
41883SOL     OW29053   4.152   0.942   0.557  0.0194 -0.0205 -0.0931
41883SOL    HW129054   4.162   0.902   0.643 -0.1385 -0.3019 -0.2013
41883SOL    HW229055   4.064   0.981   0.558  0.3726  0.7645  0.1876
41884SOL     OW29056   5.243   3.174  10.156  0.0645  0.3223  0.4665
41884SOL    HW129057   5.293   3.201  10.079 -0.1819  0.8544  0.4903
41884SOL    HW229058   5.200   3.092  10.129  1.0918 -0.2378  0.5108
41885SOL     OW29059   6.346   0.170   2.960  0.0723  0.0136  0.2172
41885SOL    HW129060   6.293   0.165   3.040  1.2071  1.8514  1.1101
41885SOL    HW229061   6.356   0.078   2.933 -1.1852 -0.5633  1.6053
41886SOL     OW29062   4.006   9.820   1.493  0.0414  0.0996 -0.4868
41886SOL    HW129063   4.050   9.845   1.412  1.3270 -1.1791 -0.2150
41886SOL    HW229064   3.936   9.761   1.465  1.5846 -1.7589 -0.5730
41887SOL     OW29065   8.257   6.529   3.350 -1.0962  0.2526 -0.1222
41887SOL    HW129066   8.320   6.577   3.297 -1.0534  0.1558 -0.1596
41887SOL    HW229067   8.238   6.587   3.424 -0.4856  0.0227  0.2209
41888SOL     OW29068   5.302   3.118   3.559 -0.2697 -0.4316  0.5273
41888SOL    HW129069   5.268   3.036   3.525  1.8408 -0.9315 -0.4207
41888SOL    HW229070   5.388   3.097   3.594 -0.0446  1.2007  1.0207
41889SOL     OW29071   4.409   2.893   1.859 -0.3635 -0.0525  0.3132
41889SOL    HW129072   4.321   2.885   1.824 -0.2173 -0.6547  0.0640
41889SOL    HW229073   4.453   2.955   1.801  0.0478 -1.4776 -0.9421
41890SOL     OW29074   3.881   3.189   0.747 -0.7471 -0.7364  0.4481
41890SOL    HW129075   3.957   3.219   0.797 -0.3276  0.3631 -0.8243
41890SOL    HW229076   3.854   3.108   0.792  1.9160 -1.8325  0.2158
41891SOL     OW29077   4.700   4.447   3.657 -0.3974 -0.0765  0.3035
41891SOL    HW129078   4.663   4.530   3.627 -1.7205 -0.6371  0.3791
41891SOL    HW229079   4.749   4.414   3.582 -0.6952  0.2894 -0.0516
41892SOL     OW29080   7.305   1.324   4.631 -1.2403 -0.2605  0.2786
41892SOL    HW129081   7.344   1.239   4.609 -1.4485 -1.1508  3.1553
41892SOL    HW229082   7.212   1.313   4.613 -1.1133 -0.2923 -0.3634
41893SOL     OW29083   8.423   8.393   5.976 -0.4338 -0.2995  0.0887
41893SOL    HW129084   8.440   8.324   6.039  3.0982  0.7068  0.3570
41893SOL    HW229085   8.427   8.474   6.028 -1.5800  0.2976 -0.7269
41894SOL     OW29086   8.758  10.521   7.598  0.0036 -0.2200 -0.0367
41894SOL    HW129087   8.681  10.486   7.553 -0.5662 -1.3437  1.7710
41894SOL    HW229088   8.761  10.474   7.681  1.6557  1.0503  0.6565
41895SOL     OW29089  10.195   9.558   4.358  0.2946  0.1678 -0.3319
41895SOL    HW129090  10.144   9.585   4.281  0.2561 -2.0426 -1.1349
41895SOL    HW229091  10.181   9.463   4.363  0.4588  0.2585  2.3103
41896SOL     OW29092   5.632   6.047   1.265 -0.1270  0.1140 -0.0507
41896SOL    HW129093   5.703   5.985   1.280 -0.5510 -1.1431 -2.9885
41896SOL    HW229094   5.568   6.028   1.333  1.6057  0.1578  1.6133
41897SOL     OW29095   8.047   5.935   3.238 -0.1541  0.1825 -0.0859
41897SOL    HW129096   8.098   5.855   3.228 -0.4506 -0.0432  0.1990
41897SOL    HW229097   8.076   5.972   3.321  0.1692  0.5100 -0.3393
41898SOL     OW29098   4.774   5.008   1.908  0.3403 -0.0629  0.2920
41898SOL    HW129099   4.779   5.099   1.938  0.6560  0.0906 -0.2329
41898SOL    HW229100   4.787   5.012   1.813  0.3693 -0.6564  0.2649
41899SOL     OW29101   9.632   4.016   8.091 -0.5938  0.1004  0.1977
41899SOL    HW129102   9.603   3.933   8.054 -1.1326 -0.1013  1.0479
41899SOL    HW229103   9.594   4.082   8.033 -0.5860 -0.2377 -0.1924
41900SOL     OW29104   1.202   2.426   8.032  0.1840  0.2775  0.3230
41900SOL    HW129105   1.157   2.347   8.061 -2.3570  0.5435 -2.6685
41900SOL    HW229106   1.292   2.414   8.063 -0.3548 -3.2960  0.7950
41901SOL     OW29107   4.721   5.285   3.865  0.8986  0.1970 -0.1410
41901SOL    HW129108   4.639   5.325   3.894 -0.3104 -1.8328 -0.6604
41901SOL    HW229109   4.712   5.193   3.889  2.5420 -0.2683 -1.2536
41902SOL     OW29110  10.374  10.106  10.793  0.3052 -0.1664 -0.3739
41902SOL    HW129111  10.297  10.121  10.739  1.6425  1.3993 -1.8688
41902SOL    HW229112  10.391  10.012  10.785 -1.7010 -0.6241  0.3590
41903SOL     OW29113   5.244   2.013   5.781  0.5386  0.4520  0.3009
41903SOL    HW129114   5.222   2.035   5.690  0.8987 -2.6513 -0.6113
41903SOL    HW229115   5.327   2.058   5.798  0.6744  0.7316 -1.0544
41904SOL     OW29116  10.310   4.842   9.110  0.4268  0.2397 -0.1743
41904SOL    HW129117  10.402   4.842   9.081  0.0086 -1.2372 -1.6105
41904SOL    HW229118  10.304   4.764   9.167  0.2917  0.9033  0.7298
41905SOL     OW29119   9.760   9.307   7.444 -0.5051  0.1284 -0.4659
41905SOL    HW129120   9.834   9.303   7.384 -1.4558  1.0950 -1.7507
41905SOL    HW229121   9.750   9.217   7.476 -0.0075 -0.4194 -1.8140
41906SOL     OW29122   4.366   7.839   5.130  0.2674  0.3394  0.1470
41906SOL    HW129123   4.293   7.778   5.143  1.1733 -1.1152 -1.3674
41906SOL    HW229124   4.443   7.783   5.124  1.0597  1.5841 -1.8392
41907SOL     OW29125   1.608   6.459   1.713  0.6503  0.8097  0.3479
41907SOL    HW129126   1.645   6.375   1.687  0.8729  0.8674  0.4680
41907SOL    HW229127   1.640   6.521   1.647  0.3879  0.7776  0.1917
41908SOL     OW29128   4.928   8.475  10.423  0.4838  0.4702  0.6310
41908SOL    HW129129   4.892   8.509  10.504  0.7134  0.4376  0.7456
41908SOL    HW229130   4.942   8.382  10.440 -1.4835  0.0010 -0.1401
41909SOL     OW29131  10.792   3.854   6.073  0.5220  0.1230 -0.3279
41909SOL    HW129132  10.700   3.867   6.049  1.2455  1.0293 -2.7184
41909SOL    HW229133  10.827   3.943   6.077  1.2471 -0.2115  0.8041
41910SOL     OW29134   5.199   5.165   3.758  0.0820 -0.6422 -0.0810
41910SOL    HW129135   5.220   5.077   3.790  0.2680 -0.8279 -0.7082
41910SOL    HW229136   5.218   5.161   3.664  0.2763  0.1289 -0.0710
41911SOL     OW29137   2.467   6.326   3.687 -0.3076  0.4641 -0.0969
41911SOL    HW129138   2.506   6.276   3.615 -1.0743  0.1440 -0.2956
41911SOL    HW229139   2.533   6.325   3.756  0.4186  0.7378 -0.7777
41912SOL     OW29140   4.756   0.185   2.085  0.3860 -0.0869 -0.3945
41912SOL    HW129141   4.720   0.097   2.092  1.1483 -0.3480  0.3592
41912SOL    HW229142   4.772   0.212   2.175  1.6474  0.1942 -0.6927
41913SOL     OW29143   6.076   1.756   2.597  0.1471  0.5863 -0.3518
41913SOL    HW129144   6.006   1.807   2.557  0.1402  0.7057 -0.1864
41913SOL    HW229145   6.051   1.665   2.580 -0.3638  0.6144  0.2383
41914SOL     OW29146   5.999   4.858   8.328  0.1842 -0.5302  0.0127
41914SOL    HW129147   6.023   4.869   8.236 -0.1126 -2.6654 -0.3523
41914SOL    HW229148   5.922   4.913   8.340 -1.1116 -1.9498 -1.6049
41915SOL     OW29149   7.244   1.616   5.216  0.0606  0.5815 -0.7309
41915SOL    HW129150   7.230   1.597   5.309 -0.3176  0.7146 -0.7575
41915SOL    HW229151   7.217   1.535   5.171 -0.1084  0.6475 -0.7483
41916SOL     OW29152   1.560   6.657  10.364  0.1929 -0.4483 -0.0528
41916SOL    HW129153   1.574   6.588  10.430 -0.1991 -2.5197 -2.0552
41916SOL    HW229154   1.487   6.708  10.399  2.6537  1.1302  3.1200
41917SOL     OW29155   4.323   0.269  10.929 -0.1290 -0.0017  0.5220
41917SOL    HW129156   4.323   0.259  11.025  0.6378 -0.4450  0.4754
41917SOL    HW229157   4.397   0.326  10.911  0.9977 -1.5855  0.0239
41918SOL     OW29158   7.452   3.598   8.180 -0.5646  0.2625 -0.1754
41918SOL    HW129159   7.468   3.505   8.193 -0.7043  0.4597  1.4353
41918SOL    HW229160   7.449   3.635   8.268 -0.1484  1.8551 -0.8159
41919SOL     OW29161   2.181  10.576   7.228  0.2759  0.0588 -0.1028
41919SOL    HW129162   2.169  10.653   7.284  2.3081  0.4788 -0.2068
41919SOL    HW229163   2.143  10.602   7.144  0.1329  0.6377  0.1346
41920SOL     OW29164   5.584   1.967   6.282 -0.5633  0.5171 -0.4091
41920SOL    HW129165   5.590   1.872   6.272  0.9124  0.5548 -0.0718
41920SOL    HW229166   5.499   1.982   6.324 -0.3061 -0.7433  0.5827
41921SOL     OW29167   8.559   4.287   4.788 -0.5329 -0.1604  0.9517
41921SOL    HW129168   8.621   4.348   4.747 -1.0416 -0.4303 -0.2231
41921SOL    HW229169   8.483   4.288   4.731 -1.0429 -0.9595  1.6093
41922SOL     OW29170   3.654   2.992   0.041 -0.4190  0.2033 -0.4261
41922SOL    HW129171   3.721   3.056   0.064  1.5797 -1.9082 -0.2079
41922SOL    HW229172   3.702   2.921  -0.001 -2.2571 -2.1102  1.2221
41923SOL     OW29173   4.037   5.850   8.324 -1.0385  0.3419  0.0843
41923SOL    HW129174   4.000   5.767   8.294 -1.5033 -0.7566  3.4163
41923SOL    HW229175   3.962   5.899   8.358 -0.1371 -0.0049  2.7252
41924SOL     OW29176   9.582   1.470   5.840 -0.1797 -0.0384  0.1892
41924SOL    HW129177   9.555   1.459   5.749 -0.1641  1.2681  0.0157
41924SOL    HW229178   9.642   1.545   5.838  0.0831 -0.2141  1.2250
41925SOL     OW29179   7.616  10.588  10.743  0.5906 -0.1043  0.0575
41925SOL    HW129180   7.520  10.579  10.749  0.8075 -2.2256  0.8796
41925SOL    HW229181   7.634  10.591  10.649 -0.1325 -1.7992 -0.1569
41926SOL     OW29182   8.906   1.275   9.554 -0.1868  0.3240  0.4427
41926SOL    HW129183   8.881   1.188   9.587  0.3653 -0.8926 -2.2161
41926SOL    HW229184   8.827   1.327   9.563 -1.2594 -1.1494 -0.1568
41927SOL     OW29185   6.931   2.092   7.190 -0.4849  0.8703  0.3447
41927SOL    HW129186   6.909   2.166   7.246 -0.7684  0.9784  0.0972
41927SOL    HW229187   6.846   2.063   7.155 -0.3997  0.3119  0.5855
41928SOL     OW29188   7.526   6.558   9.836 -0.1856 -0.4942 -0.2325
41928SOL    HW129189   7.616   6.587   9.822 -0.5606  1.2322  0.7894
41928SOL    HW229190   7.481   6.579   9.754  0.2738 -1.1745 -0.6699
41929SOL     OW29191   5.504   1.426   6.536  0.1241  0.1334  0.1919
41929SOL    HW129192   5.507   1.470   6.621  1.3705  0.5405 -0.0617
41929SOL    HW229193   5.426   1.462   6.494 -0.5017 -0.0709  1.1623
41930SOL     OW29194   8.623   2.492   5.216 -0.1447  0.6266 -0.4580
41930SOL    HW129195   8.574   2.515   5.295 -0.5388 -3.0999  0.4491
41930SOL    HW229196   8.558   2.496   5.145 -0.1220  2.4748 -0.4167
41931SOL     OW29197   7.605   7.345   0.772 -0.2180  0.5804  0.4947
41931SOL    HW129198   7.633   7.380   0.857 -0.2672  0.3728  0.5957
41931SOL    HW229199   7.628   7.414   0.709  0.7447  0.3144  0.5456
41932SOL     OW29200   2.764   5.345   5.604 -0.4779  0.2255 -0.2735
41932SOL    HW129201   2.794   5.345   5.513  1.0109 -0.2033  0.1918
41932SOL    HW229202   2.712   5.265   5.612  1.7079 -1.2425 -0.0641
41933SOL     OW29203   1.990   9.917   4.526 -0.2177 -0.5275 -0.4337
41933SOL    HW129204   1.895   9.915   4.537 -0.2726 -0.1996 -0.8367
41933SOL    HW229205   2.007   9.999   4.480  0.2377 -0.7124 -0.5973
41934SOL     OW29206   2.286   0.864  10.241  0.0995  0.0096  0.1632
41934SOL    HW129207   2.239   0.945  10.258  0.5665  0.0828  1.1917
41934SOL    HW229208   2.266   0.809  10.317  0.9607 -0.2783  0.1938
41935SOL     OW29209  10.724   1.221   1.163 -0.1775  1.0182  0.2557
41935SOL    HW129210  10.673   1.200   1.241 -0.1070  0.2707  0.1055
41935SOL    HW229211  10.731   1.316   1.164  0.7160  0.9432  1.7212
41936SOL     OW29212   3.247   8.658   7.384  0.1459  0.0127 -0.6947
41936SOL    HW129213   3.155   8.640   7.362  0.5245 -1.1550 -1.3315
41936SOL    HW229214   3.284   8.693   7.303  0.4814 -0.3281 -0.6885
41937SOL     OW29215   9.534   9.350   4.822  0.3299 -0.2305 -0.1045
41937SOL    HW129216   9.624   9.366   4.794  0.2388  0.1722 -0.1642
41937SOL    HW229217   9.538   9.352   4.918  0.0663  1.5527 -0.1194
41938SOL     OW29218   4.588   7.401   1.370  0.0980  0.1154  0.1474
41938SOL    HW129219   4.533   7.431   1.298  2.7066 -0.9232 -2.3292
41938SOL    HW229220   4.565   7.309   1.382  1.8217 -0.5567 -1.4628
41939SOL     OW29221   5.709   2.995   0.643  0.3503  0.0480  0.0459
41939SOL    HW129222   5.737   3.085   0.659  2.1270 -0.6586  1.1455
41939SOL    HW229223   5.689   2.960   0.729  1.0502 -1.0271 -0.2112
41940SOL     OW29224   3.884   2.178   9.724 -0.2418  0.6323 -0.3041
41940SOL    HW129225   3.871   2.095   9.769  0.4224  1.1040  0.7729
41940SOL    HW229226   3.966   2.168   9.675 -0.0907  0.7045 -0.0648
41941SOL     OW29227   7.958   0.406   4.890 -0.5318  0.6898 -0.5888
41941SOL    HW129228   8.004   0.431   4.970  0.3978  0.2324 -0.9731
41941SOL    HW229229   8.027   0.391   4.826 -1.2009 -0.3010 -1.0945
41942SOL     OW29230   0.825   1.599   6.117 -0.4200 -0.1684  0.5376
41942SOL    HW129231   0.897   1.599   6.054 -1.6078  0.0188 -0.8468
41942SOL    HW229232   0.866   1.621   6.200  1.1447 -0.2240 -0.1989
41943SOL     OW29233   2.295   7.832  10.234  0.3101  0.1273  0.0716
41943SOL    HW129234   2.273   7.846  10.327 -1.1500 -1.1211 -0.0693
41943SOL    HW229235   2.321   7.740  10.229 -2.9326 -0.7924 -1.3351
41944SOL     OW29236   5.067   5.781  10.794 -0.2239 -0.3878  0.4393
41944SOL    HW129237   5.050   5.840  10.721 -1.7164 -0.0916  1.0120
41944SOL    HW229238   4.984   5.778  10.843 -0.1242 -2.8354  0.5046
41945SOL     OW29239  10.086   4.337  10.612  0.1275  0.1047  0.4944
41945SOL    HW129240  10.182   4.332  10.612  0.1285  0.1401  0.2613
41945SOL    HW229241  10.058   4.256  10.655  0.1991 -0.9834 -1.4334
41946SOL     OW29242   7.003   2.713   7.425 -0.2858 -0.1479 -0.4728
41946SOL    HW129243   7.072   2.750   7.480 -1.1837  2.0063 -0.7338
41946SOL    HW229244   7.016   2.619   7.430  1.5165  0.1520  0.9844
41947SOL     OW29245   0.862   9.192   8.766 -0.5776 -0.0100 -0.0632
41947SOL    HW129246   0.825   9.123   8.820  2.9583 -2.1760 -0.2373
41947SOL    HW229247   0.883   9.263   8.827 -1.7301 -0.1708  0.5212
41948SOL     OW29248   3.635   7.228   2.045  0.4987  0.7139  0.6062
41948SOL    HW129249   3.670   7.176   2.117  1.8688 -1.9488 -1.8791
41948SOL    HW229250   3.566   7.173   2.007 -0.2741  2.1165 -0.0432
41949SOL     OW29251   1.073   9.870   3.100  0.2158  0.1560  0.0538
41949SOL    HW129252   1.027   9.803   3.048  1.3067  0.0568 -0.8264
41949SOL    HW229253   1.047   9.852   3.190 -1.8843  0.4496 -0.4553
41950SOL     OW29254   1.010   5.080   1.489  0.7865 -0.2253 -0.0413
41950SOL    HW129255   0.981   4.990   1.476  1.4662 -0.5033  0.3677
41950SOL    HW229256   1.105   5.073   1.501  0.9897  0.6467 -1.0793
41951SOL     OW29257   1.411   8.600   1.264 -0.1518 -0.0369 -0.3542
41951SOL    HW129258   1.379   8.624   1.351  0.1001  1.0176 -0.5354
41951SOL    HW229259   1.462   8.520   1.278 -1.6008 -0.8876  0.1647
41952SOL     OW29260   8.838   7.434  10.542 -0.3988 -0.0920 -0.1989
41952SOL    HW129261   8.794   7.350  10.535 -1.6154  0.4975  0.2048
41952SOL    HW229262   8.766   7.498  10.544  0.5200  1.0349 -1.7192
41953SOL     OW29263   7.888   7.790   5.408 -0.1793  0.6208  0.1693
41953SOL    HW129264   7.867   7.704   5.444 -2.3561  0.3578 -1.6538
41953SOL    HW229265   7.982   7.786   5.389 -0.3125 -1.4518 -0.1804
41954SOL     OW29266   2.978   5.284   7.101 -0.3955 -0.3451 -0.1659
41954SOL    HW129267   3.044   5.297   7.034 -1.4616 -1.6435 -1.4839
41954SOL    HW229268   3.017   5.322   7.180  1.2145  0.4209 -1.2968
41955SOL     OW29269   1.713   8.583  10.359  0.4661 -0.3798  0.3529
41955SOL    HW129270   1.731   8.532  10.279  1.5539  2.1446 -1.0552
41955SOL    HW229271   1.798   8.618  10.384 -0.1617  0.1593  1.7354
41956SOL     OW29272   3.121   0.492   4.404 -0.2538 -0.2971  0.1681
41956SOL    HW129273   3.075   0.573   4.381  3.1249  1.9479  0.9531
41956SOL    HW229274   3.139   0.450   4.320 -0.6338  0.5556 -0.3542
41957SOL     OW29275   3.585   2.543   7.643 -0.3350 -0.4622 -0.2453
41957SOL    HW129276   3.541   2.578   7.565 -0.3968  1.3823  0.6093
41957SOL    HW229277   3.607   2.453   7.619  3.3823  1.2971 -3.9347
41958SOL     OW29278  10.450  10.900   4.394 -0.0689  0.3577  0.0316
41958SOL    HW129279  10.370  10.898   4.446 -0.0527  1.4377  0.1208
41958SOL    HW229280  10.518  10.866   4.453 -0.4674 -0.5878 -0.0562
41959SOL     OW29281   0.699   4.356   3.239 -0.6521  0.3919 -0.3765
41959SOL    HW129282   0.611   4.379   3.267 -0.7988 -1.2692  0.5228
41959SOL    HW229283   0.693   4.349   3.143 -1.3205  0.9459 -0.3765
41960SOL     OW29284   5.335   1.704   3.154  0.2611 -0.1046  0.1388
41960SOL    HW129285   5.415   1.725   3.106  1.5742  1.8932  3.0714
41960SOL    HW229286   5.267   1.756   3.110  1.4410  1.7182  0.4054
41961SOL     OW29287   4.981   6.035   8.507  0.8923  0.4825  0.1437
41961SOL    HW129288   4.944   6.122   8.512  0.5453  0.2979  0.9026
41961SOL    HW229289   5.075   6.049   8.496  0.7337  0.9495 -0.5696
41962SOL     OW29290   3.062   6.920   1.033  0.7464 -0.1360 -0.2273
41962SOL    HW129291   2.983   6.880   1.070  0.9688 -1.1903 -0.8785
41962SOL    HW229292   3.128   6.851   1.035  0.7605 -0.2271 -2.5861
41963SOL     OW29293   4.331   6.694   5.274  0.0515  0.1397  0.4234
41963SOL    HW129294   4.357   6.609   5.238 -0.5757  0.3109 -0.4469
41963SOL    HW229295   4.363   6.692   5.364 -0.1846 -1.1269  0.4936
41964SOL     OW29296   8.945   5.633   6.909  0.0126  0.8947 -0.3991
41964SOL    HW129297   8.920   5.724   6.893  3.2623  2.0990  0.9265
41964SOL    HW229298   8.990   5.607   6.828 -2.2520 -0.0942 -1.3845
41965SOL     OW29299   4.193   3.084   6.673 -0.0720  0.3572 -0.1027
41965SOL    HW129300   4.193   3.121   6.585  1.5473  0.0461 -0.2479
41965SOL    HW229301   4.134   3.008   6.667  0.2333  0.1850 -0.9709
41966SOL     OW29302   3.027   4.067   7.607  0.4245 -0.5572  0.1021
41966SOL    HW129303   3.036   4.043   7.699  1.5157 -0.8523 -0.0616
41966SOL    HW229304   3.056   4.158   7.602 -0.1454 -0.3735  0.1345
41967SOL     OW29305   7.592   9.649   3.682  0.0962  0.2741 -0.2272
41967SOL    HW129306   7.621   9.569   3.725 -1.0776  0.0162  0.0839
41967SOL    HW229307   7.673   9.695   3.661  0.7669 -0.8855 -0.2059
41968SOL     OW29308   5.269   4.132   3.264  0.1473 -0.4175  0.2572
41968SOL    HW129309   5.304   4.152   3.177  0.6781  1.1334  0.8042
41968SOL    HW229310   5.296   4.042   3.282 -0.2105 -0.8469 -1.2977
41969SOL     OW29311   3.403   9.751   0.803  0.1986 -0.1554  0.2296
41969SOL    HW129312   3.375   9.842   0.795  2.0782  0.4772  0.6201
41969SOL    HW229313   3.369   9.709   0.724 -1.4279  0.6600  0.4596
41970SOL     OW29314   0.947   7.839  10.162  0.3313 -0.4630 -0.6362
41970SOL    HW129315   0.952   7.884  10.078  0.7052  1.1125  0.2076
41970SOL    HW229316   0.884   7.889  10.213  3.0116  0.9807  1.3908
41971SOL     OW29317   5.870   6.686   6.136  0.0749 -0.2517 -0.1751
41971SOL    HW129318   5.860   6.727   6.050  1.1724 -2.6334 -1.4742
41971SOL    HW229319   5.936   6.740   6.181  0.8182 -0.0238 -1.5107
41972SOL     OW29320   7.212   2.358   5.757 -0.6291 -0.5626 -0.0529
41972SOL    HW129321   7.263   2.276   5.755 -1.8175 -1.3159 -0.2018
41972SOL    HW229322   7.242   2.406   5.680  1.7012  0.1624  1.2605
41973SOL     OW29323  10.367   3.031   7.613 -0.3618  0.4732 -0.1431
41973SOL    HW129324  10.276   3.013   7.593 -0.3964  0.2559  0.2134
41973SOL    HW229325  10.393   3.097   7.548 -0.9640  1.0336  0.1816
41974SOL     OW29326   6.311   1.646   3.065 -0.4212 -0.0151  0.5331
41974SOL    HW129327   6.256   1.585   3.114 -0.9011 -0.7338 -0.8919
41974SOL    HW229328   6.273   1.649   2.978  1.2212  0.2239 -0.2006
41975SOL     OW29329   5.203   2.611   0.929  0.0500 -0.0051  0.6231
41975SOL    HW129330   5.126   2.587   0.982 -0.4251  0.6939  0.2614
41975SOL    HW229331   5.192   2.704   0.912  0.5088 -0.0987 -0.2097
41976SOL     OW29332   3.110   9.792   2.495  0.1552 -0.0198 -0.6476
41976SOL    HW129333   3.195   9.820   2.528 -0.0361 -0.7675  0.4735
41976SOL    HW229334   3.106   9.829   2.406  1.8239 -0.3614 -0.8780
41977SOL     OW29335   7.890   4.192   2.971  0.3565 -0.2730  0.2830
41977SOL    HW129336   7.916   4.285   2.977  1.8434 -0.7032  0.7626
41977SOL    HW229337   7.894   4.160   3.061  0.1158 -0.8658  0.0802
41978SOL     OW29338   7.360   7.183   1.780 -0.0827 -0.5317 -0.2531
41978SOL    HW129339   7.436   7.165   1.836  0.4313 -0.7109 -1.0051
41978SOL    HW229340   7.318   7.259   1.820  1.0637  0.1859 -0.4221
41979SOL     OW29341   3.219   6.516  10.092  0.0583 -0.2693 -0.3478
41979SOL    HW129342   3.155   6.587  10.099 -0.6691 -0.9255 -0.3148
41979SOL    HW229343   3.210   6.484  10.002  1.4909  0.7071 -0.8608
41980SOL     OW29344   2.260   7.819   9.332  0.4138 -0.2577 -0.7190
41980SOL    HW129345   2.343   7.784   9.365 -0.5964 -2.6342 -0.5748
41980SOL    HW229346   2.200   7.809   9.406 -0.2392  0.5516 -1.1401
41981SOL     OW29347  10.355   1.731   4.944 -0.0558 -0.2578 -0.3946
41981SOL    HW129348  10.437   1.767   4.976  1.2478 -2.1332 -1.4962
41981SOL    HW229349  10.316   1.801   4.892  1.7803  0.0087 -1.4326
41982SOL     OW29350   9.894   6.075  10.110  0.4409  0.0312  0.6173
41982SOL    HW129351   9.815   6.073  10.056  0.4782  1.5196  0.4810
41982SOL    HW229352   9.919   5.983  10.120 -1.3876 -0.4653  0.7837
41983SOL     OW29353   1.365   1.765   6.118  0.4503  0.3634  0.2960
41983SOL    HW129354   1.418   1.797   6.191  0.8341 -1.7940  0.9823
41983SOL    HW229355   1.383   1.671   6.114 -0.4592  0.2492 -1.8455
41984SOL     OW29356   2.249   3.315   1.919  0.3487  0.2737 -0.0419
41984SOL    HW129357   2.188   3.356   1.980  0.3724  1.7859 -1.0088
41984SOL    HW229358   2.194   3.274   1.853  0.3393 -0.8259  0.6241
41985SOL     OW29359   0.006   0.323   9.025 -0.1055  0.1348 -0.1735
41985SOL    HW129360   0.018   0.341   9.118 -1.6875 -1.1300  0.2851
41985SOL    HW229361   0.068   0.253   9.006  0.0771  0.2598 -0.0411
41986SOL     OW29362   5.398   4.044   7.633  0.0887  0.5700 -0.0562
41986SOL    HW129363   5.370   3.964   7.589 -2.4420  1.8057 -0.7302
41986SOL    HW229364   5.469   4.015   7.691  0.6083 -1.7932 -1.7824
41987SOL     OW29365  10.375   3.556   3.298  0.0154  0.5324 -0.6500
41987SOL    HW129366  10.320   3.481   3.321 -0.8024  1.5961  0.9680
41987SOL    HW229367  10.419   3.530   3.217  0.2482 -1.9429  0.2367
41988SOL     OW29368  10.494  10.323   3.772  0.2176  0.1666 -0.3510
41988SOL    HW129369  10.446  10.405   3.760 -0.2421 -0.1302 -0.5213
41988SOL    HW229370  10.441  10.257   3.729 -0.5458 -0.6181  1.7469
41989SOL     OW29371  10.528   7.559   6.531  0.5267  0.1132  0.3778
41989SOL    HW129372  10.434   7.575   6.521  0.5619  0.0978  0.0074
41989SOL    HW229373  10.570   7.636   6.492  0.6293  1.4603  3.0251
41990SOL     OW29374   2.618   0.053  10.254 -0.1346  0.3562 -0.1835
41990SOL    HW129375   2.628  -0.015  10.320 -0.0823 -0.9492 -1.5029
41990SOL    HW229376   2.707   0.084  10.237 -0.1221  0.5152  0.1820
41991SOL     OW29377   7.366   3.337  10.012 -0.3452  0.0713  0.2749
41991SOL    HW129378   7.413   3.253  10.015  1.5872  0.9906 -2.5951
41991SOL    HW229379   7.274   3.312  10.015  0.2006 -2.1730 -0.4113
41992SOL     OW29380   8.517   6.098   5.404 -0.4256 -0.6405 -0.0382
41992SOL    HW129381   8.428   6.066   5.387 -0.6872  0.0092  0.0748
41992SOL    HW229382   8.573   6.045   5.347 -1.1145  0.3772 -1.6860
41993SOL     OW29383   4.103  10.238   2.787 -0.1997 -0.1300  0.1096
41993SOL    HW129384   4.121  10.312   2.729 -1.2078 -0.5687 -0.7795
41993SOL    HW229385   4.044  10.182   2.737  1.2295 -1.9765  0.4352
41994SOL     OW29386   8.009   2.407   5.238 -0.2596  0.3602 -0.1302
41994SOL    HW129387   8.036   2.461   5.164 -1.2218 -0.1916 -0.8876
41994SOL    HW229388   7.930   2.363   5.209 -0.9245  0.4974  1.3888
41995SOL     OW29389   3.871   8.716   2.414 -0.4163 -0.3796 -0.1231
41995SOL    HW129390   3.943   8.758   2.367 -0.7306 -2.8856 -3.0538
41995SOL    HW229391   3.799   8.778   2.408 -0.1955 -0.2867 -2.3510
41996SOL     OW29392   0.079   0.544   5.236 -0.2247 -0.0364 -0.2332
41996SOL    HW129393   0.145   0.563   5.302 -0.0696  1.7342 -0.8948
41996SOL    HW229394   0.000   0.590   5.266 -0.4695 -0.1350 -0.7108
41997SOL     OW29395   6.154   8.479   1.125 -0.3434  0.2261 -0.4633
41997SOL    HW129396   6.137   8.470   1.219  1.2860 -1.1537 -0.2724
41997SOL    HW229397   6.244   8.513   1.121  0.0455 -0.9175 -1.5374
41998SOL     OW29398   4.294  10.821   8.951 -0.2328  0.4217 -0.2011
41998SOL    HW129399   4.213  10.796   8.908 -1.0269 -0.7997  1.9578
41998SOL    HW229400   4.267  10.871   9.028  1.0235 -0.6773  0.9823
41999SOL     OW29401   1.560   4.335   8.406 -0.0913 -0.5764 -0.1757
41999SOL    HW129402   1.610   4.394   8.461  0.2473 -0.2246 -0.8507
41999SOL    HW229403   1.626   4.290   8.353 -0.5117  0.2823 -1.4560
42000SOL     OW29404   2.834   1.410   5.448 -0.0255 -0.5174  0.6035
42000SOL    HW129405   2.852   1.367   5.365 -3.4575 -0.1673 -0.3847
42000SOL    HW229406   2.741   1.433   5.444  0.0754  0.7717  3.9540
42001SOL     OW29407  10.311   5.308   6.323 -0.3859  0.0489 -0.0499
42001SOL    HW129408  10.248   5.370   6.285  0.1111  0.8002  0.3213
42001SOL    HW229409  10.261   5.259   6.388 -0.2237  1.8682  1.5312
42002SOL     OW29410   3.952   0.380  10.503 -0.6471 -0.5858  0.7248
42002SOL    HW129411   4.010   0.304  10.498  0.2592  0.0232  1.5664
42002SOL    HW229412   3.871   0.347  10.542 -1.7648 -1.9316 -2.6003
42003SOL     OW29413   4.726   9.441   1.899  0.0878 -0.0144 -0.7336
42003SOL    HW129414   4.778   9.461   1.976  1.2151 -2.2962 -0.8528
42003SOL    HW229415   4.710   9.526   1.858  2.5210  0.8750  0.0673
42004SOL     OW29416  10.753   7.336   8.476 -0.8359  0.1983 -0.0332
42004SOL    HW129417  10.660   7.340   8.457 -0.5323  2.6247 -1.2595
42004SOL    HW229418  10.795   7.340   8.390  0.4007 -0.6578  0.5139
42005SOL     OW29419   8.319   8.619   5.280  0.2175 -0.0808  0.1837
42005SOL    HW129420   8.401   8.584   5.315  0.6506  1.0257  0.2875
42005SOL    HW229421   8.346   8.690   5.222 -0.7260  1.0571  1.1238
42006SOL     OW29422   6.236   2.144   7.351 -0.1357 -0.3779 -0.3739
42006SOL    HW129423   6.199   2.227   7.322  1.3935  0.1996 -0.7228
42006SOL    HW229424   6.259   2.098   7.270 -0.9249 -1.1283 -0.1816
42007SOL     OW29425   5.728   3.768   1.289  0.1439 -0.0907 -0.5056
42007SOL    HW129426   5.814   3.806   1.306  0.4571 -0.4039 -1.3439
42007SOL    HW229427   5.708   3.793   1.198 -1.5190  1.6453  0.3047
42008SOL     OW29428   9.541   3.012   2.500 -0.4587  0.1073 -0.0950
42008SOL    HW129429   9.531   3.068   2.577 -0.7099  0.0995 -0.1223
42008SOL    HW229430   9.510   3.065   2.427 -1.1146 -0.2297 -0.0600
42009SOL     OW29431   3.398   1.838   1.829  0.1050 -0.8293  0.1225
42009SOL    HW129432   3.364   1.837   1.740 -0.8827  0.7305  0.4691
42009SOL    HW229433   3.403   1.745   1.854  0.5591 -1.2836 -1.5971
42010SOL     OW29434   4.589   4.931   5.239 -0.2271 -0.1307  0.0830
42010SOL    HW129435   4.546   4.847   5.229 -1.6187  0.9490 -3.8711
42010SOL    HW229436   4.524   4.987   5.281  0.3261 -0.7169  1.7460
42011SOL     OW29437   9.529   8.649   5.842 -0.1696  0.8886 -0.0881
42011SOL    HW129438   9.477   8.583   5.795 -0.1378  1.1661 -0.5204
42011SOL    HW229439   9.492   8.732   5.813 -1.8253  1.0302  2.3310
42012SOL     OW29440   8.777   2.729   9.878 -0.7545 -0.0125  0.0432
42012SOL    HW129441   8.710   2.796   9.869  0.7396  1.1864 -3.1395
42012SOL    HW229442   8.839   2.764   9.942 -1.4756  0.3361  0.5455
42013SOL     OW29443   4.626   4.627   2.075  0.6732  0.1995 -0.3427
42013SOL    HW129444   4.555   4.563   2.071  0.8730 -0.0181 -0.3943
42013SOL    HW229445   4.685   4.594   2.142 -0.7765  1.9371  1.8479
42014SOL     OW29446   6.835   0.828   4.329 -0.3396 -1.0266  0.1893
42014SOL    HW129447   6.863   0.756   4.387  1.7258 -1.6733 -1.5161
42014SOL    HW229448   6.861   0.907   4.376  0.1337 -1.4872  0.7226
42015SOL     OW29449   8.275   8.281  10.643 -0.4308  0.1893 -0.2365
42015SOL    HW129450   8.337   8.223  10.687  1.1296  1.4063 -0.7647
42015SOL    HW229451   8.249   8.232  10.565 -1.0041 -0.7918  0.5550
42016SOL     OW29452   0.557  10.058   2.716  0.0557 -0.1587  0.7709
42016SOL    HW129453   0.580  10.135   2.768  0.3397 -0.3108  0.8666
42016SOL    HW229454   0.588   9.984   2.768  1.6210 -0.2538 -0.2793
42017SOL     OW29455   6.344   9.895   3.642 -0.0275 -0.1867 -0.3372
42017SOL    HW129456   6.396   9.843   3.703  0.3456  0.7148  0.1337
42017SOL    HW229457   6.409   9.946   3.593 -0.4042  0.1919 -0.4514
42018SOL     OW29458   4.637   2.717   5.627 -0.1294 -0.2632 -0.0904
42018SOL    HW129459   4.556   2.736   5.675  0.3737 -0.3162  0.8072
42018SOL    HW229460   4.680   2.802   5.617  1.0068 -0.5590  1.8734
42019SOL     OW29461  10.636   7.996   5.202  0.5215 -0.0625 -0.1260
42019SOL    HW129462  10.657   7.981   5.110 -0.8359  0.6984 -0.5835
42019SOL    HW229463  10.649   7.911   5.244 -1.2557 -1.0605 -1.5039
42020SOL     OW29464   6.139   8.956   6.409 -0.5124  0.2527  0.6256
42020SOL    HW129465   6.231   8.980   6.393 -0.6231  1.6091  1.8924
42020SOL    HW229466   6.098   9.038   6.439 -2.4127 -0.0604 -1.0530
42021SOL     OW29467   2.015   3.788   7.387  0.4028 -0.1655  0.0955
42021SOL    HW129468   2.022   3.751   7.299 -0.1763  1.1414 -0.5163
42021SOL    HW229469   2.105   3.802   7.415  0.5748  0.0976 -0.5913
42022SOL     OW29470   2.272   8.524   2.520 -0.0390  0.2193 -0.4415
42022SOL    HW129471   2.362   8.531   2.552  0.2433  1.4632 -1.4867
42022SOL    HW229472   2.220   8.574   2.584  0.2975  1.2581 -0.9745
42023SOL     OW29473   8.868   7.025   5.663  0.4230 -0.2938 -0.0637
42023SOL    HW129474   8.846   7.028   5.570 -0.8284  1.1066  0.2646
42023SOL    HW229475   8.949   7.076   5.670  0.8173 -0.8536 -0.4497
42024SOL     OW29476   6.232   0.989   1.887  0.3743  0.1590 -0.4811
42024SOL    HW129477   6.231   0.977   1.982 -0.5678 -0.9485 -0.6151
42024SOL    HW229478   6.219   1.083   1.875  1.3382  0.4261  0.4979
42025SOL     OW29479   5.194   5.668   6.515  0.1208  0.2244 -0.0684
42025SOL    HW129480   5.216   5.585   6.558 -0.2732  0.7475  1.1716
42025SOL    HW229481   5.154   5.720   6.584  1.7150  2.0039 -0.4349
42026SOL     OW29482   5.707   8.207   1.837  0.3039  0.3282  0.5198
42026SOL    HW129483   5.669   8.128   1.875  0.1972  0.0480 -0.1655
42026SOL    HW229484   5.771   8.174   1.773 -0.5879  0.7827 -0.6302
42027SOL     OW29485   4.108   0.782   6.596 -0.1183  0.4616 -0.1063
42027SOL    HW129486   4.117   0.764   6.503 -0.2954 -0.5676  0.0754
42027SOL    HW229487   4.100   0.877   6.601 -0.3756  0.5017 -1.1604
42028SOL     OW29488   9.292   7.626   5.390 -0.4012 -0.3879  0.4530
42028SOL    HW129489   9.351   7.625   5.465  1.0205  1.1548 -0.6165
42028SOL    HW229490   9.305   7.542   5.347 -1.2288 -1.2795  1.9299
42029SOL     OW29491   9.208   1.190   1.832  0.0373  0.3002  0.0225
42029SOL    HW129492   9.241   1.101   1.848  1.0152  0.3745 -1.5249
42029SOL    HW229493   9.173   1.187   1.743 -1.8536  0.9141  0.7204
42030SOL     OW29494   5.176   2.924   3.868  0.1971 -0.2652 -0.9668
42030SOL    HW129495   5.106   2.860   3.853  1.4074 -1.7252 -0.4762
42030SOL    HW229496   5.251   2.889   3.820  0.8300  0.8577 -0.8058
42031SOL     OW29497   4.331   0.837   0.832 -0.2809 -0.3345  0.3369
42031SOL    HW129498   4.357   0.759   0.881  0.1685 -0.9235 -0.8161
42031SOL    HW229499   4.359   0.910   0.887  1.7132 -0.9715  0.2203
42032SOL     OW29500   9.413   8.124   7.646 -0.5977  0.1805  0.4334
42032SOL    HW129501   9.405   8.192   7.580 -0.6467 -0.5888 -0.3709
42032SOL    HW229502   9.456   8.166   7.720  1.9155  0.4224 -1.0732
42033SOL     OW29503   6.213   0.478   7.741 -0.3982 -0.0219 -0.2392
42033SOL    HW129504   6.198   0.514   7.828  0.3427  0.0890 -0.1494
42033SOL    HW229505   6.286   0.530   7.706 -1.3815  0.6491 -1.3478
42034SOL     OW29506  10.420   3.682   2.606 -0.1577  0.2871 -0.2046
42034SOL    HW129507  10.480   3.608   2.609 -1.2138 -0.6018 -0.8615
42034SOL    HW229508  10.334   3.644   2.621 -1.1074  0.9098 -3.6378
42035SOL     OW29509  10.569   6.453   5.706 -0.1635  0.6508 -0.5264
42035SOL    HW129510  10.580   6.358   5.700  0.9541  0.8067 -1.0605
42035SOL    HW229511  10.560   6.481   5.615 -0.6902  1.0373 -0.3580
42036SOL     OW29512   3.835   3.947   8.771 -0.4234 -0.8085  0.0193
42036SOL    HW129513   3.894   4.022   8.777 -1.1619 -0.0923 -1.4218
42036SOL    HW229514   3.892   3.873   8.747  0.3620 -0.8199  1.8085
42037SOL     OW29515   2.954   6.114   7.792  0.4920  0.1609 -0.0671
42037SOL    HW129516   2.903   6.093   7.715 -0.0427  0.9433  0.0613
42037SOL    HW229517   2.889   6.132   7.860  0.8766  2.2909 -0.1990
42038SOL     OW29518   0.005  10.411   3.352 -0.1187 -0.1192 -0.0581
42038SOL    HW129519  -0.024  10.470   3.421 -1.9145 -1.0031 -0.0142
42038SOL    HW229520  -0.058  10.338   3.355  0.4638 -0.7266 -1.8437
42039SOL     OW29521   3.672   2.653   3.850 -0.1845  0.2362 -0.5651
42039SOL    HW129522   3.656   2.576   3.795  0.5706 -0.4916  0.2157
42039SOL    HW229523   3.760   2.641   3.884 -0.9707  0.1885  1.5431
42040SOL     OW29524   6.821   8.416  10.509 -0.3862  0.0670  0.0151
42040SOL    HW129525   6.810   8.474  10.433 -0.6158 -2.6731 -2.1272
42040SOL    HW229526   6.765   8.454  10.576  0.5756  3.1305 -0.8138
42041SOL     OW29527   8.966   4.794   5.324 -0.6207 -0.5659  0.2680
42041SOL    HW129528   8.964   4.818   5.416 -0.5589  0.1089  0.0965
42041SOL    HW229529   8.884   4.746   5.309 -0.9696 -0.0448  0.5043
42042SOL     OW29530   0.986   3.839   6.644 -0.0975 -0.5235 -0.1310
42042SOL    HW129531   0.987   3.810   6.553  0.1389 -0.4719 -0.1447
42042SOL    HW229532   0.991   3.935   6.638 -1.5390 -0.4382 -0.1071
42043SOL     OW29533   3.559  10.359   2.269  0.8848  0.2634 -0.1120
42043SOL    HW129534   3.626  10.371   2.336 -0.0590 -2.7909  1.4463
42043SOL    HW229535   3.483  10.407   2.303  0.3359 -1.4685  1.1407
42044SOL     OW29536   6.944   0.619   6.876 -0.3425  0.0143 -0.2591
42044SOL    HW129537   6.992   0.537   6.882 -1.2227 -0.5669 -1.0363
42044SOL    HW229538   6.888   0.609   6.799 -0.4282  1.3583 -0.3870
42045SOL     OW29539   3.360   4.715   8.951 -0.4208 -0.0105 -0.1662
42045SOL    HW129540   3.361   4.642   9.013  1.2748 -0.2483 -0.4461
42045SOL    HW229541   3.364   4.793   9.006  2.6772 -0.2493  0.0372
42046SOL     OW29542   4.407  10.531   0.823  0.9429 -0.3875 -0.5745
42046SOL    HW129543   4.362  10.579   0.754  0.9807 -1.2583 -1.2179
42046SOL    HW229544   4.461  10.596   0.867  1.1663  0.1126 -1.5770
42047SOL     OW29545   0.775   6.747   7.542  0.4748 -0.3844  0.2761
42047SOL    HW129546   0.810   6.832   7.569  0.9408  0.0022 -1.4551
42047SOL    HW229547   0.823   6.683   7.595  3.5346  0.1630 -1.7171
42048SOL     OW29548   1.818   8.239  10.580 -0.0062 -0.1652  0.3124
42048SOL    HW129549   1.904   8.256  10.541 -0.3927  0.1496 -0.4181
42048SOL    HW229550   1.832   8.248  10.674 -0.2096  4.6408  0.0217
42049SOL     OW29551   8.845   6.262  10.380  0.5189  0.4934  0.6350
42049SOL    HW129552   8.912   6.272  10.312  0.9734  0.1850  1.0345
42049SOL    HW229553   8.829   6.351  10.411  1.6274  0.4445  1.3799
42050SOL     OW29554   8.966   2.077   0.191  0.3005  0.0304  0.1267
42050SOL    HW129555   8.911   2.026   0.132 -1.1342  1.2383  0.3761
42050SOL    HW229556   8.924   2.163   0.195  2.3289  1.0732  0.1574
42051SOL     OW29557   4.893   0.841   2.160 -0.0997 -0.0956  0.2883
42051SOL    HW129558   4.924   0.825   2.071 -1.3106  1.2076 -0.3850
42051SOL    HW229559   4.952   0.789   2.215 -0.0092 -1.7902 -1.3335
42052SOL     OW29560   0.414   7.770   0.922 -0.2845  0.0985  0.6596
42052SOL    HW129561   0.480   7.743   0.858  0.7032  0.2607  1.5996
42052SOL    HW229562   0.361   7.692   0.937 -0.7840  0.1636 -0.6467
42053SOL     OW29563   0.690   5.972   4.105  0.6597 -0.6735 -0.2152
42053SOL    HW129564   0.663   5.907   4.040  2.3689 -0.5789 -1.0449
42053SOL    HW229565   0.714   5.921   4.182 -0.6708 -0.8380  0.0949
42054SOL     OW29566   9.410   5.867   1.254  0.1720 -0.0019 -0.1714
42054SOL    HW129567   9.423   5.817   1.335  0.1888 -1.5216 -1.0992
42054SOL    HW229568   9.317   5.855   1.234 -0.2947  2.0150  0.6764
42055SOL     OW29569  10.751   3.915  10.268  0.4092 -0.2175  0.1157
42055SOL    HW129570  10.760   3.918  10.363  0.4922 -1.3222  0.1601
42055SOL    HW229571  10.821   3.971  10.235 -0.8772  1.8091  0.7297
42056SOL     OW29572   9.240   6.054   1.017 -0.6870  0.1567 -0.0203
42056SOL    HW129573   9.262   6.058   0.924 -0.0187 -0.4665  0.1035
42056SOL    HW229574   9.310   6.102   1.060  0.5108 -1.8608  0.3789
42057SOL     OW29575   2.813   3.141   5.822  0.0560  0.3478  0.3842
42057SOL    HW129576   2.828   3.220   5.769 -0.7074  0.0710 -0.2506
42057SOL    HW229577   2.886   3.140   5.885  1.3154  0.3377 -1.0541
42058SOL     OW29578   0.690  10.866   1.106  0.0285  0.1946  0.1550
42058SOL    HW129579   0.677  10.957   1.132 -0.1698  0.2017  0.0258
42058SOL    HW229580   0.626  10.851   1.037 -0.1230 -0.1233  0.3628
42059SOL     OW29581   1.156   7.998   6.985 -0.1029 -0.2012  0.6913
42059SOL    HW129582   1.242   7.984   7.024  0.5554  0.3284 -0.5331
42059SOL    HW229583   1.102   8.031   7.056  0.4847 -1.3252  1.6737
42060SOL     OW29584   2.146   4.848   1.579  1.4025  0.1104 -0.3037
42060SOL    HW129585   2.187   4.771   1.537 -1.6356 -0.7510 -1.8124
42060SOL    HW229586   2.150   4.916   1.511 -0.6077 -0.3214 -0.8921
42061SOL     OW29587   7.721   6.532   4.515  0.7992 -0.1658 -0.0043
42061SOL    HW129588   7.658   6.575   4.571  0.4241  0.4627 -0.8933
42061SOL    HW229589   7.721   6.441   4.544 -0.8005 -0.2564 -0.2380
42062SOL     OW29590   8.124   0.769   9.609  0.0538  0.1093 -0.1247
42062SOL    HW129591   8.094   0.730   9.527 -0.0981  0.6633 -0.3310
42062SOL    HW229592   8.049   0.763   9.668  0.1299 -0.1924 -0.0547
42063SOL     OW29593   8.112   8.095   2.350  0.1538  0.0314  0.3938
42063SOL    HW129594   8.058   8.052   2.417 -1.4163 -2.2225 -2.2129
42063SOL    HW229595   8.106   8.038   2.274  0.8240  3.1621 -2.1202
42064SOL     OW29596   9.480   9.580   5.786  0.4699  0.3465 -0.2161
42064SOL    HW129597   9.539   9.525   5.735 -1.3700 -2.1600  0.2028
42064SOL    HW229598   9.536   9.646   5.826  2.7831 -1.1893 -0.8166
42065SOL     OW29599   8.997   6.425   5.582  0.6909 -0.7886 -0.1324
42065SOL    HW129600   9.010   6.349   5.638 -1.2316 -1.4562 -0.5549
42065SOL    HW229601   8.910   6.458   5.606  0.9970  0.5612 -0.7970
42066SOL     OW29602   8.818   9.905   4.301 -0.8319  0.2432  0.0808
42066SOL    HW129603   8.793   9.975   4.360  0.7708  1.6586 -0.8749
42066SOL    HW229604   8.780   9.930   4.217 -0.4937 -0.1715 -0.1970
42067SOL     OW29605   6.040   4.913   7.612  0.5263  0.3593  0.1458
42067SOL    HW129606   6.131   4.939   7.597  0.6808  0.5637  1.3615
42067SOL    HW229607   6.019   4.950   7.698  0.1499 -1.9059  1.0745
42068SOL     OW29608   6.948   5.421   9.152  0.4568  0.4947  0.2785
42068SOL    HW129609   6.942   5.517   9.149 -2.1723  0.3678  0.3995
42068SOL    HW229610   6.905   5.397   9.234  0.8231 -0.8117  0.0971
42069SOL     OW29611   5.516   3.154   3.200  0.0527 -0.4338 -0.0653
42069SOL    HW129612   5.547   3.245   3.196 -2.4780  0.5376  1.2864
42069SOL    HW229613   5.513   3.126   3.109 -0.4071  1.3142 -0.6198
42070SOL     OW29614   3.551  10.639   1.299 -0.0176 -0.3809  0.3284
42070SOL    HW129615   3.565  10.662   1.391  2.1657 -0.6328  0.0990
42070SOL    HW229616   3.458  10.621   1.292  0.0076 -1.6821  2.8049
42071SOL     OW29617   1.095   5.627   3.772 -0.2617 -0.1006  0.4352
42071SOL    HW129618   1.181   5.586   3.776 -0.2049 -0.2797 -2.0274
42071SOL    HW229619   1.033   5.556   3.791  0.0694 -0.3087  0.7239
42072SOL     OW29620   1.160   3.457   6.033 -0.2739  0.0460  0.1224
42072SOL    HW129621   1.239   3.490   6.075 -0.6192 -1.3021  1.9050
42072SOL    HW229622   1.136   3.524   5.970  1.7252  0.9253  0.2752
42073SOL     OW29623   1.725   6.463   4.698  0.0517 -0.5467  0.1569
42073SOL    HW129624   1.761   6.466   4.609  1.8669 -1.3002  0.8666
42073SOL    HW229625   1.669   6.385   4.699  0.5018 -0.8726 -0.1436
42074SOL     OW29626   2.823   1.164   9.284 -0.1396 -0.2748 -0.2924
42074SOL    HW129627   2.772   1.136   9.208 -0.0007 -1.3490  0.0129
42074SOL    HW229628   2.910   1.129   9.269 -0.1976 -0.7834  0.5226
42075SOL     OW29629   9.879   9.025   6.179 -0.4544  0.5950  0.1800
42075SOL    HW129630   9.953   8.970   6.154 -0.6479  0.2137  0.4493
42075SOL    HW229631   9.814   9.010   6.110 -0.7284  0.0557  0.5559
42076SOL     OW29632   8.935   2.459   2.975  0.2339  0.2004 -0.1921
42076SOL    HW129633   9.003   2.471   2.909  0.6340  1.2722  0.4076
42076SOL    HW229634   8.907   2.368   2.964  0.9237  0.1032 -1.2326
42077SOL     OW29635   0.812   7.676   3.737 -0.4408  0.0576  0.1691
42077SOL    HW129636   0.806   7.675   3.641  3.2353  0.1574 -0.1299
42077SOL    HW229637   0.906   7.672   3.755 -1.0996 -0.4643  3.8062
42078SOL     OW29638   3.783   4.486   6.090 -0.3031  0.0396 -0.1293
42078SOL    HW129639   3.694   4.515   6.069 -1.9329 -5.6535 -1.8574
42078SOL    HW229640   3.774   4.435   6.170  1.4572 -0.4099 -0.2018
42079SOL     OW29641   6.177   6.573   2.983 -0.6011 -0.0682  0.1630
42079SOL    HW129642   6.265   6.562   2.946 -0.4514 -0.6535  0.6977
42079SOL    HW229643   6.179   6.659   3.025 -0.1713 -0.2379  0.4883
42080SOL     OW29644   1.857   7.033   4.288 -0.4032 -0.3502  0.4636
42080SOL    HW129645   1.789   7.015   4.223  1.1530 -0.5047 -1.1739
42080SOL    HW229646   1.926   7.077   4.238  0.7101 -0.2102  2.0915
42081SOL     OW29647  10.924   7.665   3.561  0.4843 -0.7185  0.5465
42081SOL    HW129648  11.010   7.684   3.523  1.4386 -2.1279  1.9622
42081SOL    HW229649  10.862   7.703   3.499  2.0650 -1.2413 -1.4013
42082SOL     OW29650   9.918   3.676   6.513 -0.2511  0.1312  0.1735
42082SOL    HW129651   9.872   3.748   6.555 -0.3529  0.3776 -0.3585
42082SOL    HW229652   9.872   3.597   6.542 -0.7411  0.3474 -0.0262
42083SOL     OW29653   1.020   0.814   9.125  0.2242 -0.2086  0.2808
42083SOL    HW129654   0.991   0.823   9.216 -0.0297 -0.9448  0.2749
42083SOL    HW229655   0.974   0.737   9.093  0.0998  0.2094 -0.5578
42084SOL     OW29656   4.446   9.921   7.606  0.3230  0.0052 -0.1653
42084SOL    HW129657   4.514   9.877   7.555 -0.1170 -0.3365 -0.4686
42084SOL    HW229658   4.462  10.014   7.592  0.8982 -0.0683 -0.0056
42085SOL     OW29659  10.003  10.472   3.863  0.8840  0.4307 -0.1276
42085SOL    HW129660  10.068  10.539   3.885  0.6520  1.4707 -2.4742
42085SOL    HW229661   9.968  10.499   3.778 -1.1916 -1.2008  0.1562
42086SOL     OW29662   6.947  10.418   0.071 -0.4185  0.3946 -0.2019
42086SOL    HW129663   7.021  10.370   0.109 -0.0659  0.3554 -0.9280
42086SOL    HW229664   6.872  10.393   0.125 -0.5845 -2.3967 -1.6336
42087SOL     OW29665  10.643   1.442   0.801 -0.1901 -0.2929  1.0374
42087SOL    HW129666  10.731   1.427   0.836  1.3907 -0.3880 -2.7636
42087SOL    HW229667  10.616   1.356   0.769 -0.3470  0.3710 -0.6352
42088SOL     OW29668   1.391   9.342   7.211 -0.6301  0.4155  0.4058
42088SOL    HW129669   1.372   9.428   7.249 -1.4287 -0.3058  1.6756
42088SOL    HW229670   1.460   9.305   7.265  0.6346  0.7793 -0.9306
42089SOL     OW29671   1.178   4.044   7.256  0.4185  0.6394 -0.2081
42089SOL    HW129672   1.173   3.989   7.334 -1.5196  0.2903 -0.5506
42089SOL    HW229673   1.258   4.016   7.211  0.5401 -0.4638  0.6806
42090SOL     OW29674   5.176   3.873   7.261 -0.0179 -0.1105 -0.1641
42090SOL    HW129675   5.093   3.836   7.291  0.3388 -0.9599 -0.2213
42090SOL    HW229676   5.233   3.869   7.338  0.2076 -0.2435 -0.3374
42091SOL     OW29677   4.232   5.887  10.090  0.4122  0.4175  0.3614
42091SOL    HW129678   4.159   5.948  10.082 -0.3390 -0.5569 -0.5085
42091SOL    HW229679   4.250   5.883  10.184 -0.4003  0.9783  0.5451
42092SOL     OW29680   6.183   4.124   1.770 -0.1272  0.5592  0.4320
42092SOL    HW129681   6.242   4.124   1.695  0.9984  2.5304  1.2706
42092SOL    HW229682   6.164   4.217   1.785  1.7184  0.4034  4.1383
42093SOL     OW29683   6.308   2.842   9.810  0.3557 -0.0923 -0.1705
42093SOL    HW129684   6.313   2.819   9.902  0.5751 -0.9431 -0.3850
42093SOL    HW229685   6.305   2.937   9.808 -1.3566 -0.1087  0.8056
42094SOL     OW29686   3.701   0.056   2.911 -0.4343 -0.5037 -0.3488
42094SOL    HW129687   3.638   0.092   2.974 -0.2069  2.0822 -1.5075
42094SOL    HW229688   3.787   0.071   2.951 -0.3507  0.0051 -0.7138
42095SOL     OW29689   5.301   5.031   7.113  0.1583 -0.3142 -0.2619
42095SOL    HW129690   5.260   5.117   7.108  1.9991  0.6000 -0.1414
42095SOL    HW229691   5.232   4.973   7.145 -2.2033  0.3474 -3.8186
42096SOL     OW29692   9.136   7.363   9.433 -0.1332 -0.1471  0.5759
42096SOL    HW129693   9.074   7.409   9.376 -0.3419 -0.9055  0.1874
42096SOL    HW229694   9.108   7.384   9.522 -0.1062  0.6419  0.4027
42097SOL     OW29695   1.051   8.447   1.317 -0.7094  0.1242  0.3524
42097SOL    HW129696   1.049   8.410   1.405 -1.0574 -0.7020  0.0035
42097SOL    HW229697   0.961   8.474   1.300 -0.6096  0.4323  0.3107
42098SOL     OW29698   0.633   5.581   5.244  0.0491  0.1130  0.1578
42098SOL    HW129699   0.633   5.653   5.308 -1.8331  1.7944 -1.6224
42098SOL    HW229700   0.570   5.610   5.177  0.8813 -2.2500 -1.6919
42099SOL     OW29701   5.823   4.861   3.997 -0.0189  0.1645 -0.9816
42099SOL    HW129702   5.839   4.948   4.034  0.8781 -0.8909  1.1742
42099SOL    HW229703   5.903   4.841   3.949 -0.6287  0.9396 -2.3488
42100SOL     OW29704   6.798   8.541   3.547 -0.6649 -0.6926  0.1906
42100SOL    HW129705   6.870   8.478   3.545 -0.8407 -0.8855 -0.2770
42100SOL    HW229706   6.737   8.510   3.480 -0.0748  0.7813 -1.0538
42101SOL     OW29707   7.893   4.978   3.195  0.4638 -0.1599  0.1342
42101SOL    HW129708   7.895   5.009   3.105 -2.7445 -0.8580 -0.2443
42101SOL    HW229709   7.911   5.056   3.248 -1.7941  1.1826 -1.0002
42102SOL     OW29710   8.208   0.912   0.584  0.0264  0.1606  0.1971
42102SOL    HW129711   8.261   0.989   0.569 -0.8969  0.6957 -0.3478
42102SOL    HW229712   8.121   0.946   0.607  0.2191 -0.6776  2.3031
42103SOL     OW29713   6.532   5.765   7.560 -0.0723 -0.6562  0.1380
42103SOL    HW129714   6.507   5.674   7.576 -1.7178 -0.0601  1.0364
42103SOL    HW229715   6.569   5.795   7.643 -0.2143 -0.2803  0.0669
42104SOL     OW29716   1.856   5.141   6.259 -0.4291  0.2168  0.6353
42104SOL    HW129717   1.802   5.220   6.258 -1.2653 -0.3191  1.6622
42104SOL    HW229718   1.888   5.132   6.170  0.1869  2.0626  0.6594
42105SOL     OW29719   7.139   5.186   5.900  0.2230  0.1537 -0.4683
42105SOL    HW129720   7.218   5.144   5.868  1.1634  0.8849  0.8137
42105SOL    HW229721   7.133   5.159   5.992 -1.2431 -0.2345 -0.6707
42106SOL     OW29722   7.456   9.919   8.982 -0.2903 -0.4726 -0.2655
42106SOL    HW129723   7.404   9.909   8.902 -0.4148 -0.4254 -0.1911
42106SOL    HW229724   7.402   9.879   9.051  0.5704 -2.1044 -0.4955
42107SOL     OW29725   7.879   0.200   7.122  0.1768  0.1866  0.4835
42107SOL    HW129726   7.953   0.237   7.074 -0.8850  0.5434 -0.9071
42107SOL    HW229727   7.866   0.260   7.196  0.0526  1.1997 -0.3523
42108SOL     OW29728   8.995   0.403   0.966 -0.0795 -0.1289 -0.2356
42108SOL    HW129729   8.904   0.403   0.939 -0.1023 -1.2961 -0.2078
42108SOL    HW229730   9.012   0.312   0.992  0.5574  0.4588  1.5225
42109SOL     OW29731  10.230   8.267   1.928 -0.2644 -0.6702 -0.4525
42109SOL    HW129732  10.198   8.203   1.864 -2.0311 -1.3286  1.0466
42109SOL    HW229733  10.164   8.337   1.927 -0.3452 -0.7175  0.6735
42110SOL     OW29734   6.580   7.674   3.226  0.0578  0.3911 -0.0857
42110SOL    HW129735   6.545   7.754   3.185 -1.2647  0.1461  0.5121
42110SOL    HW229736   6.543   7.603   3.175 -0.4166  0.1216  0.6230
42111SOL     OW29737   8.134  10.157   9.449  0.2076 -0.0698 -0.2011
42111SOL    HW129738   8.206  10.107   9.487  0.4089  1.4180  1.4792
42111SOL    HW229739   8.077  10.092   9.409  0.8681 -1.5502  1.2367
42112SOL     OW29740   0.004   0.171   2.370  0.0908 -0.2260 -0.9024
42112SOL    HW129741   0.036   0.233   2.305 -0.9134  0.0854 -1.1006
42112SOL    HW229742  -0.070   0.127   2.328 -0.5864  0.0052  0.0288
42113SOL     OW29743   6.616   2.929   2.681 -0.1902 -0.1813 -0.1638
42113SOL    HW129744   6.638   3.002   2.623  0.2930 -1.2241 -1.3319
42113SOL    HW229745   6.529   2.949   2.714  0.3353  1.4130  0.3329
42114SOL     OW29746   1.630   4.751   5.106 -0.2857 -0.3253 -0.1574
42114SOL    HW129747   1.640   4.690   5.179  0.2404  1.0720  0.9558
42114SOL    HW229748   1.654   4.699   5.028  1.3681 -1.2045  0.8980
42115SOL     OW29749   0.493   4.824   5.076 -0.1185  0.7878 -0.6458
42115SOL    HW129750   0.566   4.882   5.095 -0.0513 -0.1863  2.3664
42115SOL    HW229751   0.529   4.757   5.019  1.3506  0.3382  0.7852
42116SOL     OW29752   6.791  10.051   3.580  0.2311  0.1968 -0.3450
42116SOL    HW129753   6.818  10.125   3.526  0.9076  0.2821  0.1095
42116SOL    HW229754   6.849   9.979   3.555 -0.5108 -0.2234 -0.8805
42117SOL     OW29755   1.069   2.360   5.021 -0.2654 -0.1946  0.6476
42117SOL    HW129756   1.117   2.283   4.991 -1.3937 -1.3840  1.8146
42117SOL    HW229757   1.071   2.354   5.117  0.5556  1.8182  0.7963
42118SOL     OW29758   0.453   2.284   8.602  0.2022  0.0210 -0.4105
42118SOL    HW129759   0.430   2.375   8.583 -1.0691 -0.4023 -0.9622
42118SOL    HW229760   0.542   2.273   8.569 -0.0848  0.7370 -1.4273
42119SOL     OW29761   0.503   9.456   7.368 -0.1752  0.4150  0.5916
42119SOL    HW129762   0.595   9.483   7.379 -0.2109  1.1518 -0.8398
42119SOL    HW229763   0.506   9.361   7.361  0.5643  0.4977 -0.2585
42120SOL     OW29764  10.013   5.019   2.271  0.0370 -0.2805  0.2684
42120SOL    HW129765  10.015   5.111   2.300  1.4649  0.1517 -1.1430
42120SOL    HW229766   9.934   4.983   2.311  1.2964  0.6067  3.6863
42121SOL     OW29767   2.850   0.444   4.085  0.3046 -0.0469  0.4412
42121SOL    HW129768   2.887   0.381   4.024 -0.3660  0.3563 -0.4031
42121SOL    HW229769   2.756   0.428   4.082  0.1111  1.0974  0.0814
42122SOL     OW29770   7.291   4.178   9.858 -0.1461 -0.5527 -0.3612
42122SOL    HW129771   7.300   4.253   9.918  0.1866  0.7147 -1.9570
42122SOL    HW229772   7.198   4.177   9.836 -0.3895 -1.4430  0.7206
42123SOL     OW29773   8.276   6.183   6.696  0.1508  0.4719 -0.1341
42123SOL    HW129774   8.350   6.203   6.640  1.2803 -0.0889  1.1431
42123SOL    HW229775   8.314   6.165   6.782 -1.5065  0.7594  0.6821
42124SOL     OW29776   5.853  10.230   4.660  0.3677 -0.4394 -0.0878
42124SOL    HW129777   5.912  10.189   4.596  0.8895 -0.7505  0.5821
42124SOL    HW229778   5.912  10.272   4.723 -0.1506  0.4487 -0.1869
42125SOL     OW29779   9.129   1.962   7.344 -0.7717 -0.0793  0.3042
42125SOL    HW129780   9.102   1.982   7.254 -2.3267 -0.2941  0.7011
42125SOL    HW229781   9.077   2.022   7.398  0.6929  0.5568  1.0205
42126SOL     OW29782   1.766   7.546   8.152  0.4985 -0.5827  0.0939
42126SOL    HW129783   1.830   7.582   8.091  1.6725  1.2167  2.2958
42126SOL    HW229784   1.682   7.580   8.122  0.9011 -0.8293 -1.3127
42127SOL     OW29785   8.225  10.312   2.188  0.0157  0.6354  0.5466
42127SOL    HW129786   8.264  10.247   2.129  0.7400  1.4248  0.1395
42127SOL    HW229787   8.223  10.269   2.273 -2.0981 -0.9423 -0.2562
42128SOL     OW29788   1.970   6.498   2.274 -0.4547 -0.6487  0.2398
42128SOL    HW129789   1.880   6.520   2.253  0.1211 -0.8389 -2.6098
42128SOL    HW229790   1.972   6.494   2.370 -2.9851  1.3487  0.4313
42129SOL     OW29791   8.087   4.130   8.946 -0.3776 -0.3374 -0.6103
42129SOL    HW129792   8.093   4.214   8.901 -2.4850 -0.6455 -1.5336
42129SOL    HW229793   8.173   4.090   8.936 -0.0063  0.7893 -1.9982
42130SOL     OW29794   6.162   8.043   0.833 -0.0863  0.1367  0.1486
42130SOL    HW129795   6.240   8.073   0.881 -0.3822 -0.8469  1.2669
42130SOL    HW229796   6.194   7.976   0.773 -0.1851 -0.8493  1.1853
42131SOL     OW29797   5.437   1.730   8.533  0.0516  0.4468 -0.2311
42131SOL    HW129798   5.437   1.795   8.603 -0.6802  0.2973 -0.0915
42131SOL    HW229799   5.351   1.740   8.491  0.7495  1.0273 -1.5662
42132SOL     OW29800   0.230   9.983   3.661 -0.9967  0.2850 -0.0026
42132SOL    HW129801   0.162  10.049   3.669 -0.2444  1.0295  0.2594
42132SOL    HW229802   0.192   9.905   3.702 -1.1362  1.1160  1.5000
42133SOL     OW29803   1.114   3.314   9.287  0.2386  0.2960  0.5103
42133SOL    HW129804   1.143   3.260   9.360 -0.5195  0.7591  1.1597
42133SOL    HW229805   1.188   3.314   9.226  1.1117  0.4250  1.5661
42134SOL     OW29806   8.538   5.117   1.730  0.4213 -0.3388  0.0476
42134SOL    HW129807   8.560   5.144   1.641 -0.1837  0.6436  0.1884
42134SOL    HW229808   8.492   5.192   1.767  0.1829 -0.9495  1.0073
42135SOL     OW29809   2.811   9.999   9.817  0.4729  0.5605  0.1053
42135SOL    HW129810   2.819  10.074   9.760  1.7519  1.8589  1.9221
42135SOL    HW229811   2.830  10.033   9.905  2.5793 -2.1380  0.7825
42136SOL     OW29812   9.318  10.933   0.834  0.3739 -0.1628  0.1938
42136SOL    HW129813   9.278  10.867   0.777  2.3769 -0.5348 -0.8222
42136SOL    HW229814   9.316  11.014   0.783 -2.2158  0.6662  1.4938
42137SOL     OW29815   4.439   6.868   8.876  0.1075  0.2895  0.0602
42137SOL    HW129816   4.488   6.911   8.806 -0.6388 -2.0818 -1.9685
42137SOL    HW229817   4.505   6.817   8.923  0.2663  0.3157 -0.1320
42138SOL     OW29818   7.174   0.685   2.182 -0.2712 -0.4916  0.2507
42138SOL    HW129819   7.122   0.620   2.134  0.4737 -0.4176 -0.6745
42138SOL    HW229820   7.119   0.764   2.183 -0.1748 -0.4114 -0.7238
42139SOL     OW29821   8.282   4.416   0.414  0.2894  0.0549  0.5462
42139SOL    HW129822   8.367   4.441   0.376  0.3980 -2.0443 -0.6349
42139SOL    HW229823   8.267   4.327   0.383 -1.9480  0.0845  1.4782
42140SOL     OW29824   4.674   5.488   4.305 -0.9446  0.0275 -0.1222
42140SOL    HW129825   4.622   5.521   4.379 -1.0488  1.8750 -0.9951
42140SOL    HW229826   4.654   5.548   4.233  0.8490 -0.4440 -1.0392
42141SOL     OW29827  10.470   3.623   1.952  0.5506 -0.4212 -0.0576
42141SOL    HW129828  10.495   3.535   1.979  1.4435 -0.3073 -0.4880
42141SOL    HW229829  10.552   3.663   1.922 -0.2902 -0.3142 -2.3076
42142SOL     OW29830   9.966   3.607   9.083 -0.7869  0.7019  0.4091
42142SOL    HW129831  10.011   3.591   9.166 -1.5644  1.7467  1.0404
42142SOL    HW229832  10.034   3.642   9.026  0.0661 -1.2671  0.1703
42143SOL     OW29833   9.692   2.801   3.288  0.0637 -0.6480 -0.2169
42143SOL    HW129834   9.640   2.738   3.238  0.5839 -2.3092  1.2896
42143SOL    HW229835   9.732   2.749   3.358 -0.4134  1.5650  1.7538
42144SOL     OW29836   0.935   5.880   4.592 -0.4438 -0.5316 -0.3382
42144SOL    HW129837   0.883   5.838   4.661  0.2055  1.3277  1.3195
42144SOL    HW229838   0.878   5.879   4.515 -1.3532 -2.2320  0.3246
42145SOL     OW29839   1.414   5.271   0.469  0.4950 -0.2426 -0.3518
42145SOL    HW129840   1.505   5.265   0.441  0.8937 -0.3843  0.9519
42145SOL    HW229841   1.367   5.211   0.411  1.3056 -0.5000 -0.7388
42146SOL     OW29842   8.594   3.434   6.443  0.1145  0.1114  0.5988
42146SOL    HW129843   8.616   3.341   6.430  0.1936  0.3492 -1.1717
42146SOL    HW229844   8.499   3.438   6.433  0.0814  0.1820  0.9442
42147SOL     OW29845   6.409   4.878   5.129  0.1682 -0.1259  0.4210
42147SOL    HW129846   6.483   4.851   5.075  1.1676 -0.1015  1.7760
42147SOL    HW229847   6.351   4.801   5.130  1.1949 -0.9064  1.1208
42148SOL     OW29848   3.306   7.267   5.075 -0.3891 -0.3018  0.2036
42148SOL    HW129849   3.233   7.316   5.037 -0.5396 -1.5269 -1.1457
42148SOL    HW229850   3.357   7.237   4.999  1.5696  0.5927  1.1197
42149SOL     OW29851   0.417   5.758   0.986 -0.1152 -0.0401  0.1297
42149SOL    HW129852   0.364   5.750   0.906 -1.9768 -0.6945  1.4093
42149SOL    HW229853   0.387   5.839   1.027  0.4540  0.0043  0.4587
42150SOL     OW29854   1.118   8.167   2.095 -0.6986 -0.2855  0.1566
42150SOL    HW129855   1.054   8.133   2.032 -0.8834  1.7162 -0.7635
42150SOL    HW229856   1.068   8.180   2.176 -1.1048 -0.1491 -0.1185
42151SOL     OW29857   1.034   4.921   0.863  0.0874  0.5181  0.2998
42151SOL    HW129858   1.065   4.943   0.776  0.3972  1.4947  0.6476
42151SOL    HW229859   0.941   4.945   0.863  0.5193  2.2523  0.8043
42152SOL     OW29860   2.314   5.526   0.173 -0.4267  0.3049  0.1490
42152SOL    HW129861   2.386   5.488   0.123  0.5569  0.2677  1.5714
42152SOL    HW229862   2.254   5.561   0.106  0.8014  0.1583 -1.0486
42153SOL     OW29863   3.553   5.668   9.877 -0.4669  0.0275  0.2932
42153SOL    HW129864   3.630   5.711   9.840  0.1526 -2.6056 -1.6518
42153SOL    HW229865   3.586   5.585   9.911 -2.4091 -1.1207 -0.5162
42154SOL     OW29866   5.348   9.359   6.029  0.5403  0.5408  0.1360
42154SOL    HW129867   5.410   9.339   5.959  1.1678  0.4565  0.7139
42154SOL    HW229868   5.372   9.447   6.057  0.3688  0.5246  0.3350
42155SOL     OW29869  10.122   7.879  10.183 -0.0271 -0.5530  0.0906
42155SOL    HW129870  10.200   7.878  10.239 -0.0393 -0.4245  0.1090
42155SOL    HW229871  10.151   7.922  10.102  0.1414 -1.2412 -0.2184
42156SOL     OW29872   2.927   8.945   5.555  0.4391  0.1205  0.3094
42156SOL    HW129873   2.934   8.872   5.494  0.0141  0.2298  0.1311
42156SOL    HW229874   2.972   8.914   5.635 -0.1827 -0.5176  0.4122
42157SOL     OW29875   3.982   1.761   1.739  0.0486 -0.0278 -0.2271
42157SOL    HW129876   4.038   1.773   1.816 -0.7746 -1.1892  0.5620
42157SOL    HW229877   3.964   1.667   1.737 -0.3254  0.0629 -1.5741
42158SOL     OW29878   0.526   8.918   0.102  0.0495  0.5920  0.2725
42158SOL    HW129879   0.542   8.829   0.070  0.0672  0.7929 -0.2956
42158SOL    HW229880   0.608   8.964   0.082 -0.4905  1.1092 -0.7726
42159SOL     OW29881  10.731   1.042   5.122  0.5225  0.2948 -0.2775
42159SOL    HW129882  10.666   0.994   5.071  0.0707  1.8900 -1.2516
42159SOL    HW229883  10.682   1.077   5.197  0.8520 -0.7325  0.4341
42160SOL     OW29884   1.540   1.569   4.788  0.5530 -0.5807  0.5968
42160SOL    HW129885   1.546   1.475   4.808 -0.6779 -0.4287  1.7568
42160SOL    HW229886   1.447   1.589   4.794  1.0084  1.1526  2.3665
42161SOL     OW29887   6.827   8.358   3.954  0.4527  0.4069  0.2057
42161SOL    HW129888   6.867   8.388   3.872  0.8215  0.7949  0.5236
42161SOL    HW229889   6.861   8.418   4.020  1.7252 -1.1262  0.9760
42162SOL     OW29890   1.243  10.228   6.909  0.2888  0.2151  0.5704
42162SOL    HW129891   1.171  10.283   6.879  1.2511  1.6921  0.8603
42162SOL    HW229892   1.238  10.149   6.855 -2.4319 -0.3741  1.6408
42163SOL     OW29893   4.398   4.141   6.855  0.1340 -0.1232 -0.2446
42163SOL    HW129894   4.328   4.087   6.891 -0.5625 -0.0655 -1.4948
42163SOL    HW229895   4.358   4.186   6.780  1.2908  0.4960 -0.4996
42164SOL     OW29896   6.530   6.750   3.934  0.0265  0.3095 -0.1539
42164SOL    HW129897   6.568   6.710   4.011 -0.9723 -0.5942 -0.1107
42164SOL    HW229898   6.583   6.828   3.917  0.4141  0.3510  1.2663
42165SOL     OW29899   5.566   2.530   4.666  0.4655 -0.2214 -0.2145
42165SOL    HW129900   5.554   2.435   4.672  2.6122 -0.4958  0.3656
42165SOL    HW229901   5.485   2.567   4.699 -0.9559 -1.8565 -1.7799
42166SOL     OW29902   9.958   7.096   9.653 -0.0111 -1.0857 -0.1164
42166SOL    HW129903  10.045   7.108   9.613  0.7837 -0.7176  1.6840
42166SOL    HW229904   9.897   7.126   9.586  1.3743  1.1314 -0.4326
42167SOL     OW29905   3.963   8.436  10.485 -0.1999  0.0683  0.3972
42167SOL    HW129906   3.942   8.390  10.566  1.2120 -0.1832  0.6239
42167SOL    HW229907   3.940   8.374  10.415 -1.1981  0.2014  0.5932
42168SOL     OW29908   0.406   8.981   0.508  0.0140  0.3462 -0.4752
42168SOL    HW129909   0.361   9.060   0.539 -0.1813 -0.1661  0.5637
42168SOL    HW229910   0.354   8.909   0.543  1.4303 -0.2518  0.4083
42169SOL     OW29911   4.350   9.745   3.235  0.1267  0.9115 -0.2684
42169SOL    HW129912   4.413   9.706   3.174  1.2005  0.3274  1.1790
42169SOL    HW229913   4.334   9.833   3.200  1.1138  0.7656 -1.1098
42170SOL     OW29914   3.645   8.139  10.179  0.2646 -0.6905  0.5078
42170SOL    HW129915   3.661   8.139  10.085 -0.2808 -2.3165  0.3960
42170SOL    HW229916   3.718   8.188  10.216  1.2003 -1.1878 -0.6506
42171SOL     OW29917  10.525   7.052   5.359 -0.1566  0.0163 -0.1901
42171SOL    HW129918  10.609   7.024   5.394 -0.3080 -1.4906 -1.0056
42171SOL    HW229919  10.514   7.141   5.393  1.1199 -0.2679  1.0391
42172SOL     OW29920   7.059   9.677   9.190  0.0953  0.0525  0.0067
42172SOL    HW129921   6.997   9.630   9.246  0.0657  1.7085  1.4212
42172SOL    HW229922   7.004   9.737   9.139  0.2695 -0.4471 -0.7833
42173SOL     OW29923   3.900   0.517   9.551 -0.2228 -0.3776 -0.2286
42173SOL    HW129924   3.973   0.489   9.607  1.0610  0.7155 -1.3341
42173SOL    HW229925   3.897   0.612   9.562 -3.0722 -0.6354  1.6993
42174SOL     OW29926   3.976   3.847   7.600  0.5875  0.1307  0.3042
42174SOL    HW129927   3.884   3.818   7.596  0.6171 -0.1329  1.4587
42174SOL    HW229928   3.998   3.844   7.693  2.4439 -1.9828 -0.1421
42175SOL     OW29929   5.522   8.664   0.665  0.4936 -0.3527  0.2669
42175SOL    HW129930   5.606   8.711   0.660 -0.0979  0.6960  0.0435
42175SOL    HW229931   5.543   8.575   0.636  1.3764  0.1203 -0.5954
42176SOL     OW29932  10.172   6.429   1.523 -0.4792  0.3661  0.0225
42176SOL    HW129933  10.236   6.366   1.557  0.5382  0.5511 -1.4972
42176SOL    HW229934  10.112   6.444   1.596  0.1099 -1.2570  0.8679
42177SOL     OW29935   1.055   5.649   2.884 -0.0080  0.2717 -0.4069
42177SOL    HW129936   0.964   5.675   2.871  0.1648  0.4738 -1.2533
42177SOL    HW229937   1.068   5.653   2.979 -0.5134  1.5044 -0.3763
42178SOL     OW29938   8.543   2.998   7.053  0.0825 -0.6801 -0.6609
42178SOL    HW129939   8.454   2.971   7.075 -0.3719 -0.2171 -1.8604
42178SOL    HW229940   8.550   3.087   7.087  1.1010 -1.7596  2.0472
42179SOL     OW29941   8.535   0.343   3.812  0.4242 -0.5545  0.0490
42179SOL    HW129942   8.579   0.427   3.827 -0.2343 -0.0021 -1.0670
42179SOL    HW229943   8.456   0.348   3.865  1.1635 -1.1253  1.2320
42180SOL     OW29944   5.561   9.216  10.737  0.2612  0.3362  0.5227
42180SOL    HW129945   5.644   9.263  10.739  0.6057 -0.2665  0.2747
42180SOL    HW229946   5.549   9.185  10.826  0.0401  0.8737  0.6856
42181SOL     OW29947   6.287   3.221   2.331  0.7692 -0.1514 -0.2907
42181SOL    HW129948   6.206   3.222   2.279 -0.3153 -0.3070  1.3527
42181SOL    HW229949   6.350   3.269   2.278 -0.4550  0.1143 -1.5341
42182SOL     OW29950   2.534   4.773  10.154 -0.1106 -0.1561  0.9356
42182SOL    HW129951   2.621   4.756  10.189  0.9857  0.4323 -1.4340
42182SOL    HW229952   2.548   4.789  10.061 -2.5938  1.2736  0.7639
42183SOL     OW29953   9.356   1.325   7.874  0.1797  0.2145  0.1272
42183SOL    HW129954   9.284   1.286   7.825 -1.5260  2.7057  0.5303
42183SOL    HW229955   9.389   1.395   7.817  1.4409 -0.0725  0.4899
42184SOL     OW29956  10.735  10.139   0.959  1.1667 -0.1526 -0.5610
42184SOL    HW129957  10.683  10.112   0.883  1.9973  0.0110 -1.1939
42184SOL    HW229958  10.754  10.058   1.005  2.0515 -0.4431 -1.4243
42185SOL     OW29959   8.976   1.761   6.429 -0.1260  0.0743 -0.5774
42185SOL    HW129960   8.963   1.813   6.508  0.8083  0.4933 -0.6874
42185SOL    HW229961   8.942   1.816   6.358  0.1307  0.2040 -0.6013
42186SOL     OW29962   9.057   9.657   8.338  0.1059  0.0365  0.4046
42186SOL    HW129963   8.995   9.612   8.281 -0.7991  1.6604  0.0854
42186SOL    HW229964   9.009   9.671   8.420  0.7376 -0.5068  0.8777
42187SOL     OW29965   7.311   4.431   0.424 -0.3785  0.3165 -0.1784
42187SOL    HW129966   7.266   4.353   0.458  1.0337  0.1521  1.3861
42187SOL    HW229967   7.282   4.438   0.333 -1.5978 -1.2328  0.0675
42188SOL     OW29968   7.892   4.556   7.141 -0.0651 -0.2478  0.2471
42188SOL    HW129969   7.891   4.466   7.110  0.6672  0.2465 -1.3108
42188SOL    HW229970   7.800   4.577   7.158 -0.1776 -1.4410  1.1054
42189SOL     OW29971   4.197   3.911   6.275 -0.8647  0.2263  0.3793
42189SOL    HW129972   4.217   4.000   6.243 -0.0879 -0.5589 -1.3911
42189SOL    HW229973   4.112   3.920   6.318 -0.5104  1.9573  0.7662
42190SOL     OW29974   6.715   8.742   4.810 -0.4908  0.2328  0.4387
42190SOL    HW129975   6.692   8.834   4.802  0.0374  0.1612 -2.2788
42190SOL    HW229976   6.650   8.696   4.758  0.6042 -0.7212 -0.1190
42191SOL     OW29977  10.831   3.923   4.061 -0.2957 -0.2851  0.4508
42191SOL    HW129978  10.753   3.971   4.034 -0.1366 -0.4324 -0.2885
42191SOL    HW229979  10.825   3.839   4.015  0.7897  0.0834 -0.3996
42192SOL     OW29980   6.508   8.641   7.606  0.0195 -0.3304 -0.5811
42192SOL    HW129981   6.474   8.674   7.522 -1.8662 -0.8410 -0.0428
42192SOL    HW229982   6.571   8.707   7.633 -0.4328  0.5888 -1.7100
42193SOL     OW29983   3.774   0.479   1.069  0.4479  0.3590 -0.7460
42193SOL    HW129984   3.869   0.490   1.081  0.5912 -2.5828  1.3443
42193SOL    HW229985   3.736   0.510   1.151 -0.1818 -0.7356 -0.6097
42194SOL     OW29986   0.775   8.966  10.395  0.0703  0.1928  0.2699
42194SOL    HW129987   0.689   9.001  10.416  0.5033  1.0458  0.6841
42194SOL    HW229988   0.816   8.950  10.481  1.9941  4.0503  0.2300
42195SOL     OW29989   6.195   5.448   2.058  0.2413 -0.4555 -0.0472
42195SOL    HW129990   6.209   5.413   2.145 -1.1043  0.1905  0.4455
42195SOL    HW229991   6.282   5.451   2.019  0.8435 -0.7950  1.2423
42196SOL     OW29992   6.114   4.412   1.195  0.1616  0.4255  0.3829
42196SOL    HW129993   6.187   4.413   1.133 -1.2663  0.0016 -1.3484
42196SOL    HW229994   6.094   4.504   1.211 -1.0684  0.5626 -1.7676
42197SOL     OW29995   2.333   4.177   9.122 -0.2854 -0.3422  0.3729
42197SOL    HW129996   2.388   4.138   9.190  2.2798  1.2505 -0.7337
42197SOL    HW229997   2.252   4.201   9.167  1.0804 -0.0067  2.7053
42198SOL     OW29998   0.382   7.701   1.910 -0.7272 -0.3874 -0.3018
42198SOL    HW129999   0.300   7.652   1.915 -0.6980 -0.4745 -0.6282
42198SOL    HW230000   0.436   7.650   1.850 -0.9931  0.4676 -1.2854
42199SOL     OW30001   5.933   5.945  10.914  0.0731 -0.0602 -0.1166
42199SOL    HW130002   5.957   5.891  10.838 -0.9957  0.1622 -0.6229
42199SOL    HW230003   5.843   5.921  10.933  0.5288 -0.5606  1.4855
42200SOL     OW30004   8.743   6.038   1.748 -0.8073 -0.1726  0.4424
42200SOL    HW130005   8.724   6.102   1.817  0.0383  0.4543  0.1009
42200SOL    HW230006   8.794   5.971   1.792 -2.3771 -1.0450  0.9896
42201SOL     OW30007   0.301   3.655   5.493 -0.5761 -0.0233  0.0077
42201SOL    HW130008   0.235   3.637   5.559  0.6844 -1.9035  0.8110
42201SOL    HW230009   0.384   3.637   5.537  0.4878  2.3273 -0.9639
42202SOL     OW30010   0.390   3.366  10.145 -1.0009  0.2103 -0.7738
42202SOL    HW130011   0.406   3.419  10.067  0.8741 -1.0386 -1.2628
42202SOL    HW230012   0.379   3.277  10.113  1.5587 -0.6218  0.4861
42203SOL     OW30013   8.177   5.247   8.881  0.3963 -0.2110  0.4866
42203SOL    HW130014   8.236   5.240   8.805  0.5689 -1.9401  0.7674
42203SOL    HW230015   8.231   5.285   8.950  0.8846 -0.7951  0.4260
42204SOL     OW30016   2.319   2.893   5.158  0.3790  0.3540  0.1131
42204SOL    HW130017   2.269   2.863   5.234  0.3335  2.1273  0.8222
42204SOL    HW230018   2.274   2.854   5.083  1.2562 -2.5394  1.0438
42205SOL     OW30019   8.999   3.321  10.908 -0.4339  0.1860  0.0090
42205SOL    HW130020   8.999   3.404  10.860 -0.0505 -0.0117 -0.3299
42205SOL    HW230021   9.053   3.262  10.856 -1.6606 -0.6315 -0.3715
42206SOL     OW30022   4.451   2.276   9.145 -0.2891 -0.4738 -0.8031
42206SOL    HW130023   4.448   2.330   9.224 -1.4497  0.2988 -1.3506
42206SOL    HW230024   4.423   2.335   9.075 -0.2001 -1.4119 -1.6404
42207SOL     OW30025   6.970   5.812   9.749 -0.5672  0.1434  0.1343
42207SOL    HW130026   7.044   5.871   9.733  0.2663 -1.0941 -0.6762
42207SOL    HW230027   6.894   5.860   9.716 -0.2259  1.6129  1.3618
42208SOL     OW30028   9.715   3.311   8.541  0.2985  0.3125 -0.2334
42208SOL    HW130029   9.778   3.239   8.539 -0.8102 -0.8228  2.5642
42208SOL    HW230030   9.770   3.390   8.544  1.5343 -0.4492 -1.7994
42209SOL     OW30031   2.995   5.732   2.215 -0.6864  0.1298 -0.1889
42209SOL    HW130032   2.993   5.667   2.145  0.6903  0.1239 -0.2400
42209SOL    HW230033   2.972   5.814   2.172 -0.2688  0.0533 -0.5554
42210SOL     OW30034   6.401   8.385   3.952  0.3157 -0.0877  0.1370
42210SOL    HW130035   6.458   8.452   3.990  0.4604 -0.5000  0.6493
42210SOL    HW230036   6.373   8.333   4.026  0.3317 -0.6985 -0.2864
42211SOL     OW30037   4.023   1.145   5.572 -0.0223 -0.3007  0.1008
42211SOL    HW130038   4.023   1.190   5.657  2.0615  1.4082 -0.7528
42211SOL    HW230039   4.093   1.188   5.523 -0.8959 -1.5926 -2.3196
42212SOL     OW30040   0.985   0.647  10.628  0.2200 -0.0165 -0.2309
42212SOL    HW130041   0.911   0.599  10.591 -0.5534  1.9542 -1.3223
42212SOL    HW230042   1.061   0.591  10.612 -0.8137 -1.4022 -0.3906
42213SOL     OW30043   7.284   4.134   8.923  0.3899  0.4578  0.3799
42213SOL    HW130044   7.371   4.151   8.888  0.1123 -0.9938 -1.0858
42213SOL    HW230045   7.239   4.219   8.917  0.9822  0.6859 -0.9920
42214SOL     OW30046   0.276   6.310   8.302  0.1798  0.2061  0.2165
42214SOL    HW130047   0.349   6.308   8.364 -1.4262 -1.2080  2.1150
42214SOL    HW230048   0.261   6.218   8.281  0.0599  0.6098 -1.5289
42215SOL     OW30049  10.799   3.273   7.805 -0.0712 -0.1131  0.3019
42215SOL    HW130050  10.740   3.299   7.734 -1.0808  1.0156  1.5333
42215SOL    HW230051  10.878   3.325   7.790  0.8255 -1.9462 -1.6035
42216SOL     OW30052  10.531   8.227   8.287 -0.2195  0.5024 -0.5781
42216SOL    HW130053  10.517   8.138   8.254  1.3404 -0.4262  1.1710
42216SOL    HW230054  10.500   8.225   8.377  3.7074  0.4849  0.8987
42217SOL     OW30055   6.111   4.615   7.622 -0.2830  0.2673 -0.7332
42217SOL    HW130056   6.074   4.527   7.630 -0.3900  0.4950  1.6842
42217SOL    HW230057   6.047   4.662   7.569 -2.5961  0.1269  1.8029
42218SOL     OW30058   8.075   4.785   1.764  0.5285 -0.2422 -0.4820
42218SOL    HW130059   8.079   4.743   1.850 -0.5965  0.0626 -0.2768
42218SOL    HW230060   8.164   4.817   1.749  1.0351 -1.3658  0.0246
42219SOL     OW30061   7.277   2.766   2.279 -0.1376  0.2250  0.3387
42219SOL    HW130062   7.285   2.671   2.271 -1.1961  0.1385  0.1466
42219SOL    HW230063   7.332   2.789   2.354 -0.9202 -0.7149  1.2187
42220SOL     OW30064   2.148   4.962   3.237 -0.0030  0.1696 -0.5201
42220SOL    HW130065   2.236   4.963   3.276 -1.0333 -1.1222  2.0044
42220SOL    HW230066   2.133   5.052   3.207  1.9643  0.5174 -0.5140
42221SOL     OW30067  10.854   6.912   9.845  0.3667  0.1376  0.0556
42221SOL    HW130068  10.882   6.860   9.770 -1.7343  1.3366 -1.5939
42221SOL    HW230069  10.851   6.850   9.918  0.1954 -1.5171 -1.3487
42222SOL     OW30070   7.435  10.837   0.952  0.2892  0.1512  0.4417
42222SOL    HW130071   7.482  10.778   0.893 -2.1708 -1.5876  0.1288
42222SOL    HW230072   7.471  10.924   0.933 -0.3998 -0.3294 -3.6776
42223SOL     OW30073   6.181   8.176   1.307  0.2340 -0.0312  0.3769
42223SOL    HW130074   6.154   8.137   1.224 -2.1334 -2.1793  2.0779
42223SOL    HW230075   6.122   8.250   1.320  0.2581 -0.0109  0.3661
42224SOL     OW30076   5.930   7.221   3.470  0.2113 -0.1864  0.8813
42224SOL    HW130077   5.978   7.150   3.513  0.6381 -0.4162  0.0373
42224SOL    HW230078   5.841   7.187   3.460  1.0780 -1.7616 -2.0981
42225SOL     OW30079   0.474   5.712   4.878  0.1319  0.6150 -0.4686
42225SOL    HW130080   0.472   5.741   4.969  0.0061 -1.1323  0.1132
42225SOL    HW230081   0.428   5.628   4.878  2.9815 -1.0413 -1.5006
42226SOL     OW30082   8.760   0.970   6.952 -0.5469 -0.3806 -0.3946
42226SOL    HW130083   8.768   0.883   6.993  1.3343  0.3204  0.8206
42226SOL    HW230084   8.758   1.031   7.026  0.9810  0.7801 -1.2746
42227SOL     OW30085   1.401   1.594   0.367  0.3946  0.0940 -0.2053
42227SOL    HW130086   1.375   1.685   0.385  0.4160  0.1392 -0.4088
42227SOL    HW230087   1.465   1.601   0.296  0.0819 -0.1164 -0.5054
42228SOL     OW30088   5.494   7.124   1.900  0.2321 -0.3584  0.0903
42228SOL    HW130089   5.589   7.118   1.909  0.2192 -1.3805 -0.4088
42228SOL    HW230090   5.460   7.068   1.969 -0.0819  2.2913  2.1804
42229SOL     OW30091   1.304   7.280   4.120  0.2083  0.3984  0.0774
42229SOL    HW130092   1.397   7.259   4.117  0.3150  0.7577  0.9277
42229SOL    HW230093   1.261   7.196   4.138  0.4559  0.4714  0.9919
42230SOL     OW30094   5.761   6.690   0.831 -0.3302  0.1959  0.0151
42230SOL    HW130095   5.693   6.626   0.851  0.1854 -0.4231 -0.2112
42230SOL    HW230096   5.717   6.757   0.780 -0.9274  0.1472  0.4651
42231SOL     OW30097   5.788  10.606   9.818 -0.0563  0.1317 -0.0544
42231SOL    HW130098   5.758  10.687   9.859 -0.2313 -0.1990  0.4808
42231SOL    HW230099   5.718  10.581   9.758  0.9001  1.4688 -1.7590
42232SOL     OW30100   9.194   6.008   7.955 -0.1119  0.8184  0.1918
42232SOL    HW130101   9.236   5.993   7.870 -0.8839 -2.3784  0.3035
42232SOL    HW230102   9.264   6.036   8.013  1.7133 -3.1131  0.0391
42233SOL     OW30103   1.374   2.664   1.998 -0.2715 -0.1414 -0.0141
42233SOL    HW130104   1.352   2.578   2.034 -2.2465  0.0905 -0.6043
42233SOL    HW230105   1.343   2.726   2.064  0.3407  0.1389  0.0081
42234SOL     OW30106   8.005   2.055   3.706  0.2914 -0.2417 -0.0560
42234SOL    HW130107   8.042   1.984   3.654  1.0791  1.7316 -2.2980
42234SOL    HW230108   8.080   2.107   3.733 -0.3519  0.2503  0.8133
42235SOL     OW30109   1.681   1.555   3.876  0.4907  0.3154  0.0241
42235SOL    HW130110   1.622   1.600   3.938  1.0136 -0.1755  0.8870
42235SOL    HW230111   1.764   1.601   3.884  0.8771 -0.4544  0.5137
42236SOL     OW30112   2.752   6.633   8.179  0.4479  0.5718  0.0716
42236SOL    HW130113   2.764   6.685   8.100  4.7197 -1.1574 -0.5158
42236SOL    HW230114   2.731   6.545   8.147 -1.9968  0.7901  0.9758
42237SOL     OW30115   5.347   1.936   8.715  0.1903  1.0642  0.0536
42237SOL    HW130116   5.256   1.928   8.743  0.2329  2.4865  0.6742
42237SOL    HW230117   5.342   1.971   8.626  0.1122  0.1583 -0.2963
42238SOL     OW30118   3.207   6.906   8.930 -0.3485 -0.1008 -0.6151
42238SOL    HW130119   3.243   6.821   8.906  1.0949  0.1133  0.7460
42238SOL    HW230120   3.137   6.885   8.993  1.3413 -0.1971  1.2790
42239SOL     OW30121   9.102  10.473   1.277  0.0877  0.3644  0.5484
42239SOL    HW130122   9.086  10.551   1.330 -0.4483 -0.0464  1.0002
42239SOL    HW230123   9.035  10.475   1.209  0.6346  0.7721  0.0180
42240SOL     OW30124   2.759   3.498   2.576  0.0732 -0.6092 -0.2001
42240SOL    HW130125   2.708   3.449   2.640 -0.0547  1.7881  1.5955
42240SOL    HW230126   2.845   3.510   2.617  0.6165 -0.6758 -1.2894
42241SOL     OW30127   2.568   4.926   7.150 -0.0210  0.3121  0.1290
42241SOL    HW130128   2.632   4.997   7.144  0.7096 -0.4386 -1.3564
42241SOL    HW230129   2.587   4.884   7.233  0.1274  1.3125  0.6044
42242SOL     OW30130   5.241   8.047   5.665 -0.2403 -0.1921  0.0427
42242SOL    HW130131   5.332   8.018   5.670 -0.0850 -0.5328 -3.4984
42242SOL    HW230132   5.197   7.981   5.611 -2.0126  1.2573 -0.3442
42243SOL     OW30133   6.411   3.019   3.402 -0.4642  0.1334 -0.1092
42243SOL    HW130134   6.350   2.949   3.378 -0.5946  0.6077 -1.2004
42243SOL    HW230135   6.465   3.031   3.324  0.7064  0.0589  0.6828
42244SOL     OW30136   1.946   7.817   7.822 -0.1937  0.0174 -0.1173
42244SOL    HW130137   1.971   7.818   7.914  0.3876 -1.6037 -0.2493
42244SOL    HW230138   1.962   7.907   7.792  1.4522  0.0684  0.8718
42245SOL     OW30139   8.655   8.143  10.441 -0.2895  0.5255 -0.2376
42245SOL    HW130140   8.743   8.152  10.405  0.6556 -0.3899  1.8189
42245SOL    HW230141   8.639   8.225  10.488  0.4203 -0.2729  1.4214
42246SOL     OW30142   2.410   3.831   1.858  0.0764  0.1473  0.2809
42246SOL    HW130143   2.319   3.820   1.887  0.0351 -1.4823 -0.3939
42246SOL    HW230144   2.461   3.788   1.927  0.4604  2.3264  1.4019
42247SOL     OW30145   2.790   2.941   7.879 -0.0514 -0.3423 -0.1110
42247SOL    HW130146   2.763   2.952   7.970 -3.1571  1.3461 -1.1720
42247SOL    HW230147   2.733   2.872   7.845  1.0105 -0.8913 -0.8305
42248SOL     OW30148   3.431   9.395  10.943  0.4062  0.3726  0.0602
42248SOL    HW130149   3.372   9.428  10.875  2.4316  1.7766 -1.0684
42248SOL    HW230150   3.375   9.381  11.019 -1.5057  0.9544 -1.2109
42249SOL     OW30151   5.056   3.990   4.190 -0.7246 -0.3704  0.2618
42249SOL    HW130152   5.148   3.979   4.164 -0.9733  0.2366 -0.9113
42249SOL    HW230153   5.008   3.996   4.107 -2.0219 -2.1677  0.8302
42250SOL     OW30154   7.777   0.890   3.574 -0.0694 -0.2023  0.2112
42250SOL    HW130155   7.768   0.888   3.479  0.7778 -1.7438  0.1567
42250SOL    HW230156   7.871   0.881   3.590 -0.1497  0.5854  1.1883
42251SOL     OW30157   4.953   3.239   6.039 -0.5198 -0.4278  0.1897
42251SOL    HW130158   4.879   3.292   6.010  1.7435  0.8721 -3.5258
42251SOL    HW230159   4.934   3.151   6.006 -0.8135 -0.2923  0.0003
42252SOL     OW30160   8.515   6.595   9.868  0.1220 -0.4418 -0.5603
42252SOL    HW130161   8.502   6.688   9.849  0.4656 -0.5923 -1.5347
42252SOL    HW230162   8.565   6.562   9.794  1.6210 -1.0008  0.6584
42253SOL     OW30163   0.669   7.579   6.614 -0.5896 -0.1081  0.2188
42253SOL    HW130164   0.754   7.621   6.605  0.1709 -1.8172 -0.8670
42253SOL    HW230165   0.617   7.614   6.542  0.5863 -2.2472 -1.7263
42254SOL     OW30166   2.905   7.084   3.242  0.1529  0.6739  0.3273
42254SOL    HW130167   2.932   7.014   3.183 -2.9615  0.1050 -0.5360
42254SOL    HW230168   2.931   7.165   3.198 -0.1346  0.1701 -0.7885
42255SOL     OW30169   8.169   5.069   4.641 -0.4952  0.3285 -0.4388
42255SOL    HW130170   8.201   4.993   4.592  2.0444  1.1338 -0.1090
42255SOL    HW230171   8.167   5.139   4.576 -0.6519  0.5138 -0.2301
42256SOL     OW30172   5.968   4.775   5.197  0.5456  0.3651  0.3965
42256SOL    HW130173   5.967   4.859   5.243 -0.0427 -0.3320  1.6789
42256SOL    HW230174   5.890   4.778   5.140  0.0930  0.3816  1.0116
42257SOL     OW30175   8.381   3.510   4.755 -0.0823 -0.3648 -0.7655
42257SOL    HW130176   8.332   3.488   4.834  0.1342 -0.5438 -0.6805
42257SOL    HW230177   8.325   3.573   4.709  0.5145  1.0005  0.3330
42258SOL     OW30178   1.829   0.817   5.617 -0.4384  0.3496  0.0967
42258SOL    HW130179   1.818   0.725   5.640  1.8443  0.1558  0.5530
42258SOL    HW230180   1.810   0.864   5.698  0.2655  0.1533  0.3775
42259SOL     OW30181   7.145   8.800   4.753 -0.1089 -0.1917 -0.3011
42259SOL    HW130182   7.054   8.781   4.774 -0.1667  1.0404  0.6760
42259SOL    HW230183   7.142   8.876   4.695  0.3135  0.2993  0.3058
42260SOL     OW30184   1.866   2.737   0.815  0.3113 -0.2202 -0.4835
42260SOL    HW130185   1.865   2.711   0.723 -2.3974 -1.9483  0.0118
42260SOL    HW230186   1.778   2.770   0.832 -0.0039 -2.3567  2.1736
42261SOL     OW30187   2.732   7.913   7.645  0.1260 -0.1634 -0.5542
42261SOL    HW130188   2.764   8.001   7.664 -0.0108  0.1604 -1.7908
42261SOL    HW230189   2.641   7.914   7.674 -0.5912  0.8638 -2.7603
42262SOL     OW30190   9.183   7.178   4.518 -0.6966 -0.0798  0.1328
42262SOL    HW130191   9.115   7.205   4.579 -0.7633 -0.2417  0.1290
42262SOL    HW230192   9.265   7.188   4.567 -0.6628  0.7719 -0.0871
42263SOL     OW30193   0.794   6.008   5.198 -0.5878  0.4493  0.4071
42263SOL    HW130194   0.791   6.104   5.208 -0.6470  0.3872  1.0261
42263SOL    HW230195   0.721   5.977   5.251 -0.9886  0.0986 -0.3436
42264SOL     OW30196  10.020   2.443   5.604  0.3739  0.3812 -0.3563
42264SOL    HW130197  10.051   2.449   5.695 -0.6533  1.2020 -0.0509
42264SOL    HW230198   9.936   2.399   5.611  0.5761 -0.1009 -0.9823
42265SOL     OW30199   6.361   7.237   2.585  0.2123  0.2967  0.3558
42265SOL    HW130200   6.266   7.233   2.573  0.4511 -3.7597 -0.6266
42265SOL    HW230201   6.397   7.194   2.508  2.9658  2.9428  0.0675
42266SOL     OW30202   6.704   5.463   9.345 -0.6933  0.2250  0.1873
42266SOL    HW130203   6.677   5.407   9.272 -1.8649  2.0438 -0.7887
42266SOL    HW230204   6.641   5.534   9.346  1.2248  1.9579  0.9425
42267SOL     OW30205   6.943   0.744   2.732  0.7003 -0.4230  0.0470
42267SOL    HW130206   7.015   0.761   2.670 -0.4089  2.5846 -0.5192
42267SOL    HW230207   6.865   0.745   2.677 -0.2256  1.5325  1.3575
42268SOL     OW30208   3.854   2.954   9.736 -0.2169  0.7140  0.0460
42268SOL    HW130209   3.833   2.872   9.692  1.2234 -0.1278  0.8910
42268SOL    HW230210   3.772   2.982   9.776 -0.9722  0.2523 -1.1455
42269SOL     OW30211   1.346   8.798   8.921  0.2966 -0.1352 -0.3986
42269SOL    HW130212   1.410   8.823   8.988 -1.3348 -0.0722  1.1713
42269SOL    HW230213   1.311   8.881   8.890 -1.8654 -0.2405  1.6019
42270SOL     OW30214   3.114   6.478   8.736  0.0584  0.3565  0.3827
42270SOL    HW130215   3.068   6.555   8.770  1.1952  1.7172 -1.0765
42270SOL    HW230216   3.206   6.499   8.745  0.3795 -0.5507 -0.6907
42271SOL     OW30217   0.204   9.991   6.233 -0.0432  0.3370 -0.5013
42271SOL    HW130218   0.223   9.963   6.322 -0.0924 -0.4718 -0.7418
42271SOL    HW230219   0.227  10.084   6.232  2.3744 -0.2216 -0.3197
42272SOL     OW30220   9.498   2.782   0.801  0.2916 -0.1214  0.4635
42272SOL    HW130221   9.569   2.757   0.861  0.5489 -0.0560  0.1927
42272SOL    HW230222   9.532   2.759   0.714  1.2071  2.6525  0.0309
42273SOL     OW30223   7.736  10.581   4.249  0.5813  0.2366  0.1731
42273SOL    HW130224   7.771  10.666   4.275  1.1270 -0.9180  3.3700
42273SOL    HW230225   7.653  10.573   4.296  0.2775 -0.7911 -0.5011
42274SOL     OW30226   9.505   7.932  10.515 -0.8740  0.3953 -0.1304
42274SOL    HW130227   9.414   7.957  10.532 -0.9775 -0.1236  0.0825
42274SOL    HW230228   9.523   7.864  10.580 -1.0252 -1.0693 -1.6005
42275SOL     OW30229   6.315   5.717   2.260 -0.2333 -0.2818 -0.4755
42275SOL    HW130230   6.288   5.744   2.172  1.2421 -1.3170 -1.2689
42275SOL    HW230231   6.372   5.788   2.290 -0.7727  0.0934 -0.3295
42276SOL     OW30232   1.429   7.830   6.190  0.2845 -0.1958 -0.2662
42276SOL    HW130233   1.337   7.851   6.207  0.1385 -0.8776 -0.2045
42276SOL    HW230234   1.474   7.855   6.270 -0.2658 -2.5041  0.8196
42277SOL     OW30235   6.033   9.712   6.472 -0.1932 -0.1900  0.1146
42277SOL    HW130236   6.072   9.755   6.396  1.6391  0.0024  1.1169
42277SOL    HW230237   6.016   9.784   6.533 -0.2636 -0.5107  0.4725
42278SOL     OW30238   1.723   4.734   2.908 -0.4668 -0.1418 -0.8238
42278SOL    HW130239   1.747   4.797   2.976 -0.2613 -0.1472 -0.8890
42278SOL    HW230240   1.804   4.722   2.858 -0.2378 -1.2182 -0.2037
42279SOL     OW30241   6.163   2.281   8.434 -0.3003 -0.0094  1.0505
42279SOL    HW130242   6.211   2.206   8.399  0.1418  0.4400  0.6967
42279SOL    HW230243   6.080   2.244   8.464 -1.0587 -0.2821 -1.2598
42280SOL     OW30244   3.501   5.585   4.952  0.2431 -0.2054  0.3590
42280SOL    HW130245   3.552   5.638   5.013 -1.0756  1.1044  0.3517
42280SOL    HW230246   3.422   5.562   5.001  0.6503 -1.9167  0.2470
42281SOL     OW30247   2.725   8.766   9.352  0.1592  0.5800 -0.0706
42281SOL    HW130248   2.729   8.746   9.446 -2.2325  0.8172  0.0924
42281SOL    HW230249   2.758   8.856   9.346 -0.3919  0.8409  0.6407
42282SOL     OW30250   6.543   7.447  10.511  0.0667 -0.0238  0.0718
42282SOL    HW130251   6.535   7.528  10.561 -1.6143 -0.1404  0.0209
42282SOL    HW230252   6.623   7.459  10.459  0.2432  1.2857  0.6226
42283SOL     OW30253   0.534  10.883   4.404 -0.3829  0.0679  0.1555
42283SOL    HW130254   0.578  10.893   4.320  1.7433 -0.5595  1.1691
42283SOL    HW230255   0.486  10.800   4.396 -1.6118  0.8781 -1.0441
42284SOL     OW30256   5.730   2.939   1.629  0.6030 -0.2326  0.2752
42284SOL    HW130257   5.647   2.953   1.582  0.4259  0.2518  0.7220
42284SOL    HW230258   5.715   2.980   1.715 -0.0419 -3.4452  1.7598
42285SOL     OW30259   7.243   3.420   6.562  0.2791 -0.0396  0.1811
42285SOL    HW130260   7.200   3.469   6.632 -0.3218  1.3358 -1.1315
42285SOL    HW230261   7.337   3.435   6.577  0.1259  0.8854  0.2263
42286SOL     OW30262   7.317   8.491   4.045 -0.2771 -0.0872  0.3829
42286SOL    HW130263   7.273   8.410   4.018 -0.4394 -0.2245  1.0416
42286SOL    HW230264   7.391   8.462   4.098  1.3096  0.1014 -1.6758
42287SOL     OW30265   9.561   2.764   9.628 -0.2646 -0.0552 -0.2952
42287SOL    HW130266   9.638   2.744   9.574  0.6950 -0.0871  1.0644
42287SOL    HW230267   9.522   2.841   9.587  0.9270  0.4135 -0.5548
42288SOL     OW30268   0.527  10.389   1.321 -0.1587 -0.1164 -0.2394
42288SOL    HW130269   0.558  10.436   1.244 -0.9059 -0.4878 -0.7753
42288SOL    HW230270   0.490  10.457   1.378  1.0269  0.2426  0.1055
42289SOL     OW30271  10.651   3.834   4.331  0.4271  0.6131 -0.0042
42289SOL    HW130272  10.597   3.802   4.402  0.8894 -0.1415  0.0095
42289SOL    HW230273  10.713   3.764   4.314  2.1656  1.9092  0.7689
42290SOL     OW30274   2.703   3.242  10.464 -0.5651  0.2951 -0.6117
42290SOL    HW130275   2.773   3.281  10.515 -1.4596 -1.8077  2.3435
42290SOL    HW230276   2.745   3.170  10.417 -0.4570 -0.0390 -0.0018
42291SOL     OW30277   1.441   2.944   1.539  0.1908 -0.1120 -0.2248
42291SOL    HW130278   1.445   3.007   1.612  0.0169 -0.4324  0.0617
42291SOL    HW230279   1.438   2.999   1.460 -0.9195  0.2586  0.0640
42292SOL     OW30280   0.098   8.003   1.396 -0.0966 -0.2895  0.5084
42292SOL    HW130281   0.111   7.917   1.436 -1.5542 -0.0939  1.4169
42292SOL    HW230282   0.061   8.057   1.465 -0.9053  0.5663 -0.5737
42293SOL     OW30283   9.488   0.915   8.869  0.1866 -0.3188 -0.2276
42293SOL    HW130284   9.421   0.955   8.925  0.3022 -1.5667  0.8048
42293SOL    HW230285   9.443   0.900   8.786 -0.0499  1.3347 -0.4167
42294SOL     OW30286   1.174   6.082   7.139  0.5140  0.1036  0.5871
42294SOL    HW130287   1.144   6.023   7.208  0.0934  0.0178  0.3331
42294SOL    HW230288   1.103   6.144   7.127 -0.0565 -0.7927 -0.8074
42295SOL     OW30289   0.258   8.622   4.579  0.5135 -0.8227  0.0574
42295SOL    HW130290   0.238   8.536   4.543  0.9498 -1.6097  1.6777
42295SOL    HW230291   0.190   8.637   4.644 -0.1357  0.4981 -0.8950
42296SOL     OW30292   2.619   7.469   6.280  0.5234 -0.3393 -0.1990
42296SOL    HW130293   2.638   7.377   6.262 -0.8283 -0.7047  0.1920
42296SOL    HW230294   2.543   7.467   6.337  0.3994  1.0316 -0.3027
42297SOL     OW30295   7.616   5.228   2.288  0.2287  0.0592  0.2980
42297SOL    HW130296   7.607   5.143   2.331 -1.4117  0.4985  0.8433
42297SOL    HW230297   7.611   5.210   2.195  0.2860 -0.4882  0.4040
42298SOL     OW30298   0.667   0.027   1.983  0.0004 -0.1133  0.0950
42298SOL    HW130299   0.615  -0.053   1.984  0.1791 -0.2545 -1.0443
42298SOL    HW230300   0.749   0.002   1.939 -0.7246  1.1520 -2.0492
42299SOL     OW30301   7.876   4.619   4.312 -0.3991 -0.8156 -0.5060
42299SOL    HW130302   7.941   4.555   4.342  1.1918  0.3114 -1.4972
42299SOL    HW230303   7.860   4.674   4.388 -0.2168 -1.1047 -0.2564
42300SOL     OW30304   6.443   0.581   5.257 -0.0172 -0.1514 -0.2515
42300SOL    HW130305   6.511   0.630   5.302  1.9317  0.0761 -3.2995
42300SOL    HW230306   6.385   0.648   5.219 -0.6127 -0.3109  0.3624
42301SOL     OW30307   5.843   8.998   1.972 -0.3567 -1.0344  0.6824
42301SOL    HW130308   5.770   9.053   1.943  1.0659  0.0583 -0.9004
42301SOL    HW230309   5.861   8.940   1.898  1.2700 -0.3530  0.5195
42302SOL     OW30310   9.866   5.552   7.990 -0.1434  0.2898 -0.4657
42302SOL    HW130311   9.954   5.523   7.966 -0.3877  0.4140 -1.5437
42302SOL    HW230312   9.824   5.474   8.025  0.5580  0.3522  0.5506
42303SOL     OW30313   6.873   6.428   7.435 -0.0936 -0.0936  0.4924
42303SOL    HW130314   6.877   6.467   7.347  0.0119 -0.3655  0.3764
42303SOL    HW230315   6.780   6.432   7.458 -0.1092  0.0608  0.4056
42304SOL     OW30316   9.110   8.788   0.450  0.4947  0.1025 -0.3326
42304SOL    HW130317   9.185   8.803   0.393 -0.7876 -0.5313 -2.2279
42304SOL    HW230318   9.034   8.817   0.398 -0.6774 -0.2274  1.1513
42305SOL     OW30319   4.438   3.646   3.993 -0.0831  0.2246  0.0763
42305SOL    HW130320   4.470   3.734   3.975  1.9498 -0.7938 -1.3930
42305SOL    HW230321   4.380   3.657   4.068  0.5813  2.7226  0.2627
42306SOL     OW30322   9.052   6.274   0.500  0.1201  0.1062  0.8403
42306SOL    HW130323   9.137   6.308   0.530 -0.8805  1.4462  2.2773
42306SOL    HW230324   9.035   6.320   0.418  0.6244  0.0966  0.7311
42307SOL     OW30325   2.981   6.092   2.985  0.0893 -0.0522  0.5278
42307SOL    HW130326   2.896   6.052   3.002 -0.2003 -0.1479 -1.1522
42307SOL    HW230327   3.030   6.026   2.936  0.3810  0.8294 -0.3783
42308SOL     OW30328   2.374  10.282   0.068 -0.3315  0.6645  0.0581
42308SOL    HW130329   2.465  10.263   0.094 -0.5380 -1.8563 -0.9813
42308SOL    HW230330   2.382  10.315  -0.021 -0.4548  0.2559 -0.1033
42309SOL     OW30331   6.605   3.720   1.566  0.1518  0.2808 -0.7780
42309SOL    HW130332   6.553   3.786   1.613  0.6846  1.0502 -1.2666
42309SOL    HW230333   6.540   3.659   1.531 -0.4393  1.3384 -1.5304
42310SOL     OW30334   7.940   7.215   5.804  0.5747  0.0413 -0.1161
42310SOL    HW130335   7.918   7.201   5.712 -0.0816  0.4411 -0.0230
42310SOL    HW230336   7.978   7.132   5.833  2.4814  0.5037 -1.2422
42311SOL     OW30337   2.352   3.912   6.675 -0.2830 -0.3969  0.0185
42311SOL    HW130338   2.294   3.845   6.639 -1.2178  0.8742 -0.8816
42311SOL    HW230339   2.314   3.934   6.760  0.4993 -1.5814  0.6976
42312SOL     OW30340   1.625   2.039   1.704 -0.0168 -0.6589 -0.0578
42312SOL    HW130341   1.678   2.042   1.784  0.1709 -0.9460 -0.1692
42312SOL    HW230342   1.603   1.947   1.694 -0.2548 -0.5855 -0.1983
42313SOL     OW30343   3.779   7.952   3.664 -0.4830  0.3895  0.2349
42313SOL    HW130344   3.696   7.910   3.687 -0.3586 -0.3651 -0.6420
42313SOL    HW230345   3.793   8.017   3.732 -0.9738 -0.6078  1.3164
42314SOL     OW30346   8.928   0.679   5.219  0.3521 -0.0780  0.0708
42314SOL    HW130347   8.995   0.650   5.280  0.4140 -2.4222 -1.0699
42314SOL    HW230348   8.931   0.615   5.147  0.6050  2.7954 -2.6175
42315SOL     OW30349   0.477   8.107   7.621 -0.6316 -0.0990  0.3684
42315SOL    HW130350   0.536   8.079   7.691 -2.4626  0.3790  2.1490
42315SOL    HW230351   0.513   8.190   7.592 -0.2577  0.0701  1.2794
42316SOL     OW30352   7.286  10.058   4.601 -0.2917  0.0098  0.4977
42316SOL    HW130353   7.304  10.038   4.509 -0.6863  0.9268  0.2237
42316SOL    HW230354   7.298  10.152   4.609  3.7107 -0.5360  2.2843
42317SOL     OW30355   0.300   7.762   9.838  0.5629 -0.0344  0.5503
42317SOL    HW130356   0.276   7.687   9.785  0.5299  1.2221 -1.2560
42317SOL    HW230357   0.301   7.729   9.928 -1.9638 -1.5392  0.0542
42318SOL     OW30358   8.670   6.030  10.814 -0.0220 -0.0607  0.1235
42318SOL    HW130359   8.654   6.074  10.898 -0.3662 -0.4355  0.2547
42318SOL    HW230360   8.589   6.042  10.765  0.7596  1.6065 -0.8174
42319SOL     OW30361  10.074   6.790  10.604 -0.2467  0.6662  0.2198
42319SOL    HW130362  10.090   6.751  10.691  3.8622  2.4214  0.3762
42319SOL    HW230363  10.015   6.863  10.622  2.0397  2.1817  1.9217
42320SOL     OW30364   3.715   7.314   8.440 -0.5223  0.1571  0.7312
42320SOL    HW130365   3.677   7.243   8.492  0.9198 -0.0864  1.4932
42320SOL    HW230366   3.790   7.273   8.396 -1.9201  0.2704 -1.8554
42321SOL     OW30367   7.196   6.731   6.135  0.1890 -0.1151  0.1877
42321SOL    HW130368   7.106   6.701   6.148  0.4252 -0.5306  0.9095
42321SOL    HW230369   7.238   6.660   6.086 -0.1047  0.4531 -0.8746
42322SOL     OW30370  10.119   9.608   1.253 -0.1067 -1.0707 -0.0215
42322SOL    HW130371  10.029   9.603   1.222 -0.8619  3.8576  0.9288
42322SOL    HW230372  10.164   9.663   1.189  2.2160 -3.2249 -0.3328
42323SOL     OW30373   9.773   8.766   6.911  0.3105  0.5291  0.5713
42323SOL    HW130374   9.827   8.764   6.990  3.2721  2.8146 -1.3326
42323SOL    HW230375   9.812   8.702   6.853  0.7586  1.9162 -0.6720
42324SOL     OW30376   0.906   6.104   3.667  0.0168 -0.0804  0.3098
42324SOL    HW130377   0.811   6.102   3.662  0.0626 -1.2079 -0.1881
42324SOL    HW230378   0.931   6.019   3.702  0.7641  0.8087  2.0177
42325SOL     OW30379   1.962   0.467   0.754  0.3630 -0.1785 -0.0931
42325SOL    HW130380   1.991   0.406   0.686  1.9241  1.0996 -0.6194
42325SOL    HW230381   1.930   0.543   0.706  0.0714  0.1207  0.5664
42326SOL     OW30382   1.596   2.339   4.467 -0.5577 -0.0205  0.5945
42326SOL    HW130383   1.516   2.372   4.426 -1.6150  0.6804  3.1068
42326SOL    HW230384   1.592   2.373   4.556  2.2262 -0.5437  0.9543
42327SOL     OW30385   7.811   7.187   9.015  0.1151 -0.1151 -0.5131
42327SOL    HW130386   7.757   7.213   9.090  0.0403  1.6146 -1.1504
42327SOL    HW230387   7.898   7.171   9.053 -0.3373 -0.9311  0.2008
42328SOL     OW30388   7.318  10.620   3.048 -0.2336 -0.0369  0.1445
42328SOL    HW130389   7.337  10.678   3.121  0.2148 -1.8380  1.4903
42328SOL    HW230390   7.373  10.653   2.976 -0.4897  1.5820  0.6761
42329SOL     OW30391   1.907   3.995   5.360 -0.1612  0.3504  0.2782
42329SOL    HW130392   1.840   4.038   5.412 -1.0725 -1.3118  0.5305
42329SOL    HW230393   1.966   4.065   5.333 -0.3300  1.4030  2.5508
42330SOL     OW30394   1.192   5.140   2.462 -0.1522 -0.0876  0.1033
42330SOL    HW130395   1.150   5.105   2.384  0.5630 -0.7650  0.0200
42330SOL    HW230396   1.286   5.129   2.446  0.0916  2.0290 -0.0047
42331SOL     OW30397  10.391   1.124   6.234  0.3183 -0.3889  0.1715
42331SOL    HW130398  10.304   1.156   6.254  0.1146 -0.9048  0.1131
42331SOL    HW230399  10.429   1.192   6.177  0.5957  0.6615  1.5899
42332SOL     OW30400   5.374   6.214   1.887  0.1122 -0.2609 -0.9159
42332SOL    HW130401   5.446   6.165   1.928  0.8708  1.6482  0.0940
42332SOL    HW230402   5.418   6.275   1.828 -0.6970  0.7404 -0.4841
42333SOL     OW30403   6.973   2.609   2.823 -0.5254  0.1078 -0.4178
42333SOL    HW130404   7.015   2.570   2.900 -0.6830  1.7021  0.5085
42333SOL    HW230405   6.916   2.541   2.789 -0.7790 -0.4855  1.1456
42334SOL     OW30406   7.587   5.020   4.685 -0.2974 -0.6753 -0.3598
42334SOL    HW130407   7.601   5.011   4.591 -1.8374 -2.8987 -0.4153
42334SOL    HW230408   7.506   5.070   4.693  0.1015 -0.0457 -0.1927
42335SOL     OW30409   5.090   6.234   1.758 -0.1556  0.4646  0.5062
42335SOL    HW130410   5.064   6.307   1.814  0.8892  0.0667  1.5381
42335SOL    HW230411   5.182   6.250   1.738 -0.0732 -0.2617  0.2709
42336SOL     OW30412   1.184   4.337   9.661 -0.1971 -0.2535  0.0689
42336SOL    HW130413   1.122   4.292   9.719 -0.5517  0.0570 -0.0723
42336SOL    HW230414   1.136   4.412   9.627 -0.4747 -1.2309 -1.7557
42337SOL     OW30415   8.944  10.028   8.884  0.3643 -0.0169  0.4838
42337SOL    HW130416   8.947  10.093   8.814  0.5977  0.1030  0.6071
42337SOL    HW230417   8.851  10.014   8.899  0.3138  0.6369  0.7853
42338SOL     OW30418   7.594   1.363   7.876  0.6995 -0.2860  0.3676
42338SOL    HW130419   7.528   1.408   7.930 -0.8262 -0.5932 -1.2030
42338SOL    HW230420   7.579   1.270   7.892  0.5824 -0.3640 -0.2000
42339SOL     OW30421   8.040   4.598   6.432 -0.2999 -0.6129  0.4617
42339SOL    HW130422   8.045   4.532   6.363 -0.6159  1.1994 -1.3330
42339SOL    HW230423   8.130   4.610   6.461  0.3574  1.0809 -2.0720
42340SOL     OW30424   4.142   4.816   4.457  0.3295  0.6485 -0.1945
42340SOL    HW130425   4.097   4.736   4.430 -1.9969  1.8128  0.0610
42340SOL    HW230426   4.163   4.860   4.375  1.0851  0.0764 -0.3177
42341SOL     OW30427   1.544   9.897   7.353  0.2209 -0.1917 -0.2196
42341SOL    HW130428   1.460   9.925   7.318  0.5429  0.4346 -0.5035
42341SOL    HW230429   1.527   9.881   7.446 -0.8445 -2.7089 -0.7982
42342SOL     OW30430   0.906   8.853   7.307  0.2136  0.0926  0.2587
42342SOL    HW130431   0.896   8.831   7.214 -2.6629 -1.9437  0.9615
42342SOL    HW230432   0.840   8.920   7.323  1.5352  1.3423  0.5985
42343SOL     OW30433   8.181   2.304   9.705  0.4922 -0.0096  0.2771
42343SOL    HW130434   8.129   2.372   9.747 -1.0385 -0.6500 -0.4981
42343SOL    HW230435   8.182   2.232   9.768  0.9230  0.2081  0.5211
42344SOL     OW30436   0.209   1.040  10.385 -0.0498 -0.4415  0.2479
42344SOL    HW130437   0.149   0.981  10.340 -1.5173  0.7739  0.5910
42344SOL    HW230438   0.267   1.072  10.316  0.1010 -1.4753 -0.1181
42345SOL     OW30439   7.151   1.044   4.581  0.7137 -0.0200 -0.1265
42345SOL    HW130440   7.203   0.995   4.644 -0.0346 -0.4950  0.1255
42345SOL    HW230441   7.193   1.027   4.497  0.1464 -1.5008 -0.1115
42346SOL     OW30442   8.061   7.322   3.839  0.3725 -0.4300 -0.5560
42346SOL    HW130443   7.972   7.337   3.868  0.5003 -0.8699  0.0782
42346SOL    HW230444   8.052   7.274   3.756  0.0277 -1.2076 -0.0771
42347SOL     OW30445   1.858   3.968   2.190  0.3447 -0.6629 -0.2885
42347SOL    HW130446   1.865   3.905   2.262  1.7250  0.0987  0.2480
42347SOL    HW230447   1.892   4.049   2.226  1.5873 -0.4159 -1.9817
42348SOL     OW30448   6.733   9.195   0.553  0.0017 -0.4324 -0.1657
42348SOL    HW130449   6.761   9.107   0.527  0.0321 -0.4076 -0.2192
42348SOL    HW230450   6.669   9.220   0.486  1.7195  0.5229 -1.4792
42349SOL     OW30451   2.182   3.155   6.279 -0.3752 -1.0555  0.3213
42349SOL    HW130452   2.268   3.146   6.318  0.6458 -1.0132 -1.8475
42349SOL    HW230453   2.168   3.250   6.271 -0.8341 -1.0528  1.1064
42350SOL     OW30454   7.493   7.868   6.003 -0.1166 -0.3980  0.1054
42350SOL    HW130455   7.482   7.963   5.999  2.2959 -0.1117 -0.0204
42350SOL    HW230456   7.424   7.834   5.946 -0.7471  1.2912 -0.1705
42351SOL     OW30457  10.145   9.465   0.359 -0.8899 -0.0209  0.0118
42351SOL    HW130458  10.126   9.475   0.453  0.4963 -2.3103  0.5684
42351SOL    HW230459  10.104   9.382   0.335 -0.2236 -0.0218 -1.1270
42352SOL     OW30460   3.914   7.501   0.918  0.5208  0.3887  0.2047
42352SOL    HW130461   3.867   7.418   0.905  0.9190 -0.0634  1.5285
42352SOL    HW230462   3.954   7.519   0.834  0.5655 -0.8569 -0.0567
42353SOL     OW30463   7.951   7.366   8.636  0.0825 -0.2166  0.0786
42353SOL    HW130464   7.944   7.278   8.673 -2.2764 -0.1207 -0.1164
42353SOL    HW230465   7.862   7.399   8.635  0.8818  2.0043 -0.3255
42354SOL     OW30466  10.695   7.251  10.344 -0.3265 -0.3020 -0.6681
42354SOL    HW130467  10.747   7.316  10.297 -0.1363 -0.6425 -0.9252
42354SOL    HW230468  10.723   7.167  10.308  0.3966 -0.6263  0.5873
42355SOL     OW30469   8.685   2.948   6.831 -0.0394 -0.3223  0.5363
42355SOL    HW130470   8.654   2.988   6.912 -1.2106 -2.2586  1.0849
42355SOL    HW230471   8.747   2.881   6.859  0.1739 -0.4391 -0.2061
42356SOL     OW30472   1.032   7.871   7.976 -0.3316  0.2741 -0.3910
42356SOL    HW130473   1.047   7.794   7.920 -1.0503 -1.5676  1.8667
42356SOL    HW230474   0.955   7.914   7.938 -0.8959 -1.0307 -0.7423
42357SOL     OW30475   6.675   2.501   2.318  0.4942 -0.0074 -0.0217
42357SOL    HW130476   6.633   2.433   2.371  0.4342  0.8126  0.9908
42357SOL    HW230477   6.621   2.506   2.239 -0.4133 -0.0528  0.5871
42358SOL     OW30478   8.544   5.140   4.077  0.3456 -0.4400  0.0658
42358SOL    HW130479   8.487   5.146   4.000  1.9482 -1.0142 -1.2052
42358SOL    HW230480   8.627   5.177   4.048  0.7151  0.1415  1.8113
42359SOL     OW30481   5.553   4.939   7.692  0.4388 -0.2637 -0.0122
42359SOL    HW130482   5.511   4.874   7.636  0.6942  0.3103 -0.8956
42359SOL    HW230483   5.507   5.021   7.672  1.9135  0.3547 -0.9377
42360SOL     OW30484   5.892   1.671   6.433  0.2834 -0.3315  0.1766
42360SOL    HW130485   5.927   1.695   6.519 -1.3606 -0.8374  0.9986
42360SOL    HW230486   5.952   1.603   6.401 -0.3422 -1.7196  1.8901
42361SOL     OW30487   5.674   1.153   3.067  0.4836 -0.1386 -0.0913
42361SOL    HW130488   5.629   1.114   3.142 -1.3093 -1.3763 -1.7697
42361SOL    HW230489   5.719   1.079   3.026  0.9217  0.4269 -0.6242
42362SOL     OW30490   0.823   1.355   6.737  0.1341 -0.1902 -0.3379
42362SOL    HW130491   0.804   1.297   6.811 -1.8111  0.4873 -0.2784
42362SOL    HW230492   0.812   1.300   6.660  2.0353 -0.8655 -0.1491
42363SOL     OW30493   5.196   4.621   2.194  0.0785  0.5258  0.0189
42363SOL    HW130494   5.252   4.689   2.155  0.3867 -0.6037 -1.5800
42363SOL    HW230495   5.247   4.587   2.267  1.2425 -0.0968 -1.0751
42364SOL     OW30496   1.036   3.610   9.122 -0.0362 -0.0014 -0.0233
42364SOL    HW130497   1.074   3.525   9.142  0.0437  0.5731  2.4076
42364SOL    HW230498   0.970   3.624   9.190  1.4114  2.7742  0.8975
42365SOL     OW30499   9.906   6.130   9.543 -0.3988  0.2676  0.8990
42365SOL    HW130500   9.984   6.158   9.590 -0.8435 -0.5104  2.1249
42365SOL    HW230501   9.848   6.097   9.612 -1.8376  0.9254  0.0226
42366SOL     OW30502   9.206   9.257   7.925  0.1394  0.1534 -0.1785
42366SOL    HW130503   9.247   9.241   7.840 -0.3281  0.5073 -0.4719
42366SOL    HW230504   9.236   9.344   7.950  1.6286 -0.6161  0.8126
42367SOL     OW30505   6.144   1.082   0.792 -0.3015  0.2115 -0.2079
42367SOL    HW130506   6.233   1.049   0.808 -0.8423 -1.5335 -0.7497
42367SOL    HW230507   6.127   1.063   0.700 -1.1649  0.7280 -0.1620
42368SOL     OW30508   0.792   2.891   7.879  0.0290 -0.2864  0.5357
42368SOL    HW130509   0.782   2.965   7.819 -0.0202 -2.7625 -2.6123
42368SOL    HW230510   0.741   2.916   7.956 -0.3275  2.7605 -0.6242
42369SOL     OW30511   9.719   8.076   1.678  0.0299  0.1050 -0.0380
42369SOL    HW130512   9.789   8.059   1.615 -0.0948  1.5562 -0.5779
42369SOL    HW230513   9.660   8.002   1.667 -0.7061  1.0094 -2.6392
42370SOL     OW30514   7.269   5.625   0.800 -0.3832 -0.4979  0.2772
42370SOL    HW130515   7.249   5.533   0.782 -0.5458 -0.6971  1.4385
42370SOL    HW230516   7.185   5.670   0.791 -0.6825 -0.7729  1.6229
42371SOL     OW30517   5.681   5.822   7.550 -0.0252 -0.6302 -0.1416
42371SOL    HW130518   5.624   5.864   7.486  1.3237  0.6918 -0.4913
42371SOL    HW230519   5.622   5.796   7.621 -1.1814 -0.0372 -0.8706
42372SOL     OW30520   7.843   6.455  10.778 -0.3298 -0.0051  0.0372
42372SOL    HW130521   7.933   6.425  10.791  0.5502  1.9004 -1.5078
42372SOL    HW230522   7.795   6.376  10.750  0.7574 -1.0927  1.1536
42373SOL     OW30523   5.131   6.627   0.832 -0.1782  0.1805  0.6257
42373SOL    HW130524   5.212   6.598   0.873 -0.8512 -2.5745  0.0801
42373SOL    HW230525   5.100   6.699   0.887  0.8314 -1.0237  2.7916
42374SOL     OW30526   7.316   5.104   1.109  0.2133  0.1744  0.7334
42374SOL    HW130527   7.369   5.157   1.169  0.9664 -0.1122  0.3272
42374SOL    HW230528   7.354   5.121   1.023 -0.5445  0.1900  0.4048
42375SOL     OW30529   5.470   8.924   8.667  0.3712  0.0931  0.3761
42375SOL    HW130530   5.449   8.999   8.611  0.5580  0.6804  1.0817
42375SOL    HW230531   5.435   8.947   8.753  0.3380 -0.6753  0.5737
42376SOL     OW30532   5.040   2.327   8.362 -1.5042  0.4657 -0.0787
42376SOL    HW130533   5.103   2.272   8.408 -0.8311  0.7026 -0.7038
42376SOL    HW230534   4.973   2.347   8.427 -0.4580  0.9650  0.8562
42377SOL     OW30535   2.098   5.048   3.864  0.1106  0.2203 -0.2747
42377SOL    HW130536   2.083   5.044   3.769  1.1867 -0.2396 -0.4288
42377SOL    HW230537   2.151   5.126   3.877  0.6709 -0.1813 -0.1452
42378SOL     OW30538  10.682   9.023   0.425  0.9067 -0.0959  0.0001
42378SOL    HW130539  10.701   9.116   0.436  1.8454 -0.1609 -1.0033
42378SOL    HW230540  10.666   8.991   0.514 -1.5455  1.4555  0.1791
42379SOL     OW30541   5.347   4.386   1.701 -0.2152 -0.1540 -0.4635
42379SOL    HW130542   5.411   4.344   1.644 -0.9393 -0.5985 -0.9561
42379SOL    HW230543   5.269   4.396   1.647 -0.6380  0.1810  0.1961
42380SOL     OW30544   7.081   4.327   1.783 -0.2882 -0.1762  0.0783
42380SOL    HW130545   7.029   4.342   1.705 -0.0284 -2.0021 -0.4651
42380SOL    HW230546   7.021   4.286   1.845 -0.8523  2.4445  1.3626
42381SOL     OW30547   6.327   6.683  10.273  0.7455  0.4209  0.3791
42381SOL    HW130548   6.385   6.607  10.257  0.3109  0.2164 -0.2609
42381SOL    HW230549   6.277   6.659  10.351 -0.0187 -0.3411 -0.3284
42382SOL     OW30550   2.511   5.643   4.996  0.1476 -1.2009  0.4338
42382SOL    HW130551   2.453   5.718   4.999  1.0065 -0.4565 -0.9592
42382SOL    HW230552   2.564   5.649   5.076  1.6172  0.8352 -0.6583
42383SOL     OW30553   1.981   5.257   1.171  0.1044 -0.0714 -0.5802
42383SOL    HW130554   1.941   5.327   1.222 -2.2070 -0.3746 -1.9138
42383SOL    HW230555   1.923   5.182   1.183  1.1292 -0.9838 -1.2846
42384SOL     OW30556   0.398   1.796   6.442  0.0055  0.3803  0.2301
42384SOL    HW130557   0.481   1.784   6.488  0.2256  0.4995 -0.1361
42384SOL    HW230558   0.408   1.745   6.361 -0.2372  0.4779  0.1383
42385SOL     OW30559   1.888   3.936   0.179 -0.1717  0.4433 -0.4761
42385SOL    HW130560   1.820   4.000   0.199 -0.0468  0.5129 -0.2830
42385SOL    HW230561   1.839   3.856   0.157 -0.2822 -0.2578  2.1643
42386SOL     OW30562   5.135   1.494   1.909 -0.1069 -1.0208 -0.0622
42386SOL    HW130563   5.181   1.431   1.854  0.7555 -0.7546  0.3393
42386SOL    HW230564   5.064   1.526   1.855 -0.9676 -2.8356 -0.0453
42387SOL     OW30565   3.118   0.187   2.215 -0.6672 -0.0443  0.0666
42387SOL    HW130566   3.058   0.259   2.234  2.0532  2.1963  0.3408
42387SOL    HW230567   3.098   0.163   2.124 -1.2116  1.4365 -0.2197
42388SOL     OW30568   9.296   7.001   3.712  0.9203  0.1651 -0.3619
42388SOL    HW130569   9.295   7.023   3.619 -0.3748 -0.3110 -0.4803
42388SOL    HW230570   9.203   7.001   3.737  1.2457  0.0502  0.8663
42389SOL     OW30571   5.408   2.509   1.088  0.3925 -0.0854  0.1455
42389SOL    HW130572   5.337   2.538   1.030  0.2760 -0.4266  0.1185
42389SOL    HW230573   5.469   2.583   1.089 -0.5422  0.6955  1.1343
42390SOL     OW30574  10.330   7.669   1.032  0.5124  0.2098 -0.3392
42390SOL    HW130575  10.352   7.754   0.992  1.4854  0.2746  0.2998
42390SOL    HW230576  10.259   7.635   0.979  0.5860  1.1137 -1.0344
42391SOL     OW30577   5.043   2.208   8.700 -0.0782 -0.3368  0.5080
42391SOL    HW130578   5.060   2.284   8.756 -1.4273  0.8472 -0.6325
42391SOL    HW230579   5.121   2.199   8.646  0.3172 -0.1127  1.0424
42392SOL     OW30580   2.747   5.535   7.115 -0.3249 -0.3003  0.6628
42392SOL    HW130581   2.808   5.599   7.152 -0.0079 -0.2474  0.0632
42392SOL    HW230582   2.695   5.505   7.189 -2.5462  2.9150  0.5300
42393SOL     OW30583   9.132   6.789   3.188  0.0032  0.6024 -0.1764
42393SOL    HW130584   9.062   6.848   3.162 -0.8472 -0.2997  0.0222
42393SOL    HW230585   9.123   6.780   3.282  0.5287  0.6566 -0.1175
42394SOL     OW30586   4.747   7.497   2.773 -0.0601 -0.2515  0.1507
42394SOL    HW130587   4.724   7.567   2.834  2.6614  0.6719  0.1529
42394SOL    HW230588   4.690   7.425   2.798 -3.5418  2.1651 -0.3658
42395SOL     OW30589   5.958   0.880   1.554 -0.0729  0.3942 -0.4199
42395SOL    HW130590   6.052   0.875   1.539 -0.2556 -2.2592 -0.8214
42395SOL    HW230591   5.919   0.869   1.467 -0.7725  0.8982 -0.1779
42396SOL     OW30592   4.240   6.786   2.965 -0.1052 -0.4536 -0.1734
42396SOL    HW130593   4.209   6.723   2.900  0.0016  0.7571 -1.4197
42396SOL    HW230594   4.336   6.777   2.964 -0.1822 -1.5647  0.9920
42397SOL     OW30595   1.358   1.339   8.275  0.1957  0.1398 -0.6088
42397SOL    HW130596   1.363   1.286   8.355  0.4702  0.6756 -0.2745
42397SOL    HW230597   1.443   1.381   8.267  0.2494 -0.0863 -1.3105
42398SOL     OW30598   4.065   7.695   8.521  0.1260  0.5444  0.0118
42398SOL    HW130599   3.995   7.658   8.467  2.7641 -4.1067 -0.4998
42398SOL    HW230600   4.041   7.670   8.611  0.4663  0.0715 -0.0278
42399SOL     OW30601   7.469   1.733   4.654 -0.1390  0.5002 -0.2323
42399SOL    HW130602   7.409   1.760   4.723 -1.1678 -0.4834 -0.7447
42399SOL    HW230603   7.496   1.645   4.679  1.5833  1.1461  0.3114
42400SOL     OW30604   5.912   1.968   8.086  0.0417 -0.1144 -0.3214
42400SOL    HW130605   5.883   1.920   8.009 -0.7901  0.4637 -0.3771
42400SOL    HW230606   6.002   1.993   8.067 -0.2564  0.2829 -1.2324
42401SOL     OW30607   6.876   8.432   7.030  0.7164 -0.3156  0.8811
42401SOL    HW130608   6.890   8.471   7.117  0.4334  0.4752  0.5832
42401SOL    HW230609   6.793   8.385   7.038  1.0787 -0.8956  1.2571
42402SOL     OW30610   5.197   8.538  10.402  0.3261 -0.5830  0.1133
42402SOL    HW130611   5.236   8.577  10.480 -0.5451 -0.9364  0.7352
42402SOL    HW230612   5.103   8.550  10.413  0.2039 -0.3773 -1.0312
42403SOL     OW30613   0.653   0.647   8.994 -0.4137  0.0478  0.2022
42403SOL    HW130614   0.623   0.650   9.084  1.3359  1.8486  0.7622
42403SOL    HW230615   0.744   0.616   8.999  0.0376  1.1426 -0.8166
42404SOL     OW30616  10.358   0.719  10.618 -0.1865  0.6625  0.0819
42404SOL    HW130617  10.388   0.767  10.695 -0.3426 -0.2969  0.7427
42404SOL    HW230618  10.285   0.771  10.584 -1.4373  0.0320  1.7520
42405SOL     OW30619   7.773   9.049   3.374 -0.7194 -0.1903  0.8732
42405SOL    HW130620   7.805   8.974   3.424 -0.2090 -0.1794  0.5650
42405SOL    HW230621   7.797   9.125   3.428 -0.6711 -0.2135  0.8849
42406SOL     OW30622   1.236   5.102   8.394  0.1240  0.1954  0.0269
42406SOL    HW130623   1.203   5.036   8.332 -0.6580  0.7970 -0.2056
42406SOL    HW230624   1.168   5.108   8.461  0.6687  0.0251  0.5928
42407SOL     OW30625   7.251   6.399   4.407  0.1087  0.0902 -0.1588
42407SOL    HW130626   7.199   6.451   4.346  1.4590  0.3074 -1.1641
42407SOL    HW230627   7.247   6.447   4.489  0.5088  1.2582 -0.8126
42408SOL     OW30628   7.824   1.408   5.330 -0.7744  0.1440  0.4007
42408SOL    HW130629   7.748   1.462   5.354 -0.8879  0.0024  0.3591
42408SOL    HW230630   7.786   1.332   5.286 -0.5666  0.4222 -0.2644
42409SOL     OW30631   6.569   6.938   6.421 -0.3378  0.6843  0.0665
42409SOL    HW130632   6.518   6.954   6.501 -1.6942  0.6849 -0.7848
42409SOL    HW230633   6.565   7.020   6.373  0.2260  0.5893 -0.1488
42410SOL     OW30634   4.956   8.217   4.912  0.1431  0.1146 -0.4028
42410SOL    HW130635   4.943   8.251   4.823 -0.7196  2.5673  0.6005
42410SOL    HW230636   4.870   8.185   4.939  0.5186 -1.1124 -0.6162
42411SOL     OW30637   0.266   9.922   1.603  0.0839  0.0817 -0.1192
42411SOL    HW130638   0.210   9.999   1.610  0.4768  0.3234  0.4560
42411SOL    HW230639   0.210   9.849   1.627  0.4698  0.5166  2.2310
42412SOL     OW30640   6.984   0.276   3.346  0.0238 -0.5793 -0.3770
42412SOL    HW130641   6.962   0.366   3.320 -0.4579 -0.4306  0.5418
42412SOL    HW230642   6.972   0.225   3.266  2.8692  0.5731 -1.6472
42413SOL     OW30643   7.741   7.913   9.659  0.1780  0.0126  0.4906
42413SOL    HW130644   7.812   7.899   9.721  0.9117  2.5975  0.2827
42413SOL    HW230645   7.724   8.008   9.663 -2.0486 -0.3012 -0.7551
42414SOL     OW30646   6.078   8.208   6.888  0.3795  0.1924  0.4487
42414SOL    HW130647   6.086   8.137   6.952  0.7699 -1.7144 -1.6470
42414SOL    HW230648   5.983   8.220   6.878  0.2790 -1.4555 -0.6858
42415SOL     OW30649   5.768   3.885   2.499  0.7744  0.0855 -0.2641
42415SOL    HW130650   5.771   3.961   2.441  3.4505 -0.5267 -1.0281
42415SOL    HW230651   5.788   3.811   2.442  0.1448 -0.9611  0.8392
42416SOL     OW30652   4.072   2.460   1.941 -0.3908 -0.3164 -0.5186
42416SOL    HW130653   4.063   2.365   1.933 -0.3132 -0.4121  0.5375
42416SOL    HW230654   4.097   2.475   2.032  0.4986  0.6517 -0.9096
42417SOL     OW30655   4.380   7.511   1.209 -0.1943  0.7088  0.7430
42417SOL    HW130656   4.405   7.466   1.128  2.2496  0.5164  1.5614
42417SOL    HW230657   4.298   7.470   1.236  0.4933 -1.2529 -0.0792
42418SOL     OW30658   7.355   7.275   3.471 -0.1681  0.2720  0.1291
42418SOL    HW130659   7.402   7.347   3.512 -1.6412  0.8338  0.8521
42418SOL    HW230660   7.394   7.196   3.509 -1.2090  0.7785  2.3321
42419SOL     OW30661  10.218   3.533   4.829 -0.0846  0.0517 -0.1475
42419SOL    HW130662  10.173   3.464   4.780  0.3410  1.2391 -2.2649
42419SOL    HW230663  10.150   3.570   4.886 -1.6028  1.1934 -2.6132
42420SOL     OW30664   0.761   8.552   7.539 -0.1343 -0.0230  0.8466
42420SOL    HW130665   0.679   8.508   7.518 -1.1389  0.6955  3.1084
42420SOL    HW230666   0.738   8.613   7.610  2.6060 -0.7152  2.3907
42421SOL     OW30667   4.212  10.753   5.707  0.3066  0.5850  0.5543
42421SOL    HW130668   4.240  10.752   5.799  0.5184 -0.6576  0.4766
42421SOL    HW230669   4.126  10.711   5.707  0.2350  0.7267  0.2021
42422SOL     OW30670   0.538   1.655   0.801 -0.4002  0.1913 -0.3957
42422SOL    HW130671   0.458   1.659   0.853 -0.1413  0.0215  0.0137
42422SOL    HW230672   0.508   1.637   0.712 -0.7596 -0.6925 -0.0973
42423SOL     OW30673   2.478   3.780   1.123 -0.0010 -1.0021  0.1979
42423SOL    HW130674   2.569   3.808   1.129  0.2574 -1.9212  0.6883
42423SOL    HW230675   2.454   3.754   1.212 -0.5800 -1.2584 -0.0285
42424SOL     OW30676   7.813   0.397   7.716 -0.2637  0.6813  0.3817
42424SOL    HW130677   7.759   0.323   7.743  0.1411  0.6501  1.1278
42424SOL    HW230678   7.752   0.457   7.673 -0.8075  0.4511  0.8298
42425SOL     OW30679   7.003   6.158   6.087 -0.3501  0.4873  0.2617
42425SOL    HW130680   7.090   6.181   6.055 -0.8017  0.0016 -1.3611
42425SOL    HW230681   6.983   6.226   6.152  0.2655  1.9900 -1.0718
42426SOL     OW30682   6.023   9.679   0.683  0.8079 -0.5539  0.3155
42426SOL    HW130683   5.929   9.663   0.676  0.9841 -2.3514  1.5782
42426SOL    HW230684   6.031   9.773   0.699 -0.8824 -0.6282  1.7291
42427SOL     OW30685   1.452  10.949   2.956 -0.5693 -0.3214  0.0644
42427SOL    HW130686   1.493  11.015   3.012 -1.4844  0.5415 -0.2640
42427SOL    HW230687   1.522  10.919   2.898 -0.3087  0.8606 -0.2403
42428SOL     OW30688   4.299   6.876   4.017  0.0512  0.2031 -0.4673
42428SOL    HW130689   4.275   6.833   4.100  1.4059 -0.7970 -0.5701
42428SOL    HW230690   4.334   6.961   4.043 -2.4189  1.1862 -0.2379
42429SOL     OW30691   1.108   9.053   4.424  0.8314 -0.3261  0.7474
42429SOL    HW130692   1.131   9.063   4.517  1.5883  2.7139  0.3011
42429SOL    HW230693   1.136   9.135   4.384  0.3673 -1.5297 -2.1716
42430SOL     OW30694   9.066   0.111   5.784  0.1630 -0.0708 -0.9159
42430SOL    HW130695   9.026   0.177   5.728 -2.1032 -1.1866 -0.6622
42430SOL    HW230696   9.078   0.156   5.868 -1.7180 -0.0528 -0.6277
42431SOL     OW30697   2.123   2.709   3.086 -0.3995 -0.3874 -0.4229
42431SOL    HW130698   2.187   2.655   3.134 -1.0072 -0.9045 -0.1847
42431SOL    HW230699   2.057   2.646   3.057 -1.3113  0.3048  0.1739
42432SOL     OW30700   1.750   0.334  10.634 -0.5541 -0.3643 -0.9228
42432SOL    HW130701   1.792   0.270  10.577 -0.9185 -0.0023 -1.6009
42432SOL    HW230702   1.803   0.413  10.626  0.5524 -0.8862  0.7750
42433SOL     OW30703   3.392   3.016  10.911 -0.0762  0.2956  0.0174
42433SOL    HW130704   3.438   3.010  10.827 -0.1046  3.6281 -0.3079
42433SOL    HW230705   3.314   2.962  10.899  2.1134 -2.9139 -0.4916
42434SOL     OW30706   0.517   3.504   2.256 -0.0960  0.6379 -0.0463
42434SOL    HW130707   0.538   3.589   2.217 -1.3944  0.9479 -0.1144
42434SOL    HW230708   0.537   3.440   2.188 -0.8425  1.0476 -0.6600
42435SOL     OW30709   1.231   3.202   9.499 -0.3897  0.6423  0.7878
42435SOL    HW130710   1.243   3.236   9.588  1.0271  0.2355  0.7550
42435SOL    HW230711   1.231   3.107   9.509 -2.0864  0.5964  0.5742
42436SOL     OW30712   2.615  10.088   4.582  0.0827 -0.0685 -0.1964
42436SOL    HW130713   2.708  10.064   4.585 -0.0283 -0.3833  2.0416
42436SOL    HW230714   2.581  10.044   4.505  1.8460  0.2567 -1.1863
42437SOL     OW30715   9.657   6.032   9.025  0.6576 -0.2140 -0.2346
42437SOL    HW130716   9.706   6.112   9.005  0.8766 -0.1557  0.5086
42437SOL    HW230717   9.682   6.010   9.115 -0.2655 -0.4929 -0.0390
42438SOL     OW30718   1.894   6.331  10.093 -0.2972  0.0857  0.0990
42438SOL    HW130719   1.871   6.383  10.016  1.1912 -0.1162 -0.4944
42438SOL    HW230720   1.959   6.384  10.139  0.5056 -0.8072  0.0019
42439SOL     OW30721   8.192   3.488   9.209  0.5960 -0.1621 -0.3138
42439SOL    HW130722   8.238   3.503   9.127  1.8666 -1.2943  0.1676
42439SOL    HW230723   8.177   3.576   9.245 -1.2129  0.4094 -2.3966
42440SOL     OW30724   5.807   7.000   3.584  0.8940  0.4998  0.0791
42440SOL    HW130725   5.892   7.010   3.625  2.5228  1.2391 -3.2525
42440SOL    HW230726   5.825   6.953   3.503 -1.9641  0.1387 -0.4108
42441SOL     OW30727   2.130   9.631   6.460  0.2692  0.3818 -0.3253
42441SOL    HW130728   2.157   9.591   6.377 -1.1700  0.9528 -1.0925
42441SOL    HW230729   2.182   9.711   6.466  2.0282 -0.7821  0.4549
42442SOL     OW30730  10.638   3.972   8.845 -0.3281 -0.0333  0.1315
42442SOL    HW130731  10.724   3.980   8.803 -1.1479  0.9284 -1.4093
42442SOL    HW230732  10.645   3.894   8.900  1.3372 -0.3061 -0.4472
42443SOL     OW30733   4.962   9.177  10.357  0.6736  0.1809 -0.5360
42443SOL    HW130734   5.011   9.206  10.435 -0.6872  0.5685  0.1854
42443SOL    HW230735   4.989   9.238  10.288  0.5663  0.9194  0.0689
42444SOL     OW30736   1.053   0.129   5.898  0.2219 -0.2786  0.1194
42444SOL    HW130737   1.103   0.167   5.970  2.1311 -1.1519 -0.6913
42444SOL    HW230738   0.969   0.105   5.936  1.6986 -2.0022  2.4147
42445SOL     OW30739   4.872   3.754   4.424  0.1142  0.1069 -0.3482
42445SOL    HW130740   4.865   3.688   4.355  0.6122  1.2355 -1.4905
42445SOL    HW230741   4.895   3.835   4.378  1.2164  0.7073  1.2069
42446SOL     OW30742   3.487   8.013   4.301 -0.6967  0.3420  0.0836
42446SOL    HW130743   3.394   7.994   4.314 -0.2902 -0.5141  1.8631
42446SOL    HW230744   3.489   8.100   4.261 -2.2249  0.7534  0.8931
42447SOL     OW30745   0.756   5.177   9.315  0.0030  0.2048 -0.0007
42447SOL    HW130746   0.681   5.127   9.283  0.2696 -0.2464  0.0750
42447SOL    HW230747   0.751   5.168   9.411  0.5001 -0.3370 -0.0224
42448SOL     OW30748   4.628   4.262   9.871 -0.3882  0.1137  0.1775
42448SOL    HW130749   4.720   4.288   9.872 -0.5948  1.1040 -2.0001
42448SOL    HW230750   4.625   4.184   9.816 -0.6034 -1.0571  1.8182
42449SOL     OW30751   8.352   3.816  10.009 -0.3310  0.6276 -0.7654
42449SOL    HW130752   8.405   3.833   9.931  1.9094  2.6695  1.1328
42449SOL    HW230753   8.287   3.886  10.010 -2.8516 -1.5590 -2.7882
42450SOL     OW30754  10.085   2.472   5.872  0.6304 -0.1915  0.2130
42450SOL    HW130755  10.050   2.526   5.942 -0.2493 -0.1837 -0.2208
42450SOL    HW230756  10.153   2.526   5.831 -2.1963  1.8236 -2.0838
42451SOL     OW30757   7.584   0.115   4.967 -0.0309 -0.1104 -0.6613
42451SOL    HW130758   7.625   0.179   5.026 -2.3606 -0.0784  0.9882
42451SOL    HW230759   7.540   0.054   5.025 -1.6074 -0.6198 -2.3654
42452SOL     OW30760  10.299   6.759   7.397 -0.2980 -0.0773 -0.0159
42452SOL    HW130761  10.385   6.740   7.435  0.6432  0.2357 -1.9138
42452SOL    HW230762  10.289   6.695   7.327 -1.6909 -0.1989  0.2776
42453SOL     OW30763  10.907   2.409   3.482  0.4746  0.2728 -0.0678
42453SOL    HW130764  10.942   2.364   3.559  0.3108 -0.3393 -0.3502
42453SOL    HW230765  10.813   2.411   3.495  0.4269 -0.0235 -0.3515
42454SOL     OW30766   2.366   6.463   7.008  0.1039  0.2356  0.0384
42454SOL    HW130767   2.451   6.435   6.975  0.0599  0.4722 -0.2739
42454SOL    HW230768   2.364   6.432   7.099  1.4512  2.2432  0.7792
42455SOL     OW30769   0.787  10.181   4.415 -0.4915  0.4597  1.1317
42455SOL    HW130770   0.695  10.172   4.442 -0.4539 -0.5381  0.9220
42455SOL    HW230771   0.837  10.142   4.487 -0.3194 -0.8009  0.3272
42456SOL     OW30772   1.870   4.001   8.404 -0.1226  0.4371  0.1626
42456SOL    HW130773   1.918   4.040   8.330  0.3068 -1.7501 -0.7519
42456SOL    HW230774   1.847   4.076   8.459 -0.1552  2.0855 -2.0049
42457SOL     OW30775   0.667   5.790   9.415 -0.5934  0.3131 -0.0433
42457SOL    HW130776   0.726   5.854   9.377  0.1488 -0.4895 -0.2626
42457SOL    HW230777   0.673   5.804   9.510  0.3307 -0.0939 -0.0414
42458SOL     OW30778   3.352  10.619   7.269 -0.0010 -0.4404 -0.0235
42458SOL    HW130779   3.267  10.576   7.272  0.3007 -1.1333 -1.0040
42458SOL    HW230780   3.332  10.710   7.247 -0.4702 -0.6749 -0.5857
42459SOL     OW30781   1.202   1.932   7.264  0.1435  0.1380  0.7489
42459SOL    HW130782   1.249   1.918   7.182 -2.7875 -0.2685 -0.9518
42459SOL    HW230783   1.270   1.948   7.329  2.5055  1.4542 -1.9559
42460SOL     OW30784   4.964   4.143   1.160  0.3078 -0.6354  0.0028
42460SOL    HW130785   4.955   4.048   1.151  0.3717 -0.8293  1.7973
42460SOL    HW230786   4.928   4.163   1.247  2.2353  0.6891  0.5373
42461SOL     OW30787   8.651   1.357   9.547 -0.2431  0.8570 -0.3145
42461SOL    HW130788   8.658   1.346   9.642  1.4541 -0.1055 -0.5404
42461SOL    HW230789   8.584   1.293   9.521  0.8231 -0.4112 -0.0199
42462SOL     OW30790   5.854   3.665   3.328  0.2594 -0.1587  0.2635
42462SOL    HW130791   5.855   3.601   3.257 -0.8345  1.2800 -1.0762
42462SOL    HW230792   5.817   3.618   3.402  0.5675 -1.4124 -0.3609
42463SOL     OW30793   0.746  10.974   5.741 -0.1739 -0.1188 -0.4117
42463SOL    HW130794   0.740  10.988   5.835 -1.2076  2.9714 -0.8634
42463SOL    HW230795   0.811  10.904   5.731  0.1271 -0.3317  2.5606
42464SOL     OW30796   8.621   4.052   6.058  0.1872 -0.1103 -0.0687
42464SOL    HW130797   8.591   4.127   6.109  0.2218  1.3772 -2.1691
42464SOL    HW230798   8.542   4.017   6.017  0.5346  0.4977 -1.2904
42465SOL     OW30799   3.437   8.841   0.726 -0.4226 -0.2274  0.3201
42465SOL    HW130800   3.437   8.747   0.708 -0.9941 -0.2919  0.6257
42465SOL    HW230801   3.370   8.877   0.669 -2.3739 -0.4617  2.4058
42466SOL     OW30802   0.026   6.320   6.788 -0.3418 -0.1125  0.2988
42466SOL    HW130803   0.111   6.277   6.796 -1.0085 -1.7059 -0.8349
42466SOL    HW230804   0.043   6.412   6.809  1.6318 -0.4279  0.1663
42467SOL     OW30805   1.841  10.153   1.131  0.3216 -0.1284  0.0540
42467SOL    HW130806   1.862  10.142   1.223 -0.8074 -0.8019  0.2381
42467SOL    HW230807   1.848  10.247   1.115 -0.9408  0.1677  1.1872
42468SOL     OW30808   9.545   0.760   5.677  0.4101  0.2562 -0.2320
42468SOL    HW130809   9.464   0.810   5.692  0.0819 -0.1799 -0.5563
42468SOL    HW230810   9.587   0.756   5.763  0.4629  1.1331 -0.2098
42469SOL     OW30811   6.623   8.854   1.702  0.1174 -0.5657 -0.2238
42469SOL    HW130812   6.691   8.849   1.634  0.4854 -1.1377  0.1730
42469SOL    HW230813   6.616   8.947   1.722  1.6037 -0.6013  0.5312
42470SOL     OW30814   8.330   6.624  10.350 -0.4832  0.1452 -0.4012
42470SOL    HW130815   8.248   6.634  10.300  0.0158 -0.1916 -1.3030
42470SOL    HW230816   8.302   6.624  10.441 -1.4456  0.5473 -0.6802
42471SOL     OW30817   6.767   6.025   4.236 -0.0696  0.5121  0.7717
42471SOL    HW130818   6.740   5.957   4.174 -0.1837  0.6376  0.6819
42471SOL    HW230819   6.741   6.107   4.194  1.2591  0.6891  0.2915
42472SOL     OW30820  10.395   0.205   2.731 -0.2181 -0.7947  0.2634
42472SOL    HW130821  10.352   0.290   2.732  3.2534  1.0587 -0.5637
42472SOL    HW230822  10.393   0.176   2.822 -0.4432  0.7297  0.7551
42473SOL     OW30823   3.006   4.405  10.298  0.1551  0.3130  0.1507
42473SOL    HW130824   3.000   4.485  10.350  0.8180 -0.5722  1.6215
42473SOL    HW230825   2.974   4.336  10.357  0.0326 -0.5673 -0.9384
42474SOL     OW30826   6.332   9.945   1.879 -0.5086  0.3085  0.1472
42474SOL    HW130827   6.311   9.868   1.827  0.0309 -0.4417  1.0253
42474SOL    HW230828   6.248   9.973   1.915 -0.4544 -0.9830  1.3311
42475SOL     OW30829   6.599  10.263   9.407  0.2821 -0.2564 -0.4603
42475SOL    HW130830   6.565  10.345   9.371 -0.5397 -0.6486 -0.5926
42475SOL    HW230831   6.693  10.268   9.394  0.4237  1.4083  1.0365
42476SOL     OW30832   5.809   3.204   6.743 -0.5116 -0.3725  0.4935
42476SOL    HW130833   5.758   3.143   6.690  0.5124 -1.5562  0.8529
42476SOL    HW230834   5.761   3.209   6.826 -0.9520 -0.1874  0.2257
42477SOL     OW30835   0.892   5.786   5.059 -0.2190  0.0731 -0.4557
42477SOL    HW130836   0.862   5.858   5.114  0.2278 -0.4519  0.4952
42477SOL    HW230837   0.839   5.792   4.980  1.2265  2.6992 -1.2833
42478SOL     OW30838   0.288   9.949   9.382  0.2513  0.0508  0.4165
42478SOL    HW130839   0.269  10.011   9.312  0.5455  0.8805  1.0570
42478SOL    HW230840   0.263   9.996   9.462 -1.8865 -1.5639  0.7447
42479SOL     OW30841   1.908   8.667   4.899  0.2502  0.0788 -0.1117
42479SOL    HW130842   1.996   8.664   4.934 -0.0589  0.9948  0.7546
42479SOL    HW230843   1.919   8.693   4.807  0.7865  1.3208  0.3107
42480SOL     OW30844  10.202   0.661   1.678 -0.3241  0.6761 -0.0854
42480SOL    HW130845  10.232   0.663   1.588  0.4196 -0.6633  0.1240
42480SOL    HW230846  10.224   0.748   1.713  1.4387  0.4308 -0.5405
42481SOL     OW30847   2.337   7.010  10.001 -0.0230 -0.0687 -0.7097
42481SOL    HW130848   2.359   7.060   9.922  1.4590  1.0763  0.4069
42481SOL    HW230849   2.389   6.930   9.993 -0.5106 -0.3301 -1.3000
42482SOL     OW30850   5.431  10.280   2.971  0.3304 -0.6460  0.1602
42482SOL    HW130851   5.489  10.347   3.008  2.1411 -2.2032  0.2304
42482SOL    HW230852   5.414  10.220   3.044  0.5536 -1.4697 -0.4582
42483SOL     OW30853   2.680   2.228   6.810  0.8900  0.0873 -0.2141
42483SOL    HW130854   2.592   2.235   6.771  0.5572 -0.7490  0.3543
42483SOL    HW230855   2.699   2.134   6.807  0.8420 -0.0062  1.6414
42484SOL     OW30856   7.217   3.717   0.919 -0.1403 -0.5921 -0.0602
42484SOL    HW130857   7.143   3.703   0.860  0.4931 -1.3491 -0.6920
42484SOL    HW230858   7.192   3.794   0.971 -1.8943 -1.5686  0.5876
42485SOL     OW30859   1.750   6.895   6.344  0.1386 -0.2506 -0.2461
42485SOL    HW130860   1.796   6.874   6.425  0.4043  0.8986 -0.0837
42485SOL    HW230861   1.706   6.978   6.362 -1.3242 -0.9230 -0.6741
42486SOL     OW30862   5.113   0.685   0.710  0.3469  0.1501 -0.4560
42486SOL    HW130863   5.042   0.652   0.765 -0.7617  1.9836 -0.7383
42486SOL    HW230864   5.185   0.702   0.771 -0.2302  0.3843  0.1633
42487SOL     OW30865   6.689  10.968   7.397  0.1365  0.1801  0.1894
42487SOL    HW130866   6.673  10.956   7.490 -0.6412  4.4677  0.6897
42487SOL    HW230867   6.619  10.920   7.354 -1.5282  1.0333  1.8938
42488SOL     OW30868   2.834   9.347   1.764 -0.2541  0.3762  0.5283
42488SOL    HW130869   2.748   9.331   1.802 -0.0570 -0.1884  0.7396
42488SOL    HW230870   2.896   9.311   1.827  0.0588 -0.8654 -0.4720
42489SOL     OW30871   1.466  10.905   5.021 -0.2217  0.6975 -0.2982
42489SOL    HW130872   1.544  10.897   5.076 -0.0378  1.3738 -0.4593
42489SOL    HW230873   1.396  10.868   5.075 -0.0141  1.2073  0.3418
42490SOL     OW30874   9.031   6.509   8.414  0.0983 -0.0866  0.3251
42490SOL    HW130875   9.087   6.460   8.354 -0.0722  1.7464 -1.3810
42490SOL    HW230876   9.070   6.495   8.500  0.9293 -1.9373 -0.3245
42491SOL     OW30877   1.637   3.665   6.550  0.4113  0.1964 -0.2418
42491SOL    HW130878   1.605   3.586   6.506 -1.3710 -0.1885  1.6752
42491SOL    HW230879   1.671   3.635   6.633 -0.8851  1.4968  0.8005
42492SOL     OW30880   5.067   7.207   0.719 -0.0229 -1.2537 -0.1073
42492SOL    HW130881   4.976   7.228   0.697 -0.0213 -0.6395  0.4552
42492SOL    HW230882   5.072   7.111   0.713 -0.9556 -1.3691  0.7932
42493NA      NA30883   4.580   2.774   0.622  0.3355  0.0957 -0.0705
42494NA      NA30884   9.636   2.982   0.233  0.1054  0.1249 -0.2682
42495NA      NA30885   5.426  10.417   2.391  0.0148 -0.1830 -0.2392
42496NA      NA30886   1.779   2.710  10.410 -0.1447  0.1162 -0.4308
42497NA      NA30887   2.690   4.574   4.946 -0.3076 -0.0586  0.3572
42498NA      NA30888   2.108   3.945   4.680  0.3336 -0.2284 -0.1982
42499NA      NA30889   9.330  10.799   2.445 -0.4963 -0.1077  0.0091
42500NA      NA30890   7.031   0.794   6.911 -0.0319  0.8284 -0.3062
42501NA      NA30891   7.691   7.668   1.573  0.3917  0.1904 -0.4317
42502NA      NA30892   5.929   9.635  10.558 -0.2703 -0.1205 -0.0673
42503NA      NA30893   6.325   5.808   5.380 -0.0531  0.0227 -0.6397
42504NA      NA30894   5.749   8.323   5.525  0.0963 -0.1831  0.1721
42505NA      NA30895   5.545   3.330   0.768  0.1187  0.0800  0.1192
42506NA      NA30896   3.074   1.262   5.810  0.3737  0.3741 -0.2254
42507NA      NA30897   5.501   6.137   2.699 -0.2607 -0.0024  0.0032
42508NA      NA30898   0.583   7.549   3.834 -0.0128 -0.3480  0.2582
42509NA      NA30899   4.881   4.185   8.389 -0.2736 -0.4236 -0.4105
42510NA      NA30900  10.520  10.645   0.108  0.0391 -0.6675 -0.0576
42511NA      NA30901   8.451   0.793   5.261 -0.1118  0.5529  0.5403
42512NA      NA30902  10.196   4.504   8.410  0.6099  0.1076 -0.3065
42513NA      NA30903   4.876  10.719   9.496 -0.1588  0.1572  0.2562
42514NA      NA30904   9.824   0.082   5.485  0.0787  0.2101 -0.4886
42515NA      NA30905   7.701   3.538   0.239  0.1421 -0.1604  0.2873
42516NA      NA30906   9.213   2.532   1.804 -0.1270  0.2848  0.1184
42517NA      NA30907   3.721   2.720   3.351 -0.1982 -0.3667  0.2748
42518NA      NA30908   8.326   5.619   6.248  0.2580 -0.2520  0.5574
42519NA      NA30909   9.575   2.784   4.962 -0.4595 -0.0394  0.1158
42520NA      NA30910   6.544   1.315   2.945  0.0293  0.1798  0.2447
42521NA      NA30911   4.698   8.555   2.927  0.1156  0.0939  0.1319
42522NA      NA30912   7.457   4.055  10.176  0.1117 -0.0860 -0.0876
42523NA      NA30913   9.303   7.839   9.302 -0.0603  0.1767 -0.4070
42524NA      NA30914   1.923   0.265   2.938  0.0518 -0.2683 -0.3729
42525NA      NA30915  10.252   3.697   0.642 -0.0164  0.6826 -0.7847
42526NA      NA30916   0.338   3.648   5.255 -0.0223 -0.0213  0.0314
42527NA      NA30917   4.003   5.274   2.839 -0.1832  0.4227  0.6653
42528NA      NA30918   7.793   8.166   5.294  0.1852 -0.3356 -0.1684
42529NA      NA30919   2.814  10.333   3.959 -0.4927  0.3794 -0.8347
42530NA      NA30920   7.551   0.238   2.652  0.1305  0.5069  0.2016
42531NA      NA30921   1.610   8.968   1.126 -0.3756 -0.0485  0.2324
42532NA      NA30922   8.512   8.776   8.289 -0.0132 -0.2061 -0.1394
42533NA      NA30923   2.477   8.686   6.205 -0.0655 -0.1756  0.3545
42534NA      NA30924   6.818   6.483   7.909 -0.0628 -0.1075 -0.4772
42535NA      NA30925   8.307   3.848   1.567  0.0801  0.3443 -0.5157
42536NA      NA30926   7.580   7.540   7.934  0.0767 -0.1496 -0.7719
42537NA      NA30927   4.559   8.485   5.937 -0.0469 -0.1053 -0.0045
42538NA      NA30928   0.121   5.318   7.080 -0.7852 -0.4292 -0.1161
42539NA      NA30929   5.799   6.459   2.007 -0.0894  0.4297 -0.3603
42540NA      NA30930   7.515   1.333  10.218 -0.0917  0.2442 -0.3885
42541NA      NA30931   3.104   8.834   3.017 -0.0981  0.1215  0.4747
42542NA      NA30932   7.575   4.101   3.305  0.4899 -0.0765  0.2016
42543NA      NA30933   1.868   8.925   3.813 -0.0316  0.4153  0.0529
42544NA      NA30934   1.497   6.166   2.946  0.1069 -0.1160  0.0556
42545NA      NA30935   0.870   8.697   8.571  0.5807  0.0847  0.1321
42546NA      NA30936   3.487   5.853   1.703  0.1448 -0.3466  0.1922
42547NA      NA30937   6.743   9.839   6.670  0.1755 -0.3831 -0.2942
42548NA      NA30938   0.432   3.490   2.477  0.5374  0.1494 -0.0073
42549NA      NA30939  10.778   8.991   8.073  0.2504  0.2964 -0.3773
42550NA      NA30940   3.463  10.863   1.836  0.0886 -0.0087  0.0355
42551NA      NA30941   5.504   8.447   2.988 -0.2035 -0.4249 -0.1955
42552NA      NA30942   3.299   1.016  10.872  0.1962  0.0417 -0.3697
42553NA      NA30943   0.663   1.829   1.867 -0.4407 -0.0357 -0.2014
42554NA      NA30944   6.627   5.866   4.617 -0.5858 -0.2595 -0.3501
42555NA      NA30945   2.370   1.642  10.791  0.7551  0.1248  0.2892
42556NA      NA30946   4.249   4.677   1.764 -0.1927  0.4083  0.0642
42557NA      NA30947   1.303   4.623  10.415  0.2187  0.2445 -0.2419
42558NA      NA30948   7.775  10.657   5.041  0.6615 -0.0062  0.4362
42559NA      NA30949   8.948   3.815   4.182  0.6299  0.1145  0.2950
42560NA      NA30950   1.238   0.360   0.058  0.2858 -0.0839  0.2872
42561NA      NA30951   6.758   6.535   5.521  0.1533  0.0919 -0.4392
42562NA      NA30952   6.035   7.155   6.771 -0.4441  0.1571 -0.1141
42563NA      NA30953  10.903   1.832   2.911 -0.2028  0.2550  0.1293
42564NA      NA30954   0.067   0.522   6.342 -0.3681 -0.4012  0.3893
42565NA      NA30955  10.497   8.531   3.150 -0.1694 -0.3376 -0.3883
42566NA      NA30956   3.946   6.950   3.284 -0.3457 -0.0189  0.4067
42567NA      NA30957   4.888   5.309   4.601  0.2274 -0.0838 -0.1193
42568NA      NA30958   2.283   9.260   7.232 -0.0724  0.3875  0.3362
42569NA      NA30959  10.880  10.640   5.832  0.6229 -0.1441 -0.0435
42570NA      NA30960   9.617   1.166   3.193  0.3172  0.0499  0.2218
42571NA      NA30961   5.764   8.953   7.464  0.5968  0.0868 -0.3151
42572NA      NA30962   3.042   5.951  10.803 -0.8501 -0.4665 -0.1395
42573NA      NA30963   0.928   3.484   7.190 -0.3026 -0.2873 -0.0359
42574NA      NA30964   0.755  10.277   7.535 -0.1308  0.3642  0.6678
42575NA      NA30965   6.321   4.093   1.391  0.1638  0.4007 -0.4808
42576NA      NA30966   4.668   2.211   3.293 -0.1665  0.2385 -0.4238
42577NA      NA30967   0.984   3.081   2.960  0.0965  0.2763  0.5299
42578NA      NA30968   3.621   2.852   7.531 -0.1751 -0.0261  0.8266
42579NA      NA30969   4.368   7.448   8.429  0.0051 -0.8963  0.3947
42580NA      NA30970   0.794   5.286   7.761  0.1263 -0.2717 -0.0447
42581NA      NA30971   3.463   2.976   0.149  0.2787  0.1405  0.4329
42582NA      NA30972  10.182   6.489   7.618  0.2679  0.3909  0.0783
42583NA      NA30973   9.510   5.546   9.714  0.2132 -0.0863  0.1991
42584NA      NA30974   2.239   7.975  10.099  0.1143 -0.1360  0.0400
42585NA      NA30975   6.422   5.235   9.601  0.2215  0.2760  0.4660
42586NA      NA30976   7.054   8.240  10.136 -0.1561  0.5377  0.3343
42587NA      NA30977   0.558   2.953   8.832 -0.1487 -0.1321 -0.2857
42588NA      NA30978   1.499   2.611   4.164 -0.0257  0.2199 -0.0067
42589NA      NA30979   5.544   6.501   5.599 -0.1983 -0.0580  0.0685
42590NA      NA30980   8.748   0.685  10.381 -0.0561  0.2222  0.1922
42591NA      NA30981   2.190   9.080  10.146 -0.2584 -0.7610 -0.1507
42592NA      NA30982   1.383   8.222   8.488 -0.2413 -0.6572 -0.3519
42593NA      NA30983   0.879   5.530   9.121  0.2384  0.2652  0.0432
42594NA      NA30984   6.121   5.928   0.059  0.1745  0.3106 -0.9848
42595NA      NA30985   0.379   2.573   4.310 -0.3606 -0.5144  0.1748
42596NA      NA30986   7.167  10.483   2.584  0.2126 -0.2236  0.0952
42597NA      NA30987   2.085   2.761   0.880 -0.4298 -0.1435  0.0246
42598NA      NA30988   8.486   9.975   8.855  0.4209  0.1130  0.2862
42599NA      NA30989   8.388   1.347   7.094  0.3456  0.2097  0.1485
42600NA      NA30990   9.550   4.803  10.434  0.2411 -0.3319  0.4143
42601NA      NA30991   0.115   0.071   2.583  0.2214 -0.0070 -0.2057
42602NA      NA30992   7.032   4.059   8.241  0.1188  0.1300  0.0599
42603NA      NA30993   2.198   8.148   1.241  0.2740 -0.3130 -0.0947
42604NA      NA30994   0.268   9.714   5.154  0.3054  0.6042  0.0318
42605NA      NA30995   7.458   4.681   8.227 -0.3368 -0.4655 -0.1693
42606NA      NA30996   1.307  10.142   2.191  0.3653  0.4261 -0.0715
42607NA      NA30997   3.446   4.183  10.572 -0.1987  0.3053  0.2855
42608NA      NA30998   1.606   0.613   3.979  0.2061  0.1168 -0.4682
42609NA      NA30999   2.306   0.865   7.181  0.2792 -0.2513 -0.0118
42610NA      NA31000   5.492   1.216   6.333 -0.1239 -0.7182  0.2824
42611NA      NA31001   8.116   9.372   6.058  0.6842  0.0621 -0.5489
42612NA      NA31002   9.964   4.829   5.951  0.2021  0.0938 -0.0262
42613NA      NA31003   6.393   8.251   3.788 -0.2884 -0.4933 -0.0148
42614NA      NA31004   1.700   2.226   0.846 -0.1954  0.1229  0.3595
42615CL      CL31005   3.658   6.555  10.537 -0.1601  0.0253  0.2241
42616CL      CL31006   1.503   9.826   8.145  0.1417 -0.2594  0.0538
42617CL      CL31007   0.536   2.844   6.300  0.3371 -0.6085  0.1154
42618CL      CL31008  10.980   5.701   5.317  0.1850 -0.1135  0.2566
42619CL      CL31009   4.132   7.102   3.323  0.1134  0.6006  0.1575
42620CL      CL31010   6.181   6.700   5.765  0.0487 -0.0478 -0.1256
42621CL      CL31011   6.290   7.343   1.418  0.2971 -0.1666 -0.4574
42622CL      CL31012   5.619   0.067   5.190 -0.0004 -0.2733  0.6201
42623CL      CL31013   3.891   1.703   1.194  0.3617 -0.0445 -0.1024
42624CL      CL31014   1.102   9.325   4.161  0.0112 -0.0994 -0.1499
42625CL      CL31015   6.476   4.177   1.562 -0.2015 -0.0121  0.0738
42626CL      CL31016   3.963   1.443   2.475  0.2810 -0.0421  0.1744
42627CL      CL31017   6.777   2.126   0.272 -0.1955 -0.4952  0.2017
42628CL      CL31018   5.085   1.700   6.807  0.0508 -0.0877 -0.4550
42629CL      CL31019   6.995   3.678   9.598 -0.1337 -0.2640 -0.4351
42630CL      CL31020   7.174  10.063   8.136 -0.1500  0.2460 -0.2017
42631CL      CL31021   5.266  10.957   1.219  0.3436  0.0264  0.3798
42632CL      CL31022   9.178   0.338   5.032 -0.2589  0.2076 -0.3417
42633CL      CL31023   9.750   3.007   0.021 -0.1821 -0.0771 -0.2294
42634CL      CL31024   4.441   5.228   1.684  0.0208 -0.1930  0.3182
42635CL      CL31025   7.868   9.092   6.697 -0.0950  0.2527 -0.3752
42636CL      CL31026   0.673   8.467   8.197  0.0702 -0.0538 -0.3123
42637CL      CL31027   6.161   1.233  10.889 -0.2699  0.6153 -0.4701
42638CL      CL31028   6.438   7.873   7.161 -0.1911  0.1784  0.3845
42639CL      CL31029   1.998  10.139   2.986  0.0406  0.2561 -0.0538
42640CL      CL31030   0.609   0.453   1.112  0.6399 -0.0675 -0.4175
42641CL      CL31031   2.209   1.626   4.442  0.0575  0.4598  0.5329
42642CL      CL31032   7.296   7.453   8.664 -0.0033 -0.0190  0.6434
42643CL      CL31033   2.464   7.211   0.851  0.0287  0.1584  0.0813
42644CL      CL31034   4.498   6.064   1.319  0.2650 -0.0915  0.3506
42645CL      CL31035   7.566  10.326   5.786  0.3194  0.2049  0.0004
42646CL      CL31036   9.995   0.714   1.284 -0.5869 -0.5258 -0.2330
42647CL      CL31037   7.081   8.786   0.069  0.0465 -0.0781  0.2040
42648CL      CL31038   7.989   0.333   2.811  0.2436 -0.0900  0.1185
42649CL      CL31039   9.177   5.400   8.634  0.3328  0.1324  0.0479
42650CL      CL31040   1.186   3.203   3.056  0.5047 -0.1739  0.2756
42651CL      CL31041   4.611   9.358   9.812 -0.3273  0.2297 -0.1600
42652CL      CL31042   4.294   0.578   0.993  0.3425  0.1604  0.3307
42653CL      CL31043   3.429   5.129  10.945 -0.2031  0.1275 -0.5637
42654CL      CL31044   8.314   6.121   6.042 -0.1188  0.0105 -0.1645
42655CL      CL31045   7.631   5.272   3.012 -0.3319 -0.1694  0.5225
42656CL      CL31046   8.222   6.243   4.865 -0.1394 -0.1597  0.2418
42657CL      CL31047   2.877   8.231   3.455  0.4093 -0.1205 -0.3282
42658CL      CL31048  10.292   2.167   9.735 -0.0878 -0.2556 -0.3733
42659CL      CL31049   9.004   2.896  10.770 -0.4996  0.1852 -0.4267
42660CL      CL31050   0.284   2.538   2.505  0.2406  0.2813  0.0270
42661CL      CL31051   0.312   9.268   0.611  0.3111  0.2299 -0.1376
42662CL      CL31052   7.807   1.055   7.315  0.2524  0.2858 -0.3865
42663CL      CL31053  10.299   7.302   8.005 -0.3045 -0.5285 -0.1840
42664CL      CL31054   7.792   4.170   7.901 -0.4196 -0.0272  0.0864
42665CL      CL31055   7.901   3.904  10.003  0.0839 -0.1801  0.5481
42666CL      CL31056   9.746   1.449   3.879  0.2589  0.4056  0.2278
42667CL      CL31057   6.544   1.860  10.396  0.5523 -0.3615 -0.4347
42668CL      CL31058   1.094   5.771   7.706  0.0435  0.1483 -0.0025
42669CL      CL31059   4.434   0.753   5.229  0.4417 -0.0634  0.0936
42670CL      CL31060   9.173   9.063   9.430  0.2091 -0.2701 -0.3524
42671CL      CL31061   0.632   2.242   9.567 -0.2552  0.2064 -0.0005
42672CL      CL31062   0.476   3.758   2.082 -0.1768  0.5390 -0.2946
42673CL      CL31063   0.263   2.608   4.524 -0.5067 -0.2931 -0.4004
42674CL      CL31064   1.126   4.234   6.456  0.0279  0.0576 -0.0595
42675CL      CL31065   5.343   9.029   3.535  0.0524 -0.0769  0.2332
42676CL      CL31066   8.551   6.515   0.980 -0.0230 -0.1735 -0.0490
42677CL      CL31067   2.063   1.014  10.401  0.2316 -0.1652 -0.6346
42678CL      CL31068   1.882   9.541   6.075  0.0442 -0.1501  0.2038
42679CL      CL31069   5.038   5.874   6.041 -0.0617  0.4952 -0.2121
42680CL      CL31070   3.563   2.310  10.527 -0.0715 -0.2295 -0.1410
42681CL      CL31071   5.687   6.224   2.611  0.4517 -0.0308  0.0297
42682CL      CL31072   8.594   7.732   4.667  0.0359 -0.2480 -0.3048
42683CL      CL31073   4.262   6.531   4.506 -0.2144 -0.3775 -0.0199
42684CL      CL31074   4.671   5.941   7.255  0.0021 -0.4256  0.0171
42685CL      CL31075   1.563   0.489   3.787  0.1393 -0.1454  0.0123
42686CL      CL31076   6.173  10.940   6.874  0.3362 -0.2374  0.1478
42687CL      CL31077   4.411   2.096   5.357  0.0969  0.3201  0.0448
42688CL      CL31078   6.884   5.063   2.316  0.0927  0.0220  0.1006
42689CL      CL31079   8.223   1.731   6.066 -0.2256 -0.1251 -0.0771
42690CL      CL31080   9.318  10.903   6.707 -0.1506 -0.0835  0.6865
42691CL      CL31081   3.260   4.667   5.901  0.2280  0.0006 -0.0693
42692CL      CL31082   0.107   8.690   8.394 -0.0140  0.3145  0.0657
42693CL      CL31083   2.270   6.235   1.607  0.1282  0.3627  0.4519
42694CL      CL31084   2.400   1.928   1.310 -0.0893 -0.1374  0.2737
42695CL      CL31085   9.875  10.771  10.889  0.0399  0.0096 -0.6679
42696CL      CL31086  10.480  10.081   6.930  0.0040  0.0779  0.3982
42697CL      CL31087   6.871   6.431   0.103 -0.1598  0.0906 -0.1347
42698CL      CL31088   6.216   3.627   0.430 -0.1015  0.2074 -0.0282
42699CL      CL31089   3.177   4.703   3.050  0.7336  0.1020 -0.0443
42700CL      CL31090   5.874   9.878   2.246 -0.4694  0.0066 -0.6837
42701CL      CL31091   2.534   0.276   2.272  0.0943  0.5514 -0.0298
42702CL      CL31092   9.388   4.611   5.932  0.1343  0.0261 -0.2402
42703CL      CL31093   5.346   8.333   7.195  0.2676  0.0898 -0.0649
42704CL      CL31094   0.140   1.482   4.163 -0.1108  0.1105  0.0607
42705CL      CL31095   5.024   3.821   5.056  0.0300 -0.0233 -0.0604
42706CL      CL31096   7.531   6.660   7.062 -0.0550  0.5025  0.0935
42707CL      CL31097   9.444   0.107   4.661  0.0994 -0.0933  0.0986
42708CL      CL31098   3.127   3.565   4.553 -0.1212  0.1495  0.0026
42709CL      CL31099   3.405   7.390   8.831 -0.2221  0.3070 -0.3647
42710CL      CL31100   6.496   8.534  10.784 -0.1926  0.1698  0.1006
42711CL      CL31101   5.549   2.395   5.990 -0.1343  0.2373  0.4881
42712CL      CL31102   6.500   0.009   1.842  0.0433  0.0621  0.4505
42713CL      CL31103   7.077   5.311   4.344 -0.3276 -0.3408  0.1138
42714CL      CL31104   7.868   4.205   2.476 -0.1607  0.2025 -0.1991
42715CL      CL31105   3.500   4.619  10.742 -0.3631  0.1318 -0.1766
42716CL      CL31106   5.076   0.581   3.406  0.1679 -0.3765 -0.5224
42717CL      CL31107   0.895   7.381   4.206 -0.1311  0.0947 -0.2946
42718CL      CL31108   8.934   0.487   2.066 -0.0168  0.1228  0.0145
42719CL      CL31109   8.462   3.146   0.592 -0.1212 -0.1922  0.3480
42720CL      CL31110   9.859   8.416   9.672 -0.0851 -0.1838  0.0987
42721CL      CL31111   5.832   4.100   2.300 -0.2454  0.0569  0.1049
42722CL      CL31112   0.876   5.324   8.489 -0.0098  0.1180 -0.0347
42723CL      CL31113   0.398  10.693   1.443 -0.1927 -0.4890  0.4203
42724CL      CL31114   9.811   5.572   6.112  0.0317  0.0109 -0.0403
42725CL      CL31115   5.390   7.181   5.550  0.5166 -0.0248  0.0429
42726CL      CL31116  10.138   1.459   2.802 -0.1991 -0.0347  0.1541
42727CL      CL31117   1.071   9.529   2.174 -0.0877 -0.0859 -0.4059
42728CL      CL31118   5.476  10.623   9.951 -0.0519  0.0594  0.4025
42729CL      CL31119   6.023   8.097   3.293  0.1502 -0.2854 -0.2240
42730CL      CL31120   5.764   5.350   5.982 -0.0495  0.1428  0.5615
42731CL      CL31121   7.527   2.246   2.767 -0.0466  0.1906  0.1425
42732CL      CL31122  10.324   3.406   5.965  0.3404  0.0710 -0.2218
42733CL      CL31123   5.748   0.835   0.685  0.2614  0.4943 -0.0830
42734CL      CL31124   0.968   4.941   7.524  0.2352  0.5994 -0.0732
42735CL      CL31125   9.894   7.362   0.359 -0.1766 -0.0725  0.2489
42736CL      CL31126   2.547   0.388   3.326  0.1751  0.5203 -0.2877
  10.98067  10.98067  10.98067
