;
;   File g1.5_cooh_pamam.itp  was generated
;   By user: sairam (1000)
;   On host: sairam
;   At date: Wed. April  3 15:31:39 2024
;
;   This is a standalone topology file
;
;   Created by:
;   ParmEd:       amb2gro_top_gro.py, VERSION 3.4.1
;   Executable:   amb2gro_top_gro.py
;   Library dir:  /usr/local/gromacs/share/gromacs/top
;   Command line:
;     ./amb2gro_top_gro.py -p g1.5_cooh_pamam.prmtop -c g1.5_cooh_pamam.inpcrd -t g1.5_cooh_pamam.itp -g g1.5_cooh_pamam.gro -b g1.5_cooh_pamam.pdb
;

;[ defaults ]
;; nbfunc        comb-rule       gen-pairs       fudgeLJ fudgeQQ
;1               2               yes             0.5          0.83333333  
;
;[ atomtypes ]
;; name    at.num    mass    charge ptype  sigma      epsilon
;c3             6  12.010000  0.00000000  A     0.33996695      0.4577296
;h1             1   1.008000  0.00000000  A      0.2471353      0.0656888
;n3             7  14.010000  0.00000000  A     0.32499985        0.71128
;hc             1   1.008000  0.00000000  A     0.26495328      0.0656888
;c              6  12.010000  0.00000000  A     0.33996695       0.359824
;o              8  16.000000  0.00000000  A     0.29599219        0.87864
;n              7  14.010000  0.00000000  A     0.32499985        0.71128
;hn             1   1.008000  0.00000000  A     0.10690785      0.0656888
;oh             8  16.000000  0.00000000  A     0.30664734      0.8803136
;ho             1   1.008000  0.00000000  A              0              0


[ moleculetype ]
; Name            nrexcl
g1.5_cooh_pamam          3

[ atoms ]
;   nr       type  resnr residue  atom   cgnr    charge       mass  typeB    chargeB      massB
; residue    1 aaa rtp aaa q -0.0
    1         c3      1    aaa     C1      1 0.02890000  12.010000   ; qtot 0.028900
    2         h1      1    aaa     H1      2 0.08460000   1.008000   ; qtot 0.113500
    3         h1      1    aaa     H2      3 0.08460000   1.008000   ; qtot 0.198100
    4         c3      1    aaa     C2      4 0.02890000  12.010000   ; qtot 0.227000
    5         h1      1    aaa     H3      5 0.08460000   1.008000   ; qtot 0.311600
    6         h1      1    aaa     H4      6 0.08460000   1.008000   ; qtot 0.396200
    7         n3      1    aaa     N1      7 -0.65770000  14.010000   ; qtot -0.261500
    8         n3      1    aaa     N2      8 -0.65770000  14.010000   ; qtot -0.919200
    9         c3      1    aaa     C3      9 0.36940000  12.010000   ; qtot -0.549800
   10         h1      1    aaa     H5     10 0.00650000   1.008000   ; qtot -0.543300
   11         h1      1    aaa     H6     11 0.00650000   1.008000   ; qtot -0.536800
   12         c3      1    aaa     C4     12 0.36940000  12.010000   ; qtot -0.167400
   13         h1      1    aaa     H7     13 0.00650000   1.008000   ; qtot -0.160900
   14         h1      1    aaa     H8     14 0.00650000   1.008000   ; qtot -0.154400
   15         c3      1    aaa     C5     15 0.36940000  12.010000   ; qtot 0.215000
   16         h1      1    aaa     H9     16 0.00650000   1.008000   ; qtot 0.221500
   17         h1      1    aaa    H10     17 0.00650000   1.008000   ; qtot 0.228000
   18         c3      1    aaa     C6     18 0.36940000  12.010000   ; qtot 0.597400
   19         h1      1    aaa    H11     19 0.00650000   1.008000   ; qtot 0.603900
   20         h1      1    aaa    H12     20 0.00650000   1.008000   ; qtot 0.610400
   21         c3      1    aaa     C7     21 -0.54350000  12.010000   ; qtot 0.066900
   22         hc      1    aaa    H13     22 0.15890000   1.008000   ; qtot 0.225800
   23         hc      1    aaa    H14     23 0.15890000   1.008000   ; qtot 0.384700
   24         c3      1    aaa     C8     24 -0.54350000  12.010000   ; qtot -0.158800
   25         hc      1    aaa    H15     25 0.15890000   1.008000   ; qtot 0.000100
   26         hc      1    aaa    H16     26 0.15890000   1.008000   ; qtot 0.159000
   27         c3      1    aaa     C9     27 -0.54350000  12.010000   ; qtot -0.384500
   28         hc      1    aaa    H17     28 0.15890000   1.008000   ; qtot -0.225600
   29         hc      1    aaa    H18     29 0.15890000   1.008000   ; qtot -0.066700
   30         c3      1    aaa    C10     30 -0.54350000  12.010000   ; qtot -0.610200
   31         hc      1    aaa    H19     31 0.15890000   1.008000   ; qtot -0.451300
   32         hc      1    aaa    H20     32 0.15890000   1.008000   ; qtot -0.292400
   33          c      1    aaa    C11     33 0.67800000  12.010000   ; qtot 0.385600
   34          c      1    aaa    C12     34 0.67800000  12.010000   ; qtot 1.063600
   35          c      1    aaa    C13     35 0.67800000  12.010000   ; qtot 1.741600
   36          c      1    aaa    C14     36 0.67800000  12.010000   ; qtot 2.419600
   37          o      1    aaa     O1     37 -0.60490000  16.000000   ; qtot 1.814700
   38          o      1    aaa     O2     38 -0.60490000  16.000000   ; qtot 1.209800
   39          o      1    aaa     O3     39 -0.60490000  16.000000   ; qtot 0.604900
   40          o      1    aaa     O4     40 -0.60490000  16.000000   ; qtot -0.000000
; residue    2 bbb rtp bbb q -0.0
   41         c3      2    bbb     C1     41 0.44180000  12.010000   ; qtot 0.441800
   42         h1      2    bbb     H1     42 -0.03530000   1.008000   ; qtot 0.406500
   43         h1      2    bbb     H2     43 -0.03530000   1.008000   ; qtot 0.371200
   44         c3      2    bbb     C2     44 -0.28250000  12.010000   ; qtot 0.088700
   45         h1      2    bbb     H3     45 0.15710000   1.008000   ; qtot 0.245800
   46         h1      2    bbb     H4     46 0.15710000   1.008000   ; qtot 0.402900
   47         n3      2    bbb     N1     47 -0.74090000  14.010000   ; qtot -0.338000
   48         c3      2    bbb     C3     48 0.51680000  12.010000   ; qtot 0.178800
   49         h1      2    bbb     H5     49 -0.05230000   1.008000   ; qtot 0.126500
   50         h1      2    bbb     H6     50 -0.05230000   1.008000   ; qtot 0.074200
   51         c3      2    bbb     C4     51 0.51680000  12.010000   ; qtot 0.591000
   52         h1      2    bbb     H7     52 -0.05230000   1.008000   ; qtot 0.538700
   53         h1      2    bbb     H8     53 -0.05230000   1.008000   ; qtot 0.486400
   54         c3      2    bbb     C5     54 -0.60390000  12.010000   ; qtot -0.117500
   55         hc      2    bbb     H9     55 0.16730000   1.008000   ; qtot 0.049800
   56         hc      2    bbb    H10     56 0.16730000   1.008000   ; qtot 0.217100
   57         c3      2    bbb     C6     57 -0.60390000  12.010000   ; qtot -0.386800
   58         hc      2    bbb    H11     58 0.16730000   1.008000   ; qtot -0.219500
   59         hc      2    bbb    H12     59 0.16730000   1.008000   ; qtot -0.052200
   60          c      2    bbb     C7     60 0.72110000  12.010000   ; qtot 0.668900
   61          c      2    bbb     C8     61 0.72110000  12.010000   ; qtot 1.390000
   62          o      2    bbb     O1     62 -0.61950000  16.000000   ; qtot 0.770500
   63          o      2    bbb     O2     63 -0.61950000  16.000000   ; qtot 0.151000
   64          n      2    bbb     N4     64 -0.46580000  14.010000   ; qtot -0.314800
   65         hn      2    bbb    H21     65 0.31480000   1.008000   ; qtot -0.000000
; residue    3 bbb rtp bbb q -0.0
   66         c3      3    bbb     C1     66 0.44180000  12.010000   ; qtot 0.441800
   67         h1      3    bbb     H1     67 -0.03530000   1.008000   ; qtot 0.406500
   68         h1      3    bbb     H2     68 -0.03530000   1.008000   ; qtot 0.371200
   69         c3      3    bbb     C2     69 -0.28250000  12.010000   ; qtot 0.088700
   70         h1      3    bbb     H3     70 0.15710000   1.008000   ; qtot 0.245800
   71         h1      3    bbb     H4     71 0.15710000   1.008000   ; qtot 0.402900
   72         n3      3    bbb     N1     72 -0.74090000  14.010000   ; qtot -0.338000
   73         c3      3    bbb     C3     73 0.51680000  12.010000   ; qtot 0.178800
   74         h1      3    bbb     H5     74 -0.05230000   1.008000   ; qtot 0.126500
   75         h1      3    bbb     H6     75 -0.05230000   1.008000   ; qtot 0.074200
   76         c3      3    bbb     C4     76 0.51680000  12.010000   ; qtot 0.591000
   77         h1      3    bbb     H7     77 -0.05230000   1.008000   ; qtot 0.538700
   78         h1      3    bbb     H8     78 -0.05230000   1.008000   ; qtot 0.486400
   79         c3      3    bbb     C5     79 -0.60390000  12.010000   ; qtot -0.117500
   80         hc      3    bbb     H9     80 0.16730000   1.008000   ; qtot 0.049800
   81         hc      3    bbb    H10     81 0.16730000   1.008000   ; qtot 0.217100
   82         c3      3    bbb     C6     82 -0.60390000  12.010000   ; qtot -0.386800
   83         hc      3    bbb    H11     83 0.16730000   1.008000   ; qtot -0.219500
   84         hc      3    bbb    H12     84 0.16730000   1.008000   ; qtot -0.052200
   85          c      3    bbb     C7     85 0.72110000  12.010000   ; qtot 0.668900
   86          c      3    bbb     C8     86 0.72110000  12.010000   ; qtot 1.390000
   87          o      3    bbb     O1     87 -0.61950000  16.000000   ; qtot 0.770500
   88          o      3    bbb     O2     88 -0.61950000  16.000000   ; qtot 0.151000
   89          n      3    bbb     N4     89 -0.46580000  14.010000   ; qtot -0.314800
   90         hn      3    bbb    H21     90 0.31480000   1.008000   ; qtot -0.000000
; residue    4 bbb rtp bbb q -0.0
   91         c3      4    bbb     C1     91 0.44180000  12.010000   ; qtot 0.441800
   92         h1      4    bbb     H1     92 -0.03530000   1.008000   ; qtot 0.406500
   93         h1      4    bbb     H2     93 -0.03530000   1.008000   ; qtot 0.371200
   94         c3      4    bbb     C2     94 -0.28250000  12.010000   ; qtot 0.088700
   95         h1      4    bbb     H3     95 0.15710000   1.008000   ; qtot 0.245800
   96         h1      4    bbb     H4     96 0.15710000   1.008000   ; qtot 0.402900
   97         n3      4    bbb     N1     97 -0.74090000  14.010000   ; qtot -0.338000
   98         c3      4    bbb     C3     98 0.51680000  12.010000   ; qtot 0.178800
   99         h1      4    bbb     H5     99 -0.05230000   1.008000   ; qtot 0.126500
  100         h1      4    bbb     H6    100 -0.05230000   1.008000   ; qtot 0.074200
  101         c3      4    bbb     C4    101 0.51680000  12.010000   ; qtot 0.591000
  102         h1      4    bbb     H7    102 -0.05230000   1.008000   ; qtot 0.538700
  103         h1      4    bbb     H8    103 -0.05230000   1.008000   ; qtot 0.486400
  104         c3      4    bbb     C5    104 -0.60390000  12.010000   ; qtot -0.117500
  105         hc      4    bbb     H9    105 0.16730000   1.008000   ; qtot 0.049800
  106         hc      4    bbb    H10    106 0.16730000   1.008000   ; qtot 0.217100
  107         c3      4    bbb     C6    107 -0.60390000  12.010000   ; qtot -0.386800
  108         hc      4    bbb    H11    108 0.16730000   1.008000   ; qtot -0.219500
  109         hc      4    bbb    H12    109 0.16730000   1.008000   ; qtot -0.052200
  110          c      4    bbb     C7    110 0.72110000  12.010000   ; qtot 0.668900
  111          c      4    bbb     C8    111 0.72110000  12.010000   ; qtot 1.390000
  112          o      4    bbb     O1    112 -0.61950000  16.000000   ; qtot 0.770500
  113          o      4    bbb     O2    113 -0.61950000  16.000000   ; qtot 0.151000
  114          n      4    bbb     N4    114 -0.46580000  14.010000   ; qtot -0.314800
  115         hn      4    bbb    H21    115 0.31480000   1.008000   ; qtot -0.000000
; residue    5 bbb rtp bbb q -0.0
  116         c3      5    bbb     C1    116 0.44180000  12.010000   ; qtot 0.441800
  117         h1      5    bbb     H1    117 -0.03530000   1.008000   ; qtot 0.406500
  118         h1      5    bbb     H2    118 -0.03530000   1.008000   ; qtot 0.371200
  119         c3      5    bbb     C2    119 -0.28250000  12.010000   ; qtot 0.088700
  120         h1      5    bbb     H3    120 0.15710000   1.008000   ; qtot 0.245800
  121         h1      5    bbb     H4    121 0.15710000   1.008000   ; qtot 0.402900
  122         n3      5    bbb     N1    122 -0.74090000  14.010000   ; qtot -0.338000
  123         c3      5    bbb     C3    123 0.51680000  12.010000   ; qtot 0.178800
  124         h1      5    bbb     H5    124 -0.05230000   1.008000   ; qtot 0.126500
  125         h1      5    bbb     H6    125 -0.05230000   1.008000   ; qtot 0.074200
  126         c3      5    bbb     C4    126 0.51680000  12.010000   ; qtot 0.591000
  127         h1      5    bbb     H7    127 -0.05230000   1.008000   ; qtot 0.538700
  128         h1      5    bbb     H8    128 -0.05230000   1.008000   ; qtot 0.486400
  129         c3      5    bbb     C5    129 -0.60390000  12.010000   ; qtot -0.117500
  130         hc      5    bbb     H9    130 0.16730000   1.008000   ; qtot 0.049800
  131         hc      5    bbb    H10    131 0.16730000   1.008000   ; qtot 0.217100
  132         c3      5    bbb     C6    132 -0.60390000  12.010000   ; qtot -0.386800
  133         hc      5    bbb    H11    133 0.16730000   1.008000   ; qtot -0.219500
  134         hc      5    bbb    H12    134 0.16730000   1.008000   ; qtot -0.052200
  135          c      5    bbb     C7    135 0.72110000  12.010000   ; qtot 0.668900
  136          c      5    bbb     C8    136 0.72110000  12.010000   ; qtot 1.390000
  137          o      5    bbb     O1    137 -0.61950000  16.000000   ; qtot 0.770500
  138          o      5    bbb     O2    138 -0.61950000  16.000000   ; qtot 0.151000
  139          n      5    bbb     N4    139 -0.46580000  14.010000   ; qtot -0.314800
  140         hn      5    bbb    H21    140 0.31480000   1.008000   ; qtot -0.000000
; residue    6 ccc rtp ccc q 0.0
  141          n      6    ccc     N1    141 -0.87251700  14.010000   ; qtot -0.872517
  142         hn      6    ccc     H1    142 0.46040000   1.008000   ; qtot -0.412117
  143         c3      6    ccc     C1    143 0.65477900  12.010000   ; qtot 0.242662
  144         h1      6    ccc     H2    144 -0.08959600   1.008000   ; qtot 0.153066
  145         c3      6    ccc     C2    145 0.03619700  12.010000   ; qtot 0.189263
  146         h1      6    ccc     H3    146 -0.08959600   1.008000   ; qtot 0.099667
  147         h1      6    ccc     H4    147 0.06927800   1.008000   ; qtot 0.168945
  148         h1      6    ccc     H5    148 0.06927800   1.008000   ; qtot 0.238223
  149         n3      6    ccc     N2    149 -0.61358100  14.010000   ; qtot -0.375358
  150         c3      6    ccc     C3    150 0.17944400  12.010000   ; qtot -0.195914
  151         c3      6    ccc     C4    151 0.17944400  12.010000   ; qtot -0.016470
  152         h1      6    ccc     H6    152 0.07335800   1.008000   ; qtot 0.056888
  153         c3      6    ccc     C5    153 -0.49079800  12.010000   ; qtot -0.433910
  154         h1      6    ccc     H7    154 0.07335800   1.008000   ; qtot -0.360552
  155         hc      6    ccc     H8    155 0.15101200   1.008000   ; qtot -0.209540
  156         hc      6    ccc     H9    156 0.15101200   1.008000   ; qtot -0.058528
  157          c      6    ccc     C6    157 0.558828  12.010000   ; qtot 0.943671
  158         oh      6    ccc     O1    158 -0.56822625  16.000000   ; qtot 0.170585
  159          o      6    ccc     O2    159 -0.39142825  16.000000   ; qtot -0.493753
  160         h1      6    ccc    H10    160 0.07335800   1.008000   ; qtot -0.420395
  161         h1      6    ccc    H11    161 0.07335800   1.008000   ; qtot -0.347037
  162         c3      6    ccc     C7    162 -0.49079800  12.010000   ; qtot -0.837835
  163         hc      6    ccc    H12    163 0.15101200   1.008000   ; qtot -0.686823
  164         hc      6    ccc    H13    164 0.15101200   1.008000   ; qtot -0.535811
  165          c      6    ccc     C8    165 0.558828  12.010000   ; qtot 0.466388
  166          o      6    ccc     O3    166 -0.39142825  16.000000   ; qtot -0.197950
  167         oh      6    ccc     O4    167 -0.56822625  16.000000   ; qtot -0.971036
  168         ho      6    ccc    H14    168 0.4511195   1.008000   ; qtot -0.485518
  169         ho      6    ccc    H15    169 0.4511195   1.008000   ; qtot -0.000000
; residue    7 ccc rtp ccc q 0.0
  170          n      7    ccc     N1    170 -0.87251700  14.010000   ; qtot -0.872517
  171         hn      7    ccc     H1    171 0.46040000   1.008000   ; qtot -0.412117
  172         c3      7    ccc     C1    172 0.65477900  12.010000   ; qtot 0.242662
  173         h1      7    ccc     H2    173 -0.08959600   1.008000   ; qtot 0.153066
  174         c3      7    ccc     C2    174 0.03619700  12.010000   ; qtot 0.189263
  175         h1      7    ccc     H3    175 -0.08959600   1.008000   ; qtot 0.099667
  176         h1      7    ccc     H4    176 0.06927800   1.008000   ; qtot 0.168945
  177         h1      7    ccc     H5    177 0.06927800   1.008000   ; qtot 0.238223
  178         n3      7    ccc     N2    178 -0.61358100  14.010000   ; qtot -0.375358
  179         c3      7    ccc     C3    179 0.17944400  12.010000   ; qtot -0.195914
  180         c3      7    ccc     C4    180 0.17944400  12.010000   ; qtot -0.016470
  181         h1      7    ccc     H6    181 0.07335800   1.008000   ; qtot 0.056888
  182         c3      7    ccc     C5    182 -0.49079800  12.010000   ; qtot -0.433910
  183         h1      7    ccc     H7    183 0.07335800   1.008000   ; qtot -0.360552
  184         hc      7    ccc     H8    184 0.15101200   1.008000   ; qtot -0.209540
  185         hc      7    ccc     H9    185 0.15101200   1.008000   ; qtot -0.058528
  186          c      7    ccc     C6    186 0.558828  12.010000   ; qtot 0.943671
  187         oh      7    ccc     O1    187 -0.56822625  16.000000   ; qtot 0.170585
  188          o      7    ccc     O2    188 -0.39142825  16.000000   ; qtot -0.493753
  189         h1      7    ccc    H10    189 0.07335800   1.008000   ; qtot -0.420395
  190         h1      7    ccc    H11    190 0.07335800   1.008000   ; qtot -0.347037
  191         c3      7    ccc     C7    191 -0.49079800  12.010000   ; qtot -0.837835
  192         hc      7    ccc    H12    192 0.15101200   1.008000   ; qtot -0.686823
  193         hc      7    ccc    H13    193 0.15101200   1.008000   ; qtot -0.535811
  194          c      7    ccc     C8    194 0.558828  12.010000   ; qtot 0.466388
  195          o      7    ccc     O3    195 -0.39142825  16.000000   ; qtot -0.197950
  196         oh      7    ccc     O4    196 -0.56822625  16.000000   ; qtot -0.971036
  197         ho      7    ccc    H14    197 0.4511195   1.008000   ; qtot -0.485518
  198         ho      7    ccc    H15    198 0.4511195   1.008000   ; qtot -0.000000
; residue    8 ccc rtp ccc q 0.0
  199          n      8    ccc     N1    199 -0.87251700  14.010000   ; qtot -0.872517
  200         hn      8    ccc     H1    200 0.46040000   1.008000   ; qtot -0.412117
  201         c3      8    ccc     C1    201 0.65477900  12.010000   ; qtot 0.242662
  202         h1      8    ccc     H2    202 -0.08959600   1.008000   ; qtot 0.153066
  203         c3      8    ccc     C2    203 0.03619700  12.010000   ; qtot 0.189263
  204         h1      8    ccc     H3    204 -0.08959600   1.008000   ; qtot 0.099667
  205         h1      8    ccc     H4    205 0.06927800   1.008000   ; qtot 0.168945
  206         h1      8    ccc     H5    206 0.06927800   1.008000   ; qtot 0.238223
  207         n3      8    ccc     N2    207 -0.61358100  14.010000   ; qtot -0.375358
  208         c3      8    ccc     C3    208 0.17944400  12.010000   ; qtot -0.195914
  209         c3      8    ccc     C4    209 0.17944400  12.010000   ; qtot -0.016470
  210         h1      8    ccc     H6    210 0.07335800   1.008000   ; qtot 0.056888
  211         c3      8    ccc     C5    211 -0.49079800  12.010000   ; qtot -0.433910
  212         h1      8    ccc     H7    212 0.07335800   1.008000   ; qtot -0.360552
  213         hc      8    ccc     H8    213 0.15101200   1.008000   ; qtot -0.209540
  214         hc      8    ccc     H9    214 0.15101200   1.008000   ; qtot -0.058528
  215          c      8    ccc     C6    215 0.558828  12.010000   ; qtot 0.943671
  216         oh      8    ccc     O1    216 -0.56822625  16.000000   ; qtot 0.170585
  217          o      8    ccc     O2    217 -0.39142825  16.000000   ; qtot -0.493753
  218         h1      8    ccc    H10    218 0.07335800   1.008000   ; qtot -0.420395
  219         h1      8    ccc    H11    219 0.07335800   1.008000   ; qtot -0.347037
  220         c3      8    ccc     C7    220 -0.49079800  12.010000   ; qtot -0.837835
  221         hc      8    ccc    H12    221 0.15101200   1.008000   ; qtot -0.686823
  222         hc      8    ccc    H13    222 0.15101200   1.008000   ; qtot -0.535811
  223          c      8    ccc     C8    223 0.558828  12.010000   ; qtot 0.466388
  224          o      8    ccc     O3    224 -0.39142825  16.000000   ; qtot -0.197950
  225         oh      8    ccc     O4    225 -0.56822625  16.000000   ; qtot -0.971036
  226         ho      8    ccc    H14    226 0.4511195   1.008000   ; qtot -0.485518
  227         ho      8    ccc    H15    227 0.4511195   1.008000   ; qtot -0.000000
; residue    9 ccc rtp ccc q 0.0
  228          n      9    ccc     N1    228 -0.87251700  14.010000   ; qtot -0.872517
  229         hn      9    ccc     H1    229 0.46040000   1.008000   ; qtot -0.412117
  230         c3      9    ccc     C1    230 0.65477900  12.010000   ; qtot 0.242662
  231         h1      9    ccc     H2    231 -0.08959600   1.008000   ; qtot 0.153066
  232         c3      9    ccc     C2    232 0.03619700  12.010000   ; qtot 0.189263
  233         h1      9    ccc     H3    233 -0.08959600   1.008000   ; qtot 0.099667
  234         h1      9    ccc     H4    234 0.06927800   1.008000   ; qtot 0.168945
  235         h1      9    ccc     H5    235 0.06927800   1.008000   ; qtot 0.238223
  236         n3      9    ccc     N2    236 -0.61358100  14.010000   ; qtot -0.375358
  237         c3      9    ccc     C3    237 0.17944400  12.010000   ; qtot -0.195914
  238         c3      9    ccc     C4    238 0.17944400  12.010000   ; qtot -0.016470
  239         h1      9    ccc     H6    239 0.07335800   1.008000   ; qtot 0.056888
  240         c3      9    ccc     C5    240 -0.49079800  12.010000   ; qtot -0.433910
  241         h1      9    ccc     H7    241 0.07335800   1.008000   ; qtot -0.360552
  242         hc      9    ccc     H8    242 0.15101200   1.008000   ; qtot -0.209540
  243         hc      9    ccc     H9    243 0.15101200   1.008000   ; qtot -0.058528
  244          c      9    ccc     C6    244 0.558828  12.010000   ; qtot 0.943671
  245         oh      9    ccc     O1    245 -0.56822625  16.000000   ; qtot 0.170585
  246          o      9    ccc     O2    246 -0.39142825  16.000000   ; qtot -0.493753
  247         h1      9    ccc    H10    247 0.07335800   1.008000   ; qtot -0.420395
  248         h1      9    ccc    H11    248 0.07335800   1.008000   ; qtot -0.347037
  249         c3      9    ccc     C7    249 -0.49079800  12.010000   ; qtot -0.837835
  250         hc      9    ccc    H12    250 0.15101200   1.008000   ; qtot -0.686823
  251         hc      9    ccc    H13    251 0.15101200   1.008000   ; qtot -0.535811
  252          c      9    ccc     C8    252 0.558828  12.010000   ; qtot 0.466388
  253          o      9    ccc     O3    253 -0.39142825  16.000000   ; qtot -0.197950
  254         oh      9    ccc     O4    254 -0.56822625  16.000000   ; qtot -0.971036
  255         ho      9    ccc    H14    255 0.4511195   1.008000   ; qtot -0.485518
  256         ho      9    ccc    H15    256 0.4511195   1.008000   ; qtot -0.000000
; residue   10 ccc rtp ccc q 0.0
  257          n     10    ccc     N1    257 -0.87251700  14.010000   ; qtot -0.872517
  258         hn     10    ccc     H1    258 0.46040000   1.008000   ; qtot -0.412117
  259         c3     10    ccc     C1    259 0.65477900  12.010000   ; qtot 0.242662
  260         h1     10    ccc     H2    260 -0.08959600   1.008000   ; qtot 0.153066
  261         c3     10    ccc     C2    261 0.03619700  12.010000   ; qtot 0.189263
  262         h1     10    ccc     H3    262 -0.08959600   1.008000   ; qtot 0.099667
  263         h1     10    ccc     H4    263 0.06927800   1.008000   ; qtot 0.168945
  264         h1     10    ccc     H5    264 0.06927800   1.008000   ; qtot 0.238223
  265         n3     10    ccc     N2    265 -0.61358100  14.010000   ; qtot -0.375358
  266         c3     10    ccc     C3    266 0.17944400  12.010000   ; qtot -0.195914
  267         c3     10    ccc     C4    267 0.17944400  12.010000   ; qtot -0.016470
  268         h1     10    ccc     H6    268 0.07335800   1.008000   ; qtot 0.056888
  269         c3     10    ccc     C5    269 -0.49079800  12.010000   ; qtot -0.433910
  270         h1     10    ccc     H7    270 0.07335800   1.008000   ; qtot -0.360552
  271         hc     10    ccc     H8    271 0.15101200   1.008000   ; qtot -0.209540
  272         hc     10    ccc     H9    272 0.15101200   1.008000   ; qtot -0.058528
  273          c     10    ccc     C6    273 0.558828  12.010000   ; qtot 0.943671
  274         oh     10    ccc     O1    274 -0.56822625  16.000000   ; qtot 0.170585
  275          o     10    ccc     O2    275 -0.39142825  16.000000   ; qtot -0.493753
  276         h1     10    ccc    H10    276 0.07335800   1.008000   ; qtot -0.420395
  277         h1     10    ccc    H11    277 0.07335800   1.008000   ; qtot -0.347037
  278         c3     10    ccc     C7    278 -0.49079800  12.010000   ; qtot -0.837835
  279         hc     10    ccc    H12    279 0.15101200   1.008000   ; qtot -0.686823
  280         hc     10    ccc    H13    280 0.15101200   1.008000   ; qtot -0.535811
  281          c     10    ccc     C8    281 0.558828  12.010000   ; qtot 0.466388
  282          o     10    ccc     O3    282 -0.39142825  16.000000   ; qtot -0.197950
  283         oh     10    ccc     O4    283 -0.56822625  16.000000   ; qtot -0.971036
  284         ho     10    ccc    H14    284 0.4511195   1.008000   ; qtot -0.485518
  285         ho     10    ccc    H15    285 0.4511195   1.008000   ; qtot -0.000000
; residue   11 ccc rtp ccc q 0.0
  286          n     11    ccc     N1    286 -0.87251700  14.010000   ; qtot -0.872517
  287         hn     11    ccc     H1    287 0.46040000   1.008000   ; qtot -0.412117
  288         c3     11    ccc     C1    288 0.65477900  12.010000   ; qtot 0.242662
  289         h1     11    ccc     H2    289 -0.08959600   1.008000   ; qtot 0.153066
  290         c3     11    ccc     C2    290 0.03619700  12.010000   ; qtot 0.189263
  291         h1     11    ccc     H3    291 -0.08959600   1.008000   ; qtot 0.099667
  292         h1     11    ccc     H4    292 0.06927800   1.008000   ; qtot 0.168945
  293         h1     11    ccc     H5    293 0.06927800   1.008000   ; qtot 0.238223
  294         n3     11    ccc     N2    294 -0.61358100  14.010000   ; qtot -0.375358
  295         c3     11    ccc     C3    295 0.17944400  12.010000   ; qtot -0.195914
  296         c3     11    ccc     C4    296 0.17944400  12.010000   ; qtot -0.016470
  297         h1     11    ccc     H6    297 0.07335800   1.008000   ; qtot 0.056888
  298         c3     11    ccc     C5    298 -0.49079800  12.010000   ; qtot -0.433910
  299         h1     11    ccc     H7    299 0.07335800   1.008000   ; qtot -0.360552
  300         hc     11    ccc     H8    300 0.15101200   1.008000   ; qtot -0.209540
  301         hc     11    ccc     H9    301 0.15101200   1.008000   ; qtot -0.058528
  302          c     11    ccc     C6    302 0.558828  12.010000   ; qtot 0.943671
  303         oh     11    ccc     O1    303 -0.56822625  16.000000   ; qtot 0.170585
  304          o     11    ccc     O2    304 -0.39142825  16.000000   ; qtot -0.493753
  305         h1     11    ccc    H10    305 0.07335800   1.008000   ; qtot -0.420395
  306         h1     11    ccc    H11    306 0.07335800   1.008000   ; qtot -0.347037
  307         c3     11    ccc     C7    307 -0.49079800  12.010000   ; qtot -0.837835
  308         hc     11    ccc    H12    308 0.15101200   1.008000   ; qtot -0.686823
  309         hc     11    ccc    H13    309 0.15101200   1.008000   ; qtot -0.535811
  310          c     11    ccc     C8    310 0.558828  12.010000   ; qtot 0.466388
  311          o     11    ccc     O3    311 -0.39142825  16.000000   ; qtot -0.197950
  312         oh     11    ccc     O4    312 -0.56822625  16.000000   ; qtot -0.971036
  313         ho     11    ccc    H14    313 0.4511195   1.008000   ; qtot -0.485518
  314         ho     11    ccc    H15    314 0.4511195   1.008000   ; qtot -0.000000
; residue   12 ccc rtp ccc q 0.0
  315          n     12    ccc     N1    315 -0.87251700  14.010000   ; qtot -0.872517
  316         hn     12    ccc     H1    316 0.46040000   1.008000   ; qtot -0.412117
  317         c3     12    ccc     C1    317 0.65477900  12.010000   ; qtot 0.242662
  318         h1     12    ccc     H2    318 -0.08959600   1.008000   ; qtot 0.153066
  319         c3     12    ccc     C2    319 0.03619700  12.010000   ; qtot 0.189263
  320         h1     12    ccc     H3    320 -0.08959600   1.008000   ; qtot 0.099667
  321         h1     12    ccc     H4    321 0.06927800   1.008000   ; qtot 0.168945
  322         h1     12    ccc     H5    322 0.06927800   1.008000   ; qtot 0.238223
  323         n3     12    ccc     N2    323 -0.61358100  14.010000   ; qtot -0.375358
  324         c3     12    ccc     C3    324 0.17944400  12.010000   ; qtot -0.195914
  325         c3     12    ccc     C4    325 0.17944400  12.010000   ; qtot -0.016470
  326         h1     12    ccc     H6    326 0.07335800   1.008000   ; qtot 0.056888
  327         c3     12    ccc     C5    327 -0.49079800  12.010000   ; qtot -0.433910
  328         h1     12    ccc     H7    328 0.07335800   1.008000   ; qtot -0.360552
  329         hc     12    ccc     H8    329 0.15101200   1.008000   ; qtot -0.209540
  330         hc     12    ccc     H9    330 0.15101200   1.008000   ; qtot -0.058528
  331          c     12    ccc     C6    331 0.558828  12.010000   ; qtot 0.943671
  332         oh     12    ccc     O1    332 -0.56822625  16.000000   ; qtot 0.170585
  333          o     12    ccc     O2    333 -0.39142825  16.000000   ; qtot -0.493753
  334         h1     12    ccc    H10    334 0.07335800   1.008000   ; qtot -0.420395
  335         h1     12    ccc    H11    335 0.07335800   1.008000   ; qtot -0.347037
  336         c3     12    ccc     C7    336 -0.49079800  12.010000   ; qtot -0.837835
  337         hc     12    ccc    H12    337 0.15101200   1.008000   ; qtot -0.686823
  338         hc     12    ccc    H13    338 0.15101200   1.008000   ; qtot -0.535811
  339          c     12    ccc     C8    339 0.558828  12.010000   ; qtot 0.466388
  340          o     12    ccc     O3    340 -0.39142825  16.000000   ; qtot -0.197950
  341         oh     12    ccc     O4    341 -0.56822625  16.000000   ; qtot -0.971036
  342         ho     12    ccc    H14    342 0.4511195   1.008000   ; qtot -0.485518
  343         ho     12    ccc    H15    343 0.4511195   1.008000   ; qtot -0.000000
; residue   13 ccc rtp ccc q 0.0
  344          n     13    ccc     N1    344 -0.87251700  14.010000   ; qtot -0.872517
  345         hn     13    ccc     H1    345 0.46040000   1.008000   ; qtot -0.412117
  346         c3     13    ccc     C1    346 0.65477900  12.010000   ; qtot 0.242662
  347         h1     13    ccc     H2    347 -0.08959600   1.008000   ; qtot 0.153066
  348         c3     13    ccc     C2    348 0.03619700  12.010000   ; qtot 0.189263
  349         h1     13    ccc     H3    349 -0.08959600   1.008000   ; qtot 0.099667
  350         h1     13    ccc     H4    350 0.06927800   1.008000   ; qtot 0.168945
  351         h1     13    ccc     H5    351 0.06927800   1.008000   ; qtot 0.238223
  352         n3     13    ccc     N2    352 -0.61358100  14.010000   ; qtot -0.375358
  353         c3     13    ccc     C3    353 0.17944400  12.010000   ; qtot -0.195914
  354         c3     13    ccc     C4    354 0.17944400  12.010000   ; qtot -0.016470
  355         h1     13    ccc     H6    355 0.07335800   1.008000   ; qtot 0.056888
  356         c3     13    ccc     C5    356 -0.49079800  12.010000   ; qtot -0.433910
  357         h1     13    ccc     H7    357 0.07335800   1.008000   ; qtot -0.360552
  358         hc     13    ccc     H8    358 0.15101200   1.008000   ; qtot -0.209540
  359         hc     13    ccc     H9    359 0.15101200   1.008000   ; qtot -0.058528
  360          c     13    ccc     C6    360 0.558828  12.010000   ; qtot 0.943671
  361         oh     13    ccc     O1    361 -0.56822625  16.000000   ; qtot 0.170585
  362          o     13    ccc     O2    362 -0.39142825  16.000000   ; qtot -0.493753
  363         h1     13    ccc    H10    363 0.07335800   1.008000   ; qtot -0.420395
  364         h1     13    ccc    H11    364 0.07335800   1.008000   ; qtot -0.347037
  365         c3     13    ccc     C7    365 -0.49079800  12.010000   ; qtot -0.837835
  366         hc     13    ccc    H12    366 0.15101200   1.008000   ; qtot -0.686823
  367         hc     13    ccc    H13    367 0.15101200   1.008000   ; qtot -0.535811
  368          c     13    ccc     C8    368 0.558828  12.010000   ; qtot 0.466388
  369          o     13    ccc     O3    369 -0.39142825  16.000000   ; qtot -0.197950
  370         oh     13    ccc     O4    370 -0.56822625  16.000000   ; qtot -0.971036
  371         ho     13    ccc    H14    371 0.4511195   1.008000   ; qtot -0.485518
  372         ho     13    ccc    H15    372 0.4511195   1.008000   ; qtot -0.000000

[ bonds ]
;    ai     aj funct         c0         c1         c2         c3
      1      4     1   0.15375 251793.120000
      1      8     1   0.14647 272713.120000
      4      7     1   0.14647 272713.120000
      7     15     1   0.14647 272713.120000
      7     18     1   0.14647 272713.120000
      8      9     1   0.14647 272713.120000
      8     12     1   0.14647 272713.120000
      9     30     1   0.15375 251793.120000
     12     27     1   0.15375 251793.120000
     15     21     1   0.15375 251793.120000
     18     24     1   0.15375 251793.120000
     21     35     1   0.15241 261918.400000
     24     36     1   0.15241 261918.400000
     27     33     1   0.15241 261918.400000
     30     34     1   0.15241 261918.400000
     33     37     1   0.12183 533627.360000
     33     64     1   0.13789 357815.680000
     34     40     1   0.12183 533627.360000
     34     89     1   0.13789 357815.680000
     35     38     1   0.12183 533627.360000
     35    114     1   0.13789 357815.680000
     36     39     1   0.12183 533627.360000
     36    139     1   0.13789 357815.680000
     41     44     1   0.15375 251793.120000
     41     47     1   0.14647 272713.120000
     44     64     1   0.14619 275056.160000
     47     48     1   0.14647 272713.120000
     47     51     1   0.14647 272713.120000
     48     57     1   0.15375 251793.120000
     51     54     1   0.15375 251793.120000
     54     60     1   0.15241 261918.400000
     57     61     1   0.15241 261918.400000
     60    141     1   0.13789 357815.680000
     60     62     1   0.12183 533627.360000
     61     63     1   0.12183 533627.360000
     61    170     1   0.13789 357815.680000
     66     69     1   0.15375 251793.120000
     66     72     1   0.14647 272713.120000
     69     89     1   0.14619 275056.160000
     72     73     1   0.14647 272713.120000
     72     76     1   0.14647 272713.120000
     73     82     1   0.15375 251793.120000
     76     79     1   0.15375 251793.120000
     79     85     1   0.15241 261918.400000
     82     86     1   0.15241 261918.400000
     85    199     1   0.13789 357815.680000
     85     87     1   0.12183 533627.360000
     86     88     1   0.12183 533627.360000
     86    228     1   0.13789 357815.680000
     91     94     1   0.15375 251793.120000
     91     97     1   0.14647 272713.120000
     94    114     1   0.14619 275056.160000
     97     98     1   0.14647 272713.120000
     97    101     1   0.14647 272713.120000
     98    107     1   0.15375 251793.120000
    101    104     1   0.15375 251793.120000
    104    110     1   0.15241 261918.400000
    107    111     1   0.15241 261918.400000
    110    257     1   0.13789 357815.680000
    110    112     1   0.12183 533627.360000
    111    113     1   0.12183 533627.360000
    111    286     1   0.13789 357815.680000
    116    119     1   0.15375 251793.120000
    116    122     1   0.14647 272713.120000
    119    139     1   0.14619 275056.160000
    122    123     1   0.14647 272713.120000
    122    126     1   0.14647 272713.120000
    123    132     1   0.15375 251793.120000
    126    129     1   0.15375 251793.120000
    129    135     1   0.15241 261918.400000
    132    136     1   0.15241 261918.400000
    135    315     1   0.13789 357815.680000
    135    137     1   0.12183 533627.360000
    136    344     1   0.13789 357815.680000
    136    138     1   0.12183 533627.360000
    141    143     1   0.14619 275056.160000
    143    145     1   0.15375 251793.120000
    145    149     1   0.14647 272713.120000
    149    150     1   0.14647 272713.120000
    149    151     1   0.14647 272713.120000
    150    162     1   0.15375 251793.120000
    151    153     1   0.15375 251793.120000
    153    157     1   0.15241 261918.400000
    157    158     1   0.13513 334803.680000
    157    159     1   0.12183 533627.360000
    162    165     1   0.15241 261918.400000
    165    166     1   0.12183 533627.360000
    165    167     1   0.13513 334803.680000
    170    172     1   0.14619 275056.160000
    172    174     1   0.15375 251793.120000
    174    178     1   0.14647 272713.120000
    178    179     1   0.14647 272713.120000
    178    180     1   0.14647 272713.120000
    179    191     1   0.15375 251793.120000
    180    182     1   0.15375 251793.120000
    182    186     1   0.15241 261918.400000
    186    187     1   0.13513 334803.680000
    186    188     1   0.12183 533627.360000
    191    194     1   0.15241 261918.400000
    194    195     1   0.12183 533627.360000
    194    196     1   0.13513 334803.680000
    199    201     1   0.14619 275056.160000
    201    203     1   0.15375 251793.120000
    203    207     1   0.14647 272713.120000
    207    208     1   0.14647 272713.120000
    207    209     1   0.14647 272713.120000
    208    220     1   0.15375 251793.120000
    209    211     1   0.15375 251793.120000
    211    215     1   0.15241 261918.400000
    215    216     1   0.13513 334803.680000
    215    217     1   0.12183 533627.360000
    220    223     1   0.15241 261918.400000
    223    224     1   0.12183 533627.360000
    223    225     1   0.13513 334803.680000
    228    230     1   0.14619 275056.160000
    230    232     1   0.15375 251793.120000
    232    236     1   0.14647 272713.120000
    236    237     1   0.14647 272713.120000
    236    238     1   0.14647 272713.120000
    237    249     1   0.15375 251793.120000
    238    240     1   0.15375 251793.120000
    240    244     1   0.15241 261918.400000
    244    245     1   0.13513 334803.680000
    244    246     1   0.12183 533627.360000
    249    252     1   0.15241 261918.400000
    252    253     1   0.12183 533627.360000
    252    254     1   0.13513 334803.680000
    257    259     1   0.14619 275056.160000
    259    261     1   0.15375 251793.120000
    261    265     1   0.14647 272713.120000
    265    266     1   0.14647 272713.120000
    265    267     1   0.14647 272713.120000
    266    278     1   0.15375 251793.120000
    267    269     1   0.15375 251793.120000
    269    273     1   0.15241 261918.400000
    273    274     1   0.13513 334803.680000
    273    275     1   0.12183 533627.360000
    278    281     1   0.15241 261918.400000
    281    282     1   0.12183 533627.360000
    281    283     1   0.13513 334803.680000
    286    288     1   0.14619 275056.160000
    288    290     1   0.15375 251793.120000
    290    294     1   0.14647 272713.120000
    294    295     1   0.14647 272713.120000
    294    296     1   0.14647 272713.120000
    295    307     1   0.15375 251793.120000
    296    298     1   0.15375 251793.120000
    298    302     1   0.15241 261918.400000
    302    303     1   0.13513 334803.680000
    302    304     1   0.12183 533627.360000
    307    310     1   0.15241 261918.400000
    310    311     1   0.12183 533627.360000
    310    312     1   0.13513 334803.680000
    315    317     1   0.14619 275056.160000
    317    319     1   0.15375 251793.120000
    319    323     1   0.14647 272713.120000
    323    324     1   0.14647 272713.120000
    323    325     1   0.14647 272713.120000
    324    336     1   0.15375 251793.120000
    325    327     1   0.15375 251793.120000
    327    331     1   0.15241 261918.400000
    331    332     1   0.13513 334803.680000
    331    333     1   0.12183 533627.360000
    336    339     1   0.15241 261918.400000
    339    340     1   0.12183 533627.360000
    339    341     1   0.13513 334803.680000
    344    346     1   0.14619 275056.160000
    346    348     1   0.15375 251793.120000
    348    352     1   0.14647 272713.120000
    352    353     1   0.14647 272713.120000
    352    354     1   0.14647 272713.120000
    353    365     1   0.15375 251793.120000
    354    356     1   0.15375 251793.120000
    356    360     1   0.15241 261918.400000
    360    361     1   0.13513 334803.680000
    360    362     1   0.12183 533627.360000
    365    368     1   0.15241 261918.400000
    368    369     1   0.12183 533627.360000
    368    370     1   0.13513 334803.680000
      1      2     1   0.10969 276646.080000
      1      3     1   0.10969 276646.080000
      4      5     1   0.10969 276646.080000
      4      6     1   0.10969 276646.080000
      9     10     1   0.10969 276646.080000
      9     11     1   0.10969 276646.080000
     12     13     1   0.10969 276646.080000
     12     14     1   0.10969 276646.080000
     15     16     1   0.10969 276646.080000
     15     17     1   0.10969 276646.080000
     18     19     1   0.10969 276646.080000
     18     20     1   0.10969 276646.080000
     21     22     1   0.10969 276646.080000
     21     23     1   0.10969 276646.080000
     24     25     1   0.10969 276646.080000
     24     26     1   0.10969 276646.080000
     27     28     1   0.10969 276646.080000
     27     29     1   0.10969 276646.080000
     30     31     1   0.10969 276646.080000
     30     32     1   0.10969 276646.080000
     41     42     1   0.10969 276646.080000
     41     43     1   0.10969 276646.080000
     44     45     1   0.10969 276646.080000
     44     46     1   0.10969 276646.080000
     48     49     1   0.10969 276646.080000
     48     50     1   0.10969 276646.080000
     51     52     1   0.10969 276646.080000
     51     53     1   0.10969 276646.080000
     54     55     1   0.10969 276646.080000
     54     56     1   0.10969 276646.080000
     57     58     1   0.10969 276646.080000
     57     59     1   0.10969 276646.080000
     64     65     1   0.10129 337397.760000
     66     67     1   0.10969 276646.080000
     66     68     1   0.10969 276646.080000
     69     70     1   0.10969 276646.080000
     69     71     1   0.10969 276646.080000
     73     74     1   0.10969 276646.080000
     73     75     1   0.10969 276646.080000
     76     77     1   0.10969 276646.080000
     76     78     1   0.10969 276646.080000
     79     80     1   0.10969 276646.080000
     79     81     1   0.10969 276646.080000
     82     83     1   0.10969 276646.080000
     82     84     1   0.10969 276646.080000
     89     90     1   0.10129 337397.760000
     91     92     1   0.10969 276646.080000
     91     93     1   0.10969 276646.080000
     94     95     1   0.10969 276646.080000
     94     96     1   0.10969 276646.080000
     98     99     1   0.10969 276646.080000
     98    100     1   0.10969 276646.080000
    101    102     1   0.10969 276646.080000
    101    103     1   0.10969 276646.080000
    104    105     1   0.10969 276646.080000
    104    106     1   0.10969 276646.080000
    107    108     1   0.10969 276646.080000
    107    109     1   0.10969 276646.080000
    114    115     1   0.10129 337397.760000
    116    117     1   0.10969 276646.080000
    116    118     1   0.10969 276646.080000
    119    120     1   0.10969 276646.080000
    119    121     1   0.10969 276646.080000
    123    124     1   0.10969 276646.080000
    123    125     1   0.10969 276646.080000
    126    127     1   0.10969 276646.080000
    126    128     1   0.10969 276646.080000
    129    130     1   0.10969 276646.080000
    129    131     1   0.10969 276646.080000
    132    133     1   0.10969 276646.080000
    132    134     1   0.10969 276646.080000
    139    140     1   0.10129 337397.760000
    141    142     1   0.10129 337397.760000
    143    144     1   0.10969 276646.080000
    143    146     1   0.10969 276646.080000
    145    147     1   0.10969 276646.080000
    145    148     1   0.10969 276646.080000
    150    160     1   0.10969 276646.080000
    150    161     1   0.10969 276646.080000
    151    152     1   0.10969 276646.080000
    151    154     1   0.10969 276646.080000
    153    155     1   0.10969 276646.080000
    153    156     1   0.10969 276646.080000
    158    168     1   0.09730 310787.520000
    162    163     1   0.10969 276646.080000
    162    164     1   0.10969 276646.080000
    167    169     1   0.09730 310787.520000
    170    171     1   0.10129 337397.760000
    172    173     1   0.10969 276646.080000
    172    175     1   0.10969 276646.080000
    174    176     1   0.10969 276646.080000
    174    177     1   0.10969 276646.080000
    179    189     1   0.10969 276646.080000
    179    190     1   0.10969 276646.080000
    180    181     1   0.10969 276646.080000
    180    183     1   0.10969 276646.080000
    182    184     1   0.10969 276646.080000
    182    185     1   0.10969 276646.080000
    187    197     1   0.09730 310787.520000
    191    192     1   0.10969 276646.080000
    191    193     1   0.10969 276646.080000
    196    198     1   0.09730 310787.520000
    199    200     1   0.10129 337397.760000
    201    202     1   0.10969 276646.080000
    201    204     1   0.10969 276646.080000
    203    205     1   0.10969 276646.080000
    203    206     1   0.10969 276646.080000
    208    218     1   0.10969 276646.080000
    208    219     1   0.10969 276646.080000
    209    210     1   0.10969 276646.080000
    209    212     1   0.10969 276646.080000
    211    213     1   0.10969 276646.080000
    211    214     1   0.10969 276646.080000
    216    226     1   0.09730 310787.520000
    220    221     1   0.10969 276646.080000
    220    222     1   0.10969 276646.080000
    225    227     1   0.09730 310787.520000
    228    229     1   0.10129 337397.760000
    230    231     1   0.10969 276646.080000
    230    233     1   0.10969 276646.080000
    232    234     1   0.10969 276646.080000
    232    235     1   0.10969 276646.080000
    237    247     1   0.10969 276646.080000
    237    248     1   0.10969 276646.080000
    238    239     1   0.10969 276646.080000
    238    241     1   0.10969 276646.080000
    240    242     1   0.10969 276646.080000
    240    243     1   0.10969 276646.080000
    245    255     1   0.09730 310787.520000
    249    250     1   0.10969 276646.080000
    249    251     1   0.10969 276646.080000
    254    256     1   0.09730 310787.520000
    257    258     1   0.10129 337397.760000
    259    260     1   0.10969 276646.080000
    259    262     1   0.10969 276646.080000
    261    263     1   0.10969 276646.080000
    261    264     1   0.10969 276646.080000
    266    276     1   0.10969 276646.080000
    266    277     1   0.10969 276646.080000
    267    268     1   0.10969 276646.080000
    267    270     1   0.10969 276646.080000
    269    271     1   0.10969 276646.080000
    269    272     1   0.10969 276646.080000
    274    284     1   0.09730 310787.520000
    278    279     1   0.10969 276646.080000
    278    280     1   0.10969 276646.080000
    283    285     1   0.09730 310787.520000
    286    287     1   0.10129 337397.760000
    288    289     1   0.10969 276646.080000
    288    291     1   0.10969 276646.080000
    290    292     1   0.10969 276646.080000
    290    293     1   0.10969 276646.080000
    295    305     1   0.10969 276646.080000
    295    306     1   0.10969 276646.080000
    296    297     1   0.10969 276646.080000
    296    299     1   0.10969 276646.080000
    298    300     1   0.10969 276646.080000
    298    301     1   0.10969 276646.080000
    303    313     1   0.09730 310787.520000
    307    308     1   0.10969 276646.080000
    307    309     1   0.10969 276646.080000
    312    314     1   0.09730 310787.520000
    315    316     1   0.10129 337397.760000
    317    318     1   0.10969 276646.080000
    317    320     1   0.10969 276646.080000
    319    321     1   0.10969 276646.080000
    319    322     1   0.10969 276646.080000
    324    334     1   0.10969 276646.080000
    324    335     1   0.10969 276646.080000
    325    326     1   0.10969 276646.080000
    325    328     1   0.10969 276646.080000
    327    329     1   0.10969 276646.080000
    327    330     1   0.10969 276646.080000
    332    342     1   0.09730 310787.520000
    336    337     1   0.10969 276646.080000
    336    338     1   0.10969 276646.080000
    341    343     1   0.09730 310787.520000
    344    345     1   0.10129 337397.760000
    346    347     1   0.10969 276646.080000
    346    349     1   0.10969 276646.080000
    348    350     1   0.10969 276646.080000
    348    351     1   0.10969 276646.080000
    353    363     1   0.10969 276646.080000
    353    364     1   0.10969 276646.080000
    354    355     1   0.10969 276646.080000
    354    357     1   0.10969 276646.080000
    356    358     1   0.10969 276646.080000
    356    359     1   0.10969 276646.080000
    361    371     1   0.09730 310787.520000
    365    366     1   0.10969 276646.080000
    365    367     1   0.10969 276646.080000
    370    372     1   0.09730 310787.520000

[ pairs ]
;    ai     aj funct         c0         c1         c2         c3
      1     15     1
      1     18     1
      1     30     1
      1     27     1
      4      9     1
      4     12     1
      4     21     1
      4     24     1
      8      7     1
      7     35     1
      7     36     1
      8     34     1
      8     33     1
      9     27     1
      9     40     1
      9     89     1
     12     30     1
     12     37     1
     12     64     1
     15     24     1
     15     38     1
     15    114     1
     18     21     1
     18     39     1
     18    139     1
     21     94     1
     24    119     1
     27     44     1
     30     69     1
     33     41     1
     34     66     1
     35     91     1
     36    116     1
     37     44     1
     38     94     1
     39    119     1
     40     69     1
     41     57     1
     41     54     1
     44     48     1
     44     51     1
     47     64     1
     47     61     1
     47     60     1
     48     54     1
     48     63     1
     48    170     1
     51     57     1
     51    141     1
     51     62     1
     54    143     1
     57    172     1
     60    145     1
     61    174     1
     62    143     1
     63    172     1
     66     82     1
     66     79     1
     69     73     1
     69     76     1
     72     89     1
     72     86     1
     72     85     1
     73     79     1
     73     88     1
     73    228     1
     76     82     1
     76    199     1
     76     87     1
     79    201     1
     82    230     1
     85    203     1
     86    232     1
     87    201     1
     88    230     1
     91    107     1
     91    104     1
     94     98     1
     94    101     1
     97    114     1
     97    111     1
     97    110     1
     98    104     1
     98    113     1
     98    286     1
    101    107     1
    101    257     1
    101    112     1
    104    259     1
    107    288     1
    110    261     1
    111    290     1
    112    259     1
    113    288     1
    116    132     1
    116    129     1
    119    123     1
    119    126     1
    122    139     1
    122    136     1
    122    135     1
    123    129     1
    123    344     1
    123    138     1
    126    132     1
    126    315     1
    126    137     1
    129    317     1
    132    346     1
    135    319     1
    136    348     1
    137    317     1
    138    346     1
    141    149     1
    143    150     1
    143    151     1
    145    162     1
    145    153     1
    149    165     1
    149    157     1
    150    153     1
    150    166     1
    150    167     1
    151    162     1
    151    158     1
    151    159     1
    170    178     1
    172    179     1
    172    180     1
    174    191     1
    174    182     1
    178    194     1
    178    186     1
    179    195     1
    179    196     1
    179    182     1
    180    187     1
    180    188     1
    180    191     1
    199    207     1
    201    208     1
    201    209     1
    203    220     1
    203    211     1
    207    223     1
    207    215     1
    208    211     1
    208    224     1
    208    225     1
    209    220     1
    209    216     1
    209    217     1
    228    236     1
    230    237     1
    230    238     1
    232    249     1
    232    240     1
    236    252     1
    236    244     1
    237    253     1
    237    254     1
    237    240     1
    238    245     1
    238    246     1
    238    249     1
    257    265     1
    259    266     1
    259    267     1
    261    278     1
    261    269     1
    265    281     1
    265    273     1
    266    269     1
    266    282     1
    266    283     1
    267    278     1
    267    274     1
    267    275     1
    286    294     1
    288    295     1
    288    296     1
    290    307     1
    290    298     1
    294    310     1
    294    302     1
    295    311     1
    295    312     1
    295    298     1
    296    303     1
    296    304     1
    296    307     1
    315    323     1
    317    324     1
    317    325     1
    319    336     1
    319    327     1
    323    339     1
    323    331     1
    324    327     1
    324    340     1
    324    341     1
    325    336     1
    325    332     1
    325    333     1
    344    352     1
    346    353     1
    346    354     1
    348    365     1
    348    356     1
    352    368     1
    352    360     1
    353    369     1
    353    370     1
    353    356     1
    354    361     1
    354    362     1
    354    365     1
      1     10     1
      1     11     1
      1     13     1
      1     14     1
      2      7     1
      2      5     1
      2      6     1
      2      9     1
      2     12     1
      3      7     1
      3      5     1
      3      6     1
      3      9     1
      3     12     1
      4     16     1
      4     17     1
      4     19     1
      4     20     1
      8      5     1
      5     15     1
      5     18     1
      8      6     1
      6     15     1
      6     18     1
      7     22     1
      7     23     1
      7     25     1
      7     26     1
      8     31     1
      8     32     1
      8     28     1
      8     29     1
      9     13     1
      9     14     1
     10     12     1
     10     34     1
     10     31     1
     10     32     1
     11     12     1
     11     34     1
     11     31     1
     11     32     1
     13     33     1
     13     28     1
     13     29     1
     14     33     1
     14     28     1
     14     29     1
     15     19     1
     15     20     1
     16     18     1
     16     35     1
     16     22     1
     16     23     1
     17     18     1
     17     35     1
     17     22     1
     17     23     1
     19     36     1
     19     25     1
     19     26     1
     20     36     1
     20     25     1
     20     26     1
     21    115     1
     22     38     1
     22    114     1
     23     38     1
     23    114     1
     24    140     1
     25     39     1
     25    139     1
     26     39     1
     26    139     1
     27     65     1
     28     37     1
     28     64     1
     29     37     1
     29     64     1
     30     90     1
     31     40     1
     31     89     1
     32     40     1
     32     89     1
     33     45     1
     33     46     1
     34     70     1
     34     71     1
     35     95     1
     35     96     1
     36    120     1
     36    121     1
     37     65     1
     38    115     1
     39    140     1
     40     90     1
     41     65     1
     41     49     1
     41     50     1
     41     52     1
     41     53     1
     42     64     1
     42     45     1
     42     46     1
     42     48     1
     42     51     1
     43     64     1
     43     45     1
     43     46     1
     43     48     1
     43     51     1
     45     47     1
     45     65     1
     46     47     1
     46     65     1
     47     58     1
     47     59     1
     47     55     1
     47     56     1
     48     52     1
     48     53     1
     49     51     1
     49     61     1
     49     58     1
     49     59     1
     50     51     1
     50     61     1
     50     58     1
     50     59     1
     52     60     1
     52     55     1
     52     56     1
     53     60     1
     53     55     1
     53     56     1
     54    142     1
     55    141     1
     55     62     1
     56    141     1
     56     62     1
     57    171     1
     58     63     1
     58    170     1
     59     63     1
     59    170     1
     60    144     1
     60    146     1
     61    173     1
     61    175     1
     62    142     1
     63    171     1
     66     90     1
     66     74     1
     66     75     1
     66     77     1
     66     78     1
     67     89     1
     67     70     1
     67     71     1
     67     73     1
     67     76     1
     68     89     1
     68     70     1
     68     71     1
     68     73     1
     68     76     1
     70     72     1
     70     90     1
     71     72     1
     71     90     1
     72     83     1
     72     84     1
     72     80     1
     72     81     1
     73     77     1
     73     78     1
     74     76     1
     74     86     1
     74     83     1
     74     84     1
     75     76     1
     75     86     1
     75     83     1
     75     84     1
     77     85     1
     77     80     1
     77     81     1
     78     85     1
     78     80     1
     78     81     1
     79    200     1
     80    199     1
     80     87     1
     81    199     1
     81     87     1
     82    229     1
     83     88     1
     83    228     1
     84     88     1
     84    228     1
     85    202     1
     85    204     1
     86    231     1
     86    233     1
     87    200     1
     88    229     1
     91    115     1
     91     99     1
     91    100     1
     91    102     1
     91    103     1
     92    114     1
     92     95     1
     92     96     1
     92     98     1
     92    101     1
     93    114     1
     93     95     1
     93     96     1
     93     98     1
     93    101     1
     95     97     1
     95    115     1
     96     97     1
     96    115     1
     97    108     1
     97    109     1
     97    105     1
     97    106     1
     98    102     1
     98    103     1
     99    101     1
     99    111     1
     99    108     1
     99    109     1
    100    101     1
    100    111     1
    100    108     1
    100    109     1
    102    110     1
    102    105     1
    102    106     1
    103    110     1
    103    105     1
    103    106     1
    104    258     1
    105    257     1
    105    112     1
    106    257     1
    106    112     1
    107    287     1
    108    113     1
    108    286     1
    109    113     1
    109    286     1
    110    260     1
    110    262     1
    111    289     1
    111    291     1
    112    258     1
    113    287     1
    116    140     1
    116    124     1
    116    125     1
    116    127     1
    116    128     1
    117    139     1
    117    120     1
    117    121     1
    117    123     1
    117    126     1
    118    139     1
    118    120     1
    118    121     1
    118    123     1
    118    126     1
    120    122     1
    120    140     1
    121    122     1
    121    140     1
    122    133     1
    122    134     1
    122    130     1
    122    131     1
    123    127     1
    123    128     1
    124    126     1
    124    136     1
    124    133     1
    124    134     1
    125    126     1
    125    136     1
    125    133     1
    125    134     1
    127    135     1
    127    130     1
    127    131     1
    128    135     1
    128    130     1
    128    131     1
    129    316     1
    130    315     1
    130    137     1
    131    315     1
    131    137     1
    132    345     1
    133    344     1
    133    138     1
    134    344     1
    134    138     1
    135    318     1
    135    320     1
    136    347     1
    136    349     1
    137    316     1
    138    345     1
    141    147     1
    141    148     1
    142    145     1
    142    144     1
    142    146     1
    144    149     1
    144    147     1
    144    148     1
    145    160     1
    145    161     1
    145    152     1
    145    154     1
    146    149     1
    146    147     1
    146    148     1
    147    150     1
    147    151     1
    148    150     1
    148    151     1
    149    163     1
    149    164     1
    149    155     1
    149    156     1
    150    152     1
    150    154     1
    151    160     1
    151    161     1
    152    157     1
    152    155     1
    152    156     1
    153    168     1
    154    157     1
    154    155     1
    154    156     1
    155    158     1
    155    159     1
    156    158     1
    156    159     1
    159    168     1
    160    165     1
    160    163     1
    160    164     1
    161    165     1
    161    163     1
    161    164     1
    162    169     1
    163    166     1
    163    167     1
    164    166     1
    164    167     1
    166    169     1
    170    176     1
    170    177     1
    171    174     1
    171    173     1
    171    175     1
    173    178     1
    173    176     1
    173    177     1
    174    189     1
    174    190     1
    174    181     1
    174    183     1
    175    178     1
    175    176     1
    175    177     1
    176    179     1
    176    180     1
    177    179     1
    177    180     1
    178    192     1
    178    193     1
    178    184     1
    178    185     1
    179    181     1
    179    183     1
    180    189     1
    180    190     1
    181    186     1
    181    184     1
    181    185     1
    182    197     1
    183    186     1
    183    184     1
    183    185     1
    184    187     1
    184    188     1
    185    187     1
    185    188     1
    188    197     1
    189    194     1
    189    192     1
    189    193     1
    190    194     1
    190    192     1
    190    193     1
    191    198     1
    192    195     1
    192    196     1
    193    195     1
    193    196     1
    195    198     1
    199    205     1
    199    206     1
    200    203     1
    200    202     1
    200    204     1
    202    207     1
    202    205     1
    202    206     1
    203    218     1
    203    219     1
    203    210     1
    203    212     1
    204    207     1
    204    205     1
    204    206     1
    205    208     1
    205    209     1
    206    208     1
    206    209     1
    207    221     1
    207    222     1
    207    213     1
    207    214     1
    208    210     1
    208    212     1
    209    218     1
    209    219     1
    210    215     1
    210    213     1
    210    214     1
    211    226     1
    212    215     1
    212    213     1
    212    214     1
    213    216     1
    213    217     1
    214    216     1
    214    217     1
    217    226     1
    218    223     1
    218    221     1
    218    222     1
    219    223     1
    219    221     1
    219    222     1
    220    227     1
    221    224     1
    221    225     1
    222    224     1
    222    225     1
    224    227     1
    228    234     1
    228    235     1
    229    232     1
    229    231     1
    229    233     1
    231    236     1
    231    234     1
    231    235     1
    232    247     1
    232    248     1
    232    239     1
    232    241     1
    233    236     1
    233    234     1
    233    235     1
    234    237     1
    234    238     1
    235    237     1
    235    238     1
    236    250     1
    236    251     1
    236    242     1
    236    243     1
    237    239     1
    237    241     1
    238    247     1
    238    248     1
    239    244     1
    239    242     1
    239    243     1
    240    255     1
    241    244     1
    241    242     1
    241    243     1
    242    245     1
    242    246     1
    243    245     1
    243    246     1
    246    255     1
    247    252     1
    247    250     1
    247    251     1
    248    252     1
    248    250     1
    248    251     1
    249    256     1
    250    253     1
    250    254     1
    251    253     1
    251    254     1
    253    256     1
    257    263     1
    257    264     1
    258    261     1
    258    260     1
    258    262     1
    260    265     1
    260    263     1
    260    264     1
    261    276     1
    261    277     1
    261    268     1
    261    270     1
    262    265     1
    262    263     1
    262    264     1
    263    266     1
    263    267     1
    264    266     1
    264    267     1
    265    279     1
    265    280     1
    265    271     1
    265    272     1
    266    268     1
    266    270     1
    267    276     1
    267    277     1
    268    273     1
    268    271     1
    268    272     1
    269    284     1
    270    273     1
    270    271     1
    270    272     1
    271    274     1
    271    275     1
    272    274     1
    272    275     1
    275    284     1
    276    281     1
    276    279     1
    276    280     1
    277    281     1
    277    279     1
    277    280     1
    278    285     1
    279    282     1
    279    283     1
    280    282     1
    280    283     1
    282    285     1
    286    292     1
    286    293     1
    287    290     1
    287    289     1
    287    291     1
    289    294     1
    289    292     1
    289    293     1
    290    305     1
    290    306     1
    290    297     1
    290    299     1
    291    294     1
    291    292     1
    291    293     1
    292    295     1
    292    296     1
    293    295     1
    293    296     1
    294    308     1
    294    309     1
    294    300     1
    294    301     1
    295    297     1
    295    299     1
    296    305     1
    296    306     1
    297    302     1
    297    300     1
    297    301     1
    298    313     1
    299    302     1
    299    300     1
    299    301     1
    300    303     1
    300    304     1
    301    303     1
    301    304     1
    304    313     1
    305    310     1
    305    308     1
    305    309     1
    306    310     1
    306    308     1
    306    309     1
    307    314     1
    308    311     1
    308    312     1
    309    311     1
    309    312     1
    311    314     1
    315    321     1
    315    322     1
    316    319     1
    316    318     1
    316    320     1
    318    323     1
    318    321     1
    318    322     1
    319    334     1
    319    335     1
    319    326     1
    319    328     1
    320    323     1
    320    321     1
    320    322     1
    321    324     1
    321    325     1
    322    324     1
    322    325     1
    323    337     1
    323    338     1
    323    329     1
    323    330     1
    324    326     1
    324    328     1
    325    334     1
    325    335     1
    326    331     1
    326    329     1
    326    330     1
    327    342     1
    328    331     1
    328    329     1
    328    330     1
    329    332     1
    329    333     1
    330    332     1
    330    333     1
    333    342     1
    334    339     1
    334    337     1
    334    338     1
    335    339     1
    335    337     1
    335    338     1
    336    343     1
    337    340     1
    337    341     1
    338    340     1
    338    341     1
    340    343     1
    344    350     1
    344    351     1
    345    348     1
    345    347     1
    345    349     1
    347    352     1
    347    350     1
    347    351     1
    348    363     1
    348    364     1
    348    355     1
    348    357     1
    349    352     1
    349    350     1
    349    351     1
    350    353     1
    350    354     1
    351    353     1
    351    354     1
    352    366     1
    352    367     1
    352    358     1
    352    359     1
    353    355     1
    353    357     1
    354    363     1
    354    364     1
    355    360     1
    355    358     1
    355    359     1
    356    371     1
    357    360     1
    357    358     1
    357    359     1
    358    361     1
    358    362     1
    359    361     1
    359    362     1
    362    371     1
    363    368     1
    363    366     1
    363    367     1
    364    368     1
    364    366     1
    364    367     1
    365    372     1
    366    369     1
    366    370     1
    367    369     1
    367    370     1
    369    372     1

[ angles ]
;    ai     aj     ak funct         c0         c1         c2         c3
      1      4      7     1   111.0400475 552.288000
      1      8      9     1   112.3500484 533.878400
      1      8     12     1   112.3500484 533.878400
      4      1      8     1   111.0400475 552.288000
      4      7     15     1   112.3500484 533.878400
      4      7     18     1   112.3500484 533.878400
      7     15     21     1   111.0400475 552.288000
      7     18     24     1   111.0400475 552.288000
      8      9     30     1   111.0400475 552.288000
      8     12     27     1   111.0400475 552.288000
      9      8     12     1   112.3500484 533.878400
      9     30     34     1   111.0400475 529.694400
     12     27     33     1   111.0400475 529.694400
     15      7     18     1   112.3500484 533.878400
     15     21     35     1   111.0400475 529.694400
     18     24     36     1   111.0400475 529.694400
     21     35     38     1   123.2000528 564.003200
     21     35    114     1   115.1800491 558.982400
     24     36     39     1   123.2000528 564.003200
     24     36    139     1   115.1800491 558.982400
     27     33     37     1   123.2000528 564.003200
     27     33     64     1   115.1800491 558.982400
     30     34     40     1   123.2000528 564.003200
     30     34     89     1   115.1800491 558.982400
     33     64     44     1   120.6900519 530.531200
     34     89     69     1   120.6900519 530.531200
     35    114     94     1   120.6900519 530.531200
     36    139    119     1   120.6900519 530.531200
     37     33     64     1   123.0500530 620.905600
     38     35    114     1   123.0500530 620.905600
     39     36    139     1   123.0500530 620.905600
     40     34     89     1   123.0500530 620.905600
     41     44     64     1   111.6100477 551.451200
     41     47     48     1   112.3500484 533.878400
     41     47     51     1   112.3500484 533.878400
     44     41     47     1   111.0400475 552.288000
     47     48     57     1   111.0400475 552.288000
     47     51     54     1   111.0400475 552.288000
     48     47     51     1   112.3500484 533.878400
     48     57     61     1   111.0400475 529.694400
     51     54     60     1   111.0400475 529.694400
     54     60    141     1   115.1800491 558.982400
     54     60     62     1   123.2000528 564.003200
     57     61     63     1   123.2000528 564.003200
     57     61    170     1   115.1800491 558.982400
     60    141    143     1   120.6900519 530.531200
     61    170    172     1   120.6900519 530.531200
     62     60    141     1   123.0500530 620.905600
     63     61    170     1   123.0500530 620.905600
     66     69     89     1   111.6100477 551.451200
     66     72     73     1   112.3500484 533.878400
     66     72     76     1   112.3500484 533.878400
     69     66     72     1   111.0400475 552.288000
     72     73     82     1   111.0400475 552.288000
     72     76     79     1   111.0400475 552.288000
     73     72     76     1   112.3500484 533.878400
     73     82     86     1   111.0400475 529.694400
     76     79     85     1   111.0400475 529.694400
     79     85    199     1   115.1800491 558.982400
     79     85     87     1   123.2000528 564.003200
     82     86     88     1   123.2000528 564.003200
     82     86    228     1   115.1800491 558.982400
     85    199    201     1   120.6900519 530.531200
     86    228    230     1   120.6900519 530.531200
     87     85    199     1   123.0500530 620.905600
     88     86    228     1   123.0500530 620.905600
     91     94    114     1   111.6100477 551.451200
     91     97     98     1   112.3500484 533.878400
     91     97    101     1   112.3500484 533.878400
     94     91     97     1   111.0400475 552.288000
     97     98    107     1   111.0400475 552.288000
     97    101    104     1   111.0400475 552.288000
     98     97    101     1   112.3500484 533.878400
     98    107    111     1   111.0400475 529.694400
    101    104    110     1   111.0400475 529.694400
    104    110    257     1   115.1800491 558.982400
    104    110    112     1   123.2000528 564.003200
    107    111    113     1   123.2000528 564.003200
    107    111    286     1   115.1800491 558.982400
    110    257    259     1   120.6900519 530.531200
    111    286    288     1   120.6900519 530.531200
    112    110    257     1   123.0500530 620.905600
    113    111    286     1   123.0500530 620.905600
    116    119    139     1   111.6100477 551.451200
    116    122    123     1   112.3500484 533.878400
    116    122    126     1   112.3500484 533.878400
    119    116    122     1   111.0400475 552.288000
    122    123    132     1   111.0400475 552.288000
    122    126    129     1   111.0400475 552.288000
    123    122    126     1   112.3500484 533.878400
    123    132    136     1   111.0400475 529.694400
    126    129    135     1   111.0400475 529.694400
    129    135    315     1   115.1800491 558.982400
    129    135    137     1   123.2000528 564.003200
    132    136    344     1   115.1800491 558.982400
    132    136    138     1   123.2000528 564.003200
    135    315    317     1   120.6900519 530.531200
    136    344    346     1   120.6900519 530.531200
    137    135    315     1   123.0500530 620.905600
    138    136    344     1   123.0500530 620.905600
    141    143    145     1   111.6100477 551.451200
    143    145    149     1   111.0400475 552.288000
    145    149    150     1   112.3500484 533.878400
    145    149    151     1   112.3500484 533.878400
    149    150    162     1   111.0400475 552.288000
    149    151    153     1   111.0400475 552.288000
    150    149    151     1   112.3500484 533.878400
    150    162    165     1   111.0400475 529.694400
    151    153    157     1   111.0400475 529.694400
    153    157    158     1   112.7300484 572.371200
    153    157    159     1   123.2000528 564.003200
    158    157    159     1   122.1000523 635.131200
    162    165    166     1   123.2000528 564.003200
    162    165    167     1   112.7300484 572.371200
    166    165    167     1   122.1000523 635.131200
    170    172    174     1   111.6100477 551.451200
    172    174    178     1   111.0400475 552.288000
    174    178    179     1   112.3500484 533.878400
    174    178    180     1   112.3500484 533.878400
    178    179    191     1   111.0400475 552.288000
    178    180    182     1   111.0400475 552.288000
    179    191    194     1   111.0400475 529.694400
    179    178    180     1   112.3500484 533.878400
    180    182    186     1   111.0400475 529.694400
    182    186    187     1   112.7300484 572.371200
    182    186    188     1   123.2000528 564.003200
    187    186    188     1   122.1000523 635.131200
    191    194    195     1   123.2000528 564.003200
    191    194    196     1   112.7300484 572.371200
    195    194    196     1   122.1000523 635.131200
    199    201    203     1   111.6100477 551.451200
    201    203    207     1   111.0400475 552.288000
    203    207    208     1   112.3500484 533.878400
    203    207    209     1   112.3500484 533.878400
    207    208    220     1   111.0400475 552.288000
    207    209    211     1   111.0400475 552.288000
    208    207    209     1   112.3500484 533.878400
    208    220    223     1   111.0400475 529.694400
    209    211    215     1   111.0400475 529.694400
    211    215    216     1   112.7300484 572.371200
    211    215    217     1   123.2000528 564.003200
    216    215    217     1   122.1000523 635.131200
    220    223    224     1   123.2000528 564.003200
    220    223    225     1   112.7300484 572.371200
    224    223    225     1   122.1000523 635.131200
    228    230    232     1   111.6100477 551.451200
    230    232    236     1   111.0400475 552.288000
    232    236    237     1   112.3500484 533.878400
    232    236    238     1   112.3500484 533.878400
    236    237    249     1   111.0400475 552.288000
    236    238    240     1   111.0400475 552.288000
    237    249    252     1   111.0400475 529.694400
    237    236    238     1   112.3500484 533.878400
    238    240    244     1   111.0400475 529.694400
    240    244    245     1   112.7300484 572.371200
    240    244    246     1   123.2000528 564.003200
    245    244    246     1   122.1000523 635.131200
    249    252    253     1   123.2000528 564.003200
    249    252    254     1   112.7300484 572.371200
    253    252    254     1   122.1000523 635.131200
    257    259    261     1   111.6100477 551.451200
    259    261    265     1   111.0400475 552.288000
    261    265    266     1   112.3500484 533.878400
    261    265    267     1   112.3500484 533.878400
    265    266    278     1   111.0400475 552.288000
    265    267    269     1   111.0400475 552.288000
    266    265    267     1   112.3500484 533.878400
    266    278    281     1   111.0400475 529.694400
    267    269    273     1   111.0400475 529.694400
    269    273    274     1   112.7300484 572.371200
    269    273    275     1   123.2000528 564.003200
    274    273    275     1   122.1000523 635.131200
    278    281    282     1   123.2000528 564.003200
    278    281    283     1   112.7300484 572.371200
    282    281    283     1   122.1000523 635.131200
    286    288    290     1   111.6100477 551.451200
    288    290    294     1   111.0400475 552.288000
    290    294    295     1   112.3500484 533.878400
    290    294    296     1   112.3500484 533.878400
    294    295    307     1   111.0400475 552.288000
    294    296    298     1   111.0400475 552.288000
    295    307    310     1   111.0400475 529.694400
    295    294    296     1   112.3500484 533.878400
    296    298    302     1   111.0400475 529.694400
    298    302    303     1   112.7300484 572.371200
    298    302    304     1   123.2000528 564.003200
    303    302    304     1   122.1000523 635.131200
    307    310    311     1   123.2000528 564.003200
    307    310    312     1   112.7300484 572.371200
    311    310    312     1   122.1000523 635.131200
    315    317    319     1   111.6100477 551.451200
    317    319    323     1   111.0400475 552.288000
    319    323    324     1   112.3500484 533.878400
    319    323    325     1   112.3500484 533.878400
    323    324    336     1   111.0400475 552.288000
    323    325    327     1   111.0400475 552.288000
    324    323    325     1   112.3500484 533.878400
    324    336    339     1   111.0400475 529.694400
    325    327    331     1   111.0400475 529.694400
    327    331    332     1   112.7300484 572.371200
    327    331    333     1   123.2000528 564.003200
    332    331    333     1   122.1000523 635.131200
    336    339    340     1   123.2000528 564.003200
    336    339    341     1   112.7300484 572.371200
    340    339    341     1   122.1000523 635.131200
    344    346    348     1   111.6100477 551.451200
    346    348    352     1   111.0400475 552.288000
    348    352    353     1   112.3500484 533.878400
    348    352    354     1   112.3500484 533.878400
    352    353    365     1   111.0400475 552.288000
    352    354    356     1   111.0400475 552.288000
    353    365    368     1   111.0400475 529.694400
    353    352    354     1   112.3500484 533.878400
    354    356    360     1   111.0400475 529.694400
    356    360    361     1   112.7300484 572.371200
    356    360    362     1   123.2000528 564.003200
    361    360    362     1   122.1000523 635.131200
    365    368    369     1   123.2000528 564.003200
    365    368    370     1   112.7300484 572.371200
    369    368    370     1   122.1000523 635.131200
      1      4      5     1   109.5600471 388.275200
      1      4      6     1   109.5600471 388.275200
      2      1      4     1   109.5600471 388.275200
      2      1      8     1   109.8800469 414.216000
      2      1      3     1   108.4600466 328.025600
      3      1      4     1   109.5600471 388.275200
      3      1      8     1   109.8800469 414.216000
      5      4      7     1   109.8800469 414.216000
      5      4      6     1   108.4600466 328.025600
      6      4      7     1   109.8800469 414.216000
      7     15     16     1   109.8800469 414.216000
      7     15     17     1   109.8800469 414.216000
      7     18     19     1   109.8800469 414.216000
      7     18     20     1   109.8800469 414.216000
      8      9     10     1   109.8800469 414.216000
      8      9     11     1   109.8800469 414.216000
      8     12     13     1   109.8800469 414.216000
      8     12     14     1   109.8800469 414.216000
      9     30     31     1   109.8000471 387.438400
      9     30     32     1   109.8000471 387.438400
     10      9     30     1   109.5600471 388.275200
     10      9     11     1   108.4600466 328.025600
     11      9     30     1   109.5600471 388.275200
     12     27     28     1   109.8000471 387.438400
     12     27     29     1   109.8000471 387.438400
     13     12     27     1   109.5600471 388.275200
     13     12     14     1   108.4600466 328.025600
     14     12     27     1   109.5600471 388.275200
     15     21     22     1   109.8000471 387.438400
     15     21     23     1   109.8000471 387.438400
     16     15     21     1   109.5600471 388.275200
     16     15     17     1   108.4600466 328.025600
     17     15     21     1   109.5600471 388.275200
     18     24     25     1   109.8000471 387.438400
     18     24     26     1   109.8000471 387.438400
     19     18     24     1   109.5600471 388.275200
     19     18     20     1   108.4600466 328.025600
     20     18     24     1   109.5600471 388.275200
     22     21     35     1   108.7700466 392.459200
     22     21     23     1   107.5800459 329.699200
     23     21     35     1   108.7700466 392.459200
     25     24     36     1   108.7700466 392.459200
     25     24     26     1   107.5800459 329.699200
     26     24     36     1   108.7700466 392.459200
     28     27     33     1   108.7700466 392.459200
     28     27     29     1   107.5800459 329.699200
     29     27     33     1   108.7700466 392.459200
     31     30     34     1   108.7700466 392.459200
     31     30     32     1   107.5800459 329.699200
     32     30     34     1   108.7700466 392.459200
     33     64     65     1   117.5500507 404.174400
     34     89     90     1   117.5500507 404.174400
     35    114    115     1   117.5500507 404.174400
     36    139    140     1   117.5500507 404.174400
     41     44     45     1   109.5600471 388.275200
     41     44     46     1   109.5600471 388.275200
     42     41     44     1   109.5600471 388.275200
     42     41     47     1   109.8800469 414.216000
     42     41     43     1   108.4600466 328.025600
     43     41     44     1   109.5600471 388.275200
     43     41     47     1   109.8800469 414.216000
     44     64     65     1   117.6800502 383.254400
     45     44     64     1   108.8800464 416.726400
     45     44     46     1   108.4600466 328.025600
     46     44     64     1   108.8800464 416.726400
     47     48     49     1   109.8800469 414.216000
     47     48     50     1   109.8800469 414.216000
     47     51     52     1   109.8800469 414.216000
     47     51     53     1   109.8800469 414.216000
     48     57     58     1   109.8000471 387.438400
     48     57     59     1   109.8000471 387.438400
     49     48     57     1   109.5600471 388.275200
     49     48     50     1   108.4600466 328.025600
     50     48     57     1   109.5600471 388.275200
     51     54     55     1   109.8000471 387.438400
     51     54     56     1   109.8000471 387.438400
     52     51     54     1   109.5600471 388.275200
     52     51     53     1   108.4600466 328.025600
     53     51     54     1   109.5600471 388.275200
     55     54     60     1   108.7700466 392.459200
     55     54     56     1   107.5800459 329.699200
     56     54     60     1   108.7700466 392.459200
     58     57     61     1   108.7700466 392.459200
     58     57     59     1   107.5800459 329.699200
     59     57     61     1   108.7700466 392.459200
     60    141    142     1   117.5500507 404.174400
     61    170    171     1   117.5500507 404.174400
     66     69     70     1   109.5600471 388.275200
     66     69     71     1   109.5600471 388.275200
     67     66     69     1   109.5600471 388.275200
     67     66     72     1   109.8800469 414.216000
     67     66     68     1   108.4600466 328.025600
     68     66     69     1   109.5600471 388.275200
     68     66     72     1   109.8800469 414.216000
     69     89     90     1   117.6800502 383.254400
     70     69     89     1   108.8800464 416.726400
     70     69     71     1   108.4600466 328.025600
     71     69     89     1   108.8800464 416.726400
     72     73     74     1   109.8800469 414.216000
     72     73     75     1   109.8800469 414.216000
     72     76     77     1   109.8800469 414.216000
     72     76     78     1   109.8800469 414.216000
     73     82     83     1   109.8000471 387.438400
     73     82     84     1   109.8000471 387.438400
     74     73     82     1   109.5600471 388.275200
     74     73     75     1   108.4600466 328.025600
     75     73     82     1   109.5600471 388.275200
     76     79     80     1   109.8000471 387.438400
     76     79     81     1   109.8000471 387.438400
     77     76     79     1   109.5600471 388.275200
     77     76     78     1   108.4600466 328.025600
     78     76     79     1   109.5600471 388.275200
     80     79     85     1   108.7700466 392.459200
     80     79     81     1   107.5800459 329.699200
     81     79     85     1   108.7700466 392.459200
     83     82     86     1   108.7700466 392.459200
     83     82     84     1   107.5800459 329.699200
     84     82     86     1   108.7700466 392.459200
     85    199    200     1   117.5500507 404.174400
     86    228    229     1   117.5500507 404.174400
     91     94     95     1   109.5600471 388.275200
     91     94     96     1   109.5600471 388.275200
     92     91     94     1   109.5600471 388.275200
     92     91     97     1   109.8800469 414.216000
     92     91     93     1   108.4600466 328.025600
     93     91     94     1   109.5600471 388.275200
     93     91     97     1   109.8800469 414.216000
     94    114    115     1   117.6800502 383.254400
     95     94    114     1   108.8800464 416.726400
     95     94     96     1   108.4600466 328.025600
     96     94    114     1   108.8800464 416.726400
     97     98     99     1   109.8800469 414.216000
     97     98    100     1   109.8800469 414.216000
     97    101    102     1   109.8800469 414.216000
     97    101    103     1   109.8800469 414.216000
     98    107    108     1   109.8000471 387.438400
     98    107    109     1   109.8000471 387.438400
     99     98    107     1   109.5600471 388.275200
     99     98    100     1   108.4600466 328.025600
    100     98    107     1   109.5600471 388.275200
    101    104    105     1   109.8000471 387.438400
    101    104    106     1   109.8000471 387.438400
    102    101    104     1   109.5600471 388.275200
    102    101    103     1   108.4600466 328.025600
    103    101    104     1   109.5600471 388.275200
    105    104    110     1   108.7700466 392.459200
    105    104    106     1   107.5800459 329.699200
    106    104    110     1   108.7700466 392.459200
    108    107    111     1   108.7700466 392.459200
    108    107    109     1   107.5800459 329.699200
    109    107    111     1   108.7700466 392.459200
    110    257    258     1   117.5500507 404.174400
    111    286    287     1   117.5500507 404.174400
    116    119    120     1   109.5600471 388.275200
    116    119    121     1   109.5600471 388.275200
    117    116    119     1   109.5600471 388.275200
    117    116    122     1   109.8800469 414.216000
    117    116    118     1   108.4600466 328.025600
    118    116    119     1   109.5600471 388.275200
    118    116    122     1   109.8800469 414.216000
    119    139    140     1   117.6800502 383.254400
    120    119    139     1   108.8800464 416.726400
    120    119    121     1   108.4600466 328.025600
    121    119    139     1   108.8800464 416.726400
    122    123    124     1   109.8800469 414.216000
    122    123    125     1   109.8800469 414.216000
    122    126    127     1   109.8800469 414.216000
    122    126    128     1   109.8800469 414.216000
    123    132    133     1   109.8000471 387.438400
    123    132    134     1   109.8000471 387.438400
    124    123    132     1   109.5600471 388.275200
    124    123    125     1   108.4600466 328.025600
    125    123    132     1   109.5600471 388.275200
    126    129    130     1   109.8000471 387.438400
    126    129    131     1   109.8000471 387.438400
    127    126    129     1   109.5600471 388.275200
    127    126    128     1   108.4600466 328.025600
    128    126    129     1   109.5600471 388.275200
    130    129    135     1   108.7700466 392.459200
    130    129    131     1   107.5800459 329.699200
    131    129    135     1   108.7700466 392.459200
    133    132    136     1   108.7700466 392.459200
    133    132    134     1   107.5800459 329.699200
    134    132    136     1   108.7700466 392.459200
    135    315    316     1   117.5500507 404.174400
    136    344    345     1   117.5500507 404.174400
    141    143    144     1   108.8800464 416.726400
    141    143    146     1   108.8800464 416.726400
    142    141    143     1   117.6800502 383.254400
    143    145    147     1   109.5600471 388.275200
    143    145    148     1   109.5600471 388.275200
    144    143    145     1   109.5600471 388.275200
    144    143    146     1   108.4600466 328.025600
    145    143    146     1   109.5600471 388.275200
    147    145    149     1   109.8800469 414.216000
    147    145    148     1   108.4600466 328.025600
    148    145    149     1   109.8800469 414.216000
    149    150    160     1   109.8800469 414.216000
    149    150    161     1   109.8800469 414.216000
    149    151    152     1   109.8800469 414.216000
    149    151    154     1   109.8800469 414.216000
    150    162    163     1   109.8000471 387.438400
    150    162    164     1   109.8000471 387.438400
    151    153    155     1   109.8000471 387.438400
    151    153    156     1   109.8000471 387.438400
    152    151    153     1   109.5600471 388.275200
    152    151    154     1   108.4600466 328.025600
    153    151    154     1   109.5600471 388.275200
    155    153    157     1   108.7700466 392.459200
    155    153    156     1   107.5800459 329.699200
    156    153    157     1   108.7700466 392.459200
    157    158    168     1   106.5500460 417.563200
    160    150    162     1   109.5600471 388.275200
    160    150    161     1   108.4600466 328.025600
    161    150    162     1   109.5600471 388.275200
    163    162    165     1   108.7700466 392.459200
    163    162    164     1   107.5800459 329.699200
    164    162    165     1   108.7700466 392.459200
    165    167    169     1   106.5500460 417.563200
    170    172    173     1   108.8800464 416.726400
    170    172    175     1   108.8800464 416.726400
    171    170    172     1   117.6800502 383.254400
    172    174    176     1   109.5600471 388.275200
    172    174    177     1   109.5600471 388.275200
    173    172    174     1   109.5600471 388.275200
    173    172    175     1   108.4600466 328.025600
    174    172    175     1   109.5600471 388.275200
    176    174    178     1   109.8800469 414.216000
    176    174    177     1   108.4600466 328.025600
    177    174    178     1   109.8800469 414.216000
    178    179    189     1   109.8800469 414.216000
    178    179    190     1   109.8800469 414.216000
    178    180    181     1   109.8800469 414.216000
    178    180    183     1   109.8800469 414.216000
    179    191    192     1   109.8000471 387.438400
    179    191    193     1   109.8000471 387.438400
    180    182    184     1   109.8000471 387.438400
    180    182    185     1   109.8000471 387.438400
    181    180    182     1   109.5600471 388.275200
    181    180    183     1   108.4600466 328.025600
    182    180    183     1   109.5600471 388.275200
    184    182    186     1   108.7700466 392.459200
    184    182    185     1   107.5800459 329.699200
    185    182    186     1   108.7700466 392.459200
    186    187    197     1   106.5500460 417.563200
    189    179    191     1   109.5600471 388.275200
    189    179    190     1   108.4600466 328.025600
    190    179    191     1   109.5600471 388.275200
    192    191    194     1   108.7700466 392.459200
    192    191    193     1   107.5800459 329.699200
    193    191    194     1   108.7700466 392.459200
    194    196    198     1   106.5500460 417.563200
    199    201    202     1   108.8800464 416.726400
    199    201    204     1   108.8800464 416.726400
    200    199    201     1   117.6800502 383.254400
    201    203    205     1   109.5600471 388.275200
    201    203    206     1   109.5600471 388.275200
    202    201    203     1   109.5600471 388.275200
    202    201    204     1   108.4600466 328.025600
    203    201    204     1   109.5600471 388.275200
    205    203    207     1   109.8800469 414.216000
    205    203    206     1   108.4600466 328.025600
    206    203    207     1   109.8800469 414.216000
    207    208    218     1   109.8800469 414.216000
    207    208    219     1   109.8800469 414.216000
    207    209    210     1   109.8800469 414.216000
    207    209    212     1   109.8800469 414.216000
    208    220    221     1   109.8000471 387.438400
    208    220    222     1   109.8000471 387.438400
    209    211    213     1   109.8000471 387.438400
    209    211    214     1   109.8000471 387.438400
    210    209    211     1   109.5600471 388.275200
    210    209    212     1   108.4600466 328.025600
    211    209    212     1   109.5600471 388.275200
    213    211    215     1   108.7700466 392.459200
    213    211    214     1   107.5800459 329.699200
    214    211    215     1   108.7700466 392.459200
    215    216    226     1   106.5500460 417.563200
    218    208    220     1   109.5600471 388.275200
    218    208    219     1   108.4600466 328.025600
    219    208    220     1   109.5600471 388.275200
    221    220    223     1   108.7700466 392.459200
    221    220    222     1   107.5800459 329.699200
    222    220    223     1   108.7700466 392.459200
    223    225    227     1   106.5500460 417.563200
    228    230    231     1   108.8800464 416.726400
    228    230    233     1   108.8800464 416.726400
    229    228    230     1   117.6800502 383.254400
    230    232    234     1   109.5600471 388.275200
    230    232    235     1   109.5600471 388.275200
    231    230    232     1   109.5600471 388.275200
    231    230    233     1   108.4600466 328.025600
    232    230    233     1   109.5600471 388.275200
    234    232    236     1   109.8800469 414.216000
    234    232    235     1   108.4600466 328.025600
    235    232    236     1   109.8800469 414.216000
    236    237    247     1   109.8800469 414.216000
    236    237    248     1   109.8800469 414.216000
    236    238    239     1   109.8800469 414.216000
    236    238    241     1   109.8800469 414.216000
    237    249    250     1   109.8000471 387.438400
    237    249    251     1   109.8000471 387.438400
    238    240    242     1   109.8000471 387.438400
    238    240    243     1   109.8000471 387.438400
    239    238    240     1   109.5600471 388.275200
    239    238    241     1   108.4600466 328.025600
    240    238    241     1   109.5600471 388.275200
    242    240    244     1   108.7700466 392.459200
    242    240    243     1   107.5800459 329.699200
    243    240    244     1   108.7700466 392.459200
    244    245    255     1   106.5500460 417.563200
    247    237    249     1   109.5600471 388.275200
    247    237    248     1   108.4600466 328.025600
    248    237    249     1   109.5600471 388.275200
    250    249    252     1   108.7700466 392.459200
    250    249    251     1   107.5800459 329.699200
    251    249    252     1   108.7700466 392.459200
    252    254    256     1   106.5500460 417.563200
    257    259    260     1   108.8800464 416.726400
    257    259    262     1   108.8800464 416.726400
    258    257    259     1   117.6800502 383.254400
    259    261    263     1   109.5600471 388.275200
    259    261    264     1   109.5600471 388.275200
    260    259    261     1   109.5600471 388.275200
    260    259    262     1   108.4600466 328.025600
    261    259    262     1   109.5600471 388.275200
    263    261    265     1   109.8800469 414.216000
    263    261    264     1   108.4600466 328.025600
    264    261    265     1   109.8800469 414.216000
    265    266    276     1   109.8800469 414.216000
    265    266    277     1   109.8800469 414.216000
    265    267    268     1   109.8800469 414.216000
    265    267    270     1   109.8800469 414.216000
    266    278    279     1   109.8000471 387.438400
    266    278    280     1   109.8000471 387.438400
    267    269    271     1   109.8000471 387.438400
    267    269    272     1   109.8000471 387.438400
    268    267    269     1   109.5600471 388.275200
    268    267    270     1   108.4600466 328.025600
    269    267    270     1   109.5600471 388.275200
    271    269    273     1   108.7700466 392.459200
    271    269    272     1   107.5800459 329.699200
    272    269    273     1   108.7700466 392.459200
    273    274    284     1   106.5500460 417.563200
    276    266    278     1   109.5600471 388.275200
    276    266    277     1   108.4600466 328.025600
    277    266    278     1   109.5600471 388.275200
    279    278    281     1   108.7700466 392.459200
    279    278    280     1   107.5800459 329.699200
    280    278    281     1   108.7700466 392.459200
    281    283    285     1   106.5500460 417.563200
    286    288    289     1   108.8800464 416.726400
    286    288    291     1   108.8800464 416.726400
    287    286    288     1   117.6800502 383.254400
    288    290    292     1   109.5600471 388.275200
    288    290    293     1   109.5600471 388.275200
    289    288    290     1   109.5600471 388.275200
    289    288    291     1   108.4600466 328.025600
    290    288    291     1   109.5600471 388.275200
    292    290    294     1   109.8800469 414.216000
    292    290    293     1   108.4600466 328.025600
    293    290    294     1   109.8800469 414.216000
    294    295    305     1   109.8800469 414.216000
    294    295    306     1   109.8800469 414.216000
    294    296    297     1   109.8800469 414.216000
    294    296    299     1   109.8800469 414.216000
    295    307    308     1   109.8000471 387.438400
    295    307    309     1   109.8000471 387.438400
    296    298    300     1   109.8000471 387.438400
    296    298    301     1   109.8000471 387.438400
    297    296    298     1   109.5600471 388.275200
    297    296    299     1   108.4600466 328.025600
    298    296    299     1   109.5600471 388.275200
    300    298    302     1   108.7700466 392.459200
    300    298    301     1   107.5800459 329.699200
    301    298    302     1   108.7700466 392.459200
    302    303    313     1   106.5500460 417.563200
    305    295    307     1   109.5600471 388.275200
    305    295    306     1   108.4600466 328.025600
    306    295    307     1   109.5600471 388.275200
    308    307    310     1   108.7700466 392.459200
    308    307    309     1   107.5800459 329.699200
    309    307    310     1   108.7700466 392.459200
    310    312    314     1   106.5500460 417.563200
    315    317    318     1   108.8800464 416.726400
    315    317    320     1   108.8800464 416.726400
    316    315    317     1   117.6800502 383.254400
    317    319    321     1   109.5600471 388.275200
    317    319    322     1   109.5600471 388.275200
    318    317    319     1   109.5600471 388.275200
    318    317    320     1   108.4600466 328.025600
    319    317    320     1   109.5600471 388.275200
    321    319    323     1   109.8800469 414.216000
    321    319    322     1   108.4600466 328.025600
    322    319    323     1   109.8800469 414.216000
    323    324    334     1   109.8800469 414.216000
    323    324    335     1   109.8800469 414.216000
    323    325    326     1   109.8800469 414.216000
    323    325    328     1   109.8800469 414.216000
    324    336    337     1   109.8000471 387.438400
    324    336    338     1   109.8000471 387.438400
    325    327    329     1   109.8000471 387.438400
    325    327    330     1   109.8000471 387.438400
    326    325    327     1   109.5600471 388.275200
    326    325    328     1   108.4600466 328.025600
    327    325    328     1   109.5600471 388.275200
    329    327    331     1   108.7700466 392.459200
    329    327    330     1   107.5800459 329.699200
    330    327    331     1   108.7700466 392.459200
    331    332    342     1   106.5500460 417.563200
    334    324    336     1   109.5600471 388.275200
    334    324    335     1   108.4600466 328.025600
    335    324    336     1   109.5600471 388.275200
    337    336    339     1   108.7700466 392.459200
    337    336    338     1   107.5800459 329.699200
    338    336    339     1   108.7700466 392.459200
    339    341    343     1   106.5500460 417.563200
    344    346    347     1   108.8800464 416.726400
    344    346    349     1   108.8800464 416.726400
    345    344    346     1   117.6800502 383.254400
    346    348    350     1   109.5600471 388.275200
    346    348    351     1   109.5600471 388.275200
    347    346    348     1   109.5600471 388.275200
    347    346    349     1   108.4600466 328.025600
    348    346    349     1   109.5600471 388.275200
    350    348    352     1   109.8800469 414.216000
    350    348    351     1   108.4600466 328.025600
    351    348    352     1   109.8800469 414.216000
    352    353    363     1   109.8800469 414.216000
    352    353    364     1   109.8800469 414.216000
    352    354    355     1   109.8800469 414.216000
    352    354    357     1   109.8800469 414.216000
    353    365    366     1   109.8000471 387.438400
    353    365    367     1   109.8000471 387.438400
    354    356    358     1   109.8000471 387.438400
    354    356    359     1   109.8000471 387.438400
    355    354    356     1   109.5600471 388.275200
    355    354    357     1   108.4600466 328.025600
    356    354    357     1   109.5600471 388.275200
    358    356    360     1   108.7700466 392.459200
    358    356    359     1   107.5800459 329.699200
    359    356    360     1   108.7700466 392.459200
    360    361    371     1   106.5500460 417.563200
    363    353    365     1   109.5600471 388.275200
    363    353    364     1   108.4600466 328.025600
    364    353    365     1   109.5600471 388.275200
    366    365    368     1   108.7700466 392.459200
    366    365    367     1   107.5800459 329.699200
    367    365    368     1   108.7700466 392.459200
    368    370    372     1   106.5500460 417.563200

[ dihedrals ]
;    ai     aj     ak     al funct         c0         c1         c2         c3         c4         c5
      1      4      7     15     1  180.0000771  2.0083200  2
      1      4      7     15     1  0.0000000  1.2552000  3
      1      4      7     18     1  180.0000771  2.0083200  2
      1      4      7     18     1  0.0000000  1.2552000  3
      1      8      9     30     1  180.0000771  2.0083200  2
      1      8      9     30     1  0.0000000  1.2552000  3
      1      8     12     27     1  180.0000771  2.0083200  2
      1      8     12     27     1  0.0000000  1.2552000  3
      4      1      8      9     1  180.0000771  2.0083200  2
      4      1      8      9     1  0.0000000  1.2552000  3
      4      1      8     12     1  180.0000771  2.0083200  2
      4      1      8     12     1  0.0000000  1.2552000  3
      4      7     15     21     1  180.0000771  2.0083200  2
      4      7     15     21     1  0.0000000  1.2552000  3
      4      7     18     24     1  180.0000771  2.0083200  2
      4      7     18     24     1  0.0000000  1.2552000  3
      8      1      4      7     1  0.0000000  0.6508444  3
      7     15     21     35     1  0.0000000  0.6508444  3
      7     18     24     36     1  0.0000000  0.6508444  3
      8      9     30     34     1  0.0000000  0.6508444  3
      8     12     27     33     1  0.0000000  0.6508444  3
      9      8     12     27     1  180.0000771  2.0083200  2
      9      8     12     27     1  0.0000000  1.2552000  3
      9     30     34     40     1  180.0000771  0.0000000  2
      9     30     34     89     1  0.0000000  0.2928800  2
      9     30     34     89     1  0.0000000  0.4184000  4
     12      8      9     30     1  180.0000771  2.0083200  2
     12      8      9     30     1  0.0000000  1.2552000  3
     12     27     33     37     1  180.0000771  0.0000000  2
     12     27     33     64     1  0.0000000  0.2928800  2
     12     27     33     64     1  0.0000000  0.4184000  4
     15      7     18     24     1  180.0000771  2.0083200  2
     15      7     18     24     1  0.0000000  1.2552000  3
     15     21     35     38     1  180.0000771  0.0000000  2
     15     21     35    114     1  0.0000000  0.2928800  2
     15     21     35    114     1  0.0000000  0.4184000  4
     18      7     15     21     1  180.0000771  2.0083200  2
     18      7     15     21     1  0.0000000  1.2552000  3
     18     24     36     39     1  180.0000771  0.0000000  2
     18     24     36    139     1  0.0000000  0.2928800  2
     18     24     36    139     1  0.0000000  0.4184000  4
     21     35    114     94     1  180.0000771  6.2760000  1
     21     35    114     94     1  0.0000000  0.0000000  2
     24     36    139    119     1  180.0000771  6.2760000  1
     24     36    139    119     1  0.0000000  0.0000000  2
     27     33     64     44     1  180.0000771  6.2760000  1
     27     33     64     44     1  0.0000000  0.0000000  2
     30     34     89     69     1  180.0000771  6.2760000  1
     30     34     89     69     1  0.0000000  0.0000000  2
     33     64     44     41     1  0.0000000  2.2175200  1
     33     64     44     41     1  0.0000000  0.0000000  2
     33     64     44     41     1  180.0000771  0.6276000  3
     33     64     44     41     1  180.0000771  2.0920000  4
     34     89     69     66     1  0.0000000  2.2175200  1
     34     89     69     66     1  0.0000000  0.0000000  2
     34     89     69     66     1  180.0000771  0.6276000  3
     34     89     69     66     1  180.0000771  2.0920000  4
     35    114     94     91     1  0.0000000  2.2175200  1
     35    114     94     91     1  0.0000000  0.0000000  2
     35    114     94     91     1  180.0000771  0.6276000  3
     35    114     94     91     1  180.0000771  2.0920000  4
     36    139    119    116     1  0.0000000  2.2175200  1
     36    139    119    116     1  0.0000000  0.0000000  2
     36    139    119    116     1  180.0000771  0.6276000  3
     36    139    119    116     1  180.0000771  2.0920000  4
     37     33     64     44     1  180.0000771  10.4600000  2
     38     35    114     94     1  180.0000771  10.4600000  2
     39     36    139    119     1  180.0000771  10.4600000  2
     40     34     89     69     1  180.0000771  10.4600000  2
     41     47     48     57     1  180.0000771  2.0083200  2
     41     47     48     57     1  0.0000000  1.2552000  3
     41     47     51     54     1  180.0000771  2.0083200  2
     41     47     51     54     1  0.0000000  1.2552000  3
     44     41     47     48     1  180.0000771  2.0083200  2
     44     41     47     48     1  0.0000000  1.2552000  3
     44     41     47     51     1  180.0000771  2.0083200  2
     44     41     47     51     1  0.0000000  1.2552000  3
     47     41     44     64     1  0.0000000  0.6508444  3
     47     48     57     61     1  0.0000000  0.6508444  3
     47     51     54     60     1  0.0000000  0.6508444  3
     48     47     51     54     1  180.0000771  2.0083200  2
     48     47     51     54     1  0.0000000  1.2552000  3
     48     57     61     63     1  180.0000771  0.0000000  2
     48     57     61    170     1  0.0000000  0.2928800  2
     48     57     61    170     1  0.0000000  0.4184000  4
     51     47     48     57     1  180.0000771  2.0083200  2
     51     47     48     57     1  0.0000000  1.2552000  3
     51     54     60    141     1  0.0000000  0.2928800  2
     51     54     60    141     1  0.0000000  0.4184000  4
     51     54     60     62     1  180.0000771  0.0000000  2
     54     60    141    143     1  180.0000771  6.2760000  1
     54     60    141    143     1  0.0000000  0.0000000  2
     57     61    170    172     1  180.0000771  6.2760000  1
     57     61    170    172     1  0.0000000  0.0000000  2
     60    141    143    145     1  0.0000000  2.2175200  1
     60    141    143    145     1  0.0000000  0.0000000  2
     60    141    143    145     1  180.0000771  0.6276000  3
     60    141    143    145     1  180.0000771  2.0920000  4
     61    170    172    174     1  0.0000000  2.2175200  1
     61    170    172    174     1  0.0000000  0.0000000  2
     61    170    172    174     1  180.0000771  0.6276000  3
     61    170    172    174     1  180.0000771  2.0920000  4
     62     60    141    143     1  180.0000771  10.4600000  2
     63     61    170    172     1  180.0000771  10.4600000  2
     66     72     73     82     1  180.0000771  2.0083200  2
     66     72     73     82     1  0.0000000  1.2552000  3
     66     72     76     79     1  180.0000771  2.0083200  2
     66     72     76     79     1  0.0000000  1.2552000  3
     69     66     72     73     1  180.0000771  2.0083200  2
     69     66     72     73     1  0.0000000  1.2552000  3
     69     66     72     76     1  180.0000771  2.0083200  2
     69     66     72     76     1  0.0000000  1.2552000  3
     72     66     69     89     1  0.0000000  0.6508444  3
     72     73     82     86     1  0.0000000  0.6508444  3
     72     76     79     85     1  0.0000000  0.6508444  3
     73     72     76     79     1  180.0000771  2.0083200  2
     73     72     76     79     1  0.0000000  1.2552000  3
     73     82     86     88     1  180.0000771  0.0000000  2
     73     82     86    228     1  0.0000000  0.2928800  2
     73     82     86    228     1  0.0000000  0.4184000  4
     76     72     73     82     1  180.0000771  2.0083200  2
     76     72     73     82     1  0.0000000  1.2552000  3
     76     79     85    199     1  0.0000000  0.2928800  2
     76     79     85    199     1  0.0000000  0.4184000  4
     76     79     85     87     1  180.0000771  0.0000000  2
     79     85    199    201     1  180.0000771  6.2760000  1
     79     85    199    201     1  0.0000000  0.0000000  2
     82     86    228    230     1  180.0000771  6.2760000  1
     82     86    228    230     1  0.0000000  0.0000000  2
     85    199    201    203     1  0.0000000  2.2175200  1
     85    199    201    203     1  0.0000000  0.0000000  2
     85    199    201    203     1  180.0000771  0.6276000  3
     85    199    201    203     1  180.0000771  2.0920000  4
     86    228    230    232     1  0.0000000  2.2175200  1
     86    228    230    232     1  0.0000000  0.0000000  2
     86    228    230    232     1  180.0000771  0.6276000  3
     86    228    230    232     1  180.0000771  2.0920000  4
     87     85    199    201     1  180.0000771  10.4600000  2
     88     86    228    230     1  180.0000771  10.4600000  2
     91     97     98    107     1  180.0000771  2.0083200  2
     91     97     98    107     1  0.0000000  1.2552000  3
     91     97    101    104     1  180.0000771  2.0083200  2
     91     97    101    104     1  0.0000000  1.2552000  3
     94     91     97     98     1  180.0000771  2.0083200  2
     94     91     97     98     1  0.0000000  1.2552000  3
     94     91     97    101     1  180.0000771  2.0083200  2
     94     91     97    101     1  0.0000000  1.2552000  3
     97     91     94    114     1  0.0000000  0.6508444  3
     97     98    107    111     1  0.0000000  0.6508444  3
     97    101    104    110     1  0.0000000  0.6508444  3
     98     97    101    104     1  180.0000771  2.0083200  2
     98     97    101    104     1  0.0000000  1.2552000  3
     98    107    111    113     1  180.0000771  0.0000000  2
     98    107    111    286     1  0.0000000  0.2928800  2
     98    107    111    286     1  0.0000000  0.4184000  4
    101     97     98    107     1  180.0000771  2.0083200  2
    101     97     98    107     1  0.0000000  1.2552000  3
    101    104    110    257     1  0.0000000  0.2928800  2
    101    104    110    257     1  0.0000000  0.4184000  4
    101    104    110    112     1  180.0000771  0.0000000  2
    104    110    257    259     1  180.0000771  6.2760000  1
    104    110    257    259     1  0.0000000  0.0000000  2
    107    111    286    288     1  180.0000771  6.2760000  1
    107    111    286    288     1  0.0000000  0.0000000  2
    110    257    259    261     1  0.0000000  2.2175200  1
    110    257    259    261     1  0.0000000  0.0000000  2
    110    257    259    261     1  180.0000771  0.6276000  3
    110    257    259    261     1  180.0000771  2.0920000  4
    111    286    288    290     1  0.0000000  2.2175200  1
    111    286    288    290     1  0.0000000  0.0000000  2
    111    286    288    290     1  180.0000771  0.6276000  3
    111    286    288    290     1  180.0000771  2.0920000  4
    112    110    257    259     1  180.0000771  10.4600000  2
    113    111    286    288     1  180.0000771  10.4600000  2
    116    122    123    132     1  180.0000771  2.0083200  2
    116    122    123    132     1  0.0000000  1.2552000  3
    116    122    126    129     1  180.0000771  2.0083200  2
    116    122    126    129     1  0.0000000  1.2552000  3
    119    116    122    123     1  180.0000771  2.0083200  2
    119    116    122    123     1  0.0000000  1.2552000  3
    119    116    122    126     1  180.0000771  2.0083200  2
    119    116    122    126     1  0.0000000  1.2552000  3
    122    116    119    139     1  0.0000000  0.6508444  3
    122    123    132    136     1  0.0000000  0.6508444  3
    122    126    129    135     1  0.0000000  0.6508444  3
    123    122    126    129     1  180.0000771  2.0083200  2
    123    122    126    129     1  0.0000000  1.2552000  3
    123    132    136    344     1  0.0000000  0.2928800  2
    123    132    136    344     1  0.0000000  0.4184000  4
    123    132    136    138     1  180.0000771  0.0000000  2
    126    122    123    132     1  180.0000771  2.0083200  2
    126    122    123    132     1  0.0000000  1.2552000  3
    126    129    135    315     1  0.0000000  0.2928800  2
    126    129    135    315     1  0.0000000  0.4184000  4
    126    129    135    137     1  180.0000771  0.0000000  2
    129    135    315    317     1  180.0000771  6.2760000  1
    129    135    315    317     1  0.0000000  0.0000000  2
    132    136    344    346     1  180.0000771  6.2760000  1
    132    136    344    346     1  0.0000000  0.0000000  2
    135    315    317    319     1  0.0000000  2.2175200  1
    135    315    317    319     1  0.0000000  0.0000000  2
    135    315    317    319     1  180.0000771  0.6276000  3
    135    315    317    319     1  180.0000771  2.0920000  4
    136    344    346    348     1  0.0000000  2.2175200  1
    136    344    346    348     1  0.0000000  0.0000000  2
    136    344    346    348     1  180.0000771  0.6276000  3
    136    344    346    348     1  180.0000771  2.0920000  4
    137    135    315    317     1  180.0000771  10.4600000  2
    138    136    344    346     1  180.0000771  10.4600000  2
    141    143    145    149     1  0.0000000  0.6508444  3
    143    145    149    150     1  180.0000771  2.0083200  2
    143    145    149    150     1  0.0000000  1.2552000  3
    143    145    149    151     1  180.0000771  2.0083200  2
    143    145    149    151     1  0.0000000  1.2552000  3
    145    149    150    162     1  180.0000771  2.0083200  2
    145    149    150    162     1  0.0000000  1.2552000  3
    145    149    151    153     1  180.0000771  2.0083200  2
    145    149    151    153     1  0.0000000  1.2552000  3
    149    150    162    165     1  0.0000000  0.6508444  3
    149    151    153    157     1  0.0000000  0.6508444  3
    150    149    151    153     1  180.0000771  2.0083200  2
    150    149    151    153     1  0.0000000  1.2552000  3
    150    162    165    166     1  180.0000771  0.0000000  2
    150    162    165    167     1  180.0000771  0.0000000  2
    151    149    150    162     1  180.0000771  2.0083200  2
    151    149    150    162     1  0.0000000  1.2552000  3
    151    153    157    158     1  180.0000771  0.0000000  2
    151    153    157    159     1  180.0000771  0.0000000  2
    170    172    174    178     1  0.0000000  0.6508444  3
    172    174    178    179     1  180.0000771  2.0083200  2
    172    174    178    179     1  0.0000000  1.2552000  3
    172    174    178    180     1  180.0000771  2.0083200  2
    172    174    178    180     1  0.0000000  1.2552000  3
    174    178    179    191     1  180.0000771  2.0083200  2
    174    178    179    191     1  0.0000000  1.2552000  3
    174    178    180    182     1  180.0000771  2.0083200  2
    174    178    180    182     1  0.0000000  1.2552000  3
    178    179    191    194     1  0.0000000  0.6508444  3
    178    180    182    186     1  0.0000000  0.6508444  3
    179    191    194    195     1  180.0000771  0.0000000  2
    179    191    194    196     1  180.0000771  0.0000000  2
    179    178    180    182     1  180.0000771  2.0083200  2
    179    178    180    182     1  0.0000000  1.2552000  3
    180    182    186    187     1  180.0000771  0.0000000  2
    180    182    186    188     1  180.0000771  0.0000000  2
    180    178    179    191     1  180.0000771  2.0083200  2
    180    178    179    191     1  0.0000000  1.2552000  3
    199    201    203    207     1  0.0000000  0.6508444  3
    201    203    207    208     1  180.0000771  2.0083200  2
    201    203    207    208     1  0.0000000  1.2552000  3
    201    203    207    209     1  180.0000771  2.0083200  2
    201    203    207    209     1  0.0000000  1.2552000  3
    203    207    208    220     1  180.0000771  2.0083200  2
    203    207    208    220     1  0.0000000  1.2552000  3
    203    207    209    211     1  180.0000771  2.0083200  2
    203    207    209    211     1  0.0000000  1.2552000  3
    207    208    220    223     1  0.0000000  0.6508444  3
    207    209    211    215     1  0.0000000  0.6508444  3
    208    207    209    211     1  180.0000771  2.0083200  2
    208    207    209    211     1  0.0000000  1.2552000  3
    208    220    223    224     1  180.0000771  0.0000000  2
    208    220    223    225     1  180.0000771  0.0000000  2
    209    207    208    220     1  180.0000771  2.0083200  2
    209    207    208    220     1  0.0000000  1.2552000  3
    209    211    215    216     1  180.0000771  0.0000000  2
    209    211    215    217     1  180.0000771  0.0000000  2
    228    230    232    236     1  0.0000000  0.6508444  3
    230    232    236    237     1  180.0000771  2.0083200  2
    230    232    236    237     1  0.0000000  1.2552000  3
    230    232    236    238     1  180.0000771  2.0083200  2
    230    232    236    238     1  0.0000000  1.2552000  3
    232    236    237    249     1  180.0000771  2.0083200  2
    232    236    237    249     1  0.0000000  1.2552000  3
    232    236    238    240     1  180.0000771  2.0083200  2
    232    236    238    240     1  0.0000000  1.2552000  3
    236    237    249    252     1  0.0000000  0.6508444  3
    236    238    240    244     1  0.0000000  0.6508444  3
    237    249    252    253     1  180.0000771  0.0000000  2
    237    249    252    254     1  180.0000771  0.0000000  2
    237    236    238    240     1  180.0000771  2.0083200  2
    237    236    238    240     1  0.0000000  1.2552000  3
    238    240    244    245     1  180.0000771  0.0000000  2
    238    240    244    246     1  180.0000771  0.0000000  2
    238    236    237    249     1  180.0000771  2.0083200  2
    238    236    237    249     1  0.0000000  1.2552000  3
    257    259    261    265     1  0.0000000  0.6508444  3
    259    261    265    266     1  180.0000771  2.0083200  2
    259    261    265    266     1  0.0000000  1.2552000  3
    259    261    265    267     1  180.0000771  2.0083200  2
    259    261    265    267     1  0.0000000  1.2552000  3
    261    265    266    278     1  180.0000771  2.0083200  2
    261    265    266    278     1  0.0000000  1.2552000  3
    261    265    267    269     1  180.0000771  2.0083200  2
    261    265    267    269     1  0.0000000  1.2552000  3
    265    266    278    281     1  0.0000000  0.6508444  3
    265    267    269    273     1  0.0000000  0.6508444  3
    266    265    267    269     1  180.0000771  2.0083200  2
    266    265    267    269     1  0.0000000  1.2552000  3
    266    278    281    282     1  180.0000771  0.0000000  2
    266    278    281    283     1  180.0000771  0.0000000  2
    267    265    266    278     1  180.0000771  2.0083200  2
    267    265    266    278     1  0.0000000  1.2552000  3
    267    269    273    274     1  180.0000771  0.0000000  2
    267    269    273    275     1  180.0000771  0.0000000  2
    286    288    290    294     1  0.0000000  0.6508444  3
    288    290    294    295     1  180.0000771  2.0083200  2
    288    290    294    295     1  0.0000000  1.2552000  3
    288    290    294    296     1  180.0000771  2.0083200  2
    288    290    294    296     1  0.0000000  1.2552000  3
    290    294    295    307     1  180.0000771  2.0083200  2
    290    294    295    307     1  0.0000000  1.2552000  3
    290    294    296    298     1  180.0000771  2.0083200  2
    290    294    296    298     1  0.0000000  1.2552000  3
    294    295    307    310     1  0.0000000  0.6508444  3
    294    296    298    302     1  0.0000000  0.6508444  3
    295    307    310    311     1  180.0000771  0.0000000  2
    295    307    310    312     1  180.0000771  0.0000000  2
    295    294    296    298     1  180.0000771  2.0083200  2
    295    294    296    298     1  0.0000000  1.2552000  3
    296    298    302    303     1  180.0000771  0.0000000  2
    296    298    302    304     1  180.0000771  0.0000000  2
    296    294    295    307     1  180.0000771  2.0083200  2
    296    294    295    307     1  0.0000000  1.2552000  3
    315    317    319    323     1  0.0000000  0.6508444  3
    317    319    323    324     1  180.0000771  2.0083200  2
    317    319    323    324     1  0.0000000  1.2552000  3
    317    319    323    325     1  180.0000771  2.0083200  2
    317    319    323    325     1  0.0000000  1.2552000  3
    319    323    324    336     1  180.0000771  2.0083200  2
    319    323    324    336     1  0.0000000  1.2552000  3
    319    323    325    327     1  180.0000771  2.0083200  2
    319    323    325    327     1  0.0000000  1.2552000  3
    323    324    336    339     1  0.0000000  0.6508444  3
    323    325    327    331     1  0.0000000  0.6508444  3
    324    323    325    327     1  180.0000771  2.0083200  2
    324    323    325    327     1  0.0000000  1.2552000  3
    324    336    339    340     1  180.0000771  0.0000000  2
    324    336    339    341     1  180.0000771  0.0000000  2
    325    323    324    336     1  180.0000771  2.0083200  2
    325    323    324    336     1  0.0000000  1.2552000  3
    325    327    331    332     1  180.0000771  0.0000000  2
    325    327    331    333     1  180.0000771  0.0000000  2
    344    346    348    352     1  0.0000000  0.6508444  3
    346    348    352    353     1  180.0000771  2.0083200  2
    346    348    352    353     1  0.0000000  1.2552000  3
    346    348    352    354     1  180.0000771  2.0083200  2
    346    348    352    354     1  0.0000000  1.2552000  3
    348    352    353    365     1  180.0000771  2.0083200  2
    348    352    353    365     1  0.0000000  1.2552000  3
    348    352    354    356     1  180.0000771  2.0083200  2
    348    352    354    356     1  0.0000000  1.2552000  3
    352    353    365    368     1  0.0000000  0.6508444  3
    352    354    356    360     1  0.0000000  0.6508444  3
    353    365    368    369     1  180.0000771  0.0000000  2
    353    365    368    370     1  180.0000771  0.0000000  2
    353    352    354    356     1  180.0000771  2.0083200  2
    353    352    354    356     1  0.0000000  1.2552000  3
    354    356    360    361     1  180.0000771  0.0000000  2
    354    356    360    362     1  180.0000771  0.0000000  2
    354    352    353    365     1  180.0000771  2.0083200  2
    354    352    353    365     1  0.0000000  1.2552000  3
     27     64     33     37     4  180.0000771  43.9320000  2
     30     89     34     40     4  180.0000771  43.9320000  2
     21    114     35     38     4  180.0000771  43.9320000  2
     24    139     36     39     4  180.0000771  43.9320000  2
     54    141     60     62     4  180.0000771  43.9320000  2
     57    170     61     63     4  180.0000771  43.9320000  2
     79    199     85     87     4  180.0000771  43.9320000  2
     82    228     86     88     4  180.0000771  43.9320000  2
    104    257    110    112     4  180.0000771  43.9320000  2
    107    286    111    113     4  180.0000771  43.9320000  2
    129    315    135    137     4  180.0000771  43.9320000  2
    132    344    136    138     4  180.0000771  43.9320000  2
    153    159    157    158     4  180.0000771  4.6024000  2
    162    166    165    167     4  180.0000771  4.6024000  2
    182    188    186    187     4  180.0000771  4.6024000  2
    191    195    194    196     4  180.0000771  4.6024000  2
    211    217    215    216     4  180.0000771  4.6024000  2
    220    224    223    225     4  180.0000771  4.6024000  2
    240    246    244    245     4  180.0000771  4.6024000  2
    249    253    252    254     4  180.0000771  4.6024000  2
    269    275    273    274     4  180.0000771  4.6024000  2
    278    282    281    283     4  180.0000771  4.6024000  2
    298    304    302    303     4  180.0000771  4.6024000  2
    307    311    310    312     4  180.0000771  4.6024000  2
    327    333    331    332     4  180.0000771  4.6024000  2
    336    340    339    341     4  180.0000771  4.6024000  2
    356    362    360    361     4  180.0000771  4.6024000  2
    365    369    368    370     4  180.0000771  4.6024000  2
      1      8      9     10     1  0.0000000  1.2552000  3
      1      8      9     11     1  0.0000000  1.2552000  3
      1      8     12     13     1  0.0000000  1.2552000  3
      1      8     12     14     1  0.0000000  1.2552000  3
      2      1      4      7     1  0.0000000  0.6508444  3
      2      1      4      5     1  0.0000000  0.6508444  3
      2      1      4      6     1  0.0000000  0.6508444  3
      2      1      8      9     1  0.0000000  1.2552000  3
      2      1      8     12     1  0.0000000  1.2552000  3
      3      1      4      7     1  0.0000000  0.6508444  3
      3      1      4      5     1  0.0000000  0.6508444  3
      3      1      4      6     1  0.0000000  0.6508444  3
      3      1      8      9     1  0.0000000  1.2552000  3
      3      1      8     12     1  0.0000000  1.2552000  3
      4      7     15     16     1  0.0000000  1.2552000  3
      4      7     15     17     1  0.0000000  1.2552000  3
      4      7     18     19     1  0.0000000  1.2552000  3
      4      7     18     20     1  0.0000000  1.2552000  3
      8      1      4      5     1  0.0000000  0.6508444  3
      5      4      7     15     1  0.0000000  1.2552000  3
      5      4      7     18     1  0.0000000  1.2552000  3
      8      1      4      6     1  0.0000000  0.6508444  3
      6      4      7     15     1  0.0000000  1.2552000  3
      6      4      7     18     1  0.0000000  1.2552000  3
      7     15     21     22     1  0.0000000  0.6508444  3
      7     15     21     23     1  0.0000000  0.6508444  3
      7     18     24     25     1  0.0000000  0.6508444  3
      7     18     24     26     1  0.0000000  0.6508444  3
      8      9     30     31     1  0.0000000  0.6508444  3
      8      9     30     32     1  0.0000000  0.6508444  3
      8     12     27     28     1  0.0000000  0.6508444  3
      8     12     27     29     1  0.0000000  0.6508444  3
      9      8     12     13     1  0.0000000  1.2552000  3
      9      8     12     14     1  0.0000000  1.2552000  3
     10      9      8     12     1  0.0000000  1.2552000  3
     10      9     30     34     1  0.0000000  0.6508444  3
     10      9     30     31     1  0.0000000  0.6508444  3
     10      9     30     32     1  0.0000000  0.6508444  3
     11      9      8     12     1  0.0000000  1.2552000  3
     11      9     30     34     1  0.0000000  0.6508444  3
     11      9     30     31     1  0.0000000  0.6508444  3
     11      9     30     32     1  0.0000000  0.6508444  3
     13     12     27     33     1  0.0000000  0.6508444  3
     13     12     27     28     1  0.0000000  0.6508444  3
     13     12     27     29     1  0.0000000  0.6508444  3
     14     12     27     33     1  0.0000000  0.6508444  3
     14     12     27     28     1  0.0000000  0.6508444  3
     14     12     27     29     1  0.0000000  0.6508444  3
     15      7     18     19     1  0.0000000  1.2552000  3
     15      7     18     20     1  0.0000000  1.2552000  3
     16     15      7     18     1  0.0000000  1.2552000  3
     16     15     21     35     1  0.0000000  0.6508444  3
     16     15     21     22     1  0.0000000  0.6508444  3
     16     15     21     23     1  0.0000000  0.6508444  3
     17     15      7     18     1  0.0000000  1.2552000  3
     17     15     21     35     1  0.0000000  0.6508444  3
     17     15     21     22     1  0.0000000  0.6508444  3
     17     15     21     23     1  0.0000000  0.6508444  3
     19     18     24     36     1  0.0000000  0.6508444  3
     19     18     24     25     1  0.0000000  0.6508444  3
     19     18     24     26     1  0.0000000  0.6508444  3
     20     18     24     36     1  0.0000000  0.6508444  3
     20     18     24     25     1  0.0000000  0.6508444  3
     20     18     24     26     1  0.0000000  0.6508444  3
     21     35    114    115     1  180.0000771  10.4600000  2
     22     21     35     38     1  0.0000000  3.3472000  1
     22     21     35     38     1  0.0000000  0.0000000  2
     22     21     35     38     1  180.0000771  0.3347200  3
     22     21     35    114     1  180.0000771  0.0000000  2
     23     21     35     38     1  0.0000000  3.3472000  1
     23     21     35     38     1  0.0000000  0.0000000  2
     23     21     35     38     1  180.0000771  0.3347200  3
     23     21     35    114     1  180.0000771  0.0000000  2
     24     36    139    140     1  180.0000771  10.4600000  2
     25     24     36     39     1  0.0000000  3.3472000  1
     25     24     36     39     1  0.0000000  0.0000000  2
     25     24     36     39     1  180.0000771  0.3347200  3
     25     24     36    139     1  180.0000771  0.0000000  2
     26     24     36     39     1  0.0000000  3.3472000  1
     26     24     36     39     1  0.0000000  0.0000000  2
     26     24     36     39     1  180.0000771  0.3347200  3
     26     24     36    139     1  180.0000771  0.0000000  2
     27     33     64     65     1  180.0000771  10.4600000  2
     28     27     33     37     1  0.0000000  3.3472000  1
     28     27     33     37     1  0.0000000  0.0000000  2
     28     27     33     37     1  180.0000771  0.3347200  3
     28     27     33     64     1  180.0000771  0.0000000  2
     29     27     33     37     1  0.0000000  3.3472000  1
     29     27     33     37     1  0.0000000  0.0000000  2
     29     27     33     37     1  180.0000771  0.3347200  3
     29     27     33     64     1  180.0000771  0.0000000  2
     30     34     89     90     1  180.0000771  10.4600000  2
     31     30     34     40     1  0.0000000  3.3472000  1
     31     30     34     40     1  0.0000000  0.0000000  2
     31     30     34     40     1  180.0000771  0.3347200  3
     31     30     34     89     1  180.0000771  0.0000000  2
     32     30     34     40     1  0.0000000  3.3472000  1
     32     30     34     40     1  0.0000000  0.0000000  2
     32     30     34     40     1  180.0000771  0.3347200  3
     32     30     34     89     1  180.0000771  0.0000000  2
     33     64     44     45     1  0.0000000  0.0000000  2
     33     64     44     46     1  0.0000000  0.0000000  2
     34     89     69     70     1  0.0000000  0.0000000  2
     34     89     69     71     1  0.0000000  0.0000000  2
     35    114     94     95     1  0.0000000  0.0000000  2
     35    114     94     96     1  0.0000000  0.0000000  2
     36    139    119    120     1  0.0000000  0.0000000  2
     36    139    119    121     1  0.0000000  0.0000000  2
     37     33     64     65     1  0.0000000  8.3680000  1
     37     33     64     65     1  180.0000771  10.4600000  2
     38     35    114    115     1  0.0000000  8.3680000  1
     38     35    114    115     1  180.0000771  10.4600000  2
     39     36    139    140     1  0.0000000  8.3680000  1
     39     36    139    140     1  180.0000771  10.4600000  2
     40     34     89     90     1  0.0000000  8.3680000  1
     40     34     89     90     1  180.0000771  10.4600000  2
     41     44     64     65     1  0.0000000  0.0000000  2
     41     47     48     49     1  0.0000000  1.2552000  3
     41     47     48     50     1  0.0000000  1.2552000  3
     41     47     51     52     1  0.0000000  1.2552000  3
     41     47     51     53     1  0.0000000  1.2552000  3
     42     41     44     64     1  0.0000000  0.6508444  3
     42     41     44     45     1  0.0000000  0.6508444  3
     42     41     44     46     1  0.0000000  0.6508444  3
     42     41     47     48     1  0.0000000  1.2552000  3
     42     41     47     51     1  0.0000000  1.2552000  3
     43     41     44     64     1  0.0000000  0.6508444  3
     43     41     44     45     1  0.0000000  0.6508444  3
     43     41     44     46     1  0.0000000  0.6508444  3
     43     41     47     48     1  0.0000000  1.2552000  3
     43     41     47     51     1  0.0000000  1.2552000  3
     45     44     41     47     1  0.0000000  0.6508444  3
     45     44     64     65     1  0.0000000  0.0000000  2
     46     44     41     47     1  0.0000000  0.6508444  3
     46     44     64     65     1  0.0000000  0.0000000  2
     47     48     57     58     1  0.0000000  0.6508444  3
     47     48     57     59     1  0.0000000  0.6508444  3
     47     51     54     55     1  0.0000000  0.6508444  3
     47     51     54     56     1  0.0000000  0.6508444  3
     48     47     51     52     1  0.0000000  1.2552000  3
     48     47     51     53     1  0.0000000  1.2552000  3
     49     48     47     51     1  0.0000000  1.2552000  3
     49     48     57     61     1  0.0000000  0.6508444  3
     49     48     57     58     1  0.0000000  0.6508444  3
     49     48     57     59     1  0.0000000  0.6508444  3
     50     48     47     51     1  0.0000000  1.2552000  3
     50     48     57     61     1  0.0000000  0.6508444  3
     50     48     57     58     1  0.0000000  0.6508444  3
     50     48     57     59     1  0.0000000  0.6508444  3
     52     51     54     60     1  0.0000000  0.6508444  3
     52     51     54     55     1  0.0000000  0.6508444  3
     52     51     54     56     1  0.0000000  0.6508444  3
     53     51     54     60     1  0.0000000  0.6508444  3
     53     51     54     55     1  0.0000000  0.6508444  3
     53     51     54     56     1  0.0000000  0.6508444  3
     54     60    141    142     1  180.0000771  10.4600000  2
     55     54     60    141     1  180.0000771  0.0000000  2
     55     54     60     62     1  0.0000000  3.3472000  1
     55     54     60     62     1  0.0000000  0.0000000  2
     55     54     60     62     1  180.0000771  0.3347200  3
     56     54     60    141     1  180.0000771  0.0000000  2
     56     54     60     62     1  0.0000000  3.3472000  1
     56     54     60     62     1  0.0000000  0.0000000  2
     56     54     60     62     1  180.0000771  0.3347200  3
     57     61    170    171     1  180.0000771  10.4600000  2
     58     57     61     63     1  0.0000000  3.3472000  1
     58     57     61     63     1  0.0000000  0.0000000  2
     58     57     61     63     1  180.0000771  0.3347200  3
     58     57     61    170     1  180.0000771  0.0000000  2
     59     57     61     63     1  0.0000000  3.3472000  1
     59     57     61     63     1  0.0000000  0.0000000  2
     59     57     61     63     1  180.0000771  0.3347200  3
     59     57     61    170     1  180.0000771  0.0000000  2
     60    141    143    144     1  0.0000000  0.0000000  2
     60    141    143    146     1  0.0000000  0.0000000  2
     61    170    172    173     1  0.0000000  0.0000000  2
     61    170    172    175     1  0.0000000  0.0000000  2
     62     60    141    142     1  0.0000000  8.3680000  1
     62     60    141    142     1  180.0000771  10.4600000  2
     63     61    170    171     1  0.0000000  8.3680000  1
     63     61    170    171     1  180.0000771  10.4600000  2
     66     69     89     90     1  0.0000000  0.0000000  2
     66     72     73     74     1  0.0000000  1.2552000  3
     66     72     73     75     1  0.0000000  1.2552000  3
     66     72     76     77     1  0.0000000  1.2552000  3
     66     72     76     78     1  0.0000000  1.2552000  3
     67     66     69     89     1  0.0000000  0.6508444  3
     67     66     69     70     1  0.0000000  0.6508444  3
     67     66     69     71     1  0.0000000  0.6508444  3
     67     66     72     73     1  0.0000000  1.2552000  3
     67     66     72     76     1  0.0000000  1.2552000  3
     68     66     69     89     1  0.0000000  0.6508444  3
     68     66     69     70     1  0.0000000  0.6508444  3
     68     66     69     71     1  0.0000000  0.6508444  3
     68     66     72     73     1  0.0000000  1.2552000  3
     68     66     72     76     1  0.0000000  1.2552000  3
     70     69     66     72     1  0.0000000  0.6508444  3
     70     69     89     90     1  0.0000000  0.0000000  2
     71     69     66     72     1  0.0000000  0.6508444  3
     71     69     89     90     1  0.0000000  0.0000000  2
     72     73     82     83     1  0.0000000  0.6508444  3
     72     73     82     84     1  0.0000000  0.6508444  3
     72     76     79     80     1  0.0000000  0.6508444  3
     72     76     79     81     1  0.0000000  0.6508444  3
     73     72     76     77     1  0.0000000  1.2552000  3
     73     72     76     78     1  0.0000000  1.2552000  3
     74     73     72     76     1  0.0000000  1.2552000  3
     74     73     82     86     1  0.0000000  0.6508444  3
     74     73     82     83     1  0.0000000  0.6508444  3
     74     73     82     84     1  0.0000000  0.6508444  3
     75     73     72     76     1  0.0000000  1.2552000  3
     75     73     82     86     1  0.0000000  0.6508444  3
     75     73     82     83     1  0.0000000  0.6508444  3
     75     73     82     84     1  0.0000000  0.6508444  3
     77     76     79     85     1  0.0000000  0.6508444  3
     77     76     79     80     1  0.0000000  0.6508444  3
     77     76     79     81     1  0.0000000  0.6508444  3
     78     76     79     85     1  0.0000000  0.6508444  3
     78     76     79     80     1  0.0000000  0.6508444  3
     78     76     79     81     1  0.0000000  0.6508444  3
     79     85    199    200     1  180.0000771  10.4600000  2
     80     79     85    199     1  180.0000771  0.0000000  2
     80     79     85     87     1  0.0000000  3.3472000  1
     80     79     85     87     1  0.0000000  0.0000000  2
     80     79     85     87     1  180.0000771  0.3347200  3
     81     79     85    199     1  180.0000771  0.0000000  2
     81     79     85     87     1  0.0000000  3.3472000  1
     81     79     85     87     1  0.0000000  0.0000000  2
     81     79     85     87     1  180.0000771  0.3347200  3
     82     86    228    229     1  180.0000771  10.4600000  2
     83     82     86     88     1  0.0000000  3.3472000  1
     83     82     86     88     1  0.0000000  0.0000000  2
     83     82     86     88     1  180.0000771  0.3347200  3
     83     82     86    228     1  180.0000771  0.0000000  2
     84     82     86     88     1  0.0000000  3.3472000  1
     84     82     86     88     1  0.0000000  0.0000000  2
     84     82     86     88     1  180.0000771  0.3347200  3
     84     82     86    228     1  180.0000771  0.0000000  2
     85    199    201    202     1  0.0000000  0.0000000  2
     85    199    201    204     1  0.0000000  0.0000000  2
     86    228    230    231     1  0.0000000  0.0000000  2
     86    228    230    233     1  0.0000000  0.0000000  2
     87     85    199    200     1  0.0000000  8.3680000  1
     87     85    199    200     1  180.0000771  10.4600000  2
     88     86    228    229     1  0.0000000  8.3680000  1
     88     86    228    229     1  180.0000771  10.4600000  2
     91     94    114    115     1  0.0000000  0.0000000  2
     91     97     98     99     1  0.0000000  1.2552000  3
     91     97     98    100     1  0.0000000  1.2552000  3
     91     97    101    102     1  0.0000000  1.2552000  3
     91     97    101    103     1  0.0000000  1.2552000  3
     92     91     94    114     1  0.0000000  0.6508444  3
     92     91     94     95     1  0.0000000  0.6508444  3
     92     91     94     96     1  0.0000000  0.6508444  3
     92     91     97     98     1  0.0000000  1.2552000  3
     92     91     97    101     1  0.0000000  1.2552000  3
     93     91     94    114     1  0.0000000  0.6508444  3
     93     91     94     95     1  0.0000000  0.6508444  3
     93     91     94     96     1  0.0000000  0.6508444  3
     93     91     97     98     1  0.0000000  1.2552000  3
     93     91     97    101     1  0.0000000  1.2552000  3
     95     94     91     97     1  0.0000000  0.6508444  3
     95     94    114    115     1  0.0000000  0.0000000  2
     96     94     91     97     1  0.0000000  0.6508444  3
     96     94    114    115     1  0.0000000  0.0000000  2
     97     98    107    108     1  0.0000000  0.6508444  3
     97     98    107    109     1  0.0000000  0.6508444  3
     97    101    104    105     1  0.0000000  0.6508444  3
     97    101    104    106     1  0.0000000  0.6508444  3
     98     97    101    102     1  0.0000000  1.2552000  3
     98     97    101    103     1  0.0000000  1.2552000  3
     99     98     97    101     1  0.0000000  1.2552000  3
     99     98    107    111     1  0.0000000  0.6508444  3
     99     98    107    108     1  0.0000000  0.6508444  3
     99     98    107    109     1  0.0000000  0.6508444  3
    100     98     97    101     1  0.0000000  1.2552000  3
    100     98    107    111     1  0.0000000  0.6508444  3
    100     98    107    108     1  0.0000000  0.6508444  3
    100     98    107    109     1  0.0000000  0.6508444  3
    102    101    104    110     1  0.0000000  0.6508444  3
    102    101    104    105     1  0.0000000  0.6508444  3
    102    101    104    106     1  0.0000000  0.6508444  3
    103    101    104    110     1  0.0000000  0.6508444  3
    103    101    104    105     1  0.0000000  0.6508444  3
    103    101    104    106     1  0.0000000  0.6508444  3
    104    110    257    258     1  180.0000771  10.4600000  2
    105    104    110    257     1  180.0000771  0.0000000  2
    105    104    110    112     1  0.0000000  3.3472000  1
    105    104    110    112     1  0.0000000  0.0000000  2
    105    104    110    112     1  180.0000771  0.3347200  3
    106    104    110    257     1  180.0000771  0.0000000  2
    106    104    110    112     1  0.0000000  3.3472000  1
    106    104    110    112     1  0.0000000  0.0000000  2
    106    104    110    112     1  180.0000771  0.3347200  3
    107    111    286    287     1  180.0000771  10.4600000  2
    108    107    111    113     1  0.0000000  3.3472000  1
    108    107    111    113     1  0.0000000  0.0000000  2
    108    107    111    113     1  180.0000771  0.3347200  3
    108    107    111    286     1  180.0000771  0.0000000  2
    109    107    111    113     1  0.0000000  3.3472000  1
    109    107    111    113     1  0.0000000  0.0000000  2
    109    107    111    113     1  180.0000771  0.3347200  3
    109    107    111    286     1  180.0000771  0.0000000  2
    110    257    259    260     1  0.0000000  0.0000000  2
    110    257    259    262     1  0.0000000  0.0000000  2
    111    286    288    289     1  0.0000000  0.0000000  2
    111    286    288    291     1  0.0000000  0.0000000  2
    112    110    257    258     1  0.0000000  8.3680000  1
    112    110    257    258     1  180.0000771  10.4600000  2
    113    111    286    287     1  0.0000000  8.3680000  1
    113    111    286    287     1  180.0000771  10.4600000  2
    116    119    139    140     1  0.0000000  0.0000000  2
    116    122    123    124     1  0.0000000  1.2552000  3
    116    122    123    125     1  0.0000000  1.2552000  3
    116    122    126    127     1  0.0000000  1.2552000  3
    116    122    126    128     1  0.0000000  1.2552000  3
    117    116    119    139     1  0.0000000  0.6508444  3
    117    116    119    120     1  0.0000000  0.6508444  3
    117    116    119    121     1  0.0000000  0.6508444  3
    117    116    122    123     1  0.0000000  1.2552000  3
    117    116    122    126     1  0.0000000  1.2552000  3
    118    116    119    139     1  0.0000000  0.6508444  3
    118    116    119    120     1  0.0000000  0.6508444  3
    118    116    119    121     1  0.0000000  0.6508444  3
    118    116    122    123     1  0.0000000  1.2552000  3
    118    116    122    126     1  0.0000000  1.2552000  3
    120    119    116    122     1  0.0000000  0.6508444  3
    120    119    139    140     1  0.0000000  0.0000000  2
    121    119    116    122     1  0.0000000  0.6508444  3
    121    119    139    140     1  0.0000000  0.0000000  2
    122    123    132    133     1  0.0000000  0.6508444  3
    122    123    132    134     1  0.0000000  0.6508444  3
    122    126    129    130     1  0.0000000  0.6508444  3
    122    126    129    131     1  0.0000000  0.6508444  3
    123    122    126    127     1  0.0000000  1.2552000  3
    123    122    126    128     1  0.0000000  1.2552000  3
    124    123    122    126     1  0.0000000  1.2552000  3
    124    123    132    136     1  0.0000000  0.6508444  3
    124    123    132    133     1  0.0000000  0.6508444  3
    124    123    132    134     1  0.0000000  0.6508444  3
    125    123    122    126     1  0.0000000  1.2552000  3
    125    123    132    136     1  0.0000000  0.6508444  3
    125    123    132    133     1  0.0000000  0.6508444  3
    125    123    132    134     1  0.0000000  0.6508444  3
    127    126    129    135     1  0.0000000  0.6508444  3
    127    126    129    130     1  0.0000000  0.6508444  3
    127    126    129    131     1  0.0000000  0.6508444  3
    128    126    129    135     1  0.0000000  0.6508444  3
    128    126    129    130     1  0.0000000  0.6508444  3
    128    126    129    131     1  0.0000000  0.6508444  3
    129    135    315    316     1  180.0000771  10.4600000  2
    130    129    135    315     1  180.0000771  0.0000000  2
    130    129    135    137     1  0.0000000  3.3472000  1
    130    129    135    137     1  0.0000000  0.0000000  2
    130    129    135    137     1  180.0000771  0.3347200  3
    131    129    135    315     1  180.0000771  0.0000000  2
    131    129    135    137     1  0.0000000  3.3472000  1
    131    129    135    137     1  0.0000000  0.0000000  2
    131    129    135    137     1  180.0000771  0.3347200  3
    132    136    344    345     1  180.0000771  10.4600000  2
    133    132    136    344     1  180.0000771  0.0000000  2
    133    132    136    138     1  0.0000000  3.3472000  1
    133    132    136    138     1  0.0000000  0.0000000  2
    133    132    136    138     1  180.0000771  0.3347200  3
    134    132    136    344     1  180.0000771  0.0000000  2
    134    132    136    138     1  0.0000000  3.3472000  1
    134    132    136    138     1  0.0000000  0.0000000  2
    134    132    136    138     1  180.0000771  0.3347200  3
    135    315    317    318     1  0.0000000  0.0000000  2
    135    315    317    320     1  0.0000000  0.0000000  2
    136    344    346    347     1  0.0000000  0.0000000  2
    136    344    346    349     1  0.0000000  0.0000000  2
    137    135    315    316     1  0.0000000  8.3680000  1
    137    135    315    316     1  180.0000771  10.4600000  2
    138    136    344    345     1  0.0000000  8.3680000  1
    138    136    344    345     1  180.0000771  10.4600000  2
    141    143    145    147     1  0.0000000  0.6508444  3
    141    143    145    148     1  0.0000000  0.6508444  3
    142    141    143    145     1  0.0000000  0.0000000  2
    142    141    143    144     1  0.0000000  0.0000000  2
    142    141    143    146     1  0.0000000  0.0000000  2
    144    143    145    149     1  0.0000000  0.6508444  3
    144    143    145    147     1  0.0000000  0.6508444  3
    144    143    145    148     1  0.0000000  0.6508444  3
    145    149    150    160     1  0.0000000  1.2552000  3
    145    149    150    161     1  0.0000000  1.2552000  3
    145    149    151    152     1  0.0000000  1.2552000  3
    145    149    151    154     1  0.0000000  1.2552000  3
    146    143    145    149     1  0.0000000  0.6508444  3
    146    143    145    147     1  0.0000000  0.6508444  3
    146    143    145    148     1  0.0000000  0.6508444  3
    147    145    149    150     1  0.0000000  1.2552000  3
    147    145    149    151     1  0.0000000  1.2552000  3
    148    145    149    150     1  0.0000000  1.2552000  3
    148    145    149    151     1  0.0000000  1.2552000  3
    149    150    162    163     1  0.0000000  0.6508444  3
    149    150    162    164     1  0.0000000  0.6508444  3
    149    151    153    155     1  0.0000000  0.6508444  3
    149    151    153    156     1  0.0000000  0.6508444  3
    150    149    151    152     1  0.0000000  1.2552000  3
    150    149    151    154     1  0.0000000  1.2552000  3
    151    149    150    160     1  0.0000000  1.2552000  3
    151    149    150    161     1  0.0000000  1.2552000  3
    152    151    153    157     1  0.0000000  0.6508444  3
    152    151    153    155     1  0.0000000  0.6508444  3
    152    151    153    156     1  0.0000000  0.6508444  3
    153    157    158    168     1  180.0000771  9.6232000  2
    154    151    153    157     1  0.0000000  0.6508444  3
    154    151    153    155     1  0.0000000  0.6508444  3
    154    151    153    156     1  0.0000000  0.6508444  3
    155    153    157    158     1  180.0000771  0.0000000  2
    155    153    157    159     1  0.0000000  3.3472000  1
    155    153    157    159     1  0.0000000  0.0000000  2
    155    153    157    159     1  180.0000771  0.3347200  3
    156    153    157    158     1  180.0000771  0.0000000  2
    156    153    157    159     1  0.0000000  3.3472000  1
    156    153    157    159     1  0.0000000  0.0000000  2
    156    153    157    159     1  180.0000771  0.3347200  3
    159    157    158    168     1  0.0000000  7.9496000  1
    159    157    158    168     1  180.0000771  9.6232000  2
    160    150    162    165     1  0.0000000  0.6508444  3
    160    150    162    163     1  0.0000000  0.6508444  3
    160    150    162    164     1  0.0000000  0.6508444  3
    161    150    162    165     1  0.0000000  0.6508444  3
    161    150    162    163     1  0.0000000  0.6508444  3
    161    150    162    164     1  0.0000000  0.6508444  3
    162    165    167    169     1  180.0000771  9.6232000  2
    163    162    165    166     1  0.0000000  3.3472000  1
    163    162    165    166     1  0.0000000  0.0000000  2
    163    162    165    166     1  180.0000771  0.3347200  3
    163    162    165    167     1  180.0000771  0.0000000  2
    164    162    165    166     1  0.0000000  3.3472000  1
    164    162    165    166     1  0.0000000  0.0000000  2
    164    162    165    166     1  180.0000771  0.3347200  3
    164    162    165    167     1  180.0000771  0.0000000  2
    166    165    167    169     1  0.0000000  7.9496000  1
    166    165    167    169     1  180.0000771  9.6232000  2
    170    172    174    176     1  0.0000000  0.6508444  3
    170    172    174    177     1  0.0000000  0.6508444  3
    171    170    172    174     1  0.0000000  0.0000000  2
    171    170    172    173     1  0.0000000  0.0000000  2
    171    170    172    175     1  0.0000000  0.0000000  2
    173    172    174    178     1  0.0000000  0.6508444  3
    173    172    174    176     1  0.0000000  0.6508444  3
    173    172    174    177     1  0.0000000  0.6508444  3
    174    178    179    189     1  0.0000000  1.2552000  3
    174    178    179    190     1  0.0000000  1.2552000  3
    174    178    180    181     1  0.0000000  1.2552000  3
    174    178    180    183     1  0.0000000  1.2552000  3
    175    172    174    178     1  0.0000000  0.6508444  3
    175    172    174    176     1  0.0000000  0.6508444  3
    175    172    174    177     1  0.0000000  0.6508444  3
    176    174    178    179     1  0.0000000  1.2552000  3
    176    174    178    180     1  0.0000000  1.2552000  3
    177    174    178    179     1  0.0000000  1.2552000  3
    177    174    178    180     1  0.0000000  1.2552000  3
    178    179    191    192     1  0.0000000  0.6508444  3
    178    179    191    193     1  0.0000000  0.6508444  3
    178    180    182    184     1  0.0000000  0.6508444  3
    178    180    182    185     1  0.0000000  0.6508444  3
    179    178    180    181     1  0.0000000  1.2552000  3
    179    178    180    183     1  0.0000000  1.2552000  3
    180    178    179    189     1  0.0000000  1.2552000  3
    180    178    179    190     1  0.0000000  1.2552000  3
    181    180    182    186     1  0.0000000  0.6508444  3
    181    180    182    184     1  0.0000000  0.6508444  3
    181    180    182    185     1  0.0000000  0.6508444  3
    182    186    187    197     1  180.0000771  9.6232000  2
    183    180    182    186     1  0.0000000  0.6508444  3
    183    180    182    184     1  0.0000000  0.6508444  3
    183    180    182    185     1  0.0000000  0.6508444  3
    184    182    186    187     1  180.0000771  0.0000000  2
    184    182    186    188     1  0.0000000  3.3472000  1
    184    182    186    188     1  0.0000000  0.0000000  2
    184    182    186    188     1  180.0000771  0.3347200  3
    185    182    186    187     1  180.0000771  0.0000000  2
    185    182    186    188     1  0.0000000  3.3472000  1
    185    182    186    188     1  0.0000000  0.0000000  2
    185    182    186    188     1  180.0000771  0.3347200  3
    188    186    187    197     1  0.0000000  7.9496000  1
    188    186    187    197     1  180.0000771  9.6232000  2
    189    179    191    194     1  0.0000000  0.6508444  3
    189    179    191    192     1  0.0000000  0.6508444  3
    189    179    191    193     1  0.0000000  0.6508444  3
    190    179    191    194     1  0.0000000  0.6508444  3
    190    179    191    192     1  0.0000000  0.6508444  3
    190    179    191    193     1  0.0000000  0.6508444  3
    191    194    196    198     1  180.0000771  9.6232000  2
    192    191    194    195     1  0.0000000  3.3472000  1
    192    191    194    195     1  0.0000000  0.0000000  2
    192    191    194    195     1  180.0000771  0.3347200  3
    192    191    194    196     1  180.0000771  0.0000000  2
    193    191    194    195     1  0.0000000  3.3472000  1
    193    191    194    195     1  0.0000000  0.0000000  2
    193    191    194    195     1  180.0000771  0.3347200  3
    193    191    194    196     1  180.0000771  0.0000000  2
    195    194    196    198     1  0.0000000  7.9496000  1
    195    194    196    198     1  180.0000771  9.6232000  2
    199    201    203    205     1  0.0000000  0.6508444  3
    199    201    203    206     1  0.0000000  0.6508444  3
    200    199    201    203     1  0.0000000  0.0000000  2
    200    199    201    202     1  0.0000000  0.0000000  2
    200    199    201    204     1  0.0000000  0.0000000  2
    202    201    203    207     1  0.0000000  0.6508444  3
    202    201    203    205     1  0.0000000  0.6508444  3
    202    201    203    206     1  0.0000000  0.6508444  3
    203    207    208    218     1  0.0000000  1.2552000  3
    203    207    208    219     1  0.0000000  1.2552000  3
    203    207    209    210     1  0.0000000  1.2552000  3
    203    207    209    212     1  0.0000000  1.2552000  3
    204    201    203    207     1  0.0000000  0.6508444  3
    204    201    203    205     1  0.0000000  0.6508444  3
    204    201    203    206     1  0.0000000  0.6508444  3
    205    203    207    208     1  0.0000000  1.2552000  3
    205    203    207    209     1  0.0000000  1.2552000  3
    206    203    207    208     1  0.0000000  1.2552000  3
    206    203    207    209     1  0.0000000  1.2552000  3
    207    208    220    221     1  0.0000000  0.6508444  3
    207    208    220    222     1  0.0000000  0.6508444  3
    207    209    211    213     1  0.0000000  0.6508444  3
    207    209    211    214     1  0.0000000  0.6508444  3
    208    207    209    210     1  0.0000000  1.2552000  3
    208    207    209    212     1  0.0000000  1.2552000  3
    209    207    208    218     1  0.0000000  1.2552000  3
    209    207    208    219     1  0.0000000  1.2552000  3
    210    209    211    215     1  0.0000000  0.6508444  3
    210    209    211    213     1  0.0000000  0.6508444  3
    210    209    211    214     1  0.0000000  0.6508444  3
    211    215    216    226     1  180.0000771  9.6232000  2
    212    209    211    215     1  0.0000000  0.6508444  3
    212    209    211    213     1  0.0000000  0.6508444  3
    212    209    211    214     1  0.0000000  0.6508444  3
    213    211    215    216     1  180.0000771  0.0000000  2
    213    211    215    217     1  0.0000000  3.3472000  1
    213    211    215    217     1  0.0000000  0.0000000  2
    213    211    215    217     1  180.0000771  0.3347200  3
    214    211    215    216     1  180.0000771  0.0000000  2
    214    211    215    217     1  0.0000000  3.3472000  1
    214    211    215    217     1  0.0000000  0.0000000  2
    214    211    215    217     1  180.0000771  0.3347200  3
    217    215    216    226     1  0.0000000  7.9496000  1
    217    215    216    226     1  180.0000771  9.6232000  2
    218    208    220    223     1  0.0000000  0.6508444  3
    218    208    220    221     1  0.0000000  0.6508444  3
    218    208    220    222     1  0.0000000  0.6508444  3
    219    208    220    223     1  0.0000000  0.6508444  3
    219    208    220    221     1  0.0000000  0.6508444  3
    219    208    220    222     1  0.0000000  0.6508444  3
    220    223    225    227     1  180.0000771  9.6232000  2
    221    220    223    224     1  0.0000000  3.3472000  1
    221    220    223    224     1  0.0000000  0.0000000  2
    221    220    223    224     1  180.0000771  0.3347200  3
    221    220    223    225     1  180.0000771  0.0000000  2
    222    220    223    224     1  0.0000000  3.3472000  1
    222    220    223    224     1  0.0000000  0.0000000  2
    222    220    223    224     1  180.0000771  0.3347200  3
    222    220    223    225     1  180.0000771  0.0000000  2
    224    223    225    227     1  0.0000000  7.9496000  1
    224    223    225    227     1  180.0000771  9.6232000  2
    228    230    232    234     1  0.0000000  0.6508444  3
    228    230    232    235     1  0.0000000  0.6508444  3
    229    228    230    232     1  0.0000000  0.0000000  2
    229    228    230    231     1  0.0000000  0.0000000  2
    229    228    230    233     1  0.0000000  0.0000000  2
    231    230    232    236     1  0.0000000  0.6508444  3
    231    230    232    234     1  0.0000000  0.6508444  3
    231    230    232    235     1  0.0000000  0.6508444  3
    232    236    237    247     1  0.0000000  1.2552000  3
    232    236    237    248     1  0.0000000  1.2552000  3
    232    236    238    239     1  0.0000000  1.2552000  3
    232    236    238    241     1  0.0000000  1.2552000  3
    233    230    232    236     1  0.0000000  0.6508444  3
    233    230    232    234     1  0.0000000  0.6508444  3
    233    230    232    235     1  0.0000000  0.6508444  3
    234    232    236    237     1  0.0000000  1.2552000  3
    234    232    236    238     1  0.0000000  1.2552000  3
    235    232    236    237     1  0.0000000  1.2552000  3
    235    232    236    238     1  0.0000000  1.2552000  3
    236    237    249    250     1  0.0000000  0.6508444  3
    236    237    249    251     1  0.0000000  0.6508444  3
    236    238    240    242     1  0.0000000  0.6508444  3
    236    238    240    243     1  0.0000000  0.6508444  3
    237    236    238    239     1  0.0000000  1.2552000  3
    237    236    238    241     1  0.0000000  1.2552000  3
    238    236    237    247     1  0.0000000  1.2552000  3
    238    236    237    248     1  0.0000000  1.2552000  3
    239    238    240    244     1  0.0000000  0.6508444  3
    239    238    240    242     1  0.0000000  0.6508444  3
    239    238    240    243     1  0.0000000  0.6508444  3
    240    244    245    255     1  180.0000771  9.6232000  2
    241    238    240    244     1  0.0000000  0.6508444  3
    241    238    240    242     1  0.0000000  0.6508444  3
    241    238    240    243     1  0.0000000  0.6508444  3
    242    240    244    245     1  180.0000771  0.0000000  2
    242    240    244    246     1  0.0000000  3.3472000  1
    242    240    244    246     1  0.0000000  0.0000000  2
    242    240    244    246     1  180.0000771  0.3347200  3
    243    240    244    245     1  180.0000771  0.0000000  2
    243    240    244    246     1  0.0000000  3.3472000  1
    243    240    244    246     1  0.0000000  0.0000000  2
    243    240    244    246     1  180.0000771  0.3347200  3
    246    244    245    255     1  0.0000000  7.9496000  1
    246    244    245    255     1  180.0000771  9.6232000  2
    247    237    249    252     1  0.0000000  0.6508444  3
    247    237    249    250     1  0.0000000  0.6508444  3
    247    237    249    251     1  0.0000000  0.6508444  3
    248    237    249    252     1  0.0000000  0.6508444  3
    248    237    249    250     1  0.0000000  0.6508444  3
    248    237    249    251     1  0.0000000  0.6508444  3
    249    252    254    256     1  180.0000771  9.6232000  2
    250    249    252    253     1  0.0000000  3.3472000  1
    250    249    252    253     1  0.0000000  0.0000000  2
    250    249    252    253     1  180.0000771  0.3347200  3
    250    249    252    254     1  180.0000771  0.0000000  2
    251    249    252    253     1  0.0000000  3.3472000  1
    251    249    252    253     1  0.0000000  0.0000000  2
    251    249    252    253     1  180.0000771  0.3347200  3
    251    249    252    254     1  180.0000771  0.0000000  2
    253    252    254    256     1  0.0000000  7.9496000  1
    253    252    254    256     1  180.0000771  9.6232000  2
    257    259    261    263     1  0.0000000  0.6508444  3
    257    259    261    264     1  0.0000000  0.6508444  3
    258    257    259    261     1  0.0000000  0.0000000  2
    258    257    259    260     1  0.0000000  0.0000000  2
    258    257    259    262     1  0.0000000  0.0000000  2
    260    259    261    265     1  0.0000000  0.6508444  3
    260    259    261    263     1  0.0000000  0.6508444  3
    260    259    261    264     1  0.0000000  0.6508444  3
    261    265    266    276     1  0.0000000  1.2552000  3
    261    265    266    277     1  0.0000000  1.2552000  3
    261    265    267    268     1  0.0000000  1.2552000  3
    261    265    267    270     1  0.0000000  1.2552000  3
    262    259    261    265     1  0.0000000  0.6508444  3
    262    259    261    263     1  0.0000000  0.6508444  3
    262    259    261    264     1  0.0000000  0.6508444  3
    263    261    265    266     1  0.0000000  1.2552000  3
    263    261    265    267     1  0.0000000  1.2552000  3
    264    261    265    266     1  0.0000000  1.2552000  3
    264    261    265    267     1  0.0000000  1.2552000  3
    265    266    278    279     1  0.0000000  0.6508444  3
    265    266    278    280     1  0.0000000  0.6508444  3
    265    267    269    271     1  0.0000000  0.6508444  3
    265    267    269    272     1  0.0000000  0.6508444  3
    266    265    267    268     1  0.0000000  1.2552000  3
    266    265    267    270     1  0.0000000  1.2552000  3
    267    265    266    276     1  0.0000000  1.2552000  3
    267    265    266    277     1  0.0000000  1.2552000  3
    268    267    269    273     1  0.0000000  0.6508444  3
    268    267    269    271     1  0.0000000  0.6508444  3
    268    267    269    272     1  0.0000000  0.6508444  3
    269    273    274    284     1  180.0000771  9.6232000  2
    270    267    269    273     1  0.0000000  0.6508444  3
    270    267    269    271     1  0.0000000  0.6508444  3
    270    267    269    272     1  0.0000000  0.6508444  3
    271    269    273    274     1  180.0000771  0.0000000  2
    271    269    273    275     1  0.0000000  3.3472000  1
    271    269    273    275     1  0.0000000  0.0000000  2
    271    269    273    275     1  180.0000771  0.3347200  3
    272    269    273    274     1  180.0000771  0.0000000  2
    272    269    273    275     1  0.0000000  3.3472000  1
    272    269    273    275     1  0.0000000  0.0000000  2
    272    269    273    275     1  180.0000771  0.3347200  3
    275    273    274    284     1  0.0000000  7.9496000  1
    275    273    274    284     1  180.0000771  9.6232000  2
    276    266    278    281     1  0.0000000  0.6508444  3
    276    266    278    279     1  0.0000000  0.6508444  3
    276    266    278    280     1  0.0000000  0.6508444  3
    277    266    278    281     1  0.0000000  0.6508444  3
    277    266    278    279     1  0.0000000  0.6508444  3
    277    266    278    280     1  0.0000000  0.6508444  3
    278    281    283    285     1  180.0000771  9.6232000  2
    279    278    281    282     1  0.0000000  3.3472000  1
    279    278    281    282     1  0.0000000  0.0000000  2
    279    278    281    282     1  180.0000771  0.3347200  3
    279    278    281    283     1  180.0000771  0.0000000  2
    280    278    281    282     1  0.0000000  3.3472000  1
    280    278    281    282     1  0.0000000  0.0000000  2
    280    278    281    282     1  180.0000771  0.3347200  3
    280    278    281    283     1  180.0000771  0.0000000  2
    282    281    283    285     1  0.0000000  7.9496000  1
    282    281    283    285     1  180.0000771  9.6232000  2
    286    288    290    292     1  0.0000000  0.6508444  3
    286    288    290    293     1  0.0000000  0.6508444  3
    287    286    288    290     1  0.0000000  0.0000000  2
    287    286    288    289     1  0.0000000  0.0000000  2
    287    286    288    291     1  0.0000000  0.0000000  2
    289    288    290    294     1  0.0000000  0.6508444  3
    289    288    290    292     1  0.0000000  0.6508444  3
    289    288    290    293     1  0.0000000  0.6508444  3
    290    294    295    305     1  0.0000000  1.2552000  3
    290    294    295    306     1  0.0000000  1.2552000  3
    290    294    296    297     1  0.0000000  1.2552000  3
    290    294    296    299     1  0.0000000  1.2552000  3
    291    288    290    294     1  0.0000000  0.6508444  3
    291    288    290    292     1  0.0000000  0.6508444  3
    291    288    290    293     1  0.0000000  0.6508444  3
    292    290    294    295     1  0.0000000  1.2552000  3
    292    290    294    296     1  0.0000000  1.2552000  3
    293    290    294    295     1  0.0000000  1.2552000  3
    293    290    294    296     1  0.0000000  1.2552000  3
    294    295    307    308     1  0.0000000  0.6508444  3
    294    295    307    309     1  0.0000000  0.6508444  3
    294    296    298    300     1  0.0000000  0.6508444  3
    294    296    298    301     1  0.0000000  0.6508444  3
    295    294    296    297     1  0.0000000  1.2552000  3
    295    294    296    299     1  0.0000000  1.2552000  3
    296    294    295    305     1  0.0000000  1.2552000  3
    296    294    295    306     1  0.0000000  1.2552000  3
    297    296    298    302     1  0.0000000  0.6508444  3
    297    296    298    300     1  0.0000000  0.6508444  3
    297    296    298    301     1  0.0000000  0.6508444  3
    298    302    303    313     1  180.0000771  9.6232000  2
    299    296    298    302     1  0.0000000  0.6508444  3
    299    296    298    300     1  0.0000000  0.6508444  3
    299    296    298    301     1  0.0000000  0.6508444  3
    300    298    302    303     1  180.0000771  0.0000000  2
    300    298    302    304     1  0.0000000  3.3472000  1
    300    298    302    304     1  0.0000000  0.0000000  2
    300    298    302    304     1  180.0000771  0.3347200  3
    301    298    302    303     1  180.0000771  0.0000000  2
    301    298    302    304     1  0.0000000  3.3472000  1
    301    298    302    304     1  0.0000000  0.0000000  2
    301    298    302    304     1  180.0000771  0.3347200  3
    304    302    303    313     1  0.0000000  7.9496000  1
    304    302    303    313     1  180.0000771  9.6232000  2
    305    295    307    310     1  0.0000000  0.6508444  3
    305    295    307    308     1  0.0000000  0.6508444  3
    305    295    307    309     1  0.0000000  0.6508444  3
    306    295    307    310     1  0.0000000  0.6508444  3
    306    295    307    308     1  0.0000000  0.6508444  3
    306    295    307    309     1  0.0000000  0.6508444  3
    307    310    312    314     1  180.0000771  9.6232000  2
    308    307    310    311     1  0.0000000  3.3472000  1
    308    307    310    311     1  0.0000000  0.0000000  2
    308    307    310    311     1  180.0000771  0.3347200  3
    308    307    310    312     1  180.0000771  0.0000000  2
    309    307    310    311     1  0.0000000  3.3472000  1
    309    307    310    311     1  0.0000000  0.0000000  2
    309    307    310    311     1  180.0000771  0.3347200  3
    309    307    310    312     1  180.0000771  0.0000000  2
    311    310    312    314     1  0.0000000  7.9496000  1
    311    310    312    314     1  180.0000771  9.6232000  2
    315    317    319    321     1  0.0000000  0.6508444  3
    315    317    319    322     1  0.0000000  0.6508444  3
    316    315    317    319     1  0.0000000  0.0000000  2
    316    315    317    318     1  0.0000000  0.0000000  2
    316    315    317    320     1  0.0000000  0.0000000  2
    318    317    319    323     1  0.0000000  0.6508444  3
    318    317    319    321     1  0.0000000  0.6508444  3
    318    317    319    322     1  0.0000000  0.6508444  3
    319    323    324    334     1  0.0000000  1.2552000  3
    319    323    324    335     1  0.0000000  1.2552000  3
    319    323    325    326     1  0.0000000  1.2552000  3
    319    323    325    328     1  0.0000000  1.2552000  3
    320    317    319    323     1  0.0000000  0.6508444  3
    320    317    319    321     1  0.0000000  0.6508444  3
    320    317    319    322     1  0.0000000  0.6508444  3
    321    319    323    324     1  0.0000000  1.2552000  3
    321    319    323    325     1  0.0000000  1.2552000  3
    322    319    323    324     1  0.0000000  1.2552000  3
    322    319    323    325     1  0.0000000  1.2552000  3
    323    324    336    337     1  0.0000000  0.6508444  3
    323    324    336    338     1  0.0000000  0.6508444  3
    323    325    327    329     1  0.0000000  0.6508444  3
    323    325    327    330     1  0.0000000  0.6508444  3
    324    323    325    326     1  0.0000000  1.2552000  3
    324    323    325    328     1  0.0000000  1.2552000  3
    325    323    324    334     1  0.0000000  1.2552000  3
    325    323    324    335     1  0.0000000  1.2552000  3
    326    325    327    331     1  0.0000000  0.6508444  3
    326    325    327    329     1  0.0000000  0.6508444  3
    326    325    327    330     1  0.0000000  0.6508444  3
    327    331    332    342     1  180.0000771  9.6232000  2
    328    325    327    331     1  0.0000000  0.6508444  3
    328    325    327    329     1  0.0000000  0.6508444  3
    328    325    327    330     1  0.0000000  0.6508444  3
    329    327    331    332     1  180.0000771  0.0000000  2
    329    327    331    333     1  0.0000000  3.3472000  1
    329    327    331    333     1  0.0000000  0.0000000  2
    329    327    331    333     1  180.0000771  0.3347200  3
    330    327    331    332     1  180.0000771  0.0000000  2
    330    327    331    333     1  0.0000000  3.3472000  1
    330    327    331    333     1  0.0000000  0.0000000  2
    330    327    331    333     1  180.0000771  0.3347200  3
    333    331    332    342     1  0.0000000  7.9496000  1
    333    331    332    342     1  180.0000771  9.6232000  2
    334    324    336    339     1  0.0000000  0.6508444  3
    334    324    336    337     1  0.0000000  0.6508444  3
    334    324    336    338     1  0.0000000  0.6508444  3
    335    324    336    339     1  0.0000000  0.6508444  3
    335    324    336    337     1  0.0000000  0.6508444  3
    335    324    336    338     1  0.0000000  0.6508444  3
    336    339    341    343     1  180.0000771  9.6232000  2
    337    336    339    340     1  0.0000000  3.3472000  1
    337    336    339    340     1  0.0000000  0.0000000  2
    337    336    339    340     1  180.0000771  0.3347200  3
    337    336    339    341     1  180.0000771  0.0000000  2
    338    336    339    340     1  0.0000000  3.3472000  1
    338    336    339    340     1  0.0000000  0.0000000  2
    338    336    339    340     1  180.0000771  0.3347200  3
    338    336    339    341     1  180.0000771  0.0000000  2
    340    339    341    343     1  0.0000000  7.9496000  1
    340    339    341    343     1  180.0000771  9.6232000  2
    344    346    348    350     1  0.0000000  0.6508444  3
    344    346    348    351     1  0.0000000  0.6508444  3
    345    344    346    348     1  0.0000000  0.0000000  2
    345    344    346    347     1  0.0000000  0.0000000  2
    345    344    346    349     1  0.0000000  0.0000000  2
    347    346    348    352     1  0.0000000  0.6508444  3
    347    346    348    350     1  0.0000000  0.6508444  3
    347    346    348    351     1  0.0000000  0.6508444  3
    348    352    353    363     1  0.0000000  1.2552000  3
    348    352    353    364     1  0.0000000  1.2552000  3
    348    352    354    355     1  0.0000000  1.2552000  3
    348    352    354    357     1  0.0000000  1.2552000  3
    349    346    348    352     1  0.0000000  0.6508444  3
    349    346    348    350     1  0.0000000  0.6508444  3
    349    346    348    351     1  0.0000000  0.6508444  3
    350    348    352    353     1  0.0000000  1.2552000  3
    350    348    352    354     1  0.0000000  1.2552000  3
    351    348    352    353     1  0.0000000  1.2552000  3
    351    348    352    354     1  0.0000000  1.2552000  3
    352    353    365    366     1  0.0000000  0.6508444  3
    352    353    365    367     1  0.0000000  0.6508444  3
    352    354    356    358     1  0.0000000  0.6508444  3
    352    354    356    359     1  0.0000000  0.6508444  3
    353    352    354    355     1  0.0000000  1.2552000  3
    353    352    354    357     1  0.0000000  1.2552000  3
    354    352    353    363     1  0.0000000  1.2552000  3
    354    352    353    364     1  0.0000000  1.2552000  3
    355    354    356    360     1  0.0000000  0.6508444  3
    355    354    356    358     1  0.0000000  0.6508444  3
    355    354    356    359     1  0.0000000  0.6508444  3
    356    360    361    371     1  180.0000771  9.6232000  2
    357    354    356    360     1  0.0000000  0.6508444  3
    357    354    356    358     1  0.0000000  0.6508444  3
    357    354    356    359     1  0.0000000  0.6508444  3
    358    356    360    361     1  180.0000771  0.0000000  2
    358    356    360    362     1  0.0000000  3.3472000  1
    358    356    360    362     1  0.0000000  0.0000000  2
    358    356    360    362     1  180.0000771  0.3347200  3
    359    356    360    361     1  180.0000771  0.0000000  2
    359    356    360    362     1  0.0000000  3.3472000  1
    359    356    360    362     1  0.0000000  0.0000000  2
    359    356    360    362     1  180.0000771  0.3347200  3
    362    360    361    371     1  0.0000000  7.9496000  1
    362    360    361    371     1  180.0000771  9.6232000  2
    363    353    365    368     1  0.0000000  0.6508444  3
    363    353    365    366     1  0.0000000  0.6508444  3
    363    353    365    367     1  0.0000000  0.6508444  3
    364    353    365    368     1  0.0000000  0.6508444  3
    364    353    365    366     1  0.0000000  0.6508444  3
    364    353    365    367     1  0.0000000  0.6508444  3
    365    368    370    372     1  180.0000771  9.6232000  2
    366    365    368    369     1  0.0000000  3.3472000  1
    366    365    368    369     1  0.0000000  0.0000000  2
    366    365    368    369     1  180.0000771  0.3347200  3
    366    365    368    370     1  180.0000771  0.0000000  2
    367    365    368    369     1  0.0000000  3.3472000  1
    367    365    368    369     1  0.0000000  0.0000000  2
    367    365    368    369     1  180.0000771  0.3347200  3
    367    365    368    370     1  180.0000771  0.0000000  2
    369    368    370    372     1  0.0000000  7.9496000  1
    369    368    370    372     1  180.0000771  9.6232000  2
     33     44     64     65     4  180.0000771  4.6024000  2
     34     69     89     90     4  180.0000771  4.6024000  2
     35     94    114    115     4  180.0000771  4.6024000  2
     36    119    139    140     4  180.0000771  4.6024000  2
     60    143    141    142     4  180.0000771  4.6024000  2
     61    172    170    171     4  180.0000771  4.6024000  2
     85    201    199    200     4  180.0000771  4.6024000  2
     86    230    228    229     4  180.0000771  4.6024000  2
    110    259    257    258     4  180.0000771  4.6024000  2
    111    288    286    287     4  180.0000771  4.6024000  2
    135    317    315    316     4  180.0000771  4.6024000  2
    136    346    344    345     4  180.0000771  4.6024000  2

;[ system ]
;; Name
;Generic title
;
;[ molecules ]
;; Compound       #mols
;system1              1
